Title
42773
    1SAPS     N    1   5.389   4.727   7.609  0.1770 -0.7111  0.3888
    1SAPS   HN1    2   5.346   4.751   7.517  0.7045  1.2538  0.6104
    1SAPS   HN2    3   5.335   4.647   7.647 -0.3726  0.1267  1.4235
    1SAPS   HN3    4   5.363   4.806   7.671  1.8812 -1.2421  1.8574
    1SAPS   C12    5   5.536   4.700   7.594  0.3015  0.0077  0.1014
    1SAPS  H12A    6   5.576   4.792   7.556 -0.2383 -0.1588 -0.9085
    1SAPS   C13    7   5.616   4.662   7.718 -1.0118  1.0562 -0.2438
    1SAPS  O13A    8   5.556   4.621   7.823  0.4765  0.3396 -0.3776
    1SAPS  O13B    9   5.740   4.657   7.709 -0.5940 -0.5473  0.4844
    1SAPS   C11   10   5.564   4.577   7.490 -0.0993 -0.0845 -0.5186
    1SAPS  H11A   11   5.492   4.494   7.505  0.5689 -0.5490  0.2249
    1SAPS  H11B   12   5.665   4.536   7.513  0.5966  1.2725 -1.0713
    1SAPS     P   13   5.419   4.599   7.274  0.3047 -0.1146  0.0470
    1SAPS   O13   14   5.379   4.457   7.276 -0.0229  0.2267 -0.4794
    1SAPS   O14   15   5.316   4.689   7.326 -0.3266  0.2670 -0.2800
    1SAPS   O12   16   5.561   4.619   7.348  0.7318  0.3010 -0.4622
    1SAPS   O11   17   5.451   4.635   7.124 -0.1140 -0.0015 -0.1108
    1SAPS    C1   18   5.522   4.760   7.105 -0.7678 -0.0164  0.2405
    1SAPS    HA   19   5.564   4.805   7.197 -0.8241 -0.8905  0.7046
    1SAPS    HB   20   5.603   4.743   7.031 -0.4729  2.4108 -0.0841
    1SAPS    C2   21   5.431   4.871   7.043 -0.3248 -0.3951  0.5440
    1SAPS    HS   22   5.349   4.882   7.117 -1.4142 -1.2176 -0.5046
    1SAPS   O21   23   5.379   4.825   6.915 -0.1282  0.1188 -0.1707
    1SAPS   C21   24   5.270   4.898   6.885  0.2484 -0.2720  0.2832
    1SAPS   O22   25   5.216   4.977   6.955  0.4760  0.0620 -0.1098
    1SAPS   C22   26   5.204   4.852   6.760  0.0251 -0.5882  0.0508
    1SAPS   H2R   27   5.255   4.887   6.667  1.6933 -0.3678  1.0179
    1SAPS   H2S   28   5.204   4.741   6.754 -2.2462 -0.5671 -1.8952
    1SAPS    C3   29   5.503   5.014   7.035  0.3246  0.9357  0.8242
    1SAPS    HX   30   5.543   5.021   7.139  1.4643 -2.1878  0.6959
    1SAPS    HY   31   5.428   5.096   7.029 -0.0607  0.9002  3.6546
    1SAPS   O31   32   5.609   5.022   6.946 -0.3793  0.0301  0.1133
    1SAPS   C31   33   5.580   5.067   6.822 -0.0403  0.0241  0.1034
    1SAPS   O32   34   5.463   5.085   6.784 -0.2838  0.2153  0.2188
    1SAPS   C32   35   5.707   5.099   6.747  0.6237  0.0631 -0.1799
    1SAPS   H2X   36   5.781   5.021   6.774  0.3875 -0.3428 -0.6827
    1SAPS   H2Y   37   5.750   5.194   6.786 -1.5792  0.9686  0.1671
    1SAPS   C23   38   5.059   4.908   6.754 -0.1868  0.0739 -0.1911
    1SAPS   H3R   39   5.044   5.013   6.788 -0.4893  0.0670 -0.2986
    1SAPS   H3S   40   5.003   4.832   6.812  0.0756 -1.2094 -1.5429
    1SAPS   C24   41   5.001   4.907   6.611 -1.1403 -0.1815  0.5082
    1SAPS   H4R   42   4.893   4.932   6.611 -1.0266  0.3477  0.0087
    1SAPS   H4S   43   5.004   4.803   6.573  0.1755  0.8510 -2.5469
    1SAPS   C25   44   5.080   5.002   6.518 -0.3245  0.3488 -0.4169
    1SAPS   H5R   45   5.142   5.074   6.574  0.4027  0.7154 -1.6624
    1SAPS   C26   46   5.085   5.004   6.382 -0.0054 -0.3285 -0.0599
    1SAPS   H6R   47   5.164   5.068   6.341 -0.2319  0.5046  0.7646
    1SAPS   C27   48   4.993   4.930   6.283  0.4359  0.0587 -0.6767
    1SAPS   H7R   49   4.946   5.011   6.225  1.2225  0.4568 -0.7692
    1SAPS   H7S   50   4.908   4.876   6.330  1.2439 -0.0258  0.7593
    1SAPS   C28   51   5.087   4.841   6.208  0.4559  0.7658 -0.3097
    1SAPS   H8R   52   5.156   4.772   6.260 -0.6605  0.5764  0.9677
    1SAPS   C29   53   5.084   4.836   6.071 -0.1767  0.4725  0.0733
    1SAPS   H9R   54   5.165   4.781   6.020  0.1279  0.7613  0.2354
    1SAPS  C210   55   5.006   4.935   5.989  0.6683  0.3836 -0.1349
    1SAPS  H10R   56   5.065   4.947   5.896  0.0918  0.6869 -0.4683
    1SAPS  H10S   57   5.011   5.035   6.037  2.5802 -0.7772  2.2917
    1SAPS  C211   58   4.867   4.886   5.972 -0.0263 -0.8637 -0.1547
    1SAPS  H11R   59   4.815   4.886   6.069  0.5519  0.5155  0.1810
    1SAPS  C212   60   4.821   4.823   5.865  0.3228  0.3213  0.2089
    1SAPS  H12R   61   4.722   4.777   5.877  1.2712 -1.4774  1.5458
    1SAPS  C213   62   4.896   4.814   5.734  0.4725 -0.0015 -0.2749
    1SAPS  H13R   63   4.931   4.709   5.725 -0.5567 -0.5035  1.2052
    1SAPS  H13S   64   4.971   4.896   5.733 -1.6985  2.1484 -2.1315
    1SAPS  C214   65   4.820   4.825   5.606  0.0495 -1.3179 -0.2844
    1SAPS  H14R   66   4.710   4.836   5.609  0.1686  0.0306  2.4496
    1SAPS  C215   67   4.862   4.825   5.481 -0.1131  0.1523  0.4621
    1SAPS  H15R   68   4.795   4.826   5.394 -0.1845  1.4754  0.5141
    1SAPS  C216   69   5.014   4.811   5.455 -0.3029  0.7407  0.1287
    1SAPS  H16R   70   5.051   4.709   5.479 -0.1608  0.6036 -0.6608
    1SAPS  H16S   71   5.059   4.895   5.512 -0.9995  2.6046 -1.9324
    1SAPS  C217   72   5.062   4.831   5.308 -0.0244 -0.4460 -0.7677
    1SAPS  H17R   73   5.027   4.930   5.272  0.4999  0.5086  1.2171
    1SAPS  H17S   74   5.019   4.742   5.257  0.3659 -1.7116  0.9795
    1SAPS  C218   75   5.214   4.823   5.302 -0.9986  0.6582  0.4090
    1SAPS  H18R   76   5.248   4.728   5.349  0.8319  1.6685  1.2010
    1SAPS  H18S   77   5.260   4.904   5.362  0.1781  1.1137 -1.0592
    1SAPS  C219   78   5.266   4.840   5.159 -1.0656  0.0173 -0.0132
    1SAPS  H19R   79   5.212   4.919   5.102 -1.7338  1.2903  2.2543
    1SAPS  H19S   80   5.250   4.747   5.100 -0.9332  1.8430 -3.1443
    1SAPS  C220   81   5.419   4.863   5.164 -0.0548  0.2094 -0.1146
    1SAPS  H20R   82   5.441   4.958   5.217  0.1247  0.5871 -0.8498
    1SAPS  H20S   83   5.457   4.885   5.062 -0.3575  0.3722 -0.1944
    1SAPS  H20T   84   5.475   4.774   5.199  0.2348  0.9678  1.4010
    1SAPS   C33   85   5.682   5.136   6.596  0.1877 -0.4016  0.5809
    1SAPS   H3X   86   5.577   5.137   6.562  0.5004 -0.4982 -0.4032
    1SAPS   H3Y   87   5.725   5.053   6.536 -2.1997 -0.7673 -0.7378
    1SAPS   C34   88   5.742   5.267   6.553 -0.2065  0.3120  0.2856
    1SAPS   H4X   89   5.850   5.259   6.575  0.5119 -1.0439 -3.0828
    1SAPS   H4Y   90   5.701   5.350   6.615 -0.6516  0.4449 -0.1756
    1SAPS   C35   91   5.720   5.302   6.406  0.5879 -0.0269  0.6166
    1SAPS   H5X   92   5.720   5.412   6.388 -0.8962 -0.0453  0.3450
    1SAPS   H5Y   93   5.620   5.264   6.375 -0.0703  1.2338  1.1270
    1SAPS   C36   94   5.838   5.251   6.325  0.0486 -0.1916  1.0204
    1SAPS   H6X   95   5.858   5.149   6.365  2.1266  0.3922  1.5853
    1SAPS   H6Y   96   5.916   5.321   6.361  0.6411 -1.9953  3.5280
    1SAPS   C37   97   5.821   5.261   6.168  0.0920  0.3241  0.1494
    1SAPS   H7X   98   5.719   5.229   6.141  0.8413 -1.9986 -0.1792
    1SAPS   H7Y   99   5.887   5.185   6.120 -0.7443 -1.0997  1.1786
    1SAPS   C38  100   5.857   5.399   6.119  0.0414  0.5097  0.3725
    1SAPS   H8X  101   5.962   5.419   6.150  0.0450  1.6355 -0.3072
    1SAPS   H8Y  102   5.786   5.476   6.157 -0.8602  1.2995 -2.6497
    1SAPS   C39  103   5.854   5.398   5.965 -0.0676  0.1748  0.6621
    1SAPS   H9X  104   5.950   5.348   5.939  1.8848  1.6865  4.3392
    1SAPS   H9Y  105   5.861   5.497   5.916 -1.9505 -0.3177 -0.7349
    1SAPS  C310  106   5.729   5.341   5.886 -0.2198 -0.2280  0.0457
    1SAPS  H10X  107   5.638   5.378   5.938  0.4724  2.1953 -0.3726
    1SAPS  H10Y  108   5.734   5.230   5.896  0.4726 -0.1644  0.4880
    1SAPS  C311  109   5.724   5.384   5.743  0.1407  0.5255 -0.3952
    1SAPS  H11X  110   5.816   5.357   5.688 -0.7154  0.6094 -1.9123
    1SAPS  H11Y  111   5.721   5.495   5.737  1.2198  0.5376 -0.9194
    1SAPS  C312  112   5.621   5.320   5.652  0.3289  0.6834 -0.1274
    1SAPS  H12X  113   5.523   5.308   5.704  1.3180  2.3560  2.3388
    1SAPS  H12Y  114   5.646   5.215   5.625  0.2290  0.2148  1.4990
    1SAPS  C313  115   5.603   5.396   5.519 -0.4881 -0.3778 -0.4438
    1SAPS  H13X  116   5.703   5.382   5.472  0.8946  0.7137  1.9401
    1SAPS  H13Y  117   5.599   5.506   5.529 -0.0186 -0.4664  1.0038
    1SAPS  C314  118   5.478   5.360   5.434 -0.3272 -0.4450 -0.0656
    1SAPS  H14X  119   5.387   5.404   5.480  0.4691 -0.9501  2.1167
    1SAPS  H14Y  120   5.468   5.249   5.428  0.7036 -0.5021 -1.0773
    1SAPS  C315  121   5.488   5.422   5.295  0.7994  0.2012  0.0839
    1SAPS  H15X  122   5.585   5.394   5.249  0.2275  0.3169 -1.2330
    1SAPS  H15Y  123   5.491   5.533   5.302 -0.7410  0.3270 -0.8174
    1SAPS  C316  124   5.366   5.383   5.206 -0.0823 -0.0092  0.0625
    1SAPS  H16X  125   5.279   5.438   5.249 -0.0436  0.3744 -0.3343
    1SAPS  H16Y  126   5.339   5.277   5.222 -0.6988  0.3610  1.7016
    1SAPS  C317  127   5.376   5.415   5.055  0.0493 -0.2297 -0.4178
    1SAPS  H17X  128   5.361   5.525   5.043 -1.3013  0.1104  3.1934
    1SAPS  H17Y  129   5.293   5.355   5.014 -0.6266 -0.0300  0.6315
    1SAPS  C318  130   5.509   5.377   4.986  0.0897 -0.0956  0.7597
    1SAPS  H18X  131   5.512   5.411   4.880 -1.8107  0.3956  0.8255
    1SAPS  H18Y  132   5.512   5.268   5.004 -2.2838 -0.0147  2.0250
    1SAPS  H18Z  133   5.594   5.431   5.035  1.5841 -2.9046  1.4481
    2SAPS     N  134   5.193   1.349   7.245 -0.0641  0.1645  0.5222
    2SAPS   HN1  135   5.154   1.367   7.151 -0.3769 -1.5724  0.2865
    2SAPS   HN2  136   5.283   1.299   7.230 -0.1344  0.7736 -2.3883
    2SAPS   HN3  137   5.121   1.293   7.297  0.1295 -0.6249 -0.0419
    2SAPS   C12  138   5.230   1.463   7.330 -0.2779  0.1251 -0.5057
    2SAPS  H12A  139   5.211   1.432   7.432 -1.6155  0.2454 -0.7044
    2SAPS   C13  140   5.382   1.519   7.314 -0.5454  0.0304 -0.0255
    2SAPS  O13A  141   5.456   1.434   7.249 -0.0855 -0.2006 -0.2771
    2SAPS  O13B  142   5.434   1.587   7.409  0.3423  0.0785 -0.1633
    2SAPS   C11  143   5.137   1.584   7.313 -0.2080 -0.7875  0.2915
    2SAPS  H11A  144   5.149   1.641   7.219 -1.6522 -0.0286  0.5366
    2SAPS  H11B  145   5.171   1.655   7.391 -1.6121  0.8789 -0.5428
    2SAPS     P  146   4.925   1.540   7.469 -0.0365  0.2106 -0.3127
    2SAPS   O13  147   4.985   1.430   7.552 -0.8969  0.4037 -0.5050
    2SAPS   O14  148   4.924   1.674   7.528  0.4700  0.0946  0.4447
    2SAPS   O12  149   5.000   1.546   7.334  0.0792  0.0341 -0.1199
    2SAPS   O11  150   4.780   1.496   7.427  0.1720  0.0000 -0.3820
    2SAPS    C1  151   4.710   1.553   7.319  0.1522  0.8066 -0.0796
    2SAPS    HA  152   4.640   1.630   7.359  1.6357 -0.1826  5.3015
    2SAPS    HB  153   4.775   1.606   7.246  0.4246  0.5994  0.0094
    2SAPS    C2  154   4.639   1.442   7.243  0.0724  0.1128  0.1632
    2SAPS    HS  155   4.576   1.380   7.311 -0.7235  3.0708  2.3406
    2SAPS   O21  156   4.740   1.364   7.184  0.3333 -0.5437 -0.3172
    2SAPS   C21  157   4.705   1.255   7.118  0.7013 -0.1027 -0.5273
    2SAPS   O22  158   4.599   1.193   7.126 -0.0952  0.9577 -0.2252
    2SAPS   C22  159   4.829   1.217   7.032 -0.1020 -0.5456 -0.9547
    2SAPS   H2R  160   4.904   1.298   7.028 -0.7259  0.1142  0.0956
    2SAPS   H2S  161   4.879   1.134   7.087  0.7145  0.2926 -0.4023
    2SAPS    C3  162   4.535   1.501   7.147 -0.3335 -0.0388  0.3968
    2SAPS    HX  163   4.456   1.558   7.202 -0.7304  1.6551 -1.7969
    2SAPS    HY  164   4.486   1.418   7.093  0.2278 -0.7185  0.9162
    2SAPS   O31  165   4.598   1.593   7.059 -0.0054  0.1396  0.1175
    2SAPS   C31  166   4.539   1.616   6.942 -0.4557 -0.1413 -0.1264
    2SAPS   O32  167   4.416   1.609   6.926 -0.0616 -0.7491  0.3570
    2SAPS   C32  168   4.640   1.691   6.851 -0.4160  0.4660 -1.2004
    2SAPS   H2X  169   4.730   1.626   6.859 -1.2556 -0.4866  3.1995
    2SAPS   H2Y  170   4.659   1.785   6.909 -1.7271 -0.3805  0.7066
    2SAPS   C23  171   4.784   1.158   6.900  0.7016  0.6629  0.1680
    2SAPS   H3R  172   4.708   1.080   6.920 -0.4760  1.7171 -0.0994
    2SAPS   H3S  173   4.875   1.119   6.848 -0.3909  0.6166 -1.7999
    2SAPS   C24  174   4.728   1.263   6.811  0.4415 -1.0599 -0.4855
    2SAPS   H4R  175   4.648   1.323   6.860  1.6383 -0.9932  1.5172
    2SAPS   H4S  176   4.663   1.225   6.730 -0.8993 -0.6626  0.3734
    2SAPS   C25  177   4.841   1.347   6.758 -1.0656 -0.8790  0.0283
    2SAPS   H5R  178   4.896   1.394   6.840 -2.2237  0.0544  0.3053
    2SAPS   C26  179   4.889   1.356   6.628  0.1465  0.1704 -0.2387
    2SAPS   H6R  180   4.961   1.436   6.607 -0.3846  0.8999  0.6170
    2SAPS   C27  181   4.828   1.294   6.501  0.1461 -0.0966  0.2369
    2SAPS   H7R  182   4.821   1.362   6.414 -0.1876 -0.3393  0.0746
    2SAPS   H7S  183   4.720   1.287   6.527  0.3668  1.7332  1.9378
    2SAPS   C28  184   4.892   1.167   6.456  1.3388  0.2752  0.1999
    2SAPS   H8R  185   4.948   1.120   6.539  0.1885  0.8387  1.3406
    2SAPS   C29  186   4.908   1.124   6.332 -0.3156  0.1846 -0.2403
    2SAPS   H9R  187   4.952   1.024   6.323 -2.3195 -1.1672  3.1384
    2SAPS  C210  188   4.855   1.198   6.212  0.5128 -0.9017 -0.7199
    2SAPS  H10R  189   4.818   1.298   6.244 -0.9430 -1.0884 -1.6926
    2SAPS  H10S  190   4.773   1.145   6.157 -0.4764  1.3734 -1.5646
    2SAPS  C211  191   4.982   1.220   6.129  0.2988  0.6962  0.0795
    2SAPS  H11R  192   5.078   1.237   6.181  0.7159  0.1361 -0.4846
    2SAPS  C212  193   4.994   1.215   5.998  0.0375  0.0350  0.3952
    2SAPS  H12R  194   5.097   1.228   5.963 -0.5470  1.5835 -0.8828
    2SAPS  C213  195   4.886   1.196   5.896 -0.1673 -0.1931 -0.6167
    2SAPS  H13R  196   4.857   1.296   5.857  1.4060  0.3013 -0.6281
    2SAPS  H13S  197   4.802   1.149   5.951  0.2131 -1.6494 -1.2348
    2SAPS  C214  198   4.925   1.102   5.787  0.1500 -0.1392 -0.2158
    2SAPS  H14R  199   4.994   1.023   5.818  0.1157  0.0832  0.4547
    2SAPS  C215  200   4.879   1.103   5.659 -0.5426  0.5604 -1.0808
    2SAPS  H15R  201   4.918   1.024   5.593 -3.0168  0.1967 -2.2204
    2SAPS  C216  202   4.777   1.190   5.587  0.5072  1.1738 -0.0684
    2SAPS  H16R  203   4.755   1.283   5.644 -0.4095  0.2449  1.1463
    2SAPS  H16S  204   4.680   1.137   5.576  0.8730  0.8892 -2.4247
    2SAPS  C217  205   4.834   1.246   5.453 -0.3920 -0.6037 -0.0191
    2SAPS  H17R  206   4.940   1.276   5.467 -0.4914  0.9045 -2.0414
    2SAPS  H17S  207   4.768   1.333   5.429 -3.6171 -2.2173  2.2627
    2SAPS  C218  208   4.827   1.134   5.346  0.7972 -0.1353  0.0993
    2SAPS  H18R  209   4.720   1.105   5.352  0.4356  1.3767  2.1265
    2SAPS  H18S  210   4.885   1.046   5.382 -0.0625 -1.5837 -1.9103
    2SAPS  C219  211   4.860   1.193   5.212 -0.0613  0.8536 -0.2972
    2SAPS  H19R  212   4.956   1.245   5.227  0.5791  0.4712 -2.6426
    2SAPS  H19S  213   4.793   1.272   5.170 -1.2546  0.6810  1.2079
    2SAPS  C220  214   4.882   1.095   5.094 -0.2442  0.0187 -0.0687
    2SAPS  H20R  215   4.902   1.138   4.993 -3.8315 -1.1191 -1.4250
    2SAPS  H20S  216   4.787   1.039   5.089  0.4562 -1.1344 -0.9655
    2SAPS  H20T  217   4.963   1.023   5.115  0.3445 -0.0261 -2.2083
    2SAPS   C33  218   4.595   1.708   6.707 -0.1305  0.4109 -0.4844
    2SAPS   H3X  219   4.499   1.765   6.711 -1.4144 -1.4966 -2.0891
    2SAPS   H3Y  220   4.580   1.605   6.670 -0.0330  0.2782 -0.1550
    2SAPS   C34  221   4.700   1.768   6.618  0.3288 -0.4839  0.1336
    2SAPS   H4X  222   4.792   1.707   6.626  0.4036 -0.1783  2.0746
    2SAPS   H4Y  223   4.718   1.877   6.631  0.8412 -0.2764 -1.9466
    2SAPS   C35  224   4.664   1.772   6.468 -0.1225 -0.0334  0.2651
    2SAPS   H5X  225   4.751   1.825   6.425 -0.1702 -0.8069 -0.8397
    2SAPS   H5Y  226   4.575   1.837   6.455  0.6811  1.3306  1.2921
    2SAPS   C36  227   4.667   1.630   6.403 -0.0026 -0.6384 -0.5391
    2SAPS   H6X  228   4.571   1.577   6.422  0.8468 -1.5530  1.4116
    2SAPS   H6Y  229   4.741   1.561   6.449 -1.1198  0.2765  2.9404
    2SAPS   C37  230   4.701   1.620   6.256 -0.2107 -0.5023  0.2871
    2SAPS   H7X  231   4.640   1.543   6.205 -0.5391  0.4322 -0.7820
    2SAPS   H7Y  232   4.808   1.593   6.249  0.4020  1.4802  1.3137
    2SAPS   C38  233   4.681   1.748   6.177  0.3142 -0.5500 -0.3698
    2SAPS   H8X  234   4.742   1.831   6.218  0.5036 -0.8566 -0.0265
    2SAPS   H8Y  235   4.572   1.766   6.185  0.4910  0.2050  0.4157
    2SAPS   C39  236   4.702   1.727   6.024  0.2330 -0.3702 -0.3514
    2SAPS   H9X  237   4.806   1.697   5.999 -0.7228 -3.0400 -1.5165
    2SAPS   H9Y  238   4.671   1.820   5.972 -1.2116 -1.0884 -0.8267
    2SAPS  C310  239   4.613   1.632   5.953 -0.0830  0.2817 -0.6923
    2SAPS  H10X  240   4.507   1.651   5.981  0.3229  2.4456 -0.4393
    2SAPS  H10Y  241   4.625   1.529   5.993 -2.5928  0.9837  2.2089
    2SAPS  C311  242   4.616   1.648   5.802  0.9280  0.1541  0.1790
    2SAPS  H11X  243   4.585   1.749   5.768  1.2484 -0.0043 -0.5998
    2SAPS  H11Y  244   4.530   1.589   5.763 -0.5553  0.2346  3.0713
    2SAPS  C312  245   4.749   1.601   5.734  0.0251 -0.2527  0.7411
    2SAPS  H12X  246   4.770   1.502   5.781  1.5198 -0.8371 -1.0417
    2SAPS  H12Y  247   4.842   1.660   5.746 -1.1361  2.1431 -1.1075
    2SAPS  C313  248   4.730   1.569   5.586 -0.3168  0.0398 -0.9118
    2SAPS  H13X  249   4.662   1.483   5.572 -1.2632  0.6383 -0.1343
    2SAPS  H13Y  250   4.829   1.540   5.545 -1.3339  0.1944 -3.6954
    2SAPS  C314  251   4.682   1.678   5.490 -0.0704  0.4887 -0.1622
    2SAPS  H14X  252   4.758   1.759   5.485 -0.6842  1.4102  3.0633
    2SAPS  H14Y  253   4.593   1.723   5.537  0.7871  2.6271 -0.4635
    2SAPS  C315  254   4.619   1.637   5.356 -0.2963 -0.1487 -0.6634
    2SAPS  H15X  255   4.559   1.723   5.320  0.0051 -0.3709 -1.7427
    2SAPS  H15Y  256   4.544   1.561   5.388  0.3349 -0.4325  0.1898
    2SAPS  C316  257   4.708   1.588   5.243 -0.0222  0.2703  0.1676
    2SAPS  H16X  258   4.782   1.520   5.291 -1.0781 -0.2894  1.0619
    2SAPS  H16Y  259   4.769   1.674   5.208  2.8936 -2.0909 -1.0563
    2SAPS  C317  260   4.641   1.518   5.124  0.0369 -0.2715  0.1944
    2SAPS  H17X  261   4.554   1.463   5.166 -1.3357  2.3630  1.0212
    2SAPS  H17Y  262   4.711   1.458   5.062  0.4461  0.4864 -0.0834
    2SAPS  C318  263   4.594   1.620   5.011 -0.1090  0.5831 -0.0618
    2SAPS  H18X  264   4.684   1.651   4.954 -0.4513 -1.3488 -1.8080
    2SAPS  H18Y  265   4.547   1.704   5.065 -1.7304 -0.3472  0.0326
    2SAPS  H18Z  266   4.526   1.575   4.936  1.0205  1.2865 -1.5625
    3SAPS     N  267   4.645   0.013   7.435 -0.0181 -0.5165 -0.0588
    3SAPS   HN1  268   4.640   0.091   7.366 -0.9957  2.0330  2.6364
    3SAPS   HN2  269   4.613  -0.081   7.407  1.2178 -0.7904 -0.6106
    3SAPS   HN3  270   4.585   0.049   7.513  2.2865  2.0984  0.6457
    3SAPS   C12  271   4.786   0.004   7.488 -0.0082 -0.1934 -1.0749
    3SAPS  H12A  272   4.848   0.090   7.467 -2.0650  1.5403 -0.4771
    3SAPS   C13  273   4.790  -0.030   7.638  0.5649  1.1043  0.0090
    3SAPS  O13A  274   4.683  -0.023   7.706  0.6804 -0.2036  0.4713
    3SAPS  O13B  275   4.899  -0.040   7.700 -0.3390  0.1101  0.2374
    3SAPS   C11  276   4.866  -0.110   7.413 -0.5568  0.4910  0.4062
    3SAPS  H11A  277   4.975  -0.096   7.428 -0.1280 -0.0999 -1.7209
    3SAPS  H11B  278   4.860  -0.100   7.302  2.0000 -1.0312  0.0496
    3SAPS     P  279   4.710  -0.328   7.405  0.5974  0.1603 -0.5145
    3SAPS   O13  280   4.723  -0.464   7.466  0.3137  0.5010 -0.5697
    3SAPS   O14  281   4.591  -0.252   7.441  0.2151  0.5326 -0.4750
    3SAPS   O12  282   4.834  -0.240   7.449  0.3147  0.1349  0.0722
    3SAPS   O11  283   4.722  -0.337   7.250 -0.1989  0.5793 -0.0020
    3SAPS    C1  284   4.802  -0.449   7.203  0.1216 -0.8741  0.3353
    3SAPS    HA  285   4.900  -0.451   7.255  1.7610  2.6616 -2.1906
    3SAPS    HB  286   4.736  -0.538   7.203 -1.4718  0.1972 -1.6152
    3SAPS    C2  287   4.848  -0.443   7.055 -0.7170 -0.6702  0.4019
    3SAPS    HS  288   4.924  -0.362   7.041  0.9979 -2.3421 -0.4521
    3SAPS   O21  289   4.732  -0.404   6.980 -0.2619  0.6111 -0.3536
    3SAPS   C21  290   4.754  -0.354   6.864  0.7922  0.1994 -0.1503
    3SAPS   O22  291   4.862  -0.324   6.810 -0.1382 -0.0615 -0.3114
    3SAPS   C22  292   4.622  -0.315   6.802  0.1228 -0.3952  0.4417
    3SAPS   H2R  293   4.550  -0.280   6.879 -1.8029 -0.9226 -1.0435
    3SAPS   H2S  294   4.650  -0.234   6.731 -0.7942  0.0872  0.6087
    3SAPS    C3  295   4.915  -0.576   7.001  0.4313  0.7974  0.0908
    3SAPS    HX  296   5.011  -0.590   7.055  1.7829  0.7723 -2.2058
    3SAPS    HY  297   4.949  -0.569   6.896  1.9653 -2.5409  0.2243
    3SAPS   O31  298   4.826  -0.693   7.004  0.6569 -0.5455 -0.2832
    3SAPS   C31  299   4.733  -0.701   6.909  0.8932 -0.4413 -0.0553
    3SAPS   O32  300   4.733  -0.640   6.803  0.0125  0.4267  0.3959
    3SAPS   C32  301   4.623  -0.805   6.952  0.2184  0.2014  1.0348
    3SAPS   H2X  302   4.573  -0.776   7.047 -0.4712 -1.7680  1.3167
    3SAPS   H2Y  303   4.676  -0.901   6.969 -1.9226 -1.4454 -0.9236
    3SAPS   C23  304   4.553  -0.423   6.712 -0.2619 -0.5726  0.2983
    3SAPS   H3R  305   4.451  -0.383   6.692 -0.0297 -1.1350 -2.4746
    3SAPS   H3S  306   4.539  -0.526   6.753 -1.4872 -1.3208 -1.8471
    3SAPS   C24  307   4.627  -0.434   6.576  0.2539 -0.2773 -0.1893
    3SAPS   H4R  308   4.736  -0.442   6.596  0.0861 -1.9142  0.2133
    3SAPS   H4S  309   4.637  -0.338   6.520  2.1419 -0.3519 -0.0363
    3SAPS   C25  310   4.574  -0.543   6.486 -0.2948  0.8302 -0.2259
    3SAPS   H5R  311   4.600  -0.645   6.519  0.0649  1.6509  2.2196
    3SAPS   C26  312   4.510  -0.523   6.369  0.3783  0.5102  0.0341
    3SAPS   H6R  313   4.470  -0.607   6.311  0.8299  0.0307  0.4145
    3SAPS   C27  314   4.474  -0.388   6.315 -0.4294 -0.1298 -0.1395
    3SAPS   H7R  315   4.551  -0.359   6.240  0.0792  0.8040  0.7135
    3SAPS   H7S  316   4.476  -0.305   6.389  1.4900 -0.5455  0.3362
    3SAPS   C28  317   4.339  -0.388   6.244 -0.0756 -0.0890 -0.5403
    3SAPS   H8R  318   4.249  -0.407   6.304 -1.1302  2.8021 -1.0609
    3SAPS   C29  319   4.311  -0.336   6.120 -0.3403  0.0918 -0.0590
    3SAPS   H9R  320   4.214  -0.355   6.073  0.3905  2.1518 -2.6298
    3SAPS  C210  321   4.416  -0.263   6.034 -0.3361 -0.4596  0.0978
    3SAPS  H10R  322   4.479  -0.207   6.106 -0.7500  1.2376 -0.7811
    3SAPS  H10S  323   4.362  -0.179   5.985  0.1597  0.8198  1.6636
    3SAPS  C211  324   4.509  -0.346   5.942 -0.2404 -0.3408 -0.7136
    3SAPS  H11R  325   4.528  -0.452   5.966 -0.0713 -0.9515 -3.2655
    3SAPS  C212  326   4.549  -0.307   5.822 -0.1772 -0.5201 -0.5047
    3SAPS  H12R  327   4.612  -0.371   5.759 -0.3629 -0.4428 -0.7697
    3SAPS  C213  328   4.501  -0.178   5.757 -0.7631 -0.1984 -0.2794
    3SAPS  H13R  329   4.588  -0.123   5.717 -0.2856  0.2574  1.3282
    3SAPS  H13S  330   4.449  -0.108   5.826 -0.2413 -0.3336  0.2563
    3SAPS  C214  331   4.409  -0.216   5.647  0.4348 -0.2079  0.2903
    3SAPS  H14R  332   4.317  -0.269   5.677  0.2984 -0.6879 -0.9025
    3SAPS  C215  333   4.409  -0.173   5.523  0.1508 -0.5695  0.2128
    3SAPS  H15R  334   4.336  -0.221   5.457  2.9568 -3.0864 -1.2928
    3SAPS  C216  335   4.529  -0.105   5.457  0.0834 -0.3329 -0.1374
    3SAPS  H16R  336   4.624  -0.148   5.496 -0.2687 -1.4986 -0.5379
    3SAPS  H16S  337   4.523   0.003   5.481 -1.0850 -0.4385  0.0723
    3SAPS  C217  338   4.531  -0.109   5.303  0.5859  0.4601  0.4168
    3SAPS  H17R  339   4.627  -0.060   5.274  0.9832  0.3165  1.4407
    3SAPS  H17S  340   4.452  -0.053   5.249  1.2026  0.6433 -0.3155
    3SAPS  C218  341   4.547  -0.247   5.238  0.0294  0.7433 -0.2488
    3SAPS  H18R  342   4.477  -0.308   5.299 -0.2931  0.4649 -0.8882
    3SAPS  H18S  343   4.647  -0.285   5.267 -1.5357 -1.6844  2.5143
    3SAPS  C219  344   4.533  -0.259   5.087  0.3369  0.3339 -0.7408
    3SAPS  H19R  345   4.428  -0.242   5.054  0.9081  1.1337 -2.2112
    3SAPS  H19S  346   4.602  -0.194   5.030 -0.0805  1.6069  0.1544
    3SAPS  C220  347   4.564  -0.406   5.049 -0.2674 -0.5079 -0.1705
    3SAPS  H20R  348   4.665  -0.427   5.090  0.4334  1.7344 -0.5724
    3SAPS  H20S  349   4.570  -0.432   4.941  0.5420 -0.5488 -0.1238
    3SAPS  H20T  350   4.487  -0.479   5.082 -0.6365 -1.3478 -2.6877
    3SAPS   C33  351   4.527  -0.840   6.836 -0.1954 -0.3282  0.8252
    3SAPS   H3X  352   4.484  -0.741   6.811  0.9965 -0.3049 -1.3575
    3SAPS   H3Y  353   4.441  -0.909   6.857 -0.3203 -0.0323  1.3135
    3SAPS   C34  354   4.603  -0.892   6.712  0.8288 -0.7956  0.2221
    3SAPS   H4X  355   4.634  -0.997   6.731  2.4443 -0.7109 -1.6747
    3SAPS   H4Y  356   4.691  -0.828   6.688  0.1959 -0.2074 -0.5830
    3SAPS   C35  357   4.505  -0.889   6.592 -0.3907 -0.0024 -0.6013
    3SAPS   H5X  358   4.421  -0.959   6.611  1.5575 -1.8006  2.1111
    3SAPS   H5Y  359   4.472  -0.783   6.583  1.5332  0.5723 -1.4289
    3SAPS   C36  360   4.569  -0.929   6.467  0.1363 -0.2794 -0.6140
    3SAPS   H6X  361   4.609  -1.032   6.478 -1.5583 -0.7230  2.1297
    3SAPS   H6Y  362   4.659  -0.870   6.439 -0.3014 -0.6256 -2.9530
    3SAPS   C37  363   4.470  -0.931   6.351 -0.9452 -0.2175 -1.3402
    3SAPS   H7X  364   4.402  -0.845   6.364  0.3281  0.6468 -0.1736
    3SAPS   H7Y  365   4.414  -1.027   6.353  1.7774 -2.0405  3.4917
    3SAPS   C38  366   4.541  -0.929   6.213  1.0248 -1.0941 -0.5171
    3SAPS   H8X  367   4.551  -1.036   6.182  0.9463 -1.0491 -0.6978
    3SAPS   H8Y  368   4.639  -0.878   6.223  1.9495 -3.0072  0.9984
    3SAPS   C39  369   4.467  -0.844   6.106  0.4552  0.6621 -0.3232
    3SAPS   H9X  370   4.423  -0.753   6.153 -0.6357 -0.3451  0.6581
    3SAPS   H9Y  371   4.382  -0.899   6.061 -0.3448  1.4488  0.1854
    3SAPS  C310  372   4.559  -0.816   5.985 -0.4376 -0.2772  0.1010
    3SAPS  H10X  373   4.604  -0.915   5.961 -1.5103 -1.3825  2.3717
    3SAPS  H10Y  374   4.636  -0.738   6.004 -0.9167  0.2648 -0.1272
    3SAPS  C311  375   4.478  -0.763   5.866 -0.0472 -0.0076 -0.3590
    3SAPS  H11X  376   4.440  -0.664   5.899 -0.6860  0.1099 -1.3923
    3SAPS  H11Y  377   4.387  -0.826   5.857 -0.0818 -0.0944  0.5290
    3SAPS  C312  378   4.563  -0.755   5.739 -0.4690 -0.6135  0.0574
    3SAPS  H12X  379   4.622  -0.848   5.726 -1.0883 -1.2114  1.3233
    3SAPS  H12Y  380   4.634  -0.669   5.742  0.7284 -1.4678 -1.9313
    3SAPS  C313  381   4.467  -0.745   5.614  0.6737 -0.3571  0.1202
    3SAPS  H13X  382   4.429  -0.641   5.608  3.5489  0.7804  0.1995
    3SAPS  H13Y  383   4.372  -0.802   5.626  1.1199 -1.8191 -2.4788
    3SAPS  C314  384   4.529  -0.786   5.481  0.6058  0.1070 -0.1838
    3SAPS  H14X  385   4.578  -0.884   5.500 -1.3636 -0.9144 -0.1368
    3SAPS  H14Y  386   4.592  -0.704   5.441  0.7113 -1.0408 -2.5602
    3SAPS  C315  387   4.418  -0.809   5.375 -0.2429  0.6992  0.4807
    3SAPS  H15X  388   4.346  -0.726   5.359 -1.0828  0.2677  1.9056
    3SAPS  H15Y  389   4.349  -0.890   5.406 -0.6542  0.6830 -0.4370
    3SAPS  C316  390   4.483  -0.852   5.241  1.0456  0.4448 -0.1245
    3SAPS  H16X  391   4.549  -0.941   5.250  0.1168 -0.5127 -2.1571
    3SAPS  H16Y  392   4.539  -0.766   5.198  0.1041  0.8068 -0.6362
    3SAPS  C317  393   4.376  -0.896   5.139 -0.6932 -0.3424 -0.3714
    3SAPS  H17X  394   4.295  -0.823   5.163  2.2538  2.9099  0.4935
    3SAPS  H17Y  395   4.347  -0.996   5.178  0.8719 -0.4516  0.6140
    3SAPS  C318  396   4.422  -0.906   4.994 -0.0061  0.3253 -0.0470
    3SAPS  H18X  397   4.400  -0.813   4.938 -2.5833 -0.6276 -0.7725
    3SAPS  H18Y  398   4.352  -0.976   4.942 -0.0258  0.3065  0.0033
    3SAPS  H18Z  399   4.527  -0.943   4.992  0.3638  1.3700 -0.7693
    4SAPS     N  400   4.001   3.742   7.102  0.5839 -0.3115 -0.6906
    4SAPS   HN1  401   4.007   3.710   7.003  1.7654 -0.3843 -0.6141
    4SAPS   HN2  402   3.901   3.737   7.131  1.5632 -0.2279  3.2865
    4SAPS   HN3  403   4.028   3.840   7.124 -2.1829  0.0272  1.8634
    4SAPS   C12  404   4.082   3.643   7.189  0.3092  0.3085  0.2121
    4SAPS  H12A  405   4.046   3.648   7.291  1.9722 -2.1500  1.0247
    4SAPS   C13  406   4.039   3.497   7.148  0.3526  0.0454  0.5192
    4SAPS  O13A  407   3.961   3.477   7.053 -0.0055 -0.4882  0.0632
    4SAPS  O13B  408   4.061   3.406   7.230  0.0274 -0.8231  0.1915
    4SAPS   C11  409   4.236   3.661   7.172 -0.4115 -0.2021  0.4996
    4SAPS  H11A  410   4.286   3.588   7.240 -0.0669  0.4518  0.9601
    4SAPS  H11B  411   4.269   3.764   7.197  0.5964 -0.1205 -1.0133
    4SAPS     P  412   4.445   3.628   7.025  0.3952  0.3478 -0.3370
    4SAPS   O13  413   4.508   3.760   7.033  0.3258 -0.4442 -0.1543
    4SAPS   O14  414   4.500   3.527   7.119 -0.2233  0.4167  0.1378
    4SAPS   O12  415   4.281   3.637   7.043 -0.1186  0.4366  0.5173
    4SAPS   O11  416   4.460   3.571   6.878 -0.4636 -0.6002  0.0378
    4SAPS    C1  417   4.393   3.449   6.828 -0.1619  0.8732 -0.0200
    4SAPS    HA  418   4.462   3.411   6.750 -1.3866 -1.1086 -0.2068
    4SAPS    HB  419   4.367   3.374   6.906  0.6832  0.3978 -0.1828
    4SAPS    C2  420   4.260   3.480   6.757  0.2135 -0.2198 -0.1767
    4SAPS    HS  421   4.197   3.521   6.839  0.7958 -2.6962  1.6288
    4SAPS   O21  422   4.189   3.362   6.697 -0.2393  0.6732  0.1641
    4SAPS   C21  423   4.064   3.369   6.668 -0.8507  0.9911  0.3884
    4SAPS   O22  424   4.002   3.474   6.666  0.4176 -0.3659 -0.1035
    4SAPS   C22  425   4.020   3.231   6.620  0.7769 -0.3534  0.4596
    4SAPS   H2R  426   4.099   3.188   6.555  0.5009 -0.3089  0.0850
    4SAPS   H2S  427   3.998   3.162   6.703 -0.4548  0.4352  0.8224
    4SAPS    C3  428   4.275   3.585   6.646 -0.2241 -0.0497  0.3230
    4SAPS    HX  429   4.315   3.674   6.699 -0.1734 -1.3213  2.4950
    4SAPS    HY  430   4.174   3.611   6.606 -0.0111  0.4052  0.0744
    4SAPS   O31  431   4.360   3.529   6.542  0.3887 -0.4356 -0.5790
    4SAPS   C31  432   4.400   3.622   6.449 -0.7073 -0.4134  0.4433
    4SAPS   O32  433   4.360   3.737   6.450  0.1685 -0.1712 -0.1658
    4SAPS   C32  434   4.493   3.552   6.346 -0.0531  0.6784 -0.1141
    4SAPS   H2X  435   4.425   3.505   6.272  1.6943  0.0498 -1.3966
    4SAPS   H2Y  436   4.550   3.468   6.391 -2.7149  0.5597  3.4739
    4SAPS   C23  437   3.885   3.225   6.531  0.1433 -0.3119  0.4603
    4SAPS   H3R  438   3.806   3.278   6.588  0.6527 -0.9265  1.7777
    4SAPS   H3S  439   3.853   3.119   6.527  1.2900 -0.6207 -1.7798
    4SAPS   C24  440   3.897   3.279   6.390 -0.0185 -0.4560  0.3461
    4SAPS   H4R  441   3.798   3.246   6.350  0.3948 -1.7895  0.3683
    4SAPS   H4S  442   3.978   3.234   6.330 -1.2377  1.0218 -2.5713
    4SAPS   C25  443   3.908   3.431   6.379  0.1223 -0.2110 -0.4803
    4SAPS   H5R  444   3.822   3.480   6.428 -0.3105  0.7737 -2.1187
    4SAPS   C26  445   3.998   3.506   6.313  0.1449 -0.4852 -0.2292
    4SAPS   H6R  446   3.985   3.614   6.297 -0.0603 -0.6384 -1.1556
    4SAPS   C27  447   4.122   3.451   6.245 -0.0365  0.0384  0.1183
    4SAPS   H7R  448   4.112   3.354   6.192  0.0478 -1.4063  2.5992
    4SAPS   H7S  449   4.194   3.423   6.324  0.1546 -0.6550 -0.2980
    4SAPS   C28  450   4.188   3.563   6.165  0.5316 -0.0785  0.4635
    4SAPS   H8R  451   4.255   3.630   6.221  0.2279  1.7433 -1.2370
    4SAPS   C29  452   4.172   3.571   6.029  0.4573  0.2961  0.1642
    4SAPS   H9R  453   4.238   3.641   5.976  4.0364 -2.9605 -0.1736
    4SAPS  C210  454   4.096   3.480   5.937  0.0164  0.4725  0.4545
    4SAPS  H10R  455   4.038   3.400   5.988  0.6425  0.5902  1.3893
    4SAPS  H10S  456   4.167   3.427   5.870 -1.5928 -1.2117 -0.0009
    4SAPS  C211  457   3.995   3.557   5.860 -0.4023 -0.4758 -0.8010
    4SAPS  H11R  458   3.906   3.598   5.912 -2.0088 -0.5311 -3.3565
    4SAPS  C212  459   4.001   3.614   5.740  0.1275  0.5905  0.7280
    4SAPS  H12R  460   3.906   3.654   5.700  0.0578  0.3030  0.6031
    4SAPS  C213  461   4.125   3.605   5.642  0.2519  0.0164 -0.3347
    4SAPS  H13R  462   4.224   3.618   5.690 -0.1396  1.9833  0.0376
    4SAPS  H13S  463   4.115   3.692   5.573  1.3909  1.0801  0.7904
    4SAPS  C214  464   4.123   3.475   5.562 -0.2685 -0.2959  0.7922
    4SAPS  H14R  465   4.066   3.391   5.603  1.6738 -1.2800  1.6346
    4SAPS  C215  466   4.170   3.454   5.437 -0.4749  0.1170 -0.3966
    4SAPS  H15R  467   4.149   3.353   5.397 -1.4194  1.1266 -2.6562
    4SAPS  C216  468   4.238   3.557   5.348  0.1019 -0.7962  0.1303
    4SAPS  H16R  469   4.349   3.561   5.354  0.1566 -0.1479 -0.9661
    4SAPS  H16S  470   4.200   3.658   5.375 -2.1049 -1.4964 -0.2298
    4SAPS  C217  471   4.204   3.518   5.201  0.4959  0.1455  0.0467
    4SAPS  H17R  472   4.094   3.512   5.194  0.4470 -3.3416  1.9511
    4SAPS  H17S  473   4.249   3.418   5.182 -2.4589 -1.2293 -0.1952
    4SAPS  C218  474   4.249   3.614   5.092  0.7969 -0.0591 -0.7712
    4SAPS  H18R  475   4.201   3.714   5.103 -1.7816 -1.3195  0.5090
    4SAPS  H18S  476   4.214   3.581   4.992 -1.6607  1.5898 -0.5432
    4SAPS  C219  477   4.398   3.627   5.079 -0.0248 -0.4386  0.2025
    4SAPS  H19R  478   4.450   3.534   5.048 -0.2963 -0.1901 -1.0593
    4SAPS  H19S  479   4.439   3.659   5.177 -1.5041  2.4079  0.0152
    4SAPS  C220  480   4.440   3.733   4.976  0.1740 -0.2415 -0.4092
    4SAPS  H20R  481   4.549   3.754   4.976  0.6316 -2.0519  2.9119
    4SAPS  H20S  482   4.383   3.826   4.998 -0.3949 -0.5756 -0.4429
    4SAPS  H20T  483   4.415   3.692   4.876 -1.9883  0.3711 -0.1700
    4SAPS   C33  484   4.580   3.654   6.279  0.0163  0.0464  0.1236
    4SAPS   H3X  485   4.643   3.707   6.353  0.2343 -0.1324  0.0679
    4SAPS   H3Y  486   4.518   3.733   6.233  0.1353 -1.1933 -2.2924
    4SAPS   C34  487   4.663   3.593   6.163 -0.3665  0.1904  0.1623
    4SAPS   H4X  488   4.718   3.502   6.195  1.3963  0.8974 -0.6957
    4SAPS   H4Y  489   4.742   3.667   6.138 -0.8957  1.0074  0.8507
    4SAPS   C35  490   4.575   3.558   6.041 -0.3066 -0.0489 -0.1483
    4SAPS   H5X  491   4.510   3.643   6.013 -0.2408  0.8165  2.1476
    4SAPS   H5Y  492   4.515   3.469   6.068 -0.3356 -0.8802 -2.6814
    4SAPS   C36  493   4.662   3.531   5.916 -0.5804  0.1187 -0.1030
    4SAPS   H6X  494   4.674   3.421   5.931 -0.2331  0.3307  1.3948
    4SAPS   H6Y  495   4.758   3.585   5.932 -0.1240 -0.3787 -1.0497
    4SAPS   C37  496   4.613   3.557   5.778 -0.1135  0.1005  0.2374
    4SAPS   H7X  497   4.508   3.524   5.770 -0.0968  0.1515 -0.2219
    4SAPS   H7Y  498   4.685   3.507   5.710  0.6068  1.3052  0.0778
    4SAPS   C38  499   4.606   3.709   5.757 -0.6085 -0.0204  0.4623
    4SAPS   H8X  500   4.710   3.747   5.759 -1.4154  2.6251 -1.3929
    4SAPS   H8Y  501   4.556   3.768   5.837  1.2356 -0.8431  2.2960
    4SAPS   C39  502   4.550   3.741   5.622 -0.5543 -0.2826 -0.2716
    4SAPS   H9X  503   4.439   3.734   5.620 -0.5822 -0.4673  1.0123
    4SAPS   H9Y  504   4.582   3.660   5.553  1.8277 -0.7333  1.2632
    4SAPS  C310  505   4.603   3.877   5.560  0.3996  0.3458  0.2848
    4SAPS  H10X  506   4.713   3.880   5.572  0.3910 -0.0430  0.4898
    4SAPS  H10Y  507   4.560   3.969   5.606  2.2540  1.8703 -0.8608
    4SAPS  C311  508   4.571   3.895   5.409  0.3655  1.2254  0.3091
    4SAPS  H11X  509   4.463   3.873   5.394  0.5332 -0.9557  1.7586
    4SAPS  H11Y  510   4.633   3.816   5.361  0.3457  1.7690 -0.6297
    4SAPS  C312  511   4.594   4.025   5.334 -0.1522  0.2268  0.2707
    4SAPS  H12X  512   4.703   4.045   5.337 -0.2337  0.8878 -0.7211
    4SAPS  H12Y  513   4.534   4.100   5.390  2.1329  1.8045  0.7316
    4SAPS  C313  514   4.550   4.010   5.182 -0.2870  0.0284  0.1661
    4SAPS  H13X  515   4.444   3.977   5.179 -0.8592  1.8074 -0.1109
    4SAPS  H13Y  516   4.609   3.927   5.136  0.4066 -0.7738  2.3563
    4SAPS  C314  517   4.549   4.149   5.116 -0.1748 -0.2141  0.0931
    4SAPS  H14X  518   4.455   4.203   5.138 -1.5278 -2.8632  1.3718
    4SAPS  H14Y  519   4.537   4.138   5.006  0.2000  1.5146 -0.1408
    4SAPS  C315  520   4.676   4.231   5.133  0.0999 -0.5756 -0.5681
    4SAPS  H15X  521   4.766   4.167   5.120  3.0579  3.0935 -0.1092
    4SAPS  H15Y  522   4.681   4.273   5.236 -1.8054 -1.2853 -0.1532
    4SAPS  C316  523   4.670   4.353   5.033 -0.5471 -0.3172  0.2960
    4SAPS  H16X  524   4.578   4.356   4.972 -1.4460 -0.6405  1.5980
    4SAPS  H16Y  525   4.758   4.346   4.965  0.6645 -0.1086  1.7711
    4SAPS  C317  526   4.695   4.493   5.091 -1.0877 -0.6114 -0.2235
    4SAPS  H17X  527   4.605   4.520   5.151 -2.4039 -0.8675 -2.0140
    4SAPS  H17Y  528   4.706   4.555   4.999  0.4501 -1.0456 -0.3652
    4SAPS  C318  529   4.832   4.514   5.172 -0.5322  0.6941  0.4617
    4SAPS  H18X  530   4.841   4.456   5.266 -0.5326  2.0259  1.3208
    4SAPS  H18Y  531   4.845   4.623   5.190 -0.0245  0.5461  0.9830
    4SAPS  H18Z  532   4.918   4.485   5.108 -0.1272  2.3259  0.2311
    5SAPS     N  533   5.673   6.501   7.284 -0.0932 -0.1276  0.3303
    5SAPS   HN1  534   5.766   6.537   7.313 -0.3574  0.1265  0.8784
    5SAPS   HN2  535   5.669   6.425   7.213 -0.8118 -1.2701  1.5179
    5SAPS   HN3  536   5.611   6.578   7.251  1.1860  0.5637 -0.5107
    5SAPS   C12  537   5.619   6.454   7.420 -0.0055  0.2387  0.2675
    5SAPS  H12A  538   5.682   6.373   7.453  0.0991 -0.7554 -2.1489
    5SAPS   C13  539   5.627   6.555   7.539 -0.2144  0.4207 -0.6708
    5SAPS  O13A  540   5.667   6.676   7.531 -0.1138  0.5048 -0.1597
    5SAPS  O13B  541   5.586   6.512   7.650  0.1953 -0.2325 -0.3246
    5SAPS   C11  542   5.470   6.410   7.399  0.1923 -0.2608  0.1152
    5SAPS  H11A  543   5.419   6.503   7.366 -0.5296 -0.7618 -0.2063
    5SAPS  H11B  544   5.427   6.374   7.494 -2.1762  0.6621 -0.5389
    5SAPS     P  545   5.450   6.176   7.324 -0.3778 -0.1345  0.1049
    5SAPS   O13  546   5.586   6.128   7.375 -0.0096  0.7567 -0.1172
    5SAPS   O14  547   5.329   6.149   7.404  0.3148  0.0717 -0.0995
    5SAPS   O12  548   5.457   6.326   7.292 -0.3562  0.4595  0.4707
    5SAPS   O11  549   5.433   6.115   7.176  0.3256  0.1543  0.0186
    5SAPS    C1  550   5.505   6.167   7.065  0.6795 -0.1521  0.0280
    5SAPS    HA  551   5.468   6.269   7.044  0.0073 -0.0118  1.7274
    5SAPS    HB  552   5.612   6.176   7.095  0.4046 -0.1386  1.0509
    5SAPS    C2  553   5.490   6.083   6.934  0.0472  0.1306  0.5674
    5SAPS    HS  554   5.569   6.117   6.863 -0.6883 -3.5347 -2.3024
    5SAPS   O21  555   5.362   6.098   6.868  0.0236 -0.1124  0.3574
    5SAPS   C21  556   5.327   6.208   6.817  0.3481 -0.4028 -0.4604
    5SAPS   O22  557   5.376   6.317   6.836  0.0237  0.1439  0.2743
    5SAPS   C22  558   5.214   6.190   6.723  0.1163 -0.6947  0.6962
    5SAPS   H2R  559   5.244   6.129   6.635 -3.0692 -0.0355 -1.0035
    5SAPS   H2S  560   5.134   6.133   6.776 -0.9794  0.0141 -0.1517
    5SAPS    C3  561   5.525   5.933   6.954  0.3853  0.3625  0.5318
    5SAPS    HX  562   5.467   5.897   7.042  0.2724 -0.7845  0.0038
    5SAPS    HY  563   5.634   5.925   6.969  0.1797 -0.7848  1.5343
    5SAPS   O31  564   5.482   5.846   6.848  0.5523  0.5296  0.4044
    5SAPS   C31  565   5.553   5.848   6.742 -0.0631  0.1693  0.4627
    5SAPS   O32  566   5.654   5.918   6.724  0.3548  0.1390 -0.0759
    5SAPS   C32  567   5.481   5.760   6.634  0.0614  0.5328 -0.9991
    5SAPS   H2X  568   5.378   5.745   6.672  0.8119 -3.0164 -0.0775
    5SAPS   H2Y  569   5.528   5.660   6.626  1.8324  1.3081 -0.7967
    5SAPS   C23  570   5.164   6.327   6.665  0.1805 -0.1879 -0.7991
    5SAPS   H3R  571   5.245   6.396   6.634  0.6530  1.0429  2.7444
    5SAPS   H3S  572   5.119   6.384   6.750 -1.3178 -1.5093 -0.6652
    5SAPS   C24  573   5.072   6.304   6.543  0.1166  0.6042 -0.5350
    5SAPS   H4R  574   5.030   6.405   6.525 -0.0953  1.0251  1.9691
    5SAPS   H4S  575   4.981   6.256   6.584 -0.2368  2.0134  0.3991
    5SAPS   C25  576   5.126   6.237   6.417  0.5618  0.3759  0.1446
    5SAPS   H5R  577   5.234   6.217   6.411  0.4428  0.0837 -1.9931
    5SAPS   C26  578   5.034   6.202   6.320  0.3966 -0.9741 -0.4517
    5SAPS   H6R  579   5.063   6.145   6.230 -2.3799 -1.4628 -1.1232
    5SAPS   C27  580   4.884   6.232   6.324  0.0297 -0.1163 -0.6758
    5SAPS   H7R  581   4.853   6.317   6.388 -1.5023  0.8375 -2.5827
    5SAPS   H7S  582   4.851   6.140   6.378  0.4966 -1.3042 -2.3578
    5SAPS   C28  583   4.825   6.243   6.188  0.3620 -0.0341  0.2108
    5SAPS   H8R  584   4.770   6.154   6.156 -0.0484 -0.7874  2.7975
    5SAPS   C29  585   4.839   6.347   6.104  0.1223  0.2608  0.4967
    5SAPS   H9R  586   4.788   6.343   6.007 -1.1087 -0.9610  1.1561
    5SAPS  C210  587   4.909   6.477   6.135 -0.5282 -0.6940  0.1633
    5SAPS  H10R  588   4.907   6.502   6.243 -1.3333 -0.7271  0.1634
    5SAPS  H10S  589   4.849   6.554   6.082 -0.9065 -0.1011  1.4207
    5SAPS  C211  590   5.057   6.469   6.073 -0.2986  0.1175  0.2123
    5SAPS  H11R  591   5.131   6.436   6.147  0.8203 -0.9742 -1.3318
    5SAPS  C212  592   5.093   6.503   5.948  0.5468 -0.0572  0.3534
    5SAPS  H12R  593   5.198   6.491   5.918  0.5716 -1.6681  0.9465
    5SAPS  C213  594   5.003   6.549   5.841  0.2020  1.1654 -0.0075
    5SAPS  H13R  595   4.895   6.536   5.860  0.7054 -3.7580  0.9257
    5SAPS  H13S  596   5.022   6.472   5.763 -2.4729  0.6095 -0.2017
    5SAPS  C214  597   5.034   6.686   5.784  0.2028  0.3542 -0.4389
    5SAPS  H14R  598   5.059   6.767   5.854  1.3292  2.0904 -2.6986
    5SAPS  C215  599   5.049   6.717   5.659 -0.0170  0.1721  0.1781
    5SAPS  H15R  600   5.061   6.822   5.631  0.6064  0.1714  0.4463
    5SAPS  C216  601   5.026   6.626   5.546 -0.6082 -0.0416  0.4233
    5SAPS  H16R  602   4.986   6.531   5.589  1.4690 -0.2649  2.0373
    5SAPS  H16S  603   5.118   6.599   5.490 -2.0896 -0.5365 -1.8977
    5SAPS  C217  604   4.920   6.680   5.444 -0.1705 -0.1419 -0.0977
    5SAPS  H17R  605   4.830   6.717   5.496  0.3833 -1.3177  1.7906
    5SAPS  H17S  606   4.883   6.594   5.384  0.8760 -1.2710  0.8160
    5SAPS  C218  607   4.972   6.786   5.347  0.9113  0.9069  0.3177
    5SAPS  H18R  608   5.055   6.848   5.389  0.0737  2.0565  0.3313
    5SAPS  H18S  609   4.886   6.853   5.327 -0.0248 -0.1828  0.6500
    5SAPS  C219  610   5.006   6.730   5.212  0.4637  0.1447  0.6824
    5SAPS  H19R  611   5.063   6.636   5.230 -0.0027 -0.1985  0.3796
    5SAPS  H19S  612   5.064   6.812   5.163  0.1604 -0.1409 -0.1811
    5SAPS  C220  613   4.884   6.711   5.122  0.0881 -0.2468 -0.6162
    5SAPS  H20R  614   4.915   6.708   5.016 -1.4760  1.5181 -1.1682
    5SAPS  H20S  615   4.813   6.795   5.130 -0.0142 -0.3602 -0.2953
    5SAPS  H20T  616   4.828   6.619   5.149  0.2829 -0.1459  0.1558
    5SAPS   C33  617   5.467   5.828   6.502 -0.1285 -0.2746 -0.1135
    5SAPS   H3X  618   5.445   5.934   6.524  1.3254  0.4432 -1.8727
    5SAPS   H3Y  619   5.380   5.789   6.445 -0.2923  0.1937 -0.1852
    5SAPS   C34  620   5.596   5.809   6.417 -0.0907  0.3447 -0.4486
    5SAPS   H4X  621   5.617   5.700   6.409 -1.1743 -0.0509  1.4560
    5SAPS   H4Y  622   5.679   5.858   6.471 -0.9673  0.6228  0.7048
    5SAPS   C35  623   5.578   5.875   6.275 -0.4090  0.2451 -0.0018
    5SAPS   H5X  624   5.681   5.898   6.240 -0.1121 -1.1698 -0.1089
    5SAPS   H5Y  625   5.514   5.966   6.276 -0.6211  0.1815 -2.1204
    5SAPS   C36  626   5.511   5.777   6.168  0.0235 -0.7739 -0.0738
    5SAPS   H6X  627   5.410   5.754   6.208  0.2110  0.1746  1.0124
    5SAPS   H6Y  628   5.568   5.683   6.158  1.1990  0.0903 -2.2723
    5SAPS   C37  629   5.515   5.854   6.035  0.2412 -0.2794 -0.1272
    5SAPS   H7X  630   5.619   5.889   6.021  0.3362 -0.8648 -0.9296
    5SAPS   H7Y  631   5.442   5.939   6.040  0.8227  0.1883  0.5729
    5SAPS   C38  632   5.475   5.771   5.917  0.5763 -0.4194  0.2608
    5SAPS   H8X  633   5.375   5.723   5.930 -0.0429  0.7786  0.0497
    5SAPS   H8Y  634   5.559   5.699   5.907  2.0847  1.3937 -0.7173
    5SAPS   C39  635   5.448   5.862   5.797 -0.1182  0.2036  0.0328
    5SAPS   H9X  636   5.546   5.912   5.779  1.1473 -2.4673 -1.2566
    5SAPS   H9Y  637   5.369   5.932   5.830 -0.4158 -0.0391 -0.1628
    5SAPS  C310  638   5.389   5.779   5.681  0.2678 -0.4050  0.4126
    5SAPS  H10X  639   5.281   5.756   5.691  0.8053 -3.4093 -0.0220
    5SAPS  H10Y  640   5.438   5.679   5.683  0.1131 -0.5827 -1.9573
    5SAPS  C311  641   5.406   5.854   5.540  0.0662  0.1530 -0.0597
    5SAPS  H11X  642   5.514   5.855   5.514 -0.6201 -0.8442 -3.3561
    5SAPS  H11Y  643   5.367   5.957   5.549 -1.5502 -0.3636 -0.9377
    5SAPS  C312  644   5.315   5.793   5.436  0.0219  0.4626 -0.0708
    5SAPS  H12X  645   5.210   5.799   5.471 -0.5441  1.4506 -1.8217
    5SAPS  H12Y  646   5.344   5.686   5.431 -2.2539 -0.2254  0.2208
    5SAPS  C313  647   5.317   5.876   5.303  0.3790  0.0726 -0.2948
    5SAPS  H13X  648   5.422   5.913   5.293  0.6018 -0.5249 -0.1723
    5SAPS  H13Y  649   5.235   5.949   5.318 -1.1943 -1.5753 -0.5835
    5SAPS  C314  650   5.285   5.799   5.173 -0.4630  0.7020  0.1608
    5SAPS  H14X  651   5.183   5.755   5.176  0.7614 -2.2960  0.4982
    5SAPS  H14Y  652   5.356   5.716   5.154  0.6205  1.6837 -0.1496
    5SAPS  C315  653   5.287   5.908   5.063  0.0388  0.0397 -0.3582
    5SAPS  H15X  654   5.382   5.963   5.081  0.2109 -0.1524 -0.6551
    5SAPS  H15Y  655   5.205   5.980   5.083 -0.7519 -0.3300 -2.0697
    5SAPS  C316  656   5.273   5.852   4.917 -0.3241  0.0677 -0.2895
    5SAPS  H16X  657   5.170   5.811   4.910 -0.8909  0.6036  3.3300
    5SAPS  H16Y  658   5.339   5.771   4.878 -0.9411 -0.0003 -1.2252
    5SAPS  C317  659   5.281   5.965   4.823 -0.6724 -0.0911 -0.2592
    5SAPS  H17X  660   5.377   6.012   4.851 -1.7916  0.5339  2.9290
    5SAPS  H17Y  661   5.193   6.028   4.850  0.5196  1.2386  0.6716
    5SAPS  C318  662   5.278   5.916   4.680  0.1373  0.2756  0.8312
    5SAPS  H18X  663   5.385   5.888   4.668 -0.1939 -0.2260 -1.5024
    5SAPS  H18Y  664   5.264   6.007   4.617 -0.8642  0.4828  1.3312
    5SAPS  H18Z  665   5.206   5.832   4.665  1.2805 -0.8682  1.6059
    6SAPS     N  666   3.033   5.095   7.664  0.1958 -0.1436  0.1689
    6SAPS   HN1  667   2.974   5.014   7.693  0.5254  0.1197  1.6491
    6SAPS   HN2  668   3.099   5.062   7.591 -0.3825 -3.1830  0.8884
    6SAPS   HN3  669   3.092   5.109   7.748 -0.4771 -2.0715  1.0244
    6SAPS   C12  670   2.960   5.220   7.633  0.4990 -0.2790 -0.0768
    6SAPS  H12A  671   2.870   5.196   7.579  0.5351  1.1419 -0.8212
    6SAPS   C13  672   2.923   5.300   7.757  0.2605 -0.5150  0.4023
    6SAPS  O13A  673   2.920   5.238   7.867 -0.4337 -0.0087 -0.3920
    6SAPS  O13B  674   2.854   5.406   7.736  0.1576 -0.0515 -0.2643
    6SAPS   C11  675   3.057   5.313   7.551 -0.1521  0.8831  0.3029
    6SAPS  H11A  676   3.152   5.324   7.607  0.0296  1.3023 -0.0789
    6SAPS  H11B  677   3.017   5.416   7.536 -1.7723  0.0742 -1.3942
    6SAPS     P  678   3.034   5.265   7.291  0.2190  0.1027  0.0054
    6SAPS   O13  679   3.128   5.209   7.191  0.1547  0.1139 -0.1823
    6SAPS   O14  680   2.894   5.213   7.285  0.3237  0.5119  0.2519
    6SAPS   O12  681   3.090   5.244   7.431 -0.2808  0.1182  0.2279
    6SAPS   O11  682   3.028   5.423   7.280 -0.1739 -0.0892 -0.2823
    6SAPS    C1  683   2.917   5.499   7.250  0.5719 -0.6110 -0.2059
    6SAPS    HA  684   2.832   5.482   7.319  0.1504 -0.9957 -0.8149
    6SAPS    HB  685   2.937   5.607   7.260 -2.1412 -0.1525  1.1891
    6SAPS    C2  686   2.870   5.469   7.110  0.3582 -0.6974 -0.0513
    6SAPS    HS  687   2.842   5.363   7.096  0.2176 -0.4136 -2.1231
    6SAPS   O21  688   2.975   5.518   7.021  0.3237  0.2191  0.3368
    6SAPS   C21  689   2.962   5.466   6.896  0.3946  0.5222 -0.0876
    6SAPS   O22  690   2.884   5.375   6.867 -0.1788  0.6251  0.2694
    6SAPS   C22  691   3.057   5.543   6.808 -0.1871 -0.4178  0.3362
    6SAPS   H2R  692   3.008   5.642   6.797  0.2120  0.1269  2.8205
    6SAPS   H2S  693   3.157   5.548   6.855 -0.2825  1.5649  0.4291
    6SAPS    C3  694   2.741   5.549   7.085 -0.1452 -0.2147  1.1942
    6SAPS    HX  695   2.763   5.658   7.088 -0.2260  0.1539 -3.8474
    6SAPS    HY  696   2.667   5.518   7.162 -0.5816 -2.0579  0.0844
    6SAPS   O31  697   2.684   5.536   6.952 -0.0841  0.0681 -0.2898
    6SAPS   C31  698   2.597   5.433   6.934 -0.0991  0.1259  0.4078
    6SAPS   O32  699   2.541   5.369   7.021 -0.1307  0.2503 -0.1865
    6SAPS   C32  700   2.585   5.400   6.780  0.2245 -0.5730  0.3662
    6SAPS   H2X  701   2.475   5.393   6.764  0.3687  0.1415 -1.1745
    6SAPS   H2Y  702   2.615   5.295   6.756 -1.7500 -1.0121 -0.4436
    6SAPS   C23  703   3.076   5.481   6.667  0.1936  0.0865  0.1384
    6SAPS   H3R  704   2.980   5.474   6.611  0.5829 -1.2875 -0.4121
    6SAPS   H3S  705   3.094   5.373   6.684 -1.3500 -0.2234 -0.0118
    6SAPS   C24  706   3.185   5.555   6.595  0.8620 -0.5039 -0.3990
    6SAPS   H4R  707   3.213   5.490   6.509  0.9124  0.6295 -1.2559
    6SAPS   H4S  708   3.271   5.555   6.665  0.5518 -1.4606  0.0032
    6SAPS   C25  709   3.124   5.691   6.553  0.2195  0.3955 -0.6157
    6SAPS   H5R  710   3.107   5.777   6.619 -0.5557  0.4072 -0.8283
    6SAPS   C26  711   3.085   5.716   6.425  0.5433  0.5077 -0.7685
    6SAPS   H6R  712   3.038   5.813   6.402  0.0336  0.3729 -0.3163
    6SAPS   C27  713   3.087   5.625   6.308  0.4115 -0.3291  0.5595
    6SAPS   H7R  714   2.981   5.609   6.280  0.6202  0.0059 -0.4389
    6SAPS   H7S  715   3.119   5.524   6.343 -0.9225 -0.7217  0.7328
    6SAPS   C28  716   3.168   5.676   6.193 -0.0838 -0.0155  0.1892
    6SAPS   H8R  717   3.276   5.678   6.214  0.1575  2.5470 -0.8529
    6SAPS   C29  718   3.124   5.743   6.084  0.6539 -0.4163 -0.0920
    6SAPS   H9R  719   3.195   5.795   6.018  1.1791 -0.6042  0.3165
    6SAPS  C210  720   2.981   5.758   6.047 -0.3136 -0.3699  0.1705
    6SAPS  H10R  721   2.967   5.865   6.021 -0.2068 -0.9737 -2.6814
    6SAPS  H10S  722   2.919   5.753   6.139  3.5101  1.2750  3.1724
    6SAPS  C211  723   2.946   5.663   5.940  0.7589  0.1201  0.1758
    6SAPS  H11R  724   2.958   5.555   5.959  0.3159  0.2276  1.1123
    6SAPS  C212  725   2.937   5.692   5.808 -0.4243  0.1197  0.2293
    6SAPS  H12R  726   2.916   5.605   5.745  0.7114 -0.2739  0.3757
    6SAPS  C213  727   2.942   5.833   5.750  0.0482  0.4386 -0.1598
    6SAPS  H13R  728   2.942   5.905   5.835  0.7610 -0.5131  0.6733
    6SAPS  H13S  729   2.852   5.848   5.688 -0.1324 -0.5203 -0.1409
    6SAPS  C214  730   3.069   5.857   5.675  0.4272 -0.3983 -0.3882
    6SAPS  H14R  731   3.156   5.838   5.739  0.2570  2.6714  0.9377
    6SAPS  C215  732   3.085   5.908   5.556  0.1162 -0.9259 -0.1883
    6SAPS  H15R  733   3.186   5.934   5.521  0.6713  1.5327  2.8449
    6SAPS  C216  734   2.965   5.942   5.466 -0.0409 -0.2369  0.2469
    6SAPS  H16R  735   3.004   6.000   5.379 -1.4484  0.7729  0.2520
    6SAPS  H16S  736   2.880   5.990   5.519 -1.7722 -0.3677 -2.2602
    6SAPS  C217  737   2.903   5.813   5.398  0.4686  0.4305 -0.4539
    6SAPS  H17R  738   2.869   5.746   5.480 -2.0568  0.6153 -1.2510
    6SAPS  H17S  739   2.974   5.758   5.334 -1.3109 -2.6866  0.0407
    6SAPS  C218  740   2.768   5.847   5.321  0.4764  0.3770  0.1610
    6SAPS  H18R  741   2.801   5.942   5.274  0.6491 -0.3699 -1.2830
    6SAPS  H18S  742   2.688   5.881   5.390  0.4946  0.5806  0.0808
    6SAPS  C219  743   2.724   5.747   5.217  0.5957 -0.0066 -0.5280
    6SAPS  H19R  744   2.809   5.712   5.155  0.1228 -0.2887 -1.0134
    6SAPS  H19S  745   2.652   5.786   5.143 -0.4799 -1.7594 -0.4417
    6SAPS  C220  746   2.663   5.613   5.275 -0.3349  0.2918 -0.1143
    6SAPS  H20R  747   2.735   5.567   5.346  0.1633 -1.6361 -1.7711
    6SAPS  H20S  748   2.632   5.546   5.192 -3.8666  2.7952 -1.0513
    6SAPS  H20T  749   2.571   5.648   5.325 -1.8233 -1.1305 -1.7277
    6SAPS   C33  750   2.655   5.496   6.675  0.0887 -0.0413 -0.1952
    6SAPS   H3X  751   2.764   5.505   6.698 -0.4747  1.1477  2.4292
    6SAPS   H3Y  752   2.616   5.599   6.689 -0.3554 -0.4302  1.6795
    6SAPS   C34  753   2.608   5.463   6.531  0.0497  0.1542 -0.3594
    6SAPS   H4X  754   2.498   5.477   6.521  0.2209  3.2831  1.1416
    6SAPS   H4Y  755   2.637   5.358   6.511  0.8937  0.4136 -0.5161
    6SAPS   C35  756   2.692   5.539   6.427  0.0190 -1.0201 -0.7180
    6SAPS   H5X  757   2.798   5.530   6.458  0.3601  1.1563 -1.1030
    6SAPS   H5Y  758   2.682   5.650   6.432  0.9900 -0.9438 -0.2978
    6SAPS   C36  759   2.678   5.510   6.278  0.3870 -0.1354  0.4310
    6SAPS   H6X  760   2.674   5.399   6.266  0.1188  0.1159 -2.4506
    6SAPS   H6Y  761   2.764   5.552   6.222  0.6047 -0.8992  0.1749
    6SAPS   C37  762   2.541   5.552   6.232  0.5104 -0.6420 -0.0280
    6SAPS   H7X  763   2.521   5.648   6.285  1.9805 -1.1844  1.5998
    6SAPS   H7Y  764   2.469   5.472   6.258 -1.3505 -0.0603 -2.8695
    6SAPS   C38  765   2.532   5.573   6.083  0.5270  0.2993  0.6949
    6SAPS   H8X  766   2.428   5.567   6.045  0.9431 -1.5724 -0.2995
    6SAPS   H8Y  767   2.582   5.484   6.038  0.1249  0.0044  0.8163
    6SAPS   C39  768   2.587   5.707   6.018 -0.2420 -0.0188 -0.2476
    6SAPS   H9X  769   2.698   5.703   6.018 -0.2092  0.7303 -0.4996
    6SAPS   H9Y  770   2.547   5.793   6.077 -0.7039 -1.6432  1.9186
    6SAPS  C310  771   2.540   5.727   5.871 -0.4284 -0.5696  0.0085
    6SAPS  H10X  772   2.566   5.826   5.826  0.0265 -1.5339 -1.9640
    6SAPS  H10Y  773   2.431   5.736   5.855 -0.2935 -0.6135 -0.9958
    6SAPS  C311  774   2.592   5.620   5.776  0.0018  0.0296 -0.0326
    6SAPS  H11X  775   2.528   5.530   5.792 -0.3253  0.6846  2.9350
    6SAPS  H11Y  776   2.696   5.588   5.797  0.2805  0.0559 -1.2651
    6SAPS  C312  777   2.579   5.672   5.629 -0.2444  0.9287  0.3054
    6SAPS  H12X  778   2.637   5.599   5.568 -0.6746  0.8809 -0.0440
    6SAPS  H12Y  779   2.626   5.771   5.615 -0.2568  0.7861 -0.8033
    6SAPS  C313  780   2.435   5.681   5.586 -0.3717  0.3503 -0.2202
    6SAPS  H13X  781   2.430   5.734   5.489 -1.7091  1.8337  0.6010
    6SAPS  H13Y  782   2.387   5.748   5.660  1.5714  1.7993 -0.1893
    6SAPS  C314  783   2.369   5.542   5.564  0.4565 -0.2067 -0.0112
    6SAPS  H14X  784   2.347   5.493   5.662  0.3165  0.8801  0.5084
    6SAPS  H14Y  785   2.432   5.472   5.504  0.1579  1.0119 -1.7964
    6SAPS  C315  786   2.230   5.555   5.502 -0.7176 -0.8526 -0.7375
    6SAPS  H15X  787   2.163   5.627   5.554 -0.9863  1.0030 -3.4288
    6SAPS  H15Y  788   2.182   5.455   5.505 -0.8315 -0.7790  1.4045
    6SAPS  C316  789   2.235   5.586   5.349  0.4360  0.4093 -0.4194
    6SAPS  H16X  790   2.314   5.531   5.295  1.9506  0.8934  1.2035
    6SAPS  H16Y  791   2.266   5.689   5.322 -0.7853  0.9240  0.0637
    6SAPS  C317  792   2.102   5.560   5.266 -0.0422  0.6729  0.3769
    6SAPS  H17X  793   2.091   5.647   5.198  3.5342 -0.1680 -1.5150
    6SAPS  H17Y  794   2.015   5.555   5.334  0.1406  1.5038  0.6856
    6SAPS  C318  795   2.109   5.422   5.196 -0.0497 -1.4030  0.2130
    6SAPS  H18X  796   2.014   5.393   5.146 -0.7885  3.8758 -2.1343
    6SAPS  H18Y  797   2.134   5.339   5.265  0.2094  0.4286  2.4392
    6SAPS  H18Z  798   2.184   5.438   5.115  0.0504 -0.0072  0.5695
    7SAPS     N  799   3.830   0.927   7.908 -0.1199 -0.1606 -0.0299
    7SAPS   HN1  800   3.742   0.888   7.947  0.3663 -1.0677  0.1976
    7SAPS   HN2  801   3.872   0.852   7.850  0.8242  0.2248  0.1470
    7SAPS   HN3  802   3.887   0.953   7.991 -0.5131  2.0811 -0.4075
    7SAPS   C12  803   3.822   1.049   7.828 -1.0814  0.5988  0.0775
    7SAPS  H12A  804   3.787   1.138   7.879  1.1197  2.5391 -1.5947
    7SAPS   C13  805   3.959   1.100   7.774 -0.3106 -0.5869 -0.3474
    7SAPS  O13A  806   4.062   1.063   7.839 -0.3049 -0.0821 -0.1574
    7SAPS  O13B  807   3.963   1.176   7.677 -0.2266  0.2066  0.3718
    7SAPS   C11  808   3.726   1.017   7.713  0.1318  0.2675  0.1470
    7SAPS  H11A  809   3.761   0.925   7.660 -0.4069 -0.6196  1.2758
    7SAPS  H11B  810   3.735   1.101   7.641 -0.1380 -0.7991 -1.1779
    7SAPS     P  811   3.468   1.056   7.699  0.1228  0.1197 -0.5469
    7SAPS   O13  812   3.353   0.962   7.708  0.5956 -0.4108  0.4296
    7SAPS   O14  813   3.462   1.187   7.770  0.1972  0.3640 -0.0043
    7SAPS   O12  814   3.594   0.987   7.756  0.3406 -0.4452  0.3815
    7SAPS   O11  815   3.504   1.082   7.550  0.0559 -0.1508  0.7749
    7SAPS    C1  816   3.508   0.985   7.449  0.0774  0.6486  0.2528
    7SAPS    HA  817   3.610   0.977   7.406  0.7556  1.4981  1.6102
    7SAPS    HB  818   3.486   0.883   7.488  2.9171  0.2143  0.9480
    7SAPS    C2  819   3.408   1.005   7.337 -0.0969 -1.3636 -0.9821
    7SAPS    HS  820   3.424   0.925   7.263 -0.2271 -0.5415 -1.9197
    7SAPS   O21  821   3.447   1.128   7.273 -0.3747  0.3379 -0.0341
    7SAPS   C21  822   3.548   1.114   7.189  0.0059  0.3867  0.0044
    7SAPS   O22  823   3.606   1.012   7.161  0.3245 -0.1350  0.0335
    7SAPS   C22  824   3.579   1.252   7.133 -0.8795  0.7224  0.2508
    7SAPS   H2R  825   3.490   1.271   7.070 -1.5902 -3.3380 -0.2592
    7SAPS   H2S  826   3.588   1.330   7.212 -1.1277 -0.0448  1.0595
    7SAPS    C3  827   3.264   1.023   7.396 -0.1086 -0.3774  0.2114
    7SAPS    HX  828   3.258   1.118   7.454  3.1167 -0.2385  0.4890
    7SAPS    HY  829   3.257   0.949   7.479  0.3569  0.9268  1.4632
    7SAPS   O31  830   3.155   1.020   7.296 -0.2260  0.1741  0.1820
    7SAPS   C31  831   3.135   0.909   7.234 -0.2592  0.4469 -0.0526
    7SAPS   O32  832   3.195   0.805   7.242 -0.9177  0.5430 -0.5467
    7SAPS   C32  833   3.024   0.919   7.127 -0.7042  0.3867 -0.0519
    7SAPS   H2X  834   2.988   1.024   7.127  0.6921  0.9175 -1.4956
    7SAPS   H2Y  835   2.949   0.843   7.156  1.5822 -1.8233  0.4667
    7SAPS   C23  836   3.708   1.252   7.048 -0.2281  0.0994  0.1853
    7SAPS   H3R  837   3.719   1.165   6.980 -0.6764  0.1481  0.0486
    7SAPS   H3S  838   3.796   1.257   7.116 -0.4032  0.8686  0.3689
    7SAPS   C24  839   3.717   1.381   6.970 -0.4086  0.2459 -0.0468
    7SAPS   H4R  840   3.825   1.390   6.945 -0.4612 -1.1001 -0.9089
    7SAPS   H4S  841   3.695   1.462   7.042  2.4383  2.4783 -1.4448
    7SAPS   C25  842   3.636   1.380   6.842  0.3052  0.3689  0.4724
    7SAPS   H5R  843   3.527   1.363   6.850  0.1467  1.0633 -0.0894
    7SAPS   C26  844   3.692   1.370   6.719 -0.0725  0.2387  0.5725
    7SAPS   H6R  845   3.617   1.380   6.639  0.7151  2.0777  0.0126
    7SAPS   C27  846   3.834   1.368   6.681 -0.6899  0.6008  0.9397
    7SAPS   H7R  847   3.904   1.407   6.758  1.9770 -0.1588 -0.9386
    7SAPS   H7S  848   3.845   1.433   6.592  0.1972 -1.4832 -0.5717
    7SAPS   C28  849   3.881   1.226   6.649  0.1343 -0.4698  0.1406
    7SAPS   H8R  850   3.874   1.167   6.741 -1.6347 -0.6842 -0.1009
    7SAPS   C29  851   3.916   1.168   6.535  0.3113  0.2492 -0.3564
    7SAPS   H9R  852   3.953   1.065   6.530  2.4202  0.9873 -0.8486
    7SAPS  C210  853   3.918   1.230   6.394  0.6530  0.6310 -0.2640
    7SAPS  H10R  854   3.851   1.317   6.406  0.6519  0.3404  2.6028
    7SAPS  H10S  855   3.875   1.162   6.318  0.2775 -1.2428  1.5312
    7SAPS  C211  856   4.046   1.283   6.343 -0.0959  0.4570 -0.5599
    7SAPS  H11R  857   4.135   1.288   6.408 -0.1237  0.4232 -0.5198
    7SAPS  C212  858   4.055   1.337   6.220 -0.1055  0.5139  0.3863
    7SAPS  H12R  859   4.153   1.380   6.191  0.1959 -0.4406 -0.0597
    7SAPS  C213  860   3.955   1.339   6.110  0.8093  0.7084  0.3290
    7SAPS  H13R  861   3.880   1.414   6.144  0.6931  1.2096 -0.9897
    7SAPS  H13S  862   3.915   1.236   6.106  0.0909  1.0089 -0.7293
    7SAPS  C214  863   4.007   1.373   5.979  0.3175 -0.2104  0.5659
    7SAPS  H14R  864   4.114   1.397   5.968 -0.0918  1.7191  0.3951
    7SAPS  C215  865   3.931   1.369   5.869 -0.1444  0.0115  0.1176
    7SAPS  H15R  866   3.974   1.396   5.772  1.0283 -1.4381  0.1980
    7SAPS  C216  867   3.780   1.341   5.870 -0.5265 -0.0089  0.0641
    7SAPS  H16R  868   3.725   1.433   5.899 -1.0601  0.0338 -1.0558
    7SAPS  H16S  869   3.745   1.263   5.941 -0.8942  0.9439  0.9652
    7SAPS  C217  870   3.715   1.312   5.741 -0.2876  0.4456  0.0257
    7SAPS  H17R  871   3.750   1.380   5.660 -3.4799  0.9167 -1.0943
    7SAPS  H17S  872   3.605   1.310   5.751 -0.3015 -1.1789 -0.1991
    7SAPS  C218  873   3.755   1.167   5.688 -0.0940 -0.4140  0.0650
    7SAPS  H18R  874   3.678   1.146   5.610 -0.7457 -2.9589  1.2956
    7SAPS  H18S  875   3.735   1.092   5.767 -1.9925  0.6135  0.6272
    7SAPS  C219  876   3.897   1.134   5.635 -0.5295 -0.7443  0.2272
    7SAPS  H19R  877   3.974   1.142   5.714  1.4568 -3.3154 -1.3049
    7SAPS  H19S  878   3.921   1.220   5.568 -2.5702  0.3925  0.8574
    7SAPS  C220  879   3.914   1.000   5.566 -0.0165 -0.0741  0.3744
    7SAPS  H20R  880   4.018   0.991   5.526 -0.2137  0.9454 -0.4019
    7SAPS  H20S  881   3.842   0.980   5.484  1.1161 -1.6331 -0.3148
    7SAPS  H20T  882   3.905   0.909   5.630  0.4650  0.0382  0.6062
    7SAPS   C33  883   3.086   0.868   6.993  0.5108 -0.0933 -0.4848
    7SAPS   H3X  884   3.099   0.758   6.994 -0.0031 -0.1675 -1.1511
    7SAPS   H3Y  885   3.179   0.916   6.958  0.7668 -1.3515 -1.6215
    7SAPS   C34  886   2.979   0.885   6.885  0.8552 -0.2958 -0.5353
    7SAPS   H4X  887   2.927   0.979   6.914 -2.9313 -2.0873 -0.9539
    7SAPS   H4Y  888   2.908   0.801   6.901 -0.7801  1.1301  0.0028
    7SAPS   C35  889   3.039   0.899   6.743  0.6699 -0.1784  0.3983
    7SAPS   H5X  890   3.084   0.800   6.719 -0.1433 -0.6142  0.6119
    7SAPS   H5Y  891   3.126   0.965   6.758  1.0334 -0.1907 -1.4015
    7SAPS   C36  892   2.952   0.945   6.634  0.3678 -0.5230  0.0249
    7SAPS   H6X  893   2.908   1.046   6.650 -0.5007 -0.9199  0.1934
    7SAPS   H6Y  894   2.867   0.874   6.633  1.9454 -2.4782  0.2006
    7SAPS   C37  895   3.017   0.946   6.491  0.2776 -0.9187 -0.0843
    7SAPS   H7X  896   3.058   0.845   6.468  2.3820 -0.1921  0.1995
    7SAPS   H7Y  897   3.106   1.014   6.494 -0.4399  0.2459 -2.5094
    7SAPS   C38  898   2.931   0.999   6.377  0.0923 -0.5623 -0.4812
    7SAPS   H8X  899   2.907   1.102   6.409 -1.0548 -1.3008  1.1756
    7SAPS   H8Y  900   2.834   0.945   6.367 -1.3285  1.6555  0.6169
    7SAPS   C39  901   3.005   0.997   6.244  0.2330 -0.1674 -0.1762
    7SAPS   H9X  902   3.023   0.889   6.223 -0.1799 -0.5880  1.5342
    7SAPS   H9Y  903   3.100   1.051   6.265 -0.5852  1.6668 -0.9606
    7SAPS  C310  904   2.898   1.050   6.142 -0.2347 -0.2384  1.0759
    7SAPS  H10X  905   2.861   1.155   6.152 -0.5025 -0.0603 -1.2137
    7SAPS  H10Y  906   2.802   0.994   6.147 -1.9431  2.4964  0.9611
    7SAPS  C311  907   2.964   1.024   6.007 -0.3324 -0.0613 -0.1729
    7SAPS  H11X  908   2.988   0.918   5.984  0.8241  0.1474 -0.0333
    7SAPS  H11Y  909   3.069   1.060   6.018 -0.8013  1.0283  0.9867
    7SAPS  C312  910   2.897   1.094   5.894 -0.1888 -0.3946 -0.0615
    7SAPS  H12X  911   2.886   1.203   5.913  3.0304 -0.0700  0.4208
    7SAPS  H12Y  912   2.801   1.047   5.862  0.5176 -1.8713 -0.0767
    7SAPS  C313  913   2.990   1.084   5.773  0.6721  0.7872 -0.5117
    7SAPS  H13X  914   3.024   0.979   5.760 -4.3103 -1.0895 -0.6453
    7SAPS  H13Y  915   3.084   1.136   5.803  0.8821  0.0086  0.2297
    7SAPS  C314  916   2.920   1.130   5.650  0.1855 -0.4446  0.0277
    7SAPS  H14X  917   2.904   1.240   5.648 -2.7985 -0.7776 -0.5955
    7SAPS  H14Y  918   2.817   1.088   5.650  0.1397 -0.3734 -1.1638
    7SAPS  C315  919   2.985   1.080   5.523  0.3702  0.2132 -0.2545
    7SAPS  H15X  920   2.989   0.969   5.524  1.0965  0.2253 -0.8617
    7SAPS  H15Y  921   3.085   1.127   5.525  0.6238 -0.3370  0.9633
    7SAPS  C316  922   2.917   1.116   5.391  0.3299 -0.3256 -0.0525
    7SAPS  H16X  923   3.002   1.120   5.320  0.8867 -1.4886  0.5394
    7SAPS  H16Y  924   2.873   1.215   5.416 -0.1296 -0.5358 -0.0114
    7SAPS  C317  925   2.808   1.019   5.340  0.1987  0.3913 -0.4137
    7SAPS  H17X  926   2.733   1.000   5.419  1.2795  0.7062  0.7116
    7SAPS  H17Y  927   2.854   0.930   5.293  0.9322  1.5702 -2.0408
    7SAPS  C318  928   2.737   1.074   5.219  0.1757  0.3343 -0.5275
    7SAPS  H18X  929   2.651   1.009   5.193  0.8927 -0.8429 -0.0585
    7SAPS  H18Y  930   2.808   1.063   5.133 -0.1631  0.1151 -0.7820
    7SAPS  H18Z  931   2.706   1.179   5.236  0.9512  0.3032  1.2646
    8SAPS     N  932   2.594   2.322   7.192 -0.3368 -0.6554  0.0483
    8SAPS   HN1  933   2.538   2.409   7.183  0.1548 -0.1162  1.8370
    8SAPS   HN2  934   2.632   2.301   7.097 -0.5973  0.6620 -0.3650
    8SAPS   HN3  935   2.533   2.243   7.218 -0.7599  0.0132  1.1264
    8SAPS   C12  936   2.686   2.333   7.304  0.4234  0.0623 -0.2910
    8SAPS  H12A  937   2.759   2.404   7.268 -0.4822  1.9063  1.2903
    8SAPS   C13  938   2.629   2.404   7.429 -0.1485  0.5911 -0.2388
    8SAPS  O13A  939   2.522   2.463   7.423 -0.4787 -0.0661 -0.1777
    8SAPS  O13B  940   2.691   2.398   7.535 -0.7848  0.4390 -0.2544
    8SAPS   C11  941   2.751   2.195   7.334  0.0065 -0.3299 -0.2440
    8SAPS  H11A  942   2.676   2.124   7.374 -0.8979  1.2035  0.8715
    8SAPS  H11B  943   2.836   2.203   7.406  0.5289 -2.2385 -0.5756
    8SAPS     P  944   2.902   2.018   7.214 -0.3340 -0.1436 -0.5139
    8SAPS   O13  945   2.921   1.952   7.347  0.3558 -0.0249 -0.0411
    8SAPS   O14  946   2.862   1.930   7.102  0.6513 -0.3051 -0.3670
    8SAPS   O12  947   2.794   2.132   7.223  0.6926  0.3027 -0.1206
    8SAPS   O11  948   3.038   2.101   7.173  0.6140  0.0758  0.0973
    8SAPS    C1  949   3.035   2.218   7.096 -0.2217 -0.1288 -0.4925
    8SAPS    HA  950   2.934   2.245   7.060 -0.7860  0.2062  1.2562
    8SAPS    HB  951   3.075   2.301   7.159  0.9892 -0.3140 -0.9748
    8SAPS    C2  952   3.133   2.213   6.975  0.0683 -0.0223 -0.2744
    8SAPS    HS  953   3.113   2.313   6.931 -0.1970  0.5070  1.0234
    8SAPS   O21  954   3.118   2.101   6.893  0.2394 -0.5330  0.1632
    8SAPS   C21  955   3.001   2.085   6.839  0.3349  0.5960 -0.1971
    8SAPS   O22  956   2.905   2.162   6.854  0.1647 -0.5429 -0.6656
    8SAPS   C22  957   3.005   1.951   6.761  0.5254  0.0500 -0.1298
    8SAPS   H2R  958   2.970   1.870   6.829  0.0219 -0.6499 -1.1889
    8SAPS   H2S  959   2.936   1.941   6.675  0.5716 -3.0962  0.0900
    8SAPS    C3  960   3.282   2.206   7.031 -0.1101  0.4630 -0.1178
    8SAPS    HX  961   3.295   2.101   7.066  1.3842  0.2191 -1.3500
    8SAPS    HY  962   3.279   2.280   7.114 -0.4094  2.3582 -1.7492
    8SAPS   O31  963   3.374   2.235   6.931 -0.3427 -0.0338  0.4308
    8SAPS   C31  964   3.434   2.349   6.946 -0.1296  0.5840  0.7266
    8SAPS   O32  965   3.421   2.428   7.042  0.4042  0.0669 -0.0258
    8SAPS   C32  966   3.522   2.377   6.820 -0.0875  0.0689 -0.5672
    8SAPS   H2X  967   3.576   2.288   6.782  1.1137  0.0471  1.0914
    8SAPS   H2Y  968   3.598   2.454   6.845  0.0848  0.3609 -1.9151
    8SAPS   C23  969   3.137   1.895   6.707  0.4345 -1.1450 -0.3446
    8SAPS   H3R  970   3.114   1.787   6.699  0.9424 -1.1907 -1.2235
    8SAPS   H3S  971   3.221   1.906   6.779 -1.0361  0.1338  1.2803
    8SAPS   C24  972   3.191   1.936   6.578  0.3798 -0.1108  0.4489
    8SAPS   H4R  973   3.113   1.927   6.500 -0.1439  0.0395  0.9493
    8SAPS   H4S  974   3.257   1.853   6.543 -1.0736 -0.1546 -2.4827
    8SAPS   C25  975   3.261   2.060   6.556 -0.5864 -0.4492  0.2770
    8SAPS   H5R  976   3.258   2.130   6.641  0.2348 -0.6827  0.5125
    8SAPS   C26  977   3.321   2.097   6.439 -0.0579  0.0791 -0.0843
    8SAPS   H6R  978   3.378   2.191   6.441 -2.0186  1.3122  2.0336
    8SAPS   C27  979   3.331   2.016   6.315 -0.4444  0.2649 -0.2509
    8SAPS   H7R  980   3.316   1.907   6.333 -1.1376 -0.1809 -2.9771
    8SAPS   H7S  981   3.435   2.013   6.277 -0.5563 -1.0878 -0.5309
    8SAPS   C28  982   3.256   2.076   6.201  0.2306 -0.8377  0.1609
    8SAPS   H8R  983   3.259   2.186   6.196 -1.0799 -0.8167 -0.5190
    8SAPS   C29  984   3.177   2.008   6.115  0.2359 -1.0822  0.4381
    8SAPS   H9R  985   3.118   2.066   6.042  1.6565  1.1003  0.9210
    8SAPS  C210  986   3.159   1.857   6.107  0.6967 -0.3350  0.1509
    8SAPS  H10R  987   3.247   1.809   6.154  1.2306 -0.7491 -1.2036
    8SAPS  H10S  988   3.167   1.834   5.998 -0.1429 -0.0166  0.0179
    8SAPS  C211  989   3.042   1.800   6.172 -0.1842  0.4908 -0.5703
    8SAPS  H11R  990   3.029   1.826   6.278  1.1377  0.0454 -0.2802
    8SAPS  C212  991   2.953   1.716   6.115 -0.2327 -0.2454 -0.3125
    8SAPS  H12R  992   2.872   1.675   6.176 -1.4274  1.7205 -0.5309
    8SAPS  C213  993   2.967   1.649   5.979 -0.6916 -0.6737  0.0771
    8SAPS  H13R  994   2.973   1.539   5.992 -0.5876 -0.6711  0.0575
    8SAPS  H13S  995   3.066   1.670   5.934 -0.4952  1.9010  1.5043
    8SAPS  C214  996   2.850   1.682   5.890  0.1384  0.0851 -0.2040
    8SAPS  H14R  997   2.832   1.790   5.896 -2.3358 -0.3343  2.1585
    8SAPS  C215  998   2.766   1.598   5.824 -0.3000 -0.7074 -0.1181
    8SAPS  H15R  999   2.687   1.633   5.756  1.7085  0.6401 -1.8966
    8SAPS  C216 1000   2.786   1.448   5.817  0.3422  0.1030  0.4931
    8SAPS  H16R 1001   2.785   1.394   5.915  0.6315  0.7116  0.8321
    8SAPS  H16S 1002   2.877   1.420   5.759 -0.0061  1.7710 -0.9216
    8SAPS  C217 1003   2.678   1.388   5.722  0.2872 -0.0774  0.2220
    8SAPS  H17R 1004   2.576   1.424   5.743 -0.7379 -1.6250 -1.7335
    8SAPS  H17S 1005   2.681   1.277   5.733 -1.1916 -0.0984  0.6021
    8SAPS  C218 1006   2.700   1.414   5.563 -0.0242 -0.9863 -0.3894
    8SAPS  H18R 1007   2.801   1.367   5.557  1.2501  1.0646  2.3718
    8SAPS  H18S 1008   2.717   1.520   5.535 -0.1488 -0.8790 -0.0602
    8SAPS  C219 1009   2.581   1.351   5.478  0.3686 -0.4866  0.3922
    8SAPS  H19R 1010   2.612   1.357   5.372 -0.9785  2.1570  0.0671
    8SAPS  H19S 1011   2.497   1.423   5.489  0.9619  0.3040 -0.1425
    8SAPS  C220 1012   2.541   1.207   5.499  0.5475 -0.3778  0.0125
    8SAPS  H20R 1013   2.458   1.198   5.572  0.9009 -1.0572  0.3353
    8SAPS  H20S 1014   2.629   1.151   5.536 -0.3413 -1.0670  1.1339
    8SAPS  H20T 1015   2.512   1.158   5.403 -3.1527  0.2569  0.6801
    8SAPS   C33 1016   3.446   2.434   6.696 -0.2377 -0.2071  0.3934
    8SAPS   H3X 1017   3.382   2.513   6.741  0.1534 -0.3464  1.2024
    8SAPS   H3Y 1018   3.387   2.354   6.645  2.2501 -2.5512  0.9266
    8SAPS   C34 1019   3.538   2.511   6.602  0.5314 -0.0853 -0.2212
    8SAPS   H4X 1020   3.641   2.469   6.592  0.9657  0.4485  1.5789
    8SAPS   H4Y 1021   3.549   2.612   6.646 -1.4233  0.4865 -0.9574
    8SAPS   C35 1022   3.467   2.517   6.461 -0.7291 -0.5869  0.1384
    8SAPS   H5X 1023   3.474   2.622   6.426  3.6473  0.2774  2.8460
    8SAPS   H5Y 1024   3.361   2.483   6.468 -1.1616  0.4202 -1.2052
    8SAPS   C36 1025   3.539   2.429   6.359  0.2090 -0.1160  0.0606
    8SAPS   H6X 1026   3.565   2.334   6.410  0.2256  0.4260  1.0947
    8SAPS   H6Y 1027   3.632   2.484   6.335 -0.2284  0.7038  0.2131
    8SAPS   C37 1028   3.457   2.410   6.230 -0.1661  1.2568  0.4257
    8SAPS   H7X 1029   3.441   2.497   6.163 -1.9418  0.5184 -0.1929
    8SAPS   H7Y 1030   3.352   2.379   6.252 -0.3329  0.8962 -0.7813
    8SAPS   C38 1031   3.526   2.301   6.147 -0.3341 -0.3706 -0.0726
    8SAPS   H8X 1032   3.513   2.197   6.184 -0.7111  0.1564  1.3132
    8SAPS   H8Y 1033   3.632   2.333   6.141 -1.0325  2.0975 -0.0635
    8SAPS   C39 1034   3.461   2.287   6.004 -0.3727 -0.1648  0.0519
    8SAPS   H9X 1035   3.442   2.387   5.958  1.6173 -1.0011 -2.8811
    8SAPS   H9Y 1036   3.361   2.242   6.016 -2.1744  3.5186  0.4728
    8SAPS  C310 1037   3.541   2.198   5.912  0.1477  0.1324  0.4238
    8SAPS  H10X 1038   3.579   2.104   5.958 -0.4114 -0.6700 -0.7046
    8SAPS  H10Y 1039   3.627   2.264   5.885 -0.5817  1.0134  0.2001
    8SAPS  C311 1040   3.472   2.154   5.783 -0.2221 -0.0720  0.0990
    8SAPS  H11X 1041   3.551   2.113   5.716  0.2795  0.4088  0.3951
    8SAPS  H11Y 1042   3.429   2.243   5.733  1.7191  2.1922  2.2154
    8SAPS  C312 1043   3.354   2.055   5.795 -0.7333 -0.5159 -0.4868
    8SAPS  H12X 1044   3.288   2.088   5.877 -0.3760  0.4192 -0.5596
    8SAPS  H12Y 1045   3.398   1.957   5.825  0.0931  0.0092  0.0566
    8SAPS  C313 1046   3.270   2.034   5.665  0.3691 -0.5526  0.4347
    8SAPS  H13X 1047   3.346   2.025   5.585 -1.5679 -1.0319 -1.4506
    8SAPS  H13Y 1048   3.217   2.128   5.641  0.7395  0.2760  2.6394
    8SAPS  C314 1049   3.183   1.909   5.677 -0.2197  0.5494 -0.2287
    8SAPS  H14X 1050   3.102   1.935   5.749 -1.2034  3.0103 -2.0435
    8SAPS  H14Y 1051   3.255   1.836   5.718  0.7499  2.5631  1.8765
    8SAPS  C315 1052   3.119   1.863   5.545 -0.2359 -0.2477 -0.2973
    8SAPS  H15X 1053   3.067   1.766   5.560 -0.1150 -0.7012 -2.4826
    8SAPS  H15Y 1054   3.203   1.846   5.475  2.5561 -1.0178  2.9542
    8SAPS  C316 1055   3.020   1.964   5.487 -0.4422 -0.3001  0.1537
    8SAPS  H16X 1056   3.086   2.042   5.442 -0.8718  0.1459  0.2825
    8SAPS  H16Y 1057   2.963   2.004   5.574  1.4949  2.1665  0.4314
    8SAPS  C317 1058   2.945   1.904   5.366  0.0748 -0.5248 -0.6588
    8SAPS  H17X 1059   2.864   1.975   5.340  0.4777  0.1672 -0.0621
    8SAPS  H17Y 1060   2.885   1.812   5.384 -1.5302  0.7116  0.5050
    8SAPS  C318 1061   3.027   1.878   5.247  0.1991  0.7953  0.9324
    8SAPS  H18X 1062   3.088   1.965   5.216 -0.9932  0.7778 -1.7611
    8SAPS  H18Y 1063   2.967   1.847   5.159 -0.0742  0.7880  1.1222
    8SAPS  H18Z 1064   3.095   1.792   5.269  1.4228  0.9195 -1.9703
    9SAPS     N 1065   2.989   0.081   7.698  0.4302 -1.3251 -0.1742
    9SAPS   HN1 1066   3.031   0.108   7.607 -0.3202  0.8286  0.0564
    9SAPS   HN2 1067   2.886   0.069   7.688 -0.1481  0.3903  2.7093
    9SAPS   HN3 1068   2.998   0.164   7.760 -0.0201 -1.9261  0.7162
    9SAPS   C12 1069   3.058  -0.027   7.761  0.1397 -0.0344 -0.1551
    9SAPS  H12A 1070   3.149   0.012   7.804  0.7887 -0.6939 -0.8763
    9SAPS   C13 1071   2.977  -0.095   7.870  0.8432 -0.3458 -0.0720
    9SAPS  O13A 1072   2.854  -0.080   7.876  0.0630 -0.2369  0.6156
    9SAPS  O13B 1073   3.031  -0.190   7.934 -0.3700  0.5599  0.3965
    9SAPS   C11 1074   3.089  -0.139   7.654 -0.6753  0.5256 -0.1351
    9SAPS  H11A 1075   2.995  -0.171   7.604 -0.2501 -0.4019 -0.3628
    9SAPS  H11B 1076   3.130  -0.228   7.704 -0.7976  0.8832  0.6215
    9SAPS     P 1077   3.339  -0.125   7.538 -0.4990 -0.0302 -0.5409
    9SAPS   O13 1078   3.411  -0.076   7.663 -0.3892 -0.0140 -0.0332
    9SAPS   O14 1079   3.356  -0.269   7.499  0.3419  0.4278 -0.0920
    9SAPS   O12 1080   3.180  -0.089   7.549 -0.3120  0.3499 -0.9129
    9SAPS   O11 1081   3.391  -0.033   7.419  0.1694 -0.4092 -0.3587
    9SAPS    C1 1082   3.293   0.005   7.319  0.9854 -0.7145 -0.0632
    9SAPS    HA 1083   3.198   0.033   7.368  0.5466 -1.9706 -0.1491
    9SAPS    HB 1084   3.331   0.096   7.269 -1.7992 -0.0218 -1.0500
    9SAPS    C2 1085   3.255  -0.097   7.214 -0.0429  0.8288 -0.2548
    9SAPS    HS 1086   3.281  -0.199   7.250 -3.6869  0.0500  0.6039
    9SAPS   O21 1087   3.331  -0.063   7.095 -0.1185  0.3402  0.6171
    9SAPS   C21 1088   3.365  -0.156   7.010 -0.2051 -0.4531  0.3082
    9SAPS   O22 1089   3.371  -0.276   7.035 -0.4610  0.7734  0.0827
    9SAPS   C22 1090   3.392  -0.088   6.878  0.0386 -0.5526 -0.0729
    9SAPS   H2R 1091   3.445   0.007   6.902 -2.5117  0.7173  0.8460
    9SAPS   H2S 1092   3.456  -0.150   6.812  1.7040 -0.2768  1.2184
    9SAPS    C3 1093   3.105  -0.096   7.175  0.0498 -0.0365  0.2699
    9SAPS    HX 1094   3.064   0.005   7.153 -0.5382 -0.5261 -0.9983
    9SAPS    HY 1095   3.046  -0.123   7.264  1.9752 -0.5599  1.4538
    9SAPS   O31 1096   3.074  -0.176   7.054  0.2291 -0.5532  0.0705
    9SAPS   C31 1097   3.034  -0.300   7.085 -0.6681 -0.4832  0.4768
    9SAPS   O32 1098   3.028  -0.348   7.193  0.2959 -0.0508 -0.0543
    9SAPS   C32 1099   3.003  -0.365   6.953 -0.0182  0.6334  0.3483
    9SAPS   H2X 1100   2.953  -0.462   6.974  0.2735  0.1325 -1.1264
    9SAPS   H2Y 1101   3.100  -0.391   6.903 -0.9283 -2.0553 -0.2067
    9SAPS   C23 1102   3.261  -0.039   6.812  0.5686  0.4533 -0.5776
    9SAPS   H3R 1103   3.198   0.012   6.889 -0.0601 -0.3520 -0.5406
    9SAPS   H3S 1104   3.195  -0.127   6.793  0.2326  1.0865 -2.5514
    9SAPS   C24 1105   3.284   0.043   6.689 -0.2423 -0.4465  1.0075
    9SAPS   H4R 1106   3.341  -0.011   6.610  0.0233  0.1045  0.8210
    9SAPS   H4S 1107   3.345   0.133   6.710  1.7982 -1.5161 -0.0957
    9SAPS   C25 1108   3.155   0.092   6.628 -1.1736  0.8692  0.6234
    9SAPS   H5R 1109   3.109   0.174   6.683 -1.4502  1.3260 -0.2749
    9SAPS   C26 1110   3.103   0.048   6.512  0.0808  0.9495  0.6551
    9SAPS   H6R 1111   3.022   0.106   6.465  0.2478 -0.3533 -1.3826
    9SAPS   C27 1112   3.140  -0.076   6.430  0.3459 -0.4900 -0.3605
    9SAPS   H7R 1113   3.044  -0.122   6.401 -1.4866  3.3183 -0.9735
    9SAPS   H7S 1114   3.197  -0.148   6.492  0.6269  2.8964  3.7974
    9SAPS   C28 1115   3.230  -0.029   6.317 -0.0519 -0.8627 -0.2380
    9SAPS   H8R 1116   3.330   0.006   6.347 -1.8876  2.3440  2.8359
    9SAPS   C29 1117   3.200   0.006   6.189  0.4292  0.5985 -0.3803
    9SAPS   H9R 1118   3.283   0.042   6.127 -0.2314 -0.3767 -1.8977
    9SAPS  C210 1119   3.073  -0.000   6.106  0.5852 -0.6077 -0.6475
    9SAPS  H10R 1120   3.032   0.101   6.090 -0.8422 -1.0513  0.0448
    9SAPS  H10S 1121   2.995  -0.062   6.156  0.2528 -0.9507 -1.5602
    9SAPS  C211 1122   3.106  -0.065   5.979 -0.2791  0.3767 -0.3862
    9SAPS  H11R 1123   3.113  -0.175   5.991  0.6863  0.5543  0.9627
    9SAPS  C212 1124   3.146  -0.009   5.867  0.9096  0.3046 -0.0817
    9SAPS  H12R 1125   3.155  -0.073   5.778  0.4233  0.0368  0.0567
    9SAPS  C213 1126   3.167   0.136   5.847 -0.3674 -0.0288  0.5636
    9SAPS  H13R 1127   3.155   0.185   5.946 -2.0182 -1.0864  0.9274
    9SAPS  H13S 1128   3.084   0.180   5.786 -0.9004 -0.0317  1.2785
    9SAPS  C214 1129   3.300   0.159   5.779 -0.4877 -0.3639 -0.0124
    9SAPS  H14R 1130   3.387   0.190   5.838 -1.1815  0.5770  0.5518
    9SAPS  C215 1131   3.322   0.166   5.641  0.1863  0.9024  0.4574
    9SAPS  H15R 1132   3.429   0.170   5.616  1.3628 -0.8829  4.4373
    9SAPS  C216 1133   3.215   0.136   5.537  0.2243  0.4479 -0.4089
    9SAPS  H16R 1134   3.208   0.204   5.450  0.9376 -1.7074 -2.2464
    9SAPS  H16S 1135   3.116   0.134   5.588 -0.8820  1.9145 -2.3514
    9SAPS  C217 1136   3.243   0.003   5.479 -0.0493  0.4305  0.1140
    9SAPS  H17R 1137   3.148  -0.021   5.426  0.0436  1.0342 -0.3371
    9SAPS  H17S 1138   3.238  -0.080   5.553 -2.7817 -1.3880 -1.9097
    9SAPS  C218 1139   3.358   0.003   5.381 -0.0314 -0.0827 -0.1286
    9SAPS  H18R 1140   3.460  -0.020   5.417  0.4302 -1.4577 -2.1425
    9SAPS  H18S 1141   3.359   0.097   5.322  1.6698 -1.2495 -2.1297
    9SAPS  C219 1142   3.327  -0.096   5.266  0.4358 -0.7275 -0.1075
    9SAPS  H19R 1143   3.279  -0.188   5.306 -1.0307  0.2642  0.4872
    9SAPS  H19S 1144   3.424  -0.122   5.219  2.0308  0.7315  2.1338
    9SAPS  C220 1145   3.238  -0.049   5.151 -0.8235 -0.1465  0.0313
    9SAPS  H20R 1146   3.234  -0.140   5.086  1.3535 -2.8214  3.3082
    9SAPS  H20S 1147   3.284   0.040   5.103  0.9937 -0.7861  0.5277
    9SAPS  H20T 1148   3.132  -0.027   5.177 -1.4023 -2.0810 -0.4677
    9SAPS   C33 1149   2.934  -0.276   6.844  0.4210  0.5116  0.2466
    9SAPS   H3X 1150   2.982  -0.177   6.826  0.8544 -0.0784 -2.2488
    9SAPS   H3Y 1151   2.834  -0.246   6.884 -0.2122 -1.9381  0.6213
    9SAPS   C34 1152   2.896  -0.350   6.715 -0.2145 -0.2597  0.4056
    9SAPS   H4X 1153   2.841  -0.442   6.744  1.2353 -1.2320  0.1766
    9SAPS   H4Y 1154   2.988  -0.396   6.673 -1.4320 -0.2303 -2.5677
    9SAPS   C35 1155   2.833  -0.258   6.609  0.1786  0.4628 -0.9632
    9SAPS   H5X 1156   2.881  -0.158   6.618  1.3196 -0.0969 -0.5916
    9SAPS   H5Y 1157   2.725  -0.239   6.628  0.3981  1.4546 -0.6675
    9SAPS   C36 1158   2.849  -0.313   6.469 -0.0555  0.7309  0.4301
    9SAPS   H6X 1159   2.804  -0.414   6.465 -0.9167  1.1450 -0.8832
    9SAPS   H6Y 1160   2.954  -0.308   6.432  0.0179  0.2020  0.5643
    9SAPS   C37 1161   2.771  -0.234   6.362  0.5366 -0.2818  0.0637
    9SAPS   H7X 1162   2.799  -0.127   6.364  2.3542 -0.7135  2.6756
    9SAPS   H7Y 1163   2.663  -0.241   6.389  0.8437 -1.4919  1.0959
    9SAPS   C38 1164   2.785  -0.282   6.223 -0.5445 -0.0250  0.3575
    9SAPS   H8X 1165   2.714  -0.366   6.206  0.2171 -0.4678 -0.7068
    9SAPS   H8Y 1166   2.890  -0.308   6.200 -0.5357  0.2670  0.0677
    9SAPS   C39 1167   2.735  -0.175   6.122 -0.4758  0.6025 -0.0496
    9SAPS   H9X 1168   2.779  -0.075   6.142 -0.7550  0.4978  1.1152
    9SAPS   H9Y 1169   2.624  -0.170   6.129 -0.7042 -2.6534  0.2191
    9SAPS  C310 1170   2.772  -0.212   5.979  0.1408  0.3269 -0.3210
    9SAPS  H10X 1171   2.724  -0.310   5.956  0.3742  0.2991 -0.7081
    9SAPS  H10Y 1172   2.883  -0.217   5.980  0.1755  0.1615  2.6017
    9SAPS  C311 1173   2.729  -0.102   5.873 -0.0770 -0.4961 -0.1319
    9SAPS  H11X 1174   2.778  -0.003   5.884 -2.3301  0.7707 -0.9013
    9SAPS  H11Y 1175   2.618  -0.091   5.879  0.1160  1.7199 -0.0050
    9SAPS  C312 1176   2.761  -0.145   5.731  0.1006  0.0327 -0.0826
    9SAPS  H12X 1177   2.712  -0.244   5.722  1.3604 -0.4642 -2.2889
    9SAPS  H12Y 1178   2.872  -0.148   5.730  0.2524  2.9175 -0.3335
    9SAPS  C313 1179   2.713  -0.039   5.626 -1.0744  0.1256  0.1942
    9SAPS  H13X 1180   2.741   0.064   5.660  2.2045  0.1013 -2.0329
    9SAPS  H13Y 1181   2.602  -0.038   5.632 -1.1463 -1.3538 -0.5242
    9SAPS  C314 1182   2.743  -0.068   5.477  0.3687  0.1356 -0.1206
    9SAPS  H14X 1183   2.717  -0.176   5.469  1.4145 -0.5083  3.5246
    9SAPS  H14Y 1184   2.849  -0.059   5.446  0.1121 -0.9120 -1.4038
    9SAPS  C315 1185   2.673   0.034   5.382  0.7052 -0.1424  0.0283
    9SAPS  H15X 1186   2.709   0.135   5.412  2.0821 -0.6609  0.1658
    9SAPS  H15Y 1187   2.564   0.025   5.403  1.0301 -2.2433  1.1468
    9SAPS  C316 1188   2.696   0.015   5.227  0.2248  0.0991  0.0242
    9SAPS  H16X 1189   2.668  -0.090   5.208  1.9361 -0.1071 -1.6822
    9SAPS  H16Y 1190   2.807   0.022   5.225  0.2752  0.2768  1.6884
    9SAPS  C317 1191   2.626   0.119   5.135 -0.2335 -0.4264 -0.1316
    9SAPS  H17X 1192   2.655   0.117   5.027 -2.6473  0.4731 -0.8749
    9SAPS  H17Y 1193   2.643   0.224   5.169 -2.4374  0.0353 -0.2873
    9SAPS  C318 1194   2.467   0.106   5.141  0.3215  0.7271 -0.3008
    9SAPS  H18X 1195   2.434   0.144   5.240  0.1469  0.7389 -0.3624
    9SAPS  H18Y 1196   2.435   0.001   5.129  1.6969  0.1405  0.9354
    9SAPS  H18Z 1197   2.413   0.161   5.061 -1.8708 -0.1822  0.4849
   10SAPS     N 1198   3.043   5.689   7.795  0.2381  0.5345 -0.2638
   10SAPS   HN1 1199   2.963   5.747   7.828 -0.1593  0.5951 -1.3093
   10SAPS   HN2 1200   3.034   5.589   7.822 -0.4329  0.4816 -0.6659
   10SAPS   HN3 1201   3.125   5.707   7.856  1.1982 -2.5763 -0.4645
   10SAPS   C12 1202   3.077   5.715   7.652  0.3103 -0.2498 -0.0717
   10SAPS  H12A 1203   3.096   5.820   7.632  0.4731 -0.3967 -0.6967
   10SAPS   C13 1204   3.202   5.636   7.604 -0.8995 -0.0783  1.0730
   10SAPS  O13A 1205   3.274   5.576   7.684  0.7521 -0.1220  0.0143
   10SAPS  O13B 1206   3.223   5.644   7.482 -0.6376 -0.0033  0.5213
   10SAPS   C11 1207   2.940   5.695   7.562 -0.0298  0.1500 -0.3034
   10SAPS  H11A 1208   2.905   5.592   7.586  0.9991  0.0704  1.0093
   10SAPS  H11B 1209   2.975   5.687   7.457 -1.4216  0.6764 -0.8313
   10SAPS     P 1210   2.706   5.807   7.528  0.1870  0.0818  0.1965
   10SAPS   O13 1211   2.626   5.690   7.574 -0.2694  0.0570 -0.7382
   10SAPS   O14 1212   2.656   5.945   7.553  0.1314 -0.2016  0.0972
   10SAPS   O12 1213   2.846   5.796   7.591 -0.1250  0.2832  0.2686
   10SAPS   O11 1214   2.727   5.783   7.377  0.3130 -0.2254  0.4465
   10SAPS    C1 1215   2.814   5.873   7.299 -0.0639  0.2017  0.0382
   10SAPS    HA 1216   2.883   5.935   7.361 -0.5204  0.1231  0.6237
   10SAPS    HB 1217   2.872   5.812   7.226  0.6026  0.6031  0.2245
   10SAPS    C2 1218   2.729   5.961   7.207  1.2882  0.7281 -0.2384
   10SAPS    HS 1219   2.661   6.008   7.283 -0.2975 -0.0258 -1.1398
   10SAPS   O21 1220   2.657   5.875   7.113 -0.3442 -0.4511 -0.0360
   10SAPS   C21 1221   2.550   5.936   7.057  0.3782  0.4387  0.3732
   10SAPS   O22 1222   2.508   6.045   7.091  0.3131 -0.7651  0.1622
   10SAPS   C22 1223   2.498   5.853   6.942  0.1798  0.1911 -0.0047
   10SAPS   H2R 1224   2.558   5.761   6.926 -2.7945 -2.3849  2.5104
   10SAPS   H2S 1225   2.407   5.803   6.982 -0.2668  1.3015  0.4075
   10SAPS    C3 1226   2.807   6.072   7.126 -0.2394  0.3103 -0.2211
   10SAPS    HX 1227   2.879   6.117   7.197  0.4225 -0.0729 -0.6407
   10SAPS    HY 1228   2.745   6.152   7.081 -1.0026 -0.1518 -0.0079
   10SAPS   O31 1229   2.885   6.014   7.015  0.5978 -0.1473 -0.3578
   10SAPS   C31 1230   3.017   6.007   7.035  0.4459  0.0709  0.5862
   10SAPS   O32 1231   3.071   6.038   7.135 -0.3328  0.2790 -0.3966
   10SAPS   C32 1232   3.083   5.937   6.907 -0.2268  0.3429  0.3600
   10SAPS   H2X 1233   3.010   5.916   6.826  0.0514  1.5201 -0.2253
   10SAPS   H2Y 1234   3.124   5.837   6.933  1.8826  0.1027 -3.1804
   10SAPS   C23 1235   2.480   5.941   6.812 -0.3506  0.1927 -0.0268
   10SAPS   H3R 1236   2.418   6.030   6.833  0.2129  0.4880  0.4044
   10SAPS   H3S 1237   2.445   5.881   6.725  2.3762 -1.3783 -0.1542
   10SAPS   C24 1238   2.616   5.993   6.761  0.2649 -0.5801 -0.0645
   10SAPS   H4R 1239   2.657   6.053   6.845  0.0716 -0.3608 -0.1238
   10SAPS   H4S 1240   2.597   6.062   6.676 -0.8494  0.3283  0.8899
   10SAPS   C25 1241   2.715   5.889   6.718 -0.0547 -1.0695 -0.7459
   10SAPS   H5R 1242   2.738   5.822   6.803  0.0249 -0.1240 -0.0080
   10SAPS   C26 1243   2.779   5.869   6.605 -0.0923 -0.2347 -0.4375
   10SAPS   H6R 1244   2.857   5.792   6.616  0.4431  0.2565 -0.7182
   10SAPS   C27 1245   2.766   5.948   6.476 -0.0717  0.0684 -0.8105
   10SAPS   H7R 1246   2.850   5.917   6.411  0.4453 -0.1991 -0.0282
   10SAPS   H7S 1247   2.779   6.055   6.501  2.5173 -0.8679  2.5131
   10SAPS   C28 1248   2.641   5.924   6.403 -0.2789  0.2206 -0.4830
   10SAPS   H8R 1249   2.575   5.846   6.445  1.8537 -1.8422 -0.7568
   10SAPS   C29 1250   2.616   5.974   6.282  0.1122 -0.2492 -0.4054
   10SAPS   H9R 1251   2.521   5.953   6.231 -0.5882 -0.0245  0.7922
   10SAPS  C210 1252   2.708   6.071   6.208 -0.1570  0.0198 -0.1572
   10SAPS  H10R 1253   2.779   6.005   6.154  0.2609  0.1728  0.1982
   10SAPS  H10S 1254   2.769   6.134   6.277 -0.9129  0.4305  0.1547
   10SAPS  C211 1255   2.643   6.166   6.109 -0.3529 -0.3160 -1.0624
   10SAPS  H11R 1256   2.583   6.244   6.158  1.4956  0.5920 -0.1328
   10SAPS  C212 1257   2.630   6.167   5.979 -0.1369 -0.0743  0.0317
   10SAPS  H12R 1258   2.578   6.258   5.944 -0.0608 -0.3130 -0.7159
   10SAPS  C213 1259   2.691   6.084   5.868  0.3911  0.2754 -0.2448
   10SAPS  H13R 1260   2.615   6.016   5.824  0.3779 -0.7305  1.2468
   10SAPS  H13S 1261   2.762   6.009   5.908 -0.2289 -0.9151 -1.2930
   10SAPS  C214 1262   2.770   6.159   5.760  0.4510  1.0544 -0.0266
   10SAPS  H14R 1263   2.872   6.186   5.789  0.3001  0.3749  1.1607
   10SAPS  C215 1264   2.721   6.201   5.642  0.3918  0.5829  0.1818
   10SAPS  H15R 1265   2.790   6.236   5.564 -1.7255  1.4818 -1.3814
   10SAPS  C216 1266   2.584   6.153   5.596  0.1659 -0.0142  0.2794
   10SAPS  H16R 1267   2.511   6.220   5.648  1.4597  1.7822 -0.1031
   10SAPS  H16S 1268   2.562   6.047   5.621  0.2235  0.1259  0.9424
   10SAPS  C217 1269   2.565   6.169   5.443  0.6282  0.1096 -0.0804
   10SAPS  H17R 1270   2.469   6.117   5.423  1.9664 -3.2957  1.5694
   10SAPS  H17S 1271   2.642   6.110   5.387 -0.7626 -0.6886 -1.2336
   10SAPS  C218 1272   2.558   6.315   5.387  0.3637 -0.2487  0.0412
   10SAPS  H18R 1273   2.664   6.349   5.375  0.9027 -1.5808  0.7756
   10SAPS  H18S 1274   2.506   6.373   5.466  2.3837  0.3004  1.0497
   10SAPS  C219 1275   2.476   6.335   5.249 -0.1407  0.0349  0.1183
   10SAPS  H19R 1276   2.534   6.299   5.162  0.1457 -1.6843  0.9920
   10SAPS  H19S 1277   2.457   6.442   5.226 -1.2644  0.0280  0.9403
   10SAPS  C220 1278   2.343   6.264   5.246  0.4257  0.2072  0.3170
   10SAPS  H20R 1279   2.300   6.290   5.147 -0.7642 -0.5918  0.6128
   10SAPS  H20S 1280   2.269   6.290   5.324  0.5718 -1.6679  1.1345
   10SAPS  H20T 1281   2.354   6.154   5.242 -2.1854 -0.0802 -0.9854
   10SAPS   C33 1282   3.198   6.024   6.842  0.0086  0.0487 -0.0850
   10SAPS   H3X 1283   3.256   5.952   6.780  0.3132  2.0218 -2.2343
   10SAPS   H3Y 1284   3.255   6.084   6.916  0.1046  0.1568 -0.2457
   10SAPS   C34 1285   3.140   6.121   6.734 -0.0810  0.2836 -0.0888
   10SAPS   H4X 1286   3.163   6.228   6.752 -0.0525  0.4448 -1.0658
   10SAPS   H4Y 1287   3.030   6.105   6.733 -0.5467  2.9446 -1.4166
   10SAPS   C35 1288   3.195   6.084   6.596 -0.8620  0.4219  0.2140
   10SAPS   H5X 1289   3.202   5.976   6.575 -3.2107  0.1695  0.4361
   10SAPS   H5Y 1290   3.299   6.121   6.585 -1.1848  1.5890  0.8331
   10SAPS   C36 1291   3.110   6.147   6.490 -0.2725 -0.6724  0.4751
   10SAPS   H6X 1292   3.102   6.257   6.499  2.1452 -0.1968 -1.8706
   10SAPS   H6Y 1293   3.010   6.098   6.494  0.9890 -3.4013  0.5290
   10SAPS   C37 1294   3.161   6.112   6.351  0.0721  0.4150 -0.5372
   10SAPS   H7X 1295   3.124   6.011   6.321  0.4903  0.1647 -0.2266
   10SAPS   H7Y 1296   3.272   6.104   6.358  0.0721  0.6014 -0.2778
   10SAPS   C38 1297   3.129   6.216   6.246  0.1069 -0.1815 -0.0638
   10SAPS   H8X 1298   3.185   6.309   6.270 -1.0682  0.3076  0.8749
   10SAPS   H8Y 1299   3.023   6.247   6.261 -0.4147 -1.4286 -0.9890
   10SAPS   C39 1300   3.150   6.163   6.107 -0.2092  0.2909  0.1606
   10SAPS   H9X 1301   3.081   6.080   6.084 -0.0591  0.5572 -1.3204
   10SAPS   H9Y 1302   3.253   6.125   6.087 -0.7492 -1.0028 -0.2580
   10SAPS  C310 1303   3.108   6.266   5.997  0.3075 -0.5040  0.5323
   10SAPS  H10X 1304   3.142   6.369   6.018 -2.0033  0.5538 -0.4835
   10SAPS  H10Y 1305   2.997   6.279   5.998  0.1645 -1.2097  3.6743
   10SAPS  C311 1306   3.141   6.233   5.854 -0.3287  0.2918  0.1408
   10SAPS  H11X 1307   3.094   6.136   5.831 -2.7215  0.7854  2.4483
   10SAPS  H11Y 1308   3.250   6.215   5.841 -0.3251 -0.2821  0.9379
   10SAPS  C312 1309   3.097   6.348   5.759  0.6922 -0.6893 -0.2521
   10SAPS  H12X 1310   3.152   6.440   5.787  0.0300  0.0157 -1.2132
   10SAPS  H12Y 1311   2.989   6.364   5.783  0.7560 -0.9153  0.2010
   10SAPS  C313 1312   3.121   6.314   5.614  0.0952  0.6928  0.4105
   10SAPS  H13X 1313   3.088   6.211   5.589 -0.9197  1.6070 -2.3636
   10SAPS  H13Y 1314   3.229   6.308   5.586  0.0951  0.7192  0.4037
   10SAPS  C314 1315   3.049   6.402   5.508  0.0667 -0.2294 -0.5920
   10SAPS  H14X 1316   3.082   6.508   5.500 -1.5138  0.2261 -1.4118
   10SAPS  H14Y 1317   2.944   6.410   5.542  0.3730 -0.7985  0.5144
   10SAPS  C315 1318   3.046   6.330   5.373  0.5703  0.0710 -0.5442
   10SAPS  H15X 1319   3.000   6.229   5.373  0.0253  0.3114 -1.1823
   10SAPS  H15Y 1320   3.148   6.310   5.336  0.3632  0.0925 -1.1280
   10SAPS  C316 1321   2.972   6.418   5.265 -0.4970  0.5946 -0.9480
   10SAPS  H16X 1322   3.024   6.515   5.251 -1.5576  1.2072 -0.7631
   10SAPS  H16Y 1323   2.870   6.431   5.307 -0.0776  0.0390  0.2884
   10SAPS  C317 1324   2.947   6.343   5.140  0.0882  0.4040  0.3965
   10SAPS  H17X 1325   2.844   6.354   5.100  0.0801 -0.9010  0.0335
   10SAPS  H17Y 1326   2.960   6.236   5.164 -1.9698 -0.4037 -1.8092
   10SAPS  C318 1327   3.054   6.382   5.036 -0.1411  0.5069 -0.2474
   10SAPS  H18X 1328   3.157   6.378   5.076  0.9516 -1.4713 -2.8973
   10SAPS  H18Y 1329   3.035   6.482   4.993  2.6353  1.8284  1.3513
   10SAPS  H18Z 1330   3.068   6.308   4.954  2.7541  1.3006 -0.5827
   11SAPS     N 1331   3.710   6.758   2.614  0.2862 -0.2486  1.1776
   11SAPS   HN1 1332   3.713   6.700   2.700  0.4020 -1.3489  0.4567
   11SAPS   HN2 1333   3.698   6.702   2.527  2.3846  1.2518 -0.1798
   11SAPS   HN3 1334   3.802   6.807   2.605 -1.6592  3.6921  0.3237
   11SAPS   C12 1335   3.599   6.856   2.634 -0.5856 -0.5329  0.0898
   11SAPS  H12A 1336   3.599   6.917   2.544 -2.1908  0.4375  0.6927
   11SAPS   C13 1337   3.455   6.799   2.625  0.3884  0.1234  0.6008
   11SAPS  O13A 1338   3.434   6.678   2.623  0.4134  0.4622  0.4009
   11SAPS  O13B 1339   3.359   6.880   2.593 -0.6511  0.1288 -0.7223
   11SAPS   C11 1340   3.622   6.923   2.771 -0.7189 -0.7073 -0.3389
   11SAPS  H11A 1341   3.542   6.996   2.797  1.0332  0.3971  2.4192
   11SAPS  H11B 1342   3.709   6.991   2.763 -2.5249  1.7122 -0.6908
   11SAPS     P 1343   3.600   6.857   3.018 -0.4235 -0.2422 -0.0753
   11SAPS   O13 1344   3.460   6.916   3.016  0.0878 -0.3317  0.1608
   11SAPS   O14 1345   3.622   6.741   3.113  0.1204 -0.1893  0.5150
   11SAPS   O12 1346   3.649   6.825   2.877  0.0926  0.1720 -0.5550
   11SAPS   O11 1347   3.703   6.972   3.050 -0.0238  0.3204  0.3059
   11SAPS    C1 1348   3.846   6.958   3.033  0.5432  0.8239 -0.2204
   11SAPS    HA 1349   3.888   6.898   2.949 -1.9751  1.8768 -2.3813
   11SAPS    HB 1350   3.885   7.062   3.022 -1.4051  1.7253  1.0264
   11SAPS    C2 1351   3.901   6.898   3.164 -0.0394  1.0952  0.8500
   11SAPS    HS 1352   3.854   6.800   3.185  0.4610  0.7481  0.3531
   11SAPS   O21 1353   3.862   6.995   3.261  0.7359 -0.0178 -0.1318
   11SAPS   C21 1354   3.821   6.955   3.387 -0.5051  0.8243  0.1545
   11SAPS   O22 1355   3.820   6.836   3.420 -0.3424  0.1523  0.7753
   11SAPS   C22 1356   3.786   7.077   3.470  0.0719 -0.6828  0.2212
   11SAPS   H2R 1357   3.735   7.043   3.563 -2.2380 -1.4149 -1.2311
   11SAPS   H2S 1358   3.879   7.137   3.485 -1.1019  1.5240 -0.7721
   11SAPS    C3 1359   4.051   6.866   3.171 -0.9459 -0.1078 -0.2790
   11SAPS    HX 1360   4.100   6.956   3.128 -1.9767  1.7863  2.2746
   11SAPS    HY 1361   4.078   6.785   3.099 -1.2850  1.5622 -2.3923
   11SAPS   O31 1362   4.103   6.853   3.307  0.0912 -0.3607 -0.0847
   11SAPS   C31 1363   4.107   6.729   3.356  1.1754  0.9789  0.7378
   11SAPS   O32 1364   4.092   6.626   3.290  0.0383  0.7317 -0.1688
   11SAPS   C32 1365   4.116   6.735   3.507 -0.2267 -0.3360  0.7623
   11SAPS   H2X 1366   4.016   6.766   3.544 -1.1115 -2.4798  0.3289
   11SAPS   H2Y 1367   4.202   6.804   3.521  1.3771 -1.8844 -0.8722
   11SAPS   C23 1368   3.688   7.179   3.397  0.1202 -0.0458 -1.1805
   11SAPS   H3R 1369   3.594   7.121   3.380 -0.8066  0.2442  2.2644
   11SAPS   H3S 1370   3.727   7.212   3.298  0.2597  0.0918 -1.0794
   11SAPS   C24 1371   3.647   7.310   3.477  0.6503 -0.3378 -0.2516
   11SAPS   H4R 1372   3.590   7.281   3.567  0.0104 -0.3667 -0.6612
   11SAPS   H4S 1373   3.565   7.355   3.418 -1.8216 -1.0411  2.4391
   11SAPS   C25 1374   3.762   7.408   3.513  0.3230 -0.0224  0.9131
   11SAPS   H5R 1375   3.769   7.483   3.433 -2.8777 -1.2940 -0.7524
   11SAPS   C26 1376   3.843   7.421   3.620 -0.0812 -0.2505  0.4864
   11SAPS   H6R 1377   3.932   7.484   3.608 -1.4621  1.8334  0.6914
   11SAPS   C27 1378   3.844   7.331   3.738 -0.0520 -0.8330 -0.2191
   11SAPS   H7R 1379   3.936   7.347   3.798  0.2636 -2.0445 -0.3429
   11SAPS   H7S 1380   3.835   7.228   3.698 -1.6050 -0.2728 -1.4246
   11SAPS   C28 1381   3.725   7.349   3.831 -0.3929 -0.2005  0.1306
   11SAPS   H8R 1382   3.633   7.366   3.774 -0.1315 -0.7975 -0.4964
   11SAPS   C29 1383   3.734   7.347   3.963 -0.2535  0.1803 -0.3680
   11SAPS   H9R 1384   3.646   7.365   4.027  0.9519  1.3506  1.0291
   11SAPS  C210 1385   3.860   7.332   4.046 -0.0156  0.2443 -0.7012
   11SAPS  H10R 1386   3.922   7.248   4.008 -0.8756 -0.5185 -0.4793
   11SAPS  H10S 1387   3.836   7.286   4.144  0.1213 -0.4402 -0.9797
   11SAPS  C211 1388   3.941   7.462   4.061  0.5981  0.1781  0.8556
   11SAPS  H11R 1389   3.980   7.512   3.971  0.9007 -0.8632  0.3960
   11SAPS  C212 1390   3.959   7.530   4.180  0.3537 -0.1667  0.1398
   11SAPS  H12R 1391   4.039   7.606   4.183  0.6805 -0.5072  0.1854
   11SAPS  C213 1392   3.895   7.487   4.314  0.1995  1.0145 -0.6714
   11SAPS  H13R 1393   3.799   7.433   4.298 -0.7859  1.2493  3.3286
   11SAPS  H13S 1394   3.874   7.569   4.386 -2.0463  1.2321 -1.4900
   11SAPS  C214 1395   3.979   7.381   4.385 -0.4227 -0.2045 -0.1574
   11SAPS  H14R 1396   3.999   7.303   4.311 -0.0967  0.4107 -0.7216
   11SAPS  C215 1397   4.011   7.384   4.514 -0.1592 -0.5199  0.2120
   11SAPS  H15R 1398   4.067   7.302   4.561  2.0588 -0.8777 -2.7916
   11SAPS  C216 1399   3.980   7.497   4.604  0.0190  0.2473  0.2879
   11SAPS  H16R 1400   3.873   7.511   4.631 -0.2425 -1.3013  0.0993
   11SAPS  H16S 1401   4.014   7.593   4.560  0.8226 -0.2040 -0.0897
   11SAPS  C217 1402   4.058   7.497   4.738  0.2097 -0.1992  0.5652
   11SAPS  H17R 1403   4.040   7.394   4.776 -2.1546 -0.5563 -1.2708
   11SAPS  H17S 1404   4.001   7.572   4.798 -2.2051  0.2886 -2.0923
   11SAPS  C218 1405   4.201   7.551   4.721  0.5583  0.1457  0.2086
   11SAPS  H18R 1406   4.221   7.634   4.793  0.2295 -2.0098  2.9886
   11SAPS  H18S 1407   4.219   7.589   4.618  1.4024 -2.0819 -0.5347
   11SAPS  C219 1408   4.307   7.446   4.756 -0.5759  0.2638 -0.5765
   11SAPS  H19R 1409   4.411   7.484   4.747 -0.1639 -0.7602 -0.3225
   11SAPS  H19S 1410   4.286   7.371   4.677 -0.3598 -0.4773  0.0533
   11SAPS  C220 1411   4.281   7.383   4.891  0.1716  0.2535  0.2796
   11SAPS  H20R 1412   4.360   7.313   4.923 -0.7720 -1.2530 -0.6045
   11SAPS  H20S 1413   4.184   7.329   4.900 -1.7656  3.6133  2.1672
   11SAPS  H20T 1414   4.279   7.469   4.962  2.7889 -0.4414  1.3103
   11SAPS   C33 1415   4.147   6.612   3.589 -0.6616  0.3586 -0.5102
   11SAPS   H3X 1416   4.249   6.575   3.567 -0.9371 -0.7734 -0.0023
   11SAPS   H3Y 1417   4.063   6.541   3.568 -2.2107  1.2137  2.2627
   11SAPS   C34 1418   4.137   6.630   3.739  0.2293 -0.1549  0.0953
   11SAPS   H4X 1419   4.046   6.686   3.771 -1.0684 -1.2373 -1.5447
   11SAPS   H4Y 1420   4.225   6.687   3.775  1.4979 -1.7416 -0.4141
   11SAPS   C35 1421   4.125   6.497   3.812 -0.0101 -0.1799  0.3351
   11SAPS   H5X 1422   4.222   6.444   3.798 -0.3388 -0.9537  0.9269
   11SAPS   H5Y 1423   4.049   6.438   3.758 -0.7732  0.2752  0.8960
   11SAPS   C36 1424   4.094   6.495   3.964 -0.6683  0.1006  0.2772
   11SAPS   H6X 1425   4.078   6.390   3.997 -0.1416  0.3940  1.4855
   11SAPS   H6Y 1426   3.999   6.548   3.986 -0.6297  0.4350 -0.3260
   11SAPS   C37 1427   4.194   6.569   4.054 -0.2979 -0.6518 -0.2244
   11SAPS   H7X 1428   4.165   6.676   4.056 -1.7895 -1.0550  0.3416
   11SAPS   H7Y 1429   4.295   6.558   4.007 -0.0539 -2.8111  0.7150
   11SAPS   C38 1430   4.205   6.524   4.202  0.4547  0.5824  0.4527
   11SAPS   H8X 1431   4.216   6.414   4.197  0.2760  0.4709  2.0007
   11SAPS   H8Y 1432   4.113   6.540   4.263 -0.8370 -1.7603 -0.7273
   11SAPS   C39 1433   4.337   6.560   4.267  0.6696  0.0275 -0.3199
   11SAPS   H9X 1434   4.377   6.650   4.215 -1.1572  0.9835 -0.1232
   11SAPS   H9Y 1435   4.404   6.475   4.241 -0.9492 -1.7299  1.0105
   11SAPS  C310 1436   4.328   6.568   4.419 -0.5615 -0.2855 -0.7080
   11SAPS  H10X 1437   4.291   6.473   4.464 -0.2009 -0.0142  0.1813
   11SAPS  H10Y 1438   4.252   6.640   4.455 -1.3592 -1.2874 -0.3482
   11SAPS  C311 1439   4.469   6.607   4.474 -0.7839 -0.1077  0.4360
   11SAPS  H11X 1440   4.510   6.702   4.436 -0.3625 -0.9711 -1.3580
   11SAPS  H11Y 1441   4.537   6.525   4.443  0.9282  1.2718  0.4156
   11SAPS  C312 1442   4.469   6.603   4.623  0.4581 -0.1350  0.2072
   11SAPS  H12X 1443   4.444   6.498   4.651 -2.2642  0.3638 -0.0889
   11SAPS  H12Y 1444   4.390   6.661   4.674  0.5012  0.2454 -0.1569
   11SAPS  C313 1445   4.604   6.647   4.684 -1.1066  0.3224  0.0885
   11SAPS  H13X 1446   4.585   6.634   4.792 -0.2247  0.3783  0.2538
   11SAPS  H13Y 1447   4.626   6.751   4.651 -1.2449  0.4447  0.3792
   11SAPS  C314 1448   4.731   6.564   4.642  0.2532  0.0390  0.4901
   11SAPS  H14X 1449   4.785   6.623   4.565  0.6979 -0.8330  0.1226
   11SAPS  H14Y 1450   4.701   6.479   4.577 -0.7838  1.4130 -0.9292
   11SAPS  C315 1451   4.832   6.525   4.753  0.4612 -0.3247  0.0187
   11SAPS  H15X 1452   4.800   6.431   4.803  0.4463  0.1852  1.0011
   11SAPS  H15Y 1453   4.825   6.596   4.839 -1.8801 -1.0358  0.4726
   11SAPS  C316 1454   4.969   6.513   4.704  0.0447  0.5104  0.2666
   11SAPS  H16X 1455   5.017   6.610   4.679 -0.9892  0.1698 -3.6592
   11SAPS  H16Y 1456   4.976   6.436   4.624  1.1627  0.8522  0.0132
   11SAPS  C317 1457   5.055   6.454   4.822  0.1200 -0.0329  0.6354
   11SAPS  H17X 1458   5.048   6.344   4.813 -3.5657 -0.0487  2.0334
   11SAPS  H17Y 1459   5.027   6.481   4.926  0.8947  2.1696  0.3345
   11SAPS  C318 1460   5.209   6.482   4.805  0.3029 -0.4415 -0.5815
   11SAPS  H18X 1461   5.258   6.449   4.711  1.1499 -2.1923  0.4091
   11SAPS  H18Y 1462   5.266   6.425   4.882  0.0368 -0.7640 -0.6185
   11SAPS  H18Z 1463   5.227   6.590   4.817 -0.8294 -0.3531  0.6137
   12SAPS     N 1464   3.496   6.482   2.785  0.5426 -0.2348  0.2919
   12SAPS   HN1 1465   3.411   6.436   2.823  0.3468 -0.3876 -0.3090
   12SAPS   HN2 1466   3.562   6.516   2.858  0.3053  2.3316 -0.5929
   12SAPS   HN3 1467   3.470   6.569   2.735 -1.1066 -0.4378  0.7512
   12SAPS   C12 1468   3.569   6.388   2.694  0.6638 -0.3025 -0.6504
   12SAPS  H12A 1469   3.536   6.400   2.592  0.6151 -0.3803 -0.6441
   12SAPS   C13 1470   3.717   6.428   2.698 -0.2341  0.0637 -0.1906
   12SAPS  O13A 1471   3.752   6.520   2.773 -0.3912 -0.0279 -0.2588
   12SAPS  O13B 1472   3.797   6.360   2.634  0.3453  0.3686  0.3236
   12SAPS   C11 1473   3.544   6.240   2.744 -0.6458 -0.4125 -0.2661
   12SAPS  H11A 1474   3.552   6.236   2.855  0.6033  1.2176 -0.2442
   12SAPS  H11B 1475   3.619   6.173   2.698 -0.2303 -0.5037  0.5273
   12SAPS     P 1476   3.375   6.093   2.602  0.4329  0.2512 -0.1763
   12SAPS   O13 1477   3.228   6.066   2.613 -0.5727  0.7337  0.5831
   12SAPS   O14 1478   3.426   6.148   2.472 -0.1646 -0.0513 -0.4325
   12SAPS   O12 1479   3.407   6.208   2.714 -0.2769  0.0032  0.3602
   12SAPS   O11 1480   3.466   5.972   2.649  0.2534 -0.0323  1.0770
   12SAPS    C1 1481   3.402   5.879   2.740 -0.7829  0.2672  0.0233
   12SAPS    HA 1482   3.333   5.921   2.816 -0.9210 -1.0498  0.6645
   12SAPS    HB 1483   3.343   5.801   2.688 -2.1234  0.7195  0.8047
   12SAPS    C2 1484   3.505   5.796   2.827  0.4566  0.2688  0.4883
   12SAPS    HS 1485   3.452   5.712   2.876 -0.7042  2.5825  3.4909
   12SAPS   O21 1486   3.561   5.874   2.935 -0.8833 -0.3793  0.2080
   12SAPS   C21 1487   3.487   5.896   3.042 -0.4811  0.9116 -0.3760
   12SAPS   O22 1488   3.369   5.867   3.052  0.3416 -0.1391 -0.5236
   12SAPS   C22 1489   3.572   5.980   3.146  0.6524  0.5758 -0.4922
   12SAPS   H2R 1490   3.675   5.939   3.154  0.3716  0.0042  0.4331
   12SAPS   H2S 1491   3.572   6.079   3.097 -0.5809  0.1915 -1.3177
   12SAPS    C3 1492   3.617   5.733   2.734 -0.4183 -0.1154 -0.0412
   12SAPS    HX 1493   3.667   5.823   2.694  1.3718 -0.8405  0.4820
   12SAPS    HY 1494   3.556   5.688   2.652  0.8187 -1.0093 -0.4917
   12SAPS   O31 1495   3.697   5.627   2.794 -0.1270  0.0388  0.4905
   12SAPS   C31 1496   3.804   5.652   2.847 -0.0303  0.4802 -0.0431
   12SAPS   O32 1497   3.851   5.762   2.866 -0.6292  0.5907 -0.2216
   12SAPS   C32 1498   3.877   5.521   2.886 -0.2802  0.7404  0.2142
   12SAPS   H2X 1499   3.950   5.488   2.809 -1.3471  0.0143 -0.5230
   12SAPS   H2Y 1500   3.804   5.438   2.897 -1.2041  0.9001 -3.4065
   12SAPS   C23 1501   3.499   5.996   3.284  0.7099 -0.1695  0.1522
   12SAPS   H3R 1502   3.397   6.029   3.256  0.4339 -0.5253  0.7263
   12SAPS   H3S 1503   3.537   6.083   3.342 -1.7315  1.4283 -0.5181
   12SAPS   C24 1504   3.489   5.868   3.373 -0.4464  0.1634  0.5116
   12SAPS   H4R 1505   3.590   5.829   3.400 -0.2244 -2.0982 -2.9220
   12SAPS   H4S 1506   3.436   5.797   3.306 -2.6100  1.2556  0.9909
   12SAPS   C25 1507   3.395   5.888   3.488 -0.2230 -0.0831 -0.0944
   12SAPS   H5R 1508   3.291   5.905   3.459 -0.7307 -1.7154  0.6957
   12SAPS   C26 1509   3.428   5.903   3.618 -0.5403  0.2893 -0.1212
   12SAPS   H6R 1510   3.342   5.934   3.679  0.0586  2.1777 -0.2004
   12SAPS   C27 1511   3.563   5.869   3.680 -0.5417 -0.6194 -0.3740
   12SAPS   H7R 1512   3.598   5.953   3.743 -0.2358 -1.4921  0.6463
   12SAPS   H7S 1513   3.641   5.865   3.601  0.3155 -0.1368  0.4193
   12SAPS   C28 1514   3.560   5.743   3.760  0.6962 -0.2848  0.0470
   12SAPS   H8R 1515   3.576   5.651   3.702  0.7286 -0.4205  0.2709
   12SAPS   C29 1516   3.521   5.740   3.893 -0.0557  0.7205 -0.1922
   12SAPS   H9R 1517   3.518   5.637   3.933  1.3615  0.3596 -0.9482
   12SAPS  C210 1518   3.495   5.852   3.983 -0.0609  0.5933  0.1882
   12SAPS  H10R 1519   3.412   5.908   3.937  0.7754  1.2021 -0.6186
   12SAPS  H10S 1520   3.581   5.922   3.972  1.3276 -1.0335  0.1560
   12SAPS  C211 1521   3.460   5.830   4.128  0.3638 -0.0769  0.7144
   12SAPS  H11R 1522   3.392   5.746   4.148 -2.0326  1.6061  0.1219
   12SAPS  C212 1523   3.499   5.902   4.239 -0.3260 -0.1228 -0.6022
   12SAPS  H12R 1524   3.461   5.868   4.336 -0.0801 -0.3512 -0.5851
   12SAPS  C213 1525   3.593   6.026   4.241  0.7573  1.1238  0.2497
   12SAPS  H13R 1526   3.530   6.105   4.288 -1.6482 -1.7074  2.1841
   12SAPS  H13S 1527   3.607   6.060   4.137  0.8770  1.8920  0.5095
   12SAPS  C214 1528   3.717   5.978   4.304 -0.2833 -0.1287 -0.1681
   12SAPS  H14R 1529   3.802   5.992   4.235 -1.8458 -0.4532 -2.2467
   12SAPS  C215 1530   3.741   5.949   4.435  0.3817 -0.2102  0.0379
   12SAPS  H15R 1531   3.841   5.924   4.473  0.7284  1.0926  0.0367
   12SAPS  C216 1532   3.636   5.985   4.534 -0.1409 -0.0956 -0.8496
   12SAPS  H16R 1533   3.533   5.971   4.497 -0.2091  0.8380 -1.0263
   12SAPS  H16S 1534   3.658   6.092   4.556  4.0494 -0.8470 -0.5595
   12SAPS  C217 1535   3.652   5.905   4.670  0.0790  0.2250  0.8853
   12SAPS  H17R 1536   3.662   5.796   4.654 -2.0508  0.1983 -0.6945
   12SAPS  H17S 1537   3.561   5.910   4.733 -1.2348  0.5946 -0.9644
   12SAPS  C218 1538   3.773   5.959   4.752 -0.3795  0.1544 -0.1629
   12SAPS  H18R 1539   3.837   6.029   4.694 -0.6846  0.5535 -0.0214
   12SAPS  H18S 1540   3.844   5.874   4.764 -0.5487 -0.0076 -0.3137
   12SAPS  C219 1541   3.746   6.017   4.883 -0.0621 -0.0181 -0.0951
   12SAPS  H19R 1542   3.665   6.093   4.874 -0.4264 -0.6138 -2.3508
   12SAPS  H19S 1543   3.837   6.070   4.919  0.5733 -0.7665 -0.5754
   12SAPS  C220 1544   3.699   5.914   4.983  0.4304 -0.3219  0.1115
   12SAPS  H20R 1545   3.702   5.954   5.086  0.7712  0.0389 -0.0351
   12SAPS  H20S 1546   3.769   5.827   4.980  0.6993 -0.0782 -1.2176
   12SAPS  H20T 1547   3.596   5.878   4.962  0.7284 -0.6921 -0.7926
   12SAPS   C33 1548   3.955   5.532   3.022  0.1395 -0.2560 -0.3690
   12SAPS   H3X 1549   4.011   5.628   3.023  0.8813 -0.6466 -1.7934
   12SAPS   H3Y 1550   4.029   5.450   3.032 -1.7351 -1.7247  3.9302
   12SAPS   C34 1551   3.854   5.507   3.131  0.7370  0.1475  0.8503
   12SAPS   H4X 1552   3.789   5.420   3.112 -1.2244  1.8122 -0.5194
   12SAPS   H4Y 1553   3.784   5.593   3.138  0.8260  0.3403 -0.4560
   12SAPS   C35 1554   3.918   5.492   3.270  0.9636 -0.0619 -0.4129
   12SAPS   H5X 1555   4.019   5.538   3.280  1.4354 -1.3427  1.2251
   12SAPS   H5Y 1556   3.929   5.381   3.278  0.0223 -0.2107 -1.0194
   12SAPS   C36 1557   3.822   5.518   3.390 -0.8545  0.0825 -0.2011
   12SAPS   H6X 1558   3.724   5.470   3.367 -0.6228 -0.7547  0.4700
   12SAPS   H6Y 1559   3.804   5.627   3.389  1.0657  0.4219 -0.9310
   12SAPS   C37 1560   3.895   5.472   3.517 -0.3352 -0.1918 -0.7239
   12SAPS   H7X 1561   4.005   5.484   3.524 -0.3114 -1.3498  2.4048
   12SAPS   H7Y 1562   3.887   5.362   3.527  2.0975 -0.2923  1.0624
   12SAPS   C38 1563   3.822   5.522   3.645 -0.0544  0.2556  0.5128
   12SAPS   H8X 1564   3.717   5.489   3.630  0.6342 -2.4532  1.0175
   12SAPS   H8Y 1565   3.826   5.633   3.644 -0.8626  0.2905 -0.8271
   12SAPS   C39 1566   3.884   5.455   3.771 -0.2008 -0.8116 -0.2336
   12SAPS   H9X 1567   3.995   5.462   3.759  0.0531 -0.3358  1.8512
   12SAPS   H9Y 1568   3.867   5.346   3.785  4.6565 -1.6055  1.5904
   12SAPS  C310 1569   3.836   5.519   3.897 -0.3299 -0.5516 -0.9510
   12SAPS  H10X 1570   3.729   5.498   3.915 -0.5119  0.4622 -0.7903
   12SAPS  H10Y 1571   3.852   5.629   3.890 -1.4411 -0.3797 -0.8861
   12SAPS  C311 1572   3.912   5.487   4.023  0.3853 -0.2759  0.0373
   12SAPS  H11X 1573   4.020   5.512   4.020  0.4823 -0.7327 -0.4215
   12SAPS  H11Y 1574   3.901   5.379   4.050  2.0472 -0.4053  0.3027
   12SAPS  C312 1575   3.858   5.561   4.147 -0.0562  0.3125  0.5475
   12SAPS  H12X 1576   3.747   5.557   4.147 -0.0416 -0.3724 -0.4911
   12SAPS  H12Y 1577   3.878   5.670   4.133 -1.2000  0.4776  0.0502
   12SAPS  C313 1578   3.917   5.509   4.280  0.0896 -0.8967 -0.5327
   12SAPS  H13X 1579   4.020   5.470   4.266 -0.0385 -0.7572 -1.9989
   12SAPS  H13Y 1580   3.844   5.439   4.325 -2.1828  1.1238 -0.8611
   12SAPS  C314 1581   3.935   5.625   4.381 -0.1795  0.3556  0.3684
   12SAPS  H14X 1582   3.832   5.660   4.401  0.2081  2.1367 -0.5307
   12SAPS  H14Y 1583   3.997   5.705   4.335 -0.8409  0.3540 -0.5519
   12SAPS  C315 1584   4.005   5.577   4.514 -0.3738  0.1841 -0.0720
   12SAPS  H15X 1585   4.116   5.580   4.514 -0.3337 -0.8974 -0.5307
   12SAPS  H15Y 1586   3.982   5.470   4.529 -0.1309  0.0933 -0.3435
   12SAPS  C316 1587   3.974   5.666   4.638 -0.0048 -0.2169 -0.0596
   12SAPS  H16X 1588   3.866   5.672   4.660  0.1283 -0.6315  0.7292
   12SAPS  H16Y 1589   4.002   5.766   4.598  0.2873 -0.7210 -1.1508
   12SAPS  C317 1590   4.069   5.630   4.754 -0.2833 -0.2493 -0.8590
   12SAPS  H17X 1591   4.176   5.616   4.727  0.1450  0.6868  0.2934
   12SAPS  H17Y 1592   4.038   5.531   4.794  2.6546  0.0602  2.6793
   12SAPS  C318 1593   4.062   5.730   4.870  0.0726  0.4491 -0.8725
   12SAPS  H18X 1594   3.961   5.750   4.914  0.4517  1.8179 -0.6036
   12SAPS  H18Y 1595   4.096   5.832   4.842  1.4720  0.0495 -0.6942
   12SAPS  H18Z 1596   4.102   5.681   4.962  1.2060  0.0716 -1.5579
   13SAPS     N 1597   0.428   6.151   2.636 -0.2765 -1.0717 -0.4813
   13SAPS   HN1 1598   0.417   6.102   2.727 -0.2188 -1.3110 -0.6010
   13SAPS   HN2 1599   0.443   6.251   2.659  2.1588 -1.2534 -1.0196
   13SAPS   HN3 1600   0.335   6.149   2.589 -0.3923  0.5354 -0.3734
   13SAPS   C12 1601   0.540   6.099   2.547  0.4051  0.4573  0.3721
   13SAPS  H12A 1602   0.499   6.015   2.494  0.9222  0.1073  0.5261
   13SAPS   C13 1603   0.596   6.188   2.428  0.1225  0.1573 -0.3648
   13SAPS  O13A 1604   0.551   6.305   2.406 -0.0364 -0.1811 -0.8559
   13SAPS  O13B 1605   0.666   6.133   2.340  0.1555  0.2205 -0.2206
   13SAPS   C11 1606   0.672   6.065   2.634  0.2890 -0.9281  0.6998
   13SAPS  H11A 1607   0.632   6.016   2.725  0.7719  0.7763  1.8765
   13SAPS  H11B 1608   0.718   6.164   2.653 -0.9589 -0.1141 -0.3369
   13SAPS     P 1609   0.885   5.921   2.652 -0.1167  0.0256 -0.1576
   13SAPS   O13 1610   0.997   5.883   2.562  0.5622  0.2911 -0.3815
   13SAPS   O14 1611   0.926   6.031   2.750  0.0951  0.1658  0.2184
   13SAPS   O12 1612   0.765   5.976   2.564  0.2542 -0.1146  0.4640
   13SAPS   O11 1613   0.810   5.809   2.733 -0.3002 -0.0914 -0.2567
   13SAPS    C1 1614   0.829   5.667   2.692  0.3563  0.3128  0.4815
   13SAPS    HA 1615   0.797   5.643   2.588  2.2816  2.1186 -0.6163
   13SAPS    HB 1616   0.936   5.639   2.709  0.3577 -2.3508 -2.8653
   13SAPS    C2 1617   0.749   5.579   2.793 -0.5986  0.2924  0.2696
   13SAPS    HS 1618   0.651   5.629   2.775 -0.0175  1.3371 -0.0962
   13SAPS   O21 1619   0.781   5.579   2.928  0.0949 -0.0398 -0.4373
   13SAPS   C21 1620   0.678   5.558   3.012  0.3006 -0.2123 -1.1288
   13SAPS   O22 1621   0.559   5.565   2.984  0.4865 -0.5019  0.2230
   13SAPS   C22 1622   0.744   5.523   3.151 -0.2341 -0.0639  0.0559
   13SAPS   H2R 1623   0.777   5.417   3.143 -0.1055  0.0502 -1.1246
   13SAPS   H2S 1624   0.837   5.584   3.155 -0.5661  0.5245 -0.8157
   13SAPS    C3 1625   0.735   5.437   2.726 -0.3754 -0.2598 -0.1396
   13SAPS    HX 1626   0.832   5.384   2.734  0.9748  1.9583 -1.1104
   13SAPS    HY 1627   0.707   5.445   2.619 -0.6746  3.1288  0.1084
   13SAPS   O31 1628   0.640   5.359   2.799  0.2359  0.8753  0.2499
   13SAPS   C31 1629   0.506   5.377   2.773 -0.7257 -0.1935  0.9308
   13SAPS   O32 1630   0.462   5.451   2.687  0.5733 -0.3882  0.3085
   13SAPS   C32 1631   0.427   5.279   2.859  0.1047 -0.4925  0.6488
   13SAPS   H2X 1632   0.488   5.210   2.922 -0.9675 -1.1216  1.0233
   13SAPS   H2Y 1633   0.374   5.214   2.786 -0.1346 -2.3304  2.3685
   13SAPS   C23 1634   0.648   5.551   3.274 -0.1816  0.3610  0.1349
   13SAPS   H3R 1635   0.559   5.486   3.261  0.4214 -0.4114 -0.2029
   13SAPS   H3S 1636   0.613   5.656   3.259 -0.3002  0.3729  0.4971
   13SAPS   C24 1637   0.708   5.542   3.414 -0.2369 -0.4144  0.7786
   13SAPS   H4R 1638   0.647   5.587   3.494  0.1160  1.4725  0.0456
   13SAPS   H4S 1639   0.794   5.612   3.408 -1.7291  1.3568 -1.8476
   13SAPS   C25 1640   0.765   5.401   3.440 -0.4973 -0.4802  0.5223
   13SAPS   H5R 1641   0.844   5.369   3.370 -0.9880  1.2722 -0.8994
   13SAPS   C26 1642   0.737   5.323   3.548 -0.0785 -0.6119  0.7207
   13SAPS   H6R 1643   0.790   5.226   3.550  1.1034  0.0148  1.2565
   13SAPS   C27 1644   0.633   5.361   3.644  0.4751  0.0684  0.2339
   13SAPS   H7R 1645   0.562   5.434   3.598  2.0313  1.2600 -0.3644
   13SAPS   H7S 1646   0.678   5.423   3.725 -0.4708  1.1477 -0.0336
   13SAPS   C28 1647   0.552   5.251   3.707 -0.0809 -1.3009  0.2105
   13SAPS   H8R 1648   0.459   5.238   3.649  0.5277  0.0102 -1.1198
   13SAPS   C29 1649   0.572   5.180   3.817  0.0887  0.4072 -0.1987
   13SAPS   H9R 1650   0.497   5.103   3.839 -1.3631  2.1105  1.2041
   13SAPS  C210 1651   0.691   5.173   3.912  0.5021 -0.1491  0.5158
   13SAPS  H10R 1652   0.754   5.261   3.890  0.6822 -0.3628  0.1711
   13SAPS  H10S 1653   0.749   5.083   3.881 -1.3229 -1.5710  1.0182
   13SAPS  C211 1654   0.649   5.157   4.056  0.8867  0.1372  0.4891
   13SAPS  H11R 1655   0.606   5.060   4.084 -0.3441  0.3375 -0.5990
   13SAPS  C212 1656   0.655   5.250   4.149 -0.5177  0.2780  0.0688
   13SAPS  H12R 1657   0.614   5.220   4.247  0.2070 -0.3303  0.1898
   13SAPS  C213 1658   0.697   5.398   4.135 -0.3387  0.1990  0.6963
   13SAPS  H13R 1659   0.789   5.393   4.074 -2.6123 -1.0827 -2.9030
   13SAPS  H13S 1660   0.725   5.444   4.233 -0.8601  3.1924 -0.4805
   13SAPS  C214 1661   0.595   5.486   4.069  0.6465  0.2821  0.3928
   13SAPS  H14R 1662   0.526   5.437   3.999  1.1366  0.8736 -0.5333
   13SAPS  C215 1663   0.567   5.619   4.084  0.1862  1.0593 -0.0859
   13SAPS  H15R 1664   0.492   5.672   4.023 -0.5241 -0.4046 -0.5168
   13SAPS  C216 1665   0.657   5.690   4.177 -0.8094 -0.2522 -0.8163
   13SAPS  H16R 1666   0.675   5.790   4.134  2.6269 -0.0700  0.7130
   13SAPS  H16S 1667   0.757   5.648   4.198 -0.1235  2.2099  1.3515
   13SAPS  C217 1668   0.602   5.696   4.321  0.2044  0.1193 -0.4240
   13SAPS  H17R 1669   0.585   5.597   4.368 -0.9355  0.1670 -0.7156
   13SAPS  H17S 1670   0.509   5.756   4.324  0.4869  0.5828 -0.7575
   13SAPS  C218 1671   0.700   5.777   4.402 -0.2295 -0.4531 -0.3604
   13SAPS  H18R 1672   0.693   5.878   4.355 -0.5708 -0.7900 -1.0622
   13SAPS  H18S 1673   0.799   5.732   4.383 -0.7029 -1.7331  0.1157
   13SAPS  C219 1674   0.684   5.777   4.556 -0.0976  0.5169  0.0183
   13SAPS  H19R 1675   0.688   5.674   4.596 -2.2665  0.9497  1.5218
   13SAPS  H19S 1676   0.584   5.818   4.580  0.0431  0.1121  1.3514
   13SAPS  C220 1677   0.788   5.864   4.622 -0.0332  0.5209 -0.4425
   13SAPS  H20R 1678   0.766   5.972   4.610  1.3539  1.0213  1.1710
   13SAPS  H20S 1679   0.888   5.836   4.583 -0.2105  0.2772 -0.7322
   13SAPS  H20T 1680   0.785   5.849   4.732 -0.7670  0.4129 -0.4680
   13SAPS   C33 1681   0.311   5.348   2.935 -0.4892  0.2044  0.1315
   13SAPS   H3X 1682   0.239   5.384   2.858 -1.6216  0.7312  1.4045
   13SAPS   H3Y 1683   0.346   5.441   2.985  0.2592  1.5566 -2.6696
   13SAPS   C34 1684   0.251   5.254   3.038 -0.1273  0.4740  0.3876
   13SAPS   H4X 1685   0.204   5.167   2.987 -0.6347  1.8043 -1.4999
   13SAPS   H4Y 1686   0.160   5.307   3.073  0.1101  0.9805  0.2432
   13SAPS   C35 1687   0.351   5.199   3.143  0.0168 -0.7685  0.0497
   13SAPS   H5X 1688   0.410   5.289   3.170 -1.3094  1.0872 -2.6967
   13SAPS   H5Y 1689   0.421   5.139   3.082 -0.0027 -0.9387  0.1944
   13SAPS   C36 1690   0.292   5.136   3.262 -0.5528  0.6122  0.5451
   13SAPS   H6X 1691   0.371   5.094   3.328 -0.7485 -0.4069  0.1527
   13SAPS   H6Y 1692   0.239   5.042   3.235  1.8658 -0.6410 -0.1675
   13SAPS   C37 1693   0.197   5.219   3.350 -0.0139 -0.0639  0.4394
   13SAPS   H7X 1694   0.115   5.273   3.298  0.8326  0.7136 -0.1082
   13SAPS   H7Y 1695   0.256   5.302   3.394 -1.4478  1.7101 -0.8284
   13SAPS   C38 1696   0.146   5.130   3.470 -0.1071  0.0463 -0.0991
   13SAPS   H8X 1697   0.227   5.106   3.542  1.3372  0.9281 -1.3735
   13SAPS   H8Y 1698   0.123   5.027   3.435 -2.7804 -0.0677  1.6761
   13SAPS   C39 1699   0.031   5.195   3.551 -0.4767  0.2101  0.3793
   13SAPS   H9X 1700  -0.063   5.190   3.491  0.4088  1.3190 -1.1802
   13SAPS   H9Y 1701   0.064   5.301   3.565 -1.1683  0.2724  1.6700
   13SAPS  C310 1702   0.003   5.129   3.690 -0.3508 -0.0181 -0.2268
   13SAPS  H10X 1703  -0.008   5.019   3.676  0.8227  0.1209 -2.7813
   13SAPS  H10Y 1704  -0.097   5.164   3.722 -0.2800 -1.4149  1.6901
   13SAPS  C311 1705   0.117   5.165   3.789 -0.5087  0.2040  0.1362
   13SAPS  H11X 1706   0.104   5.274   3.808  2.5312  0.4204  1.6333
   13SAPS  H11Y 1707   0.217   5.156   3.743 -1.5145  0.2017 -2.1594
   13SAPS  C312 1708   0.109   5.073   3.905 -0.0187  0.1759  0.1567
   13SAPS  H12X 1709   0.135   4.970   3.874 -1.3343 -0.1431  0.0574
   13SAPS  H12Y 1710   0.003   5.079   3.938 -0.0054 -0.8883  0.4117
   13SAPS  C313 1711   0.195   5.135   4.021 -0.1220  0.6315  0.3636
   13SAPS  H13X 1712   0.155   5.239   4.026 -2.7687 -0.1052 -2.4726
   13SAPS  H13Y 1713   0.304   5.142   4.006 -0.1797 -2.5466 -2.5671
   13SAPS  C314 1714   0.163   5.057   4.155  0.5310 -0.6114 -0.6296
   13SAPS  H14X 1715   0.215   4.959   4.160  0.2796 -0.6683  2.5114
   13SAPS  H14Y 1716   0.053   5.038   4.158  0.2565  0.9702  0.7685
   13SAPS  C315 1717   0.184   5.135   4.284 -0.2038  0.1986  0.6710
   13SAPS  H15X 1718   0.143   5.076   4.369 -0.7602 -0.3243  0.0511
   13SAPS  H15Y 1719   0.100   5.208   4.282  0.5592  1.0791 -0.1120
   13SAPS  C316 1720   0.320   5.214   4.303 -0.1125  0.2872 -0.6572
   13SAPS  H16X 1721   0.315   5.290   4.221  1.5765 -1.4891 -2.5141
   13SAPS  H16Y 1722   0.400   5.149   4.261 -0.0464  0.0807 -0.2154
   13SAPS  C317 1723   0.354   5.263   4.443 -0.2611  0.4496  0.1286
   13SAPS  H17X 1724   0.329   5.187   4.520  0.7153  1.2238  1.2517
   13SAPS  H17Y 1725   0.287   5.350   4.458  0.5372  1.1403 -0.1711
   13SAPS  C318 1726   0.497   5.310   4.464 -0.6757  0.6653 -0.0461
   13SAPS  H18X 1727   0.559   5.218   4.460 -1.7204 -0.0530 -0.1817
   13SAPS  H18Y 1728   0.500   5.336   4.572 -1.2487  0.9978 -0.1063
   13SAPS  H18Z 1729   0.539   5.388   4.396 -0.5671  1.4802  0.9440
   14SAPS     N 1730   0.123   0.372   2.624 -0.3810 -0.1541  0.3982
   14SAPS   HN1 1731   0.157   0.470   2.631 -0.0642 -0.2021 -0.3698
   14SAPS   HN2 1732   0.021   0.377   2.643 -0.1854  1.5396  1.1198
   14SAPS   HN3 1733   0.175   0.329   2.703  0.3675 -1.3067 -0.6808
   14SAPS   C12 1734   0.143   0.317   2.480  0.1526 -0.1688  0.1490
   14SAPS  H12A 1735   0.090   0.393   2.423 -0.1841 -0.3117  0.2708
   14SAPS   C13 1736   0.288   0.304   2.433 -0.0955  0.7800 -0.0334
   14SAPS  O13A 1737   0.384   0.311   2.516  0.0682 -0.0292  0.5103
   14SAPS  O13B 1738   0.306   0.254   2.316 -0.4479 -0.5455 -0.2596
   14SAPS   C11 1739   0.050   0.195   2.463  0.1259  0.4395  0.3194
   14SAPS  H11A 1740   0.105   0.108   2.505 -0.3302 -0.1651 -0.3013
   14SAPS  H11B 1741   0.041   0.171   2.355 -0.4476  0.4223  0.3669
   14SAPS     P 1742  -0.214   0.224   2.454  0.0245  0.3949 -0.2535
   14SAPS   O13 1743  -0.236   0.365   2.460  0.2949 -0.0377  0.8976
   14SAPS   O14 1744  -0.211   0.150   2.321 -0.1019  0.2358 -0.6264
   14SAPS   O12 1745  -0.080   0.203   2.529  0.3376 -0.1678  0.6853
   14SAPS   O11 1746  -0.305   0.153   2.563 -0.4770 -0.0130  0.6191
   14SAPS    C1 1747  -0.271   0.031   2.634 -0.0024 -0.8458  0.1123
   14SAPS    HA 1748  -0.317  -0.057   2.584 -2.2856 -0.6945  1.7648
   14SAPS    HB 1749  -0.161   0.023   2.643  0.1853  0.3283 -0.8576
   14SAPS    C2 1750  -0.321   0.039   2.783 -0.8459  0.1794  0.1618
   14SAPS    HS 1751  -0.276  -0.048   2.835 -1.3391 -0.0038  0.2916
   14SAPS   O21 1752  -0.462   0.038   2.785  0.6533 -0.2425  0.5677
   14SAPS   C21 1753  -0.519  -0.084   2.769 -0.1032  0.0715  0.6205
   14SAPS   O22 1754  -0.463  -0.183   2.725 -0.2368 -0.3564  0.3355
   14SAPS   C22 1755  -0.668  -0.073   2.801  0.0688  0.0193 -0.4328
   14SAPS   H2R 1756  -0.735  -0.093   2.714 -1.6073  0.9569  0.5881
   14SAPS   H2S 1757  -0.692  -0.147   2.880 -1.6054 -0.3292 -1.2266
   14SAPS    C3 1758  -0.268   0.168   2.858  0.5002  0.2635  0.1368
   14SAPS    HX 1759  -0.306   0.248   2.791 -0.7851 -2.3482 -2.4659
   14SAPS    HY 1760  -0.158   0.176   2.867  0.5818 -0.1761 -0.4250
   14SAPS   O31 1761  -0.326   0.177   2.995  0.1663  0.2579  0.1663
   14SAPS   C31 1762  -0.306   0.296   3.046  0.0056  0.4052  0.0276
   14SAPS   O32 1763  -0.252   0.388   2.988  0.2440 -0.1898  0.1807
   14SAPS   C32 1764  -0.369   0.297   3.186 -0.0433  0.1196 -0.6071
   14SAPS   H2X 1765  -0.338   0.206   3.241  0.4253 -0.1677 -1.3351
   14SAPS   H2Y 1766  -0.479   0.297   3.171 -0.5875  5.3716  1.2640
   14SAPS   C23 1767  -0.712   0.064   2.862 -0.4412 -0.0856  0.2602
   14SAPS   H3R 1768  -0.818   0.088   2.842 -0.3082 -0.5715 -1.1063
   14SAPS   H3S 1769  -0.648   0.145   2.821 -0.3820 -0.0084  0.4993
   14SAPS   C24 1770  -0.680   0.065   3.016 -0.2174  0.2279 -0.0296
   14SAPS   H4R 1771  -0.569   0.055   3.024 -0.0039  0.9910 -1.5571
   14SAPS   H4S 1772  -0.732  -0.016   3.070 -2.9550  1.4269 -0.7052
   14SAPS   C25 1773  -0.735   0.196   3.071 -0.3924 -0.3273  0.8753
   14SAPS   H5R 1774  -0.735   0.280   3.000  0.4619  0.5336  1.8582
   14SAPS   C26 1775  -0.778   0.221   3.198 -0.0385 -0.2371 -0.1973
   14SAPS   H6R 1776  -0.814   0.323   3.219  0.6990 -0.3478  1.8112
   14SAPS   C27 1777  -0.787   0.127   3.317 -0.1041  0.4349 -0.0558
   14SAPS   H7R 1778  -0.829   0.029   3.285 -1.1393  0.1413  1.9830
   14SAPS   H7S 1779  -0.858   0.170   3.392  0.7022  4.2306 -1.2510
   14SAPS   C28 1780  -0.653   0.099   3.381 -0.4579  0.0956 -0.2425
   14SAPS   H8R 1781  -0.589   0.029   3.324  0.3980 -0.6668  1.5819
   14SAPS   C29 1782  -0.604   0.124   3.510 -0.8186 -0.1605 -0.1700
   14SAPS   H9R 1783  -0.497   0.117   3.533 -1.1105 -1.0742  0.9664
   14SAPS  C210 1784  -0.675   0.203   3.619 -0.6271 -0.2165  0.2573
   14SAPS  H10R 1785  -0.743   0.279   3.577  1.1671  1.5726  0.4171
   14SAPS  H10S 1786  -0.598   0.256   3.680  0.4966 -0.3018 -1.0326
   14SAPS  C211 1787  -0.755   0.109   3.709  0.1547 -1.1556  0.2098
   14SAPS  H11R 1788  -0.857   0.097   3.669  1.0125  0.2142 -2.6075
   14SAPS  C212 1789  -0.720   0.046   3.820 -0.5289  0.1813  0.2968
   14SAPS  H12R 1790  -0.791  -0.009   3.883 -0.0840 -0.2111  0.4648
   14SAPS  C213 1791  -0.579   0.048   3.883  0.2372  0.3263  0.5283
   14SAPS  H13R 1792  -0.502   0.032   3.805  0.5360 -2.8771  1.3229
   14SAPS  H13S 1793  -0.575  -0.034   3.958 -2.7481 -1.4530 -1.0316
   14SAPS  C214 1794  -0.547   0.183   3.948 -0.2927  0.2591 -0.8036
   14SAPS  H14R 1795  -0.615   0.267   3.924 -1.5663 -0.8045 -1.0368
   14SAPS  C215 1796  -0.431   0.196   4.019  0.8111  0.5891  0.4319
   14SAPS  H15R 1797  -0.400   0.290   4.067 -1.9088  1.3883  0.8084
   14SAPS  C216 1798  -0.329   0.082   4.032  0.1499  1.1231 -0.1410
   14SAPS  H16R 1799  -0.361  -0.008   3.976 -0.1881  0.1877  1.4838
   14SAPS  H16S 1800  -0.309   0.055   4.138  3.9245 -0.1603 -1.0332
   14SAPS  C217 1801  -0.195   0.133   3.975 -0.3952 -0.3023  0.0593
   14SAPS  H17R 1802  -0.130   0.045   3.996 -0.0046 -0.2232 -0.7737
   14SAPS  H17S 1803  -0.161   0.215   4.041 -1.2253  0.1033 -0.0088
   14SAPS  C218 1804  -0.203   0.174   3.830  0.3278 -0.0440  0.1393
   14SAPS  H18R 1805  -0.259   0.270   3.828  0.2234 -0.1171 -0.8964
   14SAPS  H18S 1806  -0.267   0.112   3.764  0.6056  2.3456 -2.6060
   14SAPS  C219 1807  -0.076   0.195   3.744 -0.0230  0.4033 -0.3796
   14SAPS  H19R 1808  -0.101   0.222   3.639 -1.2984 -0.1733 -0.2405
   14SAPS  H19S 1809  -0.014   0.104   3.751  1.5711  1.3847 -1.2084
   14SAPS  C220 1810  -0.003   0.316   3.808 -0.7140 -0.5549  0.0102
   14SAPS  H20R 1811   0.102   0.318   3.771 -1.5196  1.0756 -2.5038
   14SAPS  H20S 1812  -0.022   0.327   3.917  2.3999 -1.1052  0.7225
   14SAPS  H20T 1813  -0.044   0.412   3.771 -1.6345 -0.8857  0.1627
   14SAPS   C33 1814  -0.329   0.414   3.280  0.2051  0.2218  0.1983
   14SAPS   H3X 1815  -0.350   0.509   3.227 -1.3735  0.3266  0.9786
   14SAPS   H3Y 1816  -0.222   0.395   3.303  0.4479  1.5808  0.2649
   14SAPS   C34 1817  -0.409   0.401   3.406 -0.2320 -0.1924 -0.0825
   14SAPS   H4X 1818  -0.406   0.298   3.447 -1.7630 -0.5996 -0.9203
   14SAPS   H4Y 1819  -0.515   0.425   3.382 -0.5895 -0.1066  1.4766
   14SAPS   C35 1820  -0.350   0.481   3.520  0.4367 -0.0112 -0.6765
   14SAPS   H5X 1821  -0.357   0.587   3.490 -0.7699  0.6312  1.6793
   14SAPS   H5Y 1822  -0.247   0.443   3.538  0.2103  0.5482  2.3717
   14SAPS   C36 1823  -0.396   0.463   3.668  0.0983  0.7540 -0.2445
   14SAPS   H6X 1824  -0.346   0.367   3.694 -2.0788 -0.5725 -0.6763
   14SAPS   H6Y 1825  -0.505   0.439   3.672  0.1199  0.5851 -0.6378
   14SAPS   C37 1826  -0.369   0.588   3.742  0.2838  1.0050 -0.1658
   14SAPS   H7X 1827  -0.415   0.675   3.690  3.4863  4.0010  1.6009
   14SAPS   H7Y 1828  -0.259   0.604   3.746  0.0639  3.3702 -1.1427
   14SAPS   C38 1829  -0.409   0.565   3.887 -0.0348 -0.2132  0.1380
   14SAPS   H8X 1830  -0.367   0.467   3.917  0.0135 -0.8676 -1.8868
   14SAPS   H8Y 1831  -0.518   0.550   3.903  0.0856 -2.1108 -0.5838
   14SAPS   C39 1832  -0.366   0.678   3.980  0.5574  0.4611 -0.3152
   14SAPS   H9X 1833  -0.405   0.780   3.959  1.0327  0.8891  0.7691
   14SAPS   H9Y 1834  -0.255   0.675   3.986  0.5235  1.6192  2.1120
   14SAPS  C310 1835  -0.417   0.648   4.127  0.4389  0.3913 -0.0178
   14SAPS  H10X 1836  -0.411   0.539   4.147  0.8582  0.2797 -0.7199
   14SAPS  H10Y 1837  -0.520   0.689   4.127  0.0378 -0.5645 -1.6344
   14SAPS  C311 1838  -0.333   0.723   4.234  0.4783  0.2146 -0.2104
   14SAPS  H11X 1839  -0.352   0.832   4.223  0.0264  0.0305 -1.4281
   14SAPS  H11Y 1840  -0.223   0.725   4.220  0.3849  0.1515 -1.0510
   14SAPS  C312 1841  -0.365   0.673   4.383  0.6773  1.0077  0.4089
   14SAPS  H12X 1842  -0.316   0.575   4.400  0.1937  0.4422 -1.2792
   14SAPS  H12Y 1843  -0.470   0.667   4.418  0.5720 -0.4293 -0.0918
   14SAPS  C313 1844  -0.297   0.769   4.485  0.1658  0.2322 -0.2169
   14SAPS  H13X 1845  -0.329   0.751   4.590 -0.1881 -1.0577 -0.5285
   14SAPS  H13Y 1846  -0.348   0.866   4.467 -0.0794  0.3022  0.7729
   14SAPS  C314 1847  -0.142   0.772   4.473  0.2034 -0.3240 -0.5597
   14SAPS  H14X 1848  -0.108   0.807   4.373  2.2964  2.6927  1.0335
   14SAPS  H14Y 1849  -0.116   0.665   4.476 -1.5399 -0.9865 -4.2117
   14SAPS  C315 1850  -0.070   0.851   4.582  0.0634  0.5170 -0.5684
   14SAPS  H15X 1851  -0.107   0.825   4.683 -0.5833 -0.8665 -1.1321
   14SAPS  H15Y 1852  -0.091   0.960   4.571  1.7154  0.8755 -0.4226
   14SAPS  C316 1853   0.082   0.832   4.585 -0.2821  1.0875 -0.2572
   14SAPS  H16X 1854   0.119   0.891   4.671  0.6352  0.8037 -0.4486
   14SAPS  H16Y 1855   0.128   0.864   4.489  0.6046 -0.5836 -0.4179
   14SAPS  C317 1856   0.123   0.680   4.620  0.6317 -0.1425 -0.1397
   14SAPS  H17X 1857   0.233   0.666   4.620  1.1922  3.2607  0.2824
   14SAPS  H17Y 1858   0.073   0.618   4.543 -1.7439  0.3694  0.8923
   14SAPS  C318 1859   0.077   0.643   4.763 -0.2589 -0.2396  0.3156
   14SAPS  H18X 1860   0.109   0.540   4.791  1.4579 -0.4653 -2.1181
   14SAPS  H18Y 1861  -0.033   0.650   4.767 -0.3306 -1.5368  1.6329
   14SAPS  H18Z 1862   0.103   0.719   4.840 -0.4058 -0.2924  0.4175
   15SAPS     N 1863   4.391   1.102   2.169 -0.0653 -0.0914  0.5342
   15SAPS   HN1 1864   4.302   1.087   2.116  0.1124 -1.2763  0.5594
   15SAPS   HN2 1865   4.453   1.159   2.108  3.7407 -0.5892  3.5882
   15SAPS   HN3 1866   4.429   1.006   2.175 -3.2525 -1.8803 -3.2503
   15SAPS   C12 1867   4.358   1.166   2.304  0.8684 -0.4125  0.1779
   15SAPS  H12A 1868   4.458   1.195   2.334  1.0480 -0.1298 -0.6872
   15SAPS   C13 1869   4.261   1.285   2.275  0.0902  0.7530 -0.5156
   15SAPS  O13A 1870   4.204   1.306   2.168  0.4853 -0.9979 -0.2576
   15SAPS  O13B 1871   4.250   1.366   2.371  0.1864  0.1860  0.5502
   15SAPS   C11 1872   4.302   1.061   2.404  0.0510  0.3814 -0.1133
   15SAPS  H11A 1873   4.204   1.029   2.362 -0.0161  0.9205 -0.3762
   15SAPS  H11B 1874   4.286   1.098   2.507 -0.3727 -2.1004  0.7738
   15SAPS     P 1875   4.509   0.936   2.514  0.1226 -0.0991 -0.5457
   15SAPS   O13 1876   4.619   1.029   2.480  0.5589  0.6743 -0.0573
   15SAPS   O14 1877   4.442   0.952   2.642 -0.5511 -0.3858 -0.1769
   15SAPS   O12 1878   4.388   0.943   2.407  0.9932 -0.2666  0.1294
   15SAPS   O11 1879   4.554   0.789   2.515 -0.1959  1.1659  0.1080
   15SAPS    C1 1880   4.464   0.679   2.505 -0.1171 -0.8364  0.3552
   15SAPS    HA 1881   4.397   0.696   2.418 -1.0386 -3.4256  0.4616
   15SAPS    HB 1882   4.522   0.585   2.492  3.3023  0.7483  2.6450
   15SAPS    C2 1883   4.392   0.651   2.640 -0.0471 -0.3809 -0.4471
   15SAPS    HS 1884   4.332   0.744   2.654 -1.1306 -0.9586 -1.0836
   15SAPS   O21 1885   4.489   0.629   2.746  0.2395 -0.3225 -0.4263
   15SAPS   C21 1886   4.451   0.672   2.866 -0.3462 -0.2906  0.2512
   15SAPS   O22 1887   4.342   0.716   2.892  0.1551  0.1810  0.0425
   15SAPS   C22 1888   4.559   0.636   2.970 -0.3059 -0.5038 -0.5723
   15SAPS   H2R 1889   4.640   0.573   2.928  0.0279 -0.9256  0.6446
   15SAPS   H2S 1890   4.605   0.735   2.993  2.2176 -1.2765 -1.8488
   15SAPS    C3 1891   4.293   0.541   2.635  0.1691 -0.0892  0.1823
   15SAPS    HX 1892   4.213   0.590   2.576  0.5834 -0.0832 -0.3899
   15SAPS    HY 1893   4.244   0.520   2.732  0.6912  1.6177  0.8651
   15SAPS   O31 1894   4.329   0.419   2.573  0.0712  0.3970  0.1737
   15SAPS   C31 1895   4.395   0.327   2.648 -0.1804  0.3646  0.6301
   15SAPS   O32 1896   4.413   0.344   2.767 -0.0347  0.3971  0.0938
   15SAPS   C32 1897   4.441   0.207   2.567 -0.3956  0.5614  0.8773
   15SAPS   H2X 1898   4.497   0.245   2.478  0.4045  1.2240  1.6512
   15SAPS   H2Y 1899   4.346   0.171   2.522 -0.8965 -0.9173  2.9902
   15SAPS   C23 1900   4.511   0.589   3.115 -0.7021  0.4090  0.1979
   15SAPS   H3R 1901   4.433   0.657   3.155 -1.3776  0.1763 -0.6818
   15SAPS   H3S 1902   4.601   0.584   3.180 -2.5701  1.7748  3.0632
   15SAPS   C24 1903   4.440   0.451   3.127  0.0640 -0.7148  0.1486
   15SAPS   H4R 1904   4.352   0.458   3.060  0.6912 -1.8750 -0.8247
   15SAPS   H4S 1905   4.415   0.449   3.235 -0.3093 -1.2932  0.0539
   15SAPS   C25 1906   4.519   0.324   3.106  0.1735 -0.3387 -0.2874
   15SAPS   H5R 1907   4.536   0.310   2.998  2.9245  1.7499 -0.2247
   15SAPS   C26 1908   4.568   0.229   3.191 -0.0844  0.6166  0.8583
   15SAPS   H6R 1909   4.622   0.144   3.147  2.6370  2.3560  0.5802
   15SAPS   C27 1910   4.558   0.219   3.342  0.1055 -0.1555  0.1194
   15SAPS   H7R 1911   4.503   0.308   3.380  0.5244  0.3899 -0.5233
   15SAPS   H7S 1912   4.660   0.216   3.385  0.4889 -1.5085 -0.8161
   15SAPS   C28 1913   4.484   0.092   3.378  0.1856  0.1106  0.0513
   15SAPS   H8R 1914   4.420   0.062   3.293 -0.5510  0.2055  0.5584
   15SAPS   C29 1915   4.488   0.014   3.486  1.2073 -0.2319 -0.0102
   15SAPS   H9R 1916   4.415  -0.066   3.504  0.3754  0.7912  1.3701
   15SAPS  C210 1917   4.580   0.054   3.602 -0.3234  0.0689 -0.4172
   15SAPS  H10R 1918   4.535   0.145   3.647 -2.2540 -0.8171 -0.4727
   15SAPS  H10S 1919   4.677   0.086   3.558  0.6822  0.2495  1.7780
   15SAPS  C211 1920   4.613  -0.050   3.711 -0.3244  0.1122 -0.2632
   15SAPS  H11R 1921   4.630  -0.149   3.666  2.4990  0.9190 -1.1748
   15SAPS  C212 1922   4.630  -0.044   3.844 -0.2370  0.1929 -0.1264
   15SAPS  H12R 1923   4.622  -0.131   3.912 -0.6202  1.0727  0.9904
   15SAPS  C213 1924   4.613   0.081   3.922  0.8351 -0.1666 -0.6671
   15SAPS  H13R 1925   4.555   0.153   3.860  1.1913  0.9700  0.2658
   15SAPS  H13S 1926   4.710   0.135   3.933  1.3956 -0.8693 -1.9909
   15SAPS  C214 1927   4.541   0.062   4.063 -1.0650 -0.4970  0.1534
   15SAPS  H14R 1928   4.435   0.033   4.056 -0.5605 -2.9960  1.7441
   15SAPS  C215 1929   4.585   0.079   4.190  0.1207 -0.3234 -0.7043
   15SAPS  H15R 1930   4.516   0.053   4.272 -2.5542  0.4566 -2.5604
   15SAPS  C216 1931   4.730   0.108   4.220  0.2025 -0.3974 -0.1335
   15SAPS  H16R 1932   4.774   0.184   4.153  1.8272 -0.5762  0.6627
   15SAPS  H16S 1933   4.787   0.014   4.202 -1.7542 -1.5428 -0.7335
   15SAPS  C217 1934   4.744   0.144   4.367 -0.2084 -0.5794  0.7531
   15SAPS  H17R 1935   4.851   0.167   4.385 -0.7614  1.8473  1.3328
   15SAPS  H17S 1936   4.723   0.061   4.438 -0.1151 -0.5837  0.7763
   15SAPS  C218 1937   4.667   0.267   4.413 -0.7198 -0.4032  0.2411
   15SAPS  H18R 1938   4.557   0.263   4.394 -0.5064 -0.2380 -1.1873
   15SAPS  H18S 1939   4.709   0.350   4.352  0.2722  0.2750  1.8073
   15SAPS  C219 1940   4.679   0.291   4.559 -0.4563 -0.0007 -0.6331
   15SAPS  H19R 1941   4.784   0.320   4.581 -0.5250  0.5283 -0.9849
   15SAPS  H19S 1942   4.648   0.200   4.616  2.2480 -0.7771 -0.2539
   15SAPS  C220 1943   4.595   0.410   4.605 -0.3334  0.3758  0.2266
   15SAPS  H20R 1944   4.591   0.423   4.716  0.8608 -1.2160  0.4949
   15SAPS  H20S 1945   4.493   0.392   4.564 -0.1530 -2.5951  0.8112
   15SAPS  H20T 1946   4.626   0.507   4.562  0.4667  0.8515  1.7976
   15SAPS   C33 1947   4.513   0.092   2.644 -0.1790  0.3045 -0.4169
   15SAPS   H3X 1948   4.599   0.133   2.700 -1.2833 -0.7611  2.2220
   15SAPS   H3Y 1949   4.550   0.021   2.567 -1.4481 -1.5546  0.6165
   15SAPS   C34 1950   4.433   0.020   2.753  0.1163  0.9484  0.0743
   15SAPS   H4X 1951   4.368  -0.058   2.706 -0.1727  1.6053 -0.6532
   15SAPS   H4Y 1952   4.375   0.092   2.814  1.0777  0.8897  1.0743
   15SAPS   C35 1953   4.518  -0.075   2.837  0.0943 -0.2421 -0.1227
   15SAPS   H5X 1954   4.592  -0.015   2.896 -0.2911 -0.5651  0.7055
   15SAPS   H5Y 1955   4.575  -0.144   2.770  2.1490  0.2001  1.0587
   15SAPS   C36 1956   4.433  -0.155   2.937  0.4212  0.5172 -0.0353
   15SAPS   H6X 1957   4.377  -0.234   2.882 -1.8483  2.6178 -0.9303
   15SAPS   H6Y 1958   4.350  -0.097   2.983  0.2187 -1.7513  2.7342
   15SAPS   C37 1959   4.524  -0.212   3.041  0.2620 -0.8274  0.4601
   15SAPS   H7X 1960   4.574  -0.127   3.092  2.4640 -1.5953 -0.3128
   15SAPS   H7Y 1961   4.605  -0.279   3.006 -0.2823 -1.1889 -0.1530
   15SAPS   C38 1962   4.451  -0.292   3.153 -0.2493 -0.0629 -0.5068
   15SAPS   H8X 1963   4.397  -0.380   3.113  1.3596 -2.9165  3.0141
   15SAPS   H8Y 1964   4.368  -0.232   3.198 -0.4397  0.6279 -1.7319
   15SAPS   C39 1965   4.547  -0.354   3.263 -0.0144 -0.2767  0.8174
   15SAPS   H9X 1966   4.591  -0.266   3.317  0.4362 -1.5534  2.6414
   15SAPS   H9Y 1967   4.614  -0.423   3.208 -1.1927 -0.3409 -0.5768
   15SAPS  C310 1968   4.469  -0.434   3.360 -0.0509  0.2053 -0.4481
   15SAPS  H10X 1969   4.436  -0.529   3.315 -2.0488 -0.1435  1.5726
   15SAPS  H10Y 1970   4.376  -0.377   3.378  0.6782  0.9789  1.1657
   15SAPS  C311 1971   4.544  -0.455   3.491  0.3083 -0.2747 -0.3910
   15SAPS  H11X 1972   4.582  -0.357   3.529  3.2591 -2.1187  1.8767
   15SAPS  H11Y 1973   4.630  -0.523   3.473 -1.6161 -2.3859 -2.1227
   15SAPS  C312 1974   4.453  -0.500   3.606 -0.1871  1.1459  0.6721
   15SAPS  H12X 1975   4.436  -0.609   3.595 -2.0669  1.5513 -1.0469
   15SAPS  H12Y 1976   4.361  -0.438   3.606  0.2689  1.9160  2.8012
   15SAPS  C313 1977   4.526  -0.471   3.741  0.3557 -0.3032  0.6561
   15SAPS  H13X 1978   4.544  -0.362   3.744  0.6240 -0.3297  0.1751
   15SAPS  H13Y 1979   4.627  -0.516   3.740  0.6652  0.3570 -1.0451
   15SAPS  C314 1980   4.444  -0.522   3.869 -0.1320  0.0374  0.3043
   15SAPS  H14X 1981   4.457  -0.633   3.873  2.3261  0.1515 -1.6631
   15SAPS  H14Y 1982   4.336  -0.501   3.855 -0.0204  1.2280  1.1174
   15SAPS  C315 1983   4.496  -0.446   3.994 -0.2323 -0.0938  0.1640
   15SAPS  H15X 1984   4.430  -0.481   4.076 -0.9981  1.1046  0.0803
   15SAPS  H15Y 1985   4.475  -0.337   4.000 -0.8126 -0.2734  1.9892
   15SAPS  C316 1986   4.641  -0.486   4.027  0.6861  0.1588  0.1996
   15SAPS  H16X 1987   4.711  -0.461   3.944 -0.9568  3.0980 -0.4618
   15SAPS  H16Y 1988   4.642  -0.596   4.037 -0.9836 -0.1564 -2.1643
   15SAPS  C317 1989   4.694  -0.427   4.154  0.1268 -0.1786  0.5042
   15SAPS  H17X 1990   4.792  -0.467   4.187  0.7470  0.4355 -0.5319
   15SAPS  H17Y 1991   4.629  -0.464   4.236  0.4054 -0.0369  0.7875
   15SAPS  C318 1992   4.697  -0.275   4.169  0.6595 -0.0223  0.0516
   15SAPS  H18X 1993   4.785  -0.229   4.118  0.2206  1.2343  0.3768
   15SAPS  H18Y 1994   4.715  -0.243   4.274  0.0194  0.0248  0.1535
   15SAPS  H18Z 1995   4.605  -0.226   4.129 -0.6570 -1.7331  0.8541
   16SAPS     N 1996   5.892   1.646   2.284 -0.1189  0.5840 -0.5720
   16SAPS   HN1 1997   5.844   1.640   2.193  1.7235  0.1583 -1.5696
   16SAPS   HN2 1998   5.843   1.589   2.357 -0.1484  0.3975 -0.7367
   16SAPS   HN3 1999   5.886   1.745   2.314 -0.4196  0.6430 -0.8245
   16SAPS   C12 2000   6.037   1.612   2.279  0.5011  0.9331 -0.5008
   16SAPS  H12A 2001   6.049   1.506   2.295 -0.2899  1.0346  0.9023
   16SAPS   C13 2002   6.113   1.616   2.141  0.2602 -0.3584 -0.7830
   16SAPS  O13A 2003   6.060   1.681   2.047  0.2323 -0.0293 -0.0059
   16SAPS  O13B 2004   6.214   1.554   2.125 -0.4120  0.2901  0.1892
   16SAPS   C11 2005   6.116   1.694   2.393  0.3467 -0.0834  0.1373
   16SAPS  H11A 2006   6.110   1.797   2.352 -0.9839  0.1698  0.9194
   16SAPS  H11B 2007   6.224   1.670   2.381  0.1140 -2.0323  1.5343
   16SAPS     P 2008   6.160   1.615   2.635  0.1390  0.3904 -0.1241
   16SAPS   O13 2009   6.220   1.488   2.584 -0.3714  0.2282  0.2724
   16SAPS   O14 2010   6.260   1.707   2.690  0.7112 -0.2677 -0.4477
   16SAPS   O12 2011   6.065   1.683   2.524  0.1274 -0.5762 -0.7852
   16SAPS   O11 2012   6.067   1.563   2.751 -0.2034  0.9558  0.3830
   16SAPS    C1 2013   5.928   1.603   2.760  0.0765 -0.4583 -0.1728
   16SAPS    HA 2014   5.927   1.714   2.769 -0.9833 -0.3786 -1.0161
   16SAPS    HB 2015   5.874   1.587   2.664 -1.1917  2.6030 -0.1004
   16SAPS    C2 2016   5.865   1.545   2.888  0.2985 -0.1169  0.4072
   16SAPS    HS 2017   5.761   1.581   2.902 -0.0730 -0.3926 -1.3561
   16SAPS   O21 2018   5.943   1.583   3.004 -0.2261  0.4475  0.2403
   16SAPS   C21 2019   5.955   1.714   3.029  0.4341  0.1436 -0.8765
   16SAPS   O22 2020   5.884   1.803   2.992 -0.3297 -0.3448 -0.0589
   16SAPS   C22 2021   6.084   1.749   3.109  0.3049 -0.4431  0.1280
   16SAPS   H2R 2022   6.160   1.669   3.095  0.0485 -0.7071  0.2323
   16SAPS   H2S 2023   6.120   1.843   3.062 -0.8056 -0.0087  0.1104
   16SAPS    C3 2024   5.846   1.391   2.878  0.6547  0.2949  0.6783
   16SAPS    HX 2025   5.951   1.358   2.868  1.1599  2.1833 -0.9393
   16SAPS    HY 2026   5.795   1.371   2.781 -0.5195  0.7632  1.1689
   16SAPS   O31 2027   5.764   1.338   2.984  0.2115 -0.6927 -0.1674
   16SAPS   C31 2028   5.824   1.261   3.070  0.8731 -0.3775 -0.1675
   16SAPS   O32 2029   5.943   1.251   3.094  0.8436  0.0485  0.4475
   16SAPS   C32 2030   5.712   1.195   3.149  0.4367  0.1461  0.5071
   16SAPS   H2X 2031   5.657   1.116   3.093 -0.4535 -0.3726  2.0448
   16SAPS   H2Y 2032   5.630   1.267   3.172  0.5497 -0.5587  3.3886
   16SAPS   C23 2033   6.068   1.770   3.265 -0.0950 -0.5726  0.4076
   16SAPS   H3R 2034   5.960   1.779   3.289  0.0536  1.1889  0.5163
   16SAPS   H3S 2035   6.107   1.872   3.283  1.0552 -0.8328 -0.5073
   16SAPS   C24 2036   6.129   1.653   3.349 -0.3350 -0.2570  0.2338
   16SAPS   H4R 2037   6.128   1.683   3.456  1.8349  0.6851  0.0380
   16SAPS   H4S 2038   6.236   1.652   3.322 -0.2295  3.3517 -0.0372
   16SAPS   C25 2039   6.070   1.518   3.314  0.2640  0.0615 -0.6196
   16SAPS   H5R 2040   6.063   1.501   3.206  1.1216  0.9849 -0.8357
   16SAPS   C26 2041   5.994   1.450   3.398 -0.0922 -0.1665 -0.6688
   16SAPS   H6R 2042   5.953   1.353   3.367 -0.9353 -0.4489  1.1498
   16SAPS   C27 2043   5.991   1.467   3.547 -0.6498 -0.0337 -0.0994
   16SAPS   H7R 2044   6.071   1.533   3.588  0.1958 -2.4009  2.3876
   16SAPS   H7S 2045   6.011   1.365   3.587 -0.5438  0.6146  1.5917
   16SAPS   C28 2046   5.861   1.509   3.607 -0.2741 -0.0957 -0.0828
   16SAPS   H8R 2047   5.802   1.575   3.541 -0.0943  2.8924  2.4866
   16SAPS   C29 2048   5.820   1.471   3.727 -0.8012  0.3592 -0.1801
   16SAPS   H9R 2049   5.724   1.499   3.775 -0.0729  3.4278 -0.3047
   16SAPS  C210 2050   5.900   1.375   3.814 -0.1345  0.2769  0.2692
   16SAPS  H10R 2051   5.865   1.395   3.917 -0.0281  2.9305 -0.1294
   16SAPS  H10S 2052   6.009   1.395   3.814  0.8005 -3.6480 -2.3113
   16SAPS  C211 2053   5.868   1.229   3.798  0.1521  0.4847  0.0196
   16SAPS  H11R 2054   5.761   1.209   3.782 -0.0196  1.5943 -0.2619
   16SAPS  C212 2055   5.949   1.133   3.836  0.4301  0.5026 -0.1700
   16SAPS  H12R 2056   5.911   1.030   3.849 -0.7353  0.8724 -0.5603
   16SAPS  C213 2057   6.091   1.154   3.884 -0.7302  0.7785  0.2384
   16SAPS  H13R 2058   6.096   1.231   3.963 -2.1948 -0.0514  1.1913
   16SAPS  H13S 2059   6.164   1.189   3.808  0.1254  0.6913  1.0021
   16SAPS  C214 2060   6.143   1.033   3.961 -0.2390  0.1536 -0.4169
   16SAPS  H14R 2061   6.202   0.971   3.892 -0.8503 -3.1731  1.8280
   16SAPS  C215 2062   6.122   0.994   4.091  0.0927  0.4068  0.9303
   16SAPS  H15R 2063   6.166   0.896   4.116  3.6598  0.8984 -2.5033
   16SAPS  C216 2064   6.035   1.074   4.191 -0.0237  0.1847  0.1759
   16SAPS  H16R 2065   6.014   1.177   4.154  0.4958  0.5895  0.9781
   16SAPS  H16S 2066   6.081   1.092   4.290  0.0038  1.4923 -0.0541
   16SAPS  C217 2067   5.898   1.015   4.209  0.8144 -0.6100 -0.1198
   16SAPS  H17R 2068   5.900   0.904   4.211 -2.5566 -0.7967 -0.8142
   16SAPS  H17S 2069   5.833   1.052   4.126 -0.1697 -0.6119  0.6379
   16SAPS  C218 2070   5.830   1.055   4.342 -0.5909 -0.3934  0.8024
   16SAPS  H18R 2071   5.883   1.008   4.428 -1.7552 -0.4717  1.4933
   16SAPS  H18S 2072   5.726   1.020   4.354 -1.3388  1.0691 -0.9908
   16SAPS  C219 2073   5.820   1.204   4.363 -0.0369  0.1759  0.2240
   16SAPS  H19R 2074   5.788   1.261   4.273  1.9465  1.9993  0.5748
   16SAPS  H19S 2075   5.912   1.264   4.378 -0.5347  1.4906 -1.7134
   16SAPS  C220 2076   5.736   1.251   4.481  0.6753  0.1771 -0.5766
   16SAPS  H20R 2077   5.779   1.203   4.571 -0.2053 -2.0474 -1.2726
   16SAPS  H20S 2078   5.631   1.219   4.464  0.6262  0.1935 -0.3023
   16SAPS  H20T 2079   5.731   1.361   4.497  0.3829  0.1207 -0.2616
   16SAPS   C33 2080   5.753   1.129   3.274  0.4252  0.5354  0.8583
   16SAPS   H3X 2081   5.796   1.211   3.334  0.5489  1.2766 -0.2202
   16SAPS   H3Y 2082   5.826   1.052   3.239 -1.0519 -1.3451  1.7065
   16SAPS   C34 2083   5.638   1.071   3.349 -0.0056 -0.7905 -0.1483
   16SAPS   H4X 2084   5.592   0.986   3.295 -0.8899 -0.3888 -0.0439
   16SAPS   H4Y 2085   5.563   1.151   3.368  0.1386 -0.5623 -0.5126
   16SAPS   C35 2086   5.691   1.020   3.489 -0.2106  0.1117 -0.1207
   16SAPS   H5X 2087   5.739   1.106   3.540  0.4864 -0.1065 -0.4000
   16SAPS   H5Y 2088   5.777   0.951   3.475 -0.6378 -0.3004 -0.7400
   16SAPS   C36 2089   5.578   0.959   3.572 -0.0946 -0.1747  1.0278
   16SAPS   H6X 2090   5.518   0.890   3.509  0.2591  0.7489 -0.3582
   16SAPS   H6Y 2091   5.507   1.040   3.602  0.0948  0.0203  0.9501
   16SAPS   C37 2092   5.629   0.892   3.691 -0.6923  0.1528 -0.2474
   16SAPS   H7X 2093   5.665   0.970   3.762  0.1149 -0.6671  0.2688
   16SAPS   H7Y 2094   5.715   0.831   3.654 -1.2286 -0.6775 -0.1520
   16SAPS   C38 2095   5.523   0.806   3.763 -0.0221 -0.2182 -0.7727
   16SAPS   H8X 2096   5.503   0.725   3.690 -1.5410 -0.4685 -0.1163
   16SAPS   H8Y 2097   5.431   0.856   3.798 -0.0720 -2.0129  1.9085
   16SAPS   C39 2098   5.575   0.755   3.890 -0.3229 -0.3503 -0.5992
   16SAPS   H9X 2099   5.591   0.832   3.967  1.7592 -1.0517 -0.2696
   16SAPS   H9Y 2100   5.676   0.717   3.862  0.0148  0.6862 -0.8089
   16SAPS  C310 2101   5.487   0.648   3.960  0.4604 -0.5194 -0.5721
   16SAPS  H10X 2102   5.480   0.552   3.905 -1.6342 -1.0981  0.6094
   16SAPS  H10Y 2103   5.382   0.682   3.967  1.1667  1.4637  2.5015
   16SAPS  C311 2104   5.532   0.613   4.102 -0.0505  0.1469  0.1302
   16SAPS  H11X 2105   5.512   0.697   4.172  0.2129 -0.8447  1.4334
   16SAPS  H11Y 2106   5.643   0.606   4.102 -0.1373 -1.8587  0.3576
   16SAPS  C312 2107   5.487   0.472   4.152 -0.5380 -0.5893 -0.1825
   16SAPS  H12X 2108   5.525   0.391   4.086  2.1453 -1.4004  2.1530
   16SAPS  H12Y 2109   5.377   0.468   4.165 -0.3396 -1.1012  1.7225
   16SAPS  C313 2110   5.546   0.455   4.292  0.7784  0.4201  0.2363
   16SAPS  H13X 2111   5.538   0.545   4.356  0.3317  0.4318  0.1603
   16SAPS  H13Y 2112   5.656   0.443   4.274  0.5674 -3.2477  0.5651
   16SAPS  C314 2113   5.497   0.334   4.368  0.8825 -0.8084 -0.2879
   16SAPS  H14X 2114   5.511   0.249   4.298 -0.3764  0.3363 -2.0265
   16SAPS  H14Y 2115   5.387   0.334   4.387  0.8696  2.2946  0.1835
   16SAPS  C315 2116   5.577   0.309   4.495  0.7719 -0.3578 -0.0270
   16SAPS  H15X 2117   5.573   0.401   4.556 -2.8613 -0.7466  0.5878
   16SAPS  H15Y 2118   5.679   0.268   4.476  0.4079 -0.5425 -1.7500
   16SAPS  C316 2119   5.518   0.195   4.572 -0.4569  0.0848  0.8858
   16SAPS  H16X 2120   5.525   0.110   4.501  1.8782  1.4360 -0.6465
   16SAPS  H16Y 2121   5.409   0.210   4.588 -0.7219 -1.9319  1.2977
   16SAPS  C317 2122   5.591   0.160   4.704  0.8366 -0.2290  0.1627
   16SAPS  H17X 2123   5.622   0.251   4.760  0.5672  0.7723 -1.2661
   16SAPS  H17Y 2124   5.675   0.093   4.676 -0.5507 -2.2030  0.5849
   16SAPS  C318 2125   5.503   0.076   4.802  0.2739  0.3028  0.5639
   16SAPS  H18X 2126   5.421   0.144   4.836  1.0018  0.7939  1.3838
   16SAPS  H18Y 2127   5.556   0.036   4.892  2.8696  1.0123 -0.5612
   16SAPS  H18Z 2128   5.460  -0.012   4.750  0.0941  0.0948  1.0541
   17SAPS     N 2129   2.428   1.949   2.354  0.5746  0.7758 -0.1721
   17SAPS   HN1 2130   2.400   1.882   2.428  0.5309  0.4589 -0.4751
   17SAPS   HN2 2131   2.462   2.038   2.396  0.2953  2.0131 -2.3930
   17SAPS   HN3 2132   2.338   1.961   2.303  0.3586 -1.4920 -0.4016
   17SAPS   C12 2133   2.531   1.893   2.264 -0.2376  0.2297  0.9134
   17SAPS  H12A 2134   2.489   1.824   2.192 -1.2215 -1.4504  2.9727
   17SAPS   C13 2135   2.612   2.000   2.192 -0.0531 -0.0844  0.8680
   17SAPS  O13A 2136   2.580   2.126   2.206  0.1205  0.4107 -0.3856
   17SAPS  O13B 2137   2.702   1.964   2.112 -0.0347  0.4352 -0.1981
   17SAPS   C11 2138   2.631   1.832   2.365  0.4342  0.5353 -0.0129
   17SAPS  H11A 2139   2.662   1.910   2.438  1.0600  0.1118  0.1862
   17SAPS  H11B 2140   2.720   1.802   2.305  0.1706 -3.4200  1.2578
   17SAPS     P 2141   2.674   1.631   2.520 -0.1451 -0.0360 -0.1542
   17SAPS   O13 2142   2.677   1.487   2.489  1.0267  0.1313 -0.0364
   17SAPS   O14 2143   2.804   1.699   2.528  0.3491  0.1273 -0.1188
   17SAPS   O12 2144   2.575   1.715   2.429  0.3409  0.2054 -0.2028
   17SAPS   O11 2145   2.607   1.652   2.660 -0.1701 -0.1664 -0.3187
   17SAPS    C1 2146   2.556   1.788   2.698  0.5852  0.4326  0.1808
   17SAPS    HA 2147   2.627   1.869   2.672 -0.7973  1.4123 -0.6791
   17SAPS    HB 2148   2.460   1.803   2.644 -0.2589  2.9539  2.1554
   17SAPS    C2 2149   2.536   1.797   2.851 -0.7317  0.4625  0.5458
   17SAPS    HS 2150   2.496   1.896   2.884  2.2058  1.3912  1.6982
   17SAPS   O21 2151   2.658   1.765   2.926  0.6824 -0.5289  0.3433
   17SAPS   C21 2152   2.745   1.865   2.935 -0.0391  0.3162 -1.0482
   17SAPS   O22 2153   2.741   1.972   2.874  0.1181 -0.1409 -0.6886
   17SAPS   C22 2154   2.858   1.824   3.035  0.2736  0.0306 -1.1043
   17SAPS   H2R 2155   2.916   1.744   2.985  0.0306 -1.2450  0.5483
   17SAPS   H2S 2156   2.925   1.910   3.058 -0.7533  0.0348  2.5125
   17SAPS    C3 2157   2.436   1.692   2.893  1.3821 -0.2411 -0.4160
   17SAPS    HX 2158   2.474   1.591   2.868 -0.6544 -1.6590  1.7776
   17SAPS    HY 2159   2.337   1.706   2.843  1.6898  0.6766 -0.7852
   17SAPS   O31 2160   2.410   1.694   3.037  0.1102  0.6771  0.1744
   17SAPS   C31 2161   2.458   1.595   3.116  0.3106  0.4266  0.8227
   17SAPS   O32 2162   2.542   1.514   3.078  0.8442  0.2500 -0.6916
   17SAPS   C32 2163   2.423   1.624   3.264  0.3865 -0.2881 -0.6334
   17SAPS   H2X 2164   2.318   1.597   3.286 -0.4879  0.2233 -3.6809
   17SAPS   H2Y 2165   2.424   1.735   3.272 -1.2653 -0.4099  2.7894
   17SAPS   C23 2166   2.787   1.770   3.163 -0.0511 -0.2756 -0.2871
   17SAPS   H3R 2167   2.865   1.714   3.219 -3.2375 -3.1576  1.6564
   17SAPS   H3S 2168   2.711   1.697   3.127  1.6633 -0.4833 -3.9422
   17SAPS   C24 2169   2.707   1.872   3.254 -0.5417  0.6003 -0.1398
   17SAPS   H4R 2170   2.663   1.823   3.344  2.4672  2.2346  2.3899
   17SAPS   H4S 2171   2.627   1.925   3.196  0.9581  0.3170 -2.6308
   17SAPS   C25 2172   2.804   1.970   3.299  0.2931 -0.4375 -0.5324
   17SAPS   H5R 2173   2.825   2.048   3.225 -0.0417 -0.2618 -0.4457
   17SAPS   C26 2174   2.866   1.967   3.413 -0.6723  0.0634 -0.2398
   17SAPS   H6R 2175   2.950   2.038   3.416 -0.5271 -0.1035 -0.3175
   17SAPS   C27 2176   2.850   1.881   3.529 -1.3103  0.7930 -0.1767
   17SAPS   H7R 2177   2.770   1.808   3.504 -1.0157  1.4046 -3.2662
   17SAPS   H7S 2178   2.834   1.936   3.624  1.4142 -1.9149  2.0869
   17SAPS   C28 2179   2.971   1.795   3.550 -0.5384  0.0450 -0.5698
   17SAPS   H8R 2180   3.010   1.739   3.463 -1.8228 -0.6333 -0.7328
   17SAPS   C29 2181   3.032   1.779   3.670  0.8378 -0.1461 -0.2652
   17SAPS   H9R 2182   3.116   1.708   3.672 -2.1008 -3.9270  0.6737
   17SAPS  C210 2183   2.991   1.836   3.808 -0.1279 -0.1014  0.2206
   17SAPS  H10R 2184   3.001   1.946   3.797  0.1962 -0.2100 -0.6361
   17SAPS  H10S 2185   3.071   1.807   3.880  1.1682  2.0874 -0.2609
   17SAPS  C211 2186   2.851   1.812   3.853  0.2055  0.3497 -0.6703
   17SAPS  H11R 2187   2.778   1.771   3.782 -2.3804  1.9656  0.8890
   17SAPS  C212 2188   2.805   1.845   3.974 -0.6604 -0.4711  0.2675
   17SAPS  H12R 2189   2.701   1.829   4.005 -1.0096 -0.6030 -0.9156
   17SAPS  C213 2190   2.885   1.905   4.080 -0.2016  0.2522 -0.4805
   17SAPS  H13R 2191   2.965   1.972   4.043  1.3518 -1.8200 -1.0913
   17SAPS  H13S 2192   2.944   1.822   4.126 -1.5693  0.0672  1.0457
   17SAPS  C214 2193   2.811   1.970   4.189 -0.6000 -0.8637  0.9981
   17SAPS  H14R 2194   2.780   2.071   4.159 -1.3677 -1.3626  0.0794
   17SAPS  C215 2195   2.796   1.934   4.315 -0.6392 -0.5212  0.1568
   17SAPS  H15R 2196   2.739   1.998   4.383  1.6007  0.4554  1.2432
   17SAPS  C216 2197   2.844   1.807   4.371 -0.3189  0.1782  0.9138
   17SAPS  H16R 2198   2.900   1.754   4.291  1.1674  1.8513  0.7786
   17SAPS  H16S 2199   2.759   1.737   4.383 -2.3592  1.8782 -2.1437
   17SAPS  C217 2200   2.947   1.805   4.481  0.5306 -0.5920  0.3384
   17SAPS  H17R 2201   3.012   1.894   4.466 -1.8746  1.3109  0.5468
   17SAPS  H17S 2202   3.013   1.716   4.475 -1.0540 -1.7138 -1.3943
   17SAPS  C218 2203   2.889   1.819   4.619  0.5484 -0.5481  0.2824
   17SAPS  H18R 2204   2.821   1.732   4.635  0.7269 -0.2891  2.8440
   17SAPS  H18S 2205   2.826   1.908   4.637 -2.1300 -2.2575  0.0053
   17SAPS  C219 2206   2.995   1.816   4.734 -0.0519  0.4624 -0.4448
   17SAPS  H19R 2207   2.942   1.846   4.828  1.0121  2.4786 -0.4403
   17SAPS  H19S 2208   3.070   1.892   4.704  1.4325  0.4432  2.7560
   17SAPS  C220 2209   3.081   1.689   4.753  0.6498 -0.2253 -0.0652
   17SAPS  H20R 2210   3.012   1.602   4.758  0.3199  0.0154 -0.4246
   17SAPS  H20S 2211   3.141   1.701   4.845 -1.4648  1.4110  1.1917
   17SAPS  H20T 2212   3.161   1.674   4.677  1.6148 -0.6379  0.9963
   17SAPS   C33 2213   2.513   1.554   3.353  0.0407 -0.3358 -0.7759
   17SAPS   H3X 2214   2.616   1.588   3.328  0.7174 -2.8205 -1.6507
   17SAPS   H3Y 2215   2.515   1.443   3.345  0.4538 -0.3101 -1.0590
   17SAPS   C34 2216   2.489   1.598   3.500  0.5476 -0.0326 -0.5236
   17SAPS   H4X 2217   2.383   1.598   3.535  0.3705  0.2078 -1.0537
   17SAPS   H4Y 2218   2.530   1.699   3.523  0.1090  0.5384 -2.1098
   17SAPS   C35 2219   2.564   1.515   3.616  0.1313  0.7500  0.4846
   17SAPS   H5X 2220   2.673   1.514   3.595  0.3464  0.3648  1.5221
   17SAPS   H5Y 2221   2.527   1.411   3.603 -1.4698  1.4556 -0.9678
   17SAPS   C36 2222   2.538   1.565   3.755 -0.4791  0.5092 -0.5501
   17SAPS   H6X 2223   2.432   1.551   3.786 -0.5471 -0.7326 -1.2792
   17SAPS   H6Y 2224   2.575   1.670   3.762  0.9711 -0.0222  0.1135
   17SAPS   C37 2225   2.621   1.492   3.870  0.7036  0.6152  0.6231
   17SAPS   H7X 2226   2.725   1.519   3.839  0.9017 -0.1953  0.5626
   17SAPS   H7Y 2227   2.611   1.382   3.860 -0.3639  0.7481  0.1894
   17SAPS   C38 2228   2.584   1.542   4.007 -0.2307  0.4416  0.0773
   17SAPS   H8X 2229   2.479   1.525   4.038 -0.4967  2.5608  0.4759
   17SAPS   H8Y 2230   2.593   1.652   4.002  0.8216  0.4689  1.8140
   17SAPS   C39 2231   2.669   1.491   4.121  0.2859  0.3630  0.3165
   17SAPS   H9X 2232   2.771   1.535   4.117  0.3084  1.0217  4.2253
   17SAPS   H9Y 2233   2.673   1.382   4.103 -1.6527  0.1805  0.7368
   17SAPS  C310 2234   2.617   1.517   4.259  0.1812 -0.2521 -0.8083
   17SAPS  H10X 2235   2.518   1.473   4.285 -0.5293  0.3747 -2.3078
   17SAPS  H10Y 2236   2.617   1.626   4.280 -1.3399  0.0013 -1.9126
   17SAPS  C311 2237   2.708   1.457   4.364 -0.7004 -0.3965 -0.3118
   17SAPS  H11X 2238   2.812   1.496   4.356  0.0013 -1.7894  1.4196
   17SAPS  H11Y 2239   2.709   1.347   4.348 -0.0535 -0.5551  0.7011
   17SAPS  C312 2240   2.657   1.487   4.513 -0.2985 -0.2287 -0.1691
   17SAPS  H12X 2241   2.551   1.456   4.518 -0.1188 -0.6497  2.5949
   17SAPS  H12Y 2242   2.668   1.597   4.522  0.6239 -0.2169 -1.1832
   17SAPS  C313 2243   2.740   1.424   4.639  1.0446 -0.7590 -0.4431
   17SAPS  H13X 2244   2.839   1.475   4.637  0.0485  1.3060 -0.4740
   17SAPS  H13Y 2245   2.749   1.314   4.635  1.1602 -0.7738  0.2438
   17SAPS  C314 2246   2.684   1.464   4.773  0.0169 -0.4096 -0.1667
   17SAPS  H14X 2247   2.582   1.425   4.793  0.7098 -2.0714  0.3669
   17SAPS  H14Y 2248   2.668   1.573   4.764 -0.6106 -0.5819 -1.2956
   17SAPS  C315 2249   2.779   1.448   4.897 -0.5233  0.7748 -0.4783
   17SAPS  H15X 2250   2.878   1.492   4.869 -0.4152  2.2351  1.9198
   17SAPS  H15Y 2251   2.780   1.339   4.919  0.6333  0.4776 -1.8291
   17SAPS  C316 2252   2.734   1.509   5.030  1.1343  0.1596  0.5082
   17SAPS  H16X 2253   2.819   1.513   5.101  0.9860  0.7084  0.6626
   17SAPS  H16Y 2254   2.655   1.447   5.078  0.5004 -0.5513 -1.3937
   17SAPS  C317 2255   2.661   1.648   5.014 -0.1571 -0.2202  0.3270
   17SAPS  H17X 2256   2.563   1.621   4.971  0.8590 -1.4796 -1.3219
   17SAPS  H17Y 2257   2.711   1.713   4.939 -0.9767  0.8558  0.6915
   17SAPS  C318 2258   2.645   1.723   5.148 -0.7258  0.2354  0.3892
   17SAPS  H18X 2259   2.735   1.784   5.169 -3.0654  3.6458  1.3370
   17SAPS  H18Y 2260   2.635   1.652   5.233 -1.4275  0.8876  0.8635
   17SAPS  H18Z 2261   2.547   1.776   5.146 -0.0066  1.6108 -1.8972
   18SAPS     N 2262   0.658   4.904   2.146 -0.1737  0.1143 -0.3026
   18SAPS   HN1 2263   0.737   4.929   2.209  0.6685 -1.4198 -0.7168
   18SAPS   HN2 2264   0.655   4.801   2.159 -0.5167  0.2242  0.5662
   18SAPS   HN3 2265   0.688   4.923   2.049 -0.1775  1.8644 -0.0050
   18SAPS   C12 2266   0.525   4.947   2.185 -0.1715  0.2247 -0.0457
   18SAPS  H12A 2267   0.507   5.049   2.153 -2.4367 -0.2006 -0.3448
   18SAPS   C13 2268   0.395   4.872   2.135  0.4244 -0.4792 -0.1818
   18SAPS  O13A 2269   0.407   4.787   2.042  0.7661  0.4282  0.6106
   18SAPS  O13B 2270   0.281   4.919   2.160 -0.9440 -0.4196 -0.0321
   18SAPS   C11 2271   0.518   4.956   2.343  0.6483  0.3686  0.5344
   18SAPS  H11A 2272   0.550   4.856   2.379  1.3842 -0.5251 -2.3812
   18SAPS  H11B 2273   0.412   4.961   2.376 -0.1092 -1.6905 -1.3656
   18SAPS     P 2274   0.537   5.191   2.459  0.4147  0.0472  0.1083
   18SAPS   O13 2275   0.642   5.292   2.459 -0.2210  0.3010 -0.1673
   18SAPS   O14 2276   0.408   5.227   2.397  0.1232 -0.1047  0.1581
   18SAPS   O12 2277   0.596   5.070   2.378 -0.2580 -0.0606 -0.1630
   18SAPS   O11 2278   0.519   5.119   2.605 -0.1832  0.3511 -0.1645
   18SAPS    C1 2279   0.634   5.066   2.674 -0.0346 -0.1469  0.6417
   18SAPS    HA 2280   0.726   5.066   2.611 -0.4582 -0.1494  0.0225
   18SAPS    HB 2281   0.657   5.128   2.763 -0.0756 -0.9808  1.2428
   18SAPS    C2 2282   0.609   4.917   2.727 -0.6301 -0.3076 -0.6990
   18SAPS    HS 2283   0.600   4.849   2.639  2.0457 -1.4200 -0.2242
   18SAPS   O21 2284   0.492   4.921   2.811  0.2048  0.0168  0.0621
   18SAPS   C21 2285   0.432   4.807   2.846 -0.7599  0.9890 -0.2273
   18SAPS   O22 2286   0.456   4.697   2.796  0.0496  0.5873  0.3045
   18SAPS   C22 2287   0.338   4.839   2.966  0.2791  0.4635 -0.0610
   18SAPS   H2R 2288   0.394   4.892   3.046 -0.6976 -1.1932  1.8211
   18SAPS   H2S 2289   0.253   4.896   2.922 -0.1338 -0.2430 -0.1947
   18SAPS    C3 2290   0.727   4.859   2.811 -0.0443  0.1915 -0.0649
   18SAPS    HX 2291   0.817   4.838   2.748 -0.3329  1.9303 -1.1243
   18SAPS    HY 2292   0.692   4.763   2.855  1.3645  0.2821  1.3840
   18SAPS   O31 2293   0.769   4.960   2.910 -0.1239 -0.2987  0.1699
   18SAPS   C31 2294   0.752   4.932   3.035 -0.6330  0.0637 -0.0742
   18SAPS   O32 2295   0.717   4.828   3.080 -0.5159  0.5336 -0.8977
   18SAPS   C32 2296   0.771   5.062   3.113 -0.3442 -0.2530 -0.1154
   18SAPS   H2X 2297   0.711   5.139   3.059 -1.3882 -1.3576 -0.5833
   18SAPS   H2Y 2298   0.878   5.086   3.095 -0.9751  1.0490 -2.5771
   18SAPS   C23 2299   0.274   4.711   3.028  1.0283  0.6722 -0.1131
   18SAPS   H3R 2300   0.224   4.648   2.951  0.5506  1.0999 -0.1591
   18SAPS   H3S 2301   0.191   4.742   3.094  0.4056  1.5727 -1.2671
   18SAPS   C24 2302   0.390   4.638   3.102  0.7699 -0.0212  0.0043
   18SAPS   H4R 2303   0.457   4.713   3.149  1.0508 -0.4059  0.2245
   18SAPS   H4S 2304   0.449   4.591   3.021 -0.6770 -2.4599  0.2545
   18SAPS   C25 2305   0.328   4.549   3.213 -0.4876  0.6987 -0.1305
   18SAPS   H5R 2306   0.266   4.467   3.173 -0.7798  0.8069  0.0939
   18SAPS   C26 2307   0.340   4.551   3.346  0.0499 -0.1266  0.1668
   18SAPS   H6R 2308   0.274   4.480   3.397 -1.7954 -0.6278 -2.6913
   18SAPS   C27 2309   0.417   4.657   3.425 -0.1741  0.3034 -0.2498
   18SAPS   H7R 2310   0.347   4.737   3.457 -0.9795  0.7345 -2.8865
   18SAPS   H7S 2311   0.492   4.699   3.355  0.4681  0.6586  0.6313
   18SAPS   C28 2312   0.504   4.608   3.536  0.8507 -0.7731 -0.8874
   18SAPS   H8R 2313   0.599   4.566   3.498  1.3541  0.1994 -0.7202
   18SAPS   C29 2314   0.476   4.609   3.671  0.4227  0.0501  0.2972
   18SAPS   H9R 2315   0.552   4.568   3.738 -2.0068 -4.2204  0.8064
   18SAPS  C210 2316   0.342   4.660   3.729  0.0747 -0.5000 -0.5617
   18SAPS  H10R 2317   0.266   4.626   3.655  0.0976  1.1621 -1.3903
   18SAPS  H10S 2318   0.349   4.769   3.710  0.5882 -0.7261 -1.8096
   18SAPS  C211 2319   0.309   4.627   3.871  0.1788 -0.3525 -0.7070
   18SAPS  H11R 2320   0.257   4.532   3.890  2.0723 -1.3391 -0.1707
   18SAPS  C212 2321   0.373   4.694   3.972  0.8614 -0.6034 -0.3048
   18SAPS  H12R 2322   0.350   4.670   4.077  2.4636  1.2879  0.5456
   18SAPS  C213 2323   0.459   4.819   3.969 -0.0534 -0.0409  1.2009
   18SAPS  H13R 2324   0.412   4.910   4.012  0.3884  1.5926 -1.5612
   18SAPS  H13S 2325   0.496   4.839   3.866  0.2502 -1.0635  1.0995
   18SAPS  C214 2326   0.589   4.787   4.046  0.0284  0.2374 -0.6799
   18SAPS  H14R 2327   0.675   4.775   3.978 -0.3845  0.1788 -1.1984
   18SAPS  C215 2328   0.608   4.786   4.182 -0.1599  1.0223 -0.5392
   18SAPS  H15R 2329   0.708   4.758   4.219  0.0275  2.3068 -0.0258
   18SAPS  C216 2330   0.498   4.795   4.287 -0.1150 -0.8632  0.0714
   18SAPS  H16R 2331   0.477   4.701   4.343  1.1282 -2.0802 -1.4312
   18SAPS  H16S 2332   0.405   4.819   4.231 -0.2491  0.0108  0.6507
   18SAPS  C217 2333   0.528   4.904   4.394  0.3374  0.5299  0.3085
   18SAPS  H17R 2334   0.548   4.995   4.334 -0.0038 -0.7877 -1.9286
   18SAPS  H17S 2335   0.627   4.887   4.442  1.4482 -2.2832 -2.6111
   18SAPS  C218 2336   0.427   4.931   4.499  0.0102 -0.4677 -0.4421
   18SAPS  H18R 2337   0.336   4.957   4.442 -0.7990 -3.7071 -0.8368
   18SAPS  H18S 2338   0.454   5.014   4.568  0.9506 -0.8465 -0.3363
   18SAPS  C219 2339   0.396   4.806   4.584  0.0924  0.2731  0.2921
   18SAPS  H19R 2340   0.488   4.745   4.597 -0.2554 -0.2080  0.5451
   18SAPS  H19S 2341   0.338   4.737   4.518 -0.0898 -0.2743  1.0126
   18SAPS  C220 2342   0.322   4.827   4.719 -0.3124 -0.4173 -0.5224
   18SAPS  H20R 2343   0.290   4.728   4.756  0.3905 -1.7745 -3.3252
   18SAPS  H20S 2344   0.230   4.889   4.706  0.0652  0.9197  2.3084
   18SAPS  H20T 2345   0.378   4.882   4.798 -0.3478 -2.4149  0.9600
   18SAPS   C33 2346   0.718   5.068   3.261 -0.0588  0.1988 -0.3163
   18SAPS   H3X 2347   0.632   4.998   3.270 -0.3238  0.3074 -1.7662
   18SAPS   H3Y 2348   0.688   5.173   3.277 -0.3519  0.1912 -0.8133
   18SAPS   C34 2349   0.828   5.023   3.353  0.2924 -0.1925 -0.6119
   18SAPS   H4X 2350   0.897   5.104   3.387  0.7283  0.2001 -2.3390
   18SAPS   H4Y 2351   0.889   4.949   3.297  0.1736 -0.5770 -0.2395
   18SAPS   C35 2352   0.781   4.941   3.478 -0.6827  0.3284 -0.5653
   18SAPS   H5X 2353   0.714   4.862   3.437  0.5867 -1.3628  0.4657
   18SAPS   H5Y 2354   0.732   5.011   3.548  1.6663  1.3924  0.1263
   18SAPS   C36 2355   0.901   4.876   3.553 -0.2752 -0.0806 -0.1480
   18SAPS   H6X 2356   0.962   4.819   3.480  1.3007 -1.7642  2.3246
   18SAPS   H6Y 2357   0.875   4.790   3.619 -0.8495 -0.2749 -0.6205
   18SAPS   C37 2358   0.999   4.977   3.619 -0.2381 -0.0715  0.8675
   18SAPS   H7X 2359   0.936   5.043   3.683  1.1132  0.1024  2.0554
   18SAPS   H7Y 2360   1.043   5.038   3.537  0.4769 -0.2274  1.1300
   18SAPS   C38 2361   1.121   4.925   3.692 -0.1770 -0.2657 -0.2822
   18SAPS   H8X 2362   1.194   5.007   3.710  1.9611 -1.5047 -2.7199
   18SAPS   H8Y 2363   1.173   4.845   3.635  0.0259  1.7341 -3.1233
   18SAPS   C39 2364   1.072   4.877   3.832 -0.1227  0.1714  0.7080
   18SAPS   H9X 2365   1.149   4.817   3.885  0.5820  2.0858  1.9495
   18SAPS   H9Y 2366   0.983   4.812   3.820  0.4116 -0.2331 -1.5457
   18SAPS  C310 2367   1.035   4.990   3.932 -0.3933  0.4518 -0.6667
   18SAPS  H10X 2368   0.974   5.061   3.872 -0.1364 -0.1833 -1.6968
   18SAPS  H10Y 2369   1.120   5.055   3.962 -0.5536  0.7256 -0.8019
   18SAPS  C311 2370   0.975   4.941   4.066  0.2320  0.1537 -0.1253
   18SAPS  H11X 2371   0.892   4.870   4.051  1.1581 -0.8909 -0.4697
   18SAPS  H11Y 2372   0.939   5.033   4.117 -0.2239  0.2424 -0.5967
   18SAPS  C312 2373   1.073   4.875   4.166  0.0217  0.5908  0.0380
   18SAPS  H12X 2374   1.154   4.945   4.196  0.9736 -0.5268  0.1550
   18SAPS  H12Y 2375   1.126   4.781   4.139 -0.7628 -0.3493  1.5919
   18SAPS  C313 2376   0.990   4.843   4.292  0.5153  0.8009  0.1907
   18SAPS  H13X 2377   0.928   4.753   4.273 -0.0134  1.2917 -0.4536
   18SAPS  H13Y 2378   0.924   4.926   4.325 -3.1027 -1.2057 -1.4667
   18SAPS  C314 2379   1.084   4.805   4.405  0.7622  0.4049  0.1622
   18SAPS  H14X 2380   1.144   4.892   4.441  2.8671 -1.0118  0.2131
   18SAPS  H14Y 2381   1.156   4.741   4.351 -0.4651  0.2931 -1.4166
   18SAPS  C315 2382   1.011   4.739   4.526  0.2235 -0.3829 -0.4541
   18SAPS  H15X 2383   1.086   4.706   4.601  2.0644  2.9818 -0.5952
   18SAPS  H15Y 2384   0.950   4.657   4.483  0.4012 -0.0132 -1.4283
   18SAPS  C316 2385   0.918   4.836   4.604 -0.1288  0.3480  0.4630
   18SAPS  H16X 2386   0.850   4.873   4.524  1.4767 -1.5848 -1.9554
   18SAPS  H16Y 2387   0.982   4.921   4.634  2.1171 -0.5299 -1.5133
   18SAPS  C317 2388   0.849   4.778   4.725  0.2626 -0.6819 -0.0002
   18SAPS  H17X 2389   0.919   4.760   4.810 -2.7891  2.0194  3.4396
   18SAPS  H17Y 2390   0.810   4.680   4.693  1.9071 -1.5063  0.4221
   18SAPS  C318 2391   0.736   4.872   4.786 -0.1736  0.4246 -0.5315
   18SAPS  H18X 2392   0.692   4.805   4.863 -0.7469  0.6927 -0.6212
   18SAPS  H18Y 2393   0.664   4.900   4.706  0.0772  0.3625 -0.7790
   18SAPS  H18Z 2394   0.780   4.966   4.825  0.8844 -0.2275 -0.0994
   19SAPS     N 2395   6.130   2.499   1.998 -0.1500 -0.0569 -0.0213
   19SAPS   HN1 2396   6.201   2.454   1.937  1.1791 -1.2426  2.2847
   19SAPS   HN2 2397   6.106   2.587   1.948  0.8975  0.5584  0.5190
   19SAPS   HN3 2398   6.172   2.524   2.090 -1.3093  1.1422  0.2158
   19SAPS   C12 2399   6.012   2.407   2.023 -0.4201 -0.3004 -1.2219
   19SAPS  H12A 2400   5.960   2.448   2.108  0.8623 -1.3158  0.0909
   19SAPS   C13 2401   5.915   2.399   1.905 -0.2566  0.0978 -0.1003
   19SAPS  O13A 2402   5.932   2.478   1.805  0.3106 -0.5510  0.0489
   19SAPS  O13B 2403   5.805   2.336   1.929  0.3176 -0.6457  0.0240
   19SAPS   C11 2404   6.056   2.271   2.066  0.3086  0.4701  0.8005
   19SAPS  H11A 2405   6.109   2.238   1.974 -0.6472 -0.1189  0.4436
   19SAPS  H11B 2406   5.963   2.213   2.082 -0.2640  1.2935  0.5056
   19SAPS     P 2407   6.172   2.143   2.256 -0.1011 -0.2538  0.0693
   19SAPS   O13 2408   6.081   2.035   2.211  0.1706 -0.5890  0.2730
   19SAPS   O14 2409   6.318   2.125   2.248 -0.0504 -0.3048  0.2245
   19SAPS   O12 2410   6.141   2.278   2.182  0.2742 -0.6431 -0.5801
   19SAPS   O11 2411   6.127   2.179   2.402  0.5247  0.0169  0.5307
   19SAPS    C1 2412   6.105   2.083   2.498  0.4018  0.3206  0.1798
   19SAPS    HA 2413   6.010   2.029   2.479  0.8841 -1.0892  1.4962
   19SAPS    HB 2414   6.195   2.017   2.496  1.3014  1.5018  0.2487
   19SAPS    C2 2415   6.095   2.140   2.645  1.4148  0.7261 -0.0081
   19SAPS    HS 2416   6.007   2.208   2.653 -0.6340 -1.7905  0.1225
   19SAPS   O21 2417   6.225   2.199   2.679 -0.2081  0.2607  0.2286
   19SAPS   C21 2418   6.210   2.298   2.771 -0.0328 -0.1074  0.1600
   19SAPS   O22 2419   6.111   2.332   2.833  0.3037 -0.8625  0.0974
   19SAPS   C22 2420   6.345   2.368   2.780 -0.3167 -0.1962  0.2456
   19SAPS   H2R 2421   6.430   2.298   2.769  1.1668  1.5703 -0.0106
   19SAPS   H2S 2422   6.361   2.429   2.688  0.7868 -1.0361 -0.1447
   19SAPS    C3 2423   6.064   2.022   2.743 -0.8873  0.8425 -0.1964
   19SAPS    HX 2424   6.149   1.954   2.718  0.8683  2.4313  1.1742
   19SAPS    HY 2425   5.968   1.969   2.728 -0.3136  0.0054 -1.0463
   19SAPS   O31 2426   6.076   2.053   2.882  0.0479 -0.2725 -0.1555
   19SAPS   C31 2427   5.967   2.082   2.941  0.3800  0.4861 -0.5336
   19SAPS   O32 2428   5.858   2.089   2.881 -0.0775  0.8245  0.1469
   19SAPS   C32 2429   5.997   2.121   3.090 -0.0436  0.0911 -0.4065
   19SAPS   H2X 2430   6.058   2.214   3.091 -0.2020  0.1931  1.0057
   19SAPS   H2Y 2431   6.058   2.040   3.135 -0.9096 -0.7630 -0.7422
   19SAPS   C23 2432   6.372   2.455   2.906  0.2520  0.5661 -0.2416
   19SAPS   H3R 2433   6.309   2.547   2.904 -1.4535 -0.5275 -3.1337
   19SAPS   H3S 2434   6.465   2.517   2.902 -1.8467  4.1099  0.9958
   19SAPS   C24 2435   6.378   2.383   3.041 -0.5056 -0.3209  0.0409
   19SAPS   H4R 2436   6.285   2.323   3.047 -1.7007  1.5011  0.9242
   19SAPS   H4S 2437   6.384   2.453   3.128 -0.7775 -1.2090  0.7875
   19SAPS   C25 2438   6.486   2.285   3.048 -0.7160 -0.4337 -0.0805
   19SAPS   H5R 2439   6.563   2.321   2.979 -2.1957  0.6676 -1.2400
   19SAPS   C26 2440   6.505   2.175   3.125  0.7086  0.4228  0.0349
   19SAPS   H6R 2441   6.598   2.116   3.126 -1.3604 -3.0793  0.8898
   19SAPS   C27 2442   6.402   2.124   3.213 -0.1220 -0.0954  0.5105
   19SAPS   H7R 2443   6.301   2.137   3.168  0.0778 -0.3271 -0.0142
   19SAPS   H7S 2444   6.388   2.179   3.309 -2.1384  1.9997 -0.8532
   19SAPS   C28 2445   6.425   1.973   3.235 -1.0486  0.4132  0.5067
   19SAPS   H8R 2446   6.434   1.911   3.145 -0.9293 -2.0108  2.0900
   19SAPS   C29 2447   6.448   1.911   3.354 -0.0493 -0.1797 -0.2411
   19SAPS   H9R 2448   6.453   1.802   3.350 -1.4437 -0.2390 -1.5761
   19SAPS  C210 2449   6.435   1.972   3.492 -0.3324 -0.0267  0.4739
   19SAPS  H10R 2450   6.440   2.083   3.480 -2.8734  0.3747  2.2892
   19SAPS  H10S 2451   6.529   1.959   3.549 -0.1682  2.6775  0.9837
   19SAPS  C211 2452   6.320   1.932   3.576  0.1461 -0.3550 -0.1972
   19SAPS  H11R 2453   6.227   1.913   3.520  0.1223 -0.7044 -0.0431
   19SAPS  C212 2454   6.313   1.911   3.711  0.6961  0.6796  0.5086
   19SAPS  H12R 2455   6.219   1.869   3.749  0.1235 -0.5862 -2.0917
   19SAPS  C213 2456   6.415   1.932   3.822  0.1894 -0.1060  0.0977
   19SAPS  H13R 2457   6.503   1.979   3.773 -0.5025 -1.2751 -2.4205
   19SAPS  H13S 2458   6.464   1.839   3.857  1.8904  0.6074 -0.2567
   19SAPS  C214 2459   6.377   2.023   3.937  0.1755  0.7184  0.4270
   19SAPS  H14R 2460   6.312   2.107   3.908 -0.9033  0.0559  0.9000
   19SAPS  C215 2461   6.396   2.016   4.068  0.2784 -0.7191 -0.2251
   19SAPS  H15R 2462   6.358   2.100   4.127 -2.4647 -1.0319 -1.3954
   19SAPS  C216 2463   6.464   1.908   4.141 -0.4598  0.4234  0.3738
   19SAPS  H16R 2464   6.557   1.947   4.188 -1.0866  1.9505  0.4167
   19SAPS  H16S 2465   6.496   1.819   4.083  0.0632  0.7657  0.1375
   19SAPS  C217 2466   6.376   1.854   4.259  0.5123 -0.0228  0.4612
   19SAPS  H17R 2467   6.316   1.936   4.303  0.6605 -0.7360  2.0499
   19SAPS  H17S 2468   6.442   1.819   4.341 -0.9038 -3.0931  0.4272
   19SAPS  C218 2469   6.280   1.742   4.223  0.4559 -0.2490 -0.0675
   19SAPS  H18R 2470   6.339   1.648   4.212  1.6104  0.1391  2.1563
   19SAPS  H18S 2471   6.230   1.757   4.125 -1.6073  2.7289  1.3003
   19SAPS  C219 2472   6.165   1.722   4.322  0.3909 -0.4286 -0.1314
   19SAPS  H19R 2473   6.085   1.658   4.277 -0.3852 -1.2822  2.2630
   19SAPS  H19S 2474   6.117   1.821   4.338  0.2756 -0.7732  2.0155
   19SAPS  C220 2475   6.193   1.650   4.459  0.3981 -0.8519 -0.8269
   19SAPS  H20R 2476   6.236   1.548   4.466 -0.6696 -1.2540  0.2599
   19SAPS  H20S 2477   6.099   1.655   4.518  1.5537  1.6163  0.9841
   19SAPS  H20T 2478   6.260   1.716   4.519  2.0597 -1.1628 -2.2613
   19SAPS   C33 2479   5.865   2.152   3.165  0.0164  0.0941 -0.0232
   19SAPS   H3X 2480   5.806   2.212   3.092  0.6835  2.1868  1.0623
   19SAPS   H3Y 2481   5.883   2.213   3.256  2.7152 -2.3594  1.2471
   19SAPS   C34 2482   5.788   2.025   3.211  0.0305 -0.8502  0.0320
   19SAPS   H4X 2483   5.860   1.949   3.247  1.3952 -0.3076 -1.4564
   19SAPS   H4Y 2484   5.725   1.987   3.128  1.4721 -2.1533 -0.5140
   19SAPS   C35 2485   5.701   2.054   3.330  0.3123  0.5063  0.7666
   19SAPS   H5X 2486   5.608   2.109   3.304  1.5885  1.4359 -2.2161
   19SAPS   H5Y 2487   5.754   2.115   3.406  4.1961 -2.1255  0.4512
   19SAPS   C36 2488   5.659   1.921   3.390 -0.6592  0.0471 -0.5297
   19SAPS   H6X 2489   5.744   1.850   3.399 -0.1200  0.6341 -0.8718
   19SAPS   H6Y 2490   5.579   1.882   3.324 -2.4809  0.4273  1.3865
   19SAPS   C37 2491   5.584   1.926   3.525  0.4613 -0.1695 -0.1755
   19SAPS   H7X 2492   5.518   2.015   3.516 -0.1819 -0.6063  0.2247
   19SAPS   H7Y 2493   5.660   1.953   3.602 -1.1630  0.4285  1.2649
   19SAPS   C38 2494   5.499   1.810   3.561 -0.7188 -0.5110  0.1898
   19SAPS   H8X 2495   5.566   1.735   3.609  0.5568  0.4864  0.0253
   19SAPS   H8Y 2496   5.459   1.763   3.469 -0.3033 -0.7694  0.1376
   19SAPS   C39 2497   5.389   1.844   3.659  0.2377 -0.0155 -0.4906
   19SAPS   H9X 2498   5.307   1.771   3.645 -0.7134  0.6639  1.1844
   19SAPS   H9Y 2499   5.344   1.946   3.651  0.4620  0.0041 -1.6332
   19SAPS  C310 2500   5.436   1.825   3.808 -0.1370  0.1113  0.3023
   19SAPS  H10X 2501   5.524   1.885   3.841  1.3144  0.2355 -3.3207
   19SAPS  H10Y 2502   5.461   1.716   3.811 -0.2961  0.0953  1.6772
   19SAPS  C311 2503   5.311   1.869   3.890  0.7180  0.1634  0.0181
   19SAPS  H11X 2504   5.216   1.820   3.860  0.5087 -0.6398  1.8163
   19SAPS  H11Y 2505   5.295   1.978   3.876 -2.2720 -0.2095 -0.2119
   19SAPS  C312 2506   5.334   1.858   4.038  0.7691 -0.1957 -0.4574
   19SAPS  H12X 2507   5.422   1.917   4.074  0.9410  0.2015 -1.4992
   19SAPS  H12Y 2508   5.351   1.751   4.064 -0.1185  0.0883  1.4453
   19SAPS  C313 2509   5.216   1.924   4.116 -0.0369  0.0874 -0.4172
   19SAPS  H13X 2510   5.127   1.874   4.072 -0.7787  1.9286 -1.1051
   19SAPS  H13Y 2511   5.221   2.027   4.073  0.2530  1.3735  2.4291
   19SAPS  C314 2512   5.218   1.918   4.270  0.5802  0.4218 -0.2836
   19SAPS  H14X 2513   5.314   1.962   4.306  1.3123 -2.6783  2.0134
   19SAPS  H14Y 2514   5.210   1.810   4.296 -0.4063  0.3521 -0.8246
   19SAPS  C315 2515   5.100   1.988   4.330 -0.2670  1.0043  0.3153
   19SAPS  H15X 2516   5.011   1.964   4.269 -1.9872  1.6127  2.4608
   19SAPS  H15Y 2517   5.113   2.096   4.303  0.1644  0.3421 -2.5532
   19SAPS  C316 2518   5.067   1.952   4.472  0.2054  0.3730  0.4735
   19SAPS  H16X 2519   5.160   1.987   4.522  0.4458  0.6286 -0.1455
   19SAPS  H16Y 2520   5.046   1.846   4.495 -1.1543  1.1723  3.5102
   19SAPS  C317 2521   4.962   2.046   4.526  0.1057 -0.3550  0.0535
   19SAPS  H17X 2522   4.978   2.147   4.484  0.6201  0.2938  1.7343
   19SAPS  H17Y 2523   4.974   2.055   4.636  0.4163 -1.4518  0.1305
   19SAPS  C318 2524   4.817   2.005   4.498 -0.6640  0.3916 -0.3249
   19SAPS  H18X 2525   4.805   2.004   4.388  1.1489  1.1476 -0.5589
   19SAPS  H18Y 2526   4.754   2.081   4.549 -0.0668  0.8693 -0.2908
   19SAPS  H18Z 2527   4.799   1.904   4.540 -0.1260 -0.6057 -2.3458
   20SAPS     N 2528   6.059   4.095   2.446  0.4040 -0.6760 -0.5831
   20SAPS   HN1 2529   5.976   4.132   2.497  0.8759 -0.5449  0.1122
   20SAPS   HN2 2530   6.123   4.037   2.505 -1.1979 -0.2415  1.7348
   20SAPS   HN3 2531   6.124   4.172   2.420  0.7673 -0.6674  0.2844
   20SAPS   C12 2532   6.010   4.009   2.333 -0.3646 -0.7133  0.4699
   20SAPS  H12A 2533   5.903   4.022   2.326 -0.4845 -2.3821 -2.5291
   20SAPS   C13 2534   6.068   4.052   2.199 -0.6788  0.0571 -0.2339
   20SAPS  O13A 2535   6.173   4.123   2.199 -0.6856 -0.0817  0.0249
   20SAPS  O13B 2536   6.020   4.008   2.094 -0.1943 -0.4411 -0.3149
   20SAPS   C11 2537   6.035   3.853   2.351 -0.6785 -0.7811  0.1006
   20SAPS  H11A 2538   6.145   3.839   2.341 -0.5666  0.7486 -1.2577
   20SAPS  H11B 2539   5.981   3.802   2.268  1.3409 -1.9842 -0.5592
   20SAPS     P 2540   5.987   3.656   2.514  0.0365  0.2252 -0.0137
   20SAPS   O13 2541   5.889   3.580   2.433 -0.2448 -0.4197 -0.0918
   20SAPS   O14 2542   6.124   3.601   2.506 -0.0897 -0.4370 -0.4897
   20SAPS   O12 2543   5.983   3.808   2.468  0.4151  0.0783 -0.0127
   20SAPS   O11 2544   5.946   3.658   2.661 -0.0803  0.3938 -0.4316
   20SAPS    C1 2545   5.961   3.766   2.756 -0.0247  0.1398  0.0959
   20SAPS    HA 2546   5.991   3.856   2.699 -1.2903 -0.1247 -1.0470
   20SAPS    HB 2547   5.865   3.783   2.809  0.6191 -1.4940  1.8735
   20SAPS    C2 2548   6.074   3.745   2.854  0.1684  0.5098 -0.0986
   20SAPS    HS 2549   6.167   3.731   2.795 -1.4348  0.3561 -2.7346
   20SAPS   O21 2550   6.048   3.622   2.930  0.7924  0.1007 -0.2968
   20SAPS   C21 2551   6.149   3.587   2.997 -0.3611  0.1480 -0.9244
   20SAPS   O22 2552   6.254   3.649   3.013 -0.1382  0.0798 -0.5055
   20SAPS   C22 2553   6.122   3.449   3.056 -0.0288  0.3922 -0.1885
   20SAPS   H2R 2554   6.145   3.379   2.972 -1.6881  0.2216 -0.5399
   20SAPS   H2S 2555   6.192   3.437   3.141 -0.5393 -1.0401  0.0425
   20SAPS    C3 2556   6.079   3.872   2.938 -0.2176 -0.3038 -0.2826
   20SAPS    HX 2557   6.063   3.958   2.869 -0.6876  0.7428  1.0921
   20SAPS    HY 2558   6.180   3.879   2.983 -1.9701  1.0484  3.8932
   20SAPS   O31 2559   5.978   3.879   3.039  0.5114  0.1092 -0.3012
   20SAPS   C31 2560   5.963   3.993   3.100  0.4918  0.0219 -0.2286
   20SAPS   O32 2561   6.014   4.098   3.070  0.2528  0.3085  0.0173
   20SAPS   C32 2562   5.885   3.975   3.230  0.2901 -0.8110 -0.3306
   20SAPS   H2X 2563   5.960   3.939   3.304  1.2390 -0.6588 -1.1942
   20SAPS   H2Y 2564   5.810   3.894   3.215 -0.7171 -0.3716  1.9626
   20SAPS   C23 2565   5.976   3.436   3.111  0.3933 -0.7555 -0.9733
   20SAPS   H3R 2566   5.940   3.332   3.094  0.0938 -0.8285  0.0275
   20SAPS   H3S 2567   5.899   3.501   3.064  1.7538 -0.4745 -2.9552
   20SAPS   C24 2568   5.955   3.457   3.263 -0.8951  0.5921  0.3388
   20SAPS   H4R 2569   6.013   3.381   3.320  1.0930 -1.0290 -3.4877
   20SAPS   H4S 2570   5.848   3.431   3.275 -0.9042 -0.6061 -1.7860
   20SAPS   C25 2571   5.982   3.601   3.303 -0.3565  1.4472  1.2124
   20SAPS   H5R 2572   5.926   3.673   3.240 -1.3535 -1.0765 -0.9703
   20SAPS   C26 2573   6.073   3.638   3.396 -0.1536  0.2210  0.0360
   20SAPS   H6R 2574   6.078   3.745   3.422 -3.3646  0.1359  1.5465
   20SAPS   C27 2575   6.156   3.551   3.493 -0.0172 -0.0373 -0.1149
   20SAPS   H7R 2576   6.196   3.622   3.569 -1.0629  2.7023 -1.9553
   20SAPS   H7S 2577   6.247   3.505   3.448 -1.2892 -0.5229 -2.3234
   20SAPS   C28 2578   6.072   3.443   3.562 -0.6361 -0.8584 -0.2530
   20SAPS   H8R 2579   5.968   3.443   3.526 -0.9487  3.5047  0.0553
   20SAPS   C29 2580   6.126   3.349   3.643  0.4482 -0.0417 -0.9941
   20SAPS   H9R 2581   6.058   3.277   3.689  0.1893  0.1695 -1.0433
   20SAPS  C210 2582   6.266   3.323   3.692 -0.5509 -0.2915 -0.1662
   20SAPS  H10R 2583   6.328   3.400   3.642 -0.5838 -0.0784  0.1209
   20SAPS  H10S 2584   6.314   3.226   3.669  2.3353  0.3239  2.5361
   20SAPS  C211 2585   6.295   3.348   3.840  0.5882  0.4173 -0.4668
   20SAPS  H11R 2586   6.234   3.420   3.896 -0.8274 -1.2603  0.2199
   20SAPS  C212 2587   6.388   3.286   3.917  0.4186  0.4068  0.4561
   20SAPS  H12R 2588   6.399   3.323   4.020 -2.1723  2.8309 -0.0204
   20SAPS  C213 2589   6.485   3.180   3.863  0.1090  0.3192  0.0930
   20SAPS  H13R 2590   6.552   3.232   3.791 -0.0379  1.6486  0.8801
   20SAPS  H13S 2591   6.429   3.098   3.813  1.3426 -0.9607  0.7536
   20SAPS  C214 2592   6.576   3.122   3.973  0.1142 -0.1038  0.3976
   20SAPS  H14R 2593   6.670   3.175   3.994 -0.7799  2.7906 -2.2242
   20SAPS  C215 2594   6.556   3.014   4.040 -0.1662  0.5373  0.6280
   20SAPS  H15R 2595   6.635   2.979   4.108  0.6047 -2.2368 -1.4869
   20SAPS  C216 2596   6.445   2.913   4.010 -0.1408  0.3052  0.2637
   20SAPS  H16R 2597   6.470   2.811   4.049  0.2563  0.5630  0.6949
   20SAPS  H16S 2598   6.436   2.892   3.901 -3.9457  0.9037  0.3382
   20SAPS  C217 2599   6.311   2.946   4.070 -0.5260 -0.8560  0.2021
   20SAPS  H17R 2600   6.235   2.925   3.992  2.1280 -0.3319 -2.7599
   20SAPS  H17S 2601   6.296   3.055   4.085  2.8909 -0.0859 -0.9251
   20SAPS  C218 2602   6.286   2.864   4.199  0.6207 -0.0938  0.5469
   20SAPS  H18R 2603   6.362   2.887   4.276  1.0135  0.3040  0.0474
   20SAPS  H18S 2604   6.302   2.758   4.168  1.1276  0.5414 -1.5164
   20SAPS  C219 2605   6.141   2.877   4.252  0.1507  0.7956 -0.7080
   20SAPS  H19R 2606   6.068   2.869   4.169 -0.4197 -1.1135 -0.0567
   20SAPS  H19S 2607   6.136   2.982   4.289 -0.8579  0.7725 -0.7534
   20SAPS  C220 2608   6.115   2.783   4.372  0.0118 -0.1044 -0.3920
   20SAPS  H20R 2609   6.101   2.677   4.341 -0.8394  0.3626 -1.6911
   20SAPS  H20S 2610   6.023   2.815   4.427  0.3188  0.3473 -0.1301
   20SAPS  H20T 2611   6.199   2.789   4.445 -0.4876 -0.3968  0.2124
   20SAPS   C33 2612   5.826   4.100   3.292  0.4195 -0.2139 -0.5980
   20SAPS   H3X 2613   5.719   4.100   3.261 -0.2690 -3.0342  1.3569
   20SAPS   H3Y 2614   5.874   4.190   3.247  0.6085 -0.0540 -0.0811
   20SAPS   C34 2615   5.820   4.105   3.446 -0.1436 -0.4326 -0.0777
   20SAPS   H4X 2616   5.739   4.039   3.485 -2.3761  1.8176 -0.6171
   20SAPS   H4Y 2617   5.792   4.206   3.483  1.3174 -0.0908  0.1743
   20SAPS   C35 2618   5.953   4.087   3.522 -0.5159 -0.4356  1.0145
   20SAPS   H5X 2619   6.029   4.166   3.501 -1.0462  0.0754  0.9903
   20SAPS   H5Y 2620   5.988   3.983   3.508  0.7618  0.0308  0.6270
   20SAPS   C36 2621   5.953   4.111   3.673 -0.2132  0.5615  0.5126
   20SAPS   H6X 2622   5.892   4.034   3.723 -1.4992  2.8235  2.6513
   20SAPS   H6Y 2623   5.901   4.204   3.704  0.9003  0.7046  2.1224
   20SAPS   C37 2624   6.094   4.100   3.748 -0.3910  0.3954  0.1276
   20SAPS   H7X 2625   6.169   4.172   3.708  0.2489 -0.8096 -0.8899
   20SAPS   H7Y 2626   6.143   4.001   3.735 -1.1668  0.1555 -1.1845
   20SAPS   C38 2627   6.083   4.131   3.891  0.1563 -0.2060 -0.1519
   20SAPS   H8X 2628   5.995   4.076   3.929  0.3766 -2.5227 -2.6758
   20SAPS   H8Y 2629   6.055   4.237   3.908  0.8513 -0.4042  2.8558
   20SAPS   C39 2630   6.211   4.102   3.984  0.0482  0.3008 -0.1219
   20SAPS   H9X 2631   6.287   4.165   3.933 -0.4569  1.8504  0.9629
   20SAPS   H9Y 2632   6.229   3.994   3.967  0.3197  0.0855  1.4127
   20SAPS  C310 2633   6.195   4.121   4.136  0.8477 -0.0580  0.2231
   20SAPS  H10X 2634   6.098   4.077   4.170 -0.0457  1.1266 -0.7008
   20SAPS  H10Y 2635   6.191   4.232   4.142 -0.2492 -0.0840  0.1395
   20SAPS  C311 2636   6.322   4.068   4.207  0.7246  1.3373  0.1509
   20SAPS  H11X 2637   6.316   4.111   4.310 -1.2944 -2.4593  1.8315
   20SAPS  H11Y 2638   6.421   4.090   4.161  1.2570 -2.1194 -0.6598
   20SAPS  C312 2639   6.324   3.919   4.225 -0.8525  0.8874  0.7831
   20SAPS  H12X 2640   6.330   3.865   4.128 -0.4242  1.7951  0.2948
   20SAPS  H12Y 2641   6.235   3.876   4.275 -0.8753  0.7751  0.6478
   20SAPS  C313 2642   6.440   3.877   4.311  0.0166 -0.7404  0.0165
   20SAPS  H13X 2643   6.451   3.955   4.389 -2.5089 -0.2470 -0.0275
   20SAPS  H13Y 2644   6.531   3.885   4.247 -1.3393 -1.6344 -2.1439
   20SAPS  C314 2645   6.430   3.741   4.373 -0.6902  0.1447 -0.1728
   20SAPS  H14X 2646   6.525   3.724   4.428  0.5744  4.0227 -0.8249
   20SAPS  H14Y 2647   6.402   3.665   4.298 -2.2072  2.5424 -2.2171
   20SAPS  C315 2648   6.326   3.732   4.493  0.4057  0.0568 -0.0261
   20SAPS  H15X 2649   6.288   3.628   4.503 -0.0593  0.3129  0.9470
   20SAPS  H15Y 2650   6.238   3.799   4.477 -0.4750 -1.1353 -0.2848
   20SAPS  C316 2651   6.383   3.764   4.631 -0.0314  0.0139 -0.0499
   20SAPS  H16X 2652   6.429   3.865   4.632 -3.2156  1.5719  0.2802
   20SAPS  H16Y 2653   6.458   3.691   4.668  1.9500  2.3049  0.7051
   20SAPS  C317 2654   6.270   3.770   4.731 -0.1492 -0.2244  0.1669
   20SAPS  H17X 2655   6.209   3.678   4.723  0.5537 -0.5061 -3.0634
   20SAPS  H17Y 2656   6.193   3.847   4.708  0.0037 -0.1465 -0.0904
   20SAPS  C318 2657   6.298   3.777   4.877 -0.1726 -0.1527 -0.3931
   20SAPS  H18X 2658   6.352   3.689   4.917 -2.4646 -0.7725  1.5780
   20SAPS  H18Y 2659   6.205   3.779   4.938 -1.3675 -1.2570 -2.0974
   20SAPS  H18Z 2660   6.345   3.877   4.890 -1.8707  0.8052 -1.2602
   21CHL1    C3 2661   3.080   4.619   6.181 -0.3292  0.0925 -0.4309
   21CHL1    H3 2662   3.023   4.714   6.169 -0.7535 -0.0670  0.2491
   21CHL1    O3 2663   3.070   4.581   6.318 -0.2045 -0.1287 -0.1943
   21CHL1   H3' 2664   3.134   4.510   6.330 -1.2482 -1.2927 -1.1473
   21CHL1    C4 2665   2.996   4.514   6.117 -0.2761  0.5043 -0.2869
   21CHL1   H4A 2666   3.023   4.413   6.152 -0.8779  0.4945  0.1592
   21CHL1   H4B 2667   2.889   4.528   6.145  0.0807  1.6737  0.5512
   21CHL1    C5 2668   3.001   4.525   5.960 -0.2422  0.2186  0.6354
   21CHL1    C6 2669   2.887   4.539   5.880  0.4447  0.0248  0.8234
   21CHL1    H6 2670   2.785   4.542   5.921 -0.6332  0.2820 -1.6965
   21CHL1    C7 2671   2.886   4.568   5.729  0.5748 -0.3713  0.2887
   21CHL1   H7A 2672   2.806   4.510   5.677  0.4327 -0.8521  1.0310
   21CHL1   H7B 2673   2.869   4.677   5.713  0.9461 -0.3156  0.2596
   21CHL1    C8 2674   3.021   4.521   5.675 -0.7280 -0.8846 -0.4611
   21CHL1    H8 2675   3.016   4.410   5.687 -2.3947 -0.7010  0.9984
   21CHL1   C14 2676   3.034   4.573   5.527 -0.4096  0.2410 -0.4806
   21CHL1   H14 2677   3.052   4.683   5.534  0.0399  0.1518 -0.1721
   21CHL1   C15 2678   2.920   4.556   5.428 -0.4193 -0.3305  0.2407
   21CHL1  H15A 2679   2.857   4.465   5.441  0.4613 -1.0711 -0.4807
   21CHL1  H15B 2680   2.852   4.643   5.424  1.1114  0.8670 -0.8275
   21CHL1   C16 2681   2.991   4.540   5.287 -1.2960 -0.1079  0.5283
   21CHL1  H16A 2682   2.987   4.432   5.261  1.2281 -0.7341  2.3000
   21CHL1  H16B 2683   2.943   4.602   5.208  2.2260  0.6689 -1.2174
   21CHL1   C17 2684   3.143   4.569   5.312 -0.7051  0.4324  0.0090
   21CHL1   H17 2685   3.160   4.679   5.313  4.4212 -0.0009  3.8333
   21CHL1   C13 2686   3.162   4.515   5.455 -0.0112 -0.3324 -0.1143
   21CHL1   C18 2687   3.165   4.362   5.463 -0.8655  0.6991 -0.0094
   21CHL1  H18A 2688   3.258   4.319   5.419 -0.6731  0.6989  0.3938
   21CHL1  H18B 2689   3.168   4.317   5.565  1.2422  3.6950  1.4229
   21CHL1  H18C 2690   3.083   4.319   5.403 -1.6611 -1.3127  2.3263
   21CHL1   C12 2691   3.284   4.577   5.533  0.5824 -0.5723  0.8786
   21CHL1  H12A 2692   3.380   4.545   5.486  0.6396  2.8830 -1.7513
   21CHL1  H12B 2693   3.291   4.687   5.545  4.4187 -0.7460  1.7926
   21CHL1   C11 2694   3.281   4.525   5.684 -0.3763 -0.1669  0.4935
   21CHL1  H11A 2695   3.309   4.418   5.685 -0.6945 -0.2540  0.2955
   21CHL1  H11B 2696   3.357   4.584   5.740 -0.7303  0.5003  0.2833
   21CHL1    C9 2697   3.148   4.562   5.752 -0.3284 -0.3954  0.5074
   21CHL1    H9 2698   3.135   4.672   5.746  1.8304 -0.1641 -2.9333
   21CHL1   C10 2699   3.149   4.527   5.903  0.3475 -0.3620  0.1842
   21CHL1   C19 2700   3.224   4.387   5.927  0.5043 -0.8487  0.1099
   21CHL1  H19A 2701   3.331   4.390   5.898  0.6095  1.0471  0.5640
   21CHL1  H19B 2702   3.216   4.363   6.035  3.2593 -0.8735  0.3607
   21CHL1  H19C 2703   3.168   4.303   5.881  0.2190  0.5334 -2.2057
   21CHL1    C1 2704   3.230   4.634   5.986  0.0858  0.0863  0.6503
   21CHL1   H1A 2705   3.339   4.624   5.968 -0.2219 -1.5036 -0.5723
   21CHL1   H1B 2706   3.191   4.734   5.957  0.2351 -0.4155 -1.4689
   21CHL1    C2 2707   3.222   4.625   6.141 -0.4508 -1.0037  0.4799
   21CHL1   H2A 2708   3.273   4.709   6.193  0.5523 -1.6796  0.6166
   21CHL1   H2B 2709   3.265   4.528   6.172  0.6391 -1.1945 -1.4733
   21CHL1   C20 2710   3.237   4.514   5.207  0.1642  0.0382 -0.5590
   21CHL1   H20 2711   3.252   4.405   5.221 -1.3378 -0.3208 -1.5092
   21CHL1   C21 2712   3.383   4.568   5.223 -0.0635 -0.3154  0.1851
   21CHL1  H21A 2713   3.443   4.502   5.289 -0.1390 -0.5583  0.0117
   21CHL1  H21B 2714   3.380   4.676   5.248 -2.1227  0.3101 -2.2992
   21CHL1  H21C 2715   3.439   4.560   5.127  0.8391 -0.3270  0.6996
   21CHL1   C22 2716   3.193   4.525   5.057 -0.2888 -0.1306 -0.8991
   21CHL1  H22A 2717   3.261   4.460   4.998  1.6587 -0.3111  1.3817
   21CHL1  H22B 2718   3.098   4.469   5.049  1.4699 -3.1167 -2.9381
   21CHL1   C23 2719   3.195   4.667   4.998  0.6494 -0.4030  0.2600
   21CHL1  H23A 2720   3.130   4.735   5.057  0.0430 -0.4937 -0.2899
   21CHL1  H23B 2721   3.300   4.703   5.006 -0.2624  2.4039  0.5628
   21CHL1   C24 2722   3.150   4.670   4.848  0.1049 -0.1360  0.2417
   21CHL1  H24A 2723   3.206   4.591   4.795 -0.4661 -1.2381  1.2441
   21CHL1  H24B 2724   3.046   4.630   4.850  0.5121 -1.2001  0.9838
   21CHL1   C25 2725   3.143   4.809   4.768 -0.2799 -0.1173 -0.3487
   21CHL1   H25 2726   3.243   4.853   4.748 -0.9915  3.2990  2.6246
   21CHL1   C26 2727   3.075   4.794   4.637 -0.2472  0.2887 -0.3660
   21CHL1  H26A 2728   3.088   4.888   4.578  1.6687 -0.2099 -0.8145
   21CHL1  H26B 2729   3.127   4.714   4.580  1.0078  1.3714 -0.8131
   21CHL1  H26C 2730   2.968   4.767   4.648 -0.3087  1.3870  2.5193
   21CHL1   C27 2731   3.054   4.913   4.845 -0.1639  0.1852 -0.8063
   21CHL1  H27A 2732   3.060   5.009   4.790 -0.5913  0.2021 -0.8263
   21CHL1  H27B 2733   2.949   4.876   4.849 -0.0108 -0.1678  0.8417
   21CHL1  H27C 2734   3.087   4.922   4.951 -0.0405 -0.0652 -0.8202
   22CHL1    C3 2735   5.549   3.907   6.444 -0.5169  0.1509  0.2916
   22CHL1    H3 2736   5.623   3.824   6.448  0.7533  1.0132 -2.6723
   22CHL1    O3 2737   5.495   3.937   6.576  0.0915 -0.0645 -0.1786
   22CHL1   H3' 2738   5.435   4.011   6.572  0.9786  0.7067  0.4101
   22CHL1    C4 2739   5.621   4.036   6.397 -0.1840  0.5558 -0.1550
   22CHL1   H4A 2740   5.555   4.122   6.420  0.4311  1.3784 -1.3657
   22CHL1   H4B 2741   5.705   4.051   6.469  1.1860 -4.5696 -0.2902
   22CHL1    C5 2742   5.670   4.034   6.256 -0.3346 -0.0671  0.1120
   22CHL1    C6 2743   5.797   4.061   6.224  0.2078 -0.6567  0.2074
   22CHL1    H6 2744   5.859   4.087   6.312 -0.1527 -0.2963  0.3582
   22CHL1    C7 2745   5.872   4.062   6.096 -0.2082 -0.3795  0.8776
   22CHL1   H7A 2746   5.944   4.146   6.089 -1.4269  0.7543  1.4367
   22CHL1   H7B 2747   5.928   3.968   6.080  0.7825  0.1929  0.8887
   22CHL1    C8 2748   5.759   4.069   5.984 -0.2635 -0.2259  0.1802
   22CHL1    H8 2749   5.713   4.169   5.970 -2.1831 -0.9802  0.7132
   22CHL1   C14 2750   5.822   4.032   5.848 -0.0442 -0.4868 -0.0418
   22CHL1   H14 2751   5.851   3.925   5.858  0.2218 -0.6619 -2.3467
   22CHL1   C15 2752   5.947   4.106   5.810 -0.0567  0.2177  0.7600
   22CHL1  H15A 2753   5.942   4.216   5.826  0.0133 -0.1142  3.4043
   22CHL1  H15B 2754   6.041   4.076   5.862  0.2935  2.7695  1.7633
   22CHL1   C16 2755   5.955   4.070   5.661  0.0640  0.3250 -0.8676
   22CHL1  H16A 2756   5.975   4.168   5.612 -0.0673 -0.1957 -2.0014
   22CHL1  H16B 2757   6.041   4.005   5.637  1.1778  1.3308  0.2167
   22CHL1   C17 2758   5.820   4.004   5.615 -0.8946  0.1043 -0.3130
   22CHL1   H17 2759   5.839   3.894   5.618  1.7034  0.4667 -0.8369
   22CHL1   C13 2760   5.719   4.046   5.729 -1.3212 -0.1619 -0.4221
   22CHL1   C18 2761   5.673   4.193   5.707  0.2719  0.6331 -0.8578
   22CHL1  H18A 2762   5.762   4.255   5.683  0.9366 -0.3928 -1.1035
   22CHL1  H18B 2763   5.601   4.210   5.624 -0.4409 -0.8845 -0.5933
   22CHL1  H18C 2764   5.624   4.240   5.795  3.1714  0.7059  0.8222
   22CHL1   C12 2765   5.597   3.956   5.755 -0.2623 -0.3543  0.1089
   22CHL1  H12A 2766   5.518   3.972   5.679 -0.3073 -0.0460  0.2201
   22CHL1  H12B 2767   5.637   3.854   5.738  0.2957 -0.6807  2.8939
   22CHL1   C11 2768   5.534   3.974   5.890 -0.1083  0.0731 -0.1430
   22CHL1  H11A 2769   5.502   4.081   5.894  1.1704  0.4363  1.2991
   22CHL1  H11B 2770   5.440   3.917   5.904  0.2748 -1.0959 -1.9835
   22CHL1    C9 2771   5.631   3.972   6.015 -0.8361 -0.3836 -0.2190
   22CHL1    H9 2772   5.688   3.877   6.026  0.4261  0.6326  4.0660
   22CHL1   C10 2773   5.564   3.994   6.150 -0.0313 -0.0657 -0.8674
   22CHL1   C19 2774   5.454   4.105   6.134 -0.6448 -0.3350  0.3359
   22CHL1  H19A 2775   5.366   4.060   6.083  0.4561 -1.2499 -0.8200
   22CHL1  H19B 2776   5.422   4.148   6.231 -1.1159 -0.5424  0.2764
   22CHL1  H19C 2777   5.494   4.198   6.088 -0.4040 -1.1689 -1.1919
   22CHL1    C1 2778   5.490   3.863   6.197  0.2920 -0.1130  0.2521
   22CHL1   H1A 2779   5.395   3.851   6.141  0.0393  1.8906  0.1636
   22CHL1   H1B 2780   5.560   3.777   6.190 -1.0862 -1.6487  3.2181
   22CHL1    C2 2781   5.439   3.863   6.346 -0.0385 -0.2946  0.2960
   22CHL1   H2A 2782   5.394   3.765   6.373 -0.7867  0.5716  2.4283
   22CHL1   H2B 2783   5.356   3.938   6.342 -1.4347 -1.8310 -2.8926
   22CHL1   C20 2784   5.786   4.035   5.466  0.4939 -0.3729  0.2490
   22CHL1   H20 2785   5.746   4.138   5.474 -0.7340 -0.8737  0.9078
   22CHL1   C21 2786   5.676   3.936   5.421 -0.5880 -0.5365 -0.2224
   22CHL1  H21A 2787   5.586   3.941   5.486  1.0396 -0.2062  2.1391
   22CHL1  H21B 2788   5.707   3.830   5.437 -1.4066 -0.7580 -0.0203
   22CHL1  H21C 2789   5.648   3.951   5.314  1.9664 -0.9190 -1.0064
   22CHL1   C22 2790   5.904   4.035   5.367  0.2887 -0.0317  0.1820
   22CHL1  H22A 2791   5.978   4.112   5.400 -0.9341  0.4501  1.9509
   22CHL1  H22B 2792   5.957   3.938   5.378  1.6409  0.7681  1.1213
   22CHL1   C23 2793   5.860   4.061   5.217 -0.2990 -0.0445  0.3992
   22CHL1  H23A 2794   5.813   3.967   5.180  0.0857 -1.2075  2.6368
   22CHL1  H23B 2795   5.802   4.156   5.211  1.0312  1.0294  2.9585
   22CHL1   C24 2796   5.993   4.078   5.137  0.4232 -0.4834 -0.3481
   22CHL1  H24A 2797   6.040   4.167   5.185 -1.2407  0.0228  0.4540
   22CHL1  H24B 2798   6.062   3.991   5.140  0.8648 -0.1095  1.1564
   22CHL1   C25 2799   5.958   4.105   4.985  0.4007  0.8716  0.0585
   22CHL1   H25 2800   5.861   4.160   4.993 -0.3781 -0.1470 -1.7994
   22CHL1   C26 2801   6.062   4.181   4.917  0.1836 -0.2698 -0.3787
   22CHL1  H26A 2802   6.075   4.279   4.968 -0.5724 -1.1541  1.6303
   22CHL1  H26B 2803   6.157   4.123   4.920 -1.0343 -2.3735  0.1889
   22CHL1  H26C 2804   6.040   4.199   4.809 -0.7447 -0.9848 -0.3241
   22CHL1   C27 2805   5.929   3.986   4.895  0.6279  0.1643 -0.1658
   22CHL1  H27A 2806   5.852   3.926   4.949 -1.0266  0.3426 -2.2005
   22CHL1  H27B 2807   5.890   4.020   4.797 -0.2727  0.0569  0.1470
   22CHL1  H27C 2808   6.009   3.910   4.884  0.8724  0.4757 -0.5859
   23CHL1    C3 2809   2.391   4.631   6.424  0.1820  0.3416  0.6568
   23CHL1    H3 2810   2.481   4.566   6.414 -1.0197 -1.2524 -0.3826
   23CHL1    O3 2811   2.360   4.676   6.553 -0.0658  0.3698 -0.3709
   23CHL1   H3' 2812   2.436   4.725   6.586  1.0269 -2.1970  1.1950
   23CHL1    C4 2813   2.413   4.751   6.336  0.1072  0.0935 -0.0323
   23CHL1   H4A 2814   2.329   4.822   6.350  1.9425  2.0983  1.6512
   23CHL1   H4B 2815   2.505   4.801   6.374 -0.3932  1.4951 -0.6208
   23CHL1    C5 2816   2.415   4.724   6.185 -0.1998 -1.0789 -0.7349
   23CHL1    C6 2817   2.527   4.757   6.112  0.0493  0.7643 -0.0197
   23CHL1    H6 2818   2.607   4.815   6.160  1.2842  0.0107 -1.1297
   23CHL1    C7 2819   2.542   4.725   5.968  0.1144  0.0736 -0.0815
   23CHL1   H7A 2820   2.575   4.812   5.908 -1.8160  2.0000  1.4751
   23CHL1   H7B 2821   2.608   4.636   5.958  0.8055  0.3272  1.7290
   23CHL1    C8 2822   2.401   4.698   5.908  0.1235  0.1884  0.0558
   23CHL1    H8 2823   2.347   4.795   5.902 -0.2800 -0.0151  0.3227
   23CHL1   C14 2824   2.428   4.639   5.772 -0.3548  0.5987  0.3547
   23CHL1   H14 2825   2.483   4.544   5.784 -2.1710 -0.5796 -0.1903
   23CHL1   C15 2826   2.513   4.717   5.669  0.3608 -0.2844 -0.4041
   23CHL1  H15A 2827   2.487   4.825   5.675 -2.7478 -0.8363 -1.7691
   23CHL1  H15B 2828   2.623   4.719   5.687  0.3055  1.7986 -0.0413
   23CHL1   C16 2829   2.493   4.655   5.533 -0.0935 -0.0252  0.7346
   23CHL1  H16A 2830   2.468   4.739   5.465 -0.9512 -0.2279  0.7912
   23CHL1  H16B 2831   2.572   4.587   5.495 -0.2917  0.0222  0.2393
   23CHL1   C17 2832   2.372   4.551   5.552 -0.2817  0.4779 -0.0387
   23CHL1   H17 2833   2.414   4.452   5.578 -1.0924 -0.0378 -0.6657
   23CHL1   C13 2834   2.305   4.594   5.688 -0.1026  0.4296  0.4257
   23CHL1   C18 2835   2.208   4.713   5.651  0.4117 -0.0043  0.0196
   23CHL1  H18A 2836   2.245   4.772   5.564 -0.3725  0.7567  0.1919
   23CHL1  H18B 2837   2.107   4.674   5.628  1.0484 -0.7266 -1.7717
   23CHL1  H18C 2838   2.203   4.779   5.740 -1.5911  0.5059 -0.4360
   23CHL1   C12 2839   2.230   4.482   5.769 -0.8623 -0.7425  0.6469
   23CHL1  H12A 2840   2.142   4.443   5.714  0.2632 -1.4078 -0.7411
   23CHL1  H12B 2841   2.299   4.397   5.785  0.4418  0.0312 -0.6332
   23CHL1   C11 2842   2.194   4.545   5.906  0.5154 -0.8155  0.3637
   23CHL1  H11A 2843   2.112   4.618   5.894 -0.0803 -1.6055 -0.4968
   23CHL1  H11B 2844   2.142   4.469   5.969  0.6397 -0.5479  0.7910
   23CHL1    C9 2845   2.321   4.589   5.988 -0.4693  0.1739  0.7158
   23CHL1    H9 2846   2.393   4.504   5.991 -0.0771  0.5029  0.6987
   23CHL1   C10 2847   2.303   4.638   6.131 -0.5252 -0.2247 -0.2371
   23CHL1   C19 2848   2.174   4.716   6.145 -0.0825  0.1472  0.4940
   23CHL1  H19A 2849   2.092   4.650   6.111  0.2325  0.4284 -0.9010
   23CHL1  H19B 2850   2.146   4.759   6.244 -1.2527 -1.3498  0.8537
   23CHL1  H19C 2851   2.178   4.792   6.064  0.7497 -0.9843 -0.5788
   23CHL1    C1 2852   2.295   4.517   6.218 -0.6110 -0.2222  0.4581
   23CHL1   H1A 2853   2.212   4.458   6.173  1.0647 -1.5603 -1.0268
   23CHL1   H1B 2854   2.384   4.452   6.204 -0.8943 -0.6818  0.7472
   23CHL1    C2 2855   2.274   4.537   6.371 -0.1340 -0.3742 -0.5124
   23CHL1   H2A 2856   2.290   4.437   6.418  1.8784  0.0857 -0.1047
   23CHL1   H2B 2857   2.176   4.583   6.395 -1.2745 -3.0608  0.3533
   23CHL1   C20 2858   2.286   4.527   5.422  0.0781  0.1761 -0.7193
   23CHL1   H20 2859   2.201   4.600   5.425 -0.4993 -0.4887 -0.7171
   23CHL1   C21 2860   2.214   4.387   5.434 -0.4476  0.0503  0.0116
   23CHL1  H21A 2861   2.133   4.407   5.508 -0.7275  0.5578 -0.4210
   23CHL1  H21B 2862   2.291   4.314   5.466  1.1241  1.2953 -0.7743
   23CHL1  H21C 2863   2.163   4.352   5.342  0.3627  1.9125 -1.2099
   23CHL1   C22 2864   2.353   4.553   5.286  0.0133  0.3395 -0.4716
   23CHL1  H22A 2865   2.377   4.661   5.274 -1.3553  0.8928  1.3072
   23CHL1  H22B 2866   2.449   4.497   5.284 -0.3538 -0.3370  0.5104
   23CHL1   C23 2867   2.270   4.498   5.166 -0.1725 -0.8357  0.1713
   23CHL1  H23A 2868   2.337   4.517   5.080 -0.8041 -1.5481 -0.4956
   23CHL1  H23B 2869   2.266   4.387   5.165  1.3226 -0.9164  0.2790
   23CHL1   C24 2870   2.127   4.547   5.141 -0.2716 -0.6756  0.1190
   23CHL1  H24A 2871   2.052   4.525   5.219 -1.8137  2.1203 -0.4718
   23CHL1  H24B 2872   2.132   4.656   5.122 -0.3139 -0.9751 -1.8708
   23CHL1   C25 2873   2.052   4.521   5.008 -0.2409 -0.1359  0.2538
   23CHL1   H25 2874   2.054   4.414   4.977  0.8642  0.3975 -1.6846
   23CHL1   C26 2875   1.903   4.539   5.040 -0.4909  0.6136 -0.2327
   23CHL1  H26A 2876   1.891   4.638   5.088  2.5224  0.7761  0.3788
   23CHL1  H26B 2877   1.839   4.534   4.949  0.3200 -1.2748 -0.7531
   23CHL1  H26C 2878   1.869   4.467   5.117  3.4607  1.2093  2.3863
   23CHL1   C27 2879   2.101   4.598   4.890 -0.1921  0.6275 -0.3873
   23CHL1  H27A 2880   2.098   4.708   4.908  1.1387  1.0470 -2.3949
   23CHL1  H27B 2881   2.204   4.563   4.869 -0.3865 -1.7229  2.0599
   23CHL1  H27C 2882   2.033   4.580   4.804 -3.9790 -0.5183  2.6034
   24CHL1    C3 2883   4.211   5.079   6.548 -0.1016  0.2209  0.3562
   24CHL1    H3 2884   4.216   5.187   6.526  1.7166  0.2958  0.9573
   24CHL1    O3 2885   4.255   5.049   6.677 -0.2888 -0.7424 -0.2043
   24CHL1   H3' 2886   4.244   4.958   6.703 -0.6907 -0.2491  1.4971
   24CHL1    C4 2887   4.069   5.026   6.534  0.4943 -0.0022  0.3835
   24CHL1   H4A 2888   4.067   4.917   6.554  0.0635  0.2934  2.1062
   24CHL1   H4B 2889   4.014   5.067   6.621 -0.4506  1.0424 -0.6663
   24CHL1    C5 2890   4.021   5.062   6.388 -0.9235  0.0045 -1.1198
   24CHL1    C6 2891   3.913   5.130   6.376  0.0632 -0.1543  0.3585
   24CHL1    H6 2892   3.862   5.155   6.470 -2.1142 -1.3125 -0.4252
   24CHL1    C7 2893   3.869   5.183   6.245  0.5678 -0.0327  0.6593
   24CHL1   H7A 2894   3.758   5.182   6.247  0.5111 -0.0148 -0.8250
   24CHL1   H7B 2895   3.914   5.284   6.231  0.7911 -0.5131 -3.5559
   24CHL1    C8 2896   3.932   5.112   6.117  0.3424  0.2801 -0.1779
   24CHL1    H8 2897   3.882   5.017   6.091  2.7085 -1.2030  0.3460
   24CHL1   C14 2898   3.923   5.202   5.993  0.4676 -0.3397 -0.1720
   24CHL1   H14 2899   3.977   5.298   6.003  1.0005 -0.6695  0.1344
   24CHL1   C15 2900   3.776   5.254   5.970  0.0054 -0.0255  0.2012
   24CHL1  H15A 2901   3.699   5.178   5.992 -1.3988  1.6770  1.3919
   24CHL1  H15B 2902   3.758   5.342   6.036  2.4983  1.0364 -0.3993
   24CHL1   C16 2903   3.778   5.290   5.821  0.5899 -0.3382 -0.0356
   24CHL1  H16A 2904   3.709   5.228   5.761  0.3472  0.3344 -0.4685
   24CHL1  H16B 2905   3.764   5.398   5.797  2.3230 -0.0064  0.3031
   24CHL1   C17 2906   3.919   5.251   5.768  0.5527 -0.0508  0.5546
   24CHL1   H17 2907   3.982   5.341   5.785  0.6303  0.0757 -0.3686
   24CHL1   C13 2908   3.975   5.142   5.862 -0.0509  0.4933 -0.6039
   24CHL1   C18 2909   3.903   5.007   5.825 -0.0059  0.3813 -0.4466
   24CHL1  H18A 2910   3.922   4.930   5.903 -1.5123  0.9537  0.5336
   24CHL1  H18B 2911   3.793   5.020   5.819 -0.1331  0.2264  1.1518
   24CHL1  H18C 2912   3.931   4.963   5.727 -1.4608 -1.7602  0.0275
   24CHL1   C12 2913   4.129   5.123   5.889 -0.5150 -0.4073 -0.2268
   24CHL1  H12A 2914   4.176   5.078   5.799 -0.5133  3.1086 -2.1859
   24CHL1  H12B 2915   4.185   5.219   5.899  0.9589 -1.0330 -1.9681
   24CHL1   C11 2916   4.148   5.032   6.017  0.0131 -0.0039  0.4057
   24CHL1  H11A 2917   4.099   4.933   6.008  0.4625 -0.4814  2.7890
   24CHL1  H11B 2918   4.255   5.010   6.031  0.4179  0.8027 -1.1929
   24CHL1    C9 2919   4.081   5.090   6.142  0.4714 -0.0797  0.0804
   24CHL1    H9 2920   4.130   5.190   6.145 -0.2099  0.2943 -0.7961
   24CHL1   C10 2921   4.114   5.019   6.272 -0.1268  0.5396  0.8143
   24CHL1   C19 2922   4.097   4.863   6.245 -0.3376  0.7940 -0.7186
   24CHL1  H19A 2923   4.114   4.804   6.338 -0.7932  0.1072 -1.0535
   24CHL1  H19B 2924   3.990   4.838   6.227  0.0725 -1.8933  0.0954
   24CHL1  H19C 2925   4.157   4.832   6.157  1.9826  3.1490 -0.0618
   24CHL1    C1 2926   4.261   5.040   6.302 -0.1385 -0.4570 -0.2495
   24CHL1   H1A 2927   4.336   4.986   6.240  1.4984 -1.0887  2.1233
   24CHL1   H1B 2928   4.280   5.148   6.285 -0.6371 -0.3630 -0.2247
   24CHL1    C2 2929   4.301   5.002   6.446  0.6157 -0.2928  0.3309
   24CHL1   H2A 2930   4.407   5.027   6.466  1.4429 -2.1354 -1.3765
   24CHL1   H2B 2931   4.282   4.894   6.465 -1.3143 -0.2822 -1.1055
   24CHL1   C20 2932   3.916   5.232   5.614  0.4430  0.4949  0.4560
   24CHL1   H20 2933   3.863   5.135   5.599  1.6675 -0.3220  1.2763
   24CHL1   C21 2934   4.055   5.218   5.559 -0.0971 -0.3993 -0.2594
   24CHL1  H21A 2935   4.057   5.210   5.449 -3.1448  0.2206 -0.4436
   24CHL1  H21B 2936   4.114   5.140   5.612  1.2388  0.1642 -0.8677
   24CHL1  H21C 2937   4.114   5.305   5.596 -2.0346  0.7884  0.1508
   24CHL1   C22 2938   3.838   5.341   5.540 -0.3572 -0.7259  0.4842
   24CHL1  H22A 2939   3.737   5.359   5.582 -0.5907 -1.7795  0.3809
   24CHL1  H22B 2940   3.900   5.431   5.559 -1.6233  0.3546 -0.3061
   24CHL1   C23 2941   3.810   5.318   5.392 -0.5117 -0.4980 -0.1702
   24CHL1  H23A 2942   3.910   5.300   5.348  0.4631  0.4313  1.5392
   24CHL1  H23B 2943   3.748   5.226   5.387 -0.4548 -0.4553 -2.0796
   24CHL1   C24 2944   3.738   5.439   5.331 -0.0109  0.6620 -0.9727
   24CHL1  H24A 2945   3.645   5.439   5.392  2.5202 -1.0589  3.2267
   24CHL1  H24B 2946   3.794   5.534   5.343 -1.2192  1.2985 -0.2220
   24CHL1   C25 2947   3.705   5.418   5.178  0.7021  0.1987  0.4344
   24CHL1   H25 2948   3.641   5.328   5.189  1.5194 -0.2820  1.4009
   24CHL1   C26 2949   3.615   5.521   5.107  0.5444 -0.2670  0.4217
   24CHL1  H26A 2950   3.654   5.625   5.111  1.0755 -0.4313 -0.1943
   24CHL1  H26B 2951   3.598   5.491   5.001  0.4282 -0.1781  0.4154
   24CHL1  H26C 2952   3.516   5.527   5.156  1.6494  1.0319  2.6275
   24CHL1   C27 2953   3.831   5.378   5.097  0.5870 -0.2857  0.6094
   24CHL1  H27A 2954   3.905   5.454   5.130 -1.7326  1.7305  1.4957
   24CHL1  H27B 2955   3.862   5.276   5.126  2.0472  0.3496  1.3852
   24CHL1  H27C 2956   3.824   5.384   4.986 -1.7546  1.9908  0.7698
   25CHL1    C3 2957   5.672   0.519   6.431 -0.2089  0.2307 -0.1159
   25CHL1    H3 2958   5.577   0.575   6.432 -0.4714 -0.0503 -2.7244
   25CHL1    O3 2959   5.675   0.445   6.549 -0.1435  0.3590 -0.4283
   25CHL1   H3' 2960   5.668   0.510   6.619  0.6176 -1.6479  1.6726
   25CHL1    C4 2961   5.691   0.426   6.313  0.5454  0.0578  0.1875
   25CHL1   H4A 2962   5.781   0.362   6.332  0.2570 -0.2214  0.6258
   25CHL1   H4B 2963   5.615   0.345   6.324  0.9181 -0.2185  0.8023
   25CHL1    C5 2964   5.685   0.492   6.179  0.1114  0.3275  0.5456
   25CHL1    C6 2965   5.600   0.450   6.087 -0.1336  0.1448  0.2876
   25CHL1    H6 2966   5.534   0.367   6.117  0.2381  0.6006  2.5347
   25CHL1    C7 2967   5.601   0.509   5.948 -0.4783  0.3413  0.3271
   25CHL1   H7A 2968   5.638   0.432   5.878 -1.2452 -2.1430  2.5039
   25CHL1   H7B 2969   5.499   0.531   5.908 -0.7199  0.6198  1.0737
   25CHL1    C8 2970   5.709   0.620   5.934 -0.3399  0.6016  0.2169
   25CHL1    H8 2971   5.804   0.566   5.916  0.4024  1.7412  0.6211
   25CHL1   C14 2972   5.672   0.716   5.816  0.2852  0.2188 -0.5597
   25CHL1   H14 2973   5.582   0.766   5.859 -0.1939 -0.9244 -0.2152
   25CHL1   C15 2974   5.638   0.649   5.685  0.0785 -0.0639  0.0367
   25CHL1  H15A 2975   5.695   0.559   5.653 -1.1116 -0.9001  0.1879
   25CHL1  H15B 2976   5.531   0.618   5.687 -0.1268  0.5116 -1.1398
   25CHL1   C16 2977   5.657   0.756   5.577 -1.0359 -0.4947 -0.2121
   25CHL1  H16A 2978   5.718   0.717   5.493  1.3811 -2.0951  2.1425
   25CHL1  H16B 2979   5.561   0.790   5.532 -0.0752  1.4826 -0.8575
   25CHL1   C17 2980   5.724   0.877   5.650  0.2713  0.0028  0.4506
   25CHL1   H17 2981   5.645   0.945   5.688  1.6300  1.1109  1.4332
   25CHL1   C13 2982   5.785   0.813   5.780 -0.4644  0.4841 -0.5206
   25CHL1   C18 2983   5.908   0.750   5.732 -0.6020  0.0426 -0.4052
   25CHL1  H18A 2984   5.941   0.676   5.808  2.0825  1.5826  0.0325
   25CHL1  H18B 2985   5.890   0.688   5.641 -2.0287  0.7662 -0.6481
   25CHL1  H18C 2986   5.993   0.820   5.716 -0.1739 -0.5557 -0.8282
   25CHL1   C12 2987   5.803   0.901   5.913  0.3648  0.3094  0.2585
   25CHL1  H12A 2988   5.871   0.987   5.894  2.0515 -0.7496  1.2678
   25CHL1  H12B 2989   5.702   0.940   5.937 -0.9533 -2.1749 -0.8498
   25CHL1   C11 2990   5.840   0.822   6.035  0.5388 -0.1950 -0.7737
   25CHL1  H11A 2991   5.942   0.781   6.022  1.1687  1.2199 -0.4975
   25CHL1  H11B 2992   5.833   0.891   6.122 -0.0665  0.2930 -1.2021
   25CHL1    C9 2993   5.738   0.703   6.052 -0.9249  0.3676  0.0156
   25CHL1    H9 2994   5.639   0.745   6.078 -1.0611  1.0285 -1.4558
   25CHL1   C10 2995   5.782   0.610   6.164 -0.0616  0.2716 -0.3795
   25CHL1   C19 2996   5.926   0.546   6.143 -0.4433 -0.4408 -0.4818
   25CHL1  H19A 2997   5.941   0.484   6.052  0.7708 -0.2527 -0.4293
   25CHL1  H19B 2998   6.004   0.623   6.130  0.3156 -1.0114  0.5375
   25CHL1  H19C 2999   5.964   0.496   6.234  2.2505  0.1534 -1.1919
   25CHL1    C1 3000   5.787   0.698   6.304  0.5954  0.6253  0.7160
   25CHL1   H1A 3001   5.872   0.770   6.301  1.8252 -0.6559  2.4140
   25CHL1   H1B 3002   5.698   0.764   6.300  0.2919  0.2514  1.1326
   25CHL1    C2 3003   5.782   0.628   6.442 -0.0049  0.5734  0.3414
   25CHL1   H2A 3004   5.747   0.693   6.525  0.3445 -0.8686  1.6775
   25CHL1   H2B 3005   5.882   0.581   6.458 -0.7110 -0.8330  0.8301
   25CHL1   C20 3006   5.814   0.962   5.556  0.8922 -0.0729 -0.0481
   25CHL1   H20 3007   5.908   0.910   5.526  1.1792 -0.0427  0.7584
   25CHL1   C21 3008   5.869   1.079   5.639 -0.8797 -0.6229  0.1888
   25CHL1  H21A 3009   5.800   1.132   5.708 -1.8494  1.2939 -2.1410
   25CHL1  H21B 3010   5.910   1.154   5.569 -1.7024 -0.6067 -0.2815
   25CHL1  H21C 3011   5.959   1.049   5.698 -0.0716  0.3759 -0.5104
   25CHL1   C22 3012   5.754   0.994   5.417 -0.1108 -0.3993 -0.1088
   25CHL1  H22A 3013   5.712   0.902   5.373  0.6901  0.1296 -2.0791
   25CHL1  H22B 3014   5.674   1.068   5.437  0.8761  0.3964  1.0901
   25CHL1   C23 3015   5.855   1.053   5.313  0.3374 -0.3040  0.6437
   25CHL1  H23A 3016   5.881   1.159   5.334  1.2603 -0.3555 -0.1846
   25CHL1  H23B 3017   5.955   1.003   5.322 -0.4694 -1.7853  2.0589
   25CHL1   C24 3018   5.798   1.040   5.166 -0.3366  0.0944 -0.5065
   25CHL1  H24A 3019   5.788   0.935   5.128 -1.1842  0.4518 -1.3274
   25CHL1  H24B 3020   5.694   1.078   5.171 -0.2499  0.2527  0.0873
   25CHL1   C25 3021   5.885   1.123   5.064 -0.1872  0.8684  0.9612
   25CHL1   H25 3022   5.909   1.220   5.114  0.7645  2.2100 -1.8608
   25CHL1   C26 3023   6.017   1.052   5.029 -0.1718 -0.3087 -0.2688
   25CHL1  H26A 3024   6.078   1.033   5.120  0.7637 -1.8285 -1.1648
   25CHL1  H26B 3025   6.004   0.960   4.968  2.2775 -0.2228 -1.0272
   25CHL1  H26C 3026   6.083   1.116   4.966  1.0471 -0.2046  1.0494
   25CHL1   C27 3027   5.799   1.155   4.935 -0.0124 -0.5829 -0.4793
   25CHL1  H27A 3028   5.780   1.059   4.883 -2.4851 -0.0080 -0.7625
   25CHL1  H27B 3029   5.693   1.179   4.954 -0.5133 -1.5587 -1.8936
   25CHL1  H27C 3030   5.848   1.222   4.862  0.9718  0.5900  1.1671
   26CHL1    C3 3031   5.269   3.490   6.568  0.1232  0.4456 -0.0206
   26CHL1    H3 3032   5.268   3.594   6.527 -1.2665  0.3851 -0.1819
   26CHL1    O3 3033   5.233   3.489   6.707 -0.3562  0.0405  0.3932
   26CHL1   H3' 3034   5.257   3.578   6.732  1.0995  0.0972 -1.0604
   26CHL1    C4 3035   5.163   3.405   6.499 -0.1208 -1.1659  0.2124
   26CHL1   H4A 3036   5.178   3.301   6.533 -1.2501 -0.6066  2.7226
   26CHL1   H4B 3037   5.066   3.443   6.539  0.3189  0.0683  0.1672
   26CHL1    C5 3038   5.174   3.419   6.350  0.8091 -0.1694  0.1955
   26CHL1    C6 3039   5.076   3.470   6.275  0.1926 -0.4310 -0.3754
   26CHL1    H6 3040   4.978   3.490   6.320 -1.2677 -1.8862 -2.6658
   26CHL1    C7 3041   5.071   3.474   6.123  0.5719  0.1466  0.6268
   26CHL1   H7A 3042   4.995   3.404   6.082  0.8282  0.5891 -0.6580
   26CHL1   H7B 3043   5.035   3.573   6.090  1.5617  0.5064  0.5868
   26CHL1    C8 3044   5.207   3.433   6.061  0.8733  0.1072 -0.2583
   26CHL1    H8 3045   5.205   3.327   6.026 -0.9955  0.7975 -2.4616
   26CHL1   C14 3046   5.233   3.512   5.936 -0.0003 -0.1844 -0.1975
   26CHL1   H14 3047   5.245   3.619   5.964  1.9766 -0.7679  1.4746
   26CHL1   C15 3048   5.117   3.520   5.836 -0.2865  0.2710  0.0413
   26CHL1  H15A 3049   5.064   3.427   5.808  0.9105 -0.3602 -0.1948
   26CHL1  H15B 3050   5.041   3.597   5.861 -2.4225 -2.0455  1.1486
   26CHL1   C16 3051   5.186   3.571   5.709  0.2393  0.0165  0.6575
   26CHL1  H16A 3052   5.159   3.511   5.619  0.2704  1.2342 -0.1911
   26CHL1  H16B 3053   5.156   3.677   5.690 -0.7411 -0.6470 -1.9059
   26CHL1   C17 3054   5.340   3.567   5.734  0.0646 -0.1289 -0.1836
   26CHL1   H17 3055   5.373   3.667   5.772  2.9989 -1.6827  1.7434
   26CHL1   C13 3056   5.356   3.472   5.857  1.0590  0.3284  0.3344
   26CHL1   C18 3057   5.350   3.320   5.814 -0.5843  0.0786 -0.4193
   26CHL1  H18A 3058   5.338   3.254   5.902 -1.3866 -0.2048 -0.7343
   26CHL1  H18B 3059   5.262   3.307   5.747 -0.7070 -0.3664 -0.1747
   26CHL1  H18C 3060   5.445   3.307   5.758  0.6595  1.4169  1.2944
   26CHL1   C12 3061   5.474   3.501   5.950  0.1818  0.3873  0.2835
   26CHL1  H12A 3062   5.575   3.473   5.913 -0.5792 -1.3258 -0.6168
   26CHL1  H12B 3063   5.472   3.608   5.980 -0.0641  0.0387  1.5833
   26CHL1   C11 3064   5.460   3.412   6.077 -0.2695 -0.0552  0.2610
   26CHL1  H11A 3065   5.475   3.306   6.048 -0.5845 -0.3558  1.1732
   26CHL1  H11B 3066   5.540   3.446   6.146  2.3065 -0.7399 -2.2143
   26CHL1    C9 3067   5.330   3.452   6.149 -0.2394  0.5241 -0.5225
   26CHL1    H9 3068   5.328   3.562   6.164 -2.0736  0.3767  0.7080
   26CHL1   C10 3069   5.313   3.389   6.291  0.7724 -0.1157  0.5620
   26CHL1   C19 3070   5.312   3.236   6.277  0.2094 -0.6261  0.3521
   26CHL1  H19A 3071   5.319   3.190   6.378 -1.8462  0.4352  1.0417
   26CHL1  H19B 3072   5.235   3.185   6.216  1.2111  0.0230 -1.5361
   26CHL1  H19C 3073   5.407   3.203   6.229  0.1915 -0.6997  0.3679
   26CHL1    C1 3074   5.427   3.452   6.386 -0.6734  0.4367 -0.0425
   26CHL1   H1A 3075   5.528   3.412   6.363 -0.3338  0.6219  1.0697
   26CHL1   H1B 3076   5.424   3.563   6.382 -0.0070  0.5254  1.4331
   26CHL1    C2 3077   5.407   3.434   6.539  0.1234  0.4055  0.1439
   26CHL1   H2A 3078   5.493   3.481   6.591  0.7464  0.6255 -1.0303
   26CHL1   H2B 3079   5.400   3.326   6.563 -0.2995  0.1943 -0.8628
   26CHL1   C20 3080   5.423   3.539   5.607 -0.7092 -0.5592 -0.4263
   26CHL1   H20 3081   5.393   3.449   5.550 -0.0029 -0.3145 -1.2014
   26CHL1   C21 3082   5.575   3.540   5.646  0.1900  0.1211 -0.0960
   26CHL1  H21A 3083   5.637   3.540   5.554  0.8164 -1.7773  0.2863
   26CHL1  H21B 3084   5.597   3.444   5.699  2.9150  0.3542 -0.6815
   26CHL1  H21C 3085   5.599   3.633   5.701 -0.6044 -0.8241  2.0059
   26CHL1   C22 3086   5.393   3.655   5.499  0.0582  0.5019 -0.4106
   26CHL1  H22A 3087   5.286   3.661   5.470  0.1493  0.3856 -0.7747
   26CHL1  H22B 3088   5.439   3.741   5.551 -0.9463  1.2739 -0.7636
   26CHL1   C23 3089   5.470   3.635   5.371  0.9413 -0.3977  0.5330
   26CHL1  H23A 3090   5.581   3.635   5.385  1.2211 -3.9006 -0.6988
   26CHL1  H23B 3091   5.439   3.539   5.324 -0.2071  0.1355  0.1681
   26CHL1   C24 3092   5.430   3.736   5.254 -0.7075  0.1296  0.0995
   26CHL1  H24A 3093   5.322   3.727   5.227 -0.3999  0.6324 -1.3833
   26CHL1  H24B 3094   5.441   3.833   5.306  1.4018 -0.8172  1.5539
   26CHL1   C25 3095   5.516   3.725   5.131  0.4827  0.1930  1.1981
   26CHL1   H25 3096   5.624   3.712   5.153  0.5348 -0.8364  0.4352
   26CHL1   C26 3097   5.500   3.584   5.060  0.0511  0.6578  0.0759
   26CHL1  H26A 3098   5.557   3.505   5.113  0.0553  0.7025  0.1382
   26CHL1  H26B 3099   5.391   3.566   5.055  0.3644 -1.5156  0.2682
   26CHL1  H26C 3100   5.549   3.595   4.960 -0.1328  0.4821 -0.0339
   26CHL1   C27 3101   5.499   3.838   5.033  0.3775  0.1470 -0.3297
   26CHL1  H27A 3102   5.471   3.933   5.084  0.3761 -0.8345  1.5695
   26CHL1  H27B 3103   5.592   3.842   4.973  1.5368 -0.2116  1.4050
   26CHL1  H27C 3104   5.420   3.812   4.958 -0.5606 -1.4989  1.1714
   27CHL1    C3 3105   2.492   4.230   6.609  0.1931  0.3010 -0.1104
   27CHL1    H3 3106   2.467   4.334   6.576 -0.4390 -0.0055 -0.6354
   27CHL1    O3 3107   2.486   4.210   6.750 -0.3310 -1.0513  0.0552
   27CHL1   H3' 3108   2.411   4.152   6.763 -1.8815  1.1260  1.5427
   27CHL1    C4 3109   2.400   4.131   6.528  0.5114  0.3522 -0.1158
   27CHL1   H4A 3110   2.437   4.033   6.565 -1.6628 -0.5878 -0.2441
   27CHL1   H4B 3111   2.300   4.148   6.572  0.1859  1.9629 -1.3862
   27CHL1    C5 3112   2.406   4.138   6.379 -0.0280  0.2624  0.0937
   27CHL1    C6 3113   2.309   4.155   6.293 -0.9284 -0.3199 -0.2371
   27CHL1    H6 3114   2.207   4.162   6.335 -0.1019 -1.2000  2.0717
   27CHL1    C7 3115   2.310   4.156   6.139 -0.2146 -0.4806 -0.7378
   27CHL1   H7A 3116   2.241   4.076   6.104  1.5356 -3.1090  1.3759
   27CHL1   H7B 3117   2.281   4.257   6.101 -3.7419 -1.2608 -0.4603
   27CHL1    C8 3118   2.452   4.109   6.090  0.7067 -0.3382  0.5114
   27CHL1    H8 3119   2.448   3.998   6.088 -3.7516 -0.4290 -2.3340
   27CHL1   C14 3120   2.456   4.145   5.940  0.3980 -0.6056 -0.0227
   27CHL1   H14 3121   2.439   4.255   5.933 -0.5173 -0.8050 -1.2914
   27CHL1   C15 3122   2.343   4.085   5.853 -0.6354  0.1004  0.6041
   27CHL1  H15A 3123   2.320   3.980   5.877  0.5682 -0.7048 -1.4902
   27CHL1  H15B 3124   2.247   4.136   5.875 -1.2087 -0.0132 -1.3851
   27CHL1   C16 3125   2.400   4.091   5.711  0.6429  0.0635  0.4656
   27CHL1  H16A 3126   2.401   3.991   5.663 -0.6139  0.4179 -0.3639
   27CHL1  H16B 3127   2.325   4.140   5.645  1.6633 -1.1737 -1.7123
   27CHL1   C17 3128   2.539   4.167   5.724 -0.0694  0.0224 -0.3426
   27CHL1   H17 3129   2.519   4.276   5.725 -1.4709 -0.2051  0.1778
   27CHL1   C13 3130   2.589   4.125   5.871 -0.0047  0.7680  0.5469
   27CHL1   C18 3131   2.627   3.971   5.872  0.1222 -0.2475 -0.6878
   27CHL1  H18A 3132   2.625   3.928   5.975  0.6719  3.1011  0.8769
   27CHL1  H18B 3133   2.559   3.907   5.812 -1.0766  1.6131 -1.3825
   27CHL1  H18C 3134   2.732   3.967   5.837  0.3983  3.3105 -0.6620
   27CHL1   C12 3135   2.704   4.204   5.944 -0.0642  1.3569  0.0971
   27CHL1  H12A 3136   2.805   4.179   5.905 -0.2410 -0.2412  0.5653
   27CHL1  H12B 3137   2.693   4.314   5.931  0.1050  1.7195  2.6720
   27CHL1   C11 3138   2.707   4.160   6.096  0.0918  0.2724 -0.0980
   27CHL1  H11A 3139   2.741   4.055   6.108 -0.5138 -0.3113 -2.7714
   27CHL1  H11B 3140   2.780   4.218   6.157 -0.1275  0.0116  0.4162
   27CHL1    C9 3141   2.562   4.177   6.166 -0.3276 -0.0339 -0.2988
   27CHL1    H9 3142   2.551   4.288   6.161  0.6605  0.1427  0.9589
   27CHL1   C10 3143   2.550   4.138   6.317  0.5038  0.5178 -0.0153
   27CHL1   C19 3144   2.621   3.993   6.331  0.6857  0.1444 -0.4440
   27CHL1  H19A 3145   2.728   3.988   6.304  0.3442 -0.7560 -1.7270
   27CHL1  H19B 3146   2.620   3.962   6.438  1.5933  1.2436 -0.1010
   27CHL1  H19C 3147   2.562   3.917   6.276 -1.6636  1.1610  0.5307
   27CHL1    C1 3148   2.638   4.235   6.401  0.0411 -0.2496 -0.4994
   27CHL1   H1A 3149   2.743   4.217   6.368  0.1254 -0.9241  0.1117
   27CHL1   H1B 3150   2.612   4.342   6.391 -1.9438 -0.2405  3.0032
   27CHL1    C2 3151   2.634   4.215   6.557 -0.7282  0.3107 -0.1182
   27CHL1   H2A 3152   2.703   4.284   6.610 -0.0235 -0.0726 -0.5165
   27CHL1   H2B 3153   2.682   4.121   6.590  0.3093  0.7622 -0.2967
   27CHL1   C20 3154   2.636   4.139   5.603  0.1772  0.5320  0.5472
   27CHL1   H20 3155   2.672   4.034   5.613 -0.5537  0.1285 -0.8671
   27CHL1   C21 3156   2.756   4.238   5.600  0.0726 -0.1083  0.4292
   27CHL1  H21A 3157   2.802   4.221   5.699  0.4649 -0.0957  0.2534
   27CHL1  H21B 3158   2.718   4.341   5.583  2.1072  0.7716  0.9360
   27CHL1  H21C 3159   2.831   4.212   5.522 -1.1194 -0.4220 -0.6483
   27CHL1   C22 3160   2.562   4.141   5.463  0.5961 -0.0435  0.4786
   27CHL1  H22A 3161   2.493   4.054   5.452  0.7320  0.1419 -2.9116
   27CHL1  H22B 3162   2.493   4.228   5.449  1.5444  0.4954 -1.2002
   27CHL1   C23 3163   2.650   4.121   5.337  0.2303  0.6535  0.1553
   27CHL1  H23A 3164   2.706   4.213   5.311 -0.6822  1.7012  1.7033
   27CHL1  H23B 3165   2.718   4.042   5.375  0.2184  1.2594  1.4921
   27CHL1   C24 3166   2.562   4.083   5.213  0.6249 -0.8802  0.1115
   27CHL1  H24A 3167   2.494   3.998   5.238 -0.4959  0.6709  2.7825
   27CHL1  H24B 3168   2.494   4.169   5.192 -0.2001 -1.7474 -0.9167
   27CHL1   C25 3169   2.637   4.041   5.084 -0.0764  0.0025  0.0241
   27CHL1   H25 3170   2.685   3.943   5.104  0.3446 -0.4230 -2.6517
   27CHL1   C26 3171   2.552   4.003   4.969  0.4521 -0.0550 -0.2265
   27CHL1  H26A 3172   2.488   4.086   4.933  0.5801  0.2614  0.2603
   27CHL1  H26B 3173   2.617   3.963   4.889 -0.3055  0.1713 -0.9657
   27CHL1  H26C 3174   2.481   3.922   4.996 -1.1473  1.0620 -0.9557
   27CHL1   C27 3175   2.746   4.136   5.042  0.6074 -0.2835 -0.4274
   27CHL1  H27A 3176   2.721   4.244   5.052  0.5672 -0.4187  1.0232
   27CHL1  H27B 3177   2.771   4.125   4.934  0.5145  3.2372 -0.9523
   27CHL1  H27C 3178   2.832   4.117   5.110 -1.8599  0.1546  3.0567
   28CHL1    C3 3179   0.272   4.575   6.384 -0.6242  0.2537  0.1928
   28CHL1    H3 3180   0.378   4.585   6.352 -0.5853 -0.4009  0.1054
   28CHL1    O3 3181   0.268   4.570   6.526  0.0179  0.0350  0.2993
   28CHL1   H3' 3182   0.181   4.531   6.539 -0.1311 -0.5491 -1.9836
   28CHL1    C4 3183   0.188   4.696   6.334  0.1192 -0.2547  0.7009
   28CHL1   H4A 3184   0.085   4.666   6.361  0.0892 -1.1325 -0.3209
   28CHL1   H4B 3185   0.223   4.788   6.385 -0.7165  1.0455 -0.9597
   28CHL1    C5 3186   0.203   4.696   6.185 -0.4542 -0.0266 -0.0018
   28CHL1    C6 3187   0.250   4.803   6.117 -0.6741 -1.0511 -0.3069
   28CHL1    H6 3188   0.286   4.890   6.175  1.4029 -2.1221  0.0871
   28CHL1    C7 3189   0.254   4.820   5.965  0.3402  0.5540 -0.1528
   28CHL1   H7A 3190   0.206   4.915   5.934 -1.7890 -0.0011  1.2811
   28CHL1   H7B 3191   0.362   4.815   5.937  0.3901 -0.1518  0.1388
   28CHL1    C8 3192   0.169   4.704   5.895 -0.0171  0.4214 -0.5663
   28CHL1    H8 3193   0.062   4.733   5.904 -0.3183 -0.6167 -0.7440
   28CHL1   C14 3194   0.215   4.703   5.754  0.0529 -0.4118  0.4372
   28CHL1   H14 3195   0.324   4.680   5.760 -0.1310 -1.0829  1.5274
   28CHL1   C15 3196   0.193   4.836   5.673 -1.3292  0.1429 -0.5489
   28CHL1  H15A 3197   0.095   4.875   5.708  0.1206  0.7828  3.2677
   28CHL1  H15B 3198   0.260   4.922   5.697  0.7231 -1.6129  0.4084
   28CHL1   C16 3199   0.190   4.788   5.524 -0.1151 -0.3184 -0.0278
   28CHL1  H16A 3200   0.098   4.830   5.478 -1.3515 -0.9942  1.7237
   28CHL1  H16B 3201   0.282   4.831   5.477  0.3085 -0.4617  0.6553
   28CHL1   C17 3202   0.197   4.629   5.528  0.4052 -0.2169 -0.4096
   28CHL1   H17 3203   0.304   4.611   5.550  0.5860 -0.2226 -1.2553
   28CHL1   C13 3204   0.145   4.593   5.665 -0.1932  0.1083 -0.3081
   28CHL1   C18 3205  -0.014   4.606   5.657 -0.8877  0.0984  0.2376
   28CHL1  H18A 3206  -0.046   4.695   5.599  0.2400 -0.1778 -0.8290
   28CHL1  H18B 3207  -0.066   4.520   5.611 -2.0950  1.0734 -0.2903
   28CHL1  H18C 3208  -0.051   4.618   5.761  0.7297  0.4809  0.8005
   28CHL1   C12 3209   0.184   4.457   5.723 -0.6507  0.1841 -0.1896
   28CHL1  H12A 3210   0.155   4.370   5.661  1.0698 -1.3100  0.9763
   28CHL1  H12B 3211   0.295   4.458   5.715 -0.7311  0.0773 -1.3834
   28CHL1   C11 3212   0.145   4.447   5.873  0.3526 -0.0819 -0.1768
   28CHL1  H11A 3213   0.034   4.439   5.874  0.4411 -1.5492  0.9461
   28CHL1  H11B 3214   0.182   4.354   5.921  1.3382 -0.0645 -0.8838
   28CHL1    C9 3215   0.197   4.570   5.954  0.3899 -0.0928  0.8213
   28CHL1    H9 3216   0.308   4.567   5.945  0.3827  2.4919 -1.3946
   28CHL1   C10 3217   0.169   4.567   6.108  0.3876  0.3796  0.8026
   28CHL1   C19 3218   0.016   4.543   6.124 -0.4881  0.1731  0.4667
   28CHL1  H19A 3219  -0.052   4.620   6.083  1.3379  2.0905  0.8511
   28CHL1  H19B 3220  -0.010   4.458   6.058  0.2001  0.0451  0.3538
   28CHL1  H19C 3221  -0.009   4.513   6.228 -2.5006 -0.8681 -0.2803
   28CHL1    C1 3222   0.241   4.442   6.176 -0.1886 -0.1540 -0.0247
   28CHL1   H1A 3223   0.186   4.352   6.142 -3.2383  1.6440 -0.2302
   28CHL1   H1B 3224   0.345   4.429   6.137 -0.7475 -2.4320 -0.9286
   28CHL1    C2 3225   0.236   4.438   6.329 -0.0488 -0.1705  0.5678
   28CHL1   H2A 3226   0.310   4.366   6.368  1.7723  1.7103  0.7380
   28CHL1   H2B 3227   0.133   4.402   6.352 -2.2875  1.9442 -4.3976
   28CHL1   C20 3228   0.148   4.552   5.401 -0.1016 -0.1295  0.3070
   28CHL1   H20 3229   0.089   4.469   5.445 -2.0619  0.3530 -1.2395
   28CHL1   C21 3230   0.272   4.507   5.324 -0.1851 -0.0702 -0.4230
   28CHL1  H21A 3231   0.326   4.597   5.286  0.8527  0.1012  1.3511
   28CHL1  H21B 3232   0.243   4.448   5.234 -3.1863  2.5545 -1.3770
   28CHL1  H21C 3233   0.334   4.446   5.393  0.2463  1.4903  0.6147
   28CHL1   C22 3234   0.052   4.626   5.313  0.4451  0.0804  0.3041
   28CHL1  H22A 3235  -0.042   4.657   5.364  0.6324 -0.8369  1.2407
   28CHL1  H22B 3236   0.108   4.717   5.281  0.3272 -0.1200 -0.4828
   28CHL1   C23 3237   0.008   4.558   5.176 -0.4524  0.2192  0.0844
   28CHL1  H23A 3238   0.087   4.535   5.101 -0.1329 -0.6074  0.6615
   28CHL1  H23B 3239  -0.033   4.460   5.209  0.4874 -1.3059 -2.9305
   28CHL1   C24 3240  -0.108   4.631   5.107  0.6120 -0.2518  0.2207
   28CHL1  H24A 3241  -0.138   4.567   5.021 -0.7241 -0.3702  0.7566
   28CHL1  H24B 3242  -0.197   4.622   5.174  1.9804  1.0253  2.3261
   28CHL1   C25 3243  -0.079   4.774   5.068  0.5821  0.0933 -0.6697
   28CHL1   H25 3244  -0.044   4.830   5.158  0.3319 -1.8671  0.7125
   28CHL1   C26 3245   0.033   4.789   4.959  0.1806 -0.3761  0.2017
   28CHL1  H26A 3246   0.037   4.897   4.934 -0.8336 -0.3772 -0.0100
   28CHL1  H26B 3247   0.131   4.763   5.005 -0.4407  0.6118  2.2035
   28CHL1  H26C 3248   0.010   4.727   4.869 -1.4534 -1.6066  1.4098
   28CHL1   C27 3249  -0.213   4.840   5.027 -0.4065  0.1978 -0.6582
   28CHL1  H27A 3250  -0.195   4.948   5.005  0.5286  0.2319  0.1750
   28CHL1  H27B 3251  -0.241   4.785   4.934  2.0028  0.1568 -1.4326
   28CHL1  H27C 3252  -0.293   4.828   5.103 -0.0934  0.1099 -0.3431
   29CHL1    C3 3253   3.026   5.127   6.322  0.0007  0.4955  0.4080
   29CHL1    H3 3254   3.097   5.210   6.299 -1.9252  1.8939 -0.7384
   29CHL1    O3 3255   3.017   5.103   6.462 -0.0140  0.1846  0.7792
   29CHL1   H3' 3256   3.109   5.101   6.491  0.5695 -2.1685 -0.9424
   29CHL1    C4 3257   2.891   5.161   6.268  0.5125 -0.0496 -0.5824
   29CHL1   H4A 3258   2.822   5.080   6.301  2.8512 -2.0908 -0.4314
   29CHL1   H4B 3259   2.848   5.261   6.290 -0.5381 -0.2199 -1.6975
   29CHL1    C5 3260   2.904   5.174   6.117 -0.5007  0.2795  0.9402
   29CHL1    C6 3261   2.873   5.289   6.046  0.4723 -0.2369 -0.0864
   29CHL1    H6 3262   2.852   5.378   6.107  1.7028 -1.0047  1.5186
   29CHL1    C7 3263   2.878   5.302   5.896 -0.8025 -0.2121 -0.0740
   29CHL1   H7A 3264   2.786   5.351   5.858  0.7445  0.1628 -3.6895
   29CHL1   H7B 3265   2.971   5.358   5.874 -0.6612 -0.0219  0.9314
   29CHL1    C8 3266   2.877   5.163   5.825 -0.2987  0.0679  0.3756
   29CHL1    H8 3267   2.777   5.118   5.842  0.5219 -2.0981 -0.2441
   29CHL1   C14 3268   2.902   5.191   5.686  0.2949 -0.2644  1.0311
   29CHL1   H14 3269   2.999   5.243   5.678  0.3614 -0.5254 -0.0971
   29CHL1   C15 3270   2.817   5.299   5.607 -0.0153 -0.0887 -0.8868
   29CHL1  H15A 3271   2.712   5.267   5.626  0.3583 -0.8724 -0.1004
   29CHL1  H15B 3272   2.834   5.405   5.638  0.3188 -0.6749  1.0973
   29CHL1   C16 3273   2.835   5.268   5.461  0.2355 -0.1414 -0.1522
   29CHL1  H16A 3274   2.729   5.255   5.429  0.2323 -1.6027  0.3803
   29CHL1  H16B 3275   2.883   5.351   5.403  0.7852 -1.0679 -1.0604
   29CHL1   C17 3276   2.923   5.138   5.448 -0.2281 -0.3377 -0.6048
   29CHL1   H17 3277   3.030   5.167   5.445  0.1794 -1.7356 -0.5409
   29CHL1   C13 3278   2.914   5.072   5.585  0.3097  0.6891 -0.8863
   29CHL1   C18 3279   2.785   4.990   5.585 -1.0098  0.2427  0.0278
   29CHL1  H18A 3280   2.758   4.962   5.689  0.6752 -2.2674 -0.1185
   29CHL1  H18B 3281   2.698   5.043   5.541  1.6231  3.6417 -1.5360
   29CHL1  H18C 3282   2.786   4.887   5.544  0.7299 -1.9051  4.7465
   29CHL1   C12 3283   3.031   4.986   5.636  0.2901  0.7613  0.0485
   29CHL1  H12A 3284   3.044   4.893   5.577 -0.0324  0.0154  1.1248
   29CHL1  H12B 3285   3.127   5.041   5.630 -0.8517  2.9401  0.7473
   29CHL1   C11 3286   3.020   4.950   5.791  0.3194 -0.2581  0.5928
   29CHL1  H11A 3287   2.936   4.877   5.795  0.8537 -0.8447  1.3533
   29CHL1  H11B 3288   3.106   4.895   5.834  1.5564  0.7060 -0.5685
   29CHL1    C9 3289   2.991   5.073   5.881 -0.4110 -0.4781 -0.5514
   29CHL1    H9 3290   3.078   5.142   5.881 -0.8961  0.1642 -2.0509
   29CHL1   C10 3291   2.959   5.048   6.042 -0.5335 -0.0715 -0.2207
   29CHL1   C19 3292   2.850   4.942   6.053 -0.0527  1.1731  0.1378
   29CHL1  H19A 3293   2.895   4.845   6.021  1.1518  1.9994 -0.7836
   29CHL1  H19B 3294   2.821   4.933   6.159  0.7672  2.0753  0.4534
   29CHL1  H19C 3295   2.756   4.966   6.000 -1.7826  1.3232  3.0814
   29CHL1    C1 3296   3.086   5.012   6.103  0.0154  0.3092 -0.9071
   29CHL1   H1A 3297   3.141   4.922   6.069 -0.0016  0.3359 -1.0060
   29CHL1   H1B 3298   3.163   5.090   6.083  0.4656  0.5227  1.4097
   29CHL1    C2 3299   3.075   4.999   6.261 -0.2578 -0.1722 -0.7614
   29CHL1   H2A 3300   3.176   4.975   6.301  0.1651 -0.9786 -2.2338
   29CHL1   H2B 3301   3.012   4.915   6.295  1.6080 -1.1809  0.3841
   29CHL1   C20 3302   2.889   5.048   5.329  0.1591  0.0442 -0.1209
   29CHL1   H20 3303   2.786   5.009   5.338  1.2789 -2.9266  0.9828
   29CHL1   C21 3304   2.980   4.919   5.323 -0.4458  0.1921 -0.0400
   29CHL1  H21A 3305   3.086   4.942   5.345 -0.1536 -0.7448 -0.3913
   29CHL1  H21B 3306   2.972   4.859   5.229 -0.1395 -1.5062  0.9859
   29CHL1  H21C 3307   2.945   4.853   5.405  0.9083  1.2827  1.4665
   29CHL1   C22 3308   2.885   5.124   5.198 -0.7863  0.3589  0.3471
   29CHL1  H22A 3309   2.844   5.228   5.197 -1.2696  0.1711 -0.0588
   29CHL1  H22B 3310   2.990   5.135   5.162 -1.6554  0.8222 -2.3198
   29CHL1   C23 3311   2.801   5.046   5.090 -0.5104 -0.3690  0.2630
   29CHL1  H23A 3312   2.861   4.954   5.072  0.6354  0.2691  0.7190
   29CHL1  H23B 3313   2.705   5.016   5.138  0.4439 -0.9099  1.9250
   29CHL1   C24 3314   2.777   5.129   4.956 -0.6820 -0.2673 -0.9637
   29CHL1  H24A 3315   2.730   5.225   4.989 -1.2064 -1.2408  1.3136
   29CHL1  H24B 3316   2.873   5.149   4.905 -0.7501 -0.5508 -1.2041
   29CHL1   C25 3317   2.698   5.047   4.849  0.1061  0.1469  0.2161
   29CHL1   H25 3318   2.764   4.963   4.817  0.7842  0.4652  0.7565
   29CHL1   C26 3319   2.569   4.996   4.909 -0.9776  0.2572  0.1135
   29CHL1  H26A 3320   2.515   4.935   4.833  1.1298  0.5261 -1.7439
   29CHL1  H26B 3321   2.572   4.931   4.999 -2.6981  1.2767  0.9488
   29CHL1  H26C 3322   2.510   5.086   4.934  0.3452  0.5990  2.2797
   29CHL1   C27 3323   2.676   5.128   4.718  0.5519  0.4238 -0.1775
   29CHL1  H27A 3324   2.775   5.149   4.672  0.5606  0.9941  0.0916
   29CHL1  H27B 3325   2.612   5.067   4.650 -0.7827  0.1565  1.2713
   29CHL1  H27C 3326   2.632   5.225   4.752 -1.3617 -0.9925  1.6067
   30CHL1    C3 3327   4.673   5.336   6.609  0.6257  0.4605  0.1293
   30CHL1    H3 3328   4.563   5.324   6.623  0.5477 -0.7987 -1.2650
   30CHL1    O3 3329   4.721   5.331   6.745  0.0050  0.6410 -0.3227
   30CHL1   H3' 3330   4.806   5.375   6.754  0.7096 -1.1568  4.1584
   30CHL1    C4 3331   4.728   5.218   6.527 -0.3703 -0.0971  0.3398
   30CHL1   H4A 3332   4.837   5.231   6.545 -0.1389 -3.4866  2.4408
   30CHL1   H4B 3333   4.685   5.123   6.566 -0.0886 -0.0216  0.8524
   30CHL1    C5 3334   4.699   5.220   6.374 -0.6264  0.1275 -0.8197
   30CHL1    C6 3335   4.648   5.112   6.312 -0.7076 -0.2784  0.6486
   30CHL1    H6 3336   4.627   5.017   6.364  0.2178 -0.5984  0.4533
   30CHL1    C7 3337   4.615   5.111   6.164  0.1374  1.0324 -0.0135
   30CHL1   H7A 3338   4.659   5.025   6.110 -0.1302  0.6864  0.3090
   30CHL1   H7B 3339   4.504   5.101   6.166  0.1525  0.7890 -0.3641
   30CHL1    C8 3340   4.647   5.240   6.088  0.4893 -0.2859 -0.3598
   30CHL1    H8 3341   4.750   5.231   6.047  0.6270  0.2455 -0.1397
   30CHL1   C14 3342   4.561   5.258   5.961  0.2750 -0.4933  0.0483
   30CHL1   H14 3343   4.460   5.277   6.003  0.3765 -4.3883  2.5838
   30CHL1   C15 3344   4.541   5.141   5.866  0.2416  0.3965  0.1496
   30CHL1  H15A 3345   4.635   5.084   5.856 -1.0497 -1.5373 -1.8970
   30CHL1  H15B 3346   4.459   5.074   5.902  0.8382 -0.0503  0.6938
   30CHL1   C16 3347   4.496   5.193   5.731 -0.0720 -0.8882 -0.2861
   30CHL1  H16A 3348   4.574   5.157   5.660 -1.0111  0.3590 -2.0186
   30CHL1  H16B 3349   4.396   5.157   5.700 -0.1299  0.4676 -1.8239
   30CHL1   C17 3350   4.506   5.353   5.748  0.0539  0.8115  0.3929
   30CHL1   H17 3351   4.407   5.389   5.784 -0.0493  0.0261  0.9342
   30CHL1   C13 3352   4.605   5.379   5.863  0.4050 -0.1523 -0.5386
   30CHL1   C18 3353   4.747   5.362   5.811 -0.0801 -0.0942  0.2632
   30CHL1  H18A 3354   4.767   5.264   5.761  1.8550  0.5511 -0.3201
   30CHL1  H18B 3355   4.773   5.444   5.741 -2.7715 -0.6335 -1.5125
   30CHL1  H18C 3356   4.815   5.367   5.898 -0.0533  0.5538  0.2099
   30CHL1   C12 3357   4.605   5.507   5.947 -0.0091 -0.3594  0.4128
   30CHL1  H12A 3358   4.661   5.587   5.895  1.0279 -1.0839  0.3947
   30CHL1  H12B 3359   4.499   5.541   5.955 -0.3004 -0.7662 -1.2562
   30CHL1   C11 3360   4.689   5.496   6.076 -0.1436  0.0104 -0.4876
   30CHL1  H11A 3361   4.798   5.490   6.055  0.0237 -0.1751  0.3901
   30CHL1  H11B 3362   4.678   5.583   6.144  0.6795 -1.2572  1.3678
   30CHL1    C9 3363   4.639   5.371   6.167  0.1808  0.2077  0.2710
   30CHL1    H9 3364   4.531   5.390   6.186  0.3919  0.9300  0.8168
   30CHL1   C10 3365   4.719   5.359   6.307  0.1550  0.0048 -0.0441
   30CHL1   C19 3366   4.866   5.376   6.288  0.4708  0.3424  0.3074
   30CHL1  H19A 3367   4.886   5.479   6.253 -2.1593  0.4883 -1.0621
   30CHL1  H19B 3368   4.917   5.356   6.384  2.1193 -1.7483 -0.9034
   30CHL1  H19C 3369   4.897   5.307   6.206 -1.4325  1.5477 -1.5241
   30CHL1    C1 3370   4.666   5.476   6.397 -0.1960  0.3781 -0.4041
   30CHL1   H1A 3371   4.700   5.576   6.362 -2.2135  1.5750  0.8253
   30CHL1   H1B 3372   4.555   5.476   6.388 -0.2892 -0.0100  0.6021
   30CHL1    C2 3373   4.701   5.473   6.545 -0.6389 -0.2036 -0.1915
   30CHL1   H2A 3374   4.650   5.548   6.609  1.9440 -0.4581  2.4450
   30CHL1   H2B 3375   4.811   5.488   6.560 -0.6101  2.3221 -2.3567
   30CHL1   C20 3376   4.538   5.421   5.609  0.0801 -0.5140 -0.5974
   30CHL1   H20 3377   4.636   5.381   5.576  0.1491 -0.4581 -0.4598
   30CHL1   C21 3378   4.550   5.572   5.625  0.0438  0.1608  0.0539
   30CHL1  H21A 3379   4.472   5.617   5.690 -0.2373  1.3420 -1.0740
   30CHL1  H21B 3380   4.533   5.628   5.531 -0.3918 -0.3289 -0.1660
   30CHL1  H21C 3381   4.649   5.610   5.659 -0.9062  2.8406  0.0084
   30CHL1   C22 3382   4.435   5.395   5.503  0.0798  0.2631 -0.7845
   30CHL1  H22A 3383   4.379   5.300   5.511  1.5379 -0.6079 -0.5671
   30CHL1  H22B 3384   4.355   5.472   5.503 -0.7744 -0.5877  0.4866
   30CHL1   C23 3385   4.488   5.375   5.363 -0.5734 -0.1479  0.3497
   30CHL1  H23A 3386   4.588   5.421   5.346 -0.6092 -0.5634 -1.1870
   30CHL1  H23B 3387   4.499   5.265   5.347 -1.6344 -0.3719  1.0939
   30CHL1   C24 3388   4.393   5.427   5.254  0.6387  0.1081 -0.3115
   30CHL1  H24A 3389   4.287   5.396   5.270  0.7090  0.1782  0.3360
   30CHL1  H24B 3390   4.376   5.536   5.273 -0.9429  0.2007 -1.9987
   30CHL1   C25 3391   4.423   5.391   5.108  0.4237 -0.1819 -0.5278
   30CHL1   H25 3392   4.450   5.284   5.101  0.1658 -0.2617 -0.2943
   30CHL1   C26 3393   4.307   5.434   5.017 -0.4121 -0.2621 -0.2026
   30CHL1  H26A 3394   4.256   5.529   5.047  0.0546  0.5479 -1.8525
   30CHL1  H26B 3395   4.324   5.446   4.908 -3.3515  0.9199 -0.6255
   30CHL1  H26C 3396   4.231   5.355   5.034 -1.1563  0.7057  1.2603
   30CHL1   C27 3397   4.544   5.469   5.048 -0.9661 -0.6340 -0.6983
   30CHL1  H27A 3398   4.545   5.575   5.082  0.0673 -1.2324  1.2393
   30CHL1  H27B 3399   4.635   5.409   5.071  2.1492  3.1083 -2.0423
   30CHL1  H27C 3400   4.543   5.469   4.936  0.1840 -1.3888 -0.7298
   31CHL1    C3 3401   2.287   5.065   6.676 -0.2558 -0.6283 -0.5333
   31CHL1    H3 3402   2.307   4.958   6.653 -3.0064 -1.1792 -0.6524
   31CHL1    O3 3403   2.304   5.071   6.813  0.0196  0.1320 -0.1625
   31CHL1   H3' 3404   2.263   5.150   6.850 -2.8888 -1.2358 -0.2295
   31CHL1    C4 3405   2.390   5.153   6.604  0.6943  0.0916 -0.2462
   31CHL1   H4A 3406   2.366   5.257   6.635  0.3261  0.2234 -0.9443
   31CHL1   H4B 3407   2.494   5.134   6.636  0.4499 -0.2841  0.3629
   31CHL1    C5 3408   2.382   5.146   6.457  0.5056  0.0556  0.0797
   31CHL1    C6 3409   2.486   5.113   6.381 -1.0644  0.8751  0.4933
   31CHL1    H6 3410   2.581   5.079   6.425 -1.4313 -1.8497 -0.6759
   31CHL1    C7 3411   2.498   5.131   6.233 -0.0644  0.5249  0.0472
   31CHL1   H7A 3412   2.588   5.190   6.204  2.0545 -2.0525  0.9113
   31CHL1   H7B 3413   2.513   5.030   6.189  0.1748 -0.1927  1.6816
   31CHL1    C8 3414   2.370   5.193   6.167  0.7397  0.5675  0.3061
   31CHL1    H8 3415   2.373   5.304   6.176  1.6167  0.4660  1.4950
   31CHL1   C14 3416   2.367   5.175   6.018 -0.0274  0.3939 -0.2169
   31CHL1   H14 3417   2.362   5.064   6.009 -0.6407  0.5283 -1.8230
   31CHL1   C15 3418   2.494   5.198   5.928 -0.0980  0.5215 -0.0113
   31CHL1  H15A 3419   2.545   5.296   5.934  0.0369  0.3692  2.9020
   31CHL1  H15B 3420   2.562   5.113   5.950 -1.3431 -0.8086 -1.0828
   31CHL1   C16 3421   2.432   5.207   5.787  0.3291  0.4094  0.2629
   31CHL1  H16A 3422   2.445   5.296   5.722 -4.8871  1.1981 -0.1267
   31CHL1  H16B 3423   2.461   5.117   5.729 -3.3655 -0.4083 -0.5586
   31CHL1   C17 3424   2.278   5.183   5.796  0.5825 -0.4776 -0.0487
   31CHL1   H17 3425   2.256   5.075   5.782  1.2743 -0.5353 -0.7886
   31CHL1   C13 3426   2.244   5.225   5.942  0.7838 -0.1684  0.5128
   31CHL1   C18 3427   2.249   5.373   5.940  0.0076  0.0996  0.5158
   31CHL1  H18A 3428   2.160   5.422   5.895 -1.4869 -1.7889  1.2529
   31CHL1  H18B 3429   2.262   5.409   6.045 -2.1482  0.1166  0.8214
   31CHL1  H18C 3430   2.337   5.415   5.888 -0.4033 -0.2355 -0.4799
   31CHL1   C12 3431   2.116   5.167   6.001 -0.5924 -0.5763 -0.1884
   31CHL1  H12A 3432   2.021   5.222   5.983 -0.7093 -0.1389  1.5861
   31CHL1  H12B 3433   2.113   5.056   5.996  2.3064 -0.7761  0.7315
   31CHL1   C11 3434   2.112   5.184   6.157 -0.2412 -0.2299  0.3904
   31CHL1  H11A 3435   2.099   5.293   6.177 -2.0949 -0.3704  0.1106
   31CHL1  H11B 3436   2.028   5.129   6.204  2.4072 -1.6331  3.9464
   31CHL1    C9 3437   2.247   5.146   6.240  0.1245 -0.1558 -0.5655
   31CHL1    H9 3438   2.248   5.035   6.234  0.1502 -0.0639 -3.4759
   31CHL1   C10 3439   2.252   5.178   6.388  0.5976  0.9069 -0.4579
   31CHL1   C19 3440   2.230   5.329   6.407  0.3803  0.2318 -0.1414
   31CHL1  H19A 3441   2.313   5.383   6.355  0.4381  0.1023 -0.1842
   31CHL1  H19B 3442   2.131   5.362   6.369  0.3542  0.0637 -0.2197
   31CHL1  H19C 3443   2.228   5.355   6.515 -1.1944  1.8821 -0.5143
   31CHL1    C1 3444   2.139   5.100   6.471  0.3127 -0.0526 -0.2744
   31CHL1   H1A 3445   2.040   5.136   6.439  0.0384 -0.0371  0.5576
   31CHL1   H1B 3446   2.145   4.993   6.443 -1.2414 -0.6387  1.4785
   31CHL1    C2 3447   2.146   5.099   6.629 -0.4991  0.5327  0.6327
   31CHL1   H2A 3448   2.066   5.036   6.674  1.7098 -1.2722  2.3360
   31CHL1   H2B 3449   2.135   5.206   6.658 -0.3162  0.7078  0.0560
   31CHL1   C20 3450   2.196   5.234   5.679 -0.0213 -0.2868  0.1918
   31CHL1   H20 3451   2.192   5.345   5.679  0.8893 -0.1839  2.8039
   31CHL1   C21 3452   2.052   5.178   5.694  0.2564 -0.3203  0.1303
   31CHL1  H21A 3453   2.054   5.070   5.720 -0.5462  0.0653  1.9977
   31CHL1  H21B 3454   1.989   5.192   5.603 -0.2086 -1.3885  0.2770
   31CHL1  H21C 3455   2.002   5.243   5.770  2.6482  1.1721  0.5363
   31CHL1   C22 3456   2.262   5.205   5.540  0.0867  0.7063 -0.7747
   31CHL1  H22A 3457   2.194   5.235   5.457  0.0167  2.3381 -0.1628
   31CHL1  H22B 3458   2.354   5.267   5.532 -1.0288  2.8494  1.5720
   31CHL1   C23 3459   2.297   5.060   5.506 -0.4799 -0.2496  0.0927
   31CHL1  H23A 3460   2.389   5.027   5.558 -0.9223  1.4292  2.0634
   31CHL1  H23B 3461   2.216   4.998   5.551  0.7254 -2.0016 -0.0316
   31CHL1   C24 3462   2.312   5.044   5.354 -0.2008 -0.3446  0.1636
   31CHL1  H24A 3463   2.369   5.133   5.320  0.8624 -1.7147 -1.8116
   31CHL1  H24B 3464   2.384   4.962   5.334 -1.2734 -1.2767  0.0424
   31CHL1   C25 3465   2.183   5.019   5.272 -0.4175  0.3062 -0.3756
   31CHL1   H25 3466   2.113   5.104   5.286 -0.7402 -0.3697  2.8711
   31CHL1   C26 3467   2.220   5.005   5.124 -0.3981  0.4883  0.5286
   31CHL1  H26A 3468   2.260   5.102   5.089  1.4021 -0.2987  0.3245
   31CHL1  H26B 3469   2.294   4.929   5.092 -1.1928  0.5443 -1.6188
   31CHL1  H26C 3470   2.128   4.981   5.067  0.1868  0.7188 -0.5353
   31CHL1   C27 3471   2.104   4.901   5.332 -0.0179 -0.3980 -0.3308
   31CHL1  H27A 3472   2.033   4.849   5.263 -0.6983 -2.9289  2.1228
   31CHL1  H27B 3473   2.178   4.825   5.364  3.2126  0.6200 -4.4125
   31CHL1  H27C 3474   2.045   4.937   5.419  0.4046  1.8419 -0.8847
   32CHL1    C3 3475   4.368   3.067   6.686 -0.3669 -0.1612  0.1122
   32CHL1    H3 3476   4.291   3.146   6.700 -2.0033 -1.4131 -1.4026
   32CHL1    O3 3477   4.408   3.005   6.807 -0.0541 -0.0221  0.4540
   32CHL1   H3' 3478   4.454   3.074   6.856 -0.1594 -0.1640  0.7567
   32CHL1    C4 3479   4.308   2.957   6.607  0.2196  0.7720 -0.1080
   32CHL1   H4A 3480   4.379   2.871   6.613 -0.2274  0.4075 -0.0305
   32CHL1   H4B 3481   4.208   2.924   6.641 -1.0184  3.5986 -0.6750
   32CHL1    C5 3482   4.298   2.991   6.457 -0.1232  0.3124 -0.6939
   32CHL1    C6 3483   4.180   2.990   6.392  0.2126  0.2446 -0.1099
   32CHL1    H6 3484   4.095   2.948   6.448  0.1841 -1.7153 -1.5264
   32CHL1    C7 3485   4.167   3.023   6.243 -1.0058 -0.5382 -0.4356
   32CHL1   H7A 3486   4.099   2.950   6.193 -0.7191 -2.4338  1.7854
   32CHL1   H7B 3487   4.137   3.129   6.236 -1.0448 -0.4017  1.3866
   32CHL1    C8 3488   4.303   3.018   6.177  0.0470 -0.3073  0.3883
   32CHL1    H8 3489   4.350   2.917   6.176  1.5806  0.3364 -1.9504
   32CHL1   C14 3490   4.292   3.058   6.036  0.7048 -0.5975  0.7499
   32CHL1   H14 3491   4.255   3.162   6.042  1.0918 -0.4867  1.3247
   32CHL1   C15 3492   4.196   2.975   5.949  0.4465 -0.2487 -0.5118
   32CHL1  H15A 3493   4.217   2.866   5.962 -0.0724 -0.2298  0.5667
   32CHL1  H15B 3494   4.089   2.980   5.977  0.3049 -1.3723 -0.7784
   32CHL1   C16 3495   4.221   3.035   5.806  0.0742  0.0174  0.4050
   32CHL1  H16A 3496   4.226   2.944   5.742 -1.5557 -0.6569  1.1897
   32CHL1  H16B 3497   4.137   3.102   5.778  0.6981  0.0904 -1.3898
   32CHL1   C17 3498   4.359   3.103   5.815 -0.4573  0.9646 -0.9820
   32CHL1   H17 3499   4.337   3.212   5.822 -1.1308  0.7503  1.0810
   32CHL1   C13 3500   4.417   3.064   5.949  0.2567 -0.5610  0.6374
   32CHL1   C18 3501   4.496   2.931   5.951  0.1465  0.4019 -0.1628
   32CHL1  H18A 3502   4.508   2.891   6.054  0.3943  1.7441  0.3445
   32CHL1  H18B 3503   4.440   2.852   5.896 -0.6512 -1.1457  2.6740
   32CHL1  H18C 3504   4.600   2.939   5.912 -0.0732  3.9150 -0.3694
   32CHL1   C12 3505   4.498   3.178   6.025 -0.1819 -0.2748  0.4460
   32CHL1  H12A 3506   4.596   3.182   5.972 -1.0605 -2.1244 -1.5185
   32CHL1  H12B 3507   4.441   3.272   6.012 -2.4999 -1.7467 -0.8824
   32CHL1   C11 3508   4.533   3.133   6.166 -0.3290  0.1199  0.4972
   32CHL1  H11A 3509   4.610   3.053   6.158  0.2444  0.5536  1.4922
   32CHL1  H11B 3510   4.585   3.212   6.223  0.7726  1.5081 -2.2663
   32CHL1    C9 3511   4.404   3.105   6.247 -0.4517  0.2799  0.1656
   32CHL1    H9 3512   4.350   3.202   6.256  0.8591  0.8460  3.1838
   32CHL1   C10 3513   4.428   3.050   6.391  0.1781  0.0017  0.5118
   32CHL1   C19 3514   4.540   2.945   6.381 -0.1286  0.3935  0.2210
   32CHL1  H19A 3515   4.556   2.896   6.479  1.3168  1.0479  0.3297
   32CHL1  H19B 3516   4.514   2.862   6.312 -0.2769 -0.1057  0.8727
   32CHL1  H19C 3517   4.637   2.990   6.353  0.8075 -0.9223  1.2635
   32CHL1    C1 3518   4.475   3.176   6.477 -0.0271  0.3254 -0.4078
   32CHL1   H1A 3519   4.568   3.216   6.433 -0.0003 -0.4039 -1.0411
   32CHL1   H1B 3520   4.398   3.257   6.479 -0.3028  0.0547  0.2220
   32CHL1    C2 3521   4.500   3.133   6.624  0.7121  0.3315 -0.3303
   32CHL1   H2A 3522   4.524   3.212   6.698 -0.0033  0.3996 -0.1695
   32CHL1   H2B 3523   4.581   3.058   6.612 -0.6135 -1.0166 -1.1596
   32CHL1   C20 3524   4.449   3.070   5.691 -0.1502 -0.1452  0.2613
   32CHL1   H20 3525   4.467   2.960   5.699  0.5110  0.0190  1.2365
   32CHL1   C21 3526   4.583   3.153   5.699  1.0958  0.7279  0.1364
   32CHL1  H21A 3527   4.645   3.115   5.784  2.1205  1.9937 -0.0085
   32CHL1  H21B 3528   4.556   3.260   5.709 -0.8409  0.1456  1.7583
   32CHL1  H21C 3529   4.632   3.138   5.601  1.3086  0.5741  0.2658
   32CHL1   C22 3530   4.371   3.123   5.560 -0.4364 -0.3854 -0.0748
   32CHL1  H22A 3531   4.261   3.109   5.551 -0.5165  1.0857 -1.9150
   32CHL1  H22B 3532   4.386   3.231   5.538 -1.5803 -0.1831  0.1064
   32CHL1   C23 3533   4.427   3.052   5.431 -0.1029  0.0931 -0.0437
   32CHL1  H23A 3534   4.537   3.039   5.431 -0.1479 -0.3015  0.3679
   32CHL1  H23B 3535   4.376   2.954   5.434  0.0628 -0.0545 -1.4120
   32CHL1   C24 3536   4.393   3.127   5.299 -0.3032 -0.8613  0.0367
   32CHL1  H24A 3537   4.285   3.122   5.276 -0.1075 -1.1975 -0.8732
   32CHL1  H24B 3538   4.424   3.233   5.311  1.3502 -1.0288 -2.0376
   32CHL1   C25 3539   4.465   3.090   5.174 -0.8741 -0.2926 -0.1781
   32CHL1   H25 3540   4.575   3.099   5.189 -0.8769 -0.9555  0.2815
   32CHL1   C26 3541   4.447   2.940   5.148 -0.4766 -0.4536  0.1187
   32CHL1  H26A 3542   4.339   2.915   5.138 -0.2657 -1.0194 -0.8689
   32CHL1  H26B 3543   4.512   2.911   5.063 -0.3003  1.5993 -0.5019
   32CHL1  H26C 3544   4.487   2.891   5.239  1.3538 -0.2370 -0.5364
   32CHL1   C27 3545   4.424   3.182   5.059 -0.2442  0.6453  0.2381
   32CHL1  H27A 3546   4.313   3.191   5.061 -0.7782 -3.7082  2.7486
   32CHL1  H27B 3547   4.481   3.273   5.088  0.3088  0.5005 -0.3943
   32CHL1  H27C 3548   4.453   3.143   4.959 -1.1143  1.0270 -0.1738
   33CHL1    C3 3549   1.823   4.243   6.267  0.6681  0.5711 -0.8753
   33CHL1    H3 3550   1.735   4.311   6.268  0.3987  0.3031  2.4218
   33CHL1    O3 3551   1.858   4.236   6.403 -0.6071 -0.6740 -0.4833
   33CHL1   H3' 3552   1.850   4.144   6.429  1.7519 -0.7352  0.2883
   33CHL1    C4 3553   1.763   4.104   6.221  0.4445  0.2810 -0.1545
   33CHL1   H4A 3554   1.828   4.020   6.255  0.3523  0.7954  1.3985
   33CHL1   H4B 3555   1.665   4.095   6.271  0.2380  0.9014 -0.4364
   33CHL1    C5 3556   1.735   4.103   6.077 -0.2885  0.3940 -0.0948
   33CHL1    C6 3557   1.611   4.075   6.030 -1.1373  0.6911 -0.0701
   33CHL1    H6 3558   1.524   4.055   6.096 -1.7621 -0.4840 -1.1818
   33CHL1    C7 3559   1.579   4.062   5.886  0.0286  0.0172  0.2170
   33CHL1   H7A 3560   1.500   3.985   5.873 -0.1065  0.5821 -3.1419
   33CHL1   H7B 3561   1.528   4.157   5.858 -1.9926 -0.8024  0.9148
   33CHL1    C8 3562   1.701   4.045   5.787  0.1642  0.2285 -0.6428
   33CHL1    H8 3563   1.739   3.943   5.807  1.1165  0.6663 -0.1297
   33CHL1   C14 3564   1.654   4.077   5.648 -0.5177  0.4912 -0.1136
   33CHL1   H14 3565   1.617   4.182   5.645  0.0796  0.7075 -0.0987
   33CHL1   C15 3566   1.540   3.984   5.594  0.2544 -0.2219  0.8468
   33CHL1  H15A 3567   1.568   3.885   5.637  2.5930  0.4533  1.0555
   33CHL1  H15B 3568   1.441   4.021   5.626  0.4625  3.2065 -1.8633
   33CHL1   C16 3569   1.563   3.983   5.433  0.4337 -0.0764 -0.0504
   33CHL1  H16A 3570   1.592   3.883   5.394  2.3602  1.1713 -2.0553
   33CHL1  H16B 3571   1.461   3.999   5.392 -0.4966  0.8454  2.4385
   33CHL1   C17 3572   1.686   4.078   5.415  0.2235  1.0027  0.1864
   33CHL1   H17 3573   1.654   4.184   5.409  1.0057  1.1634 -2.4477
   33CHL1   C13 3574   1.768   4.067   5.547  0.0964 -0.0142  0.0705
   33CHL1   C18 3575   1.836   3.929   5.543 -0.2736 -0.3439  0.5981
   33CHL1  H18A 3576   1.915   3.931   5.465 -0.5744  0.3344  0.3022
   33CHL1  H18B 3577   1.878   3.896   5.640 -0.0037 -1.8021  0.0094
   33CHL1  H18C 3578   1.769   3.849   5.505  0.1645 -0.3739 -0.1245
   33CHL1   C12 3579   1.871   4.177   5.589  0.2743 -0.6756  0.5588
   33CHL1  H12A 3580   1.949   4.199   5.513 -0.1971  0.5752  0.4032
   33CHL1  H12B 3581   1.814   4.273   5.579  1.9984  0.4332  0.9930
   33CHL1   C11 3582   1.921   4.158   5.729  0.3990 -0.6036  0.4078
   33CHL1  H11A 3583   1.978   4.064   5.742 -1.0684 -1.5373  0.3567
   33CHL1  H11B 3584   1.977   4.245   5.768 -0.3069 -0.9048  2.1997
   33CHL1    C9 3585   1.798   4.154   5.834 -0.3813  0.0809  0.0096
   33CHL1    H9 3586   1.746   4.252   5.827  0.7032  0.7065  0.4496
   33CHL1   C10 3587   1.850   4.143   5.976 -0.0618 -0.0672 -0.5183
   33CHL1   C19 3588   1.954   4.029   5.989  0.0291  0.1418 -0.5251
   33CHL1  H19A 3589   1.913   3.937   5.942 -3.3338  1.0995  0.2859
   33CHL1  H19B 3590   2.046   4.055   5.933 -1.1970  0.3228 -2.5382
   33CHL1  H19C 3591   1.973   4.000   6.095 -0.3930 -0.1075 -0.5170
   33CHL1    C1 3592   1.907   4.274   6.030 -0.8511 -0.2600  1.1536
   33CHL1   H1A 3593   2.001   4.292   5.973 -3.4065  1.5061 -2.9555
   33CHL1   H1B 3594   1.826   4.343   5.999 -2.0467 -0.9689  2.5885
   33CHL1    C2 3595   1.939   4.293   6.185 -0.2016  0.6149  1.2098
   33CHL1   H2A 3596   1.953   4.402   6.202 -1.3779  0.9761  0.0217
   33CHL1   H2B 3597   2.027   4.228   6.204 -1.9869 -1.4241  3.0069
   33CHL1   C20 3598   1.761   4.067   5.281 -0.0424  0.7416  0.4659
   33CHL1   H20 3599   1.863   4.109   5.294  0.0049  0.6684  0.3243
   33CHL1   C21 3600   1.685   4.159   5.179  0.2381 -0.2395  1.0602
   33CHL1  H21A 3601   1.672   4.258   5.227  1.4597  0.5014 -0.0714
   33CHL1  H21B 3602   1.596   4.102   5.143  1.2816 -0.6184 -1.1483
   33CHL1  H21C 3603   1.752   4.185   5.094 -0.5788 -1.0901  0.1332
   33CHL1   C22 3604   1.780   3.925   5.217 -0.7348  0.3870 -0.0596
   33CHL1  H22A 3605   1.822   3.853   5.290 -0.8061  0.9911  0.5818
   33CHL1  H22B 3606   1.675   3.888   5.205 -1.0831  1.1330  0.6539
   33CHL1   C23 3607   1.858   3.921   5.081 -0.0872  0.4480 -0.0591
   33CHL1  H23A 3608   1.804   3.985   5.007 -0.5539  2.3920  1.8696
   33CHL1  H23B 3609   1.961   3.956   5.105 -0.1763  2.2272 -1.9363
   33CHL1   C24 3610   1.857   3.780   5.022 -0.2875 -0.7079 -0.4040
   33CHL1  H24A 3611   1.924   3.711   5.078  0.4346  1.0396  0.9828
   33CHL1  H24B 3612   1.752   3.747   5.017 -0.3545 -0.6983  0.6796
   33CHL1   C25 3613   1.913   3.769   4.881 -0.3503 -0.0319  0.6850
   33CHL1   H25 3614   1.856   3.819   4.800  0.7537  1.5625  0.8214
   33CHL1   C26 3615   2.065   3.817   4.871  0.0642 -0.0484 -0.2567
   33CHL1  H26A 3616   2.130   3.767   4.947  1.5148 -1.0104 -2.0602
   33CHL1  H26B 3617   2.102   3.810   4.767  1.2131  0.6929  0.0831
   33CHL1  H26C 3618   2.063   3.926   4.892 -1.8890 -0.0974  0.0232
   33CHL1   C27 3619   1.911   3.616   4.840 -0.4395 -0.5061 -0.5927
   33CHL1  H27A 3620   1.809   3.577   4.859 -0.9342  0.9100 -0.1820
   33CHL1  H27B 3621   1.946   3.605   4.736 -0.0352 -0.3750 -0.4730
   33CHL1  H27C 3622   1.980   3.554   4.902  0.7477  1.2242 -0.0908
   34CHL1    C3 3623   3.572   5.779   6.634 -0.8059  0.2235  0.1745
   34CHL1    H3 3624   3.501   5.695   6.620 -0.9872  0.3826  0.1320
   34CHL1    O3 3625   3.611   5.767   6.769  0.0199  1.4853  0.5950
   34CHL1   H3' 3626   3.676   5.836   6.786  0.6081  0.8498  0.9734
   34CHL1    C4 3627   3.710   5.753   6.557 -0.1578  0.4405  0.4390
   34CHL1   H4A 3628   3.775   5.830   6.604 -0.6445  0.1503  1.6222
   34CHL1   H4B 3629   3.737   5.650   6.586  1.9256  0.6985 -0.4282
   34CHL1    C5 3630   3.693   5.770   6.411  0.2684 -0.1066  0.0391
   34CHL1    C6 3631   3.740   5.670   6.332 -0.0284  0.5131  0.8408
   34CHL1    H6 3632   3.778   5.580   6.383 -0.2458  1.0884  2.0550
   34CHL1    C7 3633   3.736   5.681   6.190 -0.0292 -0.5306  0.1983
   34CHL1   H7A 3634   3.831   5.650   6.141 -0.2167 -2.1666  0.8379
   34CHL1   H7B 3635   3.670   5.606   6.142 -1.0123 -0.7438  1.8051
   34CHL1    C8 3636   3.696   5.813   6.126  0.6227 -0.0108 -0.1826
   34CHL1    H8 3637   3.779   5.886   6.117  0.6610 -0.0219  0.0669
   34CHL1   C14 3638   3.630   5.797   5.990  0.5459  0.2371  0.2798
   34CHL1   H14 3639   3.537   5.739   6.004  1.1450 -0.7466  0.3088
   34CHL1   C15 3640   3.713   5.718   5.890 -0.6193 -0.2825 -0.0097
   34CHL1  H15A 3641   3.819   5.750   5.877 -0.7889  1.0772  1.5928
   34CHL1  H15B 3642   3.719   5.609   5.907 -3.0239 -0.4426  0.0992
   34CHL1   C16 3643   3.633   5.741   5.757  0.1897  0.1322 -0.2636
   34CHL1  H16A 3644   3.699   5.761   5.670  0.5179  0.0445 -0.0373
   34CHL1  H16B 3645   3.570   5.652   5.736 -0.5529  0.6891 -0.4352
   34CHL1   C17 3646   3.531   5.855   5.784 -0.1598 -0.0186 -0.0387
   34CHL1   H17 3647   3.432   5.808   5.804 -0.1561  0.7930  2.1619
   34CHL1   C13 3648   3.587   5.918   5.918  0.3173  0.6398  0.7845
   34CHL1   C18 3649   3.699   6.019   5.889 -0.5382  0.1310  0.5463
   34CHL1  H18A 3650   3.742   5.988   5.792 -2.6325  2.8492 -1.4099
   34CHL1  H18B 3651   3.655   6.118   5.866 -0.3556 -0.3682 -2.2786
   34CHL1  H18C 3652   3.776   6.018   5.969 -0.3981  0.5687  0.4198
   34CHL1   C12 3653   3.476   5.979   6.005 -0.8619  0.6581 -0.2018
   34CHL1  H12A 3654   3.436   6.077   5.970  0.0117  0.6252 -1.3695
   34CHL1  H12B 3655   3.400   5.898   6.011 -1.1734  0.9568 -0.0687
   34CHL1   C11 3656   3.532   6.017   6.145  0.3321 -0.3189 -0.0454
   34CHL1  H11A 3657   3.616   6.089   6.145  0.5375 -0.5550 -0.5036
   34CHL1  H11B 3658   3.448   6.070   6.196  0.5721 -0.2992  0.3266
   34CHL1    C9 3659   3.581   5.890   6.215 -0.5061  0.9548 -0.2652
   34CHL1    H9 3660   3.499   5.814   6.210 -0.5578  0.7560  2.3143
   34CHL1   C10 3661   3.623   5.897   6.371 -0.1342 -0.6643 -0.4092
   34CHL1   C19 3662   3.730   6.007   6.396  0.6301  0.1269  0.2347
   34CHL1  H19A 3663   3.786   6.008   6.492  0.4775  0.7810  0.3251
   34CHL1  H19B 3664   3.814   5.999   6.324  0.5840  0.2727  0.1628
   34CHL1  H19C 3665   3.684   6.107   6.380 -0.0981 -0.1756  0.4206
   34CHL1    C1 3666   3.490   5.922   6.451 -1.1744 -0.7245 -0.9117
   34CHL1   H1A 3667   3.454   6.023   6.424  1.2370  0.4434 -0.0915
   34CHL1   H1B 3668   3.418   5.842   6.423 -0.3709 -3.3425  3.4480
   34CHL1    C2 3669   3.515   5.915   6.605 -0.0380  0.7089 -0.5874
   34CHL1   H2A 3670   3.421   5.938   6.661  0.5122 -0.9245  1.1098
   34CHL1   H2B 3671   3.581   5.997   6.642 -0.4421  0.9500 -0.3847
   34CHL1   C20 3672   3.509   5.949   5.663 -0.0921  0.5413  0.1912
   34CHL1   H20 3673   3.601   5.994   5.622 -0.7203  1.7289  0.0402
   34CHL1   C21 3674   3.412   6.056   5.702  0.5853 -0.0980 -0.3885
   34CHL1  H21A 3675   3.343   6.017   5.780  2.2359 -0.6283  0.8660
   34CHL1  H21B 3676   3.352   6.092   5.615 -1.3129  2.0149  1.6528
   34CHL1  H21C 3677   3.464   6.143   5.746  0.9300  0.6956 -2.2610
   34CHL1   C22 3678   3.450   5.866   5.541 -0.5102 -0.4379  0.0911
   34CHL1  H22A 3679   3.518   5.786   5.505 -0.1518 -0.1650  0.1570
   34CHL1  H22B 3680   3.352   5.829   5.578 -0.0752  0.1248  1.9145
   34CHL1   C23 3681   3.438   5.956   5.410 -1.2245  0.3690 -0.1336
   34CHL1  H23A 3682   3.378   6.047   5.433  1.6470  2.7915 -1.5658
   34CHL1  H23B 3683   3.542   5.981   5.380 -1.0637  0.0093  0.1217
   34CHL1   C24 3684   3.372   5.869   5.299 -0.0929 -0.0046 -0.0437
   34CHL1  H24A 3685   3.437   5.780   5.286 -0.0583 -0.1601  1.0577
   34CHL1  H24B 3686   3.275   5.834   5.339  0.0033  0.1971  0.3755
   34CHL1   C25 3687   3.343   5.943   5.168 -0.2240 -0.8625 -0.2697
   34CHL1   H25 3688   3.428   6.006   5.134  1.3835 -1.1994  2.8045
   34CHL1   C26 3689   3.318   5.852   5.048 -0.2595 -0.4719 -1.0252
   34CHL1  H26A 3690   3.240   5.778   5.078  0.6072 -1.9167 -2.1940
   34CHL1  H26B 3691   3.291   5.908   4.957 -0.7931  2.1109  0.6259
   34CHL1  H26C 3692   3.412   5.794   5.034  0.1895 -0.3696  1.1447
   34CHL1   C27 3693   3.225   6.042   5.177  0.4788  0.0644  0.4200
   34CHL1  H27A 3694   3.205   6.074   5.073 -1.3071 -1.0954  0.3476
   34CHL1  H27B 3695   3.129   5.994   5.207  0.9213  0.6858  3.1340
   34CHL1  H27C 3696   3.237   6.123   5.252  0.4677  1.0483 -0.6133
   35CHL1    C3 3697   4.311   0.645   6.787 -0.1431  0.5525  0.0044
   35CHL1    H3 3698   4.397   0.711   6.761  1.5852 -2.0023 -1.1281
   35CHL1    O3 3699   4.302   0.625   6.925 -0.2926 -0.1371  0.2973
   35CHL1   H3' 3700   4.272   0.536   6.943 -1.2741  0.2395  0.5618
   35CHL1    C4 3701   4.181   0.713   6.742 -0.4572  0.4016 -0.6596
   35CHL1   H4A 3702   4.094   0.663   6.789 -0.1665 -0.3225 -0.8798
   35CHL1   H4B 3703   4.166   0.811   6.793  0.1561 -1.1190  2.7167
   35CHL1    C5 3704   4.170   0.728   6.592  0.7012 -0.2819 -0.2082
   35CHL1    C6 3705   4.142   0.846   6.523  0.5420  0.0008  0.1136
   35CHL1    H6 3706   4.133   0.942   6.577  1.4882 -1.5350  3.2328
   35CHL1    C7 3707   4.132   0.852   6.371 -0.3623  0.6526  0.4441
   35CHL1   H7A 3708   4.046   0.910   6.332 -1.4286 -1.3109 -0.2521
   35CHL1   H7B 3709   4.228   0.905   6.349  0.7832 -2.2249 -2.1824
   35CHL1    C8 3710   4.134   0.720   6.295 -0.2442  0.6562 -0.2602
   35CHL1    H8 3711   4.031   0.680   6.299  0.6327 -1.6229  1.3076
   35CHL1   C14 3712   4.175   0.733   6.152  0.9172 -0.0423 -0.2646
   35CHL1   H14 3713   4.279   0.773   6.154  1.3759 -1.1918  0.3450
   35CHL1   C15 3714   4.110   0.850   6.079 -0.2665 -0.0679 -0.0448
   35CHL1  H15A 3715   4.000   0.846   6.084 -0.3058  0.4167 -0.4298
   35CHL1  H15B 3716   4.131   0.953   6.115  0.9416 -0.8728  1.6822
   35CHL1   C16 3717   4.152   0.824   5.931  0.2768  0.5346  0.7642
   35CHL1  H16A 3718   4.066   0.841   5.864  1.6022 -0.6879 -1.3454
   35CHL1  H16B 3719   4.222   0.901   5.893 -0.5550  0.1708 -1.6348
   35CHL1   C17 3720   4.201   0.684   5.925  0.8030 -0.0644  0.8683
   35CHL1   H17 3721   4.311   0.692   5.916  0.7033 -0.7229 -1.8656
   35CHL1   C13 3722   4.170   0.610   6.062 -1.1916 -0.5673 -0.8764
   35CHL1   C18 3723   4.023   0.556   6.066 -0.4182  0.4012  0.0928
   35CHL1  H18A 3724   3.952   0.641   6.058 -0.0571  0.8975  1.6968
   35CHL1  H18B 3725   3.994   0.486   5.985  2.7673 -0.7970 -0.1543
   35CHL1  H18C 3726   4.005   0.500   6.160  3.2231 -1.6521 -0.2511
   35CHL1   C12 3727   4.272   0.513   6.126 -0.2890 -0.3289 -0.0052
   35CHL1  H12A 3728   4.284   0.419   6.068 -0.1215  0.3830 -1.1567
   35CHL1  H12B 3729   4.371   0.563   6.122 -0.4913  0.2093  1.2684
   35CHL1   C11 3730   4.248   0.489   6.277 -0.2112  0.1898  0.5326
   35CHL1  H11A 3731   4.153   0.432   6.274  0.0627 -0.4831 -5.0914
   35CHL1  H11B 3732   4.334   0.430   6.318  0.8671  1.4971  0.2113
   35CHL1    C9 3733   4.229   0.620   6.362 -0.2295  0.3210 -0.0960
   35CHL1    H9 3734   4.325   0.676   6.366  0.4157 -0.6873 -0.8174
   35CHL1   C10 3735   4.196   0.594   6.514 -0.0241 -0.0223  0.4054
   35CHL1   C19 3736   4.078   0.502   6.531 -0.2983 -0.6508 -0.3656
   35CHL1  H19A 3737   4.084   0.411   6.468 -0.8823 -0.2104 -1.0699
   35CHL1  H19B 3738   4.074   0.476   6.639  1.4965 -2.1160 -0.6182
   35CHL1  H19C 3739   3.982   0.551   6.504  0.5556  1.5229  0.3390
   35CHL1    C1 3740   4.327   0.519   6.570  0.1146 -0.4750 -0.0651
   35CHL1   H1A 3741   4.317   0.417   6.526  0.4243 -0.3436 -0.4488
   35CHL1   H1B 3742   4.420   0.560   6.524 -0.9897  1.5222 -0.6003
   35CHL1    C2 3743   4.334   0.509   6.720 -0.1494  0.1117 -0.1735
   35CHL1   H2A 3744   4.429   0.458   6.749 -1.0991 -1.1966  0.7145
   35CHL1   H2B 3745   4.250   0.445   6.752 -0.7036 -0.1586 -2.0459
   35CHL1   C20 3746   4.152   0.607   5.792  0.6645  0.2738 -0.3974
   35CHL1   H20 3747   4.041   0.601   5.782  0.8007  0.2728 -2.0898
   35CHL1   C21 3748   4.216   0.473   5.799  0.1258 -0.0266 -0.0389
   35CHL1  H21A 3749   4.251   0.444   5.697  0.7747  0.2533  0.0965
   35CHL1  H21B 3750   4.148   0.392   5.833  1.1693 -2.3992 -3.1200
   35CHL1  H21C 3751   4.306   0.480   5.863 -0.3049 -1.9364  0.8216
   35CHL1   C22 3752   4.190   0.678   5.662  0.7476  0.4762 -0.1235
   35CHL1  H22A 3753   4.174   0.787   5.670 -1.5230  0.3309 -1.8636
   35CHL1  H22B 3754   4.299   0.663   5.646  0.5343 -1.7714  0.1647
   35CHL1   C23 3755   4.108   0.633   5.548 -0.3079 -0.1104 -0.0009
   35CHL1  H23A 3756   4.134   0.528   5.525 -0.9097 -0.0732 -0.9062
   35CHL1  H23B 3757   4.001   0.638   5.579 -0.2418 -0.1003  0.2299
   35CHL1   C24 3758   4.133   0.722   5.423 -0.3908 -0.3923  0.5744
   35CHL1  H24A 3759   4.115   0.827   5.455  1.7649 -0.5216  2.5699
   35CHL1  H24B 3760   4.240   0.711   5.393 -1.3920  0.7538 -4.1288
   35CHL1   C25 3761   4.047   0.687   5.299  0.2202  0.5052  0.1928
   35CHL1   H25 3762   4.076   0.587   5.261 -2.4991  0.0467 -0.8811
   35CHL1   C26 3763   3.895   0.692   5.337 -0.2176  0.2924 -0.1260
   35CHL1  H26A 3764   3.864   0.612   5.408 -1.8481 -1.5835 -2.7515
   35CHL1  H26B 3765   3.866   0.789   5.382 -2.0848 -0.1330 -0.3056
   35CHL1  H26C 3766   3.841   0.669   5.243  1.4922  1.0574 -1.3418
   35CHL1   C27 3767   4.066   0.789   5.182  0.1908 -0.9633  0.3020
   35CHL1  H27A 3768   4.176   0.800   5.170  0.0054 -0.3203 -1.0319
   35CHL1  H27B 3769   4.031   0.743   5.087  0.5801  0.3846 -0.5373
   35CHL1  H27C 3770   4.017   0.888   5.193  2.2868  0.5285 -2.3573
   36CHL1    C3 3771   1.337   4.983   6.715 -0.3112  0.5013  0.4066
   36CHL1    H3 3772   1.387   5.082   6.713  1.0188 -0.1446 -1.6587
   36CHL1    O3 3773   1.325   4.937   6.848 -0.6022 -0.6301 -0.1346
   36CHL1   H3' 3774   1.274   4.856   6.847  1.8277 -2.2525 -0.5972
   36CHL1    C4 3775   1.198   4.974   6.651 -0.4196  0.4592 -0.2201
   36CHL1   H4A 3776   1.158   4.875   6.679  0.8567  0.6422  2.4649
   36CHL1   H4B 3777   1.133   5.046   6.705 -0.3867  0.7903 -0.6130
   36CHL1    C5 3778   1.189   4.995   6.504  0.2252 -0.2638  0.3827
   36CHL1    C6 3779   1.100   5.076   6.440  0.4821 -0.1416  0.0056
   36CHL1    H6 3780   1.029   5.127   6.507 -0.2437  1.8401 -2.1385
   36CHL1    C7 3781   1.093   5.101   6.297 -0.5485 -0.5434  1.0249
   36CHL1   H7A 3782   0.988   5.124   6.272 -0.5387 -1.9591 -0.4643
   36CHL1   H7B 3783   1.149   5.195   6.276 -1.4097 -0.3720 -0.6698
   36CHL1    C8 3784   1.156   4.989   6.213 -0.5558 -0.1217  0.0376
   36CHL1    H8 3785   1.090   4.900   6.220  0.7882 -1.0854  1.0456
   36CHL1   C14 3786   1.167   5.020   6.061  0.0920  0.3276  0.2088
   36CHL1   H14 3787   1.240   5.104   6.052 -0.7817  0.9050 -2.2361
   36CHL1   C15 3788   1.041   5.061   5.978  1.0793 -0.7428 -0.3616
   36CHL1  H15A 3789   0.952   4.998   5.997  1.6744 -1.0629  1.5391
   36CHL1  H15B 3790   1.014   5.169   5.982 -1.3311 -1.2678 -0.9792
   36CHL1   C16 3791   1.083   5.038   5.834  0.1982 -0.8835  0.8077
   36CHL1  H16A 3792   1.012   4.963   5.792 -1.3001  0.8927 -0.0275
   36CHL1  H16B 3793   1.091   5.129   5.770 -1.6477 -0.2768  1.3633
   36CHL1   C17 3794   1.225   4.970   5.840  0.7128 -0.0047  0.3424
   36CHL1   H17 3795   1.300   5.051   5.847  2.3977 -1.1494 -2.6016
   36CHL1   C13 3796   1.239   4.909   5.982 -0.6084  0.8371  0.0144
   36CHL1   C18 3797   1.158   4.774   5.986  0.2073 -0.4055  0.3852
   36CHL1  H18A 3798   1.108   4.752   6.083 -0.7077 -0.6981 -0.1477
   36CHL1  H18B 3799   1.093   4.776   5.896  4.3192  1.1677 -2.9205
   36CHL1  H18C 3800   1.222   4.685   5.970  1.2127  0.3782 -0.0493
   36CHL1   C12 3801   1.380   4.882   6.040  0.0777 -0.0735  0.8491
   36CHL1  H12A 3802   1.431   4.804   5.980  1.9063  0.5523  1.5219
   36CHL1  H12B 3803   1.431   4.980   6.031 -3.5244  1.8667 -1.1031
   36CHL1   C11 3804   1.371   4.847   6.186  0.3736  0.2571  0.1202
   36CHL1  H11A 3805   1.318   4.750   6.188 -0.4662  0.7120  0.7389
   36CHL1  H11B 3806   1.475   4.838   6.225  0.4728 -2.2743 -0.6109
   36CHL1    C9 3807   1.297   4.952   6.271 -0.3124  0.4237  0.4109
   36CHL1    H9 3808   1.359   5.043   6.260 -0.2770  0.5661  1.6884
   36CHL1   C10 3809   1.292   4.912   6.418  1.3885  0.1368 -0.2141
   36CHL1   C19 3810   1.247   4.763   6.424  0.1669 -0.0000 -0.2619
   36CHL1  H19A 3811   1.327   4.692   6.397  0.4028 -0.4692  1.5285
   36CHL1  H19B 3812   1.225   4.738   6.530 -1.7580  1.4202 -0.2691
   36CHL1  H19C 3813   1.155   4.750   6.363 -0.0763  0.9525 -0.1155
   36CHL1    C1 3814   1.428   4.935   6.485 -0.2021  0.1919  0.7531
   36CHL1   H1A 3815   1.499   4.880   6.419  0.0304  2.3991 -0.9250
   36CHL1   H1B 3816   1.463   5.040   6.472 -0.2470  0.1069 -0.1257
   36CHL1    C2 3817   1.434   4.894   6.629 -0.0766 -0.8995 -0.5229
   36CHL1   H2A 3818   1.538   4.907   6.665 -0.5929  0.4233  0.5666
   36CHL1   H2B 3819   1.414   4.786   6.648 -3.1104  0.0910  2.9159
   36CHL1   C20 3820   1.260   4.892   5.717 -0.2411  0.0463 -0.0615
   36CHL1   H20 3821   1.179   4.816   5.709 -3.0399  2.8705 -1.1058
   36CHL1   C21 3822   1.397   4.820   5.729 -0.0080 -0.0603  0.0617
   36CHL1  H21A 3823   1.394   4.734   5.799  1.7904 -0.3467 -0.1614
   36CHL1  H21B 3824   1.484   4.887   5.747 -0.5635  0.5699  0.4397
   36CHL1  H21C 3825   1.418   4.776   5.629 -1.2469  0.1093 -0.2896
   36CHL1   C22 3826   1.259   4.972   5.587 -0.7185  0.4917 -0.8255
   36CHL1  H22A 3827   1.158   5.014   5.568 -1.5376 -1.0615 -0.1328
   36CHL1  H22B 3828   1.337   5.050   5.595  0.5433 -0.7609 -0.4560
   36CHL1   C23 3829   1.294   4.886   5.460  0.1039  0.0723  0.5199
   36CHL1  H23A 3830   1.401   4.861   5.448 -0.0504  0.0500 -1.0122
   36CHL1  H23B 3831   1.238   4.790   5.466  1.1969 -0.6238 -0.0902
   36CHL1   C24 3832   1.252   4.958   5.333 -0.1082 -0.5973  0.4713
   36CHL1  H24A 3833   1.145   4.986   5.347 -0.7952 -0.6525 -3.5145
   36CHL1  H24B 3834   1.308   5.054   5.322 -2.8344  1.3639  2.2371
   36CHL1   C25 3835   1.256   4.879   5.202 -0.0480 -0.1398 -0.8817
   36CHL1   H25 3836   1.201   4.783   5.213  0.8372 -0.5284  0.3955
   36CHL1   C26 3837   1.175   4.962   5.098  0.6041 -0.3114 -0.2841
   36CHL1  H26A 3838   1.077   4.990   5.143  2.0376  0.6135  2.4943
   36CHL1  H26B 3839   1.226   5.059   5.077  1.0976 -0.9882 -2.4738
   36CHL1  H26C 3840   1.150   4.911   5.003 -1.1177  0.3005 -0.1898
   36CHL1   C27 3841   1.398   4.862   5.143  0.4819 -0.4686  0.0199
   36CHL1  H27A 3842   1.452   4.959   5.140 -0.3194  0.1181  2.4556
   36CHL1  H27B 3843   1.444   4.794   5.218  0.8323 -0.3823 -0.1158
   36CHL1  H27C 3844   1.388   4.818   5.042 -0.1834  1.0184 -0.5972
   37CHL1    C3 3845   1.070   1.541   6.248  0.1417  0.8101  0.7992
   37CHL1    H3 3846   1.118   1.641   6.236 -0.2552  0.8691 -0.3932
   37CHL1    O3 3847   1.054   1.524   6.388 -0.4208  0.2373 -0.5395
   37CHL1   H3' 3848   1.015   1.608   6.417  1.1457  0.7075  0.3020
   37CHL1    C4 3849   0.930   1.531   6.188  0.2045 -0.2175 -0.1221
   37CHL1   H4A 3850   0.885   1.432   6.210 -1.0853 -0.1637 -2.2391
   37CHL1   H4B 3851   0.870   1.618   6.223  1.3686  1.5127 -2.1500
   37CHL1    C5 3852   0.935   1.536   6.037  0.9547  0.9145  0.7058
   37CHL1    C6 3853   0.866   1.632   5.970 -0.2683 -0.0463 -0.0255
   37CHL1    H6 3854   0.806   1.697   6.035 -0.6606  0.8106 -1.2068
   37CHL1    C7 3855   0.860   1.654   5.822 -0.0369 -0.0860 -0.1657
   37CHL1   H7A 3856   0.757   1.660   5.783 -0.6014  0.2371  1.3078
   37CHL1   H7B 3857   0.917   1.744   5.791 -1.4192  0.3129 -1.6647
   37CHL1    C8 3858   0.927   1.536   5.753  0.0563  0.6319  0.5319
   37CHL1    H8 3859   0.852   1.455   5.748 -1.2012  1.8074 -0.2492
   37CHL1   C14 3860   0.958   1.565   5.607  0.3197  0.4920 -0.1034
   37CHL1   H14 3861   1.028   1.651   5.611  0.6357  0.1932  0.9580
   37CHL1   C15 3862   0.843   1.614   5.517 -0.5491  0.3997 -0.4320
   37CHL1  H15A 3863   0.757   1.544   5.518 -0.2562  0.0209  0.8917
   37CHL1  H15B 3864   0.805   1.713   5.552 -2.9950 -1.1226  1.5237
   37CHL1   C16 3865   0.910   1.616   5.378  0.3039  0.4314  0.4925
   37CHL1  H16A 3866   0.839   1.574   5.305 -1.4981  3.0900  0.5779
   37CHL1  H16B 3867   0.940   1.720   5.351  1.0698 -0.6137 -3.2728
   37CHL1   C17 3868   1.044   1.528   5.388  0.0278 -0.0596 -0.6490
   37CHL1   H17 3869   1.130   1.596   5.407  0.5108 -0.7907 -0.1726
   37CHL1   C13 3870   1.029   1.454   5.527  0.2870 -0.1495 -0.2265
   37CHL1   C18 3871   0.937   1.329   5.505 -0.4226  0.2872  0.0484
   37CHL1  H18A 3872   0.918   1.279   5.602 -0.1694 -1.7712 -0.9185
   37CHL1  H18B 3873   0.842   1.361   5.455  0.8763 -0.5501 -3.2255
   37CHL1  H18C 3874   0.999   1.269   5.435  1.0808  2.5450 -0.6987
   37CHL1   C12 3875   1.161   1.418   5.596 -0.3626  0.2581  0.2684
   37CHL1  H12A 3876   1.219   1.338   5.545  0.2631  1.5203 -1.0753
   37CHL1  H12B 3877   1.222   1.510   5.608 -2.2049  1.4056  1.3463
   37CHL1   C11 3878   1.135   1.382   5.742  0.1401 -0.8098  0.0345
   37CHL1  H11A 3879   1.082   1.284   5.739  1.0026 -1.2894  0.2440
   37CHL1  H11B 3880   1.236   1.360   5.783  0.7593  2.3789  0.4828
   37CHL1    C9 3881   1.050   1.480   5.828  0.7057 -0.2736  0.1737
   37CHL1    H9 3882   1.116   1.569   5.835 -0.5530  0.6572  0.6693
   37CHL1   C10 3883   1.027   1.432   5.976  0.1263  0.4179 -0.1288
   37CHL1   C19 3884   0.948   1.304   5.978  0.1460  0.0306 -0.2356
   37CHL1  H19A 3885   0.847   1.321   5.934  0.7179  1.4772 -1.0785
   37CHL1  H19B 3886   1.002   1.228   5.918 -1.7495 -1.3752 -0.2384
   37CHL1  H19C 3887   0.929   1.259   6.078  2.9427 -3.4273 -1.0478
   37CHL1    C1 3888   1.164   1.417   6.038  0.5252  1.3996  0.5958
   37CHL1   H1A 3889   1.214   1.328   5.994 -1.2115 -1.4253  3.8295
   37CHL1   H1B 3890   1.223   1.498   5.991 -1.8966  1.5213 -2.5558
   37CHL1    C2 3891   1.161   1.425   6.192 -0.1705  0.4394  0.0301
   37CHL1   H2A 3892   1.269   1.436   6.217  0.7176 -1.6584 -2.4011
   37CHL1   H2B 3893   1.130   1.327   6.235  0.6739  0.3301  0.4147
   37CHL1   C20 3894   1.074   1.457   5.255 -0.3403  0.1590  0.3852
   37CHL1   H20 3895   1.012   1.365   5.241  2.0667 -1.5059  0.0874
   37CHL1   C21 3896   1.222   1.391   5.252  0.3236  0.6433 -0.3486
   37CHL1  H21A 3897   1.242   1.339   5.348 -0.3666 -1.0277 -1.0721
   37CHL1  H21B 3898   1.304   1.464   5.235 -0.1861  0.9527 -1.6065
   37CHL1  H21C 3899   1.236   1.311   5.176  0.8296  0.2773  0.1263
   37CHL1   C22 3900   1.065   1.553   5.135  0.0765 -0.3202 -0.4283
   37CHL1  H22A 3901   0.966   1.604   5.124  2.0955  3.9869 -0.7341
   37CHL1  H22B 3902   1.123   1.642   5.168 -0.7372 -0.2596  0.9475
   37CHL1   C23 3903   1.100   1.510   4.992 -0.2139  0.3512  0.0129
   37CHL1  H23A 3904   1.071   1.587   4.917  0.2821  0.7247  0.1985
   37CHL1  H23B 3905   1.209   1.487   4.984 -0.5837 -1.2988 -0.6345
   37CHL1   C24 3906   1.025   1.381   4.963 -0.4396  0.3126 -0.0939
   37CHL1  H24A 3907   1.077   1.305   5.026  0.5212  0.2540 -0.9418
   37CHL1  H24B 3908   0.920   1.398   4.996 -0.0998 -1.1483  1.9799
   37CHL1   C25 3909   1.020   1.339   4.812 -0.6299 -0.0475 -0.2074
   37CHL1   H25 3910   1.042   1.431   4.754  1.3373  0.0866  0.6900
   37CHL1   C26 3911   1.125   1.223   4.804 -0.1199  0.2114 -0.4341
   37CHL1  H26A 3912   1.127   1.186   4.699  0.7694 -0.1489 -0.3018
   37CHL1  H26B 3913   1.226   1.261   4.831 -0.6129  1.3180 -0.0892
   37CHL1  H26C 3914   1.110   1.145   4.882 -0.2110 -1.5037 -2.1080
   37CHL1   C27 3915   0.880   1.280   4.787  0.4393 -0.4748  0.1868
   37CHL1  H27A 3916   0.807   1.358   4.819  0.0776 -0.1578 -1.3346
   37CHL1  H27B 3917   0.865   1.263   4.678  2.8580  1.0440 -0.4469
   37CHL1  H27C 3918   0.865   1.188   4.848  1.8714  0.1521  1.5505
   38CHL1    C3 3919   3.692   2.923   6.340 -1.1598  0.5271  0.0964
   38CHL1    H3 3920   3.654   3.020   6.303 -2.2673 -0.4246 -1.3764
   38CHL1    O3 3921   3.699   2.912   6.484 -0.0261 -0.1183 -0.5385
   38CHL1   H3' 3922   3.742   2.831   6.512 -0.4020 -0.3444 -0.6018
   38CHL1    C4 3923   3.596   2.810   6.291  0.4930 -0.7202  0.1454
   38CHL1   H4A 3924   3.634   2.720   6.344  0.1206 -0.2971  1.1602
   38CHL1   H4B 3925   3.496   2.830   6.333 -0.0367 -1.5982 -0.6478
   38CHL1    C5 3926   3.593   2.795   6.140  0.7643 -0.0796  0.2471
   38CHL1    C6 3927   3.476   2.813   6.072 -0.6184  0.4023 -0.4103
   38CHL1    H6 3928   3.383   2.825   6.129 -0.8168  0.4134 -0.7361
   38CHL1    C7 3929   3.458   2.801   5.922 -0.2366 -0.0290  0.3890
   38CHL1   H7A 3930   3.363   2.747   5.903 -1.2025  1.2900  1.2790
   38CHL1   H7B 3931   3.458   2.906   5.884  0.9302 -0.3484 -0.5320
   38CHL1    C8 3932   3.580   2.726   5.867  0.3275  0.5399  0.4271
   38CHL1    H8 3933   3.578   2.618   5.891  1.3445  0.1852 -0.9403
   38CHL1   C14 3934   3.569   2.726   5.712  0.3004 -0.1057 -0.2259
   38CHL1   H14 3935   3.571   2.832   5.679 -0.0637  1.2149  3.5751
   38CHL1   C15 3936   3.445   2.676   5.644  0.3163 -0.3187  0.0284
   38CHL1  H15A 3937   3.422   2.577   5.688  2.0644 -0.9807 -0.4639
   38CHL1  H15B 3938   3.355   2.741   5.655  1.0249  0.4400  1.6189
   38CHL1   C16 3939   3.487   2.663   5.496  0.4724  0.1160  0.1844
   38CHL1  H16A 3940   3.462   2.558   5.468 -2.4615  0.6097  0.6817
   38CHL1  H16B 3941   3.427   2.734   5.436 -0.4246 -2.2144 -1.8525
   38CHL1   C17 3942   3.636   2.686   5.484  0.5815  0.4673  0.1069
   38CHL1   H17 3943   3.654   2.791   5.452 -1.3745  0.0623 -2.5785
   38CHL1   C13 3944   3.689   2.670   5.638  0.2104 -0.1996 -0.2655
   38CHL1   C18 3945   3.708   2.521   5.675 -0.2895  0.4183  0.5420
   38CHL1  H18A 3946   3.800   2.476   5.632  1.0655  1.8826  1.7460
   38CHL1  H18B 3947   3.713   2.504   5.785  0.0803 -0.7683  0.3493
   38CHL1  H18C 3948   3.628   2.462   5.626  0.3709  0.4696 -0.6295
   38CHL1   C12 3949   3.810   2.762   5.678  0.0704 -0.0058  0.1992
   38CHL1  H12A 3950   3.902   2.730   5.623 -0.1484  1.8794 -1.3862
   38CHL1  H12B 3951   3.786   2.864   5.643 -0.8507  0.3011  1.6588
   38CHL1   C11 3952   3.835   2.751   5.830  0.0681  0.1645  0.2995
   38CHL1  H11A 3953   3.873   2.651   5.859  1.0631  0.1774 -0.8866
   38CHL1  H11B 3954   3.918   2.820   5.859 -0.5927  2.0000 -1.8486
   38CHL1    C9 3955   3.709   2.795   5.917 -0.0326 -0.0950  0.1819
   38CHL1    H9 3956   3.703   2.904   5.899 -0.4299 -0.0439  0.6208
   38CHL1   C10 3957   3.727   2.783   6.070  0.5865  0.3782 -0.3251
   38CHL1   C19 3958   3.792   2.646   6.103  1.1680  0.3083 -0.2718
   38CHL1  H19A 3959   3.890   2.649   6.051  0.0103  0.1538 -2.6140
   38CHL1  H19B 3960   3.803   2.620   6.210  0.8102 -0.8909 -0.5033
   38CHL1  H19C 3961   3.737   2.561   6.057 -0.9226  0.3379  1.9843
   38CHL1    C1 3962   3.820   2.894   6.123 -0.1581  0.3180  0.2634
   38CHL1   H1A 3963   3.919   2.886   6.074 -0.5845 -0.4788 -0.5051
   38CHL1   H1B 3964   3.783   2.994   6.091  2.1055  0.9675 -0.5169
   38CHL1    C2 3965   3.825   2.899   6.279 -0.4704  0.4075  0.2744
   38CHL1   H2A 3966   3.896   2.980   6.308 -0.0732  0.5798 -1.1108
   38CHL1   H2B 3967   3.866   2.803   6.316 -1.7592 -1.1581 -2.1466
   38CHL1   C20 3968   3.707   2.598   5.382  0.7937 -0.4728 -1.0040
   38CHL1   H20 3969   3.694   2.490   5.402 -0.1092 -0.2082 -0.0847
   38CHL1   C21 3970   3.859   2.633   5.364  0.5085  0.2052  0.3912
   38CHL1  H21A 3971   3.915   2.611   5.456  0.2947 -1.8636  0.0595
   38CHL1  H21B 3972   3.870   2.741   5.338 -0.8245  0.3430  0.3013
   38CHL1  H21C 3973   3.897   2.576   5.276  0.3355 -1.2826  1.2550
   38CHL1   C22 3974   3.632   2.608   5.246 -0.2297 -0.3460 -0.0160
   38CHL1  H22A 3975   3.678   2.522   5.192  2.8329  1.7926 -1.1155
   38CHL1  H22B 3976   3.525   2.584   5.260 -0.1874  0.2912  1.5051
   38CHL1   C23 3977   3.667   2.735   5.166  0.0595 -0.2394  0.9402
   38CHL1  H23A 3978   3.667   2.812   5.247  1.0752 -0.3784  1.0924
   38CHL1  H23B 3979   3.768   2.720   5.123 -0.3692 -0.7260  0.0820
   38CHL1   C24 3980   3.556   2.764   5.055 -0.4769  0.8449  0.3679
   38CHL1  H24A 3981   3.572   2.694   4.970  1.6098  1.7857 -0.0975
   38CHL1  H24B 3982   3.458   2.741   5.102 -0.6495  1.2918  0.2342
   38CHL1   C25 3983   3.561   2.896   4.986  0.3986 -0.6057  0.0268
   38CHL1   H25 3984   3.577   2.976   5.061 -0.0819 -0.8275  0.3716
   38CHL1   C26 3985   3.678   2.900   4.884  0.0159 -0.1124 -0.2678
   38CHL1  H26A 3986   3.681   3.003   4.842 -1.0361 -0.6440 -1.7248
   38CHL1  H26B 3987   3.773   2.871   4.934  0.5938  0.0087 -1.2784
   38CHL1  H26C 3988   3.651   2.829   4.803  0.7465  2.4203 -2.9136
   38CHL1   C27 3989   3.420   2.926   4.925  0.5097 -0.8316  0.0832
   38CHL1  H27A 3990   3.426   3.028   4.882  0.7198  0.6405  3.3201
   38CHL1  H27B 3991   3.394   2.855   4.843  1.2604  1.3536 -2.1857
   38CHL1  H27C 3992   3.340   2.927   5.002 -2.0001 -0.7513 -2.3728
   39CHL1    C3 3993   4.847   2.438   6.425  0.7486  0.1942  0.4021
   39CHL1    H3 3994   4.951   2.414   6.393  0.9649  3.0976 -1.3733
   39CHL1    O3 3995   4.836   2.436   6.570  0.3433  0.4030 -0.4645
   39CHL1   H3' 3996   4.743   2.457   6.581  0.3363 -0.1848  0.8284
   39CHL1    C4 3997   4.827   2.581   6.364  0.0722  0.3893  0.2930
   39CHL1   H4A 3998   4.738   2.638   6.400 -0.3048 -0.7791  1.3063
   39CHL1   H4B 3999   4.904   2.648   6.407  1.0682 -0.1116 -0.6454
   39CHL1    C5 4000   4.840   2.579   6.214  0.4114 -0.2179  0.4360
   39CHL1    C6 4001   4.933   2.648   6.156  0.4085  0.1134 -0.6832
   39CHL1    H6 4002   5.012   2.699   6.213 -0.9267  0.4853  0.9428
   39CHL1    C7 4003   4.947   2.650   6.012  0.4545  0.3849  0.2035
   39CHL1   H7A 4004   5.005   2.738   5.978 -1.2057  0.9390 -1.3256
   39CHL1   H7B 4005   5.019   2.570   5.987 -0.4571 -0.8613  1.4095
   39CHL1    C8 4006   4.814   2.622   5.935 -0.1929  0.0706  0.3774
   39CHL1    H8 4007   4.749   2.711   5.956  0.7505  0.9025 -0.1269
   39CHL1   C14 4008   4.843   2.621   5.785  0.4483 -0.4069  0.4582
   39CHL1   H14 4009   4.910   2.534   5.768  0.3364 -0.4538  0.2533
   39CHL1   C15 4010   4.899   2.743   5.714 -0.2729 -0.1314 -0.2822
   39CHL1  H15A 4011   4.859   2.839   5.754  1.2266  0.3479  0.1335
   39CHL1  H15B 4012   5.009   2.753   5.731 -0.9157  2.7901  3.7052
   39CHL1   C16 4013   4.867   2.720   5.566 -0.2210  0.1484  0.5622
   39CHL1  H16A 4014   4.821   2.819   5.543  2.3879  1.1445 -0.8331
   39CHL1  H16B 4015   4.954   2.692   5.503  0.2749 -0.7333  1.6043
   39CHL1   C17 4016   4.783   2.590   5.552  0.0932 -0.5870 -0.6171
   39CHL1   H17 4017   4.854   2.506   5.541 -0.5909 -1.1004 -1.2320
   39CHL1   C13 4018   4.720   2.577   5.701 -0.6762 -0.1057 -0.4235
   39CHL1   C18 4019   4.597   2.677   5.709 -0.6267  0.2564  0.1614
   39CHL1  H18A 4020   4.529   2.662   5.622  0.6548 -0.9811 -0.6660
   39CHL1  H18B 4021   4.540   2.672   5.804 -1.2319  2.5995 -0.0211
   39CHL1  H18C 4022   4.617   2.786   5.705 -2.9719  0.7193 -0.9102
   39CHL1   C12 4023   4.672   2.439   5.751  0.2590  0.8645  0.1973
   39CHL1  H12A 4024   4.580   2.415   5.694  0.3979 -1.0679  0.7098
   39CHL1  H12B 4025   4.733   2.354   5.712 -1.8375 -0.1778 -0.9605
   39CHL1   C11 4026   4.643   2.433   5.906 -0.4559  0.2595  0.6551
   39CHL1  H11A 4027   4.545   2.482   5.923 -1.3252 -1.3433  0.5206
   39CHL1  H11B 4028   4.622   2.327   5.933  0.4341 -0.9839 -2.9035
   39CHL1    C9 4029   4.760   2.487   5.990  0.9510  0.7217  0.3124
   39CHL1    H9 4030   4.846   2.419   5.971  0.4680  0.6732 -2.0576
   39CHL1   C10 4031   4.738   2.493   6.145  0.5282 -0.7602  0.6042
   39CHL1   C19 4032   4.605   2.558   6.184  0.6184  0.2531  0.3599
   39CHL1  H19A 4033   4.583   2.550   6.293 -0.6332 -2.7350 -0.0211
   39CHL1  H19B 4034   4.604   2.661   6.142 -0.5886 -0.6319 -1.9514
   39CHL1  H19C 4035   4.519   2.512   6.131  0.5426  1.8822 -1.0053
   39CHL1    C1 4036   4.744   2.350   6.200  0.0387  0.3457  0.4152
   39CHL1   H1A 4037   4.657   2.301   6.150  0.8116  1.4244 -2.1126
   39CHL1   H1B 4038   4.836   2.298   6.168  0.3433  0.9944  0.2336
   39CHL1    C2 4039   4.741   2.345   6.359 -0.1903 -0.3747  1.2550
   39CHL1   H2A 4040   4.760   2.242   6.396  0.6691 -0.2830  1.0915
   39CHL1   H2B 4041   4.635   2.367   6.384 -0.9575 -1.6530 -0.6450
   39CHL1   C20 4042   4.689   2.588   5.427 -0.0222  0.3314 -0.2679
   39CHL1   H20 4043   4.623   2.677   5.425 -1.1890 -0.4792  0.7330
   39CHL1   C21 4044   4.602   2.466   5.418 -0.4932  0.0339 -0.0727
   39CHL1  H21A 4045   4.536   2.451   5.329 -0.0972  1.0021 -0.5430
   39CHL1  H21B 4046   4.528   2.475   5.500 -1.2877 -0.1843 -0.7445
   39CHL1  H21C 4047   4.659   2.372   5.431  0.3732  0.8007  1.9987
   39CHL1   C22 4048   4.779   2.599   5.296  0.5438 -0.0630 -0.2716
   39CHL1  H22A 4049   4.851   2.684   5.298  0.4088  0.0840 -1.1118
   39CHL1  H22B 4050   4.836   2.505   5.280  1.1385  0.2579 -0.0737
   39CHL1   C23 4051   4.703   2.617   5.172  0.4375 -0.2479 -0.0195
   39CHL1  H23A 4052   4.605   2.564   5.178 -0.1875  0.7164 -1.3781
   39CHL1  H23B 4053   4.664   2.720   5.179  0.4509 -0.1931 -0.6673
   39CHL1   C24 4054   4.784   2.597   5.038  0.5372 -0.1490 -0.6628
   39CHL1  H24A 4055   4.887   2.638   5.045  0.5113 -0.2078  0.1662
   39CHL1  H24B 4056   4.790   2.486   5.046  0.1852 -0.3106 -2.3188
   39CHL1   C25 4057   4.701   2.622   4.907  0.1414  0.3669 -0.5499
   39CHL1   H25 4058   4.665   2.727   4.908 -3.5309 -0.7153  2.0832
   39CHL1   C26 4059   4.793   2.592   4.794  0.0349 -0.1423  0.2290
   39CHL1  H26A 4060   4.753   2.644   4.705  1.2994 -1.2564 -1.0302
   39CHL1  H26B 4061   4.898   2.623   4.811  0.1084  1.0404 -2.0935
   39CHL1  H26C 4062   4.785   2.485   4.764  0.9160 -0.9558  2.6642
   39CHL1   C27 4063   4.581   2.532   4.892  1.0213  0.3550 -0.0295
   39CHL1  H27A 4064   4.610   2.425   4.881 -0.6040  0.0237 -1.3455
   39CHL1  H27B 4065   4.499   2.539   4.966  0.1580 -0.6063 -0.8737
   39CHL1  H27C 4066   4.533   2.545   4.793 -2.1236  0.2833  1.3564
   40CHL1    C3 4067   4.850   0.823   6.658  0.0319  0.5225  0.8321
   40CHL1    H3 4068   4.884   0.923   6.625  0.1298 -0.5339 -2.6416
   40CHL1    O3 4069   4.869   0.828   6.796  0.1523  0.0097  0.4131
   40CHL1   H3' 4070   4.887   0.738   6.822  1.5566 -0.2383 -1.1894
   40CHL1    C4 4071   4.696   0.794   6.617 -0.3974  0.0685 -0.2709
   40CHL1   H4A 4072   4.670   0.701   6.671  0.5913  0.1762  0.4138
   40CHL1   H4B 4073   4.644   0.881   6.664  1.6156  1.7160 -0.9590
   40CHL1    C5 4074   4.673   0.794   6.471  0.1026  0.5379 -1.0360
   40CHL1    C6 4075   4.592   0.873   6.405 -0.0436  0.2496  1.1355
   40CHL1    H6 4076   4.531   0.942   6.465 -3.3339 -1.0070 -0.4991
   40CHL1    C7 4077   4.572   0.881   6.257 -0.1216  0.1687  0.4052
   40CHL1   H7A 4078   4.464   0.877   6.230 -0.0608 -0.1479  0.2014
   40CHL1   H7B 4079   4.610   0.979   6.219 -4.8349  1.1258 -2.7867
   40CHL1    C8 4080   4.636   0.768   6.178  0.4487 -0.4935  0.2036
   40CHL1    H8 4081   4.572   0.678   6.186 -0.9691  0.6412  2.4506
   40CHL1   C14 4082   4.665   0.810   6.035 -0.6162  0.0464  0.3138
   40CHL1   H14 4083   4.755   0.874   6.035  0.1231 -0.9459  1.5975
   40CHL1   C15 4084   4.550   0.884   5.960 -0.0757  0.0547  0.0675
   40CHL1  H15A 4085   4.458   0.827   5.982  0.2125 -0.4518 -0.0285
   40CHL1  H15B 4086   4.541   0.991   5.988  1.2276  0.1441  0.2375
   40CHL1   C16 4087   4.593   0.873   5.819 -0.0925  0.3079  0.9798
   40CHL1  H16A 4088   4.510   0.839   5.753  0.9181 -2.1950  0.8720
   40CHL1  H16B 4089   4.633   0.970   5.783 -0.3502  1.1449  2.8379
   40CHL1   C17 4090   4.717   0.766   5.808  0.4665 -0.9567 -0.0195
   40CHL1   H17 4091   4.812   0.823   5.799  1.2990 -2.3775 -0.5608
   40CHL1   C13 4092   4.713   0.693   5.943  0.3156 -0.3324  0.3376
   40CHL1   C18 4093   4.602   0.581   5.952  0.2320  0.0920 -0.3287
   40CHL1  H18A 4094   4.644   0.492   5.900 -0.7636 -1.1839  0.9668
   40CHL1  H18B 4095   4.586   0.542   6.055  2.0702  4.2440  1.7688
   40CHL1  H18C 4096   4.508   0.607   5.899 -1.1034  0.2105  1.9613
   40CHL1   C12 4097   4.842   0.644   6.003 -0.4405  0.6969 -0.2783
   40CHL1  H12A 4098   4.873   0.556   5.942  2.4134  1.0081  0.5744
   40CHL1  H12B 4099   4.913   0.730   5.999  1.9854 -1.2111 -0.5426
   40CHL1   C11 4100   4.839   0.615   6.154  0.5438 -0.3502 -0.4609
   40CHL1  H11A 4101   4.777   0.525   6.174 -0.5736  0.4496 -0.2764
   40CHL1  H11B 4102   4.941   0.603   6.196 -0.2119 -1.9205  1.0717
   40CHL1    C9 4103   4.767   0.727   6.247 -0.8802  0.2734 -0.2135
   40CHL1    H9 4104   4.830   0.818   6.231  1.2425 -1.0082  0.5059
   40CHL1   C10 4105   4.767   0.704   6.397  0.5743 -0.8537 -0.4683
   40CHL1   C19 4106   4.727   0.556   6.415 -0.0734 -0.1490 -0.1986
   40CHL1  H19A 4107   4.797   0.486   6.365  0.8628  0.5797  0.0753
   40CHL1  H19B 4108   4.724   0.528   6.522 -2.4167 -0.0969 -0.2043
   40CHL1  H19C 4109   4.625   0.549   6.370 -0.3213 -0.1016  0.3450
   40CHL1    C1 4110   4.915   0.711   6.447 -0.0378 -0.0243 -0.8084
   40CHL1   H1A 4111   4.963   0.622   6.402 -1.9435 -1.9782  0.7866
   40CHL1   H1B 4112   4.964   0.803   6.409  0.3040 -0.5217 -1.5841
   40CHL1    C2 4113   4.938   0.712   6.601  0.2855  0.2455 -0.5864
   40CHL1   H2A 4114   5.043   0.725   6.635 -0.6919 -0.3860  3.1058
   40CHL1   H2B 4115   4.907   0.613   6.640  1.7617 -0.1494 -0.3456
   40CHL1   C20 4116   4.699   0.694   5.670 -0.2115 -0.8444  0.5582
   40CHL1   H20 4117   4.608   0.634   5.694  1.7721 -3.4822  2.0565
   40CHL1   C21 4118   4.809   0.587   5.647  0.6814 -0.9937 -0.0016
   40CHL1  H21A 4119   4.795   0.547   5.544  1.0993  0.3123 -0.5791
   40CHL1  H21B 4120   4.807   0.505   5.723 -0.3858 -2.1248 -1.1983
   40CHL1  H21C 4121   4.915   0.620   5.648  0.5502 -0.4289 -1.8428
   40CHL1   C22 4122   4.685   0.791   5.553 -0.2097 -0.3366  0.2601
   40CHL1  H22A 4123   4.637   0.889   5.575 -0.8583 -0.3998 -0.7708
   40CHL1  H22B 4124   4.793   0.808   5.536 -0.1241  0.5340  1.5344
   40CHL1   C23 4125   4.613   0.734   5.428 -0.4625  0.0554 -0.3992
   40CHL1  H23A 4126   4.673   0.644   5.403  0.0356  0.3831 -0.3783
   40CHL1  H23B 4127   4.513   0.698   5.461  0.5708 -2.6296  0.1096
   40CHL1   C24 4128   4.618   0.838   5.314  0.1811 -0.7499 -0.4172
   40CHL1  H24A 4129   4.579   0.934   5.353 -0.3303 -1.4562  0.9053
   40CHL1  H24B 4130   4.722   0.859   5.280 -0.2852 -0.1822 -1.4999
   40CHL1   C25 4131   4.537   0.803   5.185  0.8076  1.0144  0.0574
   40CHL1   H25 4132   4.439   0.763   5.217  1.1513  1.1944  1.3725
   40CHL1   C26 4133   4.495   0.929   5.101 -1.0722 -0.6876 -0.0452
   40CHL1  H26A 4134   4.432   1.002   5.156  0.3920  0.4532  0.1944
   40CHL1  H26B 4135   4.590   0.983   5.079 -2.2063  1.9673  1.0998
   40CHL1  H26C 4136   4.445   0.909   5.004  0.2185  3.4190 -1.7927
   40CHL1   C27 4137   4.605   0.702   5.094  0.3192 -0.1707 -0.3750
   40CHL1  H27A 4138   4.603   0.602   5.142  0.3963  0.2010  0.4216
   40CHL1  H27B 4139   4.553   0.694   4.997 -2.7966 -1.0408  1.2409
   40CHL1  H27C 4140   4.713   0.726   5.087  0.6434 -1.2719  0.4674
   41CHL1    C3 4141   1.013   5.733   6.524  0.5085  0.2753 -0.0664
   41CHL1    H3 4142   1.057   5.640   6.484  2.0099  0.8207  0.2329
   41CHL1    O3 4143   1.007   5.737   6.667  0.4048 -0.3774 -0.1936
   41CHL1   H3' 4144   0.963   5.818   6.692  2.2829  0.7424 -0.3820
   41CHL1    C4 4145   1.102   5.849   6.474  0.4368  0.3985 -0.6167
   41CHL1   H4A 4146   1.062   5.938   6.527 -0.4309  0.8437 -1.9521
   41CHL1   H4B 4147   1.204   5.840   6.517  1.1021  1.6197 -1.8503
   41CHL1    C5 4148   1.112   5.875   6.324  0.9439  1.3153 -0.3900
   41CHL1    C6 4149   1.224   5.878   6.254 -0.7378 -0.7429 -0.1026
   41CHL1    H6 4150   1.324   5.879   6.302 -1.0635  0.1061  0.5886
   41CHL1    C7 4151   1.235   5.892   6.114 -1.2028 -0.0678 -0.2486
   41CHL1   H7A 4152   1.317   5.961   6.085 -0.2738 -1.1458 -0.2541
   41CHL1   H7B 4153   1.264   5.791   6.078  1.4700  0.9501 -1.1571
   41CHL1    C8 4154   1.103   5.930   6.045  0.6392 -0.8175 -0.1691
   41CHL1    H8 4155   1.088   6.040   6.043  0.0116 -0.7920 -4.4123
   41CHL1   C14 4156   1.098   5.880   5.902 -0.1751  0.2479 -0.4301
   41CHL1   H14 4157   1.095   5.769   5.906  1.7049  0.1980  0.3206
   41CHL1   C15 4158   1.229   5.904   5.821  0.2525  0.0881  0.2583
   41CHL1  H15A 4159   1.271   6.005   5.842 -2.7517  1.8874 -1.6508
   41CHL1  H15B 4160   1.308   5.828   5.838 -0.5779 -1.3976 -1.9965
   41CHL1   C16 4161   1.171   5.901   5.682  0.1978 -0.1981 -0.5116
   41CHL1  H16A 4162   1.178   6.006   5.645  0.6958  0.4830  1.3556
   41CHL1  H16B 4163   1.235   5.850   5.607  0.4588 -0.7831  0.1065
   41CHL1   C17 4164   1.024   5.861   5.678  0.2497 -0.0001 -0.0985
   41CHL1   H17 4165   1.015   5.750   5.683 -2.2546  0.1878  1.5005
   41CHL1   C13 4166   0.973   5.923   5.815 -0.1724 -0.0106  0.2352
   41CHL1   C18 4167   0.946   6.074   5.808 -0.0568  0.0901  0.1317
   41CHL1  H18A 4168   0.864   6.103   5.739  1.0311  1.6173 -0.5837
   41CHL1  H18B 4169   0.932   6.119   5.909  2.9970  1.2309  0.1638
   41CHL1  H18C 4170   1.036   6.131   5.774  0.8984 -1.4101  0.0596
   41CHL1   C12 4171   0.851   5.859   5.882  0.3589 -0.1127  0.5736
   41CHL1  H12A 4172   0.756   5.901   5.842  1.1300 -0.4091 -1.7314
   41CHL1  H12B 4173   0.859   5.751   5.859 -0.9157  0.1014 -1.1093
   41CHL1   C11 4174   0.840   5.872   6.034 -0.0018 -0.1093  0.6294
   41CHL1  H11A 4175   0.801   5.976   6.043 -0.7640 -0.4755  1.9018
   41CHL1  H11B 4176   0.764   5.800   6.071 -0.1507 -1.1279 -1.5157
   41CHL1    C9 4177   0.976   5.856   6.109 -0.4276  0.5857  0.6238
   41CHL1    H9 4178   1.005   5.749   6.105  1.0658  0.9573  0.9255
   41CHL1   C10 4179   0.975   5.874   6.256  0.0224  0.7690 -0.1115
   41CHL1   C19 4180   0.921   6.015   6.286 -0.1361  0.7521  0.5198
   41CHL1  H19A 4181   0.988   6.090   6.238  0.9952  0.5446  1.7238
   41CHL1  H19B 4182   0.813   6.031   6.263 -0.5917 -0.8127  1.4109
   41CHL1  H19C 4183   0.937   6.036   6.394 -0.2979  0.0427  0.6876
   41CHL1    C1 4184   0.872   5.767   6.317 -0.1233 -0.1864  0.2114
   41CHL1   H1A 4185   0.770   5.788   6.280  0.2353  2.4332  0.5639
   41CHL1   H1B 4186   0.906   5.669   6.276 -0.2852 -1.4454  2.8901
   41CHL1    C2 4187   0.875   5.750   6.473 -0.3937 -0.1401 -0.5252
   41CHL1   H2A 4188   0.810   5.666   6.504 -0.3186  0.1798  0.5830
   41CHL1   H2B 4189   0.839   5.841   6.526  1.5437 -0.0393  0.7418
   41CHL1   C20 4190   0.947   5.908   5.555  0.2028 -0.4975  0.5433
   41CHL1   H20 4191   0.932   6.018   5.554 -1.5186 -0.7077  0.2726
   41CHL1   C21 4192   0.801   5.848   5.564 -0.4394  0.3617 -0.0785
   41CHL1  H21A 4193   0.803   5.737   5.574  0.2874  0.4484  0.8525
   41CHL1  H21B 4194   0.739   5.865   5.474  0.5613  0.3073 -0.7837
   41CHL1  H21C 4195   0.742   5.891   5.648  0.7034  1.7806  0.0244
   41CHL1   C22 4196   1.011   5.861   5.420 -0.0353 -0.7444 -0.4243
   41CHL1  H22A 4197   1.119   5.871   5.443 -0.1729 -0.1152 -0.0202
   41CHL1  H22B 4198   0.987   5.755   5.398 -0.6394 -1.5729  3.4180
   41CHL1   C23 4199   0.975   5.959   5.311  0.3236  0.4350 -0.1603
   41CHL1  H23A 4200   0.868   5.986   5.307 -0.0569 -1.1360 -1.9549
   41CHL1  H23B 4201   1.037   6.051   5.318  0.6288  0.2653 -0.5456
   41CHL1   C24 4202   1.010   5.903   5.171  0.4275 -0.2204  0.1459
   41CHL1  H24A 4203   1.117   5.873   5.165  0.8296 -0.1969  4.4145
   41CHL1  H24B 4204   0.946   5.813   5.159 -0.2777  0.3886 -0.7823
   41CHL1   C25 4205   0.978   5.997   5.054  0.5748 -0.0150  0.5604
   41CHL1   H25 4206   1.060   6.070   5.044  2.8772 -2.3986  0.7859
   41CHL1   C26 4207   0.995   5.918   4.921  0.2231  0.6956 -0.0545
   41CHL1  H26A 4208   0.968   5.972   4.827  0.9469  1.1535 -0.0009
   41CHL1  H26B 4209   1.099   5.887   4.900  0.7263  2.1458  0.2151
   41CHL1  H26C 4210   0.943   5.821   4.933  2.0642 -0.4094 -0.6717
   41CHL1   C27 4211   0.838   6.067   5.057  0.2320  0.2645 -0.1247
   41CHL1  H27A 4212   0.767   6.004   5.114  1.7521  0.9203  2.6986
   41CHL1  H27B 4213   0.854   6.160   5.116 -0.1727  0.0551  0.3244
   41CHL1  H27C 4214   0.803   6.095   4.956 -1.8095 -1.9830 -0.1310
   42CHL1    C3 4215   6.464   1.898   6.656 -1.8119 -0.0621 -0.0465
   42CHL1    H3 4216   6.419   1.797   6.670 -1.9415 -0.1906 -1.2621
   42CHL1    O3 4217   6.462   1.949   6.788  0.1946 -0.1382  0.1437
   42CHL1   H3' 4218   6.496   2.038   6.778 -0.8780  0.3516  0.7050
   42CHL1    C4 4219   6.609   1.889   6.610 -0.4990  0.0627  0.0831
   42CHL1   H4A 4220   6.668   1.982   6.625  0.9105 -0.6434 -0.8590
   42CHL1   H4B 4221   6.663   1.814   6.672  0.1102 -0.4361 -1.0136
   42CHL1    C5 4222   6.622   1.855   6.458 -0.2429 -0.1178  0.5250
   42CHL1    C6 4223   6.697   1.758   6.415  0.2080  0.6236 -0.0586
   42CHL1    H6 4224   6.747   1.689   6.485 -2.4472 -1.4375 -0.0044
   42CHL1    C7 4225   6.724   1.717   6.272  0.1528 -0.3849 -0.0130
   42CHL1   H7A 4226   6.831   1.712   6.245  0.3094  0.9745  0.2676
   42CHL1   H7B 4227   6.683   1.617   6.247  0.2785 -0.3321 -0.4496
   42CHL1    C8 4228   6.669   1.828   6.173  0.3919  0.2133 -0.1745
   42CHL1    H8 4229   6.732   1.918   6.156 -2.2895  2.1230 -0.7478
   42CHL1   C14 4230   6.645   1.760   6.040 -0.7335 -0.0168 -0.5254
   42CHL1   H14 4231   6.571   1.678   6.053 -0.2451 -0.5962 -1.3275
   42CHL1   C15 4232   6.778   1.696   5.987 -0.6577  0.1518  0.0029
   42CHL1  H15A 4233   6.875   1.747   6.001  0.1158 -1.1736 -0.3460
   42CHL1  H15B 4234   6.790   1.590   6.018  2.7562  0.1920 -0.7818
   42CHL1   C16 4235   6.744   1.696   5.833 -0.1383 -0.4174 -0.0748
   42CHL1  H16A 4236   6.823   1.742   5.770 -0.1079 -0.2963  0.0511
   42CHL1  H16B 4237   6.733   1.591   5.799 -2.2438 -0.4682  0.6361
   42CHL1   C17 4238   6.600   1.750   5.810 -1.0758  0.1885  0.2042
   42CHL1   H17 4239   6.529   1.668   5.836  1.0429 -1.3416  1.4285
   42CHL1   C13 4240   6.588   1.847   5.925 -0.2587 -0.4234  0.1973
   42CHL1   C18 4241   6.675   1.980   5.899 -0.0805  0.3245 -0.2489
   42CHL1  H18A 4242   6.779   1.959   5.866  0.4076 -2.1001  2.4398
   42CHL1  H18B 4243   6.631   2.040   5.816 -0.0325  0.2409 -0.3356
   42CHL1  H18C 4244   6.682   2.040   5.992  1.8777 -1.0545  0.5562
   42CHL1   C12 4245   6.451   1.885   5.975  0.1504 -0.5392  0.1541
   42CHL1  H12A 4246   6.408   1.961   5.906  0.8867 -1.2655 -1.1373
   42CHL1  H12B 4247   6.387   1.795   5.969 -0.9007  0.2578 -1.4761
   42CHL1   C11 4248   6.447   1.954   6.117 -0.8184  0.2751  0.0040
   42CHL1  H11A 4249   6.490   2.057   6.119  2.6586 -1.0450  1.5855
   42CHL1  H11B 4250   6.343   1.956   6.155  0.0676  1.0952  2.6277
   42CHL1    C9 4251   6.526   1.871   6.220  0.2732 -1.2291  0.4065
   42CHL1    H9 4252   6.460   1.784   6.239  0.5598 -1.2225  1.5312
   42CHL1   C10 4253   6.534   1.940   6.359  0.0035  0.4704 -0.2603
   42CHL1   C19 4254   6.606   2.076   6.353  0.4920  0.2636  0.1453
   42CHL1  H19A 4255   6.554   2.154   6.295 -0.3189  0.1740  0.7344
   42CHL1  H19B 4256   6.629   2.115   6.454 -2.1599 -0.1852  0.9891
   42CHL1  H19C 4257   6.707   2.077   6.307  0.8469  1.9738  0.8838
   42CHL1    C1 4258   6.394   1.965   6.411  1.1255  0.1258 -0.1283
   42CHL1   H1A 4259   6.350   2.050   6.355 -2.1680 -0.5542  1.1741
   42CHL1   H1B 4260   6.332   1.873   6.398  0.8721  0.2606  0.1024
   42CHL1    C2 4261   6.388   2.001   6.569  0.3350  0.1700  0.2137
   42CHL1   H2A 4262   6.283   2.016   6.601  0.0516 -0.9821 -0.1381
   42CHL1   H2B 4263   6.442   2.098   6.581  1.4230 -0.2362 -1.1272
   42CHL1   C20 4264   6.574   1.798   5.665 -0.0405  0.4984 -0.3228
   42CHL1   H20 4265   6.644   1.879   5.637  0.6463 -0.1761 -0.6025
   42CHL1   C21 4266   6.425   1.843   5.651 -0.2023  0.6472 -0.0365
   42CHL1  H21A 4267   6.351   1.773   5.695  0.1657 -0.1659 -0.6771
   42CHL1  H21B 4268   6.409   1.828   5.542  1.3926 -0.1957 -0.1880
   42CHL1  H21C 4269   6.418   1.952   5.674 -0.4906  0.6694 -0.2325
   42CHL1   C22 4270   6.593   1.679   5.567 -0.0702  0.1976  0.2705
   42CHL1  H22A 4271   6.566   1.717   5.466 -0.6561  0.5593  0.5587
   42CHL1  H22B 4272   6.698   1.648   5.547  0.2190  1.2680  0.0582
   42CHL1   C23 4273   6.512   1.550   5.594 -0.5250  0.3996  0.7299
   42CHL1  H23A 4274   6.562   1.486   5.670 -0.1644 -2.2742 -1.5906
   42CHL1  H23B 4275   6.406   1.574   5.615 -1.1326 -1.9610  0.7214
   42CHL1   C24 4276   6.511   1.458   5.463 -0.1085  0.0710 -1.1542
   42CHL1  H24A 4277   6.486   1.516   5.372 -1.7510  0.8997 -0.2039
   42CHL1  H24B 4278   6.616   1.419   5.460 -0.0401  0.3032 -2.4124
   42CHL1   C25 4279   6.410   1.343   5.482 -0.1872 -0.0235  0.4011
   42CHL1   H25 4280   6.311   1.393   5.468  0.1178  0.1210 -1.5502
   42CHL1   C26 4281   6.437   1.245   5.366  0.6932 -0.0230 -0.7504
   42CHL1  H26A 4282   6.513   1.174   5.406 -1.5767 -1.6480  0.9687
   42CHL1  H26B 4283   6.356   1.172   5.347  1.3373 -0.6878 -1.0053
   42CHL1  H26C 4284   6.470   1.300   5.275 -0.2042 -2.1697 -2.4660
   42CHL1   C27 4285   6.391   1.280   5.622  0.3869  0.2915 -0.4545
   42CHL1  H27A 4286   6.361   1.363   5.689 -0.0575  0.6375 -1.0739
   42CHL1  H27B 4287   6.309   1.207   5.604  1.0001 -0.8703  1.2179
   42CHL1  H27C 4288   6.486   1.229   5.650 -0.1663 -0.7609 -0.4390
   43CHL1    C3 4289   1.656   2.246   6.232 -0.1966  0.4239 -0.3797
   43CHL1    H3 4290   1.765   2.229   6.220  0.1466  1.6962  0.7244
   43CHL1    O3 4291   1.623   2.240   6.366  0.3268 -0.0502 -0.5633
   43CHL1   H3' 4292   1.527   2.236   6.375  0.3599  0.1987 -0.0553
   43CHL1    C4 4293   1.607   2.378   6.182 -0.3326 -0.7291  0.4569
   43CHL1   H4A 4294   1.504   2.399   6.218 -0.1490  3.1670 -0.8665
   43CHL1   H4B 4295   1.678   2.450   6.228  2.1760 -2.5741 -0.3270
   43CHL1    C5 4296   1.611   2.392   6.030  0.4841 -0.0407 -0.6934
   43CHL1    C6 4297   1.664   2.503   5.974 -0.7256 -0.2571 -0.0593
   43CHL1    H6 4298   1.717   2.577   6.036  1.8922 -1.2564 -0.9727
   43CHL1    C7 4299   1.658   2.536   5.831  0.2399 -0.6287  0.1664
   43CHL1   H7A 4300   1.622   2.640   5.813  1.0194 -0.2263  0.8446
   43CHL1   H7B 4301   1.762   2.542   5.793  0.2350  0.8436  0.3251
   43CHL1    C8 4302   1.573   2.443   5.744 -0.3393 -0.1163  0.1897
   43CHL1    H8 4303   1.467   2.478   5.744 -0.1797  0.8028 -3.2159
   43CHL1   C14 4304   1.630   2.446   5.604 -0.1664 -0.7919  0.2085
   43CHL1   H14 4305   1.736   2.414   5.608  0.5314  1.3680  0.2844
   43CHL1   C15 4306   1.640   2.583   5.527 -0.1325  0.0456  0.2021
   43CHL1  H15A 4307   1.544   2.638   5.530  0.8991  1.8927  1.1693
   43CHL1  H15B 4308   1.714   2.654   5.571 -0.6731 -0.1925  1.5630
   43CHL1   C16 4309   1.661   2.540   5.379 -0.2911 -0.5419 -0.5474
   43CHL1  H16A 4310   1.576   2.580   5.318 -1.2349  0.6715  1.4625
   43CHL1  H16B 4311   1.757   2.582   5.343 -0.7663  1.2419  0.1521
   43CHL1   C17 4312   1.652   2.388   5.373 -0.2508 -0.3248 -0.4887
   43CHL1   H17 4313   1.754   2.352   5.396  0.1075  0.9338 -0.0481
   43CHL1   C13 4314   1.564   2.348   5.500 -0.7254  0.1252  0.1556
   43CHL1   C18 4315   1.416   2.382   5.491  0.7491  0.2611  0.6325
   43CHL1  H18A 4316   1.356   2.384   5.585 -0.8369  0.8295 -0.3354
   43CHL1  H18B 4317   1.395   2.472   5.429 -0.3672  0.2362  0.9500
   43CHL1  H18C 4318   1.370   2.294   5.441  0.9957  0.7669 -0.5346
   43CHL1   C12 4319   1.593   2.209   5.553  0.6052  0.9699 -0.7203
   43CHL1  H12A 4320   1.538   2.132   5.494  1.4744  1.0121 -1.6180
   43CHL1  H12B 4321   1.703   2.189   5.550  0.0732 -2.5770 -2.1169
   43CHL1   C11 4322   1.544   2.190   5.700 -0.0514 -0.0800 -0.8774
   43CHL1  H11A 4323   1.433   2.187   5.703 -0.0191 -2.4545  0.7630
   43CHL1  H11B 4324   1.579   2.088   5.727  0.2389 -0.0045 -0.9733
   43CHL1    C9 4325   1.591   2.301   5.798 -0.3946 -0.4226 -0.7412
   43CHL1    H9 4326   1.701   2.292   5.808 -0.2264  2.3534  0.8105
   43CHL1   C10 4327   1.547   2.279   5.949 -0.4393 -0.0361  0.2314
   43CHL1   C19 4328   1.392   2.279   5.952  0.0962 -0.0364  0.0133
   43CHL1  H19A 4329   1.353   2.289   6.056 -0.4804 -0.2719 -0.1768
   43CHL1  H19B 4330   1.355   2.366   5.894  2.0375  0.6296 -0.2798
   43CHL1  H19C 4331   1.361   2.184   5.904 -0.6248  0.6952 -1.0105
   43CHL1    C1 4332   1.597   2.145   6.007 -0.0155  0.1138  0.4492
   43CHL1   H1A 4333   1.536   2.065   5.960  0.1421  0.0004  0.4383
   43CHL1   H1B 4334   1.705   2.143   5.981 -0.0524  2.8652 -0.1979
   43CHL1    C2 4335   1.576   2.128   6.158  0.2212 -0.2687 -0.4939
   43CHL1   H2A 4336   1.609   2.031   6.200 -1.3373  0.7808  3.6286
   43CHL1   H2B 4337   1.471   2.140   6.190  0.0116  1.9917 -1.7652
   43CHL1   C20 4338   1.603   2.335   5.239  0.5024 -0.3018  0.8066
   43CHL1   H20 4339   1.499   2.374   5.228  0.9141  0.1190 -3.0411
   43CHL1   C21 4340   1.596   2.184   5.239 -0.3014 -0.8531 -0.6648
   43CHL1  H21A 4341   1.569   2.140   5.141 -0.8000 -0.2489 -0.7995
   43CHL1  H21B 4342   1.515   2.155   5.309  0.3989  0.5471  0.7956
   43CHL1  H21C 4343   1.683   2.127   5.279  0.1031  0.2460  0.0911
   43CHL1   C22 4344   1.680   2.388   5.114 -0.5130  0.2873  0.4686
   43CHL1  H22A 4345   1.625   2.347   5.027 -1.5780 -0.3392  1.4020
   43CHL1  H22B 4346   1.685   2.498   5.121  0.1527  0.2011  1.8375
   43CHL1   C23 4347   1.825   2.348   5.106  0.1069 -0.1017  0.4031
   43CHL1  H23A 4348   1.871   2.419   5.177 -0.9420  0.1637  0.8397
   43CHL1  H23B 4349   1.848   2.242   5.130  2.6287 -0.1896 -1.8948
   43CHL1   C24 4350   1.891   2.374   4.969 -0.1990 -0.6641  0.3164
   43CHL1  H24A 4351   1.990   2.325   4.969  0.5239  0.7340  1.1340
   43CHL1  H24B 4352   1.829   2.320   4.894 -1.4507  1.7999 -0.5344
   43CHL1   C25 4353   1.899   2.522   4.911  0.1957 -0.1268  0.2767
   43CHL1   H25 4354   1.797   2.545   4.874 -0.4504 -0.7234  1.6400
   43CHL1   C26 4355   1.955   2.632   4.997 -0.4758 -0.1480 -0.3465
   43CHL1  H26A 4356   2.049   2.589   5.038 -0.9178 -1.1751 -0.3646
   43CHL1  H26B 4357   1.981   2.726   4.945 -3.4554  1.5967  1.0345
   43CHL1  H26C 4358   1.877   2.654   5.074  0.3151 -0.5536  0.5981
   43CHL1   C27 4359   1.992   2.508   4.792 -0.3630  0.4175  0.1893
   43CHL1  H27A 4360   1.992   2.608   4.744  3.5524 -0.2299 -1.5764
   43CHL1  H27B 4361   2.097   2.476   4.811  0.4122  1.2035 -2.3301
   43CHL1  H27C 4362   1.951   2.437   4.716  4.9503 -0.9286 -1.8620
   44CHL1    C3 4363   0.734   4.903   6.351 -0.2550  0.5065  0.1698
   44CHL1    H3 4364   0.803   4.985   6.322 -0.1114  0.6774  0.9615
   44CHL1    O3 4365   0.699   4.913   6.491  0.4297  0.1395 -0.0637
   44CHL1   H3' 4366   0.631   4.846   6.502  2.4234 -1.7580  1.3849
   44CHL1    C4 4367   0.607   4.916   6.268  0.1604 -0.6060  0.7237
   44CHL1   H4A 4368   0.524   4.849   6.299 -3.0183  0.9892 -3.3174
   44CHL1   H4B 4369   0.579   5.022   6.287  0.7560 -0.7300  2.5304
   44CHL1    C5 4370   0.626   4.891   6.122 -0.1997  0.3487  0.2316
   44CHL1    C6 4371   0.592   4.980   6.032 -0.0456 -0.0536 -0.3235
   44CHL1    H6 4372   0.556   5.080   6.063  1.5217  0.8070 -1.1594
   44CHL1    C7 4373   0.612   4.969   5.883  0.1034 -0.0677 -0.5710
   44CHL1   H7A 4374   0.519   5.003   5.833 -0.1002  1.5276  0.7870
   44CHL1   H7B 4375   0.691   5.039   5.847 -0.7396  1.0498 -0.3233
   44CHL1    C8 4376   0.650   4.830   5.831 -0.4812 -0.1620  0.3141
   44CHL1    H8 4377   0.554   4.773   5.832 -0.0675 -0.8812  1.3467
   44CHL1   C14 4378   0.714   4.828   5.692 -0.0865  0.1221 -0.4452
   44CHL1   H14 4379   0.806   4.887   5.709  1.9024 -2.6012 -0.9435
   44CHL1   C15 4380   0.653   4.889   5.565  0.1149  0.5464 -0.3555
   44CHL1  H15A 4381   0.550   4.850   5.559  0.1174  0.3623  0.6596
   44CHL1  H15B 4382   0.638   4.999   5.563 -0.2752  0.5607  1.5648
   44CHL1   C16 4383   0.739   4.846   5.443 -0.0532  0.3691 -0.4278
   44CHL1  H16A 4384   0.673   4.814   5.361  0.5750 -2.5674  0.1061
   44CHL1  H16B 4385   0.806   4.927   5.406 -0.6962  1.1579  0.1131
   44CHL1   C17 4386   0.818   4.738   5.501 -0.0440 -0.6060 -0.6135
   44CHL1   H17 4387   0.901   4.803   5.535 -2.4499  1.2735  2.1631
   44CHL1   C13 4388   0.765   4.697   5.640  1.0574  0.5288 -1.0144
   44CHL1   C18 4389   0.636   4.603   5.620  0.5408 -0.3863 -0.3976
   44CHL1  H18A 4390   0.583   4.635   5.528 -1.5039  0.7251  1.1091
   44CHL1  H18B 4391   0.659   4.494   5.620 -0.2505 -0.6201 -3.1885
   44CHL1  H18C 4392   0.562   4.623   5.700 -1.1568  0.8128 -2.1831
   44CHL1   C12 4393   0.866   4.635   5.742  0.3689 -0.4084  0.2564
   44CHL1  H12A 4394   0.892   4.531   5.712 -0.8794 -0.6742  0.0486
   44CHL1  H12B 4395   0.955   4.701   5.735 -0.9205  1.3961  0.2331
   44CHL1   C11 4396   0.796   4.629   5.879  0.8261 -0.2936  0.2239
   44CHL1  H11A 4397   0.711   4.558   5.873  1.1590 -0.6073 -0.9902
   44CHL1  H11B 4398   0.873   4.585   5.945  0.1669 -0.3240  0.9869
   44CHL1    C9 4399   0.745   4.763   5.935 -0.3733 -0.2339  0.4025
   44CHL1    H9 4400   0.836   4.826   5.933  0.5748 -1.4620  2.2265
   44CHL1   C10 4401   0.694   4.762   6.083  0.2744 -0.3247 -0.9877
   44CHL1   C19 4402   0.589   4.651   6.110 -0.2448  0.1288 -0.1063
   44CHL1  H19A 4403   0.550   4.638   6.213 -0.6147 -0.5144 -0.3180
   44CHL1  H19B 4404   0.501   4.673   6.045  0.5035  1.5141 -0.6988
   44CHL1  H19C 4405   0.619   4.551   6.072 -0.7166 -0.1321  0.1978
   44CHL1    C1 4406   0.812   4.736   6.172 -0.6988  0.6637  0.8606
   44CHL1   H1A 4407   0.848   4.632   6.155  1.4833  1.7132 -1.5836
   44CHL1   H1B 4408   0.893   4.802   6.135 -1.0400  0.4004 -0.4066
   44CHL1    C2 4409   0.785   4.757   6.323 -0.3001  0.2584  0.0321
   44CHL1   H2A 4410   0.880   4.746   6.380 -0.5418 -0.2765  0.3346
   44CHL1   H2B 4411   0.718   4.678   6.362  0.4019 -0.3354  0.0590
   44CHL1   C20 4412   0.868   4.633   5.408 -0.5244  0.0426 -1.0234
   44CHL1   H20 4413   0.921   4.551   5.461  0.2317  0.6892 -0.7628
   44CHL1   C21 4414   0.966   4.694   5.317 -0.3417  0.1464  0.3054
   44CHL1  H21A 4415   1.047   4.743   5.375  0.2744 -0.8738  0.3252
   44CHL1  H21B 4416   0.914   4.768   5.253 -2.2776 -1.2475  0.2024
   44CHL1  H21C 4417   1.018   4.631   5.242 -0.0213  1.3760 -0.5522
   44CHL1   C22 4418   0.759   4.562   5.320  0.2402 -0.9563  0.1271
   44CHL1  H22A 4419   0.687   4.507   5.384  0.7195  0.5422  2.0546
   44CHL1  H22B 4420   0.712   4.644   5.263  1.2404  0.3190  1.0900
   44CHL1   C23 4421   0.807   4.449   5.220 -0.3822  0.0996  0.8371
   44CHL1  H23A 4422   0.861   4.503   5.139 -1.3461  2.2727  1.5671
   44CHL1  H23B 4423   0.874   4.382   5.278 -1.9037 -2.5033 -0.2279
   44CHL1   C24 4424   0.698   4.368   5.147 -0.0471 -0.3124  0.0449
   44CHL1  H24A 4425   0.738   4.309   5.062 -0.9665 -1.1911  0.2072
   44CHL1  H24B 4426   0.646   4.304   5.221 -0.4101 -1.2044 -0.9609
   44CHL1   C25 4427   0.590   4.452   5.082  0.3008  0.0648  0.4037
   44CHL1   H25 4428   0.556   4.526   5.158 -3.5507 -1.7698  0.7562
   44CHL1   C26 4429   0.644   4.535   4.960  0.1456  0.2541  0.1247
   44CHL1  H26A 4430   0.736   4.590   4.988  0.9774 -0.6444 -0.7586
   44CHL1  H26B 4431   0.668   4.458   4.883  1.0217 -0.4182  1.0327
   44CHL1  H26C 4432   0.564   4.599   4.918 -1.7539 -1.6365  0.6487
   44CHL1   C27 4433   0.470   4.363   5.047  0.1237  0.1900  0.5377
   44CHL1  H27A 4434   0.382   4.428   5.029 -1.0660 -1.3699  0.5428
   44CHL1  H27B 4435   0.475   4.313   4.948 -0.5945 -0.7102  0.9472
   44CHL1  H27C 4436   0.443   4.301   5.135  0.7258  1.6055  1.7626
   45CHL1    C3 4437   1.671   5.601   6.684  0.5100  0.1234 -0.5498
   45CHL1    H3 4438   1.641   5.496   6.661 -0.7033  0.2589  0.2693
   45CHL1    O3 4439   1.665   5.614   6.824 -0.0812 -0.1017  0.1176
   45CHL1   H3' 4440   1.624   5.699   6.838 -1.7978 -1.2758  3.5123
   45CHL1    C4 4441   1.808   5.637   6.632 -0.1534 -0.1197  0.4091
   45CHL1   H4A 4442   1.828   5.742   6.664 -1.4156  1.3814 -3.1892
   45CHL1   H4B 4443   1.878   5.564   6.677  0.7243  0.3730 -0.1226
   45CHL1    C5 4444   1.812   5.642   6.482  0.7526  0.0508  0.6638
   45CHL1    C6 4445   1.900   5.572   6.412  0.1317  0.3674  0.4137
   45CHL1    H6 4446   1.977   5.516   6.467 -0.4954 -1.9125 -0.9046
   45CHL1    C7 4447   1.917   5.568   6.262 -0.5819  0.1856 -0.0632
   45CHL1   H7A 4448   2.023   5.574   6.231 -1.3690  0.5966 -2.9627
   45CHL1   H7B 4449   1.878   5.467   6.238  1.1916 -0.5656  0.0997
   45CHL1    C8 4450   1.841   5.681   6.197  0.2382  0.0685 -0.3513
   45CHL1    H8 4451   1.913   5.766   6.203  2.1523 -1.5652  3.1579
   45CHL1   C14 4452   1.821   5.643   6.054  0.4663  0.0761  0.0518
   45CHL1   H14 4453   1.760   5.551   6.063  0.7212 -0.0143  0.9323
   45CHL1   C15 4454   1.938   5.594   5.973 -0.1534  0.2485  0.5891
   45CHL1  H15A 4455   2.019   5.670   5.974  1.4952 -1.4310  0.2026
   45CHL1  H15B 4456   1.986   5.499   6.005  1.4078  0.2698 -1.4939
   45CHL1   C16 4457   1.881   5.589   5.833  0.2743 -0.2487  0.2447
   45CHL1  H16A 4458   1.960   5.626   5.764 -0.6716 -1.0695 -1.3276
   45CHL1  H16B 4459   1.868   5.482   5.807  0.1210  0.0990 -1.1752
   45CHL1   C17 4460   1.749   5.672   5.839 -0.6421 -0.0287  0.9134
   45CHL1   H17 4461   1.671   5.595   5.852 -0.4441  0.1525  3.7549
   45CHL1   C13 4462   1.750   5.749   5.967  0.5051  0.1129 -0.5695
   45CHL1   C18 4463   1.833   5.886   5.959  0.3298  0.3343 -0.8840
   45CHL1  H18A 4464   1.862   5.921   6.060  1.0749  0.8688 -1.2770
   45CHL1  H18B 4465   1.923   5.863   5.898  1.4596  0.8491  0.5365
   45CHL1  H18C 4466   1.769   5.961   5.907  0.8692  1.0334 -0.5478
   45CHL1   C12 4467   1.608   5.760   6.035  1.2192 -0.5248 -0.2077
   45CHL1  H12A 4468   1.547   5.839   5.986  1.1589 -1.4029 -1.5898
   45CHL1  H12B 4469   1.547   5.669   6.018 -1.5067  1.4196 -1.5320
   45CHL1   C11 4470   1.614   5.800   6.184  0.1692 -0.2327  0.2320
   45CHL1  H11A 4471   1.648   5.905   6.184 -4.0129  1.3051  1.0203
   45CHL1  H11B 4472   1.512   5.810   6.227 -0.0133  3.2656 -0.7485
   45CHL1    C9 4473   1.708   5.705   6.267 -0.0016 -0.6343  0.2392
   45CHL1    H9 4474   1.660   5.605   6.264  0.6126 -0.9132 -0.7774
   45CHL1   C10 4475   1.708   5.742   6.417  0.0677 -0.1194 -0.2419
   45CHL1   C19 4476   1.741   5.894   6.434  0.4890 -0.4707 -0.1125
   45CHL1  H19A 4477   1.838   5.928   6.393  1.1555 -2.8819 -0.7457
   45CHL1  H19B 4478   1.657   5.953   6.392 -1.1886 -1.6636  1.4086
   45CHL1  H19C 4479   1.733   5.913   6.543 -3.2961 -2.6238  0.1849
   45CHL1    C1 4480   1.570   5.711   6.478  0.8865 -0.1715  1.0565
   45CHL1   H1A 4481   1.485   5.764   6.432 -0.3139 -1.3395  1.8616
   45CHL1   H1B 4482   1.550   5.607   6.445 -1.4118  0.3639  0.6323
   45CHL1    C2 4483   1.566   5.704   6.628  0.5289 -0.3492 -0.1832
   45CHL1   H2A 4484   1.466   5.666   6.658  0.5390 -2.1243 -2.1844
   45CHL1   H2B 4485   1.599   5.803   6.666  0.1699  0.1662 -1.1892
   45CHL1   C20 4486   1.709   5.745   5.707  0.5491  0.6631  0.4274
   45CHL1   H20 4487   1.788   5.813   5.669  1.1462  0.1673  0.7698
   45CHL1   C21 4488   1.581   5.823   5.727  0.4387 -0.0139 -0.8635
   45CHL1  H21A 4489   1.502   5.752   5.762  0.6660 -0.9727 -2.2034
   45CHL1  H21B 4490   1.533   5.861   5.634 -0.2200 -1.0586 -0.9786
   45CHL1  H21C 4491   1.584   5.909   5.797  1.1244  0.0003 -0.9122
   45CHL1   C22 4492   1.687   5.644   5.590 -0.4210  1.0711  0.2655
   45CHL1  H22A 4493   1.781   5.585   5.582  0.0914  1.6430  1.8595
   45CHL1  H22B 4494   1.602   5.574   5.608 -1.0073  1.7798  0.2964
   45CHL1   C23 4495   1.666   5.703   5.455 -0.0411 -0.7825  0.5602
   45CHL1  H23A 4496   1.574   5.766   5.457 -0.0355 -0.7799  2.3865
   45CHL1  H23B 4497   1.748   5.773   5.426 -0.9001 -0.3171 -0.8406
   45CHL1   C24 4498   1.647   5.588   5.348 -0.5982 -0.1213 -0.5042
   45CHL1  H24A 4499   1.716   5.502   5.365 -1.9452 -0.9646  0.9917
   45CHL1  H24B 4500   1.548   5.538   5.360 -0.1259 -1.4472 -1.8259
   45CHL1   C25 4501   1.645   5.642   5.205 -0.6524 -0.4223  0.4479
   45CHL1   H25 4502   1.566   5.719   5.199  1.0959  1.3617 -0.8284
   45CHL1   C26 4503   1.775   5.703   5.148 -0.5131 -0.3176  0.0887
   45CHL1  H26A 4504   1.815   5.766   5.231 -2.9738 -2.5373  3.1678
   45CHL1  H26B 4505   1.841   5.615   5.132  0.7712  0.7120 -0.5595
   45CHL1  H26C 4506   1.745   5.760   5.057  1.0341 -1.0348 -0.9330
   45CHL1   C27 4507   1.588   5.537   5.104  0.3344 -0.2949  0.4694
   45CHL1  H27A 4508   1.658   5.452   5.117  0.9191  0.2694  1.1033
   45CHL1  H27B 4509   1.482   5.516   5.129 -0.2626  3.0131  1.2270
   45CHL1  H27C 4510   1.608   5.564   4.997 -3.2610 -0.8401 -0.4563
   46CHL1    C3 4511   3.618   6.345   6.670  0.1043 -0.0965 -0.0923
   46CHL1    H3 4512   3.656   6.241   6.661  0.1573 -0.2163  1.3890
   46CHL1    O3 4513   3.620   6.383   6.804  0.1210 -0.3383  0.4958
   46CHL1   H3' 4514   3.575   6.309   6.846 -0.8412 -0.6264 -0.9542
   46CHL1    C4 4515   3.729   6.434   6.614 -0.0952  0.1205  0.3991
   46CHL1   H4A 4516   3.713   6.540   6.643  3.1988  0.8440  0.0276
   46CHL1   H4B 4517   3.818   6.392   6.666  0.0291 -1.7839 -1.2557
   46CHL1    C5 4518   3.746   6.430   6.464  0.2724  0.1119  0.7372
   46CHL1    C6 4519   3.860   6.402   6.400 -0.3672 -0.2106 -0.0896
   46CHL1    H6 4520   3.951   6.383   6.459 -0.2576  1.4583  0.3511
   46CHL1    C7 4521   3.869   6.396   6.249 -0.5921  0.1035  0.2044
   46CHL1   H7A 4522   3.958   6.449   6.209 -0.5502 -0.7725 -0.9240
   46CHL1   H7B 4523   3.880   6.294   6.207  0.8473  1.1236 -2.1452
   46CHL1    C8 4524   3.745   6.460   6.180 -0.1735  0.5118  0.1052
   46CHL1    H8 4525   3.747   6.570   6.196  1.0757  0.5048  0.0542
   46CHL1   C14 4526   3.743   6.430   6.027  0.3631 -0.6319  0.4552
   46CHL1   H14 4527   3.746   6.321   6.007  1.6076 -0.5973  0.4301
   46CHL1   C15 4528   3.864   6.473   5.949 -0.6936  0.1408  0.1510
   46CHL1  H15A 4529   3.882   6.580   5.970 -3.1806  0.3793  1.4180
   46CHL1  H15B 4530   3.955   6.415   5.976 -0.8980 -0.5670 -0.6211
   46CHL1   C16 4531   3.817   6.451   5.797  0.7981 -0.2442  0.1113
   46CHL1  H16A 4532   3.859   6.533   5.735  0.2454 -0.5703 -0.7255
   46CHL1  H16B 4533   3.863   6.358   5.757  0.3473 -0.6825  0.5967
   46CHL1   C17 4534   3.664   6.441   5.812  0.1115 -0.8927  0.1975
   46CHL1   H17 4535   3.648   6.331   5.808 -0.5202 -0.7904 -0.3023
   46CHL1   C13 4536   3.621   6.487   5.952 -0.7585 -0.5416  0.2302
   46CHL1   C18 4537   3.614   6.630   5.951 -0.4420 -0.3562 -0.3929
   46CHL1  H18A 4538   3.620   6.669   6.055 -3.4681 -2.1791  0.6118
   46CHL1  H18B 4539   3.692   6.680   5.891 -0.0003  1.3305  1.4898
   46CHL1  H18C 4540   3.516   6.664   5.910  0.1567  2.5381  0.4208
   46CHL1   C12 4541   3.498   6.425   6.014 -0.7573 -0.8652 -0.3164
   46CHL1  H12A 4542   3.415   6.470   5.955  1.3931  3.0125 -0.6678
   46CHL1  H12B 4543   3.498   6.316   5.991 -0.2723 -0.7840 -0.7105
   46CHL1   C11 4544   3.489   6.456   6.163 -0.9546 -0.5051 -0.1911
   46CHL1  H11A 4545   3.468   6.565   6.160 -0.5589 -0.3860  0.8242
   46CHL1  H11B 4546   3.398   6.404   6.201  0.1767 -3.8436 -1.7396
   46CHL1    C9 4547   3.610   6.411   6.244 -1.1689 -0.0614 -0.1692
   46CHL1    H9 4548   3.618   6.300   6.233  2.1894  0.1741 -1.0940
   46CHL1   C10 4549   3.611   6.452   6.395 -0.4166 -0.2937  0.9258
   46CHL1   C19 4550   3.577   6.604   6.402 -0.2996  0.0117 -0.1028
   46CHL1  H19A 4551   3.569   6.640   6.507  0.7200  0.0766 -0.0394
   46CHL1  H19B 4552   3.654   6.658   6.344  0.7914 -1.9552 -0.5797
   46CHL1  H19C 4553   3.480   6.639   6.359 -0.1054  1.0598  0.2908
   46CHL1    C1 4554   3.491   6.370   6.456  0.3669 -0.6234 -1.1543
   46CHL1   H1A 4555   3.390   6.398   6.421  0.2737 -0.3618 -0.6848
   46CHL1   H1B 4556   3.500   6.261   6.438  1.9261 -0.7473  0.1222
   46CHL1    C2 4557   3.482   6.375   6.611 -0.0692 -0.9308  0.2361
   46CHL1   H2A 4558   3.401   6.313   6.655 -1.7206  1.1507  0.2891
   46CHL1   H2B 4559   3.455   6.482   6.627  0.8640 -0.4789 -0.9792
   46CHL1   C20 4560   3.590   6.500   5.688 -0.4428 -0.6543 -0.2515
   46CHL1   H20 4561   3.577   6.609   5.699 -0.9995 -0.8110  0.7487
   46CHL1   C21 4562   3.441   6.467   5.677  0.5082 -0.5414 -0.3290
   46CHL1  H21A 4563   3.413   6.496   5.574  2.7657  2.0274 -0.3211
   46CHL1  H21B 4564   3.375   6.517   5.751  0.1256 -0.8037 -0.4931
   46CHL1  H21C 4565   3.428   6.357   5.692 -1.6098 -0.5317 -1.6393
   46CHL1   C22 4566   3.651   6.456   5.556  0.1495 -0.5596  0.7383
   46CHL1  H22A 4567   3.593   6.506   5.476 -2.4730 -2.3502  1.3844
   46CHL1  H22B 4568   3.758   6.486   5.554  0.4807 -1.7265  0.2135
   46CHL1   C23 4569   3.646   6.305   5.521 -0.2671  0.8917  0.6991
   46CHL1  H23A 4570   3.712   6.244   5.587  0.9525  1.6165  0.1932
   46CHL1  H23B 4571   3.544   6.266   5.539  0.5193 -0.4106  2.8042
   46CHL1   C24 4572   3.683   6.267   5.379 -0.8903  0.3016 -0.1708
   46CHL1  H24A 4573   3.789   6.290   5.358 -0.9732  1.7400  0.8136
   46CHL1  H24B 4574   3.665   6.160   5.357 -0.1069 -0.3093  1.9765
   46CHL1   C25 4575   3.597   6.341   5.266 -0.2580 -0.1003 -0.8713
   46CHL1   H25 4576   3.606   6.451   5.282  1.5242 -0.2764 -0.4541
   46CHL1   C26 4577   3.665   6.332   5.128 -0.2976 -0.3747  0.5370
   46CHL1  H26A 4578   3.756   6.395   5.118 -1.7590  1.9222  1.0214
   46CHL1  H26B 4579   3.688   6.227   5.102  0.5791 -0.0690  0.0418
   46CHL1  H26C 4580   3.591   6.361   5.051  0.5029 -2.6474 -1.2139
   46CHL1   C27 4581   3.448   6.309   5.262 -0.9834  0.3481 -0.3395
   46CHL1  H27A 4582   3.445   6.203   5.228 -0.4433  0.3950 -0.5462
   46CHL1  H27B 4583   3.416   6.318   5.367  1.3627 -2.3138  0.7431
   46CHL1  H27C 4584   3.389   6.376   5.195 -1.0117 -1.5183 -2.2988
   47CHL1    C3 4585   3.562   0.769   6.930 -0.9343  0.2018  0.2145
   47CHL1    H3 4586   3.554   0.662   6.900  2.8941  0.3424 -1.8736
   47CHL1    O3 4587   3.577   0.775   7.071  0.4281 -0.2675  0.1749
   47CHL1   H3' 4588   3.582   0.868   7.096 -0.1564 -0.8894  2.8994
   47CHL1    C4 4589   3.675   0.841   6.865 -0.2665 -0.4309 -0.0238
   47CHL1   H4A 4590   3.656   0.946   6.898 -0.4345 -0.2546 -0.6796
   47CHL1   H4B 4591   3.776   0.818   6.905 -0.3139 -0.8083 -0.1183
   47CHL1    C5 4592   3.667   0.852   6.715 -0.2914 -0.1425  0.8105
   47CHL1    C6 4593   3.759   0.793   6.646 -0.4689 -0.3635 -0.1068
   47CHL1    H6 4594   3.842   0.751   6.705 -0.3232  0.1556  0.0659
   47CHL1    C7 4595   3.752   0.786   6.494 -0.0263 -0.2041  0.0777
   47CHL1   H7A 4596   3.855   0.794   6.455 -1.5693  0.7618 -4.3938
   47CHL1   H7B 4597   3.727   0.685   6.456 -0.1329  0.3895 -1.5148
   47CHL1    C8 4598   3.645   0.882   6.423  0.0967  0.3995 -0.8176
   47CHL1    H8 4599   3.679   0.987   6.435 -0.6123  0.4233  1.7044
   47CHL1   C14 4600   3.630   0.846   6.277 -0.0894 -0.0200 -0.3415
   47CHL1   H14 4601   3.611   0.738   6.259  1.9127 -0.4165 -0.2235
   47CHL1   C15 4602   3.761   0.874   6.180 -0.1031 -0.0191 -0.0114
   47CHL1  H15A 4603   3.812   0.967   6.214  0.7899  0.1293 -1.6685
   47CHL1  H15B 4604   3.830   0.787   6.187 -1.0222 -0.9736 -2.0026
   47CHL1   C16 4605   3.693   0.898   6.045  0.3116  0.3569  0.9692
   47CHL1  H16A 4606   3.721   0.997   6.002  0.1346 -0.6248 -1.6010
   47CHL1  H16B 4607   3.725   0.825   5.968 -2.3266  1.9205 -1.8569
   47CHL1   C17 4608   3.531   0.886   6.067  0.7146  0.1185 -0.1479
   47CHL1   H17 4609   3.508   0.778   6.057 -1.2643  0.1189  2.9548
   47CHL1   C13 4610   3.514   0.927   6.211  0.1393  0.2927 -0.3206
   47CHL1   C18 4611   3.533   1.077   6.223 -0.1766  0.0362  0.1704
   47CHL1  H18A 4612   3.627   1.116   6.178  1.2058 -1.8309  1.3145
   47CHL1  H18B 4613   3.450   1.138   6.182  0.3972  0.7060 -0.0105
   47CHL1  H18C 4614   3.549   1.112   6.328  0.9016  2.0352 -0.5935
   47CHL1   C12 4615   3.386   0.885   6.283 -0.1291  0.1581 -0.3199
   47CHL1  H12A 4616   3.295   0.942   6.254  0.6279  0.9903 -1.1330
   47CHL1  H12B 4617   3.378   0.776   6.266 -0.1691 -0.0257  0.8618
   47CHL1   C11 4618   3.394   0.921   6.433  0.4722  0.0711  0.8092
   47CHL1  H11A 4619   3.388   1.030   6.454 -1.8972  0.0152  0.6356
   47CHL1  H11B 4620   3.303   0.879   6.480  0.4596  1.0980  1.7464
   47CHL1    C9 4621   3.515   0.858   6.499  0.5496 -0.8037  0.4480
   47CHL1    H9 4622   3.510   0.747   6.503  2.7928 -0.9986 -0.6531
   47CHL1   C10 4623   3.534   0.899   6.654  1.1003  0.3419 -0.1188
   47CHL1   C19 4624   3.526   1.051   6.682  0.1008  0.6457 -0.1191
   47CHL1  H19A 4625   3.540   1.080   6.788  1.7602 -2.2579  0.5738
   47CHL1  H19B 4626   3.608   1.110   6.635  1.4119 -1.0008 -0.0068
   47CHL1  H19C 4627   3.423   1.089   6.664 -0.4066 -0.2422  0.7968
   47CHL1    C1 4628   3.411   0.834   6.739 -0.3811  0.4451  0.2602
   47CHL1   H1A 4629   3.311   0.880   6.721 -0.8810 -0.6323  0.2250
   47CHL1   H1B 4630   3.396   0.727   6.714 -1.6667  1.1292 -2.3382
   47CHL1    C2 4631   3.429   0.841   6.894 -0.0366 -0.7812  0.3314
   47CHL1   H2A 4632   3.344   0.783   6.935 -1.0772 -1.2364 -2.2662
   47CHL1   H2B 4633   3.436   0.948   6.925  4.1600 -0.8791  0.4090
   47CHL1   C20 4634   3.462   0.965   5.956 -0.1397 -0.0828 -0.0322
   47CHL1   H20 4635   3.488   1.073   5.956 -1.2488  0.2037 -1.2858
   47CHL1   C21 4636   3.308   0.955   5.981 -0.2481 -0.4555 -0.4319
   47CHL1  H21A 4637   3.282   0.847   5.993 -0.6261 -0.2508  0.6436
   47CHL1  H21B 4638   3.242   0.989   5.899 -1.3555  1.8336  1.2902
   47CHL1  H21C 4639   3.290   1.012   6.075  1.1510 -0.6138 -0.0367
   47CHL1   C22 4640   3.495   0.904   5.809 -1.2301 -0.8806 -0.9008
   47CHL1  H22A 4641   3.606   0.908   5.807 -1.2136 -0.3081  0.2884
   47CHL1  H22B 4642   3.467   0.797   5.815 -0.4692 -1.0096  1.2146
   47CHL1   C23 4643   3.440   0.983   5.683 -0.0908 -0.9567 -0.2853
   47CHL1  H23A 4644   3.330   0.992   5.689  0.0889  2.0630 -0.1944
   47CHL1  H23B 4645   3.479   1.087   5.687  0.4109 -1.1482 -0.0864
   47CHL1   C24 4646   3.464   0.912   5.550 -0.3240 -0.9103  0.2574
   47CHL1  H24A 4647   3.573   0.914   5.531 -0.3230  1.8391  0.2914
   47CHL1  H24B 4648   3.420   0.809   5.553  1.1378 -1.6974 -2.3033
   47CHL1   C25 4649   3.411   0.982   5.422  0.1069  0.4562 -0.5145
   47CHL1   H25 4650   3.300   0.978   5.424  0.1415 -0.4684 -0.1497
   47CHL1   C26 4651   3.448   1.133   5.413 -0.8520  0.1136 -0.7298
   47CHL1  H26A 4652   3.559   1.139   5.424 -0.8708  1.1400 -1.0144
   47CHL1  H26B 4653   3.439   1.158   5.306 -0.2098  1.3381 -0.5172
   47CHL1  H26C 4654   3.403   1.205   5.485 -0.6101 -0.8583  0.4426
   47CHL1   C27 4655   3.466   0.911   5.303  0.1166  0.2388  0.1234
   47CHL1  H27A 4656   3.569   0.942   5.275 -0.0043  0.9124  0.4003
   47CHL1  H27B 4657   3.466   0.803   5.328 -0.8427  0.3903  0.8398
   47CHL1  H27C 4658   3.407   0.927   5.210  0.6120  1.4439 -0.0115
   48CHL1    C3 4659   6.266   1.501   6.515  0.4116  0.3176 -0.5570
   48CHL1    H3 4660   6.224   1.602   6.537  0.2788 -0.0957  1.2293
   48CHL1    O3 4661   6.325   1.468   6.640 -0.6672 -0.4184 -0.3052
   48CHL1   H3' 4662   6.333   1.373   6.646 -1.1924 -0.4284  0.3703
   48CHL1    C4 4663   6.160   1.391   6.473  0.3510  0.4655 -0.2527
   48CHL1   H4A 4664   6.203   1.289   6.467 -1.8490 -0.8111  2.9851
   48CHL1   H4B 4665   6.081   1.387   6.551  0.7543 -0.7287  0.1186
   48CHL1    C5 4666   6.099   1.438   6.341 -0.0052 -0.3087 -0.1799
   48CHL1    C6 4667   5.970   1.449   6.318 -0.2884 -0.4066 -0.1079
   48CHL1    H6 4668   5.909   1.419   6.405  0.7763 -0.1519  0.7441
   48CHL1    C7 4669   5.911   1.491   6.183  0.7163  0.0572  0.0845
   48CHL1   H7A 4670   5.814   1.439   6.167  1.3496 -1.1158 -0.0528
   48CHL1   H7B 4671   5.884   1.599   6.184 -0.0028  0.0898 -4.4604
   48CHL1    C8 4672   6.013   1.448   6.071  0.1376 -0.0778  0.3921
   48CHL1    H8 4673   6.024   1.338   6.059  0.8401  0.2318 -2.4482
   48CHL1   C14 4674   5.948   1.507   5.937  0.2265  0.3151 -0.7584
   48CHL1   H14 4675   5.926   1.614   5.956 -1.3547 -0.2565  0.9593
   48CHL1   C15 4676   5.807   1.443   5.891  0.8643 -0.0341 -0.3604
   48CHL1  H15A 4677   5.812   1.332   5.894 -0.1029 -0.0778  1.0542
   48CHL1  H15B 4678   5.722   1.469   5.958 -0.0332 -1.1959 -1.0141
   48CHL1   C16 4679   5.798   1.495   5.742 -0.2244 -0.0113 -0.1054
   48CHL1  H16A 4680   5.776   1.419   5.664  3.5014  0.3180 -1.7112
   48CHL1  H16B 4681   5.730   1.582   5.727  0.1882  0.1547 -1.1143
   48CHL1   C17 4682   5.943   1.551   5.701  0.5220 -0.0689 -0.1911
   48CHL1   H17 4683   5.932   1.660   5.718  1.7192  0.4136 -2.1525
   48CHL1   C13 4684   6.035   1.503   5.816 -0.1530 -0.1752 -0.9180
   48CHL1   C18 4685   6.065   1.354   5.786  0.0060 -0.4137 -0.0595
   48CHL1  H18A 4686   6.136   1.341   5.702  0.8906 -1.5568  0.8116
   48CHL1  H18B 4687   6.113   1.307   5.875  1.2729 -1.4260 -1.2474
   48CHL1  H18C 4688   5.969   1.304   5.762 -1.8016  2.3314  0.9244
   48CHL1   C12 4689   6.161   1.581   5.853 -0.4911 -0.3822 -0.1711
   48CHL1  H12A 4690   6.232   1.586   5.768 -1.4017 -0.3666 -0.9415
   48CHL1  H12B 4691   6.137   1.686   5.880 -0.0022 -0.0479 -1.0004
   48CHL1   C11 4692   6.239   1.524   5.973  0.5027  0.5782 -0.0199
   48CHL1  H11A 4693   6.279   1.427   5.936  1.6220  1.1141 -0.2521
   48CHL1  H11B 4694   6.331   1.584   5.988 -0.7575  2.5772  0.0486
   48CHL1    C9 4695   6.148   1.514   6.098 -0.5632 -0.3252  0.4880
   48CHL1    H9 4696   6.118   1.620   6.113  2.7092  0.9412 -0.9074
   48CHL1   C10 4697   6.210   1.462   6.228 -0.2567 -0.1306  0.4512
   48CHL1   C19 4698   6.272   1.326   6.197 -0.2265  0.1111 -0.4725
   48CHL1  H19A 4699   6.186   1.260   6.175 -2.0576  2.6104 -1.3748
   48CHL1  H19B 4700   6.333   1.320   6.104 -2.4646 -1.6199 -1.9271
   48CHL1  H19C 4701   6.332   1.281   6.279  1.8255  3.2211 -0.0611
   48CHL1    C1 4702   6.325   1.562   6.277  0.4316 -0.2433 -0.0342
   48CHL1   H1A 4703   6.406   1.565   6.201  1.0917  1.5705  0.6884
   48CHL1   H1B 4704   6.281   1.664   6.272  0.4887 -0.2632 -3.3961
   48CHL1    C2 4705   6.377   1.520   6.412 -0.3671  0.0375  0.1032
   48CHL1   H2A 4706   6.442   1.601   6.450 -0.4238 -0.2735  0.9031
   48CHL1   H2B 4707   6.442   1.430   6.405 -1.0740 -0.5166  0.5206
   48CHL1   C20 4708   5.981   1.523   5.558 -0.5656 -0.1555 -0.4429
   48CHL1   H20 4709   6.001   1.414   5.549 -1.5106 -0.6636  2.3800
   48CHL1   C21 4710   6.108   1.599   5.524  0.1566  0.7161  0.6972
   48CHL1  H21A 4711   6.128   1.592   5.415  0.1102 -1.5282  0.7824
   48CHL1  H21B 4712   6.114   1.700   5.568 -2.3477  1.3179 -0.1764
   48CHL1  H21C 4713   6.197   1.547   5.564  0.0502 -0.8784 -0.9737
   48CHL1   C22 4714   5.875   1.565   5.461  0.4706 -0.4976 -0.1785
   48CHL1  H22A 4715   5.777   1.521   5.491 -0.2097  0.9915 -0.0882
   48CHL1  H22B 4716   5.858   1.673   5.480 -0.9228 -0.4346 -1.5732
   48CHL1   C23 4717   5.892   1.542   5.303  0.0575  0.0840  0.0474
   48CHL1  H23A 4718   5.956   1.617   5.251  2.4680 -2.7059 -1.2751
   48CHL1  H23B 4719   5.934   1.440   5.291  1.1236  0.4301  0.6584
   48CHL1   C24 4720   5.752   1.558   5.247 -0.5978  0.4701  0.4026
   48CHL1  H24A 4721   5.678   1.494   5.300 -2.3032  0.8898 -1.3284
   48CHL1  H24B 4722   5.737   1.667   5.265 -0.5039  0.2705  1.8560
   48CHL1   C25 4723   5.756   1.541   5.090 -0.0469  0.4291 -0.6477
   48CHL1   H25 4724   5.742   1.431   5.079 -1.8491  0.6828 -1.2330
   48CHL1   C26 4725   5.627   1.601   5.033  0.1678  0.0490 -0.2100
   48CHL1  H26A 4726   5.611   1.569   4.928  2.1681 -0.2204 -0.4643
   48CHL1  H26B 4727   5.542   1.571   5.098  0.7160 -0.3665  0.3304
   48CHL1  H26C 4728   5.637   1.712   5.031 -0.7673  0.1766 -3.9003
   48CHL1   C27 4729   5.879   1.576   5.012  0.5858  0.1416  0.3934
   48CHL1  H27A 4730   5.851   1.577   4.905 -0.0715  0.8112  0.5663
   48CHL1  H27B 4731   5.916   1.679   5.033  1.0513  0.1198 -0.2895
   48CHL1  H27C 4732   5.952   1.495   5.036  0.5472 -0.1618 -0.5040
   49CHL1    C3 4733   4.575   1.866   3.181 -0.1409  0.1631 -0.1845
   49CHL1    H3 4734   4.491   1.793   3.179 -1.0743  1.0412  2.0897
   49CHL1    O3 4735   4.632   1.890   3.051  0.9150  0.0401 -0.0011
   49CHL1   H3' 4736   4.691   1.815   3.041  1.1264  0.4898 -3.7404
   49CHL1    C4 4737   4.511   1.998   3.238  0.6256  0.4704 -0.8087
   49CHL1   H4A 4738   4.582   2.084   3.227 -0.3623  1.5866  1.0102
   49CHL1   H4B 4739   4.426   2.021   3.171  1.2969 -0.2470 -1.9237
   49CHL1    C5 4740   4.475   1.985   3.389  0.4011 -0.7605  0.4709
   49CHL1    C6 4741   4.351   2.021   3.430  0.2635 -0.2790 -0.0105
   49CHL1    H6 4742   4.277   2.061   3.359  0.4710 -0.7475 -0.4931
   49CHL1    C7 4743   4.306   2.003   3.573  0.2492 -0.8234 -0.7537
   49CHL1   H7A 4744   4.239   2.085   3.606 -2.2441 -2.9587 -0.1936
   49CHL1   H7B 4745   4.238   1.915   3.577 -0.4287 -0.3182 -1.1069
   49CHL1    C8 4746   4.421   1.982   3.677  0.3682 -0.4076 -0.6301
   49CHL1    H8 4747   4.470   2.081   3.694 -4.8598  2.4234  0.0690
   49CHL1   C14 4748   4.367   1.946   3.821 -0.3556  0.4224  0.0606
   49CHL1   H14 4749   4.314   1.848   3.825 -0.9071  0.7334  0.6867
   49CHL1   C15 4750   4.267   2.053   3.888  0.0589  0.5817 -0.2581
   49CHL1  H15A 4751   4.298   2.158   3.873  1.8083  0.2354  0.6505
   49CHL1  H15B 4752   4.164   2.034   3.850 -0.5743 -0.8678  1.9657
   49CHL1   C16 4753   4.273   2.011   4.034 -0.0836 -0.0114  0.5175
   49CHL1  H16A 4754   4.293   2.101   4.094  2.0735 -0.5138  0.6489
   49CHL1  H16B 4755   4.183   1.956   4.067 -0.3458 -0.9562 -1.5629
   49CHL1   C17 4756   4.395   1.909   4.050 -0.6221  0.1230 -0.9543
   49CHL1   H17 4757   4.341   1.812   4.047 -0.2957 -0.1983  1.4302
   49CHL1   C13 4758   4.479   1.929   3.922  0.3232  0.8971  0.0168
   49CHL1   C18 4759   4.553   2.063   3.946 -0.8094  0.1272 -0.0666
   49CHL1  H18A 4760   4.495   2.144   3.996 -0.3938 -0.2318  1.0196
   49CHL1  H18B 4761   4.629   2.028   4.018 -1.2594 -0.2496  0.2317
   49CHL1  H18C 4762   4.611   2.101   3.859  1.6511  0.4945  1.6215
   49CHL1   C12 4763   4.573   1.819   3.879 -0.0956 -0.5921  0.1741
   49CHL1  H12A 4764   4.655   1.794   3.950  1.5885  0.7946 -1.1875
   49CHL1  H12B 4765   4.516   1.725   3.866  0.7800 -1.1660  0.4194
   49CHL1   C11 4766   4.637   1.857   3.738  0.7073 -0.5747  0.0792
   49CHL1  H11A 4767   4.710   1.940   3.747 -0.8601  0.9857 -0.8484
   49CHL1  H11B 4768   4.687   1.764   3.703  1.4128  0.5315 -2.0583
   49CHL1    C9 4769   4.527   1.889   3.629  0.2067 -0.3544 -0.0338
   49CHL1    H9 4770   4.470   1.794   3.615 -0.2062 -0.3783  1.6153
   49CHL1   C10 4771   4.582   1.925   3.488  0.4363  0.0209  0.2223
   49CHL1   C19 4772   4.684   2.038   3.502 -0.3192  1.0465  0.2665
   49CHL1  H19A 4773   4.772   1.990   3.551 -1.5154 -1.3262  0.2500
   49CHL1  H19B 4774   4.723   2.082   3.408  1.2755  1.9351  1.3047
   49CHL1  H19C 4775   4.652   2.114   3.576 -0.2242 -0.5794  2.0603
   49CHL1    C1 4776   4.633   1.793   3.425  0.4279  0.5674  0.4550
   49CHL1   H1A 4777   4.722   1.762   3.483  0.6607  0.8239  0.2388
   49CHL1   H1B 4778   4.556   1.712   3.422  1.9849 -0.9412 -1.8512
   49CHL1    C2 4779   4.683   1.810   3.277 -0.5275  0.2950 -0.2631
   49CHL1   H2A 4780   4.717   1.710   3.244  0.6301  1.8975 -4.5300
   49CHL1   H2B 4781   4.761   1.888   3.279 -1.1951  0.9782 -0.4806
   49CHL1   C20 4782   4.462   1.920   4.195 -0.0348  0.4527  0.2033
   49CHL1   H20 4783   4.484   2.029   4.203  0.0985  0.3548  1.2584
   49CHL1   C21 4784   4.580   1.833   4.210  0.1461  0.0988 -0.3501
   49CHL1  H21A 4785   4.669   1.878   4.161 -0.8023  3.3704  0.6701
   49CHL1  H21B 4786   4.566   1.727   4.178 -1.0193 -0.0028  0.4107
   49CHL1  H21C 4787   4.620   1.841   4.313  1.4800 -0.6241 -0.7869
   49CHL1   C22 4788   4.357   1.890   4.306 -1.0894 -0.1522  0.0472
   49CHL1  H22A 4789   4.263   1.941   4.275  0.1104  1.1190 -1.6675
   49CHL1  H22B 4790   4.327   1.783   4.301  0.1252 -0.4826 -0.3570
   49CHL1   C23 4791   4.392   1.913   4.453  0.0305  0.1356  0.6761
   49CHL1  H23A 4792   4.311   1.876   4.520  1.5151  1.1956  3.2428
   49CHL1  H23B 4793   4.486   1.858   4.476 -0.0496  0.5767  2.1934
   49CHL1   C24 4794   4.411   2.068   4.471 -0.2583  0.2231  0.0433
   49CHL1  H24A 4795   4.496   2.096   4.405  1.0768 -0.3862  1.4165
   49CHL1  H24B 4796   4.319   2.116   4.432 -0.5299 -1.6742 -1.8615
   49CHL1   C25 4797   4.447   2.127   4.605 -0.4177 -0.0522 -1.0576
   49CHL1   H25 4798   4.523   2.073   4.665 -1.9390  1.2390  2.2828
   49CHL1   C26 4799   4.495   2.276   4.590  0.6992  0.3763 -0.6451
   49CHL1  H26A 4800   4.485   2.335   4.684 -2.1005  1.7161 -1.6698
   49CHL1  H26B 4801   4.597   2.269   4.548  0.9227 -1.6586  0.1253
   49CHL1  H26C 4802   4.428   2.316   4.511  0.9102  1.7220 -0.1617
   49CHL1   C27 4803   4.321   2.122   4.684  0.3241 -0.1213 -0.3249
   49CHL1  H27A 4804   4.248   2.202   4.660 -0.9568 -0.8339  0.9916
   49CHL1  H27B 4805   4.268   2.024   4.672  1.9354 -0.7762 -2.7505
   49CHL1  H27C 4806   4.346   2.118   4.792  1.5393 -0.1503 -0.5920
   50CHL1    C3 4807   5.265   4.763   3.225 -0.2519 -0.5352 -0.2083
   50CHL1    H3 4808   5.252   4.655   3.248 -2.2917 -0.4936 -0.9353
   50CHL1    O3 4809   5.253   4.791   3.085  0.3224 -0.2909  0.4592
   50CHL1   H3' 4810   5.298   4.726   3.031 -1.1555 -1.4939  0.6035
   50CHL1    C4 4811   5.164   4.854   3.298 -0.2547 -0.1497 -1.0925
   50CHL1   H4A 4812   5.183   4.960   3.271 -0.6116  0.7145  1.7332
   50CHL1   H4B 4813   5.061   4.824   3.268  0.5723 -3.3085 -1.1364
   50CHL1    C5 4814   5.174   4.829   3.456  0.0333  0.1944  0.5432
   50CHL1    C6 4815   5.061   4.793   3.527 -0.0659 -0.2578  0.5366
   50CHL1    H6 4816   4.967   4.785   3.472 -0.0374 -0.1014  0.4662
   50CHL1    C7 4817   5.050   4.787   3.674  0.2968  0.2924  0.3212
   50CHL1   H7A 4818   4.960   4.841   3.710  0.6449  0.5740  0.7871
   50CHL1   H7B 4819   5.035   4.680   3.699 -2.0733  0.5287  0.0936
   50CHL1    C8 4820   5.179   4.846   3.743 -0.2971  0.2747 -0.3281
   50CHL1    H8 4821   5.173   4.957   3.735 -1.1709  0.2425 -0.2740
   50CHL1   C14 4822   5.189   4.789   3.887 -0.5476  0.3139  0.6404
   50CHL1   H14 4823   5.198   4.680   3.870 -0.4116  0.5538 -1.0306
   50CHL1   C15 4824   5.073   4.815   3.980  0.4155  0.6935 -0.2650
   50CHL1  H15A 4825   5.037   4.920   3.985  5.4058  2.6599  1.7601
   50CHL1  H15B 4826   4.977   4.764   3.960 -0.2329  2.4686 -2.0352
   50CHL1   C16 4827   5.131   4.787   4.121 -0.2079  0.1904 -0.0542
   50CHL1  H16A 4828   5.117   4.876   4.185 -0.4674  1.3162 -1.6156
   50CHL1  H16B 4829   5.078   4.700   4.167 -0.1025  1.4842  2.7275
   50CHL1   C17 4830   5.281   4.764   4.102  0.0021  0.2250 -0.1377
   50CHL1   H17 4831   5.299   4.654   4.094 -0.3305  0.2011 -0.5504
   50CHL1   C13 4832   5.322   4.825   3.958  0.1206 -0.2828  0.1495
   50CHL1   C18 4833   5.334   4.976   3.972 -0.5611  0.2254 -0.6564
   50CHL1  H18A 4834   5.307   5.016   3.872  0.0950 -1.0487 -1.3657
   50CHL1  H18B 4835   5.271   5.009   4.057  1.1976  1.0779  0.3672
   50CHL1  H18C 4836   5.438   4.999   4.003  0.0455 -3.0779  0.1808
   50CHL1   C12 4837   5.434   4.759   3.877  0.3783  0.2356 -0.1312
   50CHL1  H12A 4838   5.536   4.785   3.915  0.4441 -0.7288  0.3807
   50CHL1  H12B 4839   5.413   4.650   3.880  2.0924 -0.2979 -3.4089
   50CHL1   C11 4840   5.442   4.812   3.734 -0.6745 -0.0612 -0.4118
   50CHL1  H11A 4841   5.474   4.919   3.737 -1.2828  0.1067  0.3489
   50CHL1  H11B 4842   5.522   4.749   3.690  0.9720 -0.0932  2.4298
   50CHL1    C9 4843   5.309   4.800   3.664 -0.2647 -0.0468  0.8168
   50CHL1    H9 4844   5.292   4.691   3.646 -2.8271  0.4731 -0.5572
   50CHL1   C10 4845   5.313   4.854   3.520  0.1855 -0.5993  0.1062
   50CHL1   C19 4846   5.355   5.004   3.515  1.1686 -0.0443  0.5775
   50CHL1  H19A 4847   5.355   5.042   3.411 -1.3791  1.3986  1.0375
   50CHL1  H19B 4848   5.283   5.063   3.575  0.9197 -0.2815  0.5146
   50CHL1  H19C 4849   5.457   5.018   3.558  1.1718  0.6755  0.3388
   50CHL1    C1 4850   5.418   4.775   3.431  0.3744  0.3204 -0.0234
   50CHL1   H1A 4851   5.517   4.806   3.469 -0.0545 -1.0496  2.4396
   50CHL1   H1B 4852   5.413   4.666   3.451 -1.9421  0.1740 -1.0687
   50CHL1    C2 4853   5.404   4.799   3.283  0.4482  0.1162  0.0400
   50CHL1   H2A 4854   5.481   4.735   3.236  0.8292  0.7690 -0.2383
   50CHL1   H2B 4855   5.424   4.905   3.254 -0.3544  0.3600  0.3421
   50CHL1   C20 4856   5.358   4.813   4.229 -0.2076 -0.2620  0.0695
   50CHL1   H20 4857   5.351   4.923   4.242  3.3078  0.0556  0.0218
   50CHL1   C21 4858   5.511   4.764   4.217 -0.1617 -0.0154 -0.2718
   50CHL1  H21A 4859   5.496   4.654   4.213 -1.2356  0.0882  0.4779
   50CHL1  H21B 4860   5.551   4.792   4.317 -3.6804 -2.5907  2.0932
   50CHL1  H21C 4861   5.566   4.801   4.128 -0.0191  1.3964  0.3730
   50CHL1   C22 4862   5.305   4.756   4.368  0.1588  0.6435  0.1513
   50CHL1  H22A 4863   5.201   4.720   4.359 -0.6227  2.9207 -0.5529
   50CHL1  H22B 4864   5.368   4.667   4.388 -0.3971  0.1450 -0.3082
   50CHL1   C23 4865   5.322   4.844   4.493  0.6775  0.1013  0.0220
   50CHL1  H23A 4866   5.424   4.886   4.491  1.0657 -0.6758  1.5999
   50CHL1  H23B 4867   5.254   4.932   4.486 -0.3488 -0.5719  1.0842
   50CHL1   C24 4868   5.285   4.771   4.630 -0.5520  0.2684 -0.3680
   50CHL1  H24A 4869   5.174   4.771   4.630 -0.5927  2.1862  0.4808
   50CHL1  H24B 4870   5.314   4.664   4.631 -1.7686 -0.1226 -2.0233
   50CHL1   C25 4871   5.345   4.834   4.761 -0.1135  0.4861  0.5493
   50CHL1   H25 4872   5.320   4.769   4.848  1.3609 -0.0079  0.6338
   50CHL1   C26 4873   5.499   4.812   4.741 -0.1107  0.0446  0.3106
   50CHL1  H26A 4874   5.537   4.713   4.709 -1.6630  0.2148 -2.2840
   50CHL1  H26B 4875   5.525   4.883   4.659 -2.0849 -0.2126 -0.5910
   50CHL1  H26C 4876   5.547   4.863   4.828 -2.6549  1.8304  0.7718
   50CHL1   C27 4877   5.309   4.981   4.785 -0.0702 -0.8547  0.1532
   50CHL1  H27A 4878   5.340   5.019   4.885 -0.8674 -1.3427  0.6006
   50CHL1  H27B 4879   5.363   5.043   4.710 -1.6801 -2.3663 -2.3823
   50CHL1  H27C 4880   5.199   4.984   4.770 -0.0738 -1.2646  0.0701
   51CHL1    C3 4881   4.112   6.082   3.068  0.3042 -0.1798  0.2963
   51CHL1    H3 4882   4.221   6.060   3.075  0.3008 -0.2826  0.0360
   51CHL1    O3 4883   4.087   6.096   2.926 -0.1926 -0.1166 -0.2711
   51CHL1   H3' 4884   3.995   6.123   2.916  0.1040  1.2496  0.4300
   51CHL1    C4 4885   4.041   5.961   3.114 -0.0161  1.0158 -0.4329
   51CHL1   H4A 4886   3.932   5.968   3.094  0.3926  0.6189 -3.1938
   51CHL1   H4B 4887   4.079   5.879   3.050 -1.1370  0.2208 -0.1009
   51CHL1    C5 4888   4.062   5.936   3.269 -0.2329 -1.2093  0.1972
   51CHL1    C6 4889   4.107   5.819   3.318  0.0158 -0.0046 -0.2908
   51CHL1    H6 4890   4.141   5.736   3.254 -0.8300 -1.8750  1.5949
   51CHL1    C7 4891   4.120   5.793   3.466 -0.2039 -0.0448 -0.2740
   51CHL1   H7A 4892   4.059   5.704   3.493  0.1631  0.7948  4.1623
   51CHL1   H7B 4893   4.226   5.773   3.492 -0.4215  0.4768  1.1206
   51CHL1    C8 4894   4.064   5.905   3.560  0.5934  0.9606  0.3447
   51CHL1    H8 4895   3.956   5.881   3.571  0.6031  1.5195  1.8937
   51CHL1   C14 4896   4.127   5.892   3.701 -0.0839  0.1198 -0.1886
   51CHL1   H14 4897   4.227   5.935   3.685 -0.3281  0.6699 -0.2451
   51CHL1   C15 4898   4.140   5.750   3.771 -0.3056 -0.6434  0.2464
   51CHL1  H15A 4899   4.037   5.711   3.782 -0.4186 -0.0627  1.5574
   51CHL1  H15B 4900   4.204   5.670   3.729  0.6626  0.8322 -1.2039
   51CHL1   C16 4901   4.192   5.793   3.907 -0.1108  0.4514  0.1200
   51CHL1  H16A 4902   4.142   5.739   3.989  2.6395 -1.3472  0.7634
   51CHL1  H16B 4903   4.301   5.775   3.921 -0.1446  1.3470  1.7836
   51CHL1   C17 4904   4.166   5.941   3.926  0.3248  0.0564 -0.4940
   51CHL1   H17 4905   4.268   5.978   3.905  0.5486  0.1136  0.5961
   51CHL1   C13 4906   4.079   5.987   3.806 -0.2486 -0.1638 -0.6582
   51CHL1   C18 4907   3.929   5.958   3.837  0.0762 -0.0479  0.1806
   51CHL1  H18A 4908   3.892   6.026   3.916 -0.2553  1.6063 -1.3163
   51CHL1  H18B 4909   3.872   5.977   3.743  0.5039 -1.1763 -0.3274
   51CHL1  H18C 4910   3.915   5.858   3.883  2.2998 -1.9633 -2.9052
   51CHL1   C12 4911   4.107   6.129   3.753  0.2961 -0.3204  0.4741
   51CHL1  H12A 4912   4.062   6.210   3.815 -0.0677 -0.0191 -0.1831
   51CHL1  H12B 4913   4.216   6.147   3.741  0.4240 -0.4942  1.2825
   51CHL1   C11 4914   4.064   6.152   3.603  0.2008 -0.1123  0.5490
   51CHL1  H11A 4915   3.954   6.165   3.600  0.1643 -0.2392  1.1305
   51CHL1  H11B 4916   4.109   6.244   3.560  1.7393 -0.2814  1.6837
   51CHL1    C9 4917   4.095   6.042   3.504 -0.0162  0.6951  1.2899
   51CHL1    H9 4918   4.205   6.053   3.497  0.0261 -0.5177 -2.8851
   51CHL1   C10 4919   4.037   6.063   3.361 -0.6102  0.5269  0.0007
   51CHL1   C19 4920   3.884   6.078   3.374  0.0828  0.2363 -0.3333
   51CHL1  H19A 4921   3.844   6.084   3.271 -1.1312  0.2844  0.1240
   51CHL1  H19B 4922   3.832   5.993   3.424  1.9031 -0.9140 -0.3106
   51CHL1  H19C 4923   3.864   6.174   3.427  1.4134  0.5455 -0.3580
   51CHL1    C1 4924   4.100   6.187   3.291  0.4330 -1.4648 -0.0696
   51CHL1   H1A 4925   4.073   6.273   3.355  0.9114 -1.2751 -0.1230
   51CHL1   H1B 4926   4.210   6.186   3.302  0.8362  0.7956 -2.8513
   51CHL1    C2 4927   4.065   6.206   3.147  0.4571  0.0101  0.1409
   51CHL1   H2A 4928   4.120   6.290   3.100  1.1973 -0.5774 -0.0749
   51CHL1   H2B 4929   3.960   6.233   3.125  0.2279  0.2377  1.4332
   51CHL1   C20 4930   4.141   5.992   4.069  0.3257  0.6811  0.7983
   51CHL1   H20 4931   4.047   5.941   4.100 -0.3023  1.3357  0.0146
   51CHL1   C21 4932   4.112   6.142   4.072 -0.3973  0.2183  0.0632
   51CHL1  H21A 4933   4.097   6.181   4.175  1.8759 -0.4126  0.6955
   51CHL1  H21B 4934   4.030   6.167   4.002  0.3827  1.6302 -0.3839
   51CHL1  H21C 4935   4.203   6.196   4.038  0.5110 -1.2774  0.0452
   51CHL1   C22 4936   4.250   5.955   4.171  0.1082  0.2560 -0.0252
   51CHL1  H22A 4937   4.260   5.844   4.175  1.7446  0.3734  0.0371
   51CHL1  H22B 4938   4.350   5.998   4.147  1.2781 -2.1538  0.1643
   51CHL1   C23 4939   4.215   5.974   4.324  0.3168 -0.2104 -0.5096
   51CHL1  H23A 4940   4.206   6.083   4.340 -0.3703 -0.2255 -0.7807
   51CHL1  H23B 4941   4.129   5.917   4.364  0.9724 -0.4461  0.6178
   51CHL1   C24 4942   4.332   5.943   4.421 -0.5095 -0.2005 -0.2467
   51CHL1  H24A 4943   4.296   5.969   4.523  1.8828  1.2110  0.3299
   51CHL1  H24B 4944   4.366   5.838   4.412  1.4368  0.5716 -4.4499
   51CHL1   C25 4945   4.460   6.024   4.403  0.1263 -0.1632 -0.4583
   51CHL1   H25 4946   4.496   6.013   4.298  3.5447 -1.4831  0.6958
   51CHL1   C26 4947   4.433   6.176   4.420 -0.2030  0.4118  1.0527
   51CHL1  H26A 4948   4.363   6.182   4.506  0.1246  0.8076  1.2974
   51CHL1  H26B 4949   4.526   6.235   4.436 -0.4484  0.7663  1.1788
   51CHL1  H26C 4950   4.380   6.216   4.331 -0.3623 -1.5012  0.2487
   51CHL1   C27 4951   4.574   5.981   4.502  0.1881  0.0467 -0.2689
   51CHL1  H27A 4952   4.561   5.981   4.612  2.0939  1.0713  0.0043
   51CHL1  H27B 4953   4.585   5.875   4.470  2.0249  0.7131 -1.9950
   51CHL1  H27C 4954   4.669   6.037   4.486  1.6753 -2.8701 -2.8230
   52CHL1    C3 4955   3.471   1.042   3.526 -0.1837  0.2592  0.2596
   52CHL1    H3 4956   3.362   1.039   3.548  0.1236 -0.5080  1.8637
   52CHL1    O3 4957   3.496   1.021   3.386 -0.2490  0.1433 -0.4775
   52CHL1   H3' 4958   3.584   0.983   3.384  0.2946  1.3154  0.1101
   52CHL1    C4 4959   3.533   1.176   3.571 -0.1320  0.5898  0.8053
   52CHL1   H4A 4960   3.633   1.185   3.525 -0.8681  1.9842 -0.6023
   52CHL1   H4B 4961   3.468   1.255   3.526 -0.5973 -0.6281 -0.7582
   52CHL1    C5 4962   3.536   1.201   3.724 -0.2233 -0.6235  0.4355
   52CHL1    C6 4963   3.485   1.308   3.789  0.8240  0.3004  0.0025
   52CHL1    H6 4964   3.429   1.383   3.730 -0.4713 -0.6876 -0.0674
   52CHL1    C7 4965   3.474   1.327   3.944  0.4481 -0.0508 -0.3887
   52CHL1   H7A 4966   3.499   1.428   3.982 -0.6100  0.1041 -0.0485
   52CHL1   H7B 4967   3.374   1.309   3.990  2.7446  0.1031  5.4375
   52CHL1    C8 4968   3.568   1.233   4.019  0.5309  0.8725  0.2862
   52CHL1    H8 4969   3.670   1.278   4.010  0.0452  1.7724 -0.9640
   52CHL1   C14 4970   3.542   1.229   4.163  0.3070  0.9408  0.1754
   52CHL1   H14 4971   3.439   1.193   4.185  0.2140  0.7872 -0.4852
   52CHL1   C15 4972   3.553   1.369   4.225  0.0932  0.2405 -0.4128
   52CHL1  H15A 4973   3.647   1.420   4.194 -0.0530  1.3245  0.8344
   52CHL1  H15B 4974   3.464   1.430   4.200 -0.5578 -0.3790  0.3126
   52CHL1   C16 4975   3.550   1.331   4.377  0.3932  0.3359  0.6956
   52CHL1  H16A 4976   3.630   1.388   4.428 -1.2942  1.5926  2.0172
   52CHL1  H16B 4977   3.449   1.340   4.421 -0.0447  0.1884 -0.2467
   52CHL1   C17 4978   3.593   1.178   4.383  0.5602 -0.1050  0.4539
   52CHL1   H17 4979   3.501   1.118   4.402  0.0494 -0.0432 -1.5778
   52CHL1   C13 4980   3.638   1.138   4.244 -0.4789 -0.0218  0.6130
   52CHL1   C18 4981   3.782   1.187   4.244 -0.3493  0.3383  0.2343
   52CHL1  H18A 4982   3.812   1.191   4.137 -1.5654 -1.3988 -0.2199
   52CHL1  H18B 4983   3.806   1.280   4.300  1.3850 -0.2591  0.5593
   52CHL1  H18C 4984   3.848   1.104   4.279 -0.8505 -0.5842 -0.9231
   52CHL1   C12 4985   3.620   0.990   4.198  0.7038  0.0425 -0.7498
   52CHL1  H12A 4986   3.662   0.904   4.255 -2.3068 -0.8602  0.3262
   52CHL1  H12B 4987   3.512   0.969   4.211  0.7239 -0.3903 -1.2595
   52CHL1   C11 4988   3.641   0.980   4.051  0.6911 -0.0087 -0.1333
   52CHL1  H11A 4989   3.751   0.983   4.036  0.6410  1.5494 -0.4496
   52CHL1  H11B 4990   3.601   0.882   4.018  2.0295 -0.4288 -0.5810
   52CHL1    C9 4991   3.566   1.087   3.960 -0.1020  0.5545 -1.0123
   52CHL1    H9 4992   3.458   1.063   3.970 -0.2365  1.3611 -0.4640
   52CHL1   C10 4993   3.596   1.085   3.803 -0.0679  0.2376  0.0262
   52CHL1   C19 4994   3.757   1.088   3.795  0.0243 -0.4854 -0.0278
   52CHL1  H19A 4995   3.787   1.076   3.688 -1.4032  1.2554 -0.6790
   52CHL1  H19B 4996   3.791   1.186   3.835  1.5986 -1.6729  1.6731
   52CHL1  H19C 4997   3.797   1.003   3.855 -1.0662 -0.4342  0.8081
   52CHL1    C1 4998   3.541   0.943   3.755  0.6091  0.5418  0.9869
   52CHL1   H1A 4999   3.599   0.861   3.802 -1.1380 -0.6843  1.0960
   52CHL1   H1B 5000   3.434   0.933   3.785  0.4465 -1.6461 -0.1001
   52CHL1    C2 5001   3.542   0.932   3.601  0.4837 -0.0752 -0.7218
   52CHL1   H2A 5002   3.524   0.827   3.569 -0.7013  0.0166 -0.3952
   52CHL1   H2B 5003   3.650   0.949   3.579  1.5070 -3.3104  1.1913
   52CHL1   C20 5004   3.677   1.148   4.515  0.1476 -0.3331 -0.0785
   52CHL1   H20 5005   3.765   1.215   4.506 -0.7163  1.1766  1.8221
   52CHL1   C21 5006   3.721   1.003   4.532 -0.0899  0.1234  0.2824
   52CHL1  H21A 5007   3.802   0.993   4.607  0.6465  0.3298 -0.4657
   52CHL1  H21B 5008   3.758   0.971   4.432 -0.5895  0.3773  0.0105
   52CHL1  H21C 5009   3.623   0.956   4.557 -1.3441  1.5385 -1.6658
   52CHL1   C22 5010   3.595   1.186   4.639  0.1009 -0.0768  0.0928
   52CHL1  H22A 5011   3.576   1.295   4.637  2.1337  0.3059 -1.4730
   52CHL1  H22B 5012   3.495   1.141   4.622  0.4010 -0.3566 -1.0230
   52CHL1   C23 5013   3.653   1.158   4.778 -0.1551 -0.4197  0.0353
   52CHL1  H23A 5014   3.582   1.198   4.853 -1.3276  1.0347 -1.7544
   52CHL1  H23B 5015   3.659   1.049   4.798  0.3778 -0.3802  0.1198
   52CHL1   C24 5016   3.785   1.222   4.794  0.9784 -0.9389 -0.2077
   52CHL1  H24A 5017   3.845   1.171   4.716 -1.4367 -2.2012 -1.3668
   52CHL1  H24B 5018   3.791   1.332   4.785  1.3081 -1.0726 -2.1094
   52CHL1   C25 5019   3.844   1.182   4.932 -0.1243 -0.3616  1.4275
   52CHL1   H25 5020   3.814   1.075   4.939  0.6852 -0.7132 -0.1357
   52CHL1   C26 5021   3.995   1.182   4.930  0.7038  0.6520 -0.4460
   52CHL1  H26A 5022   4.031   1.112   5.008  0.5883  1.6332  0.4999
   52CHL1  H26B 5023   4.036   1.152   4.831  1.2787  1.3140 -0.4110
   52CHL1  H26C 5024   4.037   1.280   4.961  0.5311  2.3084 -4.7271
   52CHL1   C27 5025   3.780   1.271   5.042  0.5657  0.0975  0.1715
   52CHL1  H27A 5026   3.838   1.364   5.061  0.1146 -0.0865  2.9292
   52CHL1  H27B 5027   3.673   1.298   5.027  0.5673  0.5056  0.8424
   52CHL1  H27C 5028   3.788   1.210   5.135  0.8387 -2.7486 -1.6212
   53CHL1    C3 5029   3.277   0.484   3.477 -0.1393  0.8211 -0.0411
   53CHL1    H3 5030   3.378   0.438   3.490 -1.2487 -1.5635  0.8150
   53CHL1    O3 5031   3.238   0.473   3.342 -0.0308 -0.3800 -0.0585
   53CHL1   H3' 5032   3.144   0.491   3.343 -0.0664 -0.5685 -0.0548
   53CHL1    C4 5033   3.190   0.398   3.565  0.5456 -0.3780 -0.2081
   53CHL1   H4A 5034   3.088   0.442   3.559 -0.7499 -2.8560  1.7324
   53CHL1   H4B 5035   3.186   0.296   3.521  2.6713 -1.8713  2.7065
   53CHL1    C5 5036   3.249   0.406   3.709  0.8855 -0.2333 -0.2617
   53CHL1    C6 5037   3.279   0.293   3.773  0.1326  0.6715 -0.5199
   53CHL1    H6 5038   3.271   0.196   3.723 -0.2908  1.3550 -1.8249
   53CHL1    C7 5039   3.309   0.291   3.917 -0.4510 -0.0182 -0.2946
   53CHL1   H7A 5040   3.258   0.208   3.969  1.0303  1.0341  3.1059
   53CHL1   H7B 5041   3.417   0.270   3.931  0.0680  0.5816 -2.8656
   53CHL1    C8 5042   3.276   0.424   3.991 -0.1029  0.0462 -0.2894
   53CHL1    H8 5043   3.166   0.432   3.992 -0.2047 -0.8374  2.0891
   53CHL1   C14 5044   3.340   0.433   4.131  0.7310  0.4816 -0.2994
   53CHL1   H14 5045   3.450   0.422   4.120  0.7512 -3.9565  2.0456
   53CHL1   C15 5046   3.308   0.315   4.214 -0.2602  0.5809 -0.1339
   53CHL1  H15A 5047   3.208   0.268   4.198  0.7203 -0.6363 -3.5755
   53CHL1  H15B 5048   3.381   0.233   4.199  1.2788  1.9142 -0.1777
   53CHL1   C16 5049   3.317   0.369   4.356 -0.1608 -0.3433  0.2289
   53CHL1  H16A 5050   3.217   0.363   4.404 -0.5295  0.2287 -0.4387
   53CHL1  H16B 5051   3.390   0.308   4.412 -0.2821 -1.1095 -0.4244
   53CHL1   C17 5052   3.356   0.521   4.347 -0.9198  0.9603  0.0005
   53CHL1   H17 5053   3.467   0.528   4.344 -0.6443 -1.7763  0.9431
   53CHL1   C13 5054   3.295   0.559   4.214 -0.2987  0.0880  0.4029
   53CHL1   C18 5055   3.143   0.566   4.220  0.0654  0.0252  0.7386
   53CHL1  H18A 5056   3.093   0.559   4.121  2.9694 -1.4519 -0.7361
   53CHL1  H18B 5057   3.100   0.486   4.285  1.7379 -0.3263  1.4704
   53CHL1  H18C 5058   3.117   0.662   4.270 -2.5817  0.0011 -0.4194
   53CHL1   C12 5059   3.367   0.673   4.129  0.0942  0.3423 -0.3147
   53CHL1  H12A 5060   3.341   0.770   4.176  3.2710  1.5927 -0.8804
   53CHL1  H12B 5061   3.477   0.668   4.142  0.2414 -1.6052 -1.9476
   53CHL1   C11 5062   3.314   0.679   3.990  0.1356  0.4481 -0.1745
   53CHL1  H11A 5063   3.209   0.713   3.998  0.7934  2.4771  0.2161
   53CHL1  H11B 5064   3.360   0.762   3.933 -1.1638  1.1509 -0.2452
   53CHL1    C9 5065   3.319   0.546   3.909  0.0406 -1.5698  0.1351
   53CHL1    H9 5066   3.429   0.536   3.897  0.4589  1.7607  0.1889
   53CHL1   C10 5067   3.241   0.546   3.768  0.0007  0.2131 -0.1774
   53CHL1   C19 5068   3.094   0.595   3.789 -0.0390 -0.3292  0.2243
   53CHL1  H19A 5069   3.032   0.592   3.697  1.1021 -0.0364 -0.5782
   53CHL1  H19B 5070   3.029   0.530   3.851  0.3714 -1.7786 -0.8204
   53CHL1  H19C 5071   3.090   0.694   3.839  2.4698  0.7918 -1.5816
   53CHL1    C1 5072   3.311   0.642   3.676 -0.2438  0.1226 -0.4402
   53CHL1   H1A 5073   3.294   0.743   3.719  3.7750 -0.2998  2.7481
   53CHL1   H1B 5074   3.421   0.622   3.677 -0.0784  0.5571 -2.9131
   53CHL1    C2 5075   3.269   0.635   3.522  0.1531  0.1964 -0.1608
   53CHL1   H2A 5076   3.339   0.707   3.474  1.6728  0.7307  2.6757
   53CHL1   H2B 5077   3.163   0.667   3.513 -0.2922 -1.3389 -0.8026
   53CHL1   C20 5078   3.308   0.597   4.477 -0.0927 -0.4802 -0.0546
   53CHL1   H20 5079   3.201   0.573   4.494  0.4773 -1.3652  2.8843
   53CHL1   C21 5080   3.321   0.752   4.452  0.0273 -0.5831 -0.4609
   53CHL1  H21A 5081   3.418   0.793   4.418 -0.6785  2.2654  0.7077
   53CHL1  H21B 5082   3.300   0.813   4.542 -1.9452 -1.3687 -0.3306
   53CHL1  H21C 5083   3.247   0.783   4.375 -1.1723  1.5363  1.4197
   53CHL1   C22 5084   3.388   0.542   4.601 -0.4857 -0.5389  0.2979
   53CHL1  H22A 5085   3.395   0.431   4.603  1.5521 -0.4442  1.5542
   53CHL1  H22B 5086   3.495   0.570   4.591 -0.4637 -0.9268 -0.6895
   53CHL1   C23 5087   3.365   0.610   4.739  0.7275 -0.4892 -0.4157
   53CHL1  H23A 5088   3.353   0.719   4.721  0.1189 -0.6634 -1.1085
   53CHL1  H23B 5089   3.262   0.575   4.760 -0.6009  1.5694 -2.9067
   53CHL1   C24 5090   3.473   0.574   4.846 -0.3308 -0.0612 -0.0801
   53CHL1  H24A 5091   3.460   0.466   4.869 -0.2799  0.0889  0.7036
   53CHL1  H24B 5092   3.573   0.607   4.811  0.8167 -1.7641  1.3266
   53CHL1   C25 5093   3.457   0.636   4.990  0.1457 -0.1020  0.3961
   53CHL1   H25 5094   3.456   0.746   4.978  0.5301  0.2299  2.8704
   53CHL1   C26 5095   3.325   0.582   5.043 -0.4154  0.0373 -0.0964
   53CHL1  H26A 5096   3.333   0.477   5.078  0.4939 -0.1577 -0.8393
   53CHL1  H26B 5097   3.297   0.650   5.127 -1.5907 -1.5598  0.8706
   53CHL1  H26C 5098   3.240   0.599   4.974  0.1657 -0.7654 -1.0306
   53CHL1   C27 5099   3.573   0.605   5.079  0.1668  0.6474 -0.5171
   53CHL1  H27A 5100   3.585   0.495   5.071  2.6710  0.9698 -2.6611
   53CHL1  H27B 5101   3.667   0.651   5.042  0.9795 -0.2372  0.3991
   53CHL1  H27C 5102   3.544   0.632   5.182  0.5590 -0.0367 -0.2230
   54CHL1    C3 5103   3.933   1.801   3.225  0.0951  0.8771  1.1614
   54CHL1    H3 5104   3.999   1.887   3.249  0.2853  1.0671  0.0314
   54CHL1    O3 5105   3.901   1.807   3.084 -0.4366 -0.5085 -0.2785
   54CHL1   H3' 5106   3.982   1.830   3.038 -0.2285  0.5832  0.5983
   54CHL1    C4 5107   4.023   1.672   3.254 -0.2909  0.0307  0.6240
   54CHL1   H4A 5108   3.965   1.590   3.206 -4.4439  2.1919  1.4649
   54CHL1   H4B 5109   4.125   1.679   3.209  0.2547 -2.2691  1.3372
   54CHL1    C5 5110   4.038   1.647   3.401  0.0037  0.2477  0.3245
   54CHL1    C6 5111   4.158   1.631   3.448  0.3112 -0.6172 -0.4490
   54CHL1    H6 5112   4.246   1.626   3.382  1.0924 -0.2909  0.5412
   54CHL1    C7 5113   4.188   1.602   3.594 -0.1307 -0.2199 -1.3445
   54CHL1   H7A 5114   4.278   1.537   3.599  0.4370  0.4996 -2.0100
   54CHL1   H7B 5115   4.229   1.697   3.634  1.4794 -0.6613 -1.8866
   54CHL1    C8 5116   4.069   1.570   3.685  1.1179  0.1682 -0.0607
   54CHL1    H8 5117   4.039   1.465   3.663 -1.1248  0.3299  1.9028
   54CHL1   C14 5118   4.106   1.598   3.827  0.3536 -0.5385 -0.2779
   54CHL1   H14 5119   4.105   1.709   3.835 -2.3015 -0.4327 -1.3664
   54CHL1   C15 5120   4.242   1.537   3.881 -0.1836 -0.5718 -0.0482
   54CHL1  H15A 5121   4.263   1.436   3.839  0.1386 -0.6066  0.1930
   54CHL1  H15B 5122   4.311   1.619   3.852 -2.1099  0.3484 -2.3341
   54CHL1   C16 5123   4.204   1.532   4.030 -0.2599 -0.1624 -0.1901
   54CHL1  H16A 5124   4.211   1.432   4.077  0.6252 -0.6054 -1.2516
   54CHL1  H16B 5125   4.279   1.600   4.077 -0.3222  0.6881 -1.2996
   54CHL1   C17 5126   4.062   1.597   4.050 -0.5591  0.9035  0.9531
   54CHL1   H17 5127   4.092   1.704   4.051 -1.2898  1.2368 -2.0153
   54CHL1   C13 5128   3.993   1.563   3.922 -0.0293  0.3443 -0.6160
   54CHL1   C18 5129   3.967   1.412   3.933  0.8735  0.3717 -0.1454
   54CHL1  H18A 5130   3.869   1.409   3.984 -0.4778  3.4826 -2.2563
   54CHL1  H18B 5131   3.955   1.377   3.828 -0.3090 -0.3002  0.1917
   54CHL1  H18C 5132   4.041   1.338   3.973 -0.8058 -2.4432 -1.8983
   54CHL1   C12 5133   3.867   1.641   3.883 -0.3253 -0.3727  0.2893
   54CHL1  H12A 5134   3.782   1.607   3.945 -0.2038  1.9581  1.8563
   54CHL1  H12B 5135   3.877   1.749   3.906 -0.8238 -0.1363 -0.5547
   54CHL1   C11 5136   3.831   1.622   3.733  0.1120 -0.0528 -1.2323
   54CHL1  H11A 5137   3.824   1.513   3.715  1.9003 -0.2088 -1.1551
   54CHL1  H11B 5138   3.736   1.677   3.715  0.0129  0.1224 -0.2390
   54CHL1    C9 5139   3.946   1.663   3.644 -0.3062 -0.2386  0.5477
   54CHL1    H9 5140   3.971   1.770   3.663  2.0676 -0.4748 -0.8523
   54CHL1   C10 5141   3.912   1.659   3.493 -0.1851 -0.1144 -0.6828
   54CHL1   C19 5142   3.825   1.529   3.469  0.0521  0.3503  0.4859
   54CHL1  H19A 5143   3.738   1.510   3.535 -1.2700  1.5483 -0.8185
   54CHL1  H19B 5144   3.794   1.534   3.363 -1.4130 -1.2783  0.8013
   54CHL1  H19C 5145   3.893   1.441   3.473 -2.2458 -1.6027 -0.8913
   54CHL1    C1 5146   3.831   1.780   3.463 -0.3536 -0.6106 -0.0918
   54CHL1   H1A 5147   3.733   1.778   3.515 -0.1333  0.7532  0.3956
   54CHL1   H1B 5148   3.884   1.867   3.506  1.1795 -1.1905 -0.7365
   54CHL1    C2 5149   3.805   1.808   3.312 -0.2434  0.4427 -0.6531
   54CHL1   H2A 5150   3.754   1.907   3.317  0.3559  0.6950  2.0900
   54CHL1   H2B 5151   3.745   1.729   3.264  0.7676  0.2323 -1.6131
   54CHL1   C20 5152   4.004   1.570   4.188 -0.0303  0.1162 -0.7737
   54CHL1   H20 5153   3.975   1.463   4.190  0.2879 -0.0323 -2.6380
   54CHL1   C21 5154   3.872   1.651   4.220 -0.3842 -0.7322 -0.2636
   54CHL1  H21A 5155   3.884   1.756   4.186 -0.1090 -0.8085 -0.3986
   54CHL1  H21B 5156   3.848   1.645   4.328  0.8214  0.2614  0.0682
   54CHL1  H21C 5157   3.785   1.600   4.173 -0.0956 -2.8390  1.3345
   54CHL1   C22 5158   4.106   1.611   4.298 -0.8176  0.3287 -0.6214
   54CHL1  H22A 5159   4.207   1.573   4.276 -1.4920 -1.6979 -0.3717
   54CHL1  H22B 5160   4.118   1.722   4.292  1.0898  0.2153  0.3635
   54CHL1   C23 5161   4.068   1.566   4.441 -0.3007 -0.2810  0.4625
   54CHL1  H23A 5162   3.975   1.621   4.467  0.7159  1.8233 -0.0917
   54CHL1  H23B 5163   4.051   1.457   4.450 -0.2886 -0.2453  0.9777
   54CHL1   C24 5164   4.172   1.608   4.539 -0.2617 -0.4973 -0.0633
   54CHL1  H24A 5165   4.273   1.573   4.509  1.0965  0.0847  3.4028
   54CHL1  H24B 5166   4.168   1.719   4.551 -2.5143 -0.6260  0.9430
   54CHL1   C25 5167   4.158   1.545   4.681  0.3908 -1.1784 -0.1564
   54CHL1   H25 5168   4.135   1.437   4.672 -1.7094 -0.8996  1.1792
   54CHL1   C26 5169   4.285   1.561   4.766 -0.3850 -0.5499  0.2441
   54CHL1  H26A 5170   4.298   1.668   4.791 -0.1083 -0.5573  0.1320
   54CHL1  H26B 5171   4.291   1.505   4.862 -0.9174 -0.7799  0.1483
   54CHL1  H26C 5172   4.377   1.543   4.707  0.2087  0.1044  0.9567
   54CHL1   C27 5173   4.045   1.603   4.762  0.8348 -0.1064  0.0553
   54CHL1  H27A 5174   4.058   1.713   4.759 -0.5974  0.0748 -0.7163
   54CHL1  H27B 5175   3.945   1.583   4.716  0.0762  0.0731  1.5563
   54CHL1  H27C 5176   4.032   1.579   4.870 -0.1866  0.4619  0.0761
   55CHL1    C3 5177   0.490   3.595   3.285 -0.9510 -0.1967  0.3347
   55CHL1    H3 5178   0.414   3.516   3.299 -0.5887 -0.7571 -0.7621
   55CHL1    O3 5179   0.529   3.590   3.150  0.1899 -0.4830  0.3165
   55CHL1   H3' 5180   0.623   3.609   3.148  0.3211 -1.1257 -1.2307
   55CHL1    C4 5181   0.441   3.738   3.325 -0.4002 -0.2593 -0.6844
   55CHL1   H4A 5182   0.525   3.809   3.315 -0.9471  0.4845 -0.0663
   55CHL1   H4B 5183   0.357   3.780   3.266  0.1272 -0.5855 -1.6872
   55CHL1    C5 5184   0.405   3.738   3.476 -0.1427 -0.7806  0.0965
   55CHL1    C6 5185   0.288   3.790   3.520 -1.1347  0.2864  0.5985
   55CHL1    H6 5186   0.218   3.834   3.448 -0.7866 -2.8460 -1.9050
   55CHL1    C7 5187   0.246   3.791   3.660  0.3198  0.4252  0.6562
   55CHL1   H7A 5188   0.196   3.888   3.681 -2.2887 -0.7829  0.3681
   55CHL1   H7B 5189   0.173   3.708   3.670 -0.1585  0.7254 -0.2141
   55CHL1    C8 5190   0.354   3.771   3.767 -0.4605 -0.3659  0.4969
   55CHL1    H8 5191   0.410   3.867   3.767 -0.2449 -0.4002 -2.1775
   55CHL1   C14 5192   0.305   3.742   3.901  0.1366 -0.6654  0.2965
   55CHL1   H14 5193   0.235   3.657   3.890  1.8385 -1.9274 -1.2692
   55CHL1   C15 5194   0.220   3.846   3.975  0.0027  0.2835  0.1825
   55CHL1  H15A 5195   0.267   3.947   3.970  0.8115 -0.1175 -0.4739
   55CHL1  H15B 5196   0.118   3.866   3.934  1.1405  1.5235 -2.2500
   55CHL1   C16 5197   0.225   3.806   4.125 -0.1833 -0.5835  0.0736
   55CHL1  H16A 5198   0.231   3.898   4.188  0.8486 -0.8066  0.3321
   55CHL1  H16B 5199   0.133   3.750   4.151  0.6178 -2.2900 -0.5684
   55CHL1   C17 5200   0.343   3.702   4.136 -0.0689 -0.5504 -0.3950
   55CHL1   H17 5201   0.280   3.611   4.128  1.5240 -1.6057 -1.3997
   55CHL1   C13 5202   0.413   3.705   3.998 -0.5869  0.7439  0.0966
   55CHL1   C18 5203   0.520   3.815   4.009 -0.5821 -0.8305 -0.2929
   55CHL1  H18A 5204   0.470   3.913   4.026 -0.2966 -0.8862  0.9573
   55CHL1  H18B 5205   0.592   3.789   4.090  0.9164  4.0291  0.2477
   55CHL1  H18C 5206   0.577   3.832   3.915 -0.0558 -2.6336 -0.3393
   55CHL1   C12 5207   0.483   3.577   3.967 -0.2115 -0.3876 -0.4450
   55CHL1  H12A 5208   0.564   3.550   4.037  0.1462  1.1664 -0.2274
   55CHL1  H12B 5209   0.406   3.496   3.971 -0.8915  0.2886  2.4805
   55CHL1   C11 5210   0.537   3.592   3.824  0.8185 -0.0793  0.0562
   55CHL1  H11A 5211   0.629   3.654   3.833  1.0432 -0.4467  0.3446
   55CHL1  H11B 5212   0.561   3.489   3.790  1.5495 -0.2781  1.1083
   55CHL1    C9 5213   0.444   3.659   3.714  0.7184  0.0834  0.3150
   55CHL1    H9 5214   0.376   3.574   3.690  2.5351 -1.3976  0.2040
   55CHL1   C10 5215   0.501   3.685   3.578  0.6051 -1.1730  0.1297
   55CHL1   C19 5216   0.615   3.796   3.584 -0.4006  0.0638 -0.0242
   55CHL1  H19A 5217   0.685   3.762   3.662  0.5891 -1.0334 -1.3431
   55CHL1  H19B 5218   0.679   3.802   3.493  1.8917  1.4883  1.5832
   55CHL1  H19C 5219   0.566   3.893   3.610  0.1827  0.5196 -0.5967
   55CHL1    C1 5220   0.564   3.558   3.522  0.1611 -0.0853  0.3196
   55CHL1   H1A 5221   0.647   3.528   3.589  1.1576  0.4488 -0.6338
   55CHL1   H1B 5222   0.488   3.477   3.520 -2.7025  2.3791  0.5581
   55CHL1    C2 5223   0.612   3.561   3.375 -1.0381  0.2592  0.5285
   55CHL1   H2A 5224   0.648   3.459   3.352 -0.4622  0.5613  0.0816
   55CHL1   H2B 5225   0.692   3.635   3.354  0.4177 -1.9631 -2.4323
   55CHL1   C20 5226   0.428   3.695   4.262 -0.0466 -0.1083  0.2045
   55CHL1   H20 5227   0.527   3.651   4.238 -0.0334 -1.9504  3.1937
   55CHL1   C21 5228   0.364   3.585   4.342 -0.5146  0.2947 -0.2065
   55CHL1  H21A 5229   0.340   3.489   4.292 -1.7001  0.4977 -0.0441
   55CHL1  H21B 5230   0.272   3.629   4.385  0.1865  1.5964  0.0428
   55CHL1  H21C 5231   0.425   3.555   4.430 -2.9188 -0.3472  1.3254
   55CHL1   C22 5232   0.452   3.821   4.347 -0.1854  0.1096 -0.7368
   55CHL1  H22A 5233   0.497   3.895   4.278 -0.6979 -1.9151 -3.4242
   55CHL1  H22B 5234   0.354   3.861   4.381  0.0898 -0.7488  1.1899
   55CHL1   C23 5235   0.548   3.797   4.472 -0.6421  0.6846  0.2012
   55CHL1  H23A 5236   0.516   3.703   4.523 -0.2439  0.4782  0.0725
   55CHL1  H23B 5237   0.646   3.778   4.424 -0.3475  0.8416  0.7238
   55CHL1   C24 5238   0.566   3.913   4.571  0.0055  0.1137  0.2027
   55CHL1  H24A 5239   0.554   4.011   4.521 -0.9761  0.1595  0.5078
   55CHL1  H24B 5240   0.477   3.913   4.638 -0.1065 -0.2350  0.0574
   55CHL1   C25 5241   0.690   3.899   4.656 -0.5018  0.4826 -0.5298
   55CHL1   H25 5242   0.773   3.873   4.587 -0.8555  0.8872 -1.1062
   55CHL1   C26 5243   0.726   4.033   4.717  0.3230 -0.0303 -0.4689
   55CHL1  H26A 5244   0.807   4.032   4.793  0.2143  3.0127 -0.1834
   55CHL1  H26B 5245   0.753   4.105   4.637  0.0016 -0.2383 -0.7706
   55CHL1  H26C 5246   0.647   4.079   4.781  1.1430  0.0530  0.5096
   55CHL1   C27 5247   0.666   3.794   4.769  0.2060  0.1574  1.2802
   55CHL1  H27A 5248   0.755   3.784   4.834  0.8431  2.2769  0.8233
   55CHL1  H27B 5249   0.580   3.828   4.831  0.1107  2.9121 -0.2140
   55CHL1  H27C 5250   0.650   3.696   4.719  1.5478  1.1987 -1.3527
   56CHL1    C3 5251   0.729   6.008   3.421 -0.2682 -0.0894  0.0829
   56CHL1    H3 5252   0.769   6.111   3.429 -1.9425  0.5754  0.1982
   56CHL1    O3 5253   0.672   5.978   3.298 -0.4048  0.5769  0.0435
   56CHL1   H3' 5254   0.741   5.954   3.236 -1.6395 -1.1654 -0.7395
   56CHL1    C4 5255   0.839   5.903   3.440 -0.1172  0.0707  0.0440
   56CHL1   H4A 5256   0.797   5.801   3.429  1.8727 -1.0208  1.7899
   56CHL1   H4B 5257   0.916   5.915   3.360  0.9874 -0.6065  0.9714
   56CHL1    C5 5258   0.908   5.932   3.576  0.2833  0.1106  0.1839
   56CHL1    C6 5259   1.035   5.962   3.592 -0.2594  0.2313  0.3335
   56CHL1    H6 5260   1.094   5.960   3.499 -0.0169 -1.7910  0.4868
   56CHL1    C7 5261   1.110   5.981   3.719  0.6549 -0.2413 -0.0733
   56CHL1   H7A 5262   1.195   5.911   3.733  2.0353  1.4193  0.1699
   56CHL1   H7B 5263   1.147   6.085   3.725  0.1738 -0.1327  1.5585
   56CHL1    C8 5264   1.014   5.959   3.836  0.2455 -0.2397 -0.0867
   56CHL1    H8 5265   1.019   5.852   3.865 -1.1178  0.0949  1.5377
   56CHL1   C14 5266   1.064   6.030   3.959 -0.9821  0.2723 -0.2733
   56CHL1   H14 5267   1.047   6.136   3.929 -1.2541 -0.2580 -2.1198
   56CHL1   C15 5268   1.216   6.035   3.985  0.0003 -0.0574 -0.6227
   56CHL1  H15A 5269   1.256   5.932   3.987 -0.0196 -0.1219 -2.3148
   56CHL1  H15B 5270   1.274   6.099   3.914  0.3698 -1.4267 -1.5864
   56CHL1   C16 5271   1.220   6.072   4.136 -0.7786  0.0750  0.3993
   56CHL1  H16A 5272   1.257   5.992   4.203  0.0982 -0.3096 -0.5233
   56CHL1  H16B 5273   1.291   6.156   4.154 -0.8562 -0.0649  1.4006
   56CHL1   C17 5274   1.075   6.100   4.179 -0.5584 -0.1015  0.4448
   56CHL1   H17 5275   1.058   6.206   4.150  0.7337 -0.3876 -1.4865
   56CHL1   C13 5276   0.995   6.009   4.090 -1.0298  0.1475 -0.3393
   56CHL1   C18 5277   1.009   5.859   4.140  0.0445 -0.3756 -0.1442
   56CHL1  H18A 5278   0.951   5.797   4.068 -2.1160  1.1139  0.2297
   56CHL1  H18B 5279   1.115   5.827   4.133  1.3478  3.2212  1.0663
   56CHL1  H18C 5280   0.978   5.836   4.244 -0.7748 -1.3043 -0.5750
   56CHL1   C12 5281   0.848   6.058   4.073 -0.6904  0.6856 -0.0396
   56CHL1  H12A 5282   0.792   6.028   4.164 -0.9524  1.0103 -0.0913
   56CHL1  H12B 5283   0.852   6.167   4.055  0.3826  0.3753 -1.8826
   56CHL1   C11 5284   0.792   5.997   3.954 -0.6128 -0.2329  0.3059
   56CHL1  H11A 5285   0.759   5.891   3.964 -1.2404 -0.4054 -2.5162
   56CHL1  H11B 5286   0.696   6.047   3.929 -1.6678 -1.8693  0.9118
   56CHL1    C9 5287   0.870   6.000   3.822 -0.3954 -0.3513 -0.0442
   56CHL1    H9 5288   0.867   6.108   3.800 -3.1256 -0.2179  0.6166
   56CHL1   C10 5289   0.814   5.927   3.696  0.2419  0.2973 -0.1234
   56CHL1   C19 5290   0.788   5.771   3.730 -0.2734 -0.3758 -0.1122
   56CHL1  H19A 5291   0.687   5.755   3.774  0.4886  0.2791  2.0193
   56CHL1  H19B 5292   0.798   5.703   3.643 -1.2593 -1.0431  0.2758
   56CHL1  H19C 5293   0.852   5.734   3.814 -0.5784  1.0111  0.7636
   56CHL1    C1 5294   0.675   5.994   3.669 -0.5373  0.5512  0.0375
   56CHL1   H1A 5295   0.598   5.949   3.735 -1.1367 -0.6559 -1.4526
   56CHL1   H1B 5296   0.679   6.105   3.678 -1.5760  0.8048 -2.0605
   56CHL1    C2 5297   0.619   5.972   3.524 -0.0676 -0.7551  0.1748
   56CHL1   H2A 5298   0.530   6.032   3.493  0.5696  1.1993  1.8758
   56CHL1   H2B 5299   0.580   5.868   3.525 -0.8567 -0.4707  0.4543
   56CHL1   C20 5300   1.060   6.103   4.335 -0.0581 -0.3173  0.0481
   56CHL1   H20 5301   1.102   6.011   4.381 -1.1417 -1.6401 -1.5166
   56CHL1   C21 5302   0.917   6.120   4.377  0.1049  0.2162 -0.5367
   56CHL1  H21A 5303   0.880   6.207   4.319 -0.4640 -0.1905 -0.7960
   56CHL1  H21B 5304   0.909   6.148   4.484 -2.2203 -0.2553 -0.5214
   56CHL1  H21C 5305   0.842   6.039   4.364 -0.9561  1.4005 -2.3248
   56CHL1   C22 5306   1.152   6.210   4.397  0.4930 -0.2058 -0.1219
   56CHL1  H22A 5307   1.255   6.210   4.354  0.6947 -1.0133  0.3417
   56CHL1  H22B 5308   1.111   6.313   4.395  1.5730  0.2370 -0.1554
   56CHL1   C23 5309   1.184   6.175   4.544  0.2364  0.4284 -0.6264
   56CHL1  H23A 5310   1.096   6.199   4.607 -0.2904 -2.2894 -0.1818
   56CHL1  H23B 5311   1.201   6.066   4.560  0.8522  0.7331  0.9310
   56CHL1   C24 5312   1.310   6.248   4.603  0.1613  0.3777  1.1194
   56CHL1  H24A 5313   1.400   6.215   4.547  0.2362  0.2915  1.2868
   56CHL1  H24B 5314   1.298   6.357   4.590  0.9907  0.5765  1.9170
   56CHL1   C25 5315   1.330   6.241   4.756  0.0296 -0.1826 -0.4203
   56CHL1   H25 5316   1.424   6.294   4.780 -0.3541 -0.6253  2.4812
   56CHL1   C26 5317   1.224   6.319   4.838  0.0047 -0.3008 -0.0659
   56CHL1  H26A 5318   1.212   6.427   4.815 -2.5657 -0.8165 -1.5597
   56CHL1  H26B 5319   1.122   6.274   4.843 -1.3656  2.3705 -1.4489
   56CHL1  H26C 5320   1.270   6.313   4.939 -0.4386  0.7413  0.2091
   56CHL1   C27 5321   1.327   6.092   4.798 -0.0475  0.0649 -0.0246
   56CHL1  H27A 5322   1.375   6.091   4.898  1.1362 -1.4955 -0.5787
   56CHL1  H27B 5323   1.229   6.039   4.789  1.7029 -3.2597 -1.2705
   56CHL1  H27C 5324   1.399   6.042   4.731 -0.0238  2.7412 -2.1917
   57CHL1    C3 5325   6.727   4.193   3.390  0.3857  0.1639  0.6456
   57CHL1    H3 5326   6.669   4.101   3.407  0.4092 -0.0824 -0.5335
   57CHL1    O3 5327   6.731   4.200   3.247  0.0064 -0.5822 -1.0342
   57CHL1   H3' 5328   6.733   4.292   3.221  0.6458  0.2541  1.6992
   57CHL1    C4 5329   6.658   4.312   3.450 -0.0613 -0.1393 -0.6452
   57CHL1   H4A 5330   6.708   4.405   3.418 -1.6278  0.2110 -2.1699
   57CHL1   H4B 5331   6.554   4.316   3.411  0.2393  0.4960 -1.3979
   57CHL1    C5 5332   6.651   4.312   3.606 -0.3327  0.9014  0.2445
   57CHL1    C6 5333   6.545   4.345   3.675 -0.3538  0.0376 -0.7872
   57CHL1    H6 5334   6.457   4.379   3.619 -0.8106  1.5007  0.7337
   57CHL1    C7 5335   6.538   4.340   3.828 -0.4798 -0.1369 -0.5300
   57CHL1   H7A 5336   6.499   4.437   3.865  0.1298  0.7486 -2.1218
   57CHL1   H7B 5337   6.474   4.257   3.865  2.0793 -1.4663  1.2244
   57CHL1    C8 5338   6.677   4.329   3.892 -0.3436 -0.3247  0.2889
   57CHL1    H8 5339   6.716   4.433   3.888 -0.9839 -0.0891  0.0673
   57CHL1   C14 5340   6.655   4.277   4.043 -0.8957 -0.2224 -0.1686
   57CHL1   H14 5341   6.621   4.172   4.031 -1.0841 -0.2763  0.7878
   57CHL1   C15 5342   6.565   4.358   4.130 -0.3928 -0.5836  0.2403
   57CHL1  H15A 5343   6.594   4.464   4.114  0.8121 -0.8119  0.7519
   57CHL1  H15B 5344   6.458   4.343   4.107 -0.5816  1.5031 -0.4471
   57CHL1   C16 5345   6.588   4.317   4.276 -0.3062 -0.0615  0.3909
   57CHL1  H16A 5346   6.608   4.407   4.339 -1.9271  0.9443 -0.4711
   57CHL1  H16B 5347   6.510   4.263   4.333  0.1146  0.2617  1.2900
   57CHL1   C17 5348   6.713   4.219   4.265 -0.1916  0.3519  0.1690
   57CHL1   H17 5349   6.671   4.117   4.253  1.8057 -0.8128  2.0884
   57CHL1   C13 5350   6.780   4.264   4.133  0.4038  0.3695 -0.5026
   57CHL1   C18 5351   6.845   4.406   4.151  0.7575 -0.0517 -0.0764
   57CHL1  H18A 5352   6.883   4.441   4.052 -1.4903 -2.2569 -1.8617
   57CHL1  H18B 5353   6.776   4.485   4.187  1.6395  0.1281  1.2794
   57CHL1  H18C 5354   6.942   4.416   4.204  0.9473  2.7525 -0.7752
   57CHL1   C12 5355   6.879   4.175   4.053  0.5965 -0.4346 -0.2747
   57CHL1  H12A 5356   6.984   4.159   4.086  0.5991 -4.3360 -1.7434
   57CHL1  H12B 5357   6.828   4.077   4.044  3.1319 -2.1066  2.0276
   57CHL1   C11 5358   6.901   4.219   3.904  0.4776  0.2884  0.1530
   57CHL1  H11A 5359   6.959   4.313   3.887 -1.0344  1.2135 -0.0844
   57CHL1  H11B 5360   6.961   4.139   3.856  1.2226  1.0201 -0.1728
   57CHL1    C9 5361   6.766   4.233   3.828 -0.1569  0.3826  0.0225
   57CHL1    H9 5362   6.722   4.132   3.837  0.9206 -0.3070 -1.8537
   57CHL1   C10 5363   6.785   4.261   3.669  0.0638  0.7339 -0.6760
   57CHL1   C19 5364   6.880   4.383   3.650  0.2032 -0.2594  0.2091
   57CHL1  H19A 5365   6.873   4.417   3.544  1.1178  1.2404  0.5920
   57CHL1  H19B 5366   6.851   4.465   3.720 -1.7435 -0.5839 -0.1502
   57CHL1  H19C 5367   6.986   4.356   3.668  0.5472  1.6553  1.4455
   57CHL1    C1 5368   6.856   4.143   3.599  0.5040  0.2664  0.0394
   57CHL1   H1A 5369   6.958   4.127   3.640 -0.0741 -1.3193  0.9758
   57CHL1   H1B 5370   6.792   4.052   3.607 -1.1246  1.2146 -1.4184
   57CHL1    C2 5371   6.872   4.163   3.443  0.1340  0.0487  0.6837
   57CHL1   H2A 5372   6.915   4.068   3.402 -1.4842 -0.9928  1.3100
   57CHL1   H2B 5373   6.938   4.249   3.419 -0.9533  0.2552 -1.8846
   57CHL1   C20 5374   6.801   4.214   4.394  0.2695  0.2861  0.4438
   57CHL1   H20 5375   6.829   4.320   4.408 -2.4985  1.1227  0.1005
   57CHL1   C21 5376   6.927   4.117   4.369  0.0336  0.1246  0.3370
   57CHL1  H21A 5377   6.981   4.098   4.464  0.6577 -2.5759 -0.4808
   57CHL1  H21B 5378   6.994   4.160   4.291  0.7022 -1.3267  0.0865
   57CHL1  H21C 5379   6.887   4.021   4.331  0.2867  1.1446 -2.7965
   57CHL1   C22 5380   6.717   4.161   4.516 -0.9570 -0.1272  0.0201
   57CHL1  H22A 5381   6.615   4.204   4.520 -0.1126  2.0038 -0.1835
   57CHL1  H22B 5382   6.703   4.052   4.500 -2.0356  0.0851 -0.5505
   57CHL1   C23 5383   6.783   4.183   4.655 -0.1179 -0.5688 -0.0880
   57CHL1  H23A 5384   6.872   4.116   4.648 -1.0297 -1.8742  0.5235
   57CHL1  H23B 5385   6.817   4.288   4.667  3.6534 -1.7544  1.2723
   57CHL1   C24 5386   6.708   4.126   4.775 -0.2550  0.5166  0.0862
   57CHL1  H24A 5387   6.618   4.188   4.795 -1.7207 -1.4824 -0.1050
   57CHL1  H24B 5388   6.680   4.024   4.743  3.0662 -0.0379 -1.5074
   57CHL1   C25 5389   6.795   4.140   4.906  0.2487 -0.0472  0.1867
   57CHL1   H25 5390   6.888   4.083   4.888 -0.1636 -0.4900 -0.6074
   57CHL1   C26 5391   6.819   4.293   4.932  0.0396 -0.0972 -0.0711
   57CHL1  H26A 5392   6.728   4.353   4.914 -0.5505 -0.6606  0.9743
   57CHL1  H26B 5393   6.845   4.304   5.040 -1.7488  1.9747  0.2105
   57CHL1  H26C 5394   6.893   4.333   4.859 -0.6226  0.6653 -0.3268
   57CHL1   C27 5395   6.723   4.062   5.018 -0.1501 -0.2363  0.8520
   57CHL1  H27A 5396   6.776   4.074   5.115  0.0903  1.4934  0.5310
   57CHL1  H27B 5397   6.618   4.096   5.031  0.0767  0.9226 -0.2151
   57CHL1  H27C 5398   6.708   3.954   4.994  1.0776 -0.7634  2.2903
   58CHL1    C3 5399   5.360   3.549   3.114  0.0223  0.5467 -0.4792
   58CHL1    H3 5400   5.371   3.440   3.132 -0.8322  0.4584 -0.4557
   58CHL1    O3 5401   5.284   3.559   2.989 -0.1508  0.2446 -0.5845
   58CHL1   H3' 5402   5.229   3.480   2.994  0.7098 -0.3476 -0.0225
   58CHL1    C4 5403   5.270   3.609   3.234 -0.4022  0.0097  0.1762
   58CHL1   H4A 5404   5.227   3.706   3.200  1.5084  0.0538 -2.4490
   58CHL1   H4B 5405   5.177   3.549   3.244 -1.5652  1.7164  0.2480
   58CHL1    C5 5406   5.346   3.616   3.369  0.4807  0.0707 -0.2068
   58CHL1    C6 5407   5.289   3.575   3.479  0.4849  0.1209 -0.6065
   58CHL1    H6 5408   5.182   3.549   3.477  0.4691  0.0802  0.4335
   58CHL1    C7 5409   5.351   3.569   3.616 -0.7024 -0.2893  0.1186
   58CHL1   H7A 5410   5.283   3.598   3.699  1.5710  1.8002  1.4126
   58CHL1   H7B 5411   5.399   3.471   3.636  2.3407  1.6170  3.5827
   58CHL1    C8 5412   5.475   3.659   3.616  0.3056 -0.4917 -0.1335
   58CHL1    H8 5413   5.440   3.764   3.621 -1.7212 -1.0936 -0.8030
   58CHL1   C14 5414   5.567   3.622   3.736  0.6819 -0.7129 -0.4773
   58CHL1   H14 5415   5.598   3.519   3.711  1.9494 -1.0154  1.9984
   58CHL1   C15 5416   5.497   3.608   3.868  0.2410  0.4772  0.1548
   58CHL1  H15A 5417   5.416   3.682   3.889 -1.9810 -1.8211  0.1522
   58CHL1  H15B 5418   5.442   3.512   3.875  1.1740 -0.3144 -2.3605
   58CHL1   C16 5419   5.611   3.614   3.974  0.5174  0.6470 -0.1504
   58CHL1  H16A 5420   5.578   3.684   4.055 -3.7735  1.4779 -2.2794
   58CHL1  H16B 5421   5.629   3.513   4.016  0.7877  0.8945  0.3324
   58CHL1   C17 5422   5.741   3.645   3.889 -0.9287 -0.4206  0.1453
   58CHL1   H17 5423   5.785   3.544   3.875 -1.3741 -0.5590 -0.2971
   58CHL1   C13 5424   5.690   3.717   3.764  0.1669  0.1740  0.1609
   58CHL1   C18 5425   5.650   3.859   3.797  0.1757  0.5017 -0.2044
   58CHL1  H18A 5426   5.748   3.910   3.807  1.3018 -1.5779  0.0269
   58CHL1  H18B 5427   5.594   3.904   3.713  0.0258 -0.3209 -0.5517
   58CHL1  H18C 5428   5.586   3.868   3.887  0.4145  1.1730 -0.0998
   58CHL1   C12 5429   5.778   3.706   3.639  0.0914 -0.0938 -0.0167
   58CHL1  H12A 5430   5.860   3.778   3.656  0.1845  0.0573 -1.0474
   58CHL1  H12B 5431   5.828   3.607   3.650 -0.8830 -0.2966  4.2753
   58CHL1   C11 5432   5.697   3.734   3.512 -0.8456  0.8582  0.6136
   58CHL1  H11A 5433   5.670   3.841   3.515  1.1591  1.4126  0.3522
   58CHL1  H11B 5434   5.763   3.715   3.425 -0.7611 -2.4336  1.2533
   58CHL1    C9 5435   5.569   3.647   3.499  0.0685 -0.2671  0.4203
   58CHL1    H9 5436   5.600   3.540   3.500 -1.3883 -0.7477 -1.2309
   58CHL1   C10 5437   5.491   3.668   3.364  0.5919  0.0424 -0.2786
   58CHL1   C19 5438   5.477   3.820   3.332 -0.2713 -0.3952  0.1517
   58CHL1  H19A 5439   5.433   3.878   3.416  1.3039  0.7046  0.2774
   58CHL1  H19B 5440   5.577   3.868   3.333 -1.5321  2.4238  1.2286
   58CHL1  H19C 5441   5.434   3.829   3.230  1.3223 -2.7358 -0.8290
   58CHL1    C1 5442   5.566   3.601   3.248 -0.2573  0.0505 -0.2670
   58CHL1   H1A 5443   5.664   3.654   3.246 -0.3328  0.2032 -0.0073
   58CHL1   H1B 5444   5.590   3.493   3.261 -0.1164 -0.0960 -1.5838
   58CHL1    C2 5445   5.494   3.611   3.116  0.2386 -0.0008  0.2403
   58CHL1   H2A 5446   5.559   3.559   3.042 -0.3429  1.2277 -1.1889
   58CHL1   H2B 5447   5.479   3.715   3.080 -1.0647  0.4818  2.0807
   58CHL1   C20 5448   5.838   3.729   3.971 -0.1724  0.0587 -0.3058
   58CHL1   H20 5449   5.794   3.824   4.007 -1.9421 -1.5647  2.1424
   58CHL1   C21 5450   5.970   3.763   3.897  0.3618  0.0278 -0.3814
   58CHL1  H21A 5451   6.029   3.674   3.866  0.9457  0.1099  0.4378
   58CHL1  H21B 5452   6.037   3.805   3.976 -1.3536 -0.3050  1.3204
   58CHL1  H21C 5453   5.971   3.854   3.833  0.1369  1.3494  1.3864
   58CHL1   C22 5454   5.877   3.653   4.102  0.3642 -0.3861 -0.1251
   58CHL1  H22A 5455   5.906   3.737   4.168  0.2885  1.6179 -2.5183
   58CHL1  H22B 5456   5.791   3.615   4.162 -1.2790 -1.5146 -2.9894
   58CHL1   C23 5457   5.985   3.545   4.097  0.2034  0.1158  0.4920
   58CHL1  H23A 5458   5.947   3.456   4.044 -0.6216  1.2150 -0.8532
   58CHL1  H23B 5459   6.073   3.579   4.038  1.7930 -3.5077  0.5309
   58CHL1   C24 5460   6.038   3.504   4.237  0.4276  0.7754  0.1546
   58CHL1  H24A 5461   6.086   3.596   4.274 -2.1077  1.5276  1.9079
   58CHL1  H24B 5462   5.948   3.489   4.302 -0.8409  1.4333 -1.3830
   58CHL1   C25 5463   6.119   3.377   4.226 -0.3787  0.9929 -0.5535
   58CHL1   H25 5464   6.194   3.392   4.145  1.3782  0.5432  0.9160
   58CHL1   C26 5465   6.218   3.347   4.344  0.1323  0.9070 -0.1794
   58CHL1  H26A 5466   6.165   3.300   4.430 -2.1971 -0.4149 -2.2035
   58CHL1  H26B 5467   6.301   3.280   4.314  1.8536  3.2814 -1.0439
   58CHL1  H26C 5468   6.272   3.440   4.369  1.1880  0.3248 -0.2558
   58CHL1   C27 5469   6.031   3.250   4.223  0.2197 -0.2938  0.8828
   58CHL1  H27A 5470   5.966   3.258   4.133  0.3118  1.6784  0.9566
   58CHL1  H27B 5471   6.099   3.163   4.224  0.7308  0.0704 -0.4545
   58CHL1  H27C 5472   5.963   3.239   4.310  0.1818 -0.8757  0.7846
   59CHL1    C3 5473   4.896   3.444   3.469  0.3247 -0.6074 -0.0003
   59CHL1    H3 5474   4.997   3.398   3.477 -0.3931 -2.4843 -1.0993
   59CHL1    O3 5475   4.870   3.460   3.328  0.4829  0.4066 -0.1380
   59CHL1   H3' 5476   4.918   3.540   3.306  0.1255  0.0216 -2.5909
   59CHL1    C4 5477   4.796   3.350   3.533  0.8145  0.1790 -0.2915
   59CHL1   H4A 5478   4.696   3.382   3.497  0.4568  0.0990  0.6130
   59CHL1   H4B 5479   4.809   3.250   3.487  1.6267 -0.0858  0.4994
   59CHL1    C5 5480   4.816   3.332   3.684 -0.3953 -0.6323  0.1246
   59CHL1    C6 5481   4.847   3.221   3.752  0.2977 -0.0661 -0.4979
   59CHL1    H6 5482   4.858   3.129   3.693 -1.9916 -0.8903  0.2482
   59CHL1    C7 5483   4.863   3.215   3.897  0.6018 -0.4686  0.3294
   59CHL1   H7A 5484   4.809   3.130   3.943 -2.9009  1.8084  0.8354
   59CHL1   H7B 5485   4.969   3.221   3.929  0.4606  0.6613  0.6363
   59CHL1    C8 5486   4.797   3.340   3.974 -0.3350  0.0867  0.1500
   59CHL1    H8 5487   4.688   3.319   3.972 -0.3726  0.2825  0.1169
   59CHL1   C14 5488   4.845   3.341   4.117 -0.3040  0.1237  0.0050
   59CHL1   H14 5489   4.952   3.371   4.110 -0.0413 -0.7344  0.2208
   59CHL1   C15 5490   4.830   3.214   4.198  0.4825 -0.0943  0.1178
   59CHL1  H15A 5491   4.732   3.168   4.175  0.8410 -1.6538  1.4917
   59CHL1  H15B 5492   4.912   3.143   4.172 -0.3855 -1.1166  0.1434
   59CHL1   C16 5493   4.832   3.257   4.342  0.3201 -0.0108 -0.4659
   59CHL1  H16A 5494   4.756   3.206   4.405  0.2479 -0.2116 -0.7147
   59CHL1  H16B 5495   4.928   3.221   4.385  0.8399 -0.1342 -1.6957
   59CHL1   C17 5496   4.842   3.408   4.339 -0.3880 -0.3264 -0.8552
   59CHL1   H17 5497   4.947   3.443   4.330 -0.9493  1.6094 -0.2431
   59CHL1   C13 5498   4.776   3.451   4.197  0.0474  0.0209  0.0393
   59CHL1   C18 5499   4.623   3.443   4.210  0.3042 -0.3068 -0.4683
   59CHL1  H18A 5500   4.593   3.342   4.246 -1.4391  0.9578  1.8916
   59CHL1  H18B 5501   4.568   3.522   4.265  0.0424  0.1619 -1.3780
   59CHL1  H18C 5502   4.578   3.442   4.108 -0.0873 -1.5164 -0.3023
   59CHL1   C12 5503   4.814   3.589   4.141 -0.3291  0.5048 -0.1497
   59CHL1  H12A 5504   4.770   3.676   4.194  3.6037  1.8754  1.2465
   59CHL1  H12B 5505   4.925   3.595   4.141 -0.1719 -1.4431 -1.2102
   59CHL1   C11 5506   4.776   3.594   3.994  0.8631 -0.3025 -0.2491
   59CHL1  H11A 5507   4.665   3.595   3.989  0.7867 -2.3007  0.2145
   59CHL1  H11B 5508   4.812   3.688   3.948 -0.3271 -0.5257 -1.7241
   59CHL1    C9 5509   4.826   3.478   3.909  0.3353  0.3775  0.1925
   59CHL1    H9 5510   4.936   3.492   3.919  0.7457  0.7350 -3.3216
   59CHL1   C10 5511   4.809   3.480   3.755  0.5338  0.3847 -0.1775
   59CHL1   C19 5512   4.658   3.535   3.734 -0.0832 -0.0705  0.5291
   59CHL1  H19A 5513   4.656   3.644   3.753  0.1855 -0.2279  1.5600
   59CHL1  H19B 5514   4.629   3.519   3.628 -0.2151 -0.1363  0.5750
   59CHL1  H19C 5515   4.577   3.492   3.798  0.7086  1.8248  2.9900
   59CHL1    C1 5516   4.909   3.577   3.686  0.0563 -0.0228 -0.8754
   59CHL1   H1A 5517   4.922   3.677   3.731  0.4565  0.1974 -1.4589
   59CHL1   H1B 5518   5.000   3.515   3.701 -0.7921 -0.9365  0.7993
   59CHL1    C2 5519   4.883   3.581   3.540 -0.3898 -0.2213 -0.6314
   59CHL1   H2A 5520   4.973   3.632   3.499  1.2838 -0.4668  2.4359
   59CHL1   H2B 5521   4.791   3.636   3.511 -1.9591 -2.2211  0.3334
   59CHL1   C20 5522   4.788   3.484   4.468  0.1759  0.2167 -0.3007
   59CHL1   H20 5523   4.678   3.488   4.451 -0.0944 -1.4885  0.7600
   59CHL1   C21 5524   4.851   3.628   4.479  0.0914 -0.1813 -0.0626
   59CHL1  H21A 5525   4.956   3.612   4.512  0.3743 -0.2882 -0.9958
   59CHL1  H21B 5526   4.795   3.693   4.549 -0.5988 -0.8753  0.0437
   59CHL1  H21C 5527   4.859   3.672   4.377  0.9157  1.8234  0.8217
   59CHL1   C22 5528   4.818   3.407   4.598  0.2175  0.1604  0.4469
   59CHL1  H22A 5529   4.780   3.302   4.597  0.1431  0.1675  1.2901
   59CHL1  H22B 5530   4.928   3.414   4.613  0.3183  1.2796 -0.7208
   59CHL1   C23 5531   4.760   3.479   4.720 -0.1211 -0.1561  0.1318
   59CHL1  H23A 5532   4.809   3.578   4.732  0.1927 -0.3618  0.5779
   59CHL1  H23B 5533   4.651   3.480   4.697  0.1690 -1.6781 -1.5435
   59CHL1   C24 5534   4.796   3.397   4.843 -0.0906 -0.2736 -0.5157
   59CHL1  H24A 5535   4.739   3.302   4.839 -0.4455 -0.1042  0.2977
   59CHL1  H24B 5536   4.906   3.382   4.851 -0.0683  0.2451  0.2138
   59CHL1   C25 5537   4.747   3.459   4.979  0.5578  0.8989 -0.1875
   59CHL1   H25 5538   4.643   3.495   4.971  0.6158  1.1451  0.1239
   59CHL1   C26 5539   4.749   3.336   5.075  0.1203  0.1308 -0.1169
   59CHL1  H26A 5540   4.691   3.354   5.168 -1.5697 -3.0405 -0.4071
   59CHL1  H26B 5541   4.690   3.254   5.029 -3.1626  1.9273  0.5411
   59CHL1  H26C 5542   4.856   3.317   5.100  0.4971  0.1952 -1.6080
   59CHL1   C27 5543   4.827   3.576   5.039 -0.0375 -0.2484 -0.2249
   59CHL1  H27A 5544   4.804   3.673   4.990 -1.2362  0.8300  2.2743
   59CHL1  H27B 5545   4.800   3.591   5.146 -3.2926  2.4833 -1.2560
   59CHL1  H27C 5546   4.935   3.555   5.024  0.4973  1.0303  1.5267
   60CHL1    C3 5547   5.140   1.263   3.222  0.3109  0.1260  0.9351
   60CHL1    H3 5548   5.236   1.297   3.266  0.4850 -1.3984  1.8189
   60CHL1    O3 5549   5.131   1.302   3.091  0.3747  0.0921  0.6722
   60CHL1   H3' 5550   5.077   1.241   3.041 -0.4748  1.2367  0.1392
   60CHL1    C4 5551   5.146   1.113   3.253 -0.1642  0.0365 -0.5052
   60CHL1   H4A 5552   5.069   1.056   3.197 -0.8928 -0.4112  0.8862
   60CHL1   H4B 5553   5.245   1.079   3.216 -0.1429  0.1717 -0.5732
   60CHL1    C5 5554   5.132   1.075   3.407 -0.1721  0.1429  0.6977
   60CHL1    C6 5555   5.226   0.994   3.472 -0.2676 -0.5765 -0.0812
   60CHL1    H6 5556   5.310   0.948   3.420  0.3276  2.8694 -2.5118
   60CHL1    C7 5557   5.210   0.962   3.624  0.6303 -0.0289  0.4702
   60CHL1   H7A 5558   5.213   0.852   3.641 -2.8810 -0.3060 -0.0581
   60CHL1   H7B 5559   5.286   1.015   3.686 -0.8314  0.4688  1.8968
   60CHL1    C8 5560   5.068   1.003   3.686 -0.5263 -0.2091 -0.0861
   60CHL1    H8 5561   4.991   0.931   3.652 -0.5412  0.3256 -1.2114
   60CHL1   C14 5562   5.078   0.990   3.834 -0.3300  0.0128 -0.1650
   60CHL1   H14 5563   5.155   1.065   3.864 -1.4886  0.8412  0.8410
   60CHL1   C15 5564   5.122   0.856   3.892  0.8344 -0.1029 -0.4957
   60CHL1  H15A 5565   5.081   0.783   3.819  2.4959 -1.8955  0.2671
   60CHL1  H15B 5566   5.233   0.847   3.896  0.8488  0.4816  3.1652
   60CHL1   C16 5567   5.059   0.848   4.034 -0.6088  0.0546  0.0123
   60CHL1  H16A 5568   5.003   0.753   4.038  2.4205 -1.8766 -0.2865
   60CHL1  H16B 5569   5.136   0.835   4.113 -1.2248  0.7842  0.7532
   60CHL1   C17 5570   4.985   0.980   4.057 -0.1691  0.3823  0.1062
   60CHL1   H17 5571   5.068   1.041   4.097 -0.2306  1.4291 -1.2889
   60CHL1   C13 5572   4.953   1.027   3.908 -0.9095 -0.3343 -0.0879
   60CHL1   C18 5573   4.836   0.944   3.861 -0.2065  0.1323  1.5192
   60CHL1  H18A 5574   4.744   0.966   3.919 -1.2043  1.6577 -0.5034
   60CHL1  H18B 5575   4.810   0.958   3.754 -1.1193  1.2155  1.8533
   60CHL1  H18C 5576   4.863   0.837   3.869 -0.8573 -0.0520  1.3358
   60CHL1   C12 5577   4.930   1.178   3.882 -0.2549  1.3424  0.4728
   60CHL1  H12A 5578   4.832   1.205   3.925 -1.8410 -1.9574 -0.7205
   60CHL1  H12B 5579   5.002   1.242   3.938  2.0936 -1.9740  1.6158
   60CHL1   C11 5580   4.926   1.209   3.731  0.2769 -0.5860 -0.0642
   60CHL1  H11A 5581   4.829   1.170   3.694 -0.1399 -1.1222  1.4950
   60CHL1  H11B 5582   4.933   1.318   3.714 -1.9386 -0.3415  0.3707
   60CHL1    C9 5583   5.039   1.144   3.646  0.3245 -0.2985  0.5118
   60CHL1    H9 5584   5.126   1.207   3.674 -1.5831  0.6433  5.2632
   60CHL1   C10 5585   5.019   1.148   3.489  0.1864  0.8560 -0.7604
   60CHL1   C19 5586   4.880   1.079   3.453 -0.0051  0.0025  0.9059
   60CHL1  H19A 5587   4.875   0.972   3.481 -0.5166 -0.5046 -0.9999
   60CHL1  H19B 5588   4.801   1.128   3.514  0.1089 -0.4164  1.3941
   60CHL1  H19C 5589   4.853   1.088   3.346 -0.9731  0.7583  1.1925
   60CHL1    C1 5590   5.014   1.302   3.452  0.4707 -0.1406 -0.1473
   60CHL1   H1A 5591   4.919   1.337   3.497  0.8345  0.2066  0.3689
   60CHL1   H1B 5592   5.095   1.359   3.503 -1.0925  0.3458  1.9319
   60CHL1    C2 5593   5.021   1.327   3.302 -0.0273  0.3864 -0.5117
   60CHL1   H2A 5594   5.014   1.436   3.281 -2.6766  0.3959  0.1030
   60CHL1   H2B 5595   4.935   1.279   3.251 -0.8373  2.1212 -0.8446
   60CHL1   C20 5596   4.873   0.961   4.163  0.3345  0.7343 -0.1273
   60CHL1   H20 5597   4.796   0.887   4.133 -0.8890  1.5378  0.9585
   60CHL1   C21 5598   4.796   1.096   4.185 -0.0076 -0.3803 -0.2507
   60CHL1  H21A 5599   4.862   1.182   4.205  2.1668 -2.2754  1.2325
   60CHL1  H21B 5600   4.725   1.077   4.269  0.2888  0.8668  0.2947
   60CHL1  H21C 5601   4.724   1.132   4.109  0.7642 -0.7932 -1.2002
   60CHL1   C22 5602   4.934   0.909   4.292  0.1043 -0.2097  0.7242
   60CHL1  H22A 5603   4.979   0.811   4.267 -0.2291 -0.2165  0.1112
   60CHL1  H22B 5604   5.016   0.981   4.313 -1.1313  0.7228  2.6807
   60CHL1   C23 5605   4.839   0.899   4.412 -0.0641 -0.1954  0.6322
   60CHL1  H23A 5606   4.817   1.001   4.449 -1.3792 -0.4566  0.6048
   60CHL1  H23B 5607   4.746   0.842   4.391 -0.1839  0.3771 -0.4254
   60CHL1   C24 5608   4.919   0.825   4.529  0.3791 -0.4929 -0.3754
   60CHL1  H24A 5609   4.934   0.715   4.522  0.7447 -0.5354  0.8468
   60CHL1  H24B 5610   5.018   0.874   4.541 -0.5386  0.9436  2.0532
   60CHL1   C25 5611   4.867   0.849   4.675  0.3117 -0.1047 -0.2676
   60CHL1   H25 5612   4.934   0.785   4.737  1.4274  0.4787 -0.8556
   60CHL1   C26 5613   4.895   1.008   4.705 -0.5029  0.0916 -0.7836
   60CHL1  H26A 5614   5.002   1.020   4.734 -0.6690  1.1607 -0.5812
   60CHL1  H26B 5615   4.867   1.070   4.618  0.8357  1.4570 -0.3010
   60CHL1  H26C 5616   4.829   1.026   4.793  0.0624 -3.0534  0.4189
   60CHL1   C27 5617   4.720   0.811   4.707  0.3430  0.4404 -0.1762
   60CHL1  H27A 5618   4.697   0.817   4.816 -2.5839  0.9974 -0.7467
   60CHL1  H27B 5619   4.650   0.882   4.659 -0.4747  1.2192  2.0208
   60CHL1  H27C 5620   4.692   0.709   4.672 -1.1066  0.6351  0.3543
   61CHL1    C3 5621   1.376   4.444   3.300  0.0619 -0.7025  0.2624
   61CHL1    H3 5622   1.266   4.452   3.287  0.2144  0.3851 -0.4924
   61CHL1    O3 5623   1.438   4.427   3.171 -0.2216 -0.3121  0.5357
   61CHL1   H3' 5624   1.402   4.346   3.136  0.0405  0.1620 -0.8842
   61CHL1    C4 5625   1.434   4.562   3.371  0.2227 -0.2447  0.5624
   61CHL1   H4A 5626   1.542   4.548   3.350 -0.1591 -2.2324 -0.2190
   61CHL1   H4B 5627   1.391   4.652   3.322  1.4231  0.1575  0.2327
   61CHL1    C5 5628   1.418   4.562   3.520  0.0496  0.2473  0.1752
   61CHL1    C6 5629   1.361   4.669   3.581 -0.8218 -0.3173  0.7773
   61CHL1    H6 5630   1.340   4.760   3.523  0.5291  0.1641  0.9975
   61CHL1    C7 5631   1.349   4.674   3.730  1.4431  0.2933 -0.1649
   61CHL1   H7A 5632   1.390   4.767   3.775  0.9191 -1.0972  3.5265
   61CHL1   H7B 5633   1.242   4.667   3.759  1.7914  0.3622  1.1948
   61CHL1    C8 5634   1.435   4.564   3.799 -0.4010  0.1297 -0.3235
   61CHL1    H8 5635   1.542   4.590   3.794  0.1120 -1.2536  1.7482
   61CHL1   C14 5636   1.399   4.556   3.957 -0.0465 -0.3959  0.3095
   61CHL1   H14 5637   1.293   4.524   3.968 -0.2096 -0.7870 -1.9106
   61CHL1   C15 5638   1.412   4.685   4.044 -0.9170  0.0530 -0.1233
   61CHL1  H15A 5639   1.495   4.750   4.011  1.1444 -1.1603  2.3316
   61CHL1  H15B 5640   1.323   4.749   4.029 -0.3854  0.8408  0.0070
   61CHL1   C16 5641   1.422   4.632   4.194 -0.0161  0.7671  0.0272
   61CHL1  H16A 5642   1.522   4.666   4.229  0.3765 -0.5597  0.2442
   61CHL1  H16B 5643   1.341   4.685   4.251 -0.2973  0.7141 -0.3189
   61CHL1   C17 5644   1.421   4.475   4.180  0.4003 -0.1178 -0.5358
   61CHL1   H17 5645   1.312   4.453   4.174  0.4214  0.0629 -2.3334
   61CHL1   C13 5646   1.475   4.454   4.038 -0.2696 -0.3672  1.3643
   61CHL1   C18 5647   1.626   4.478   4.040  0.4809 -0.2165 -0.4011
   61CHL1  H18A 5648   1.668   4.451   3.940  0.0701  0.2713 -0.7086
   61CHL1  H18B 5649   1.648   4.583   4.069 -1.2493  0.0432  0.0630
   61CHL1  H18C 5650   1.678   4.410   4.110 -0.4262 -0.7962 -0.2792
   61CHL1   C12 5651   1.437   4.326   3.978 -0.2688  0.1081  1.2261
   61CHL1  H12A 5652   1.474   4.235   4.031  1.3303 -0.9798 -1.5571
   61CHL1  H12B 5653   1.328   4.304   3.980  0.0174 -1.4906  0.8534
   61CHL1   C11 5654   1.470   4.310   3.830 -0.2296  0.1623 -0.2820
   61CHL1  H11A 5655   1.580   4.293   3.825 -0.4116 -0.8079 -1.7899
   61CHL1  H11B 5656   1.415   4.224   3.786  0.1891  0.6085 -1.7271
   61CHL1    C9 5657   1.413   4.430   3.742  0.4127  0.4028 -0.1084
   61CHL1    H9 5658   1.305   4.405   3.744  0.3494  0.7143  0.3606
   61CHL1   C10 5659   1.450   4.435   3.599 -0.4290  0.6626 -1.2809
   61CHL1   C19 5660   1.600   4.407   3.588 -0.3653 -0.3735  0.1518
   61CHL1  H19A 5661   1.625   4.412   3.480 -2.8192  0.7960 -0.4292
   61CHL1  H19B 5662   1.660   4.475   3.653 -0.2058 -0.2768 -0.0924
   61CHL1  H19C 5663   1.636   4.308   3.624  1.4387  0.4123  0.6430
   61CHL1    C1 5664   1.384   4.314   3.517 -0.0438  0.4357 -0.5322
   61CHL1   H1A 5665   1.417   4.219   3.563 -3.2550  0.2343  1.6719
   61CHL1   H1B 5666   1.274   4.323   3.533 -0.0023 -0.1008  0.0898
   61CHL1    C2 5667   1.397   4.311   3.369 -0.0382  0.2173  0.3500
   61CHL1   H2A 5668   1.321   4.246   3.320 -0.7428  1.1515  0.1865
   61CHL1   H2B 5669   1.500   4.272   3.358  0.3683  0.9300  1.4717
   61CHL1   C20 5670   1.490   4.408   4.299  0.0267 -0.0925 -0.5148
   61CHL1   H20 5671   1.601   4.409   4.290  0.2175 -4.2589 -0.7139
   61CHL1   C21 5672   1.432   4.264   4.308 -0.2330  0.0571  0.6927
   61CHL1  H21A 5673   1.486   4.205   4.231  1.4336  3.7664 -1.2526
   61CHL1  H21B 5674   1.321   4.262   4.296 -0.4320  2.3194  1.5517
   61CHL1  H21C 5675   1.469   4.219   4.402  2.8455  0.6146 -0.1262
   61CHL1   C22 5676   1.457   4.484   4.437 -0.5464 -0.5177  0.0613
   61CHL1  H22A 5677   1.495   4.588   4.439  0.6460 -0.9495  1.2388
   61CHL1  H22B 5678   1.347   4.499   4.448 -0.3996  2.1780 -1.2037
   61CHL1   C23 5679   1.501   4.417   4.567 -0.3292  0.1995 -0.0301
   61CHL1  H23A 5680   1.438   4.326   4.571 -4.3489  2.6688 -0.5834
   61CHL1  H23B 5681   1.610   4.400   4.567 -0.3695 -0.1752  1.4453
   61CHL1   C24 5682   1.483   4.499   4.689  0.3955 -0.8368  0.2769
   61CHL1  H24A 5683   1.524   4.602   4.680 -3.9906  1.1864  0.5688
   61CHL1  H24B 5684   1.372   4.509   4.693  0.4183  0.8047 -1.6185
   61CHL1   C25 5685   1.538   4.439   4.815 -0.0767  0.6989 -0.7949
   61CHL1   H25 5686   1.647   4.450   4.800 -0.1824  1.9626 -0.6829
   61CHL1   C26 5687   1.512   4.526   4.943  0.6668  0.2977 -0.2327
   61CHL1  H26A 5688   1.529   4.460   5.031  0.7179 -1.9020 -1.7955
   61CHL1  H26B 5689   1.579   4.614   4.945  1.3579 -0.1947 -0.9619
   61CHL1  H26C 5690   1.410   4.570   4.952  1.9271  3.2807  0.6605
   61CHL1   C27 5691   1.484   4.293   4.838  0.1133 -0.6783 -0.2496
   61CHL1  H27A 5692   1.541   4.232   4.765 -0.6677 -0.2246 -1.2661
   61CHL1  H27B 5693   1.507   4.244   4.935 -1.6977 -0.0239  0.5650
   61CHL1  H27C 5694   1.374   4.284   4.821  0.2398  1.5996 -3.1096
   62CHL1    C3 5695   2.063   5.896   3.434 -0.6285 -0.3348  0.4597
   62CHL1    H3 5696   2.155   5.834   3.438 -1.2797 -1.2658  2.1052
   62CHL1    O3 5697   2.019   5.893   3.301  0.1301 -0.4227  0.6179
   62CHL1   H3' 5698   2.059   5.956   3.241 -0.0802 -1.3474 -0.5202
   62CHL1    C4 5699   1.955   5.829   3.522 -0.2376  0.0021  0.3870
   62CHL1   H4A 5700   1.857   5.881   3.515 -0.0257  0.2358 -1.1620
   62CHL1   H4B 5701   1.938   5.727   3.483 -1.3316  0.5048 -0.5090
   62CHL1    C5 5702   1.988   5.809   3.667 -0.0141 -0.2957  0.3216
   62CHL1    C6 5703   1.980   5.688   3.735 -0.3602 -0.8693  0.4940
   62CHL1    H6 5704   1.940   5.607   3.672 -0.2419  0.9609 -2.1011
   62CHL1    C7 5705   2.015   5.668   3.881  0.0409 -0.3524 -0.6130
   62CHL1   H7A 5706   1.928   5.607   3.914 -0.9455  0.4923 -1.5921
   62CHL1   H7B 5707   2.116   5.622   3.892  0.6048  0.7413 -0.9690
   62CHL1    C8 5708   2.017   5.806   3.954 -0.2617 -0.2368  0.3519
   62CHL1    H8 5709   1.915   5.849   3.959  0.2990  1.0564  1.1871
   62CHL1   C14 5710   2.080   5.803   4.092  0.1372 -0.5410 -0.2667
   62CHL1   H14 5711   2.183   5.762   4.096  0.6106  0.6435  2.9228
   62CHL1   C15 5712   2.011   5.707   4.196  0.2127  0.2494 -0.1951
   62CHL1  H15A 5713   1.902   5.728   4.188 -0.2516 -1.8238  0.0101
   62CHL1  H15B 5714   2.025   5.601   4.166  4.7350  0.8345 -0.8293
   62CHL1   C16 5715   2.067   5.756   4.328  0.2416 -0.0833  0.1500
   62CHL1  H16A 5716   1.978   5.755   4.395  0.7919 -2.3192  0.9557
   62CHL1  H16B 5717   2.141   5.682   4.365 -2.7779 -1.5036  4.1934
   62CHL1   C17 5718   2.144   5.892   4.301 -0.4260  0.4498 -0.5835
   62CHL1   H17 5719   2.250   5.863   4.280 -0.7932  0.4410 -2.6688
   62CHL1   C13 5720   2.089   5.942   4.166 -0.6693  0.6700  0.4815
   62CHL1   C18 5721   1.949   6.007   4.179  0.2208  0.0197 -0.2915
   62CHL1  H18A 5722   1.957   6.105   4.231  0.7300  0.1673 -0.6336
   62CHL1  H18B 5723   1.897   6.027   4.082  0.8210 -0.0736 -0.6378
   62CHL1  H18C 5724   1.883   5.941   4.238 -0.5505  1.7518  0.8687
   62CHL1   C12 5725   2.193   6.027   4.081 -0.2521  0.2082 -0.3603
   62CHL1  H12A 5726   2.197   6.129   4.126  1.3272 -0.1039  0.2811
   62CHL1  H12B 5727   2.294   5.981   4.073 -0.2401 -0.1753  1.4972
   62CHL1   C11 5728   2.143   6.044   3.939  0.4628  0.2932 -0.1341
   62CHL1  H11A 5729   2.064   6.121   3.950  0.8831  0.7771 -0.4811
   62CHL1  H11B 5730   2.219   6.101   3.883 -0.5450  1.0737 -0.7488
   62CHL1    C9 5731   2.098   5.910   3.866  0.1478 -0.0915 -1.4198
   62CHL1    H9 5732   2.201   5.868   3.855  1.1332  1.0023  2.1648
   62CHL1   C10 5733   2.043   5.939   3.729 -0.0042  0.3369  1.0364
   62CHL1   C19 5734   1.913   6.024   3.750 -0.0830  0.6617  0.1007
   62CHL1  H19A 5735   1.848   6.033   3.660  0.2414  0.2510 -0.1785
   62CHL1  H19B 5736   1.840   5.979   3.821  0.4723 -1.0961 -0.3918
   62CHL1  H19C 5737   1.947   6.124   3.781  4.7541 -0.9048  0.6313
   62CHL1    C1 5738   2.131   6.032   3.632 -0.3674  0.5301 -0.3008
   62CHL1   H1A 5739   2.128   6.136   3.672  3.4320  0.1371  1.4953
   62CHL1   H1B 5740   2.236   5.996   3.640 -0.6276  0.2882  3.0830
   62CHL1    C2 5741   2.082   6.035   3.490 -0.4700 -0.9658 -0.1040
   62CHL1   H2A 5742   2.157   6.097   3.438  1.2274 -0.6162  2.5277
   62CHL1   H2B 5743   1.983   6.083   3.476  0.7358  2.6153  2.2654
   62CHL1   C20 5744   2.129   5.976   4.428 -0.4275 -0.2042  0.0372
   62CHL1   H20 5745   2.023   6.004   4.447  0.0649  0.0746  2.6487
   62CHL1   C21 5746   2.214   6.107   4.416 -0.6715  0.0779  0.2211
   62CHL1  H21A 5747   2.174   6.170   4.333  0.7056  0.5643 -0.1016
   62CHL1  H21B 5748   2.321   6.080   4.404 -0.9082 -1.2755  0.9176
   62CHL1  H21C 5749   2.205   6.163   4.512  0.2927 -0.0724  0.4033
   62CHL1   C22 5750   2.165   5.916   4.560 -0.2040 -0.0778 -0.5111
   62CHL1  H22A 5751   2.150   5.805   4.561 -2.3581  0.1351 -2.0335
   62CHL1  H22B 5752   2.276   5.916   4.567 -0.2496  0.9854  0.4264
   62CHL1   C23 5753   2.100   5.974   4.688 -0.3133 -0.0099 -0.2839
   62CHL1  H23A 5754   2.108   6.084   4.685 -3.7945  0.3657 -0.0875
   62CHL1  H23B 5755   1.992   5.948   4.698 -0.3134  0.4071  0.9530
   62CHL1   C24 5756   2.173   5.926   4.819 -0.0047  0.6318 -0.4454
   62CHL1  H24A 5757   2.169   5.815   4.826  0.0485  0.5489 -1.5489
   62CHL1  H24B 5758   2.281   5.948   4.802  0.2796 -0.5063 -0.1727
   62CHL1   C25 5759   2.140   5.984   4.955  0.1491  0.2383  0.6929
   62CHL1   H25 5760   2.153   6.094   4.958  0.0206  0.2300  2.1523
   62CHL1   C26 5761   1.992   5.949   4.991  0.1690  0.2358  0.5702
   62CHL1  H26A 5762   1.978   5.841   4.971 -0.1994  0.3852 -0.0305
   62CHL1  H26B 5763   1.953   5.962   5.095  0.7722  2.4026  0.5818
   62CHL1  H26C 5764   1.932   6.010   4.920 -0.2239  0.6257  1.2202
   62CHL1   C27 5765   2.239   5.929   5.057 -0.5589  0.0115  0.1109
   62CHL1  H27A 5766   2.343   5.950   5.024  0.0549 -2.1115  0.5699
   62CHL1  H27B 5767   2.221   5.954   5.164  0.8797 -2.1173  0.8921
   62CHL1  H27C 5768   2.237   5.819   5.066  1.5335  0.0089  1.0026
   63CHL1    C3 5769   4.970   0.169   2.792  0.0069 -0.6351  0.5672
   63CHL1    H3 5770   5.021   0.076   2.761 -1.5088 -0.7307 -1.9344
   63CHL1    O3 5771   4.905   0.228   2.675 -0.1281 -0.1761  0.9467
   63CHL1   H3' 5772   4.976   0.251   2.614  0.5542 -2.9702  0.5785
   63CHL1    C4 5773   4.853   0.119   2.880  0.3557  0.3707 -0.5311
   63CHL1   H4A 5774   4.804   0.214   2.913  2.0952  1.6614 -1.4821
   63CHL1   H4B 5775   4.795   0.050   2.816  2.2005 -0.7360 -1.0828
   63CHL1    C5 5776   4.906   0.064   3.010  0.7515  0.7013  0.1748
   63CHL1    C6 5777   4.867  -0.058   3.056 -0.0497  0.4856  0.7714
   63CHL1    H6 5778   4.803  -0.127   3.000 -0.0335 -0.5303  1.9591
   63CHL1    C7 5779   4.908  -0.111   3.187 -0.1167  0.6877  0.0695
   63CHL1   H7A 5780   4.819  -0.157   3.234  0.7119  0.3370  1.3551
   63CHL1   H7B 5781   4.984  -0.190   3.169  1.0162  1.9992 -1.1506
   63CHL1    C8 5782   4.960  -0.005   3.288 -0.3856  0.7493  0.3034
   63CHL1    H8 5783   4.884   0.067   3.324  1.5690  1.3649  3.5633
   63CHL1   C14 5784   5.027  -0.070   3.408 -0.4532  0.6024  0.1533
   63CHL1   H14 5785   5.121  -0.120   3.376 -0.0173  2.0962 -1.0159
   63CHL1   C15 5786   4.939  -0.172   3.495 -0.5113 -1.1043  1.4235
   63CHL1  H15A 5787   4.835  -0.134   3.496 -0.3701 -0.4737 -1.0044
   63CHL1  H15B 5788   4.943  -0.268   3.440 -0.0846 -0.9718  1.2211
   63CHL1   C16 5789   5.000  -0.173   3.633  0.3648 -0.8307 -0.6708
   63CHL1  H16A 5790   4.927  -0.139   3.709  0.4197 -0.8801 -0.5949
   63CHL1  H16B 5791   5.028  -0.275   3.669  1.6198  0.0051  0.8633
   63CHL1   C17 5792   5.118  -0.074   3.629 -0.2334 -0.8532  0.2207
   63CHL1   H17 5793   5.205  -0.130   3.589  0.3391  0.5907 -0.6688
   63CHL1   C13 5794   5.078   0.027   3.518 -0.7106 -0.4269  0.6360
   63CHL1   C18 5795   4.968   0.125   3.579  0.5862  0.2513  0.4692
   63CHL1  H18A 5796   4.909   0.189   3.510 -2.1096 -0.8149  1.6509
   63CHL1  H18B 5797   4.908   0.066   3.652  0.2557  1.5432  1.2629
   63CHL1  H18C 5798   5.025   0.201   3.636 -0.3168  1.9215 -0.7554
   63CHL1   C12 5799   5.186   0.115   3.449 -1.3913  0.2475  0.3365
   63CHL1  H12A 5800   5.222   0.200   3.509 -1.7989  0.9866 -0.4482
   63CHL1  H12B 5801   5.268   0.043   3.427 -0.3167  1.0866  1.4410
   63CHL1   C11 5802   5.135   0.178   3.317  0.3723  0.4123 -0.1987
   63CHL1  H11A 5803   5.058   0.250   3.355 -0.5586  0.1670 -1.5464
   63CHL1  H11B 5804   5.223   0.228   3.271  2.5235  0.7557  3.8508
   63CHL1    C9 5805   5.059   0.085   3.216  0.5104  0.0811  0.8576
   63CHL1    H9 5806   5.138   0.017   3.177  0.7367 -0.6395  2.4912
   63CHL1   C10 5807   4.998   0.162   3.089 -0.1965  0.2801  0.2681
   63CHL1   C19 5808   4.920   0.289   3.147  0.4275  0.2883 -0.6023
   63CHL1  H19A 5809   4.858   0.268   3.237  2.2235  1.8706  1.1223
   63CHL1  H19B 5810   4.989   0.372   3.175 -0.6173  1.6030 -1.7714
   63CHL1  H19C 5811   4.855   0.330   3.067  0.6326 -2.0485 -2.0388
   63CHL1    C1 5812   5.108   0.216   2.995 -0.3143  0.4294 -0.1211
   63CHL1   H1A 5813   5.180   0.284   3.045 -0.0665  0.3507 -0.3709
   63CHL1   H1B 5814   5.176   0.131   2.974 -0.4807 -0.0383  1.1424
   63CHL1    C2 5815   5.054   0.274   2.863 -0.4443 -0.1181  0.4920
   63CHL1   H2A 5816   5.132   0.316   2.796 -0.4773  0.8537  1.0421
   63CHL1   H2B 5817   4.989   0.361   2.885 -1.5048  0.1167 -2.9411
   63CHL1   C20 5818   5.155  -0.019   3.767  0.2259  0.7150 -0.5617
   63CHL1   H20 5819   5.059   0.025   3.802 -0.8964 -0.2850 -2.2274
   63CHL1   C21 5820   5.275   0.075   3.753 -0.1608 -0.1838 -0.1186
   63CHL1  H21A 5821   5.353   0.043   3.681 -0.2991  0.5834 -0.6301
   63CHL1  H21B 5822   5.319   0.085   3.854  0.9307 -2.7459 -0.2709
   63CHL1  H21C 5823   5.240   0.172   3.710  0.5923  1.0235  1.8563
   63CHL1   C22 5824   5.195  -0.119   3.883  0.0648 -0.4052 -0.0457
   63CHL1  H22A 5825   5.132  -0.210   3.870 -2.1291  0.9974  0.2268
   63CHL1  H22B 5826   5.301  -0.152   3.872  0.4730  1.3665 -2.2689
   63CHL1   C23 5827   5.162  -0.061   4.016 -0.4219  0.1133 -0.4205
   63CHL1  H23A 5828   5.251  -0.007   4.054  0.5292 -1.2400 -0.6568
   63CHL1  H23B 5829   5.070   0.001   4.022 -0.6525 -0.1987 -0.6493
   63CHL1   C24 5830   5.162  -0.185   4.109 -0.3778 -0.4178 -0.2862
   63CHL1  H24A 5831   5.067  -0.239   4.090 -0.2272 -0.6575 -0.3615
   63CHL1  H24B 5832   5.247  -0.252   4.083 -0.2259  0.1024 -1.1593
   63CHL1   C25 5833   5.156  -0.138   4.260  0.1372 -0.0261  0.3311
   63CHL1   H25 5834   5.104  -0.042   4.242  1.5251  0.7865  0.4680
   63CHL1   C26 5835   5.070  -0.216   4.357  1.0648  1.0554 -0.4524
   63CHL1  H26A 5836   5.109  -0.319   4.375 -0.3828  0.4581 -0.5747
   63CHL1  H26B 5837   5.054  -0.171   4.457  0.2344  0.7216 -0.4278
   63CHL1  H26C 5838   4.970  -0.239   4.314  0.9151 -0.5849  0.6559
   63CHL1   C27 5839   5.296  -0.111   4.323 -0.0729 -0.0830 -0.2805
   63CHL1  H27A 5840   5.336  -0.209   4.356 -2.0980 -0.2815  1.8187
   63CHL1  H27B 5841   5.352  -0.060   4.241 -2.4547  0.1554 -1.8529
   63CHL1  H27C 5842   5.299  -0.052   4.417  0.3389 -0.1333 -0.2583
   64CHL1    C3 5843   3.160   1.240   3.442 -0.0083  0.1951  0.0840
   64CHL1    H3 5844   3.255   1.251   3.498 -1.5630  1.4026  2.7041
   64CHL1    O3 5845   3.200   1.243   3.309 -0.3254  0.0019  0.2535
   64CHL1   H3' 5846   3.122   1.267   3.259 -0.9725 -1.4882  0.4918
   64CHL1    C4 5847   3.093   1.115   3.492 -0.7675 -0.4168 -0.2752
   64CHL1   H4A 5848   2.988   1.103   3.457 -0.6712  0.9187 -1.1052
   64CHL1   H4B 5849   3.154   1.029   3.458  1.5511  1.2724 -0.6480
   64CHL1    C5 5850   3.089   1.120   3.644  0.3320  0.6827 -0.1911
   64CHL1    C6 5851   3.142   1.014   3.720  0.1095 -0.0117  0.6394
   64CHL1    H6 5852   3.165   0.927   3.657  0.0916  0.5891 -0.2201
   64CHL1    C7 5853   3.125   0.998   3.860  0.4387  1.0345 -0.0073
   64CHL1   H7A 5854   3.060   0.912   3.886  0.8388  0.8925  0.5524
   64CHL1   H7B 5855   3.222   0.973   3.907  0.1919 -1.1114 -0.5340
   64CHL1    C8 5856   3.059   1.113   3.941 -0.1735 -0.6075 -0.4060
   64CHL1    H8 5857   2.951   1.092   3.951 -0.0731 -0.7515  0.4646
   64CHL1   C14 5858   3.112   1.126   4.088  0.6191  0.1952  1.2855
   64CHL1   H14 5859   3.223   1.130   4.080  0.6054 -1.6240 -1.4593
   64CHL1   C15 5860   3.100   1.003   4.179 -0.4648 -0.1166 -0.5102
   64CHL1  H15A 5861   2.998   0.958   4.179 -0.1532 -0.8298 -1.2619
   64CHL1  H15B 5862   3.168   0.925   4.139  0.2543  0.9239 -1.3752
   64CHL1   C16 5863   3.146   1.068   4.310  0.6024 -0.0583 -0.3687
   64CHL1  H16A 5864   3.084   1.033   4.395 -0.6196  0.2377 -1.1031
   64CHL1  H16B 5865   3.252   1.039   4.326  0.5785  0.7698  1.5401
   64CHL1   C17 5866   3.138   1.224   4.295 -0.3227 -0.0115  0.8197
   64CHL1   H17 5867   3.241   1.258   4.270 -0.1545 -0.2699  1.1517
   64CHL1   C13 5868   3.062   1.248   4.170  0.6394 -0.7013  0.4475
   64CHL1   C18 5869   2.916   1.218   4.203 -0.3976  0.0033  0.5337
   64CHL1  H18A 5870   2.908   1.147   4.288  0.2795 -0.4885  0.1968
   64CHL1  H18B 5871   2.872   1.311   4.246 -0.7331 -0.4403  1.1631
   64CHL1  H18C 5872   2.851   1.188   4.118 -0.4569  2.0561 -0.2161
   64CHL1   C12 5873   3.079   1.383   4.091 -0.4555  0.3652 -0.1478
   64CHL1  H12A 5874   3.022   1.462   4.145 -0.6276  0.0031  0.2055
   64CHL1  H12B 5875   3.185   1.415   4.087  0.3998 -2.3264 -0.7381
   64CHL1   C11 5876   3.023   1.378   3.945  0.6172  0.3799  0.6446
   64CHL1  H11A 5877   2.912   1.376   3.947  0.5230  1.8404 -1.1091
   64CHL1  H11B 5878   3.064   1.463   3.886 -1.8552 -0.2884 -2.3138
   64CHL1    C9 5879   3.079   1.248   3.865 -0.1662 -0.3161  0.0264
   64CHL1    H9 5880   3.189   1.262   3.868 -0.2683  0.5885  3.3875
   64CHL1   C10 5881   3.035   1.245   3.711 -0.1251  0.1011 -0.2494
   64CHL1   C19 5882   2.883   1.240   3.712 -0.2001  0.2000 -0.2474
   64CHL1  H19A 5883   2.845   1.216   3.610  1.2799 -1.8060 -0.3768
   64CHL1  H19B 5884   2.838   1.162   3.777  0.0918  0.4526  0.2626
   64CHL1  H19C 5885   2.834   1.331   3.752 -0.5740  0.8357 -2.0377
   64CHL1    C1 5886   3.083   1.371   3.638 -0.9302 -0.4600  0.3350
   64CHL1   H1A 5887   3.026   1.461   3.670 -1.8584 -0.7939 -0.3354
   64CHL1   H1B 5888   3.190   1.380   3.669 -0.9895 -1.6646  0.9651
   64CHL1    C2 5889   3.081   1.361   3.484  0.3178  0.0913 -0.3241
   64CHL1   H2A 5890   3.131   1.452   3.445  0.3328 -0.5473 -1.8716
   64CHL1   H2B 5891   2.980   1.356   3.438 -1.1445  0.2561  2.6361
   64CHL1   C20 5892   3.104   1.289   4.431 -0.1930 -0.3194  0.1346
   64CHL1   H20 5893   3.005   1.255   4.466  0.8190 -1.4636  2.1144
   64CHL1   C21 5894   3.139   1.437   4.417 -0.4129  0.5202 -0.0282
   64CHL1  H21A 5895   3.228   1.454   4.352 -0.3864  1.3628  0.2195
   64CHL1  H21B 5896   3.163   1.476   4.518 -1.4397 -1.6292  1.1043
   64CHL1  H21C 5897   3.047   1.481   4.374 -1.1732 -1.4364 -0.5322
   64CHL1   C22 5898   3.190   1.229   4.544  0.5438 -0.0430 -0.2274
   64CHL1  H22A 5899   3.200   1.119   4.547 -1.9272 -0.3069  0.2840
   64CHL1  H22B 5900   3.295   1.268   4.539  0.6344 -0.4124 -2.2427
   64CHL1   C23 5901   3.144   1.270   4.681 -0.8234  0.3621  0.1568
   64CHL1  H23A 5902   3.151   1.380   4.698  2.1243  0.3029 -0.1684
   64CHL1  H23B 5903   3.046   1.227   4.710 -0.8741 -1.0206 -1.8269
   64CHL1   C24 5904   3.238   1.205   4.782  0.6238 -0.2878 -0.6007
   64CHL1  H24A 5905   3.250   1.097   4.757 -1.3445 -0.9626  1.0885
   64CHL1  H24B 5906   3.337   1.256   4.775  1.1387 -1.1194  0.3805
   64CHL1   C25 5907   3.192   1.222   4.924  0.1121 -0.2349  0.1727
   64CHL1   H25 5908   3.097   1.165   4.931 -0.2180  0.4975  2.5504
   64CHL1   C26 5909   3.293   1.163   5.021 -0.2040  1.2033  0.5729
   64CHL1  H26A 5910   3.260   1.159   5.127 -1.4489 -0.9477  0.1674
   64CHL1  H26B 5911   3.307   1.057   4.993 -2.4989  1.1537 -0.6101
   64CHL1  H26C 5912   3.391   1.213   5.034  0.6755  0.0344 -1.2338
   64CHL1   C27 5913   3.162   1.373   4.969 -0.3207  0.1685  0.2274
   64CHL1  H27A 5914   3.069   1.409   4.921  0.1526 -1.1015 -1.7991
   64CHL1  H27B 5915   3.153   1.381   5.079  2.3363  0.4629  0.4939
   64CHL1  H27C 5916   3.244   1.445   4.949  0.9205 -1.0965  0.6059
   65CHL1    C3 5917   2.422   5.717   3.241 -0.0544  0.2647  0.3641
   65CHL1    H3 5918   2.341   5.787   3.272 -0.7538 -1.3741  2.4133
   65CHL1    O3 5919   2.460   5.735   3.109 -0.5420  0.3323 -0.5899
   65CHL1   H3' 5920   2.530   5.669   3.107 -0.4609  0.3500  0.9699
   65CHL1    C4 5921   2.547   5.747   3.323  0.6238  0.0392 -1.3312
   65CHL1   H4A 5922   2.631   5.686   3.286 -0.4054 -1.2087 -1.7009
   65CHL1   H4B 5923   2.571   5.853   3.301  0.1908  0.3725 -0.2881
   65CHL1    C5 5924   2.532   5.718   3.474  0.0416  0.1454  0.1116
   65CHL1    C6 5925   2.545   5.817   3.564 -0.3006  0.1827  0.7991
   65CHL1    H6 5926   2.580   5.915   3.528 -1.1213 -0.5707 -2.3893
   65CHL1    C7 5927   2.534   5.803   3.711 -1.0077  0.5369  0.8122
   65CHL1   H7A 5928   2.618   5.860   3.755 -0.5408  0.5603 -0.0870
   65CHL1   H7B 5929   2.437   5.843   3.749 -0.3904  3.4026 -0.4023
   65CHL1    C8 5930   2.538   5.647   3.751  0.0842 -0.4410 -0.4456
   65CHL1    H8 5931   2.641   5.608   3.739 -0.4193 -1.4164 -1.9024
   65CHL1   C14 5932   2.496   5.627   3.894 -0.5269  0.0875 -0.0087
   65CHL1   H14 5933   2.393   5.667   3.899  0.3767  2.5829  0.6868
   65CHL1   C15 5934   2.572   5.705   3.999 -0.0468 -0.3148 -0.0556
   65CHL1  H15A 5935   2.679   5.680   3.991 -0.9762 -4.3322 -3.0075
   65CHL1  H15B 5936   2.561   5.816   4.005 -3.8207 -0.5389 -0.0431
   65CHL1   C16 5937   2.513   5.647   4.133 -0.1144 -0.4386 -0.1045
   65CHL1  H16A 5938   2.598   5.635   4.204  1.6859 -0.4869 -2.1746
   65CHL1  H16B 5939   2.442   5.722   4.173  0.9910 -0.3461  1.8120
   65CHL1   C17 5940   2.438   5.517   4.099  0.2000 -0.2826  0.4295
   65CHL1   H17 5941   2.331   5.545   4.099  0.3346  0.2790  1.0859
   65CHL1   C13 5942   2.473   5.484   3.950  0.0315 -0.3817 -0.4637
   65CHL1   C18 5943   2.606   5.402   3.956 -0.0060  0.2565 -0.5790
   65CHL1  H18A 5944   2.600   5.291   3.966  1.1954  0.1680 -0.7076
   65CHL1  H18B 5945   2.674   5.425   3.871 -0.1445  1.8713 -0.2788
   65CHL1  H18C 5946   2.667   5.433   4.043 -1.1698  1.5763 -0.1943
   65CHL1   C12 5947   2.374   5.409   3.857  0.0576  0.1662 -0.5179
   65CHL1  H12A 5948   2.358   5.301   3.873  1.4520  0.1007  0.5762
   65CHL1  H12B 5949   2.275   5.460   3.859 -0.0973 -0.1401 -0.3968
   65CHL1   C11 5950   2.421   5.419   3.711 -0.8398 -0.4758  0.2710
   65CHL1  H11A 5951   2.522   5.376   3.729 -0.1839  1.2097  0.8604
   65CHL1  H11B 5952   2.357   5.364   3.639 -1.7055  0.4171  0.3260
   65CHL1    C9 5953   2.449   5.566   3.666 -0.7430  0.1569 -0.3302
   65CHL1    H9 5954   2.349   5.613   3.661 -0.3735  0.8673 -1.2284
   65CHL1   C10 5955   2.503   5.573   3.515 -0.3410  0.2714 -0.6533
   65CHL1   C19 5956   2.628   5.484   3.486 -0.3006  0.4649  0.4022
   65CHL1  H19A 5957   2.705   5.495   3.565  0.0927 -1.5608  0.3361
   65CHL1  H19B 5958   2.583   5.383   3.494 -1.1994  0.9495  1.7022
   65CHL1  H19C 5959   2.678   5.496   3.387  1.2784 -2.2335  0.7944
   65CHL1    C1 5960   2.382   5.537   3.418  0.0436 -0.3844 -0.1228
   65CHL1   H1A 5961   2.337   5.437   3.436 -0.6175 -0.0518  0.0986
   65CHL1   H1B 5962   2.290   5.583   3.461 -1.0337 -1.9303 -0.6555
   65CHL1    C2 5963   2.387   5.575   3.270 -0.3345  0.1768 -0.1788
   65CHL1   H2A 5964   2.293   5.547   3.218 -1.7752  0.2795  2.2276
   65CHL1   H2B 5965   2.469   5.509   3.235 -2.5110 -2.8967  0.1524
   65CHL1   C20 5966   2.446   5.408   4.213 -0.3767  0.2496  0.0457
   65CHL1   H20 5967   2.550   5.373   4.224 -0.6786 -0.3020  1.2106
   65CHL1   C21 5968   2.355   5.291   4.182 -0.3811  0.9438 -0.3552
   65CHL1  H21A 5969   2.247   5.310   4.198 -0.7627 -2.2898  1.9168
   65CHL1  H21B 5970   2.368   5.200   4.245  2.2262 -0.3163 -2.4996
   65CHL1  H21C 5971   2.370   5.262   4.076  1.4702 -0.4276  0.2214
   65CHL1   C22 5972   2.423   5.470   4.353 -0.2647  0.3766 -0.2154
   65CHL1  H22A 5973   2.502   5.546   4.370  0.0634  0.4815 -2.0437
   65CHL1  H22B 5974   2.319   5.510   4.352  0.0560  1.3526  1.4742
   65CHL1   C23 5975   2.446   5.380   4.480 -1.0920 -0.3082 -0.2569
   65CHL1  H23A 5976   2.354   5.319   4.490 -1.5189  0.5439  1.1544
   65CHL1  H23B 5977   2.527   5.307   4.458  0.5742  1.5893 -0.6431
   65CHL1   C24 5978   2.469   5.457   4.613 -0.8956 -0.1491  0.6476
   65CHL1  H24A 5979   2.494   5.389   4.697  1.8540  2.6264  2.2677
   65CHL1  H24B 5980   2.556   5.519   4.583 -0.2558 -0.8492  1.0290
   65CHL1   C25 5981   2.355   5.547   4.673 -0.0706 -0.4705  0.3795
   65CHL1   H25 5982   2.347   5.640   4.613 -1.0990 -0.5688  0.3514
   65CHL1   C26 5983   2.224   5.480   4.673  0.7630 -0.0721 -0.0048
   65CHL1  H26A 5984   2.220   5.394   4.743 -1.6547 -0.4277 -0.4645
   65CHL1  H26B 5985   2.144   5.550   4.706  1.8295  1.3174 -0.3010
   65CHL1  H26C 5986   2.197   5.447   4.570  0.4345  0.1945 -0.0062
   65CHL1   C27 5987   2.396   5.596   4.812  0.2421  0.5549 -0.3614
   65CHL1  H27A 5988   2.471   5.678   4.816 -0.5456  1.2617  0.2936
   65CHL1  H27B 5989   2.308   5.642   4.862  0.0799 -0.5120  0.3702
   65CHL1  H27C 5990   2.427   5.511   4.877  2.2373 -0.1000 -2.0496
   66CHL1    C3 5991   0.836   0.743   3.466 -1.0801 -0.4114  0.1382
   66CHL1    H3 5992   0.729   0.761   3.490 -1.1531 -0.7189  0.0438
   66CHL1    O3 5993   0.868   0.793   3.337  0.0169 -0.3121  0.4771
   66CHL1   H3' 5994   0.963   0.784   3.332  0.1648  1.0236  0.5581
   66CHL1    C4 5995   0.930   0.809   3.566 -0.5284  0.2891 -0.0675
   66CHL1   H4A 5996   1.035   0.806   3.532 -0.3254  0.6341  0.5102
   66CHL1   H4B 5997   0.915   0.919   3.564 -4.6474 -0.0779  0.6202
   66CHL1    C5 5998   0.919   0.756   3.701  0.0051  0.3458  0.4704
   66CHL1    C6 5999   0.886   0.829   3.807 -0.8198  0.8042  0.3916
   66CHL1    H6 6000   0.866   0.936   3.788  0.5251  0.7956 -1.2446
   66CHL1    C7 6001   0.884   0.782   3.951 -0.6163 -0.2946  0.5318
   66CHL1   H7A 6002   0.925   0.845   4.033 -1.5190 -1.8381  2.2332
   66CHL1   H7B 6003   0.777   0.769   3.975 -0.4684 -1.3330  0.6562
   66CHL1    C8 6004   0.954   0.642   3.960 -0.4566 -0.3386 -0.1976
   66CHL1    H8 6005   1.063   0.652   3.945 -0.2889 -0.1699  1.0274
   66CHL1   C14 6006   0.924   0.586   4.099  0.3532  0.0797  0.3358
   66CHL1   H14 6007   0.814   0.593   4.104  0.2612  0.1748 -1.1372
   66CHL1   C15 6008   0.976   0.661   4.223 -0.3297  0.5028 -1.1515
   66CHL1  H15A 6009   1.079   0.694   4.196 -0.4667  1.5914 -0.4208
   66CHL1  H15B 6010   0.912   0.749   4.246  0.9782  1.5684 -1.3859
   66CHL1   C16 6011   0.957   0.564   4.338  0.6332  0.5193 -1.0272
   66CHL1  H16A 6012   1.049   0.571   4.399  2.1685 -0.3600 -3.1032
   66CHL1  H16B 6013   0.869   0.582   4.403  2.0989 -1.2712  1.6194
   66CHL1   C17 6014   0.924   0.429   4.273 -0.0509 -0.0781 -0.6456
   66CHL1   H17 6015   0.813   0.420   4.278 -0.1282 -0.0741 -1.9846
   66CHL1   C13 6016   0.963   0.439   4.123 -0.0649 -0.5684 -0.0441
   66CHL1   C18 6017   1.119   0.430   4.123 -0.4471 -0.1444 -0.0996
   66CHL1  H18A 6018   1.160   0.328   4.138 -0.6119 -0.1378  0.4071
   66CHL1  H18B 6019   1.150   0.460   4.021  1.5840 -0.0168  0.5057
   66CHL1  H18C 6020   1.164   0.502   4.195 -0.3334  0.1496 -0.4649
   66CHL1   C12 6021   0.893   0.352   4.017 -0.4537  0.0597 -0.0617
   66CHL1  H12A 6022   0.920   0.244   4.022  0.2086  0.1908 -0.7834
   66CHL1  H12B 6023   0.782   0.367   4.014 -0.5256 -0.3654  0.3932
   66CHL1   C11 6024   0.936   0.396   3.877  0.4110 -0.0821  0.7817
   66CHL1  H11A 6025   1.045   0.392   3.860  0.4320  2.6668 -0.2727
   66CHL1  H11B 6026   0.878   0.339   3.801  0.7143 -1.4169  1.5217
   66CHL1    C9 6027   0.900   0.553   3.850 -0.2262  0.0530  0.8293
   66CHL1    H9 6028   0.789   0.554   3.847 -0.2309 -0.1106 -1.6872
   66CHL1   C10 6029   0.940   0.606   3.707 -0.5721  0.7169 -0.0692
   66CHL1   C19 6030   1.093   0.566   3.678  0.3565  0.0028 -0.2531
   66CHL1  H19A 6031   1.102   0.456   3.661  1.7096 -0.0581  0.7131
   66CHL1  H19B 6032   1.116   0.630   3.591  0.5734  3.4296  2.1405
   66CHL1  H19C 6033   1.150   0.582   3.772 -1.2814 -1.1164  1.0096
   66CHL1    C1 6034   0.846   0.536   3.608 -0.7063 -0.2220  0.7894
   66CHL1   H1A 6035   0.872   0.429   3.594  1.2206 -0.0398  2.5098
   66CHL1   H1B 6036   0.742   0.554   3.643 -1.2681  2.9500 -1.9862
   66CHL1    C2 6037   0.857   0.588   3.464  0.4852  0.1939 -0.9578
   66CHL1   H2A 6038   0.779   0.541   3.400 -3.0108  1.0921  2.3119
   66CHL1   H2B 6039   0.957   0.567   3.420  1.1485 -0.2342  0.6867
   66CHL1   C20 6040   0.976   0.309   4.357 -0.0821 -0.1893 -0.5750
   66CHL1   H20 6041   1.086   0.311   4.349 -0.1789 -0.2214 -2.4943
   66CHL1   C21 6042   0.913   0.178   4.309 -0.2120 -0.3915 -1.2590
   66CHL1  H21A 6043   0.855   0.133   4.392 -1.2667  1.3555 -1.0065
   66CHL1  H21B 6044   0.986   0.099   4.281  0.4035  0.2967 -1.6197
   66CHL1  H21C 6045   0.840   0.192   4.227 -0.5593  1.1093 -0.7261
   66CHL1   C22 6046   0.943   0.322   4.512  0.0823  0.2478 -0.4195
   66CHL1  H22A 6047   0.980   0.422   4.544 -2.7045  0.1790  3.6483
   66CHL1  H22B 6048   0.835   0.318   4.537  0.0627 -0.0292 -0.5455
   66CHL1   C23 6049   1.015   0.218   4.591 -0.3004 -0.0207 -0.2647
   66CHL1  H23A 6050   0.982   0.112   4.576  0.7355 -0.8224  2.4862
   66CHL1  H23B 6051   1.121   0.227   4.560 -0.1803  0.7773  0.3562
   66CHL1   C24 6052   0.994   0.251   4.743  0.2720  0.2404  0.6280
   66CHL1  H24A 6053   1.034   0.354   4.745 -0.8908  0.6937  1.1418
   66CHL1  H24B 6054   0.885   0.251   4.764  0.0815 -0.4389 -0.3047
   66CHL1   C25 6055   1.067   0.161   4.850  0.2462  0.3145  0.2904
   66CHL1   H25 6056   1.020   0.062   4.835 -2.1270  1.0418  2.2311
   66CHL1   C26 6057   1.222   0.144   4.832  0.1271 -0.0308  0.4257
   66CHL1  H26A 6058   1.264   0.069   4.902 -2.0567 -0.9779  0.7955
   66CHL1  H26B 6059   1.234   0.111   4.727 -0.1941 -0.5180  0.5406
   66CHL1  H26C 6060   1.281   0.237   4.847 -1.5830  0.8105  2.3962
   66CHL1   C27 6061   1.035   0.210   4.999  0.0842 -0.0222 -0.1058
   66CHL1  H27A 6062   1.069   0.315   5.014  0.2221 -0.0484 -0.2313
   66CHL1  H27B 6063   1.109   0.162   5.067  1.5056  0.5417 -1.2021
   66CHL1  H27C 6064   0.927   0.206   5.022  0.1827 -1.4732  0.2117
   67CHL1    C3 6065   4.975   2.776   3.156 -0.4387 -0.2578  0.4990
   67CHL1    H3 6066   5.032   2.870   3.144  0.0063 -0.6180 -0.3625
   67CHL1    O3 6067   4.944   2.726   3.026  0.0567  0.2534 -0.6352
   67CHL1   H3' 6068   4.858   2.765   3.005 -2.1162 -2.9884  1.2098
   67CHL1    C4 6069   5.063   2.657   3.213  0.3398  0.3732 -0.2349
   67CHL1   H4A 6070   5.000   2.566   3.212 -0.1006  0.6524 -2.4261
   67CHL1   H4B 6071   5.149   2.638   3.145 -0.9429  0.2798 -1.8938
   67CHL1    C5 6072   5.086   2.690   3.356  0.3008 -0.3475 -0.5338
   67CHL1    C6 6073   5.205   2.688   3.407 -0.1441  1.0424  0.2620
   67CHL1    H6 6074   5.285   2.657   3.338 -0.9704  0.3245 -0.3883
   67CHL1    C7 6075   5.241   2.707   3.553 -0.5691  0.2511 -0.4066
   67CHL1   H7A 6076   5.313   2.630   3.589 -1.0112 -0.5828 -1.2875
   67CHL1   H7B 6077   5.295   2.803   3.565 -0.9852  0.3380  1.0441
   67CHL1    C8 6078   5.114   2.710   3.652  0.3801  0.4150 -0.0357
   67CHL1    H8 6079   5.078   2.606   3.667  0.3452  0.6718  1.9306
   67CHL1   C14 6080   5.147   2.775   3.785 -0.4617 -0.4700 -0.4731
   67CHL1   H14 6081   5.186   2.878   3.766 -0.3077 -0.4833 -0.2348
   67CHL1   C15 6082   5.271   2.723   3.866 -0.1980 -0.1701  0.2117
   67CHL1  H15A 6083   5.269   2.612   3.855  1.5773 -0.0519 -2.0189
   67CHL1  H15B 6084   5.367   2.759   3.824  0.0506 -0.1293  0.8070
   67CHL1   C16 6085   5.240   2.770   4.009 -0.4773  0.6639  0.1414
   67CHL1  H16A 6086   5.245   2.674   4.064  0.3703 -0.7130 -2.2057
   67CHL1  H16B 6087   5.301   2.849   4.058  0.0788 -0.0878  0.6854
   67CHL1   C17 6088   5.093   2.816   4.013  0.3864  0.4597 -0.9889
   67CHL1   H17 6089   5.094   2.927   4.004  0.8126  0.4517 -1.0794
   67CHL1   C13 6090   5.029   2.767   3.886 -0.1975  0.2535 -0.4135
   67CHL1   C18 6091   4.982   2.614   3.912  1.0803  0.2282  0.1968
   67CHL1  H18A 6092   4.942   2.574   3.816  0.5494  0.0969  0.4719
   67CHL1  H18B 6093   5.053   2.537   3.950  0.1575  0.6432  2.9033
   67CHL1  H18C 6094   4.892   2.618   3.976  1.0268 -0.2738  0.1586
   67CHL1   C12 6095   4.910   2.851   3.831  0.2870  0.0694  0.5259
   67CHL1  H12A 6096   4.817   2.838   3.891  0.3163 -1.5837  0.2736
   67CHL1  H12B 6097   4.935   2.959   3.821  0.1013  0.1247  0.6585
   67CHL1   C11 6098   4.876   2.804   3.689 -0.8868  0.2331  0.0348
   67CHL1  H11A 6099   4.821   2.707   3.695  3.4389 -2.4652  1.3722
   67CHL1  H11B 6100   4.812   2.883   3.646 -0.6759  0.1641 -0.4210
   67CHL1    C9 6101   5.001   2.795   3.588  0.2053  0.4213  0.6165
   67CHL1    H9 6102   5.040   2.898   3.569 -2.0814  1.2618  0.1736
   67CHL1   C10 6103   4.963   2.730   3.449  0.1746 -0.3027 -0.3142
   67CHL1   C19 6104   4.871   2.604   3.475 -0.6386  0.5455  0.2672
   67CHL1  H19A 6105   4.906   2.538   3.557 -0.6254 -2.3534 -1.9213
   67CHL1  H19B 6106   4.769   2.634   3.507 -1.1748 -2.0101  1.1048
   67CHL1  H19C 6107   4.853   2.555   3.377 -4.1464  2.0435 -0.0094
   67CHL1    C1 6108   4.870   2.832   3.374 -0.1627  0.2981  0.0440
   67CHL1   H1A 6109   4.769   2.843   3.418 -0.3959 -3.7555  0.9071
   67CHL1   H1B 6110   4.925   2.928   3.390  0.3148 -0.2214  1.7291
   67CHL1    C2 6111   4.847   2.798   3.226  0.1287 -0.8103 -0.2587
   67CHL1   H2A 6112   4.787   2.883   3.186 -1.1308 -1.2824  0.5618
   67CHL1   H2B 6113   4.780   2.711   3.213 -2.0863  1.1628 -3.6839
   67CHL1   C20 6114   5.039   2.778   4.156 -0.2290 -0.3309  0.4846
   67CHL1   H20 6115   5.022   2.668   4.160  3.1160 -0.9097  0.9852
   67CHL1   C21 6116   4.893   2.839   4.165  0.2227  0.0342  0.3099
   67CHL1  H21A 6117   4.895   2.949   4.145 -0.0641 -0.4070 -2.5473
   67CHL1  H21B 6118   4.852   2.819   4.266  0.3602 -3.0703 -0.1622
   67CHL1  H21C 6119   4.822   2.789   4.096 -2.6623  0.9916  2.3742
   67CHL1   C22 6120   5.128   2.819   4.275 -0.2874  0.0235  0.8315
   67CHL1  H22A 6121   5.227   2.772   4.256 -0.6808 -0.2394 -0.7214
   67CHL1  H22B 6122   5.155   2.926   4.261 -0.7456  0.1636  0.9923
   67CHL1   C23 6123   5.063   2.792   4.410 -0.7105  0.7770 -0.0676
   67CHL1  H23A 6124   4.985   2.715   4.394  0.1177  0.1383 -1.1920
   67CHL1  H23B 6125   5.144   2.746   4.470  0.9023  2.2925 -0.9627
   67CHL1   C24 6126   5.010   2.923   4.475  0.2060  0.0140 -0.2849
   67CHL1  H24A 6127   5.088   3.001   4.467 -0.3641  0.6008 -0.2142
   67CHL1  H24B 6128   4.924   2.962   4.416 -1.6809 -0.2552  2.1435
   67CHL1   C25 6129   4.955   2.899   4.612  0.1647 -0.4725 -0.8903
   67CHL1   H25 6130   4.888   2.811   4.603  1.0953 -1.1016 -1.9327
   67CHL1   C26 6131   5.068   2.870   4.710 -0.6440  0.0677 -0.1507
   67CHL1  H26A 6132   5.114   2.966   4.740  1.5597 -1.3218  1.2792
   67CHL1  H26B 6133   5.035   2.814   4.801 -0.0383 -0.1566 -0.0631
   67CHL1  H26C 6134   5.152   2.807   4.675 -1.5034 -0.5522 -1.1611
   67CHL1   C27 6135   4.859   3.016   4.658  0.8800  0.6281  0.3077
   67CHL1  H27A 6136   4.907   3.112   4.685 -2.3151  2.5694 -0.4282
   67CHL1  H27B 6137   4.785   3.049   4.581 -2.1984  0.3499  2.9169
   67CHL1  H27C 6138   4.811   2.977   4.750 -0.7390 -1.1901 -1.1893
   68CHL1    C3 6139   3.521   3.288   2.881 -0.9631  0.6555 -0.3125
   68CHL1    H3 6140   3.417   3.249   2.881 -0.2948 -1.3124  1.1355
   68CHL1    O3 6141   3.563   3.293   2.742  0.5613  0.2908 -0.4029
   68CHL1   H3' 6142   3.658   3.309   2.741  0.2066  2.8050 -0.4719
   68CHL1    C4 6143   3.521   3.426   2.953  0.3914 -0.5949 -0.1465
   68CHL1   H4A 6144   3.614   3.484   2.939  0.5554 -1.3596 -2.7389
   68CHL1   H4B 6145   3.458   3.496   2.894 -2.4014 -0.6745  2.5115
   68CHL1    C5 6146   3.486   3.410   3.104 -0.1016 -0.0061  0.3564
   68CHL1    C6 6147   3.397   3.487   3.171  0.0487  0.0406 -0.4787
   68CHL1    H6 6148   3.348   3.566   3.111  1.6675  0.3888 -1.4017
   68CHL1    C7 6149   3.381   3.503   3.317 -0.1407  0.3573  0.4284
   68CHL1   H7A 6150   3.368   3.612   3.333 -2.6203  0.2862 -0.6695
   68CHL1   H7B 6151   3.285   3.460   3.351  0.6869 -1.3466  0.6936
   68CHL1    C8 6152   3.498   3.440   3.387 -0.4504 -0.3999 -0.3445
   68CHL1    H8 6153   3.578   3.517   3.386  0.3013 -1.1527 -0.0073
   68CHL1   C14 6154   3.463   3.430   3.534  0.1150  0.5227 -0.6777
   68CHL1   H14 6155   3.371   3.368   3.534 -0.8455  1.9059 -0.9256
   68CHL1   C15 6156   3.409   3.556   3.610  0.1972 -0.1489 -0.3127
   68CHL1  H15A 6157   3.487   3.634   3.596 -1.2546  1.6188  0.9681
   68CHL1  H15B 6158   3.306   3.580   3.578 -0.9493 -1.8381  1.8856
   68CHL1   C16 6159   3.425   3.515   3.757  0.6690 -0.3458 -0.8771
   68CHL1  H16A 6160   3.483   3.592   3.812 -0.8788  1.7883 -2.0698
   68CHL1  H16B 6161   3.327   3.512   3.809  0.5635  2.0255 -0.8554
   68CHL1   C17 6162   3.495   3.377   3.754 -0.3144  0.2133 -0.8635
   68CHL1   H17 6163   3.412   3.303   3.747  0.5071 -1.0158  1.3969
   68CHL1   C13 6164   3.566   3.363   3.619 -0.3177 -0.0960 -0.6152
   68CHL1   C18 6165   3.697   3.439   3.625  0.3146  0.2939 -0.1175
   68CHL1  H18A 6166   3.765   3.398   3.702  2.4001 -0.0410 -2.0293
   68CHL1  H18B 6167   3.744   3.440   3.524 -2.0304 -1.6770 -1.3746
   68CHL1  H18C 6168   3.671   3.543   3.653  0.5909 -0.5075  3.4775
   68CHL1   C12 6169   3.592   3.223   3.563  0.5237  0.7460 -0.3387
   68CHL1  H12A 6170   3.668   3.173   3.626 -1.8682 -1.0052  1.3750
   68CHL1  H12B 6171   3.504   3.156   3.580  0.6064  0.0581 -2.2963
   68CHL1   C11 6172   3.632   3.216   3.416  0.0105 -0.6224  0.3885
   68CHL1  H11A 6173   3.736   3.255   3.407  0.7354 -2.5657 -0.2490
   68CHL1  H11B 6174   3.637   3.110   3.381 -0.8321 -1.0356  1.4587
   68CHL1    C9 6175   3.534   3.302   3.328 -0.3439 -0.2242 -0.0003
   68CHL1    H9 6176   3.435   3.251   3.329 -0.2296 -0.4460 -0.1116
   68CHL1   C10 6177   3.580   3.312   3.177 -0.3926 -0.9993 -0.5944
   68CHL1   C19 6178   3.731   3.347   3.178  0.3145  0.5722  0.2493
   68CHL1  H19A 6179   3.800   3.264   3.205  0.7424  1.0684  0.6912
   68CHL1  H19B 6180   3.765   3.358   3.072 -0.4882 -1.7430 -0.3279
   68CHL1  H19C 6181   3.756   3.433   3.244  4.0949 -0.5261  0.4923
   68CHL1    C1 6182   3.573   3.174   3.103 -0.7278  0.6259  0.1610
   68CHL1   H1A 6183   3.646   3.105   3.149 -0.1501  1.5473  0.6522
   68CHL1   H1B 6184   3.468   3.138   3.114 -1.4401  2.2061 -0.9377
   68CHL1    C2 6185   3.607   3.179   2.953 -0.2775 -0.4185 -0.1812
   68CHL1   H2A 6186   3.598   3.077   2.909  2.3538 -0.8717  0.2043
   68CHL1   H2B 6187   3.713   3.203   2.931  0.3651 -2.5112  0.3779
   68CHL1   C20 6188   3.565   3.341   3.882 -0.1456  0.3862 -0.1559
   68CHL1   H20 6189   3.629   3.252   3.862 -0.1677  0.1314  0.8458
   68CHL1   C21 6190   3.457   3.306   3.989 -0.1191 -0.5492  0.6132
   68CHL1  H21A 6191   3.381   3.237   3.946 -1.0390 -0.8595  2.6345
   68CHL1  H21B 6192   3.398   3.398   4.008 -0.3511 -0.3960 -0.7110
   68CHL1  H21C 6193   3.508   3.265   4.078  1.6047 -0.7199 -0.4087
   68CHL1   C22 6194   3.655   3.452   3.939 -0.7732 -0.2696 -0.1839
   68CHL1  H22A 6195   3.721   3.503   3.866 -1.4543  0.2685 -0.4302
   68CHL1  H22B 6196   3.590   3.529   3.986  1.6198  0.4195  2.2899
   68CHL1   C23 6197   3.758   3.390   4.041 -0.0909  0.3476 -0.3084
   68CHL1  H23A 6198   3.697   3.333   4.115 -1.8665  0.3283 -1.7075
   68CHL1  H23B 6199   3.815   3.310   3.989 -1.0355 -0.3332 -0.3339
   68CHL1   C24 6200   3.844   3.489   4.111  0.4224  0.1284 -0.2219
   68CHL1  H24A 6201   3.909   3.544   4.040 -1.8792  0.4352 -2.2275
   68CHL1  H24B 6202   3.772   3.568   4.138 -0.5489 -0.3864 -1.2120
   68CHL1   C25 6203   3.917   3.448   4.250 -0.7190  0.1983  0.1287
   68CHL1   H25 6204   3.843   3.405   4.322  1.1170 -2.0340  0.7914
   68CHL1   C26 6205   4.023   3.347   4.211 -0.2519  1.0775 -0.0980
   68CHL1  H26A 6206   4.076   3.361   4.114  1.6693 -1.1540  0.5463
   68CHL1  H26B 6207   4.105   3.355   4.286 -0.9278  1.7971  0.5983
   68CHL1  H26C 6208   3.977   3.247   4.220 -3.4959  2.5090  0.7674
   68CHL1   C27 6209   3.974   3.581   4.315 -0.1279  0.4864  0.6068
   68CHL1  H27A 6210   4.048   3.618   4.240 -0.7067 -2.9806 -1.9191
   68CHL1  H27B 6211   3.904   3.667   4.323  0.5460  0.9476  1.6964
   68CHL1  H27C 6212   4.020   3.560   4.413 -0.9965  0.9083  1.1129
   69CHL1    C3 6213   6.378   1.163   3.260 -0.4380  0.0584 -0.0928
   69CHL1    H3 6214   6.272   1.145   3.288 -0.0914 -0.7829  0.7418
   69CHL1    O3 6215   6.386   1.165   3.119  0.2604 -0.6951 -0.3381
   69CHL1   H3' 6216   6.450   1.100   3.092  2.7724  1.4691 -0.0340
   69CHL1    C4 6217   6.422   1.296   3.326  0.2001  0.4019 -0.5768
   69CHL1   H4A 6218   6.518   1.323   3.277  0.3087 -0.5787 -0.9435
   69CHL1   H4B 6219   6.357   1.375   3.284  1.3468  1.7093  0.0363
   69CHL1    C5 6220   6.428   1.306   3.482  0.3211  0.2318  0.6653
   69CHL1    C6 6221   6.358   1.399   3.549 -0.7160  0.9501 -0.5853
   69CHL1    H6 6222   6.296   1.478   3.503 -1.4348  0.5460 -0.3277
   69CHL1    C7 6223   6.360   1.406   3.700  0.6059 -0.2977  0.5328
   69CHL1   H7A 6224   6.370   1.513   3.730 -2.8386 -0.2852  2.0443
   69CHL1   H7B 6225   6.261   1.381   3.743  0.9382  2.4128  3.1888
   69CHL1    C8 6226   6.471   1.323   3.759 -0.2193 -0.4883  0.9085
   69CHL1    H8 6227   6.568   1.375   3.747 -0.6013  0.0069 -0.2014
   69CHL1   C14 6228   6.440   1.312   3.914  0.2899 -0.1300 -0.4396
   69CHL1   H14 6229   6.353   1.244   3.925 -1.6695  2.3231  0.0144
   69CHL1   C15 6230   6.405   1.438   3.994 -0.7427  0.4815  0.1045
   69CHL1  H15A 6231   6.456   1.531   3.962 -1.9272  0.2328 -2.8378
   69CHL1  H15B 6232   6.296   1.460   3.996 -1.0262 -0.8125 -0.1815
   69CHL1   C16 6233   6.437   1.394   4.137 -0.6062 -0.7170 -0.9484
   69CHL1  H16A 6234   6.507   1.470   4.178 -0.1846 -1.0389 -1.0618
   69CHL1  H16B 6235   6.342   1.395   4.195 -0.0639 -0.8694 -0.0517
   69CHL1   C17 6236   6.500   1.254   4.135  0.3612 -0.0801 -0.0416
   69CHL1   H17 6237   6.422   1.176   4.144  1.0602 -0.7687  0.2102
   69CHL1   C13 6238   6.546   1.235   3.990 -0.0344  0.2963  0.1810
   69CHL1   C18 6239   6.678   1.307   3.976 -0.7381 -0.1494 -0.3149
   69CHL1  H18A 6240   6.674   1.415   4.004  0.2736  0.1945 -1.4177
   69CHL1  H18B 6241   6.757   1.253   4.032  0.3001 -1.4690 -2.8914
   69CHL1  H18C 6242   6.715   1.298   3.872 -2.6375  0.0110 -1.0480
   69CHL1   C12 6243   6.552   1.092   3.924  0.2885  0.3455 -0.4570
   69CHL1  H12A 6244   6.636   1.040   3.976  0.8403  0.9695 -0.7066
   69CHL1  H12B 6245   6.458   1.040   3.951  0.9217 -0.4492  0.3085
   69CHL1   C11 6246   6.578   1.093   3.774  0.3555 -0.0199  0.0884
   69CHL1  H11A 6247   6.682   1.128   3.766  0.4584 -0.4921 -0.7277
   69CHL1  H11B 6248   6.567   0.986   3.743 -2.3851 -0.9294  3.5005
   69CHL1    C9 6249   6.478   1.185   3.689 -0.3107 -0.0243  0.1156
   69CHL1    H9 6250   6.372   1.153   3.692 -1.1707  2.4792 -0.9276
   69CHL1   C10 6251   6.509   1.192   3.538  0.2839 -0.7027  0.3846
   69CHL1   C19 6252   6.667   1.202   3.524 -0.1918 -0.3422 -0.5197
   69CHL1  H19A 6253   6.699   1.220   3.420 -0.4772 -1.4763 -0.8164
   69CHL1  H19B 6254   6.717   1.280   3.586 -0.4736 -3.1833  3.7250
   69CHL1  H19C 6255   6.712   1.103   3.543 -2.2869 -1.3356 -0.3941
   69CHL1    C1 6256   6.460   1.059   3.475  0.5289 -0.3261 -0.7726
   69CHL1   H1A 6257   6.532   0.985   3.514  0.2767  0.3317  1.0208
   69CHL1   H1B 6258   6.360   1.024   3.507  0.3702  1.6018  1.0692
   69CHL1    C2 6259   6.463   1.052   3.322 -0.1104  0.1881 -0.4145
   69CHL1   H2A 6260   6.423   0.957   3.280 -1.2382  0.5586 -0.2274
   69CHL1   H2B 6261   6.565   1.059   3.281  0.8626 -1.2871  1.5868
   69CHL1   C20 6262   6.597   1.223   4.255 -0.1119 -0.0810  0.0839
   69CHL1   H20 6263   6.681   1.296   4.246 -1.6353  1.5932 -1.3397
   69CHL1   C21 6264   6.650   1.080   4.261  0.4648  0.4271 -0.0381
   69CHL1  H21A 6265   6.700   1.062   4.164  1.5757 -1.2073  0.7871
   69CHL1  H21B 6266   6.564   1.009   4.252  0.7117  0.3284 -2.2350
   69CHL1  H21C 6267   6.722   1.053   4.341  1.4523 -1.0396 -1.3477
   69CHL1   C22 6268   6.551   1.261   4.399  0.1723 -0.5502  0.0169
   69CHL1  H22A 6269   6.634   1.235   4.468  1.4427 -0.2363 -1.3472
   69CHL1  H22B 6270   6.525   1.368   4.411 -3.3068 -1.3045  0.2765
   69CHL1   C23 6271   6.412   1.202   4.452 -0.0743 -0.1287  0.2836
   69CHL1  H23A 6272   6.337   1.242   4.381  1.6246  2.3687 -0.2672
   69CHL1  H23B 6273   6.417   1.093   4.435 -0.4368  0.1243 -1.5887
   69CHL1   C24 6274   6.383   1.236   4.595  0.3555  0.3211  0.4785
   69CHL1  H24A 6275   6.462   1.187   4.657  0.0231 -0.0882  0.5802
   69CHL1  H24B 6276   6.397   1.343   4.618  1.0489  0.8178 -1.9362
   69CHL1   C25 6277   6.246   1.185   4.651  0.6605  0.1578 -0.3734
   69CHL1   H25 6278   6.242   1.235   4.751 -3.5207  2.2242 -1.3501
   69CHL1   C26 6279   6.133   1.256   4.568 -0.6577  0.5545 -0.3408
   69CHL1  H26A 6280   6.134   1.214   4.466 -3.0168 -1.7340  0.4693
   69CHL1  H26B 6281   6.031   1.243   4.610 -0.3375 -2.2072 -0.2075
   69CHL1  H26C 6282   6.157   1.364   4.567  1.2802  0.1800 -1.8534
   69CHL1   C27 6283   6.228   1.033   4.660  0.2342  0.1789 -0.4583
   69CHL1  H27A 6284   6.214   0.991   4.558 -2.8365 -4.0629  1.4486
   69CHL1  H27B 6285   6.311   0.976   4.707 -0.8594 -3.5720 -2.6273
   69CHL1  H27C 6286   6.136   1.006   4.716 -0.3238  2.6375 -0.0702
   70CHL1    C3 6287   4.114   5.129   2.988  0.1351  0.7933  0.2447
   70CHL1    H3 6288   4.027   5.199   2.986 -0.6775 -0.2197 -1.3880
   70CHL1    O3 6289   4.110   5.071   2.865  0.1234  0.0549  0.0045
   70CHL1   H3' 6290   4.110   5.145   2.803  2.1422 -0.0945 -0.2658
   70CHL1    C4 6291   4.250   5.205   3.017  1.0947  0.5563 -1.2743
   70CHL1   H4A 6292   4.329   5.130   2.998 -0.6275 -1.9683  0.7911
   70CHL1   H4B 6293   4.264   5.289   2.945  2.0390  0.3945 -1.2858
   70CHL1    C5 6294   4.270   5.256   3.159 -0.7263 -0.7350 -0.6223
   70CHL1    C6 6295   4.324   5.379   3.196 -0.1092  0.5573  0.1477
   70CHL1    H6 6296   4.354   5.446   3.114 -2.0146 -0.1812 -1.2458
   70CHL1    C7 6297   4.340   5.425   3.337 -0.0525  0.3878  0.0155
   70CHL1   H7A 6298   4.434   5.477   3.365  0.2726  0.8757 -1.8416
   70CHL1   H7B 6299   4.257   5.498   3.346 -1.0214 -0.5798 -0.8224
   70CHL1    C8 6300   4.328   5.314   3.444  0.8016  0.2185  0.3688
   70CHL1    H8 6301   4.419   5.251   3.445  0.6251 -0.0363  1.2120
   70CHL1   C14 6302   4.312   5.369   3.585  0.0225  1.0959 -0.1829
   70CHL1   H14 6303   4.216   5.425   3.585 -0.3812  0.4578 -1.9953
   70CHL1   C15 6304   4.423   5.468   3.627 -0.5377 -0.4390 -0.2900
   70CHL1  H15A 6305   4.526   5.436   3.602 -0.9478 -2.9461  0.8753
   70CHL1  H15B 6306   4.406   5.568   3.582 -2.5110 -0.4593  0.3241
   70CHL1   C16 6307   4.424   5.465   3.780  0.5027 -0.1794 -0.8778
   70CHL1  H16A 6308   4.526   5.439   3.816  0.8299  0.4822 -1.2998
   70CHL1  H16B 6309   4.403   5.569   3.812 -1.5465 -1.2787  1.7475
   70CHL1   C17 6310   4.314   5.364   3.820 -0.1290 -0.4338 -0.0080
   70CHL1   H17 6311   4.220   5.424   3.825  1.4404  2.1489  0.5433
   70CHL1   C13 6312   4.301   5.264   3.696  0.0716  0.2738  0.5481
   70CHL1   C18 6313   4.410   5.157   3.693  0.6830 -0.1554  0.1890
   70CHL1  H18A 6314   4.406   5.100   3.598  0.8940  0.8591 -0.4441
   70CHL1  H18B 6315   4.512   5.201   3.692  0.6868 -0.0168  2.1118
   70CHL1  H18C 6316   4.409   5.097   3.787  2.3886 -0.9205 -0.2485
   70CHL1   C12 6317   4.161   5.198   3.673 -0.1190  0.2649  0.1834
   70CHL1  H12A 6318   4.149   5.111   3.741  1.6811  0.8705  1.3468
   70CHL1  H12B 6319   4.079   5.272   3.688  2.0303  2.3713  2.5280
   70CHL1   C11 6320   4.150   5.146   3.523  0.4564  0.1323 -0.1289
   70CHL1  H11A 6321   4.206   5.050   3.520 -0.0602 -0.1565 -0.7133
   70CHL1  H11B 6322   4.048   5.104   3.508  0.9795 -1.0935 -0.3072
   70CHL1    C9 6323   4.203   5.235   3.405 -0.2101 -0.9797 -0.2927
   70CHL1    H9 6324   4.119   5.305   3.386  0.9669  0.7043  0.4988
   70CHL1   C10 6325   4.226   5.161   3.271  0.7359  0.2798  0.3206
   70CHL1   C19 6326   4.346   5.052   3.293  0.2771 -0.0445  0.2422
   70CHL1  H19A 6327   4.316   4.976   3.368 -1.2999  2.0808  1.8979
   70CHL1  H19B 6328   4.371   5.011   3.193 -1.9936  3.0086 -1.7382
   70CHL1  H19C 6329   4.435   5.111   3.325 -0.8106  1.7528  0.0759
   70CHL1    C1 6330   4.101   5.081   3.234 -0.6488 -0.5041  0.0792
   70CHL1   H1A 6331   4.103   4.997   3.307  0.5622 -0.2509  0.3622
   70CHL1   H1B 6332   4.009   5.142   3.249 -0.8480 -0.2870 -1.8277
   70CHL1    C2 6333   4.082   5.025   3.098  0.1348 -0.1173  0.1188
   70CHL1   H2A 6334   3.979   4.984   3.088 -1.0198  2.4423  0.6592
   70CHL1   H2B 6335   4.160   4.945   3.095 -1.4643 -1.7052 -1.7522
   70CHL1   C20 6336   4.336   5.305   3.955 -0.6377  0.9031 -0.5818
   70CHL1   H20 6337   4.428   5.242   3.949  0.4783  2.4667 -0.3671
   70CHL1   C21 6338   4.231   5.199   4.009  0.1843 -0.8073  0.2115
   70CHL1  H21A 6339   4.221   5.113   3.940 -3.3268 -0.4324  0.0451
   70CHL1  H21B 6340   4.129   5.241   4.025 -0.0964 -1.6439  0.6602
   70CHL1  H21C 6341   4.266   5.151   4.103  0.9619 -3.6013 -1.3904
   70CHL1   C22 6342   4.353   5.418   4.060  0.1867 -0.0233  0.3079
   70CHL1  H22A 6343   4.447   5.472   4.034 -0.4529  1.3371  0.7187
   70CHL1  H22B 6344   4.273   5.495   4.052 -1.1033 -0.9939  2.9210
   70CHL1   C23 6345   4.353   5.375   4.206 -0.2951 -0.5609 -0.1050
   70CHL1  H23A 6346   4.257   5.328   4.235  0.6169 -2.2705  0.2677
   70CHL1  H23B 6347   4.434   5.301   4.223 -0.7665 -0.5672  2.4953
   70CHL1   C24 6348   4.365   5.497   4.310 -0.0376 -0.2761  0.1190
   70CHL1  H24A 6349   4.438   5.574   4.279 -0.6425 -0.4057 -1.7448
   70CHL1  H24B 6350   4.270   5.555   4.308  0.9088  1.3088 -0.4982
   70CHL1   C25 6351   4.408   5.445   4.450  0.5789  0.1045 -0.5176
   70CHL1   H25 6352   4.500   5.383   4.442  1.3173  1.3562 -3.1058
   70CHL1   C26 6353   4.441   5.558   4.541  0.0482 -0.0284  0.1595
   70CHL1  H26A 6354   4.494   5.521   4.631 -1.9404 -0.0881  1.3862
   70CHL1  H26B 6355   4.509   5.624   4.483  0.5643 -0.8068 -0.1288
   70CHL1  H26C 6356   4.353   5.625   4.559 -0.4582 -0.3119 -1.1565
   70CHL1   C27 6357   4.297   5.355   4.508  0.3720  0.6786  0.2607
   70CHL1  H27A 6358   4.262   5.277   4.437  1.0176 -0.1194  0.7899
   70CHL1  H27B 6359   4.328   5.310   4.604 -1.2794  1.4121  1.1807
   70CHL1  H27C 6360   4.202   5.409   4.527  0.0332 -0.5421  2.3811
   71CHL1    C3 6361   2.074   4.045   3.097 -0.6119  0.2740  0.0815
   71CHL1    H3 6362   1.966   4.063   3.084 -0.5844 -0.5427 -1.4845
   71CHL1    O3 6363   2.117   4.043   2.962  0.2921  0.6163 -0.3399
   71CHL1   H3' 6364   2.095   4.131   2.932 -1.4796  0.7929  1.2956
   71CHL1    C4 6365   2.142   4.159   3.170  0.0958 -0.0975 -0.0785
   71CHL1   H4A 6366   2.252   4.145   3.160 -0.0683 -0.4832 -1.4036
   71CHL1   H4B 6367   2.123   4.248   3.106  0.7370 -0.5891 -0.9684
   71CHL1    C5 6368   2.095   4.168   3.310 -0.2107  0.5915  0.5040
   71CHL1    C6 6369   2.034   4.275   3.363 -0.6906  0.3717  0.3592
   71CHL1    H6 6370   2.028   4.367   3.303 -1.2428 -0.7467 -1.3661
   71CHL1    C7 6371   1.986   4.294   3.507  0.0577  0.0084  0.4093
   71CHL1   H7A 6372   2.025   4.389   3.548 -0.5903  1.3427 -1.8754
   71CHL1   H7B 6373   1.875   4.295   3.516 -0.1147 -1.9161 -0.8889
   71CHL1    C8 6374   2.043   4.183   3.596 -0.3005 -0.2550  0.8081
   71CHL1    H8 6375   2.148   4.211   3.622 -0.3587  1.0796 -0.2744
   71CHL1   C14 6376   1.967   4.181   3.728 -0.1790  0.5066 -0.4222
   71CHL1   H14 6377   1.865   4.145   3.703 -0.2571  0.4678 -0.0611
   71CHL1   C15 6378   1.956   4.309   3.803 -0.2830 -0.0355 -0.3136
   71CHL1  H15A 6379   2.049   4.370   3.800  0.4095 -1.1109 -1.4626
   71CHL1  H15B 6380   1.883   4.373   3.749 -0.1198  1.5815  1.2703
   71CHL1   C16 6381   1.927   4.267   3.948  0.7818  0.6200 -0.0701
   71CHL1  H16A 6382   2.003   4.314   4.014 -0.1538  0.6271  1.0518
   71CHL1  H16B 6383   1.831   4.313   3.981  0.9163 -0.2419  1.6774
   71CHL1   C17 6384   1.926   4.112   3.948  0.2174  0.3900 -0.9112
   71CHL1   H17 6385   1.826   4.082   3.912 -0.0082  0.2739 -0.2027
   71CHL1   C13 6386   2.020   4.083   3.829  0.0781  0.6427 -0.3951
   71CHL1   C18 6387   2.170   4.108   3.870  0.4304 -0.2288 -0.4167
   71CHL1  H18A 6388   2.195   4.046   3.958  3.5512  0.3281 -0.8133
   71CHL1  H18B 6389   2.241   4.076   3.791  2.1089 -2.3636  1.8246
   71CHL1  H18C 6390   2.192   4.216   3.883 -2.0028  0.0639  2.3852
   71CHL1   C12 6391   1.998   3.944   3.770 -0.5294 -0.4123  0.6403
   71CHL1  H12A 6392   2.046   3.871   3.838  1.3053 -2.2678 -2.4062
   71CHL1  H12B 6393   1.891   3.919   3.753 -0.0336 -1.0611 -2.0210
   71CHL1   C11 6394   2.073   3.926   3.633  0.2933 -0.2139 -0.2431
   71CHL1  H11A 6395   2.182   3.916   3.655  0.3644 -0.7213 -0.7851
   71CHL1  H11B 6396   2.048   3.828   3.586  1.7432 -1.4696  1.4362
   71CHL1    C9 6397   2.041   4.045   3.530 -0.2013 -0.0780 -0.6799
   71CHL1    H9 6398   1.933   4.036   3.503 -0.1471  0.6456 -1.1561
   71CHL1   C10 6399   2.113   4.035   3.388 -0.0398 -0.2358 -0.7730
   71CHL1   C19 6400   2.266   4.028   3.421  0.1685  0.6009  0.6227
   71CHL1  H19A 6401   2.280   3.950   3.499 -0.2044  0.8951  0.9894
   71CHL1  H19B 6402   2.322   4.005   3.328 -0.7431  0.8025  0.0040
   71CHL1  H19C 6403   2.290   4.124   3.472 -2.3753  1.1628  0.9150
   71CHL1    C1 6404   2.078   3.910   3.307  0.4167  0.4252  0.1170
   71CHL1   H1A 6405   2.118   3.817   3.353 -1.1530 -1.9292 -2.8668
   71CHL1   H1B 6406   1.968   3.902   3.319  0.3211 -0.8817 -1.3540
   71CHL1    C2 6407   2.113   3.912   3.154 -0.3921 -0.3955 -0.6328
   71CHL1   H2A 6408   2.070   3.827   3.097  1.1297 -1.5985 -0.0754
   71CHL1   H2B 6409   2.224   3.906   3.159 -0.3921  0.1239  0.1401
   71CHL1   C20 6410   1.956   4.058   4.082  0.2739 -0.1637  0.1718
   71CHL1   H20 6411   2.058   4.085   4.117 -0.2927 -0.9861  2.6585
   71CHL1   C21 6412   1.953   3.905   4.084 -0.3364  0.3368  0.4352
   71CHL1  H21A 6413   2.051   3.869   4.046  0.4331  0.5642  2.1396
   71CHL1  H21B 6414   1.868   3.856   4.032  0.5133 -2.9132  1.8938
   71CHL1  H21C 6415   1.945   3.876   4.191 -2.8337 -0.1183  0.1929
   71CHL1   C22 6416   1.858   4.130   4.184  0.7289  0.1575  0.3744
   71CHL1  H22A 6417   1.871   4.240   4.189  1.4597  0.0076  3.9082
   71CHL1  H22B 6418   1.753   4.111   4.156  0.4238  3.6106 -1.3620
   71CHL1   C23 6419   1.880   4.092   4.334  0.3597  0.0339  0.0732
   71CHL1  H23A 6420   1.843   3.989   4.351 -1.8957  0.6469 -0.7801
   71CHL1  H23B 6421   1.987   4.085   4.362  0.5940  0.8341 -0.5735
   71CHL1   C24 6422   1.811   4.185   4.432 -0.3735  0.0507  0.6900
   71CHL1  H24A 6423   1.852   4.287   4.417 -1.3645  0.9587  3.5289
   71CHL1  H24B 6424   1.703   4.186   4.407 -0.1795 -2.9789 -0.7441
   71CHL1   C25 6425   1.823   4.169   4.585 -0.5585 -0.8395  0.0765
   71CHL1   H25 6426   1.786   4.263   4.632 -1.2706  1.0753 -3.8849
   71CHL1   C26 6427   1.751   4.042   4.627  0.3368 -0.1287 -0.2975
   71CHL1  H26A 6428   1.803   3.951   4.592 -0.5285 -0.9314  0.4366
   71CHL1  H26B 6429   1.750   4.034   4.738 -0.8792  1.6709 -0.1285
   71CHL1  H26C 6430   1.649   4.047   4.583 -0.1387 -0.6558  0.6945
   71CHL1   C27 6431   1.971   4.154   4.628  0.4381 -0.2531  0.1741
   71CHL1  H27A 6432   2.005   4.057   4.586  2.5573  1.2983 -1.9141
   71CHL1  H27B 6433   2.036   4.233   4.585  0.7151  0.0656  1.1511
   71CHL1  H27C 6434   1.979   4.153   4.739  1.5829  3.0508  0.2334
   72CHL1    C3 6435   0.303   1.147   3.320  0.3952  0.2021 -0.8454
   72CHL1    H3 6436   0.204   1.118   3.361  0.8114 -1.1811 -0.7720
   72CHL1    O3 6437   0.287   1.173   3.184  0.1653  0.0869 -0.0276
   72CHL1   H3' 6438   0.372   1.202   3.150  0.5983 -0.5011  0.5382
   72CHL1    C4 6439   0.348   1.271   3.397 -0.5281  0.0069 -1.0173
   72CHL1   H4A 6440   0.445   1.296   3.351 -0.1702 -2.0940 -1.5376
   72CHL1   H4B 6441   0.278   1.349   3.361  0.2218  0.9245 -0.5209
   72CHL1    C5 6442   0.353   1.239   3.550  0.2133  0.5714 -0.0101
   72CHL1    C6 6443   0.259   1.287   3.640  0.2710 -0.3638  0.4301
   72CHL1    H6 6444   0.185   1.358   3.599  2.2702  1.1547 -0.7543
   72CHL1    C7 6445   0.259   1.253   3.787 -0.0760 -0.0354  0.4422
   72CHL1   H7A 6446   0.233   1.338   3.853 -1.2570 -1.0872  1.4044
   72CHL1   H7B 6447   0.177   1.179   3.801  1.4395 -1.8301  0.2962
   72CHL1    C8 6448   0.388   1.181   3.832  0.0273 -0.5150  0.0293
   72CHL1    H8 6449   0.468   1.257   3.844  0.6269 -1.2141  0.5621
   72CHL1   C14 6450   0.376   1.123   3.973 -0.8887  0.4102 -0.1376
   72CHL1   H14 6451   0.314   1.032   3.955 -0.3298 -0.2590  1.1010
   72CHL1   C15 6452   0.310   1.199   4.084  0.3564 -0.6220 -0.7402
   72CHL1  H15A 6453   0.357   1.295   4.112  1.9528 -0.7412 -2.7499
   72CHL1  H15B 6454   0.202   1.220   4.068  0.3032  2.3393  2.5213
   72CHL1   C16 6455   0.330   1.115   4.200  0.0645 -0.3300 -1.1713
   72CHL1  H16A 6456   0.339   1.171   4.296  1.2182  0.5836 -1.8018
   72CHL1  H16B 6457   0.239   1.052   4.202  0.4416 -0.9473 -2.4961
   72CHL1   C17 6458   0.451   1.021   4.166 -0.1949 -0.8747  0.4376
   72CHL1   H17 6459   0.405   0.920   4.156 -0.5575 -0.8147  1.3519
   72CHL1   C13 6460   0.503   1.075   4.030 -0.6621 -0.1428  0.1606
   72CHL1   C18 6461   0.606   1.191   4.049 -0.2207 -0.1657 -0.1812
   72CHL1  H18A 6462   0.648   1.244   3.961  0.2682 -0.2263  0.0115
   72CHL1  H18B 6463   0.567   1.273   4.113 -1.0065 -0.7672  0.1361
   72CHL1  H18C 6464   0.701   1.166   4.100  0.0525 -0.2202 -0.7162
   72CHL1   C12 6465   0.559   0.961   3.942 -0.5996  0.0957  0.4910
   72CHL1  H12A 6466   0.660   0.953   3.987  0.4857 -1.5886 -2.0035
   72CHL1  H12B 6467   0.499   0.867   3.950  0.1575 -0.2743  2.2590
   72CHL1   C11 6468   0.568   1.009   3.795  0.6015 -0.2195  0.0612
   72CHL1  H11A 6469   0.653   1.081   3.791  0.6341 -0.2821 -0.4495
   72CHL1  H11B 6470   0.600   0.929   3.725  1.0326 -0.5573  0.6397
   72CHL1    C9 6471   0.438   1.077   3.735 -0.3099 -0.6328  0.5392
   72CHL1    H9 6472   0.364   0.993   3.733  2.5178 -3.2777  0.1478
   72CHL1   C10 6473   0.460   1.135   3.588 -0.4082  0.4735 -0.2725
   72CHL1   C19 6474   0.603   1.191   3.571  0.6718 -0.2227  0.2890
   72CHL1  H19A 6475   0.619   1.271   3.647  2.4299 -0.2055 -0.0747
   72CHL1  H19B 6476   0.673   1.105   3.578 -0.0188 -0.7534  0.8131
   72CHL1  H19C 6477   0.613   1.236   3.470 -0.9488  0.6334  0.4685
   72CHL1    C1 6478   0.432   1.013   3.497  0.4712 -0.1849  0.1961
   72CHL1   H1A 6479   0.522   0.949   3.510  0.5096  0.2690  2.5699
   72CHL1   H1B 6480   0.347   0.954   3.535  0.6182  0.1650  1.0837
   72CHL1    C2 6481   0.410   1.038   3.345  0.0514 -0.8902  0.0846
   72CHL1   H2A 6482   0.376   0.945   3.295  0.3045 -1.2239  0.5179
   72CHL1   H2B 6483   0.511   1.070   3.311  0.1019  0.9018  1.7504
   72CHL1   C20 6484   0.546   1.004   4.282 -0.9910  0.7121 -0.2963
   72CHL1   H20 6485   0.582   1.106   4.309 -1.1705  1.5155 -2.8233
   72CHL1   C21 6486   0.662   0.916   4.242 -0.3854 -0.1567  0.6368
   72CHL1  H21A 6487   0.631   0.818   4.199 -0.7033 -0.9471  2.5295
   72CHL1  H21B 6488   0.724   0.890   4.331 -0.2058  1.0728  0.8868
   72CHL1  H21C 6489   0.729   0.969   4.171  0.0883 -1.2720  0.2141
   72CHL1   C22 6490   0.486   0.956   4.416  1.1176 -0.3348 -0.2054
   72CHL1  H22A 6491   0.384   0.998   4.425  1.6307  0.6398  1.4118
   72CHL1  H22B 6492   0.475   0.845   4.422  0.2755 -0.1954  2.2077
   72CHL1   C23 6493   0.567   1.007   4.534 -0.7491  0.1265  0.0693
   72CHL1  H23A 6494   0.665   0.956   4.524 -0.6379 -0.1145  1.9764
   72CHL1  H23B 6495   0.574   1.118   4.524 -3.8246  0.6881  2.5586
   72CHL1   C24 6496   0.516   0.965   4.666 -0.1536 -0.7323 -0.4283
   72CHL1  H24A 6497   0.406   0.978   4.677  0.1686  0.4576  2.1828
   72CHL1  H24B 6498   0.549   0.861   4.687  2.1935 -0.1161 -0.8102
   72CHL1   C25 6499   0.585   1.038   4.778 -0.2137 -0.8099 -0.6947
   72CHL1   H25 6500   0.693   1.037   4.752 -0.6120  0.8514 -2.7255
   72CHL1   C26 6501   0.545   1.188   4.792  0.2761  0.0807 -0.2719
   72CHL1  H26A 6502   0.437   1.199   4.816  0.2723 -0.3514 -0.0816
   72CHL1  H26B 6503   0.611   1.239   4.865  0.7587 -1.8114  0.6887
   72CHL1  H26C 6504   0.557   1.238   4.693 -0.6641  0.3093 -0.2882
   72CHL1   C27 6505   0.561   0.961   4.911 -0.1112  0.1778 -0.4099
   72CHL1  H27A 6506   0.601   1.023   4.994 -0.7063 -1.0591  0.8582
   72CHL1  H27B 6507   0.460   0.925   4.939 -0.3031  0.7544 -0.3451
   72CHL1  H27C 6508   0.629   0.872   4.909 -1.1284 -0.6434  0.3302
   73CHL1    C3 6509   3.649   3.892   3.007  0.8216  0.8176 -0.0823
   73CHL1    H3 6510   3.745   3.945   2.995  1.8990 -1.3117 -1.6548
   73CHL1    O3 6511   3.612   3.854   2.870 -0.4546 -0.0754 -0.3522
   73CHL1   H3' 6512   3.517   3.846   2.858 -0.0778 -1.7853 -3.1610
   73CHL1    C4 6513   3.671   3.764   3.091 -0.4020 -0.1861  0.2203
   73CHL1   H4A 6514   3.572   3.714   3.092 -0.8264  0.4288 -2.7892
   73CHL1   H4B 6515   3.739   3.703   3.027 -2.0651 -1.0671 -0.7843
   73CHL1    C5 6516   3.718   3.805   3.227  0.3996  0.0258  0.0071
   73CHL1    C6 6517   3.840   3.767   3.276  0.3780  0.5902 -0.2235
   73CHL1    H6 6518   3.900   3.692   3.222 -0.4451  1.1716 -2.0306
   73CHL1    C7 6519   3.896   3.811   3.409 -0.1788 -0.1382  0.4260
   73CHL1   H7A 6520   3.972   3.748   3.459  0.4816  0.9408  0.8139
   73CHL1   H7B 6521   3.962   3.896   3.381  1.0220 -0.8346  1.0799
   73CHL1    C8 6522   3.778   3.856   3.502  0.6174 -0.3648  0.3772
   73CHL1    H8 6523   3.716   3.764   3.513 -1.5495  0.7124 -1.7019
   73CHL1   C14 6524   3.829   3.907   3.636  0.0038  0.2639 -1.0613
   73CHL1   H14 6525   3.898   3.991   3.614 -1.3919  1.5563 -0.6542
   73CHL1   C15 6526   3.914   3.803   3.720 -0.0207  0.4017  0.1683
   73CHL1  H15A 6527   3.866   3.704   3.736 -0.3782  0.2538 -1.6488
   73CHL1  H15B 6528   4.015   3.788   3.675 -0.4594 -2.5087 -0.0278
   73CHL1   C16 6529   3.922   3.878   3.856  0.2111 -0.0787 -0.1356
   73CHL1  H16A 6530   3.909   3.807   3.939 -1.6128 -0.1723 -0.4591
   73CHL1  H16B 6531   4.023   3.926   3.859 -0.1368  0.6285  1.2127
   73CHL1   C17 6532   3.824   4.006   3.855 -0.0965 -0.3833 -0.2160
   73CHL1   H17 6533   3.884   4.096   3.834  0.2668 -0.5058  0.2684
   73CHL1   C13 6534   3.731   3.979   3.737  0.4940  0.1996 -0.0545
   73CHL1   C18 6535   3.628   3.874   3.773  0.2152 -0.1097  1.0071
   73CHL1  H18A 6536   3.546   3.924   3.827  1.1133  0.8670  1.5046
   73CHL1  H18B 6537   3.578   3.827   3.686  0.2564  0.6539  0.5665
   73CHL1  H18C 6538   3.668   3.796   3.842  0.0322 -1.1276 -0.0082
   73CHL1   C12 6539   3.668   4.097   3.659 -0.2759 -1.0726  0.1767
   73CHL1  H12A 6540   3.588   4.141   3.723  0.4958 -2.7565  2.4614
   73CHL1  H12B 6541   3.750   4.165   3.627  0.2256 -1.2949  0.9543
   73CHL1   C11 6542   3.603   4.047   3.533  0.0220 -0.0340  0.3662
   73CHL1  H11A 6543   3.511   3.992   3.561  0.5471 -1.2199 -0.1440
   73CHL1  H11B 6544   3.568   4.134   3.473  0.6687  0.2226  0.3524
   73CHL1    C9 6545   3.697   3.963   3.438  0.2971 -0.5361  0.1535
   73CHL1    H9 6546   3.772   4.040   3.410  1.0777 -1.3601 -0.0654
   73CHL1   C10 6547   3.630   3.909   3.308 -0.5860 -0.1403 -0.6322
   73CHL1   C19 6548   3.489   3.846   3.347 -0.1133  0.0815  0.0261
   73CHL1  H19A 6549   3.419   3.921   3.391  0.5723 -0.1235  1.5292
   73CHL1  H19B 6550   3.444   3.806   3.254 -0.2808  0.4471 -0.0541
   73CHL1  H19C 6551   3.492   3.762   3.419  0.6084  0.5699  0.5951
   73CHL1    C1 6552   3.603   4.028   3.212  0.1373 -0.2656 -0.3635
   73CHL1   H1A 6553   3.532   4.101   3.256  0.9378  2.0588 -2.6785
   73CHL1   H1B 6554   3.703   4.074   3.200  0.8537 -1.3476  1.1260
   73CHL1    C2 6555   3.554   3.986   3.072  0.6492  0.0387 -0.2769
   73CHL1   H2A 6556   3.548   4.084   3.020 -1.8223  0.4565  0.6657
   73CHL1   H2B 6557   3.450   3.946   3.078  0.8519 -0.2802  2.1205
   73CHL1   C20 6558   3.767   4.025   3.995 -0.7984  0.2897  0.1864
   73CHL1   H20 6559   3.708   3.934   4.020 -1.4999  0.8709  0.6637
   73CHL1   C21 6560   3.669   4.142   3.990 -0.4486 -0.3721  0.4086
   73CHL1  H21A 6561   3.722   4.227   3.942 -3.2663  0.4102 -1.6093
   73CHL1  H21B 6562   3.647   4.163   4.096 -2.0616  0.2358 -0.0212
   73CHL1  H21C 6563   3.576   4.122   3.933 -0.0245 -1.9774  0.2225
   73CHL1   C22 6564   3.871   4.059   4.106 -0.3077  0.1052 -0.2148
   73CHL1  H22A 6565   3.964   4.000   4.093  0.6882  1.8349 -1.4200
   73CHL1  H22B 6566   3.904   4.165   4.103  3.0101 -0.8050 -0.6212
   73CHL1   C23 6567   3.811   4.036   4.249  0.3602  0.5122 -0.0724
   73CHL1  H23A 6568   3.744   4.123   4.266  0.1114  0.5628 -1.2685
   73CHL1  H23B 6569   3.747   3.946   4.256 -1.0250  1.5277  0.6038
   73CHL1   C24 6570   3.924   4.033   4.350  0.5620  0.2187  1.1934
   73CHL1  H24A 6571   3.984   3.942   4.329  0.5407  0.7440 -1.4496
   73CHL1  H24B 6572   3.989   4.121   4.333  0.4361  0.1008  0.0482
   73CHL1   C25 6573   3.885   4.038   4.499  0.0525  0.6109  0.2122
   73CHL1   H25 6574   3.812   4.118   4.521 -1.5986 -0.9284  0.5936
   73CHL1   C26 6575   3.827   3.902   4.538  0.3484 -0.4694 -0.1261
   73CHL1  H26A 6576   3.809   3.892   4.648 -2.0628 -1.1991 -0.5313
   73CHL1  H26B 6577   3.737   3.860   4.487  0.0596 -3.1966  2.3270
   73CHL1  H26C 6578   3.905   3.823   4.536 -0.8187 -1.6822 -0.2604
   73CHL1   C27 6579   4.009   4.085   4.590 -0.0505  0.6116 -0.0612
   73CHL1  H27A 6580   4.095   4.016   4.574  0.6238  1.2385  0.7762
   73CHL1  H27B 6581   4.046   4.187   4.567  0.7164 -0.5191 -4.8216
   73CHL1  H27C 6582   3.983   4.072   4.697 -0.5801  0.9045 -0.1495
   74CHL1    C3 6583   1.037   2.315   3.234 -0.4343  0.3797  0.9984
   74CHL1    H3 6584   1.091   2.246   3.303  0.3253 -1.5900 -1.3925
   74CHL1    O3 6585   1.059   2.273   3.099  0.1437  0.1920 -0.1706
   74CHL1   H3' 6586   1.040   2.179   3.092  2.8884 -0.3998 -1.4383
   74CHL1    C4 6587   0.886   2.323   3.262  0.5916  0.5882 -0.0040
   74CHL1   H4A 6588   0.837   2.388   3.186 -0.7217  0.3700  0.6211
   74CHL1   H4B 6589   0.838   2.225   3.242 -0.1500  0.1398  3.3605
   74CHL1    C5 6590   0.862   2.373   3.405  0.4076  0.1840  0.7141
   74CHL1    C6 6591   0.795   2.299   3.494 -0.3382 -0.0488  0.8207
   74CHL1    H6 6592   0.767   2.195   3.472 -1.6129  0.4754 -0.1332
   74CHL1    C7 6593   0.760   2.337   3.625  0.3867 -0.0365 -0.1457
   74CHL1   H7A 6594   0.650   2.330   3.637  0.1985  3.1570  1.0049
   74CHL1   H7B 6595   0.801   2.261   3.694  0.0257 -1.2993 -1.2882
   74CHL1    C8 6596   0.802   2.483   3.666 -0.3916  0.2962 -0.5428
   74CHL1    H8 6597   0.724   2.551   3.624  1.4989  0.6640 -3.7312
   74CHL1   C14 6598   0.821   2.492   3.815 -0.7058  0.3849  0.0074
   74CHL1   H14 6599   0.901   2.416   3.832 -0.8602  0.4937  1.3348
   74CHL1   C15 6600   0.706   2.455   3.909 -0.5833 -0.2417 -0.5364
   74CHL1  H15A 6601   0.603   2.489   3.883 -2.0410 -3.4396  0.6476
   74CHL1  H15B 6602   0.711   2.345   3.913 -0.2640 -0.1991  2.6476
   74CHL1   C16 6603   0.743   2.523   4.044 -0.1098  0.0728 -0.1096
   74CHL1  H16A 6604   0.665   2.590   4.086 -0.7250 -0.6147 -0.1377
   74CHL1  H16B 6605   0.764   2.445   4.120  0.8630 -0.7989 -1.2499
   74CHL1   C17 6606   0.876   2.602   4.021 -0.5105  0.2101 -0.9115
   74CHL1   H17 6607   0.962   2.534   4.041 -1.9316 -0.9698  1.6375
   74CHL1   C13 6608   0.870   2.628   3.867 -0.1917  0.4396  0.3550
   74CHL1   C18 6609   0.767   2.740   3.831  0.4234  0.4463  0.0090
   74CHL1  H18A 6610   0.685   2.739   3.906  1.6210  1.6762  1.4079
   74CHL1  H18B 6611   0.828   2.831   3.851  0.5174  0.0721  1.6055
   74CHL1  H18C 6612   0.738   2.733   3.724  1.4136  0.1010 -0.2503
   74CHL1   C12 6613   1.006   2.662   3.800  0.0413  0.4673 -0.0263
   74CHL1  H12A 6614   1.040   2.765   3.823  3.6354 -1.0814  2.4660
   74CHL1  H12B 6615   1.081   2.588   3.835 -1.5332 -0.9041  0.6228
   74CHL1   C11 6616   0.997   2.655   3.644  0.3301  0.3798 -0.3129
   74CHL1  H11A 6617   0.955   2.755   3.618  0.1730  1.1840  2.6599
   74CHL1  H11B 6618   1.101   2.644   3.607  0.4290  1.4369 -0.3945
   74CHL1    C9 6619   0.936   2.526   3.595  0.7016  0.1307  0.0645
   74CHL1    H9 6620   1.002   2.446   3.637  2.2536  2.0673  1.5167
   74CHL1   C10 6621   0.929   2.512   3.442  0.5880  0.4108 -1.1430
   74CHL1   C19 6622   0.858   2.634   3.377  0.0893  0.2254 -0.4752
   74CHL1  H19A 6623   0.876   2.638   3.267 -2.4754 -3.3872 -1.1998
   74CHL1  H19B 6624   0.748   2.628   3.388 -0.0434 -0.1008 -1.8129
   74CHL1  H19C 6625   0.889   2.732   3.419  2.4226  0.1529 -1.8509
   74CHL1    C1 6626   1.074   2.510   3.391 -0.2203 -0.6279 -0.3212
   74CHL1   H1A 6627   1.114   2.613   3.394  1.2011 -1.1589 -0.2928
   74CHL1   H1B 6628   1.122   2.433   3.455  0.0345  0.2272  0.5330
   74CHL1    C2 6629   1.094   2.458   3.250 -0.1336 -0.7978  0.1215
   74CHL1   H2A 6630   1.202   2.459   3.224 -0.1906  2.1073 -0.3137
   74CHL1   H2B 6631   1.039   2.524   3.179 -0.3726  0.4134  1.3940
   74CHL1   C20 6632   0.889   2.714   4.120 -0.0745 -0.0880 -0.0741
   74CHL1   H20 6633   0.793   2.769   4.119  0.9661  1.8148  0.2638
   74CHL1   C21 6634   0.987   2.823   4.085  0.0943  0.1630 -0.2533
   74CHL1  H21A 6635   1.078   2.766   4.057 -0.4350 -0.3962 -0.8457
   74CHL1  H21B 6636   0.994   2.899   4.166 -1.9485  0.8224 -0.6510
   74CHL1  H21C 6637   0.952   2.878   3.995  0.6828 -1.7283 -1.6973
   74CHL1   C22 6638   0.914   2.680   4.272 -0.1198  0.7431 -0.2864
   74CHL1  H22A 6639   0.900   2.772   4.332  3.2188  0.7726  0.6538
   74CHL1  H22B 6640   0.825   2.621   4.304 -0.1286  0.2936 -1.1001
   74CHL1   C23 6641   1.046   2.599   4.303 -0.5062 -0.7381  0.9316
   74CHL1  H23A 6642   1.066   2.519   4.228 -1.3351 -0.8324  0.8084
   74CHL1  H23B 6643   1.128   2.672   4.284 -1.4423  0.4334  1.2652
   74CHL1   C24 6644   1.050   2.541   4.443  0.4560  1.5918  0.5668
   74CHL1  H24A 6645   1.003   2.617   4.509 -2.1438  2.3440 -1.9333
   74CHL1  H24B 6646   0.982   2.453   4.442  2.4411 -0.0158 -0.5107
   74CHL1   C25 6647   1.189   2.490   4.493 -0.3859  0.0853  0.0480
   74CHL1   H25 6648   1.261   2.575   4.496 -0.8714  0.4834  1.1705
   74CHL1   C26 6649   1.187   2.427   4.638  0.0047  0.9356 -0.2034
   74CHL1  H26A 6650   1.278   2.364   4.651 -1.2991 -0.8377  0.7324
   74CHL1  H26B 6651   1.191   2.508   4.713 -0.2480 -0.6039  1.5399
   74CHL1  H26C 6652   1.094   2.368   4.656 -0.7298  1.8920 -0.7918
   74CHL1   C27 6653   1.249   2.386   4.395  1.0399 -0.0369  0.1568
   74CHL1  H27A 6654   1.348   2.347   4.425  0.4809 -0.7854  1.0829
   74CHL1  H27B 6655   1.188   2.293   4.402  0.3721  0.4880  1.6978
   74CHL1  H27C 6656   1.239   2.412   4.287 -1.3839  0.2289  0.3941
   75CHL1    C3 6657   3.303   2.174   3.220 -0.2927 -0.3757  0.1472
   75CHL1    H3 6658   3.214   2.240   3.231  0.3313  0.6494 -0.8236
   75CHL1    O3 6659   3.320   2.149   3.084  0.0439 -0.1175 -0.5867
   75CHL1   H3' 6660   3.385   2.213   3.057  1.4078 -0.8890  0.7166
   75CHL1    C4 6661   3.433   2.233   3.278 -0.1080 -0.4476 -0.0808
   75CHL1   H4A 6662   3.520   2.168   3.257 -0.3145 -0.9904  0.7148
   75CHL1   H4B 6663   3.444   2.330   3.223 -0.5987  0.6962  1.7572
   75CHL1    C5 6664   3.414   2.262   3.425 -0.4759  0.1169  0.0219
   75CHL1    C6 6665   3.432   2.385   3.474  0.1880 -0.3408  0.6610
   75CHL1    H6 6666   3.465   2.464   3.405  0.8512 -0.1150  1.2370
   75CHL1    C7 6667   3.405   2.434   3.611  0.7223  0.1936  0.0503
   75CHL1   H7A 6668   3.480   2.502   3.655 -0.1991  0.5993  1.0441
   75CHL1   H7B 6669   3.307   2.486   3.604  1.3919  1.3377 -1.0788
   75CHL1    C8 6670   3.380   2.315   3.712 -0.1315 -0.3583 -0.5160
   75CHL1    H8 6671   3.482   2.276   3.730  0.3826  1.5100  0.8955
   75CHL1   C14 6672   3.305   2.359   3.840  0.3331 -1.3383 -0.6529
   75CHL1   H14 6673   3.204   2.385   3.803 -0.1469 -0.0000  1.4637
   75CHL1   C15 6674   3.353   2.480   3.914 -0.3172 -0.3642 -0.9593
   75CHL1  H15A 6675   3.463   2.472   3.926 -0.2584 -0.8356 -1.7892
   75CHL1  H15B 6676   3.341   2.576   3.860 -0.5479  0.4772  0.5324
   75CHL1   C16 6677   3.274   2.481   4.046 -0.2616  0.4179 -0.0856
   75CHL1  H16A 6678   3.322   2.509   4.142 -0.7791 -1.1270  0.6604
   75CHL1  H16B 6679   3.186   2.547   4.031 -0.5946  0.0220  0.1046
   75CHL1   C17 6680   3.217   2.340   4.066  0.4527  1.1350  0.6822
   75CHL1   H17 6681   3.110   2.344   4.038  0.5332 -0.9512 -0.0980
   75CHL1   C13 6682   3.281   2.259   3.944  0.3819 -0.1361 -0.3204
   75CHL1   C18 6683   3.417   2.197   3.998  0.5284 -0.3787 -0.0965
   75CHL1  H18A 6684   3.469   2.150   3.912  1.2302  0.3483 -0.0840
   75CHL1  H18B 6685   3.486   2.267   4.049 -0.3914  0.5008 -0.0346
   75CHL1  H18C 6686   3.412   2.122   4.080  1.3664  0.2184  0.5120
   75CHL1   C12 6687   3.196   2.140   3.883 -0.4090 -0.3020  0.3917
   75CHL1  H12A 6688   3.184   2.050   3.947 -0.9213  0.9820  2.1880
   75CHL1  H12B 6689   3.092   2.169   3.856  0.5349  2.0448 -1.0316
   75CHL1   C11 6690   3.258   2.091   3.746  0.3765  0.8047  0.4549
   75CHL1  H11A 6691   3.339   2.021   3.775  0.1534 -0.5117 -1.8728
   75CHL1  H11B 6692   3.177   2.032   3.698  0.3470  0.3933  0.9922
   75CHL1    C9 6693   3.295   2.207   3.646 -0.1497  0.2755 -0.3621
   75CHL1    H9 6694   3.198   2.253   3.617 -0.4354 -1.0017 -1.5398
   75CHL1   C10 6695   3.355   2.141   3.511  0.1393 -0.0887 -0.6276
   75CHL1   C19 6696   3.475   2.057   3.541 -0.0195 -0.1869  0.2993
   75CHL1  H19A 6697   3.543   2.100   3.617  0.0699 -0.1192  0.1819
   75CHL1  H19B 6698   3.443   1.956   3.572  0.7331 -0.1725  1.1442
   75CHL1  H19C 6699   3.537   2.040   3.450 -0.7122 -0.0533 -0.2120
   75CHL1    C1 6700   3.243   2.060   3.443 -0.4457 -0.8215  0.0766
   75CHL1   H1A 6701   3.241   1.966   3.503  0.6266 -1.4287 -0.8008
   75CHL1   H1B 6702   3.149   2.118   3.450  0.5780  1.2088 -1.9431
   75CHL1    C2 6703   3.268   2.038   3.288  0.7803 -0.4887 -0.5554
   75CHL1   H2A 6704   3.169   2.009   3.247 -0.8856  1.2927  1.9191
   75CHL1   H2B 6705   3.345   1.958   3.281  0.1996 -1.1283  0.1306
   75CHL1   C20 6706   3.222   2.285   4.212 -0.2904 -0.1840  0.2734
   75CHL1   H20 6707   3.327   2.265   4.243 -0.1006 -0.7973 -0.7360
   75CHL1   C21 6708   3.143   2.153   4.209 -0.5137 -0.1660 -0.2595
   75CHL1  H21A 6709   3.036   2.165   4.183 -0.7439 -1.2340  0.1349
   75CHL1  H21B 6710   3.135   2.115   4.313 -0.3932  2.9933  1.0163
   75CHL1  H21C 6711   3.196   2.081   4.143  0.9579  0.7686 -0.1402
   75CHL1   C22 6712   3.158   2.377   4.319  0.7048 -0.4343  0.3564
   75CHL1  H22A 6713   3.207   2.477   4.312 -0.6665  0.2016 -0.6268
   75CHL1  H22B 6714   3.049   2.391   4.301  0.7887 -1.4558 -1.1222
   75CHL1   C23 6715   3.151   2.313   4.461  0.3831  0.0024  1.0410
   75CHL1  H23A 6716   3.075   2.231   4.461  0.4512 -0.0733  0.1024
   75CHL1  H23B 6717   3.253   2.272   4.474  0.7639  0.5753 -0.0346
   75CHL1   C24 6718   3.128   2.420   4.568  0.1195  0.6441  0.0352
   75CHL1  H24A 6719   3.210   2.495   4.560  2.0983 -1.4298 -0.0048
   75CHL1  H24B 6720   3.034   2.480   4.561  1.3386  2.7838  0.9600
   75CHL1   C25 6721   3.135   2.367   4.715 -0.2832  0.3862 -0.7547
   75CHL1   H25 6722   3.067   2.279   4.718 -0.1926  0.3271 -0.3425
   75CHL1   C26 6723   3.275   2.319   4.758 -0.2257  0.4012  0.2737
   75CHL1  H26A 6724   3.349   2.401   4.755 -1.0300  1.2208  1.7611
   75CHL1  H26B 6725   3.281   2.281   4.862 -0.8238  1.0430  0.5439
   75CHL1  H26C 6726   3.310   2.229   4.702 -0.5795  0.4804 -0.0740
   75CHL1   C27 6727   3.077   2.463   4.817 -0.9227  0.3624 -0.5181
   75CHL1  H27A 6728   3.006   2.527   4.759  0.1552  0.1259 -2.1513
   75CHL1  H27B 6729   3.035   2.409   4.904 -2.5409  0.6284 -1.0935
   75CHL1  H27C 6730   3.161   2.525   4.853  0.6714 -1.9711 -0.0319
   76CHL1    C3 6731   0.005   2.763   3.164 -0.1522  0.8231  0.6207
   76CHL1    H3 6732   0.104   2.767   3.215  0.9948 -0.4362 -1.3788
   76CHL1    O3 6733   0.043   2.795   3.030 -0.3980  0.2072 -0.2479
   76CHL1   H3' 6734  -0.033   2.796   2.972  0.6652  0.5053 -1.7074
   76CHL1    C4 6735  -0.055   2.617   3.163 -0.2276  0.0554 -0.1425
   76CHL1   H4A 6736  -0.152   2.639   3.114 -0.4459  3.2704  1.4488
   76CHL1   H4B 6737   0.005   2.551   3.097 -1.9018 -0.6488 -1.0120
   76CHL1    C5 6738  -0.065   2.576   3.309 -0.1149 -0.8309  0.7766
   76CHL1    C6 6739  -0.010   2.459   3.347 -0.6871  0.2887  0.8952
   76CHL1    H6 6740   0.049   2.404   3.273 -1.1275  1.1553 -0.1278
   76CHL1    C7 6741  -0.025   2.405   3.484 -0.8769 -0.1388 -0.4544
   76CHL1   H7A 6742  -0.046   2.296   3.485 -2.4655  0.1046  1.4628
   76CHL1   H7B 6743   0.075   2.427   3.526 -1.6122 -0.0440  1.3739
   76CHL1    C8 6744  -0.135   2.482   3.566 -0.2328  0.3459 -0.4527
   76CHL1    H8 6745  -0.236   2.445   3.538  0.5193 -2.0289 -0.2185
   76CHL1   C14 6746  -0.110   2.453   3.714 -0.9625 -0.4133  0.2717
   76CHL1   H14 6747  -0.012   2.498   3.741 -0.8989  0.0913 -0.7582
   76CHL1   C15 6748  -0.088   2.310   3.759  0.2673 -0.5581  0.1264
   76CHL1  H15A 6749  -0.162   2.235   3.722  0.7923 -3.2759  3.9851
   76CHL1  H15B 6750   0.016   2.283   3.732  0.6879  1.4680 -0.3916
   76CHL1   C16 6751  -0.095   2.319   3.917  0.6072  0.4059  0.2994
   76CHL1  H16A 6752  -0.163   2.240   3.955  1.5615 -0.9802 -0.7238
   76CHL1  H16B 6753   0.008   2.309   3.958  0.6372 -0.1917  0.0901
   76CHL1   C17 6754  -0.147   2.466   3.946 -0.0154 -0.2097 -0.0727
   76CHL1   H17 6755  -0.052   2.520   3.965 -0.4523  0.5525 -0.0504
   76CHL1   C13 6756  -0.203   2.518   3.812 -0.2862 -0.0016  0.3671
   76CHL1   C18 6757  -0.349   2.473   3.788 -0.0460 -0.4857 -0.1630
   76CHL1  H18A 6758  -0.381   2.522   3.693  1.0145  0.2473 -0.1611
   76CHL1  H18B 6759  -0.361   2.363   3.776 -0.8297 -0.6190  1.6442
   76CHL1  H18C 6760  -0.415   2.504   3.872  1.2517 -0.8034  1.0086
   76CHL1   C12 6761  -0.183   2.666   3.789 -0.2747 -0.1636  0.5053
   76CHL1  H12A 6762  -0.245   2.725   3.860  0.7566  0.7513  0.6638
   76CHL1  H12B 6763  -0.075   2.690   3.799  0.0250 -0.3094 -1.8987
   76CHL1   C11 6764  -0.209   2.717   3.646  0.1864  0.7606  0.0880
   76CHL1  H11A 6765  -0.315   2.722   3.615 -0.0654 -1.9613  0.2628
   76CHL1  H11B 6766  -0.182   2.825   3.644 -0.8940  1.0881  1.5673
   76CHL1    C9 6767  -0.130   2.633   3.538  0.4755  0.5783  0.7031
   76CHL1    H9 6768  -0.024   2.664   3.553  0.7905  0.3587 -0.9260
   76CHL1   C10 6769  -0.155   2.670   3.394 -0.5737  0.5884 -0.6512
   76CHL1   C19 6770  -0.303   2.649   3.341 -0.6519 -0.3642  0.2019
   76CHL1  H19A 6771  -0.329   2.542   3.352 -2.2564  0.0765  1.1283
   76CHL1  H19B 6772  -0.380   2.708   3.397 -0.8826 -1.1081  0.6880
   76CHL1  H19C 6773  -0.305   2.682   3.235  0.3328 -0.6827  0.0756
   76CHL1    C1 6774  -0.131   2.826   3.370  0.0342  0.1754  0.8794
   76CHL1   H1A 6775  -0.210   2.885   3.421 -0.5505 -0.7618  1.0880
   76CHL1   H1B 6776  -0.037   2.855   3.421  0.8589  0.6357 -0.8288
   76CHL1    C2 6777  -0.101   2.858   3.218  0.2978 -0.4033 -0.4123
   76CHL1   H2A 6778  -0.071   2.964   3.200  2.3291 -0.9145 -0.2764
   76CHL1   H2B 6779  -0.197   2.854   3.162  0.4900  1.1448 -0.9093
   76CHL1   C20 6780  -0.236   2.491   4.068  0.1479  0.6526 -0.0812
   76CHL1   H20 6781  -0.293   2.585   4.052  1.4086  1.2946 -1.0199
   76CHL1   C21 6782  -0.129   2.510   4.184 -0.0408  0.9403 -0.3032
   76CHL1  H21A 6783  -0.086   2.410   4.204 -0.3899  0.6267 -1.0870
   76CHL1  H21B 6784  -0.174   2.555   4.275 -1.5932  0.5654 -0.8503
   76CHL1  H21C 6785  -0.051   2.585   4.159  0.2319  0.3019 -1.4341
   76CHL1   C22 6786  -0.344   2.386   4.105 -0.5845  0.1858 -0.1382
   76CHL1  H22A 6787  -0.402   2.362   4.014  1.0293  1.2075 -1.4794
   76CHL1  H22B 6788  -0.302   2.289   4.138 -2.5336 -0.2763  1.1707
   76CHL1   C23 6789  -0.443   2.432   4.216  0.2011 -0.1643  0.5790
   76CHL1  H23A 6790  -0.392   2.481   4.301 -0.3439  0.7555  0.3892
   76CHL1  H23B 6791  -0.511   2.500   4.160  1.2163  0.3188 -0.0896
   76CHL1   C24 6792  -0.540   2.319   4.257  0.4594 -0.2989 -0.2906
   76CHL1  H24A 6793  -0.583   2.274   4.165  1.2395  0.9038 -1.2745
   76CHL1  H24B 6794  -0.486   2.242   4.317  0.1556 -1.4705 -1.4696
   76CHL1   C25 6795  -0.663   2.364   4.338  0.0810  0.5040  0.7486
   76CHL1   H25 6796  -0.718   2.436   4.273 -0.4796  1.2955  2.0578
   76CHL1   C26 6797  -0.756   2.248   4.367 -0.1905 -0.0106  0.1733
   76CHL1  H26A 6798  -0.702   2.170   4.426 -1.0278 -0.1525  0.7725
   76CHL1  H26B 6799  -0.847   2.272   4.426 -0.8983 -1.1919 -0.4072
   76CHL1  H26C 6800  -0.788   2.195   4.275 -1.6483 -0.4306  0.8879
   76CHL1   C27 6801  -0.625   2.433   4.468  0.5558 -0.0865 -0.0813
   76CHL1  H27A 6802  -0.579   2.358   4.535 -0.2212 -0.5211 -0.0193
   76CHL1  H27B 6803  -0.546   2.509   4.453  0.7092 -0.0915  0.6705
   76CHL1  H27C 6804  -0.712   2.473   4.524  0.3375 -0.4777 -0.1345
   77SOPE     N 6805   4.528   5.581   7.180  0.2698 -0.3035 -0.0970
   77SOPE   HN1 6806   4.621   5.569   7.135  1.1367 -0.3973  1.6180
   77SOPE   HN2 6807   4.450   5.597   7.114  0.7364 -2.1644 -1.1689
   77SOPE   HN3 6808   4.542   5.648   7.259  1.3594 -1.2196  0.5250
   77SOPE   C12 6809   4.495   5.448   7.249  0.2937  0.2963 -0.5602
   77SOPE  H12A 6810   4.435   5.387   7.178 -0.2322 -0.8019  0.7876
   77SOPE  H12B 6811   4.431   5.483   7.333  0.9863 -0.4033  0.2761
   77SOPE   C11 6812   4.626   5.371   7.287  0.1243  0.0410 -0.2283
   77SOPE  H11A 6813   4.690   5.354   7.198  1.0780  0.9319  0.2785
   77SOPE  H11B 6814   4.604   5.273   7.336 -0.1978 -0.0776 -0.5991
   77SOPE     P 6815   4.831   5.426   7.441  0.1372  0.2818 -0.0903
   77SOPE   O13 6816   4.827   5.302   7.525 -0.0511  0.1062 -0.2101
   77SOPE   O14 6817   4.872   5.547   7.510 -0.3580 -0.0036 -0.3306
   77SOPE   O12 6818   4.695   5.457   7.375  0.5873  0.0906 -0.5899
   77SOPE   O11 6819   4.933   5.408   7.323  0.5599 -0.6327 -0.2137
   77SOPE    C1 6820   4.951   5.517   7.231  0.0215  0.5605  0.1506
   77SOPE    HA 6821   5.007   5.607   7.266 -0.4966  0.4515  1.3115
   77SOPE    HB 6822   4.857   5.548   7.181  0.4771 -1.8365 -2.4522
   77SOPE    C2 6823   5.042   5.469   7.113 -0.2009 -0.0665 -0.0616
   77SOPE    HS 6824   5.143   5.446   7.152  0.6075  1.1889 -1.3644
   77SOPE   O21 6825   5.049   5.573   7.018 -0.1051 -0.0695 -0.4785
   77SOPE   C21 6826   5.132   5.670   7.037  0.0587 -0.4278 -0.1886
   77SOPE   O22 6827   5.214   5.684   7.125 -0.4039  0.0503  0.0965
   77SOPE   C22 6828   5.112   5.780   6.930 -0.3955  0.0928  0.3563
   77SOPE   H2R 6829   5.215   5.817   6.908  0.2088 -1.4585  0.4407
   77SOPE   H2S 6830   5.052   5.862   6.976 -0.4788  0.8771 -1.0834
   77SOPE    C3 6831   4.994   5.343   7.044 -0.5629  0.9957 -0.0717
   77SOPE    HX 6832   4.891   5.355   7.005 -0.5095 -1.6642 -1.2664
   77SOPE    HY 6833   4.987   5.260   7.119 -0.6575  1.8325  0.8654
   77SOPE   O31 6834   5.092   5.299   6.946  0.1937  0.1213  0.0228
   77SOPE   C31 6835   5.069   5.345   6.816 -0.3087 -0.1230 -0.3541
   77SOPE   O32 6836   4.984   5.418   6.783  0.6750  0.3080  0.5704
   77SOPE   C32 6837   5.189   5.312   6.732 -0.3494  0.1511 -1.0541
   77SOPE   H2X 6838   5.185   5.202   6.712 -0.2272 -0.6795  2.6744
   77SOPE   H2Y 6839   5.279   5.333   6.793 -0.2423 -1.1829 -0.7150
   77SOPE   C23 6840   5.050   5.745   6.790 -0.6970 -0.4461 -0.2022
   77SOPE   H3R 6841   4.954   5.693   6.808 -2.0772  2.3099  0.8391
   77SOPE   H3S 6842   5.126   5.688   6.732 -0.2341  0.3602 -0.4111
   77SOPE   C24 6843   5.010   5.883   6.723 -0.9328 -0.0754 -0.6255
   77SOPE   H4R 6844   4.948   5.943   6.792  0.9609  1.0896  0.1451
   77SOPE   H4S 6845   5.107   5.938   6.718 -1.0406  0.2679  0.7788
   77SOPE   C25 6846   4.936   5.872   6.587 -0.2912  0.2169  0.6794
   77SOPE   H5R 6847   4.840   5.821   6.609 -0.7673  1.0333  0.5639
   77SOPE   H5S 6848   4.903   5.975   6.561 -5.0775 -1.2133  0.0379
   77SOPE   C26 6849   5.019   5.797   6.481 -0.5593  0.2289  0.7722
   77SOPE   H6R 6850   5.124   5.833   6.474 -0.7122  0.7206  1.0124
   77SOPE   H6S 6851   5.023   5.689   6.510 -0.4838 -0.5801 -1.9774
   77SOPE   C27 6852   4.965   5.808   6.334  0.5137  0.0327 -0.3361
   77SOPE   H7R 6853   4.859   5.774   6.333  1.0625 -1.7924 -0.3661
   77SOPE   H7S 6854   4.952   5.915   6.309 -1.3440 -0.6492 -2.6392
   77SOPE   C28 6855   5.051   5.743   6.227 -0.8055  0.2157 -0.4733
   77SOPE   H8R 6856   5.152   5.790   6.232  0.8570 -3.1831  1.2203
   77SOPE   H8S 6857   5.075   5.637   6.249  1.8983  0.8078 -0.2558
   77SOPE   C29 6858   4.985   5.726   6.091  0.1191  0.3300  0.4666
   77SOPE   H91 6859   4.903   5.652   6.089  0.5736 -0.1841  0.7183
   77SOPE  C210 6860   5.003   5.803   5.981 -0.3730 -0.0120 -0.3151
   77SOPE  H101 6861   4.944   5.773   5.893 -2.7041  0.1437  1.0992
   77SOPE  C211 6862   5.106   5.914   5.977  0.4451  0.6394  0.0242
   77SOPE  H11R 6863   5.197   5.881   5.923 -1.5771 -1.8015 -2.1586
   77SOPE  H11S 6864   5.141   5.946   6.077  0.8375 -4.3902  1.7555
   77SOPE  C212 6865   5.033   6.037   5.916 -0.1723  0.2299  0.8588
   77SOPE  H12R 6866   5.107   6.119   5.903 -0.8844  0.4904 -2.9638
   77SOPE  H12S 6867   4.943   6.065   5.974 -0.7869  1.2027 -0.4997
   77SOPE  C213 6868   4.994   6.018   5.767  0.5831  0.1130 -0.0651
   77SOPE  H13R 6869   4.907   5.949   5.763 -1.7412  2.8906 -0.6389
   77SOPE  H13S 6870   5.073   5.972   5.704 -0.2879  0.0145 -1.1350
   77SOPE  C214 6871   4.960   6.146   5.693  0.0027 -0.1481 -0.8953
   77SOPE  H14R 6872   5.040   6.223   5.698 -0.0807 -0.0862 -0.3693
   77SOPE  H14S 6873   4.878   6.199   5.747  2.1092  1.6952  0.6929
   77SOPE  C215 6874   4.936   6.121   5.539  0.5985  0.1114  0.2808
   77SOPE  H15R 6875   4.828   6.109   5.517  0.2354 -0.5999  2.2102
   77SOPE  H15S 6876   4.999   6.037   5.502  1.5143  1.0358 -0.3001
   77SOPE  C216 6877   4.976   6.245   5.457  0.7467 -0.3244 -0.3114
   77SOPE  H16R 6878   5.078   6.279   5.488  0.5249  0.5608 -0.5291
   77SOPE  H16S 6879   4.905   6.329   5.470  0.7114 -0.7287  3.0320
   77SOPE  C217 6880   4.968   6.206   5.313  0.0374  0.2076  0.2009
   77SOPE  H17R 6881   4.881   6.246   5.257  1.4837  1.6887 -1.0741
   77SOPE  H17S 6882   4.949   6.097   5.301 -0.0386  0.1754  0.5833
   77SOPE  C218 6883   5.091   6.256   5.229 -0.3330 -0.0327  0.7628
   77SOPE  H18R 6884   5.090   6.214   5.126 -0.0971  1.3800  0.1645
   77SOPE  H18S 6885   5.181   6.221   5.285 -0.0906 -0.4710  0.1187
   77SOPE  H18T 6886   5.108   6.366   5.224  0.7247 -0.2403 -1.5431
   77SOPE   C33 6887   5.193   5.400   6.601 -0.5969  0.7655  0.2792
   77SOPE   H3X 6888   5.191   5.507   6.631 -0.2079  0.3335  1.9636
   77SOPE   H3Y 6889   5.109   5.372   6.535  0.0405  1.1844 -0.7316
   77SOPE   C34 6890   5.328   5.387   6.533  0.4311 -0.5935  0.5428
   77SOPE   H4X 6891   5.360   5.282   6.514  0.2646 -0.7207  0.9555
   77SOPE   H4Y 6892   5.408   5.444   6.584  0.1790  1.2754 -1.0418
   77SOPE   C35 6893   5.336   5.455   6.391 -0.2110 -0.1840  0.3698
   77SOPE   H5X 6894   5.443   5.444   6.361  0.7101 -1.1152  3.6468
   77SOPE   H5Y 6895   5.299   5.559   6.397  1.4712  0.5481 -1.0111
   77SOPE   C36 6896   5.242   5.396   6.282 -0.3270 -0.2584  0.3182
   77SOPE   H6X 6897   5.140   5.419   6.322 -1.1527 -0.0880 -1.7248
   77SOPE   H6Y 6898   5.249   5.286   6.274 -0.8729 -0.2349 -0.6877
   77SOPE   C37 6899   5.259   5.448   6.136 -0.9076  0.3112 -0.2009
   77SOPE   H7X 6900   5.360   5.410   6.108 -1.0289  0.2434 -0.5541
   77SOPE   H7Y 6901   5.267   5.558   6.123 -0.2808  0.1322 -1.5264
   77SOPE   C38 6902   5.156   5.397   6.039  0.5884  0.5490  0.3144
   77SOPE   H8X 6903   5.060   5.452   6.051  0.4461  0.5529 -0.7399
   77SOPE   H8Y 6904   5.128   5.292   6.062 -2.6265  1.3368  0.5943
   77SOPE   C39 6905   5.210   5.398   5.894 -1.0366 -0.1810 -0.6097
   77SOPE   H9X 6906   5.317   5.367   5.897 -1.1858 -1.0293  4.4785
   77SOPE   H9Y 6907   5.210   5.505   5.864 -1.0676 -0.2634 -0.9143
   77SOPE  C310 6908   5.126   5.305   5.800  0.0797 -0.1150 -0.1734
   77SOPE  H10X 6909   5.023   5.345   5.789 -0.4463 -1.9703 -3.2886
   77SOPE  H10Y 6910   5.123   5.210   5.857  1.9196  1.1807  2.3031
   77SOPE  C311 6911   5.190   5.287   5.668  0.2903  0.0486 -0.1053
   77SOPE  H11X 6912   5.291   5.240   5.672  0.2051 -0.0474  2.0032
   77SOPE  H11Y 6913   5.203   5.389   5.626 -2.0050 -0.0262 -1.1378
   77SOPE  C312 6914   5.112   5.180   5.580 -0.9324 -0.5558  0.3332
   77SOPE  H12X 6915   5.075   5.100   5.647 -1.1061 -1.0227 -0.3082
   77SOPE  H12Y 6916   5.188   5.139   5.510  1.7095  1.3497  1.9352
   77SOPE  C313 6917   4.997   5.241   5.496 -0.2410 -0.0334 -0.3294
   77SOPE  H13X 6918   4.940   5.318   5.553  1.7809  1.0341  0.3550
   77SOPE  H13Y 6919   4.912   5.174   5.471 -4.2160  3.8919  1.2515
   77SOPE  C314 6920   5.057   5.317   5.373 -0.4333 -0.0911 -0.1490
   77SOPE  H14X 6921   5.097   5.245   5.298 -1.3888 -0.5534 -0.2308
   77SOPE  H14Y 6922   5.140   5.381   5.409  0.2844 -0.1181 -1.6591
   77SOPE  C315 6923   4.973   5.423   5.309 -0.8484 -0.4205 -0.1978
   77SOPE  H15X 6924   4.869   5.388   5.288 -1.3007  1.2034 -0.7919
   77SOPE  H15Y 6925   5.016   5.451   5.211  0.3427  0.9378  0.6793
   77SOPE  C316 6926   4.962   5.560   5.383 -0.1565  0.8025 -0.5568
   77SOPE  H16X 6927   5.060   5.611   5.386  0.9856 -1.3275  1.0938
   77SOPE  H16Y 6928   4.929   5.527   5.485  3.0587 -0.0944  0.2865
   77SOPE  C317 6929   4.864   5.649   5.312 -0.0153 -0.0406  0.6839
   77SOPE  H17X 6930   4.765   5.602   5.293  0.0361  0.2885 -0.4595
   77SOPE  H17Y 6931   4.903   5.648   5.208 -0.4588  1.3570  0.4697
   77SOPE  C318 6932   4.854   5.785   5.371  0.5528  0.3143 -0.0996
   77SOPE  H18X 6933   4.796   5.846   5.299 -2.5151 -0.8582  1.2088
   77SOPE  H18Y 6934   4.958   5.821   5.387  0.2656  1.1011  0.0185
   77SOPE  H18Z 6935   4.805   5.787   5.471 -0.5441  1.0991 -0.6282
   78SOPE     N 6936   5.057   4.766   7.263 -0.2225  0.2954  0.3562
   78SOPE   HN1 6937   5.048   4.867   7.239  1.4385  1.0402  2.4606
   78SOPE   HN2 6938   4.996   4.753   7.347 -0.3092  1.0368  0.4203
   78SOPE   HN3 6939   5.154   4.760   7.299  0.6219  1.0010 -1.6586
   78SOPE   C12 6940   5.022   4.664   7.161 -0.5073 -0.2633  0.3860
   78SOPE  H12A 6941   4.989   4.574   7.216  0.4291 -0.1211  1.2073
   78SOPE  H12B 6942   5.108   4.639   7.095 -1.4396  1.8398 -1.7950
   78SOPE   C11 6943   4.915   4.730   7.065  0.5396  0.1124 -0.3235
   78SOPE  H11A 6944   4.916   4.660   6.978  3.1973  1.5087 -1.5122
   78SOPE  H11B 6945   4.939   4.825   7.014 -1.2067  0.8700  0.1664
   78SOPE     P 6946   4.674   4.619   7.103  0.1588  0.0654  0.4222
   78SOPE   O13 6947   4.551   4.640   7.182 -0.3826 -0.1791  0.3477
   78SOPE   O14 6948   4.736   4.485   7.095 -0.2254 -0.1725  0.4568
   78SOPE   O12 6949   4.781   4.733   7.122 -0.0915  0.0325 -0.6861
   78SOPE   O11 6950   4.635   4.651   6.953  0.3696 -0.7132  0.2447
   78SOPE    C1 6951   4.574   4.778   6.927  0.6454  0.4955 -0.5171
   78SOPE    HA 6952   4.642   4.861   6.954  2.1097  0.0335 -2.4901
   78SOPE    HB 6953   4.483   4.798   6.988  1.0197  0.0290  0.2000
   78SOPE    C2 6954   4.550   4.792   6.776 -0.5075  0.5223  0.1478
   78SOPE    HS 6955   4.506   4.892   6.757 -0.9972  0.0887 -1.0829
   78SOPE   O21 6956   4.467   4.682   6.727 -0.3231 -0.0356  0.0243
   78SOPE   C21 6957   4.341   4.683   6.758  0.4101  0.3137  0.2633
   78SOPE   O22 6958   4.271   4.780   6.778 -0.4602  0.5626 -0.3957
   78SOPE   C22 6959   4.296   4.535   6.765  0.1703  0.2599  0.8272
   78SOPE   H2R 6960   4.227   4.522   6.850 -1.1699 -0.6908 -0.3631
   78SOPE   H2S 6961   4.377   4.459   6.766 -0.6950 -0.7167 -0.5634
   78SOPE    C3 6962   4.686   4.805   6.695 -0.5883  0.1116 -0.3636
   78SOPE    HX 6963   4.770   4.736   6.719  0.4628  0.6660 -2.2544
   78SOPE    HY 6964   4.729   4.900   6.733  1.6717 -0.7033 -0.7164
   78SOPE   O31 6965   4.655   4.814   6.556  0.0333 -0.6223 -0.3122
   78SOPE   C31 6966   4.657   4.696   6.494 -0.1742 -0.1937  0.0398
   78SOPE   O32 6967   4.711   4.594   6.527 -0.1417 -0.4629 -0.1074
   78SOPE   C32 6968   4.607   4.720   6.354 -0.4099 -0.3062 -0.0569
   78SOPE   H2X 6969   4.674   4.796   6.308 -1.7006 -0.3193 -2.0391
   78SOPE   H2Y 6970   4.502   4.756   6.363 -0.5013 -0.6249  0.2063
   78SOPE   C23 6971   4.216   4.502   6.636 -0.4666  0.0305 -0.0898
   78SOPE   H3R 6972   4.153   4.588   6.606 -0.3228  0.3996  0.6448
   78SOPE   H3S 6973   4.150   4.415   6.656 -1.1077  0.4795 -0.2409
   78SOPE   C24 6974   4.308   4.473   6.523  0.5525  0.0250 -0.5655
   78SOPE   H4R 6975   4.373   4.557   6.491  1.7732 -0.9623 -0.7825
   78SOPE   H4S 6976   4.378   4.393   6.558 -1.3581 -1.5182 -0.0759
   78SOPE   C25 6977   4.237   4.421   6.401 -0.6604  0.2391  0.0606
   78SOPE   H5R 6978   4.317   4.389   6.330  1.3558 -1.0230  2.7201
   78SOPE   H5S 6979   4.172   4.337   6.431 -2.1018  1.9380  1.9310
   78SOPE   C26 6980   4.141   4.527   6.342 -0.3845 -0.3457 -0.5258
   78SOPE   H6R 6981   4.069   4.570   6.415 -0.3397  2.2159 -1.8734
   78SOPE   H6S 6982   4.198   4.615   6.305  1.0414  0.5062  3.2049
   78SOPE   C27 6983   4.081   4.461   6.218  0.4907  0.2753  0.0578
   78SOPE   H7R 6984   4.154   4.440   6.136 -0.4856  1.3297 -1.1352
   78SOPE   H7S 6985   4.035   4.367   6.254  1.7383 -0.6958 -0.8166
   78SOPE   C28 6986   3.985   4.560   6.149 -0.2779  0.0164  0.0146
   78SOPE   H8R 6987   3.922   4.614   6.223  0.4128 -1.0265  1.4223
   78SOPE   H8S 6988   4.031   4.647   6.098 -1.3915  2.0262  2.2591
   78SOPE   C29 6989   3.898   4.482   6.047  0.1165 -0.6984  1.2618
   78SOPE   H91 6990   3.815   4.428   6.095 -1.6194  1.9985  1.4817
   78SOPE  C210 6991   3.926   4.454   5.921 -0.5816 -0.1139  0.3804
   78SOPE  H101 6992   3.861   4.401   5.849  1.4128  1.3619 -2.7284
   78SOPE  C211 6993   4.045   4.504   5.841  0.6701  0.0138 -0.4171
   78SOPE  H11R 6994   4.090   4.425   5.777  0.4973 -3.6525  3.4922
   78SOPE  H11S 6995   4.122   4.537   5.914 -1.1540  0.6047  1.3509
   78SOPE  C212 6996   4.005   4.621   5.753  0.4844 -0.5962 -0.2965
   78SOPE  H12R 6997   4.108   4.653   5.726  1.4963 -0.9221  2.7744
   78SOPE  H12S 6998   3.949   4.702   5.803  1.3918 -0.5597  0.7050
   78SOPE  C213 6999   3.946   4.578   5.620  0.3057  0.6117  0.2617
   78SOPE  H13R 7000   3.847   4.532   5.639  1.0299 -0.9240  0.4841
   78SOPE  H13S 7001   3.999   4.492   5.574 -1.2897 -0.1293 -0.2790
   78SOPE  C214 7002   3.930   4.691   5.517  0.0355 -0.0508 -0.6299
   78SOPE  H14R 7003   4.030   4.712   5.474 -0.2285  0.8025 -0.8564
   78SOPE  H14S 7004   3.885   4.778   5.571  2.4196 -0.9441  3.1609
   78SOPE  C215 7005   3.836   4.641   5.403 -0.3184  0.5676  0.3942
   78SOPE  H15R 7006   3.743   4.601   5.449 -0.5536 -0.5595 -1.0077
   78SOPE  H15S 7007   3.889   4.561   5.348 -0.0716 -0.1426  1.6238
   78SOPE  C216 7008   3.793   4.750   5.304 -0.3484 -0.0481 -0.4623
   78SOPE  H16R 7009   3.716   4.817   5.347 -0.8671 -0.2020 -1.1447
   78SOPE  H16S 7010   3.746   4.691   5.222  0.1235 -0.1382 -0.6739
   78SOPE  C217 7011   3.911   4.832   5.239 -0.5700  0.0423  0.7604
   78SOPE  H17R 7012   3.890   4.849   5.132  2.7288  1.9781  0.2677
   78SOPE  H17S 7013   4.010   4.781   5.241 -1.2465 -1.3382  0.0189
   78SOPE  C218 7014   3.921   4.973   5.300 -0.0369  0.0470  0.4460
   78SOPE  H18R 7015   4.027   5.004   5.311  0.3371 -0.8557 -0.4177
   78SOPE  H18S 7016   3.872   4.970   5.399  0.5994 -0.7167  0.7450
   78SOPE  H18T 7017   3.873   5.044   5.229  0.3306  1.2293  1.3648
   78SOPE   C33 7018   4.617   4.589   6.264  0.1422 -0.4887  0.2032
   78SOPE   H3X 7019   4.572   4.497   6.306  0.3791 -0.2590  0.9917
   78SOPE   H3Y 7020   4.727   4.570   6.272  0.0307 -0.3816  2.7609
   78SOPE   C34 7021   4.578   4.600   6.114  0.0817 -0.4722 -0.2884
   78SOPE   H4X 7022   4.588   4.496   6.076  3.4131 -0.0146 -1.0051
   78SOPE   H4Y 7023   4.654   4.664   6.063  1.1566 -1.1777  0.3722
   78SOPE   C35 7024   4.439   4.662   6.083 -0.2395 -0.2055  0.3194
   78SOPE   H5X 7025   4.434   4.769   6.112  0.5999 -0.0296 -0.1581
   78SOPE   H5Y 7026   4.364   4.614   6.149 -1.5864  3.1718  1.4805
   78SOPE   C36 7027   4.385   4.643   5.935  0.3371 -0.1453 -0.7975
   78SOPE   H6X 7028   4.276   4.665   5.932  0.6755  1.5558 -1.8785
   78SOPE   H6Y 7029   4.400   4.540   5.897 -0.5754  0.0920 -1.8397
   78SOPE   C37 7030   4.460   4.746   5.840  0.1184  0.5529 -0.7335
   78SOPE   H7X 7031   4.549   4.700   5.792  0.8136  0.6628  0.3973
   78SOPE   H7Y 7032   4.486   4.843   5.887 -1.6564  0.5361  0.3955
   78SOPE   C38 7033   4.365   4.786   5.732  0.5072 -0.6152 -0.3637
   78SOPE   H8X 7034   4.294   4.864   5.766  0.1157 -0.1144 -2.2290
   78SOPE   H8Y 7035   4.304   4.703   5.690 -0.3824 -0.0521 -0.2102
   78SOPE   C39 7036   4.435   4.848   5.613  0.1913  0.0067  0.1193
   78SOPE   H9X 7037   4.515   4.789   5.563  1.2009 -0.1474  1.8319
   78SOPE   H9Y 7038   4.497   4.934   5.645 -3.7362  3.1343  0.1481
   78SOPE  C310 7039   4.327   4.893   5.518 -0.2742 -0.2314  0.4331
   78SOPE  H10X 7040   4.249   4.948   5.575  0.7515  1.0440  0.6605
   78SOPE  H10Y 7041   4.280   4.802   5.477  0.6688 -0.2950 -0.5448
   78SOPE  C311 7042   4.366   4.974   5.393 -0.3145 -0.2388  0.6626
   78SOPE  H11X 7043   4.416   5.067   5.428 -1.0422  0.8879 -1.1695
   78SOPE  H11Y 7044   4.274   5.003   5.337 -0.4999 -2.1172 -0.0928
   78SOPE  C312 7045   4.457   4.894   5.298 -0.8624 -0.4290 -0.0192
   78SOPE  H12X 7046   4.392   4.839   5.227 -2.7112  0.5991  0.7844
   78SOPE  H12Y 7047   4.518   4.821   5.356 -2.7081  0.0909  2.7734
   78SOPE  C313 7048   4.545   4.987   5.212 -0.4783 -0.6462 -0.4789
   78SOPE  H13X 7049   4.629   5.016   5.279 -1.2303 -0.4593  0.3949
   78SOPE  H13Y 7050   4.495   5.082   5.183 -0.5143 -1.0506 -1.8295
   78SOPE  C314 7051   4.601   4.929   5.085  0.6954  0.4657 -0.0286
   78SOPE  H14X 7052   4.530   4.965   5.007 -0.2852 -0.7951  0.2570
   78SOPE  H14Y 7053   4.621   4.820   5.087  1.8605  0.6837  0.7604
   78SOPE  C315 7054   4.736   4.994   5.055  0.6059 -0.1905 -0.6309
   78SOPE  H15X 7055   4.818   4.974   5.127  0.9884  0.4946 -0.8627
   78SOPE  H15Y 7056   4.722   5.104   5.048  0.6484 -0.1905 -0.7232
   78SOPE  C316 7057   4.811   4.939   4.927  0.4139 -0.4332 -0.1477
   78SOPE  H16X 7058   4.776   4.982   4.830 -0.1315  1.7724  0.9493
   78SOPE  H16Y 7059   4.806   4.829   4.929 -0.6361 -0.4642 -1.9904
   78SOPE  C317 7060   4.960   4.977   4.927  0.7126 -0.4367 -0.5533
   78SOPE  H17X 7061   5.004   4.961   4.826 -0.2274  3.1176 -1.6755
   78SOPE  H17Y 7062   5.015   4.908   4.995 -0.8249  0.0723  1.2882
   78SOPE  C318 7063   4.985   5.119   4.961  0.0013 -0.6159  0.0604
   78SOPE  H18X 7064   5.092   5.145   4.950  0.0895 -1.2469 -0.7005
   78SOPE  H18Y 7065   4.959   5.147   5.065  0.2181 -0.3323  0.0383
   78SOPE  H18Z 7066   4.929   5.192   4.898 -1.4708  0.3609  2.3497
   79SOPE     N 7067   6.107   3.461   7.770  0.8268  0.7211 -0.3947
   79SOPE   HN1 7068   6.117   3.562   7.792 -1.1372  0.2053  3.8645
   79SOPE   HN2 7069   6.018   3.445   7.719 -0.0788  0.6317  1.1478
   79SOPE   HN3 7070   6.092   3.426   7.867  0.8345 -0.0983 -0.6875
   79SOPE   C12 7071   6.227   3.403   7.698  0.2180  0.5077 -0.0556
   79SOPE  H12A 7072   6.234   3.294   7.720  1.2197  0.8863  1.7343
   79SOPE  H12B 7073   6.324   3.450   7.726  0.1598  0.5354  0.0998
   79SOPE   C11 7074   6.201   3.410   7.549  0.0292  0.9658  0.3847
   79SOPE  H11A 7075   6.292   3.384   7.490 -2.0332  2.3777 -3.8312
   79SOPE  H11B 7076   6.203   3.516   7.517 -0.1580  0.5293 -1.1681
   79SOPE     P 7077   6.095   3.239   7.384 -0.0839 -0.0107 -0.0166
   79SOPE   O13 7078   5.958   3.195   7.338 -0.3606  0.3149  0.0027
   79SOPE   O14 7079   6.169   3.123   7.431 -0.5182 -0.0544  0.2951
   79SOPE   O12 7080   6.078   3.345   7.504 -0.3008  0.4189  0.3014
   79SOPE   O11 7081   6.176   3.322   7.269  0.2403  0.0849  0.4396
   79SOPE    C1 7082   6.101   3.379   7.159  0.1226 -0.4523  0.8051
   79SOPE    HA 7083   6.153   3.473   7.133 -1.1202  0.2412  0.7486
   79SOPE    HB 7084   5.997   3.410   7.181 -1.2984 -3.0206 -1.5687
   79SOPE    C2 7085   6.091   3.276   7.045 -0.2548 -0.1641  0.5185
   79SOPE    HS 7086   6.038   3.188   7.088 -0.6393 -0.6930 -0.9508
   79SOPE   O21 7087   6.226   3.245   7.003 -0.2644 -0.2983 -0.2731
   79SOPE   C21 7088   6.262   3.122   6.985 -0.8399 -0.6656  0.8567
   79SOPE   O22 7089   6.191   3.023   7.009 -0.2563 -0.3077  0.6122
   79SOPE   C22 7090   6.408   3.113   6.934  0.1546 -0.3173  0.8605
   79SOPE   H2R 7091   6.430   3.006   6.918 -3.1159 -1.1836  1.5073
   79SOPE   H2S 7092   6.482   3.139   7.013  1.2031 -0.3129 -0.1030
   79SOPE    C3 7093   6.017   3.354   6.927 -0.4955  0.2036  0.4043
   79SOPE    HX 7094   6.077   3.439   6.890 -1.3788  0.1138 -1.2893
   79SOPE    HY 7095   5.918   3.382   6.968 -1.2030  0.5039 -1.4235
   79SOPE   O31 7096   5.987   3.267   6.828 -0.2384  0.5472 -0.2169
   79SOPE   C31 7097   5.867   3.218   6.794  0.4803 -0.1999  0.5133
   79SOPE   O32 7098   5.765   3.238   6.857 -0.1231  0.5108 -0.8154
   79SOPE   C32 7099   5.880   3.136   6.670 -0.0303 -0.1654 -0.3091
   79SOPE   H2X 7100   5.799   3.061   6.661 -1.5401  1.2421  0.8231
   79SOPE   H2Y 7101   5.984   3.099   6.660  1.0919  2.0836  1.8631
   79SOPE   C23 7102   6.441   3.208   6.811  0.0502  0.4038  0.4491
   79SOPE   H3R 7103   6.546   3.208   6.775 -0.7376 -0.4899 -2.0187
   79SOPE   H3S 7104   6.434   3.313   6.847  0.2284  0.5652  0.0168
   79SOPE   C24 7105   6.353   3.184   6.686  0.1847  0.2011  0.2166
   79SOPE   H4R 7106   6.407   3.101   6.636 -1.2820 -0.0092 -1.1101
   79SOPE   H4S 7107   6.251   3.150   6.713 -0.2766  1.6188  0.3773
   79SOPE   C25 7108   6.352   3.308   6.589  0.1001  0.6520 -0.1758
   79SOPE   H5R 7109   6.285   3.385   6.632 -1.8744 -1.6541  1.0998
   79SOPE   H5S 7110   6.456   3.348   6.590  0.7771 -1.0372 -0.0259
   79SOPE   C26 7111   6.322   3.274   6.446 -0.9733  0.0016 -0.2044
   79SOPE   H6R 7112   6.401   3.206   6.407  1.9974  1.1740  3.1885
   79SOPE   H6S 7113   6.229   3.215   6.453 -0.8625 -0.1792 -0.2348
   79SOPE   C27 7114   6.298   3.400   6.361 -0.6628  0.6567 -0.2516
   79SOPE   H7R 7115   6.209   3.444   6.411  0.6291  1.7300  1.2323
   79SOPE   H7S 7116   6.390   3.463   6.372  0.0015 -0.4130  0.5034
   79SOPE   C28 7117   6.261   3.384   6.218  0.2927  0.3512  0.4826
   79SOPE   H8R 7118   6.161   3.338   6.204 -0.1151  0.8647  1.6311
   79SOPE   H8S 7119   6.240   3.488   6.185 -0.4800  0.4879  1.3879
   79SOPE   C29 7120   6.370   3.319   6.139  0.2506 -0.7982 -0.5026
   79SOPE   H91 7121   6.466   3.303   6.192 -0.5726 -0.2440  1.2015
   79SOPE  C210 7122   6.365   3.291   6.010  0.1782  0.4543  0.4825
   79SOPE  H101 7123   6.440   3.225   5.963 -0.3347  1.0628 -1.2668
   79SOPE  C211 7124   6.240   3.306   5.935 -0.4728 -0.8752 -0.1043
   79SOPE  H11R 7125   6.186   3.387   5.989  3.3466  0.6635  1.7953
   79SOPE  H11S 7126   6.188   3.209   5.952  1.2317 -1.7805  0.1445
   79SOPE  C212 7127   6.257   3.352   5.790  0.6181  0.7500 -0.2383
   79SOPE  H12R 7128   6.286   3.459   5.782  0.6539  0.7367 -0.2857
   79SOPE  H12S 7129   6.157   3.330   5.746  0.8514 -0.4192 -0.2213
   79SOPE  C213 7130   6.343   3.255   5.705  0.2183  0.2249  0.0473
   79SOPE  H13R 7131   6.325   3.146   5.713  1.4559  0.0524  0.7937
   79SOPE  H13S 7132   6.449   3.275   5.734  1.0950  1.7811 -3.6344
   79SOPE  C214 7133   6.333   3.293   5.553  0.3158  0.2319 -0.2846
   79SOPE  H14R 7134   6.337   3.404   5.546  2.9355  0.3161  1.3743
   79SOPE  H14S 7135   6.237   3.253   5.516  1.1027 -1.8998 -0.1586
   79SOPE  C215 7136   6.447   3.230   5.475  0.4719  0.3198  0.4099
   79SOPE  H15R 7137   6.434   3.119   5.478 -0.5764  0.4320  0.2318
   79SOPE  H15S 7138   6.547   3.235   5.524  0.4476  2.4648  0.3109
   79SOPE  C216 7139   6.457   3.294   5.333 -0.2789  0.7756  0.6022
   79SOPE  H16R 7140   6.469   3.404   5.340 -0.0465  0.7016  1.3761
   79SOPE  H16S 7141   6.373   3.269   5.264  1.7870 -0.0473 -1.7521
   79SOPE  C217 7142   6.587   3.256   5.253 -0.3956  0.1236 -0.4093
   79SOPE  H17R 7143   6.597   3.146   5.241  2.1594  0.3867 -1.1572
   79SOPE  H17S 7144   6.673   3.282   5.317  0.5838  0.8143 -1.9685
   79SOPE  C218 7145   6.602   3.321   5.121 -0.6270  0.5018 -0.0491
   79SOPE  H18R 7146   6.516   3.296   5.056 -0.2474 -3.1786  0.6879
   79SOPE  H18S 7147   6.689   3.280   5.067 -0.5854 -0.5148  0.7625
   79SOPE  H18T 7148   6.606   3.431   5.137 -0.7565  0.0836  3.6886
   79SOPE   C33 7149   5.856   3.227   6.551  0.4920 -0.7274 -0.2291
   79SOPE   H3X 7150   5.946   3.291   6.535 -0.4410  0.4335 -1.0339
   79SOPE   H3Y 7151   5.776   3.305   6.558  2.2622  1.2421 -0.7162
   79SOPE   C34 7152   5.842   3.147   6.416 -0.5248  0.1964  0.0509
   79SOPE   H4X 7153   5.743   3.097   6.412 -0.7351  0.6924 -2.2087
   79SOPE   H4Y 7154   5.912   3.060   6.409 -0.2871  0.3382  0.5859
   79SOPE   C35 7155   5.838   3.237   6.292 -0.3430  0.7251  0.5867
   79SOPE   H5X 7156   5.928   3.301   6.284  1.0598 -1.1690  0.3478
   79SOPE   H5Y 7157   5.750   3.303   6.282 -0.7982  0.0424 -0.0841
   79SOPE   C36 7158   5.857   3.143   6.174  0.1664 -0.1875 -0.5005
   79SOPE   H6X 7159   5.790   3.058   6.199 -0.0075 -0.6152 -2.3365
   79SOPE   H6Y 7160   5.958   3.097   6.167 -0.9049 -2.4401 -2.7343
   79SOPE   C37 7161   5.820   3.211   6.044 -0.7458 -0.7170  0.7555
   79SOPE   H7X 7162   5.877   3.306   6.037 -0.0094 -1.1623  0.5590
   79SOPE   H7Y 7163   5.712   3.229   6.029 -1.0185 -0.5755  2.5878
   79SOPE   C38 7164   5.882   3.129   5.930 -0.3647  0.3746  0.2021
   79SOPE   H8X 7165   5.834   3.029   5.938  0.8780 -0.2826 -0.2182
   79SOPE   H8Y 7166   5.991   3.118   5.947 -0.9101 -1.6708  3.2074
   79SOPE   C39 7167   5.854   3.183   5.788 -0.6140  0.1183 -0.2767
   79SOPE   H9X 7168   5.877   3.291   5.774  0.1762 -0.1393 -1.0709
   79SOPE   H9Y 7169   5.745   3.182   5.770 -0.9748 -0.8914  1.7040
   79SOPE  C310 7170   5.929   3.094   5.687 -0.5240 -0.5219 -0.3068
   79SOPE  H10X 7171   5.871   2.999   5.686 -1.3921 -0.0092 -0.2861
   79SOPE  H10Y 7172   6.035   3.075   5.712 -0.5698  1.4594  1.7143
   79SOPE  C311 7173   5.921   3.149   5.541 -0.4568 -0.0929 -0.7146
   79SOPE  H11X 7174   5.935   3.259   5.541 -0.2399 -0.1084  0.4762
   79SOPE  H11Y 7175   5.820   3.130   5.496 -1.2807 -1.7802  1.6619
   79SOPE  C312 7176   6.026   3.083   5.449  0.7495  0.5303 -0.6114
   79SOPE  H12X 7177   5.994   2.978   5.433 -1.0840  0.8579  0.6698
   79SOPE  H12Y 7178   6.122   3.077   5.504  0.2155 -0.7234  0.2162
   79SOPE  C313 7179   6.051   3.153   5.317  0.3149 -0.0497  0.2468
   79SOPE  H13X 7180   6.088   3.255   5.342  3.0181 -0.8984  0.0186
   79SOPE  H13Y 7181   5.955   3.168   5.262  0.1637 -0.7325  0.3202
   79SOPE  C314 7182   6.154   3.083   5.219 -0.6952 -0.1281 -0.2469
   79SOPE  H14X 7183   6.124   2.979   5.198  0.6686 -0.3201 -1.4034
   79SOPE  H14Y 7184   6.248   3.075   5.279 -1.6230 -1.3705  1.1056
   79SOPE  C315 7185   6.184   3.155   5.085 -0.7232 -0.9388 -0.3628
   79SOPE  H15X 7186   6.249   3.244   5.101 -0.3572 -1.1343 -0.7323
   79SOPE  H15Y 7187   6.096   3.184   5.024 -0.8014 -1.3754 -0.4579
   79SOPE  C316 7188   6.264   3.069   4.990 -0.2671  0.2619  0.4228
   79SOPE  H16X 7189   6.219   2.968   4.982  0.3603  0.0487 -0.4841
   79SOPE  H16Y 7190   6.372   3.067   5.013 -0.3804  0.2246  0.9772
   79SOPE  C317 7191   6.269   3.115   4.844 -0.4808  0.3997  0.1182
   79SOPE  H17X 7192   6.363   3.084   4.795  0.1261 -0.6539  1.8865
   79SOPE  H17Y 7193   6.259   3.226   4.845  2.6747  0.7708 -0.4995
   79SOPE  C318 7194   6.155   3.059   4.749  0.2415  0.0826  0.2895
   79SOPE  H18X 7195   6.057   3.035   4.795 -0.0463  0.4574 -0.1276
   79SOPE  H18Y 7196   6.197   2.978   4.686 -1.6614 -0.9443  0.2549
   79SOPE  H18Z 7197   6.131   3.147   4.685 -0.5166  1.5400  2.4571
   80SOPE     N 7198   3.324   5.384   7.106  0.3637  0.4843 -0.4494
   80SOPE   HN1 7199   3.306   5.473   7.156  3.3757  0.5127  0.8072
   80SOPE   HN2 7200   3.308   5.385   7.003 -2.2224 -1.4008 -0.1606
   80SOPE   HN3 7201   3.256   5.313   7.139 -2.6411  2.4004 -2.0334
   80SOPE   C12 7202   3.466   5.347   7.142 -0.3818 -0.8093  0.7182
   80SOPE  H12A 7203   3.470   5.357   7.252 -1.4103  0.0284  0.7025
   80SOPE  H12B 7204   3.535   5.419   7.092  0.4056 -2.3661 -0.5377
   80SOPE   C11 7205   3.501   5.201   7.102  0.4072  0.5383 -0.2578
   80SOPE  H11A 7206   3.500   5.199   6.991 -0.8879 -0.3970 -0.2539
   80SOPE  H11B 7207   3.429   5.126   7.143  0.9823  1.1598  2.0463
   80SOPE     P 7208   3.761   5.198   7.095  0.1614  0.1307  0.0701
   80SOPE   O13 7209   3.832   5.070   7.104 -0.5578 -0.3997  0.1495
   80SOPE   O14 7210   3.830   5.314   7.165  0.5672  0.2071  0.0147
   80SOPE   O12 7211   3.627   5.167   7.170  0.4731 -0.3701  0.9299
   80SOPE   O11 7212   3.724   5.231   6.945 -0.6175  0.1890 -0.2568
   80SOPE    C1 7213   3.727   5.125   6.837  0.5570  0.3614  0.1064
   80SOPE    HA 7214   3.691   5.025   6.871  0.5378 -0.3953 -1.9911
   80SOPE    HB 7215   3.832   5.123   6.800 -0.5408 -1.8139 -3.3814
   80SOPE    C2 7216   3.646   5.168   6.716  0.1331 -0.5426  0.0467
   80SOPE    HS 7217   3.540   5.176   6.746  0.4226 -1.4515  1.4175
   80SOPE   O21 7218   3.672   5.086   6.610 -0.3326  0.7096  0.3116
   80SOPE   C21 7219   3.594   4.982   6.602  0.2647  0.3193  0.9076
   80SOPE   O22 7220   3.491   4.965   6.669 -0.3692 -0.2716 -0.2136
   80SOPE   C22 7221   3.632   4.917   6.470  0.1829 -0.0999  0.1530
   80SOPE   H2R 7222   3.605   4.811   6.492  1.5439 -0.2931  1.0035
   80SOPE   H2S 7223   3.741   4.923   6.449  0.2761  0.0075  0.6664
   80SOPE    C3 7224   3.677   5.316   6.667  0.5025 -0.0539  0.0336
   80SOPE    HX 7225   3.785   5.343   6.671  0.3767  0.6351 -0.8261
   80SOPE    HY 7226   3.629   5.379   6.745  0.1162 -0.9148  0.5047
   80SOPE   O31 7227   3.639   5.344   6.526  0.4150 -0.1028 -0.1847
   80SOPE   C31 7228   3.516   5.355   6.501 -0.3102 -0.1159 -0.6998
   80SOPE   O32 7229   3.424   5.331   6.577  0.2107 -0.2377 -0.4456
   80SOPE   C32 7230   3.506   5.409   6.361 -0.4324 -0.3286  0.0340
   80SOPE   H2X 7231   3.597   5.387   6.301 -1.4356 -1.0306 -1.2734
   80SOPE   H2Y 7232   3.484   5.518   6.371  0.1503 -0.1463 -0.5468
   80SOPE   C23 7233   3.549   4.988   6.358 -0.9204 -0.3771 -0.7920
   80SOPE   H3R 7234   3.559   5.098   6.356 -1.7355 -0.3051 -0.9068
   80SOPE   H3S 7235   3.445   4.959   6.384  0.9760 -5.0252  3.3711
   80SOPE   C24 7236   3.590   4.939   6.219  0.4185 -0.3419 -0.2769
   80SOPE   H4R 7237   3.684   4.984   6.180 -0.9860  2.8243 -0.2944
   80SOPE   H4S 7238   3.610   4.830   6.214 -0.3499 -0.4796 -0.5033
   80SOPE   C25 7239   3.474   4.975   6.125 -0.3719 -0.3471 -0.3709
   80SOPE   H5R 7240   3.384   4.922   6.163  0.4035 -2.5755 -1.4474
   80SOPE   H5S 7241   3.471   5.086   6.133  0.5187 -0.3268 -0.2137
   80SOPE   C26 7242   3.514   4.941   5.982  0.3970  0.0007 -0.3049
   80SOPE   H6R 7243   3.605   4.990   5.939 -0.3602 -0.4265 -2.5306
   80SOPE   H6S 7244   3.530   4.831   5.982 -0.3125 -0.2526  3.6919
   80SOPE   C27 7245   3.396   4.974   5.891  0.7235 -0.0292  0.5631
   80SOPE   H7R 7246   3.300   4.954   5.942  0.9616  0.7243  1.3265
   80SOPE   H7S 7247   3.385   5.082   5.865 -1.1193 -0.5699 -1.1159
   80SOPE   C28 7248   3.394   4.905   5.750 -0.4017  0.3183 -0.1553
   80SOPE   H8R 7249   3.393   4.795   5.767  1.1064  0.2908 -0.0487
   80SOPE   H8S 7250   3.313   4.941   5.683  0.7489 -0.5614 -2.1324
   80SOPE   C29 7251   3.525   4.947   5.680  1.0962  0.6084  0.1432
   80SOPE   H91 7252   3.612   4.901   5.729 -1.2675 -1.0033  3.1603
   80SOPE  C210 7253   3.537   5.056   5.605  0.0594 -0.6968  0.0387
   80SOPE  H101 7254   3.635   5.070   5.559 -0.7219  0.8056 -1.2582
   80SOPE  C211 7255   3.429   5.135   5.530  0.1958 -0.5123  0.2293
   80SOPE  H11R 7256   3.441   5.244   5.548  0.6080 -0.3800 -0.7851
   80SOPE  H11S 7257   3.328   5.119   5.572 -1.5626  1.6979 -2.8045
   80SOPE  C212 7258   3.433   5.123   5.377  1.1764  0.3233  1.0034
   80SOPE  H12R 7259   3.529   5.171   5.349  0.1973  2.7901  1.6602
   80SOPE  H12S 7260   3.350   5.176   5.326  1.6459 -0.4886 -0.6780
   80SOPE  C213 7261   3.428   4.976   5.328  0.6007  0.0261 -0.4556
   80SOPE  H13R 7262   3.326   4.933   5.335  1.9689 -3.3168  0.8856
   80SOPE  H13S 7263   3.493   4.924   5.402 -1.0031  1.9355  2.5315
   80SOPE  C214 7264   3.477   4.953   5.177 -0.1453 -0.1735 -0.8962
   80SOPE  H14R 7265   3.471   4.847   5.145 -0.2242  0.3495 -2.7645
   80SOPE  H14S 7266   3.584   4.982   5.184  0.6430 -3.2026  1.4137
   80SOPE  C215 7267   3.387   5.037   5.095 -0.6440  0.5637  0.8794
   80SOPE  H15R 7268   3.407   5.144   5.118  0.8374  0.4445  0.2406
   80SOPE  H15S 7269   3.281   5.024   5.128 -2.1741  1.9184 -2.8572
   80SOPE  C216 7270   3.416   5.011   4.943 -0.1022 -0.0294 -1.4111
   80SOPE  H16R 7271   3.345   5.054   4.869 -0.0671 -1.2347 -2.1710
   80SOPE  H16S 7272   3.431   4.902   4.930  0.7048  0.0571 -1.3028
   80SOPE  C217 7273   3.554   5.078   4.916 -0.3604 -0.3044  0.7344
   80SOPE  H17R 7274   3.632   5.023   4.974  2.0408  1.9986 -0.0999
   80SOPE  H17S 7275   3.536   5.182   4.953 -2.6048  0.1136 -1.3115
   80SOPE  C218 7276   3.587   5.099   4.770 -0.5299 -0.2650 -0.2742
   80SOPE  H18R 7277   3.521   5.167   4.712  0.4462  1.2944  0.3751
   80SOPE  H18S 7278   3.604   5.010   4.705  3.1499  1.5164 -2.0443
   80SOPE  H18T 7279   3.688   5.145   4.762 -1.0258  1.1946  1.2478
   80SOPE   C33 7280   3.385   5.353   6.279  0.5559 -0.0290  0.1914
   80SOPE   H3X 7281   3.290   5.396   6.318 -0.1371 -0.5637 -0.8482
   80SOPE   H3Y 7282   3.377   5.243   6.268  1.6759 -0.1222  0.2611
   80SOPE   C34 7283   3.395   5.408   6.132 -0.0842  0.4969  0.6260
   80SOPE   H4X 7284   3.488   5.365   6.089 -1.5416 -3.2412  0.7621
   80SOPE   H4Y 7285   3.406   5.518   6.126  1.0536  0.3337 -1.4250
   80SOPE   C35 7286   3.288   5.352   6.036  0.2045 -0.1917 -0.9024
   80SOPE   H5X 7287   3.185   5.381   6.064  0.5272 -0.6415  0.8691
   80SOPE   H5Y 7288   3.291   5.242   6.053 -1.3991 -0.1244  0.0300
   80SOPE   C36 7289   3.319   5.359   5.889 -0.3988  0.1486 -0.6953
   80SOPE   H6X 7290   3.245   5.298   5.833 -1.1422  0.0051  0.4060
   80SOPE   H6Y 7291   3.420   5.314   5.877  0.2671  1.0765  1.1662
   80SOPE   C37 7292   3.311   5.493   5.830  0.0286  0.2330 -0.8118
   80SOPE   H7X 7293   3.402   5.540   5.873 -1.3527  0.7712  1.7462
   80SOPE   H7Y 7294   3.218   5.545   5.863  1.3433  2.0260  0.2521
   80SOPE   C38 7295   3.316   5.485   5.683 -0.1632  0.1638  0.9299
   80SOPE   H8X 7296   3.395   5.414   5.652 -0.6324 -0.2965  0.7646
   80SOPE   H8Y 7297   3.335   5.589   5.650 -0.9913 -0.1713 -0.7026
   80SOPE   C39 7298   3.177   5.452   5.624 -0.1426 -0.1049 -0.4266
   80SOPE   H9X 7299   3.097   5.475   5.697  1.5455 -0.4025  1.5899
   80SOPE   H9Y 7300   3.185   5.342   5.612 -1.3521 -0.1683 -0.9056
   80SOPE  C310 7301   3.150   5.508   5.481 -0.0269 -0.1019 -1.2135
   80SOPE  H10X 7302   3.150   5.618   5.494 -2.3398 -0.2490  0.8384
   80SOPE  H10Y 7303   3.050   5.471   5.452 -1.0824 -0.1150  2.0518
   80SOPE  C311 7304   3.261   5.474   5.379  0.2755 -0.0438 -1.3023
   80SOPE  H11X 7305   3.280   5.365   5.367 -0.1573 -0.2451 -0.2568
   80SOPE  H11Y 7306   3.359   5.511   5.417  0.0777  1.0396 -1.8031
   80SOPE  C312 7307   3.224   5.538   5.246 -0.9300  0.4659  0.1738
   80SOPE  H12X 7308   3.309   5.605   5.222 -1.1694  1.0768  1.0018
   80SOPE  H12Y 7309   3.127   5.591   5.257 -1.1182  0.3184 -0.6351
   80SOPE  C313 7310   3.198   5.433   5.137 -0.1484 -0.4016 -0.6853
   80SOPE  H13X 7311   3.133   5.348   5.167 -0.4042  0.7339  2.2056
   80SOPE  H13Y 7312   3.295   5.388   5.106  0.7816  0.5387  0.7893
   80SOPE  C314 7313   3.130   5.489   5.012 -0.0907  0.0955  0.0947
   80SOPE  H14X 7314   3.162   5.589   4.977 -0.7539 -0.0170 -0.8830
   80SOPE  H14Y 7315   3.027   5.517   5.042  0.9254  0.3463  3.8206
   80SOPE  C315 7316   3.124   5.390   4.894 -0.2884  0.1169 -0.8720
   80SOPE  H15X 7317   3.062   5.303   4.924  0.5092  0.0249  0.6205
   80SOPE  H15Y 7318   3.228   5.361   4.869  0.1727  1.0928 -0.1422
   80SOPE  C316 7319   3.059   5.450   4.773 -0.4253  0.0976 -0.1402
   80SOPE  H16X 7320   3.068   5.388   4.681  0.0145 -0.2680  0.1487
   80SOPE  H16Y 7321   3.100   5.550   4.747 -1.0647  0.0448 -1.4637
   80SOPE  C317 7322   2.900   5.469   4.776 -0.1889 -0.3053 -0.1650
   80SOPE  H17X 7323   2.874   5.548   4.849  2.6718  1.6981 -1.1378
   80SOPE  H17Y 7324   2.852   5.372   4.804 -2.5939 -0.0811 -3.0621
   80SOPE  C318 7325   2.840   5.501   4.642  0.3597 -0.2699  0.3878
   80SOPE  H18X 7326   2.910   5.476   4.560  0.6449  1.2591  0.1388
   80SOPE  H18Y 7327   2.807   5.605   4.622 -0.8761 -0.8501 -0.7832
   80SOPE  H18Z 7328   2.752   5.436   4.622  0.5105 -0.2602 -0.3338
   81SOPE     N 7329   5.671   1.389   7.085 -0.0472  0.0861  0.1678
   81SOPE   HN1 7330   5.600   1.392   7.161  0.4879  1.4092  0.6423
   81SOPE   HN2 7331   5.697   1.488   7.068 -1.7433  0.2877 -1.6750
   81SOPE   HN3 7332   5.631   1.350   6.998 -0.1577  0.9166 -0.1632
   81SOPE   C12 7333   5.789   1.311   7.128  0.8589  1.2591 -0.1507
   81SOPE  H12A 7334   5.767   1.297   7.236 -0.5778  1.8440 -0.3485
   81SOPE  H12B 7335   5.881   1.373   7.119  0.5133  1.6994 -0.7326
   81SOPE   C11 7336   5.801   1.175   7.042  0.1170  0.8668 -0.6123
   81SOPE  H11A 7337   5.882   1.121   7.095  0.4931  1.0610 -0.9907
   81SOPE  H11B 7338   5.838   1.199   6.941 -0.0978  3.8942 -0.0663
   81SOPE     P 7339   5.645   0.965   6.984  0.2152  0.0643  0.0315
   81SOPE   O13 7340   5.501   0.968   6.950  0.4322  1.0466 -0.1913
   81SOPE   O14 7341   5.694   0.856   7.074 -0.3210 -0.0236 -0.1930
   81SOPE   O12 7342   5.675   1.105   7.041  0.1032 -0.4033 -0.1309
   81SOPE   O11 7343   5.734   0.962   6.856 -0.7772  0.4640  0.0782
   81SOPE    C1 7344   5.697   1.047   6.743  0.0341  0.1838 -0.8525
   81SOPE    HA 7345   5.792   1.101   6.724  0.1371  0.4344  0.2897
   81SOPE    HB 7346   5.628   1.130   6.769  1.7278  0.7888  2.1933
   81SOPE    C2 7347   5.649   0.970   6.616 -0.5583 -0.2638  0.3096
   81SOPE    HS 7348   5.710   0.878   6.602 -1.9606 -1.3379  1.0784
   81SOPE   O21 7349   5.655   1.057   6.504  0.2298  0.0892 -0.0565
   81SOPE   C21 7350   5.778   1.068   6.464 -0.3802 -0.4152  0.8479
   81SOPE   O22 7351   5.878   1.020   6.512 -0.1906 -0.4885  0.4178
   81SOPE   C22 7352   5.779   1.154   6.334  0.0477  0.1243 -0.6857
   81SOPE   H2R 7353   5.869   1.150   6.269  0.4289  0.3322 -0.1822
   81SOPE   H2S 7354   5.757   1.260   6.357  0.9495  0.4759 -1.3735
   81SOPE    C3 7355   5.506   0.916   6.631 -0.0213  0.2440 -0.1020
   81SOPE    HX 7356   5.448   1.007   6.655 -0.7588 -0.4954  1.0023
   81SOPE    HY 7357   5.488   0.844   6.714 -1.7155 -1.4967 -1.8865
   81SOPE   O31 7358   5.456   0.863   6.500  0.0870 -0.7169 -0.2692
   81SOPE   C31 7359   5.332   0.829   6.501  0.8075  0.1473  0.0136
   81SOPE   O32 7360   5.250   0.851   6.588 -0.7322  0.3338 -0.1872
   81SOPE   C32 7361   5.300   0.764   6.363  0.0444 -0.1562 -0.5282
   81SOPE   H2X 7362   5.192   0.740   6.375  0.0098 -0.3358 -1.1682
   81SOPE   H2Y 7363   5.350   0.665   6.358 -2.4025 -1.4466 -1.0689
   81SOPE   C23 7364   5.658   1.115   6.246  0.0560  0.2344  0.4847
   81SOPE   H3R 7365   5.561   1.143   6.294  0.0258 -0.3440  0.7745
   81SOPE   H3S 7366   5.648   1.005   6.236 -1.3307  0.4699 -1.1657
   81SOPE   C24 7367   5.668   1.175   6.111 -0.1063 -0.1261  0.1408
   81SOPE   H4R 7368   5.711   1.278   6.112 -0.0736 -0.1302 -0.7564
   81SOPE   H4S 7369   5.744   1.125   6.049 -0.1143  0.5410 -0.4207
   81SOPE   C25 7370   5.530   1.166   6.037 -0.2069  0.7882 -0.4618
   81SOPE   H5R 7371   5.523   1.057   6.016  4.4550 -0.0004  0.8821
   81SOPE   H5S 7372   5.441   1.210   6.086 -0.4267  1.1532 -1.1687
   81SOPE   C26 7373   5.536   1.217   5.895 -0.0902  0.6558  0.3992
   81SOPE   H6R 7374   5.581   1.318   5.886 -2.3984  1.6070 -1.9735
   81SOPE   H6S 7375   5.608   1.166   5.828 -0.8915  0.5182 -0.3905
   81SOPE   C27 7376   5.394   1.225   5.821  0.0024  0.5842  0.2906
   81SOPE   H7R 7377   5.349   1.126   5.841 -0.4896  0.4985 -1.1588
   81SOPE   H7S 7378   5.332   1.310   5.858 -2.0157 -1.2716  1.3638
   81SOPE   C28 7379   5.408   1.223   5.670 -0.6695 -0.3366  2.0335
   81SOPE   H8R 7380   5.491   1.288   5.633  0.5922 -3.6745 -1.7600
   81SOPE   H8S 7381   5.440   1.122   5.636 -1.7986 -1.1671  3.3248
   81SOPE   C29 7382   5.280   1.257   5.592 -0.4442 -0.0672 -0.0113
   81SOPE   H91 7383   5.190   1.239   5.651 -1.9323  0.9531 -1.8508
   81SOPE  C210 7384   5.273   1.305   5.468 -0.5865  0.5557 -0.1406
   81SOPE  H101 7385   5.176   1.336   5.426  0.5511  1.0546 -2.6161
   81SOPE  C211 7386   5.387   1.350   5.376  0.1820  0.7580 -0.2956
   81SOPE  H11R 7387   5.485   1.341   5.426  0.5865 -1.6842 -1.3860
   81SOPE  H11S 7388   5.369   1.457   5.350 -0.0919  0.7550 -0.1229
   81SOPE  C212 7389   5.395   1.274   5.245 -0.0179  0.1332  0.1216
   81SOPE  H12R 7390   5.424   1.173   5.282  3.3694 -0.5483 -3.6862
   81SOPE  H12S 7391   5.479   1.308   5.180 -0.1519  0.8326  0.3113
   81SOPE  C213 7392   5.270   1.258   5.157 -0.6029  1.1956 -0.1415
   81SOPE  H13R 7393   5.226   1.354   5.121  0.3304  1.4533 -0.6232
   81SOPE  H13S 7394   5.195   1.194   5.209  1.3090 -0.9021  0.1712
   81SOPE  C214 7395   5.302   1.180   5.032 -0.5203  0.4899  0.0867
   81SOPE  H14R 7396   5.379   1.238   4.978 -1.6632  0.9350 -1.1151
   81SOPE  H14S 7397   5.213   1.174   4.966 -0.1914  1.7908 -0.5067
   81SOPE  C215 7398   5.358   1.035   5.055  0.3166 -0.0253 -0.5778
   81SOPE  H15R 7399   5.297   0.992   5.137 -0.2992  2.9720  0.6698
   81SOPE  H15S 7400   5.454   1.047   5.109 -0.9964  1.5759  1.5473
   81SOPE  C216 7401   5.377   0.958   4.921  0.8165 -0.3712  0.3909
   81SOPE  H16R 7402   5.441   0.871   4.947 -1.2335 -1.9128  0.5768
   81SOPE  H16S 7403   5.431   1.026   4.853 -1.9569  1.9315  0.2842
   81SOPE  C217 7404   5.256   0.902   4.848  0.9237 -0.0105 -0.3991
   81SOPE  H17R 7405   5.290   0.838   4.764 -0.0857 -2.2010  0.7601
   81SOPE  H17S 7406   5.207   0.994   4.810  0.4536  0.5952  1.5686
   81SOPE  C218 7407   5.153   0.816   4.928  0.3164 -0.0739  0.2921
   81SOPE  H18R 7408   5.074   0.878   4.976  1.7709  0.9675  1.4158
   81SOPE  H18S 7409   5.205   0.775   5.017  2.0931  3.4106  1.0472
   81SOPE  H18T 7410   5.108   0.736   4.866 -2.9535  1.1552  0.8419
   81SOPE   C33 7411   5.329   0.860   6.242  0.1570 -0.0680  0.2387
   81SOPE   H3X 7412   5.438   0.878   6.236  0.0280  2.0197  2.5113
   81SOPE   H3Y 7413   5.282   0.959   6.262 -0.5076 -0.1549 -0.8297
   81SOPE   C34 7414   5.268   0.798   6.117  0.0129 -0.1284 -0.5022
   81SOPE   H4X 7415   5.157   0.795   6.128 -0.1461 -0.7761 -2.0700
   81SOPE   H4Y 7416   5.298   0.694   6.093 -0.2555 -0.3998  0.3076
   81SOPE   C35 7417   5.317   0.860   5.984  0.3297 -0.2821 -0.4036
   81SOPE   H5X 7418   5.428   0.852   5.971  0.2455 -0.3944 -1.0941
   81SOPE   H5Y 7419   5.298   0.969   5.982  0.7337 -0.2170 -1.1099
   81SOPE   C36 7420   5.246   0.791   5.862  0.5088  0.2185 -0.0498
   81SOPE   H6X 7421   5.145   0.760   5.896  0.6201 -0.2285 -0.1146
   81SOPE   H6Y 7422   5.302   0.696   5.849  0.1981  0.3278 -2.7842
   81SOPE   C37 7423   5.254   0.874   5.736  0.0943  0.1670  0.9723
   81SOPE   H7X 7424   5.357   0.892   5.698 -0.7084 -0.0008 -1.4878
   81SOPE   H7Y 7425   5.207   0.974   5.748  0.9822  0.8287 -0.7517
   81SOPE   C38 7426   5.179   0.809   5.615 -0.4247  0.2279  0.0242
   81SOPE   H8X 7427   5.072   0.786   5.636  0.3326 -1.1875  2.8355
   81SOPE   H8Y 7428   5.231   0.712   5.600 -0.0176  0.5031 -0.3479
   81SOPE   C39 7429   5.202   0.889   5.484  0.2533 -0.0665 -0.4250
   81SOPE   H9X 7430   5.298   0.944   5.486 -0.9483  2.1545  0.1057
   81SOPE   H9Y 7431   5.134   0.977   5.486  0.7075  0.3335 -1.4768
   81SOPE  C310 7432   5.180   0.807   5.351  0.4034  0.4686  0.1111
   81SOPE  H10X 7433   5.278   0.757   5.333 -0.2182 -1.0084  0.7282
   81SOPE  H10Y 7434   5.158   0.884   5.274 -0.0294  1.5898  1.3167
   81SOPE  C311 7435   5.063   0.695   5.360 -0.2250  0.5679 -0.4142
   81SOPE  H11X 7436   4.969   0.741   5.396 -1.2328 -1.0966 -0.7769
   81SOPE  H11Y 7437   5.101   0.627   5.440  0.4894 -0.0432 -1.2459
   81SOPE  C312 7438   5.041   0.623   5.227  0.1684  0.0442  0.1021
   81SOPE  H12X 7439   5.139   0.590   5.186 -0.7362 -1.4861 -0.9167
   81SOPE  H12Y 7440   5.007   0.704   5.159 -0.7427  0.8015  1.4117
   81SOPE  C313 7441   4.949   0.502   5.221 -0.3107  0.3567 -0.3087
   81SOPE  H13X 7442   4.859   0.523   5.282  0.9448 -0.8949  2.1468
   81SOPE  H13Y 7443   5.004   0.417   5.268  3.0173  2.4558 -0.0557
   81SOPE  C314 7444   4.896   0.466   5.074 -0.2897  0.0514  0.7717
   81SOPE  H14X 7445   4.874   0.559   5.017 -1.7552 -0.2052  0.8820
   81SOPE  H14Y 7446   4.804   0.404   5.067 -0.0585 -0.3812  1.4609
   81SOPE  C315 7447   5.003   0.387   5.001 -0.1058 -0.5306  0.3110
   81SOPE  H15X 7448   5.059   0.315   5.064  0.7797 -0.5598 -0.4804
   81SOPE  H15Y 7449   5.082   0.456   4.965 -2.6223  1.3207 -2.1737
   81SOPE  C316 7450   4.954   0.305   4.883 -0.1857 -0.1900  0.0708
   81SOPE  H16X 7451   4.921   0.378   4.805 -2.2479 -2.3032 -1.1768
   81SOPE  H16Y 7452   4.864   0.246   4.912 -1.5643  1.2439 -1.0616
   81SOPE  C317 7453   5.066   0.231   4.820 -0.4729  0.6055 -0.6500
   81SOPE  H17X 7454   5.109   0.160   4.893 -0.3867  0.8033 -0.5086
   81SOPE  H17Y 7455   5.136   0.315   4.799 -0.8597  1.1018  0.0054
   81SOPE  C318 7456   5.042   0.154   4.688  0.4732  0.4923  0.5698
   81SOPE  H18X 7457   4.980   0.224   4.628  1.1056  1.4343  0.9783
   81SOPE  H18Y 7458   4.977   0.068   4.713  0.7708  0.0481 -0.1402
   81SOPE  H18Z 7459   5.134   0.119   4.636  0.9550  1.0860  0.9945
   82SOPE     N 7460   1.666   5.771   7.216 -0.7193  0.6854 -0.0417
   82SOPE   HN1 7461   1.683   5.690   7.278  3.2469  0.5114 -1.0991
   82SOPE   HN2 7462   1.624   5.854   7.265 -1.1753  1.2560 -1.3572
   82SOPE   HN3 7463   1.580   5.741   7.166 -1.2394  1.7199  0.1831
   82SOPE   C12 7464   1.783   5.796   7.128  0.5639 -0.0461  0.0635
   82SOPE  H12A 7465   1.747   5.836   7.031 -0.6839  0.8110  0.8592
   82SOPE  H12B 7466   1.839   5.702   7.111  0.2576 -0.4081  0.9953
   82SOPE   C11 7467   1.886   5.898   7.187 -0.2067 -0.4485 -0.0842
   82SOPE  H11A 7468   1.981   5.884   7.131 -1.5458 -1.0243 -2.3714
   82SOPE  H11B 7469   1.902   5.863   7.291 -0.8331  1.8043  0.8173
   82SOPE     P 7470   1.755   6.110   7.279 -0.0678 -0.5210 -0.0517
   82SOPE   O13 7471   1.850   6.187   7.361 -0.2139  0.8873  0.0950
   82SOPE   O14 7472   1.664   6.013   7.343 -0.3011 -0.3551 -0.0694
   82SOPE   O12 7473   1.834   6.032   7.167 -0.0187  0.1524 -0.2042
   82SOPE   O11 7474   1.673   6.205   7.185  0.2893  0.0467 -0.0598
   82SOPE    C1 7475   1.603   6.164   7.071 -0.3743  0.5008  0.3402
   82SOPE    HA 7476   1.493   6.177   7.087 -0.1263  2.5606  0.6082
   82SOPE    HB 7477   1.603   6.054   7.056 -0.2598  0.3452  1.4086
   82SOPE    C2 7478   1.648   6.233   6.940  0.1913  0.3310  0.0399
   82SOPE    HS 7479   1.576   6.194   6.865  1.1621  0.1687 -0.8380
   82SOPE   O21 7480   1.782   6.188   6.903  0.1362  0.0176 -0.2888
   82SOPE   C21 7481   1.796   6.070   6.849 -0.4006  0.0684  0.2959
   82SOPE   O22 7482   1.712   5.981   6.832 -1.0093  0.1337  0.2626
   82SOPE   C22 7483   1.948   6.037   6.834  0.5357 -0.3918 -0.1886
   82SOPE   H2R 7484   1.976   5.957   6.905 -0.7099 -0.7396 -0.0667
   82SOPE   H2S 7485   1.994   6.127   6.880 -1.3596 -0.4843  2.0419
   82SOPE    C3 7486   1.647   6.386   6.957 -0.4667 -0.4653 -0.2520
   82SOPE    HX 7487   1.733   6.418   7.019 -0.4427 -2.8637  1.0944
   82SOPE    HY 7488   1.556   6.417   7.013 -0.8643 -1.0124 -0.5801
   82SOPE   O31 7489   1.644   6.447   6.827  0.4146  0.3521 -0.0344
   82SOPE   C31 7490   1.663   6.580   6.835 -0.2580  0.1933  0.1093
   82SOPE   O32 7491   1.647   6.646   6.937  0.3337  0.2166 -0.4114
   82SOPE   C32 7492   1.693   6.633   6.694 -0.4828 -0.4739  0.1126
   82SOPE   H2X 7493   1.788   6.585   6.660  0.4602  0.8846  0.7589
   82SOPE   H2Y 7494   1.700   6.744   6.690 -0.6015 -0.4914 -2.0281
   82SOPE   C23 7495   1.989   6.021   6.692  0.1581 -0.5447 -0.2402
   82SOPE   H3R 7496   1.911   5.968   6.633 -0.2274  0.6466 -0.8503
   82SOPE   H3S 7497   2.089   5.973   6.694  0.2965 -0.2543  0.8645
   82SOPE   C24 7498   2.006   6.155   6.625  0.9784 -0.2709 -0.1032
   82SOPE   H4R 7499   2.050   6.233   6.690 -1.1007  1.0228 -0.1580
   82SOPE   H4S 7500   2.086   6.151   6.548 -0.6700  0.7584 -1.9545
   82SOPE   C25 7501   1.879   6.212   6.559  0.4125 -0.0258  0.1808
   82SOPE   H5R 7502   1.813   6.135   6.515 -0.3344  0.4064  0.5120
   82SOPE   H5S 7503   1.824   6.253   6.647  4.7250  1.0253  2.7226
   82SOPE   C26 7504   1.900   6.322   6.457  0.5885 -0.0073 -0.2622
   82SOPE   H6R 7505   1.813   6.392   6.465  1.2347  0.8995 -0.9124
   82SOPE   H6S 7506   1.986   6.387   6.482  0.5604  0.7567 -2.0060
   82SOPE   C27 7507   1.920   6.272   6.316 -0.7041 -0.3074 -0.4309
   82SOPE   H7R 7508   2.016   6.218   6.323  0.7488  2.3250  1.8084
   82SOPE   H7S 7509   1.840   6.202   6.284 -1.2679  0.5203 -0.8879
   82SOPE   C28 7510   1.941   6.382   6.214  0.1263 -0.1219  0.0902
   82SOPE   H8R 7511   1.850   6.443   6.199  1.1081  1.1299 -1.0346
   82SOPE   H8S 7512   2.021   6.446   6.257 -0.8576  1.4296 -0.2961
   82SOPE   C29 7513   2.000   6.319   6.086  0.7580 -0.4453  0.1775
   82SOPE   H91 7514   2.091   6.259   6.097  0.3653 -0.9741  0.6195
   82SOPE  C210 7515   1.959   6.342   5.960 -0.8707  0.0045 -0.6777
   82SOPE  H101 7516   2.013   6.275   5.891  0.0287 -0.9796  0.9238
   82SOPE  C211 7517   1.851   6.427   5.913 -0.0684  0.0139  0.1893
   82SOPE  H11R 7518   1.809   6.478   6.003  0.9728  3.3479 -1.0471
   82SOPE  H11S 7519   1.778   6.365   5.858  1.5652 -2.2167  0.3780
   82SOPE  C212 7520   1.890   6.539   5.815 -0.3262  0.2215 -0.6467
   82SOPE  H12R 7521   1.973   6.605   5.849  0.4380  0.9560 -3.6352
   82SOPE  H12S 7522   1.797   6.599   5.800 -0.6279 -0.5739 -2.1633
   82SOPE  C213 7523   1.915   6.492   5.668 -0.4616  0.0438  0.0286
   82SOPE  H13R 7524   1.983   6.405   5.672 -0.4885  0.0681  2.3116
   82SOPE  H13S 7525   1.981   6.570   5.624 -0.4537  1.8351  2.9499
   82SOPE  C214 7526   1.787   6.478   5.579 -0.7506 -0.4560  0.2082
   82SOPE  H14R 7527   1.728   6.570   5.598  1.1884  0.9638 -0.2820
   82SOPE  H14S 7528   1.727   6.389   5.606 -0.1052 -0.8232  0.4461
   82SOPE  C215 7529   1.838   6.457   5.430 -0.1134  0.6422  0.0635
   82SOPE  H15R 7530   1.927   6.391   5.418  0.4918  1.4960 -0.2855
   82SOPE  H15S 7531   1.881   6.543   5.373  0.0715 -0.8807 -2.2595
   82SOPE  C216 7532   1.734   6.400   5.332 -0.7685  0.2207 -0.2461
   82SOPE  H16R 7533   1.649   6.470   5.317 -0.9445 -0.5669 -3.5080
   82SOPE  H16S 7534   1.690   6.313   5.385 -2.1286  0.8708 -0.2548
   82SOPE  C217 7535   1.780   6.373   5.189 -0.6825  0.7320 -0.1921
   82SOPE  H17R 7536   1.891   6.379   5.189 -0.5730 -0.8042 -1.1277
   82SOPE  H17S 7537   1.732   6.458   5.136  0.4983  3.2892  2.5972
   82SOPE  C218 7538   1.727   6.238   5.129  1.1010 -0.1455 -0.1293
   82SOPE  H18R 7539   1.767   6.238   5.026  0.0452  2.2046 -0.6005
   82SOPE  H18S 7540   1.618   6.247   5.114  1.0806  2.4474  1.0576
   82SOPE  H18T 7541   1.735   6.139   5.181 -1.4056 -0.9557 -1.1197
   82SOPE   C33 7542   1.586   6.595   6.590  0.5864  0.4895 -0.0796
   82SOPE   H3X 7543   1.488   6.643   6.612 -1.2016 -2.1313 -1.7970
   82SOPE   H3Y 7544   1.573   6.484   6.595  0.0177  0.5050 -1.0770
   82SOPE   C34 7545   1.642   6.634   6.452  0.0310  0.2177 -0.5405
   82SOPE   H4X 7546   1.721   6.559   6.431 -0.1277 -0.0887 -0.0844
   82SOPE   H4Y 7547   1.687   6.736   6.453 -0.9209  0.6698  1.4504
   82SOPE   C35 7548   1.539   6.645   6.341  0.3020  0.2321 -0.0852
   82SOPE   H5X 7549   1.482   6.738   6.363  0.0232  0.1664 -0.5224
   82SOPE   H5Y 7550   1.475   6.555   6.353 -0.4330  0.7766  0.2009
   82SOPE   C36 7551   1.599   6.648   6.199 -0.2533  0.0634  0.2724
   82SOPE   H6X 7552   1.633   6.544   6.179  2.4648  0.5420  1.9133
   82SOPE   H6Y 7553   1.690   6.710   6.213 -0.2512  0.2910 -0.6676
   82SOPE   C37 7554   1.502   6.711   6.092  0.9492 -0.4976 -0.0199
   82SOPE   H7X 7555   1.464   6.810   6.125  2.2162 -0.6261  1.9749
   82SOPE   H7Y 7556   1.420   6.636   6.089  1.4063 -1.0054  0.0108
   82SOPE   C38 7557   1.588   6.722   5.961  0.2095  0.2708  0.1597
   82SOPE   H8X 7558   1.623   6.619   5.938  2.5120  0.8637  0.7604
   82SOPE   H8Y 7559   1.673   6.790   5.984  0.5654 -0.7689  2.1519
   82SOPE   C39 7560   1.493   6.778   5.860  0.0214 -0.0035  0.5323
   82SOPE   H9X 7561   1.449   6.872   5.901  1.2948  0.8105  0.0753
   82SOPE   H9Y 7562   1.412   6.706   5.837 -0.5229  0.3155  1.3647
   82SOPE  C310 7563   1.566   6.808   5.731 -0.1734 -0.6024 -0.9298
   82SOPE  H10X 7564   1.617   6.715   5.700 -0.0717 -0.2561 -1.8177
   82SOPE  H10Y 7565   1.638   6.891   5.750 -1.2126  0.1953 -0.3770
   82SOPE  C311 7566   1.472   6.843   5.617  0.0774  0.3610  0.8900
   82SOPE  H11X 7567   1.396   6.915   5.654  0.0846  0.4505  0.7341
   82SOPE  H11Y 7568   1.412   6.751   5.599  0.1729  0.5397 -0.4898
   82SOPE  C312 7569   1.528   6.899   5.482 -0.0575 -0.0242 -0.4563
   82SOPE  H12X 7570   1.571   6.998   5.505 -0.0678 -0.0687 -0.2421
   82SOPE  H12Y 7571   1.448   6.912   5.407 -0.6916  0.0719  0.2221
   82SOPE  C313 7572   1.629   6.801   5.425 -0.3583  0.0214 -0.2304
   82SOPE  H13X 7573   1.573   6.705   5.429  0.5729 -0.5154  0.3761
   82SOPE  H13Y 7574   1.713   6.800   5.498 -0.1962 -2.4014 -0.3759
   82SOPE  C314 7575   1.673   6.837   5.282  0.2114  0.2793 -0.1418
   82SOPE  H14X 7576   1.775   6.792   5.281  0.0859 -0.0281  0.4995
   82SOPE  H14Y 7577   1.686   6.947   5.274  1.2022  0.1911  0.1861
   82SOPE  C315 7578   1.592   6.775   5.168 -0.5206 -0.4191  0.0167
   82SOPE  H15X 7579   1.494   6.824   5.150 -0.1511  0.2555 -0.1689
   82SOPE  H15Y 7580   1.582   6.666   5.186 -0.3388 -0.5860 -0.8455
   82SOPE  C316 7581   1.662   6.776   5.032 -0.2316  0.8032  0.0627
   82SOPE  H16X 7582   1.764   6.735   5.047 -1.0012 -0.5276  2.0962
   82SOPE  H16Y 7583   1.664   6.879   4.989  1.9389  0.7505 -0.0687
   82SOPE  C317 7584   1.601   6.683   4.922  0.5140 -0.4726  0.0485
   82SOPE  H17X 7585   1.492   6.700   4.913  0.6549 -0.3115 -1.5713
   82SOPE  H17Y 7586   1.622   6.576   4.944 -1.2482 -0.5694  1.4272
   82SOPE  C318 7587   1.671   6.706   4.789  0.2791  0.4924 -0.2064
   82SOPE  H18X 7588   1.654   6.807   4.745 -0.2911  1.6310  2.4464
   82SOPE  H18Y 7589   1.632   6.627   4.721 -0.9800  0.0112  1.0341
   82SOPE  H18Z 7590   1.778   6.677   4.795 -0.4935 -2.9925 -0.6313
   83SOPE     N 7591   3.450   2.947   2.483 -0.1787  0.6445 -0.0372
   83SOPE   HN1 7592   3.494   2.853   2.476  1.2268  1.2860 -0.1947
   83SOPE   HN2 7593   3.349   2.942   2.461 -0.3628 -0.2410  0.9132
   83SOPE   HN3 7594   3.499   3.005   2.412  1.5939 -1.3904 -0.5875
   83SOPE   C12 7595   3.474   2.995   2.622  0.2236  0.1254  0.1826
   83SOPE  H12A 7596   3.439   3.100   2.627 -1.2169 -0.3221 -0.0821
   83SOPE  H12B 7597   3.584   2.992   2.639  0.2703 -2.8406 -0.0699
   83SOPE   C11 7598   3.409   2.895   2.725  0.5452  0.6892  0.0953
   83SOPE  H11A 7599   3.299   2.905   2.711  0.6290  1.7080  0.1336
   83SOPE  H11B 7600   3.430   2.926   2.830 -0.4808  1.3584  0.1209
   83SOPE     P 7601   3.426   2.644   2.792  0.1572 -0.2451  0.4818
   83SOPE   O13 7602   3.508   2.535   2.750  0.4403  0.8116 -0.8346
   83SOPE   O14 7603   3.283   2.628   2.802  0.6285  0.2154 -0.1013
   83SOPE   O12 7604   3.455   2.765   2.701 -0.1705  0.2807 -0.7347
   83SOPE   O11 7605   3.469   2.677   2.938  0.9834  0.1425 -0.2477
   83SOPE    C1 7606   3.408   2.762   3.032 -0.2115  0.1598  0.1865
   83SOPE    HA 7607   3.317   2.806   2.987  1.0755 -0.6386 -3.5388
   83SOPE    HB 7608   3.482   2.843   3.053  0.3821 -0.1818 -0.5196
   83SOPE    C2 7609   3.372   2.696   3.169 -0.4824 -0.1027  0.1068
   83SOPE    HS 7610   3.328   2.773   3.237  0.6342  0.0752  0.6482
   83SOPE   O21 7611   3.483   2.642   3.234 -0.2139 -0.1092 -0.0284
   83SOPE   C21 7612   3.552   2.740   3.280 -0.4002  0.2181  0.6694
   83SOPE   O22 7613   3.526   2.859   3.285 -0.2331  0.1013 -0.3771
   83SOPE   C22 7614   3.677   2.681   3.349  0.0521  0.0983  0.8413
   83SOPE   H2R 7615   3.776   2.702   3.304 -0.7269 -1.4066 -1.7843
   83SOPE   H2S 7616   3.677   2.570   3.356 -1.4910  0.1708  3.3857
   83SOPE    C3 7617   3.275   2.572   3.140 -0.3033 -0.6370  0.1049
   83SOPE    HX 7618   3.323   2.491   3.081 -2.1289 -0.1838 -2.1367
   83SOPE    HY 7619   3.195   2.610   3.074 -2.6101  0.0812  3.0768
   83SOPE   O31 7620   3.212   2.514   3.259  0.0660  0.4682  0.0142
   83SOPE   C31 7621   3.111   2.593   3.310  0.1791  0.4230  0.8652
   83SOPE   O32 7622   3.071   2.692   3.254  0.6841 -0.5808 -0.3503
   83SOPE   C32 7623   3.049   2.523   3.419 -0.4734 -0.4750 -0.1395
   83SOPE   H2X 7624   2.956   2.575   3.449 -0.0469 -1.0238  2.3034
   83SOPE   H2Y 7625   3.104   2.514   3.515 -2.8290 -0.5591  1.2936
   83SOPE   C23 7626   3.675   2.720   3.500  0.1531 -0.2498  0.2454
   83SOPE   H3R 7627   3.579   2.700   3.551  1.2563 -0.6588  2.2553
   83SOPE   H3S 7628   3.691   2.830   3.502 -0.5024 -0.0934 -1.4786
   83SOPE   C24 7629   3.784   2.642   3.574 -0.6061  0.2344 -0.5276
   83SOPE   H4R 7630   3.788   2.531   3.567 -0.0831  0.2309 -0.2077
   83SOPE   H4S 7631   3.875   2.684   3.525  1.6084 -0.9203  2.3165
   83SOPE   C25 7632   3.799   2.680   3.718 -0.4545 -0.0727 -0.8803
   83SOPE   H5R 7633   3.906   2.667   3.745 -0.9360  1.0335  1.8997
   83SOPE   H5S 7634   3.786   2.790   3.727 -3.9158 -0.4548 -0.0716
   83SOPE   C26 7635   3.725   2.592   3.816  0.5913  0.1451 -0.1953
   83SOPE   H6R 7636   3.629   2.644   3.838  0.3008 -1.2165  2.1243
   83SOPE   H6S 7637   3.718   2.492   3.769 -1.0707 -0.5022  1.2932
   83SOPE   C27 7638   3.795   2.583   3.953 -0.3303  0.4836 -0.3435
   83SOPE   H7R 7639   3.888   2.525   3.936 -0.7976 -0.3350 -0.1470
   83SOPE   H7S 7640   3.819   2.684   3.993 -1.4065 -0.3287  2.6605
   83SOPE   C28 7641   3.710   2.514   4.069 -0.3310 -0.3228  0.1006
   83SOPE   H8R 7642   3.638   2.588   4.110  1.1962  1.2157  0.1131
   83SOPE   H8S 7643   3.649   2.439   4.014 -1.1733 -0.8456  1.7035
   83SOPE   C29 7644   3.794   2.453   4.178 -0.5768  0.6416 -0.4231
   83SOPE   H91 7645   3.879   2.398   4.135  0.3642  1.3702  0.4737
   83SOPE  C210 7646   3.790   2.496   4.309  0.0626  0.3445  0.4718
   83SOPE  H101 7647   3.857   2.446   4.380 -0.1600  1.5753  1.5765
   83SOPE  C211 7648   3.687   2.591   4.371 -0.0320  0.0595 -0.3262
   83SOPE  H11R 7649   3.649   2.668   4.300 -0.2962  0.3737  0.1497
   83SOPE  H11S 7650   3.740   2.656   4.444  1.3061 -0.3990 -0.8641
   83SOPE  C212 7651   3.568   2.525   4.442 -0.3299 -0.2802 -0.2184
   83SOPE  H12R 7652   3.520   2.468   4.360 -1.3289  0.5481 -0.2207
   83SOPE  H12S 7653   3.499   2.603   4.480  1.2322  0.5571  1.0136
   83SOPE  C213 7654   3.608   2.413   4.549  0.0806 -0.6987 -0.2978
   83SOPE  H13R 7655   3.668   2.330   4.504  3.0760  2.7307 -3.2831
   83SOPE  H13S 7656   3.514   2.368   4.588  0.5926 -0.4988  1.2320
   83SOPE  C214 7657   3.684   2.466   4.673  0.0508 -0.1902 -0.1424
   83SOPE  H14R 7658   3.624   2.538   4.733  0.0168  2.0688 -2.6976
   83SOPE  H14S 7659   3.777   2.517   4.642 -0.3445 -0.0859 -1.2003
   83SOPE  C215 7660   3.735   2.349   4.766  0.9079 -0.0351 -0.2187
   83SOPE  H15R 7661   3.819   2.289   4.725  0.6426 -1.2570  0.9510
   83SOPE  H15S 7662   3.652   2.275   4.771  0.4197  0.5214 -0.0301
   83SOPE  C216 7663   3.778   2.397   4.909 -0.1399 -0.4427  0.0235
   83SOPE  H16R 7664   3.804   2.304   4.965 -0.7979 -1.1937 -0.8996
   83SOPE  H16S 7665   3.691   2.443   4.959  0.5757  1.5936 -0.5301
   83SOPE  C217 7666   3.879   2.507   4.909  0.3042  0.1470  0.3054
   83SOPE  H17R 7667   3.885   2.547   5.012  0.0713 -0.1486  0.4350
   83SOPE  H17S 7668   3.843   2.595   4.852  0.1582 -0.6502 -0.8839
   83SOPE  C218 7669   4.013   2.456   4.856  0.0475 -0.2616  0.6665
   83SOPE  H18R 7670   4.015   2.441   4.746  0.7469  3.2106  0.0905
   83SOPE  H18S 7671   4.035   2.354   4.896  2.1049  0.6321  2.0370
   83SOPE  H18T 7672   4.100   2.516   4.889 -2.2513  2.6611  1.8303
   83SOPE   C33 7673   3.009   2.377   3.376  0.1692 -0.6144  0.2408
   83SOPE   H3X 7674   3.104   2.318   3.378  0.4867 -0.1346 -0.6292
   83SOPE   H3Y 7675   2.984   2.392   3.269  1.1563  1.5280  0.2564
   83SOPE   C34 7676   2.891   2.327   3.456  0.1731  0.9506  0.0640
   83SOPE   H4X 7677   2.837   2.254   3.391  0.3616  0.4777  0.4361
   83SOPE   H4Y 7678   2.820   2.412   3.457 -0.7778  0.2170  2.7457
   83SOPE   C35 7679   2.910   2.286   3.598  0.3163 -0.5581  0.1909
   83SOPE   H5X 7680   2.976   2.350   3.660  0.1488 -1.2182  1.0533
   83SOPE   H5Y 7681   2.943   2.181   3.589  0.6489 -0.5057  0.7760
   83SOPE   C36 7682   2.783   2.282   3.681 -0.6219 -0.0737  0.3341
   83SOPE   H6X 7683   2.695   2.240   3.629  0.1706 -0.3776 -0.8017
   83SOPE   H6Y 7684   2.743   2.385   3.694 -2.2180 -0.6879  0.5145
   83SOPE   C37 7685   2.805   2.208   3.808 -0.4677  0.3114  0.1811
   83SOPE   H7X 7686   2.904   2.232   3.851  0.2304 -1.2346 -0.4895
   83SOPE   H7Y 7687   2.825   2.099   3.796  0.2592  0.2426  1.7368
   83SOPE   C38 7688   2.695   2.229   3.917  0.1518  0.5867 -0.2325
   83SOPE   H8X 7689   2.684   2.132   3.969  0.1884  1.4091  1.3996
   83SOPE   H8Y 7690   2.596   2.247   3.870 -0.6845  0.8680  1.5448
   83SOPE   C39 7691   2.739   2.333   4.022 -1.1971 -0.1781  0.3333
   83SOPE   H9X 7692   2.745   2.431   3.969 -0.9998 -0.4557 -0.1662
   83SOPE   H9Y 7693   2.839   2.306   4.061 -1.6040 -1.9673  0.1915
   83SOPE  C310 7694   2.642   2.350   4.139  0.1448  0.6124 -0.1938
   83SOPE  H10X 7695   2.626   2.252   4.189 -1.6964 -0.5250 -2.7873
   83SOPE  H10Y 7696   2.543   2.388   4.105  0.0970  0.5651 -0.1078
   83SOPE  C311 7697   2.681   2.446   4.257 -0.5104  0.2459 -0.5522
   83SOPE  H11X 7698   2.730   2.541   4.226  0.7564  0.4426  1.8149
   83SOPE  H11Y 7699   2.748   2.401   4.333 -2.3029 -1.3161  0.1822
   83SOPE  C312 7700   2.560   2.490   4.329  0.1610  0.3473 -0.5524
   83SOPE  H12X 7701   2.503   2.540   4.248  1.1315  0.9665 -0.8548
   83SOPE  H12Y 7702   2.586   2.568   4.404  0.3181 -0.1285 -0.1029
   83SOPE  C313 7703   2.486   2.380   4.398  0.0756  0.1238 -0.2051
   83SOPE  H13X 7704   2.487   2.280   4.348  0.8743 -0.2873  0.6152
   83SOPE  H13Y 7705   2.376   2.397   4.405 -0.4499 -2.4698 -0.9006
   83SOPE  C314 7706   2.532   2.363   4.544  0.3269  0.2000  0.1514
   83SOPE  H14X 7707   2.642   2.382   4.538 -0.0011  2.1146 -0.1423
   83SOPE  H14Y 7708   2.526   2.255   4.570  2.9538  0.5004  2.4370
   83SOPE  C315 7709   2.460   2.454   4.648 -0.4103  1.0848  0.5878
   83SOPE  H15X 7710   2.354   2.459   4.615 -0.1814  1.4932 -0.1051
   83SOPE  H15Y 7711   2.487   2.561   4.635  2.7832  0.4875  1.3352
   83SOPE  C316 7712   2.463   2.402   4.789 -0.0148  0.5631 -0.2343
   83SOPE  H16X 7713   2.410   2.304   4.795 -1.8093  1.5536  1.0713
   83SOPE  H16Y 7714   2.404   2.461   4.862 -0.3019  0.1150 -0.0949
   83SOPE  C317 7715   2.604   2.382   4.840  0.2975 -0.3188  0.2060
   83SOPE  H17X 7716   2.653   2.307   4.774 -0.5124  1.1158 -2.1756
   83SOPE  H17Y 7717   2.599   2.343   4.943 -0.6127  0.6774  0.5586
   83SOPE  C318 7718   2.690   2.505   4.835  0.8762  0.1949 -0.0552
   83SOPE  H18X 7719   2.693   2.547   4.732 -0.2763 -1.9902 -1.0478
   83SOPE  H18Y 7720   2.792   2.495   4.879  0.8640  0.2531 -0.0121
   83SOPE  H18Z 7721   2.653   2.589   4.897  0.5297  2.3900 -3.0303
   84SOPE     N 7722   3.256   0.161   2.833 -0.4015  0.4714  0.1986
   84SOPE   HN1 7723   3.188   0.088   2.863  0.5478 -0.8242 -0.7318
   84SOPE   HN2 7724   3.302   0.128   2.746 -0.3212 -2.3269  1.2051
   84SOPE   HN3 7725   3.329   0.165   2.907  0.8271 -1.9523 -0.7969
   84SOPE   C12 7726   3.183   0.292   2.812 -0.5160  0.3817 -0.4898
   84SOPE  H12A 7727   3.258   0.366   2.777  0.2160 -1.5369 -3.3254
   84SOPE  H12B 7728   3.146   0.313   2.915 -0.6047 -0.5702 -0.3135
   84SOPE   C11 7729   3.066   0.298   2.718 -0.0697 -0.4614 -0.3567
   84SOPE  H11A 7730   3.109   0.270   2.619  0.4085  1.2590 -0.6631
   84SOPE  H11B 7731   3.033   0.404   2.717  0.4269 -0.2969  0.2159
   84SOPE     P 7732   2.825   0.217   2.693 -0.3154  0.1162 -0.4225
   84SOPE   O13 7733   2.850   0.234   2.551  0.8580  0.2683 -0.3142
   84SOPE   O14 7734   2.752   0.330   2.757  0.0275  0.0119 -0.1411
   84SOPE   O12 7735   2.969   0.208   2.773  0.7930 -0.3885 -0.0597
   84SOPE   O11 7736   2.745   0.090   2.717 -0.4702  0.5689 -0.3419
   84SOPE    C1 7737   2.764   0.020   2.840 -0.7606  0.2319 -0.3714
   84SOPE    HA 7738   2.869   0.009   2.874 -1.3418  2.2747  2.4037
   84SOPE    HB 7739   2.719  -0.082   2.836  1.6462 -0.9491  0.6272
   84SOPE    C2 7740   2.689   0.098   2.946 -0.0705 -0.3707 -0.6164
   84SOPE    HS 7741   2.757   0.182   2.973 -1.7560  0.9524 -0.2740
   84SOPE   O21 7742   2.662   0.006   3.064  0.3711 -0.7387 -0.0485
   84SOPE   C21 7743   2.768  -0.013   3.133 -0.2062  0.0351  0.2678
   84SOPE   O22 7744   2.871   0.051   3.132  0.4062 -0.2750 -0.4635
   84SOPE   C22 7745   2.734  -0.121   3.234  0.6086 -0.3068 -0.5711
   84SOPE   H2R 7746   2.727  -0.226   3.200 -0.0026 -0.6115  0.4534
   84SOPE   H2S 7747   2.634  -0.095   3.277  1.0560  0.2079  0.1888
   84SOPE    C3 7748   2.555   0.151   2.899  0.4788  0.0302  0.3365
   84SOPE    HX 7749   2.508   0.061   2.853  2.5417 -0.8613 -0.1598
   84SOPE    HY 7750   2.562   0.223   2.815  1.9003 -1.2567 -0.6993
   84SOPE   O31 7751   2.467   0.200   3.002 -0.2891 -0.5478  0.0427
   84SOPE   C31 7752   2.493   0.316   3.053 -0.0271  0.2594 -0.1028
   84SOPE   O32 7753   2.597   0.377   3.044 -0.6894  0.7768  0.4070
   84SOPE   C32 7754   2.372   0.342   3.138 -0.4483 -0.0147  0.2013
   84SOPE   H2X 7755   2.281   0.349   3.074  0.0035  0.0045 -0.4558
   84SOPE   H2Y 7756   2.387   0.444   3.179 -0.0531  1.6452 -3.5913
   84SOPE   C23 7757   2.836  -0.116   3.348  0.0379 -0.4939 -0.2780
   84SOPE   H3R 7758   2.835  -0.017   3.398  1.9565 -0.4614 -0.1970
   84SOPE   H3S 7759   2.934  -0.127   3.297 -0.0776 -3.3338 -0.0625
   84SOPE   C24 7760   2.824  -0.216   3.457  0.1891  0.6490 -0.1484
   84SOPE   H4R 7761   2.718  -0.240   3.483  0.8898 -3.1500 -0.2903
   84SOPE   H4S 7762   2.863  -0.314   3.425  1.7368  0.7353  1.3325
   84SOPE   C25 7763   2.893  -0.171   3.587  0.4870  0.1536 -0.3217
   84SOPE   H5R 7764   2.851  -0.074   3.621 -1.1885 -0.7818  0.3975
   84SOPE   H5S 7765   2.880  -0.254   3.660  0.8565 -1.7692 -2.3256
   84SOPE   C26 7766   3.044  -0.151   3.565  0.5293  0.1610  0.1265
   84SOPE   H6R 7767   3.093  -0.246   3.535  0.8981  0.9879 -2.1412
   84SOPE   H6S 7768   3.062  -0.077   3.484 -0.5354  1.0722  0.6946
   84SOPE   C27 7769   3.116  -0.114   3.692 -0.1314 -0.2928  0.7203
   84SOPE   H7R 7770   3.218  -0.078   3.668  0.3733 -2.0039  0.2038
   84SOPE   H7S 7771   3.068  -0.020   3.727  0.0769 -0.6316  1.9915
   84SOPE   C28 7772   3.126  -0.226   3.797  0.4229 -0.1776  0.3340
   84SOPE   H8R 7773   3.070  -0.188   3.884  1.9653  1.3722  0.7021
   84SOPE   H8S 7774   3.082  -0.327   3.780 -0.0599 -0.3785  2.5485
   84SOPE   C29 7775   3.267  -0.260   3.834  0.3748 -0.9508 -0.2625
   84SOPE   H91 7776   3.326  -0.326   3.769  0.4905 -1.7603  0.6440
   84SOPE  C210 7777   3.330  -0.220   3.943  0.2516 -0.3776 -0.1963
   84SOPE  H101 7778   3.429  -0.260   3.969 -0.7748 -2.6457  0.5470
   84SOPE  C211 7779   3.273  -0.137   4.056 -0.0249 -0.2289  0.1294
   84SOPE  H11R 7780   3.169  -0.167   4.078 -0.1903  0.5051  0.3864
   84SOPE  H11S 7781   3.267  -0.029   4.028 -0.5405 -0.0906  0.7506
   84SOPE  C212 7782   3.368  -0.157   4.174 -0.0687  0.1939  0.0524
   84SOPE  H12R 7783   3.469  -0.110   4.163  0.5748  0.0778  4.0403
   84SOPE  H12S 7784   3.386  -0.264   4.198 -1.8060  0.5193  3.3549
   84SOPE  C213 7785   3.315  -0.088   4.305 -0.2700  0.4046  0.4207
   84SOPE  H13R 7786   3.219  -0.138   4.332 -0.7411 -0.7540 -2.9568
   84SOPE  H13S 7787   3.283   0.014   4.274  2.4977  0.5958 -2.2034
   84SOPE  C214 7788   3.419  -0.059   4.412  0.4120 -0.0520  0.0777
   84SOPE  H14R 7789   3.498   0.004   4.365 -0.6624  0.5653 -0.9531
   84SOPE  H14S 7790   3.460  -0.161   4.424  0.2406 -0.1494 -0.1486
   84SOPE  C215 7791   3.362  -0.002   4.542 -0.1582 -0.0967 -0.4765
   84SOPE  H15R 7792   3.272  -0.063   4.568  1.0002 -1.8601 -0.4459
   84SOPE  H15S 7793   3.326   0.103   4.541  1.4559  0.6217  2.4240
   84SOPE  C216 7794   3.465  -0.025   4.654 -0.1013  0.2070 -0.3494
   84SOPE  H16R 7795   3.533   0.061   4.673  0.3080 -0.3037  0.5906
   84SOPE  H16S 7796   3.540  -0.102   4.627  0.8564  1.7879 -2.4760
   84SOPE  C217 7797   3.404  -0.057   4.788  0.3271  0.5426  0.5792
   84SOPE  H17R 7798   3.343  -0.149   4.776  0.8860  0.4956 -2.9075
   84SOPE  H17S 7799   3.342   0.031   4.816  0.3434  0.3280  1.3276
   84SOPE  C218 7800   3.507  -0.087   4.895 -0.5871  0.6129 -0.1654
   84SOPE  H18R 7801   3.591  -0.014   4.887  0.6956 -0.9765 -2.2771
   84SOPE  H18S 7802   3.561  -0.184   4.886  0.7011  1.0954  1.6275
   84SOPE  H18T 7803   3.457  -0.087   4.995 -2.1715 -1.9840 -0.8637
   84SOPE   C33 7804   2.355   0.232   3.240 -0.0404  0.1639 -0.2458
   84SOPE   H3X 7805   2.350   0.137   3.183 -0.0234  1.8093 -3.1926
   84SOPE   H3Y 7806   2.274   0.252   3.314 -0.1282  0.9281 -0.5360
   84SOPE   C34 7807   2.472   0.198   3.334 -0.3460  0.3142 -0.1054
   84SOPE   H4X 7808   2.519   0.292   3.372  1.2462 -0.0731 -1.0031
   84SOPE   H4Y 7809   2.550   0.145   3.276 -2.2838  0.2443 -2.8722
   84SOPE   C35 7810   2.432   0.100   3.447  0.4221 -0.2858 -0.3219
   84SOPE   H5X 7811   2.399   0.005   3.399  1.2914 -1.2334  0.8814
   84SOPE   H5Y 7812   2.353   0.140   3.514 -2.4402 -1.2573 -2.8698
   84SOPE   C36 7813   2.547   0.057   3.538 -0.0962  0.0409 -0.3430
   84SOPE   H6X 7814   2.587   0.153   3.579  3.8116 -1.5189 -0.0545
   84SOPE   H6Y 7815   2.630   0.006   3.485  1.3712  0.8914  1.0217
   84SOPE   C37 7816   2.504  -0.033   3.651  0.3206 -0.6491 -0.0867
   84SOPE   H7X 7817   2.488  -0.139   3.619 -0.0375 -0.9582  1.0554
   84SOPE   H7Y 7818   2.417   0.010   3.704 -0.6664 -2.3415 -0.2584
   84SOPE   C38 7819   2.592  -0.047   3.776 -0.4355  0.1209  0.4924
   84SOPE   H8X 7820   2.612   0.052   3.823  2.8503  0.1431 -0.6568
   84SOPE   H8Y 7821   2.691  -0.086   3.744 -1.6025 -4.3800  1.7243
   84SOPE   C39 7822   2.551  -0.145   3.881  0.4025 -0.5705  0.0237
   84SOPE   H9X 7823   2.568  -0.250   3.848  1.5108 -1.0622  1.9732
   84SOPE   H9Y 7824   2.443  -0.127   3.896  0.5429 -0.3049  0.7349
   84SOPE  C310 7825   2.623  -0.129   4.017 -0.4933 -0.2375 -0.2260
   84SOPE  H10X 7826   2.609  -0.027   4.057  0.0978 -0.5789  0.8963
   84SOPE  H10Y 7827   2.733  -0.145   4.013 -0.6459 -1.7759  0.6693
   84SOPE  C311 7828   2.565  -0.224   4.120 -0.2129 -0.2617 -0.2010
   84SOPE  H11X 7829   2.561  -0.320   4.065 -1.2928  0.2833 -1.1134
   84SOPE  H11Y 7830   2.460  -0.188   4.115 -0.5326 -1.3545 -1.9780
   84SOPE  C312 7831   2.632  -0.226   4.258  0.1126 -0.3075  0.4668
   84SOPE  H12X 7832   2.672  -0.124   4.273 -0.2277 -0.2449  0.9546
   84SOPE  H12Y 7833   2.724  -0.288   4.262 -0.8556 -1.7702  1.0701
   84SOPE  C313 7834   2.535  -0.260   4.363 -0.7230 -0.1935  0.3575
   84SOPE  H13X 7835   2.509  -0.368   4.352 -1.6860  0.0384  0.2862
   84SOPE  H13Y 7836   2.444  -0.198   4.354 -0.6442 -0.2189 -0.8591
   84SOPE  C314 7837   2.600  -0.249   4.495 -0.6556 -0.0697 -0.2464
   84SOPE  H14X 7838   2.615  -0.144   4.529 -1.1449 -0.0923  0.0536
   84SOPE  H14Y 7839   2.690  -0.314   4.495 -0.3981  0.2803 -0.1809
   84SOPE  C315 7840   2.516  -0.304   4.614 -0.0748  0.0289  0.4941
   84SOPE  H15X 7841   2.584  -0.364   4.679  0.4964  0.1732  0.0329
   84SOPE  H15Y 7842   2.430  -0.358   4.569  0.7402 -1.1442  0.3122
   84SOPE  C316 7843   2.470  -0.195   4.703  0.6842  0.7109 -0.2707
   84SOPE  H16X 7844   2.398  -0.130   4.650 -0.6752 -0.6183 -0.1150
   84SOPE  H16Y 7845   2.558  -0.134   4.734  2.1010 -0.1391 -2.4135
   84SOPE  C317 7846   2.409  -0.258   4.837  0.3802  0.4275  0.3047
   84SOPE  H17X 7847   2.366  -0.172   4.892 -0.6840 -0.1395  0.3845
   84SOPE  H17Y 7848   2.484  -0.301   4.906 -0.4631 -1.9546 -0.1756
   84SOPE  C318 7849   2.305  -0.364   4.805  0.1208  0.2010  0.1937
   84SOPE  H18X 7850   2.340  -0.458   4.757 -2.4510  0.1350 -1.7883
   84SOPE  H18Y 7851   2.241  -0.319   4.726  2.2667 -2.3784 -3.3378
   84SOPE  H18Z 7852   2.243  -0.398   4.891  2.0251 -4.0125  0.1492
   85SOPE     N 7853   4.274   6.285   2.732 -0.6932  0.1852 -0.2360
   85SOPE   HN1 7854   4.193   6.298   2.796  1.5579  0.2516  2.8796
   85SOPE   HN2 7855   4.262   6.195   2.681  0.8172 -0.3650  0.3100
   85SOPE   HN3 7856   4.360   6.277   2.790 -0.4822  0.3019 -0.5323
   85SOPE   C12 7857   4.286   6.399   2.634  0.0585  0.6637  0.1010
   85SOPE  H12A 7858   4.318   6.489   2.691  1.6007 -0.9163  1.8753
   85SOPE  H12B 7859   4.185   6.426   2.597 -1.5456  0.6882  4.0701
   85SOPE   C11 7860   4.384   6.364   2.520  0.5678  0.0416  0.3200
   85SOPE  H11A 7861   4.475   6.331   2.574  0.2457 -3.8242 -1.1478
   85SOPE  H11B 7862   4.407   6.462   2.473  1.2168 -0.1855  0.1522
   85SOPE     P 7863   4.351   6.115   2.433 -0.0565 -0.1580 -0.2048
   85SOPE   O13 7864   4.288   6.048   2.315  0.0968  0.4722 -0.0857
   85SOPE   O14 7865   4.293   6.081   2.566  0.3843  0.4369  0.2033
   85SOPE   O12 7866   4.344   6.270   2.416  0.1572  0.1932 -0.0697
   85SOPE   O11 7867   4.509   6.087   2.441 -0.5592 -0.3980  0.6604
   85SOPE    C1 7868   4.570   5.996   2.522 -0.0278 -0.5336  0.0165
   85SOPE    HA 7869   4.653   5.942   2.472 -0.2422 -0.3273 -0.5624
   85SOPE    HB 7870   4.495   5.922   2.559 -1.8018  1.8435  1.4992
   85SOPE    C2 7871   4.626   6.065   2.647  0.3801  0.5867 -0.6211
   85SOPE    HS 7872   4.531   6.096   2.697 -1.0836 -0.5137 -2.5995
   85SOPE   O21 7873   4.700   6.185   2.613 -0.6157  0.1585  0.5976
   85SOPE   C21 7874   4.684   6.284   2.692  0.0714 -0.9810 -0.2044
   85SOPE   O22 7875   4.611   6.288   2.792 -0.0091 -0.0230  0.1494
   85SOPE   C22 7876   4.770   6.400   2.639 -0.2863 -0.4918  0.4130
   85SOPE   H2R 7877   4.706   6.490   2.627 -0.4970 -0.7843 -0.7688
   85SOPE   H2S 7878   4.812   6.371   2.540 -2.6502 -0.3387 -0.7026
   85SOPE    C3 7879   4.698   5.970   2.750 -0.3318  0.3714 -0.8389
   85SOPE    HX 7880   4.798   5.954   2.705 -0.8819 -0.8829 -1.6872
   85SOPE    HY 7881   4.657   5.867   2.756  3.1547 -1.1803 -1.2129
   85SOPE   O31 7882   4.702   6.033   2.882  0.0511  0.4945  0.1715
   85SOPE   C31 7883   4.819   6.030   2.946  0.2142  0.8160  0.2671
   85SOPE   O32 7884   4.923   5.986   2.907 -0.3003 -0.0078 -0.2546
   85SOPE   C32 7885   4.797   6.081   3.082 -0.0910  0.2152 -0.2757
   85SOPE   H2X 7886   4.704   6.035   3.122 -1.1433  2.4063 -0.0620
   85SOPE   H2Y 7887   4.778   6.189   3.068  2.4285  1.1191  2.1889
   85SOPE   C23 7888   4.882   6.435   2.733 -0.1500  0.0533  0.0973
   85SOPE   H3R 7889   4.934   6.340   2.760  0.6532  0.6659  0.7497
   85SOPE   H3S 7890   4.845   6.484   2.826  0.6829  0.0982  0.4116
   85SOPE   C24 7891   4.996   6.522   2.678 -0.0647 -0.6522  0.3873
   85SOPE   H4R 7892   5.053   6.458   2.606  1.0821 -2.2949  2.6148
   85SOPE   H4S 7893   4.947   6.604   2.622  1.0752  0.0170  0.3249
   85SOPE   C25 7894   5.097   6.565   2.777 -0.7047  0.3094 -0.0206
   85SOPE   H5R 7895   5.052   6.611   2.867  1.0305 -0.0677  1.0889
   85SOPE   H5S 7896   5.136   6.468   2.814 -2.3797 -0.1469  0.6268
   85SOPE   C26 7897   5.217   6.642   2.737 -0.4322 -0.1270 -0.2285
   85SOPE   H6R 7898   5.274   6.604   2.651  0.8605 -1.0464  0.9970
   85SOPE   H6S 7899   5.188   6.747   2.712 -0.2630 -0.1259 -0.4166
   85SOPE   C27 7900   5.318   6.653   2.853 -0.1476 -0.4468  0.5360
   85SOPE   H7R 7901   5.271   6.694   2.945 -1.9446  0.1176 -0.5602
   85SOPE   H7S 7902   5.342   6.545   2.859 -3.6494 -1.3527  0.3708
   85SOPE   C28 7903   5.448   6.735   2.822 -0.1975 -0.4778 -0.1071
   85SOPE   H8R 7904   5.521   6.697   2.895 -1.7733 -2.3363  0.5930
   85SOPE   H8S 7905   5.487   6.707   2.721  2.6753  0.5859  0.6159
   85SOPE   C29 7906   5.454   6.886   2.849 -0.1795  0.7618 -0.0042
   85SOPE   H91 7907   5.374   6.951   2.810 -1.9094 -1.0368  0.3685
   85SOPE  C210 7908   5.550   6.955   2.919  0.5543 -0.1978  0.6407
   85SOPE  H101 7909   5.541   7.064   2.924 -0.7628 -0.3206  1.4950
   85SOPE  C211 7910   5.672   6.897   2.982 -0.6286  0.2731 -0.3275
   85SOPE  H11R 7911   5.757   6.967   2.966  0.7850 -0.9119  1.4773
   85SOPE  H11S 7912   5.687   6.798   2.936 -3.7531  0.6956 -2.5148
   85SOPE  C212 7913   5.675   6.890   3.139  0.0241 -0.0227  0.5408
   85SOPE  H12R 7914   5.657   6.990   3.185 -0.9522  0.5854 -1.0848
   85SOPE  H12S 7915   5.774   6.859   3.178  0.4729  0.0623 -0.5037
   85SOPE  C213 7916   5.569   6.789   3.202  0.1451  0.3952  0.1535
   85SOPE  H13R 7917   5.592   6.688   3.162  1.3290  0.7870 -0.1828
   85SOPE  H13S 7918   5.473   6.813   3.151  1.1568  2.0808 -1.0411
   85SOPE  C214 7919   5.561   6.786   3.354  0.0067  0.6418 -0.0448
   85SOPE  H14R 7920   5.467   6.729   3.372  0.3252  0.4759  1.1748
   85SOPE  H14S 7921   5.544   6.884   3.404  0.9877 -0.8261  3.5075
   85SOPE  C215 7922   5.677   6.716   3.425 -0.0167 -0.3923  0.0651
   85SOPE  H15R 7923   5.772   6.772   3.422 -1.0085  1.4003  0.6219
   85SOPE  H15S 7924   5.681   6.615   3.379 -2.4546 -1.1119  1.2517
   85SOPE  C216 7925   5.637   6.691   3.573  0.1342 -0.1777  0.0420
   85SOPE  H16R 7926   5.542   6.634   3.571  0.8260 -1.6481  2.9512
   85SOPE  H16S 7927   5.619   6.791   3.616 -0.1478  0.1133 -0.7442
   85SOPE  C217 7928   5.743   6.609   3.655 -0.1076 -0.1535  0.2391
   85SOPE  H17R 7929   5.842   6.658   3.648  0.1000 -0.2227  2.1477
   85SOPE  H17S 7930   5.746   6.502   3.625 -2.7894  0.3215 -2.2399
   85SOPE  C218 7931   5.704   6.630   3.796  0.2097  0.2291 -0.7055
   85SOPE  H18R 7932   5.598   6.606   3.815 -0.0989  1.8264 -0.2572
   85SOPE  H18S 7933   5.731   6.737   3.812 -1.2867  0.4883  0.2038
   85SOPE  H18T 7934   5.770   6.565   3.857  0.6086  2.2280  1.1353
   85SOPE   C33 7935   4.914   6.059   3.177  0.2124 -0.0807  0.0005
   85SOPE   H3X 7936   5.007   6.078   3.120  0.2912  1.2713  0.5518
   85SOPE   H3Y 7937   4.927   5.957   3.219  0.5082  0.4686  1.2846
   85SOPE   C34 7938   4.919   6.155   3.299  0.6178 -0.0919  0.9134
   85SOPE   H4X 7939   4.816   6.177   3.334 -1.0073 -1.9264 -2.3481
   85SOPE   H4Y 7940   4.959   6.256   3.276  4.3835 -1.1029  2.2096
   85SOPE   C35 7941   4.993   6.098   3.421 -0.2484  0.0759 -0.1350
   85SOPE   H5X 7942   5.103   6.090   3.408 -0.2185  0.6813 -0.3130
   85SOPE   H5Y 7943   4.973   5.990   3.437  1.9027 -0.3631 -0.1220
   85SOPE   C36 7944   4.964   6.173   3.556 -0.7151  0.1705  0.5371
   85SOPE   H6X 7945   4.856   6.169   3.583 -0.5884  1.8460  1.4709
   85SOPE   H6Y 7946   4.989   6.280   3.535  0.4871 -0.6705 -2.9457
   85SOPE   C37 7947   5.032   6.092   3.668  0.0960 -0.5376  0.1404
   85SOPE   H7X 7948   5.142   6.091   3.653  0.1786  1.8576  0.1593
   85SOPE   H7Y 7949   4.989   5.990   3.662 -2.0973  0.4024 -1.0952
   85SOPE   C38 7950   4.988   6.135   3.813 -0.3581 -0.2902  0.6282
   85SOPE   H8X 7951   4.878   6.119   3.814  0.1531 -5.5132  0.7739
   85SOPE   H8Y 7952   5.002   6.245   3.814  1.3629 -0.3998 -1.8401
   85SOPE   C39 7953   5.048   6.061   3.932  0.6119  0.2800  0.1323
   85SOPE   H9X 7954   5.153   6.042   3.900 -0.3439 -0.0333 -3.0850
   85SOPE   H9Y 7955   4.985   5.970   3.943  2.9055 -1.3498  0.5378
   85SOPE  C310 7956   5.031   6.139   4.063 -0.3910 -0.7325 -0.2124
   85SOPE  H10X 7957   4.944   6.205   4.043 -0.3093 -1.2966 -2.8111
   85SOPE  H10Y 7958   5.120   6.203   4.074  0.4845 -2.1746  1.7862
   85SOPE  C311 7959   5.015   6.050   4.188  0.5388 -0.4224 -0.2082
   85SOPE  H11X 7960   5.088   5.966   4.190  1.1404  0.1023  1.7490
   85SOPE  H11Y 7961   4.911   6.014   4.168 -0.4443  2.4046 -0.6381
   85SOPE  C312 7962   5.017   6.122   4.323 -0.0714 -0.3155  0.2652
   85SOPE  H12X 7963   4.931   6.192   4.327 -1.4845 -2.0349  1.8845
   85SOPE  H12Y 7964   5.111   6.181   4.327  0.5974 -1.1900 -1.4981
   85SOPE  C313 7965   5.005   6.025   4.437 -0.6260  0.1516 -0.2764
   85SOPE  H13X 7966   5.095   5.962   4.451 -1.0292 -0.3536  0.0745
   85SOPE  H13Y 7967   4.923   5.953   4.416 -1.8169  0.9875  1.2920
   85SOPE  C314 7968   4.974   6.105   4.564 -0.3014  0.2304 -0.1147
   85SOPE  H14X 7969   4.914   6.197   4.547 -1.3376 -0.5253 -0.6689
   85SOPE  H14Y 7970   5.071   6.148   4.595 -0.5560  1.2192 -0.6344
   85SOPE  C315 7971   4.920   6.021   4.681 -0.0147 -0.4268  0.4035
   85SOPE  H15X 7972   4.985   5.931   4.691 -0.8823 -1.0170  0.8253
   85SOPE  H15Y 7973   4.821   5.976   4.661 -0.0557 -1.1942  2.1042
   85SOPE  C316 7974   4.907   6.104   4.809  0.6307  1.0417  0.4725
   85SOPE  H16X 7975   4.836   6.188   4.789  0.8701  1.0783 -0.2679
   85SOPE  H16Y 7976   5.009   6.148   4.806 -0.1542  3.0248 -2.9910
   85SOPE  C317 7977   4.882   6.027   4.934  0.3663 -0.6861  0.5946
   85SOPE  H17X 7978   4.898   6.098   5.018  0.4599  1.4196 -1.1409
   85SOPE  H17Y 7979   4.948   5.938   4.943 -1.2015 -1.7859  1.9624
   85SOPE  C318 7980   4.734   5.980   4.939 -0.9263 -0.6007 -0.9074
   85SOPE  H18X 7981   4.719   5.944   5.043 -0.7419 -0.6346 -0.8932
   85SOPE  H18Y 7982   4.702   5.899   4.870 -1.6190 -2.6875  1.6911
   85SOPE  H18Z 7983   4.662   6.063   4.920  1.1112  1.1657 -1.3446
   86SOPE     N 7984   6.487   4.669   2.478  0.4437  0.1132 -0.0474
   86SOPE   HN1 7985   6.554   4.637   2.405  0.0484  2.5082 -1.5619
   86SOPE   HN2 7986   6.390   4.634   2.467  0.0585  0.8472  0.9034
   86SOPE   HN3 7987   6.497   4.771   2.465  0.5934  0.0334 -0.5680
   86SOPE   C12 7988   6.518   4.606   2.614  0.3095 -0.2851 -0.6562
   86SOPE  H12A 7989   6.593   4.674   2.660 -0.4218 -0.1500  0.3562
   86SOPE  H12B 7990   6.550   4.502   2.593 -1.2033 -0.6349 -1.3353
   86SOPE   C11 7991   6.390   4.604   2.704  0.6552  0.0414 -0.8994
   86SOPE  H11A 7992   6.354   4.703   2.741 -0.8901 -1.2562  1.3386
   86SOPE  H11B 7993   6.414   4.545   2.795 -1.2472  2.5261  1.3987
   86SOPE     P 7994   6.263   4.387   2.624  0.2085 -0.5527 -0.2240
   86SOPE   O13 7995   6.395   4.328   2.627 -0.3410  0.4321  0.0576
   86SOPE   O14 7996   6.175   4.342   2.509 -0.0697  0.2953 -0.6091
   86SOPE   O12 7997   6.277   4.544   2.620 -0.0778 -0.4312 -0.4655
   86SOPE   O11 7998   6.192   4.357   2.763  0.3165  0.2132 -0.5571
   86SOPE    C1 7999   6.099   4.452   2.815  0.0743  0.4824 -0.4599
   86SOPE    HA 8000   6.004   4.396   2.831  0.6907 -0.1995  0.9677
   86SOPE    HB 8001   6.080   4.543   2.755  0.3090  0.6955 -0.2141
   86SOPE    C2 8002   6.155   4.517   2.939  0.6702  0.0149 -0.6696
   86SOPE    HS 8003   6.253   4.567   2.929  1.2028 -1.1687 -1.5509
   86SOPE   O21 8004   6.148   4.424   3.043  0.3143  0.2220  0.2548
   86SOPE   C21 8005   6.247   4.435   3.135 -0.3301  0.0521  0.3361
   86SOPE   O22 8006   6.337   4.518   3.129 -0.1969  0.2540  0.2246
   86SOPE   C22 8007   6.227   4.323   3.242 -0.1845 -0.4935 -0.3009
   86SOPE   H2R 8008   6.119   4.300   3.250 -0.4049  0.4464 -0.5645
   86SOPE   H2S 8009   6.261   4.370   3.336  1.5430  0.6038 -1.4227
   86SOPE    C3 8010   6.050   4.632   2.974  0.3765 -0.0042  0.2101
   86SOPE    HX 8011   5.952   4.581   2.984  0.0026  0.7542  0.5032
   86SOPE    HY 8012   6.045   4.705   2.891  2.0575 -0.0354  0.0506
   86SOPE   O31 8013   6.085   4.706   3.093 -0.2436 -0.6896  0.5247
   86SOPE   C31 8014   6.191   4.784   3.077  0.4979  0.3695  0.2062
   86SOPE   O32 8015   6.248   4.801   2.971 -0.0741  0.1063 -0.0347
   86SOPE   C32 8016   6.239   4.851   3.205  0.5564 -0.2525  0.3810
   86SOPE   H2X 8017   6.349   4.837   3.208  0.5217 -0.4144  1.0523
   86SOPE   H2Y 8018   6.210   4.787   3.291 -0.4572 -1.8289 -1.0693
   86SOPE   C23 8019   6.314   4.194   3.218 -0.0422 -0.5955 -0.3491
   86SOPE   H3R 8020   6.413   4.237   3.195 -1.2727  1.9704 -1.1218
   86SOPE   H3S 8021   6.277   4.133   3.133 -1.0653 -1.2823  0.5506
   86SOPE   C24 8022   6.314   4.098   3.335  0.6480 -0.1117 -1.0580
   86SOPE   H4R 8023   6.356   4.151   3.424  0.6355 -1.3640 -0.2801
   86SOPE   H4S 8024   6.212   4.073   3.369  1.2033 -1.7598 -0.5326
   86SOPE   C25 8025   6.361   3.952   3.328  0.0392 -0.5371  0.5279
   86SOPE   H5R 8026   6.293   3.915   3.248 -1.6323  1.9201  0.6850
   86SOPE   H5S 8027   6.463   3.948   3.284 -0.1091  1.7544 -0.1704
   86SOPE   C26 8028   6.343   3.871   3.457 -0.3883  0.0872  0.4071
   86SOPE   H6R 8029   6.246   3.896   3.505 -1.1084 -1.0871 -0.3864
   86SOPE   H6S 8030   6.346   3.763   3.429  2.3252  0.3823 -0.7804
   86SOPE   C27 8031   6.448   3.900   3.562 -0.0854  0.2073 -0.4798
   86SOPE   H7R 8032   6.543   3.845   3.542 -0.2074  0.4226 -1.7533
   86SOPE   H7S 8033   6.469   4.008   3.550 -1.5230  0.8289  2.0316
   86SOPE   C28 8034   6.409   3.871   3.706  0.8805 -0.1244 -0.1845
   86SOPE   H8R 8035   6.310   3.920   3.717  0.2396 -1.6034  1.0362
   86SOPE   H8S 8036   6.388   3.762   3.713  0.7096 -0.0083  2.0088
   86SOPE   C29 8037   6.520   3.925   3.795  0.2643 -0.0732  0.8913
   86SOPE   H91 8038   6.521   4.030   3.826 -0.0784  0.8686 -1.9526
   86SOPE  C210 8039   6.621   3.840   3.828 -0.6586 -0.8174 -0.1566
   86SOPE  H101 8040   6.702   3.890   3.883  0.7240 -0.6300 -2.2843
   86SOPE  C211 8041   6.639   3.690   3.796  0.2043 -0.4063  0.2686
   86SOPE  H11R 8042   6.739   3.664   3.754  0.5324  0.6678  0.3499
   86SOPE  H11S 8043   6.566   3.664   3.717 -0.3049  2.2167 -0.2384
   86SOPE  C212 8044   6.605   3.606   3.916  0.2556  0.5408  0.1035
   86SOPE  H12R 8045   6.602   3.501   3.882  3.7492  0.8707 -1.6966
   86SOPE  H12S 8046   6.508   3.632   3.964  0.7048 -1.7943  2.5157
   86SOPE  C213 8047   6.694   3.616   4.038 -0.5575 -0.3250 -0.0661
   86SOPE  H13R 8048   6.666   3.709   4.092 -0.5659 -1.0764  1.2809
   86SOPE  H13S 8049   6.802   3.617   4.014  0.0389 -0.7751  2.3224
   86SOPE  C214 8050   6.674   3.504   4.148  0.0519 -0.1553  0.0828
   86SOPE  H14R 8051   6.711   3.406   4.110  2.0553  1.0901 -1.4033
   86SOPE  H14S 8052   6.569   3.486   4.179 -0.1668  0.4613 -0.2845
   86SOPE  C215 8053   6.754   3.527   4.276 -0.1991  0.6126  0.1880
   86SOPE  H15R 8054   6.723   3.618   4.332  3.1763  2.4050 -0.6133
   86SOPE  H15S 8055   6.859   3.547   4.248 -0.4867 -0.4957 -1.8905
   86SOPE  C216 8056   6.752   3.399   4.372 -0.0732 -0.1380 -0.5758
   86SOPE  H16R 8057   6.830   3.420   4.448  0.9960 -0.9216 -1.4082
   86SOPE  H16S 8058   6.797   3.319   4.309  0.5760  0.5559 -1.0108
   86SOPE  C217 8059   6.618   3.369   4.431  0.0765 -1.0708  0.3282
   86SOPE  H17R 8060   6.544   3.380   4.348  2.3722  0.0602 -1.6898
   86SOPE  H17S 8061   6.591   3.456   4.494 -1.3254 -0.0027 -1.6091
   86SOPE  C218 8062   6.620   3.234   4.504  0.3863 -0.1664 -0.5696
   86SOPE  H18R 8063   6.630   3.142   4.442 -1.3169 -2.6135  2.4929
   86SOPE  H18S 8064   6.523   3.217   4.555  0.0614 -2.4243 -1.7990
   86SOPE  H18T 8065   6.698   3.237   4.584  0.2527  1.8396 -0.4715
   86SOPE   C33 8066   6.193   4.998   3.224 -0.5077  0.3533 -0.0771
   86SOPE   H3X 8067   6.086   5.009   3.197 -0.1299  0.4759 -1.5976
   86SOPE   H3Y 8068   6.251   5.063   3.155 -1.0938  2.3651  1.2194
   86SOPE   C34 8069   6.231   5.052   3.363  0.6172 -0.2053 -0.0637
   86SOPE   H4X 8070   6.340   5.068   3.350  0.9031  0.2978  2.3475
   86SOPE   H4Y 8071   6.216   4.974   3.441  1.7385 -0.4163 -0.0386
   86SOPE   C35 8072   6.175   5.183   3.406  0.4330  0.3045  0.4959
   86SOPE   H5X 8073   6.066   5.162   3.407  0.6723 -1.0695 -0.0254
   86SOPE   H5Y 8074   6.191   5.257   3.324  1.3513  0.9496  1.2390
   86SOPE   C36 8075   6.222   5.228   3.544 -0.5233 -0.7807 -0.7116
   86SOPE   H6X 8076   6.186   5.332   3.559  2.9869  0.5022 -0.2811
   86SOPE   H6Y 8077   6.332   5.243   3.540 -0.4345  0.3695  2.7635
   86SOPE   C37 8078   6.181   5.138   3.659 -1.1497 -0.3600 -0.2237
   86SOPE   H7X 8079   6.241   5.044   3.653  0.9678  1.0065 -2.8679
   86SOPE   H7Y 8080   6.072   5.125   3.648 -0.8877 -1.1043 -2.4466
   86SOPE   C38 8081   6.204   5.197   3.800 -0.3023 -0.1198 -0.9278
   86SOPE   H8X 8082   6.167   5.301   3.793  2.5831  0.9838 -1.1763
   86SOPE   H8Y 8083   6.315   5.209   3.808 -0.1938 -1.4769 -0.0532
   86SOPE   C39 8084   6.154   5.122   3.933 -0.0167  0.0233 -0.0384
   86SOPE   H9X 8085   6.209   5.026   3.937  2.0803  1.0810 -1.5307
   86SOPE   H9Y 8086   6.044   5.108   3.932 -0.2032  1.3343 -0.2351
   86SOPE  C310 8087   6.184   5.214   4.054  0.0689 -0.7017  0.4358
   86SOPE  H10X 8088   6.122   5.306   4.057  0.2760 -0.5742  1.1090
   86SOPE  H10Y 8089   6.287   5.251   4.034 -0.5632  0.7902 -0.2537
   86SOPE  C311 8090   6.181   5.136   4.188 -0.1093  0.0914 -0.1186
   86SOPE  H11X 8091   6.237   5.041   4.179 -1.1417 -0.7846  1.9634
   86SOPE  H11Y 8092   6.075   5.114   4.215 -0.4025  0.9440 -0.5317
   86SOPE  C312 8093   6.219   5.218   4.308 -0.3185 -0.5485 -0.8447
   86SOPE  H12X 8094   6.139   5.295   4.319 -0.5099 -0.9353  0.5943
   86SOPE  H12Y 8095   6.314   5.273   4.289 -0.7938 -0.4998 -3.4177
   86SOPE  C313 8096   6.222   5.130   4.430 -0.4006 -0.5906 -0.3099
   86SOPE  H13X 8097   6.295   5.047   4.414  0.4505  0.3705 -1.6232
   86SOPE  H13Y 8098   6.123   5.085   4.448 -0.1613 -1.0093 -0.0295
   86SOPE  C314 8099   6.274   5.197   4.554  0.2639  0.3045 -0.2534
   86SOPE  H14X 8100   6.258   5.307   4.547  1.1177  0.4475 -0.0389
   86SOPE  H14Y 8101   6.383   5.178   4.558  0.5946  1.9891 -0.4080
   86SOPE  C315 8102   6.199   5.131   4.675 -0.0035  1.0022 -0.3577
   86SOPE  H15X 8103   6.090   5.140   4.653  0.0628 -0.3432 -1.4110
   86SOPE  H15Y 8104   6.237   5.189   4.762  1.4028  0.6186 -0.6873
   86SOPE  C316 8105   6.222   4.978   4.693  0.2188 -0.4989 -1.2154
   86SOPE  H16X 8106   6.188   4.939   4.595 -2.6269 -0.6316 -0.2724
   86SOPE  H16Y 8107   6.148   4.940   4.767 -0.5690 -0.3802 -1.9310
   86SOPE  C317 8108   6.361   4.916   4.727  0.7093  0.1765  0.4153
   86SOPE  H17X 8109   6.388   4.948   4.830 -0.8416  2.5959  0.1592
   86SOPE  H17Y 8110   6.435   4.971   4.665 -0.4872  0.7742 -0.5248
   86SOPE  C318 8111   6.363   4.758   4.710  0.5043 -0.4019  0.4628
   86SOPE  H18X 8112   6.459   4.715   4.744  1.6984  0.6389 -1.4496
   86SOPE  H18Y 8113   6.342   4.723   4.606  0.7740 -1.0900  0.6305
   86SOPE  H18Z 8114   6.286   4.710   4.775 -0.5322 -1.2657 -1.3005
   87SOPE     N 8115   1.426   3.543   2.732  0.0307 -0.0788 -0.1346
   87SOPE   HN1 8116   1.388   3.475   2.801  0.2792  1.0343  1.1646
   87SOPE   HN2 8117   1.499   3.599   2.782 -0.3690  1.1006 -0.8339
   87SOPE   HN3 8118   1.347   3.606   2.707  0.3015  0.3231  0.0078
   87SOPE   C12 8119   1.480   3.474   2.615 -0.6770  0.1883  0.6047
   87SOPE  H12A 8120   1.559   3.402   2.646  0.4158  0.8020 -0.6396
   87SOPE  H12B 8121   1.525   3.555   2.553 -0.2556 -1.1995 -0.9663
   87SOPE   C11 8122   1.377   3.399   2.521  0.4506  0.0471 -0.2230
   87SOPE  H11A 8123   1.313   3.336   2.586 -2.4218  1.2820 -1.6311
   87SOPE  H11B 8124   1.447   3.334   2.464  0.4982 -0.5602  0.5188
   87SOPE     P 8125   1.153   3.543   2.472 -0.4114  0.0103  0.0010
   87SOPE   O13 8126   1.060   3.433   2.464 -0.2657 -0.1755 -0.3006
   87SOPE   O14 8127   1.122   3.666   2.399  0.1173  0.7903  0.3568
   87SOPE   O12 8128   1.300   3.493   2.440  0.3285 -0.0909  0.2271
   87SOPE   O11 8129   1.171   3.571   2.626  0.5086  0.0856  0.2800
   87SOPE    C1 8130   1.061   3.585   2.711  0.5341  0.1975  0.7804
   87SOPE    HA 8131   0.964   3.552   2.668  1.3006 -2.5271  0.9541
   87SOPE    HB 8132   1.044   3.690   2.745 -1.4553  0.1547  0.0593
   87SOPE    C2 8133   1.088   3.525   2.851 -0.2269  0.6177  0.0292
   87SOPE    HS 8134   1.000   3.531   2.919  0.3783 -1.5696  1.0896
   87SOPE   O21 8135   1.203   3.583   2.906  0.0393  0.3276 -0.5080
   87SOPE   C21 8136   1.167   3.690   2.982 -0.2809  0.6137 -0.0408
   87SOPE   O22 8137   1.054   3.730   3.002  0.3312  0.0184  0.5609
   87SOPE   C22 8138   1.291   3.750   3.025  0.0347  0.0827 -0.4963
   87SOPE   H2R 8139   1.297   3.852   2.981  1.1847  0.1773 -0.1610
   87SOPE   H2S 8140   1.379   3.689   2.997 -0.7408 -0.1345 -2.6266
   87SOPE    C3 8141   1.113   3.374   2.858 -0.3117 -0.3756  0.5795
   87SOPE    HX 8142   1.176   3.333   2.776  0.5745 -0.2946  1.2026
   87SOPE    HY 8143   1.016   3.325   2.836 -0.3354  0.3917 -1.1583
   87SOPE   O31 8144   1.152   3.332   2.990  0.7285  0.1699 -0.2457
   87SOPE   C31 8145   1.281   3.325   3.008 -0.2413  0.0207  0.4604
   87SOPE   O32 8146   1.365   3.365   2.929 -0.4641  0.1936  0.5822
   87SOPE   C32 8147   1.302   3.281   3.152  0.3955 -0.1020  0.3923
   87SOPE   H2X 8148   1.324   3.172   3.155  0.5044 -0.0675  0.9056
   87SOPE   H2Y 8149   1.216   3.303   3.218 -0.7849 -1.0795 -0.7519
   87SOPE   C23 8150   1.305   3.770   3.181 -0.2934  0.1339 -0.3836
   87SOPE   H3R 8151   1.306   3.665   3.218 -0.7921  0.2271 -0.1107
   87SOPE   H3S 8152   1.222   3.826   3.228  0.7321 -0.4633  2.3194
   87SOPE   C24 8153   1.438   3.830   3.222 -0.1815  1.0063  0.2994
   87SOPE   H4R 8154   1.516   3.767   3.174 -0.6300  0.7852 -0.1374
   87SOPE   H4S 8155   1.445   3.935   3.186  0.3591  0.2701 -1.9059
   87SOPE   C25 8156   1.453   3.829   3.377  0.0101  0.1569  0.3554
   87SOPE   H5R 8157   1.414   3.924   3.419  1.0861  1.0570 -0.5904
   87SOPE   H5S 8158   1.401   3.737   3.408  1.6452 -1.2724 -0.9309
   87SOPE   C26 8159   1.595   3.823   3.428  0.0668  0.1984  0.6642
   87SOPE   H6R 8160   1.620   3.716   3.447 -1.8522 -0.8462 -1.9969
   87SOPE   H6S 8161   1.667   3.855   3.350 -1.0147  1.6364  0.2281
   87SOPE   C27 8162   1.620   3.920   3.545  1.2485  0.2108 -0.0493
   87SOPE   H7R 8163   1.723   3.894   3.576  0.0952 -2.3998  2.0544
   87SOPE   H7S 8164   1.624   4.023   3.504  0.4812 -0.2882 -1.4461
   87SOPE   C28 8165   1.527   3.895   3.669  0.0655  0.5620  0.3714
   87SOPE   H8R 8166   1.419   3.913   3.649  0.3799  3.0754  0.6003
   87SOPE   H8S 8167   1.537   3.788   3.695 -3.2288  0.0586  0.0183
   87SOPE   C29 8168   1.571   3.992   3.774 -0.8882 -0.2552 -0.7088
   87SOPE   H91 8169   1.618   4.085   3.738  2.1539 -0.4030  2.4186
   87SOPE  C210 8170   1.567   3.969   3.905 -0.7553 -0.1392  0.3473
   87SOPE  H101 8171   1.616   4.051   3.961  0.3915 -1.0170  0.6671
   87SOPE  C211 8172   1.524   3.853   3.989 -0.6446  0.1885  0.1006
   87SOPE  H11R 8173   1.587   3.766   3.961 -1.2598 -1.1347  2.4990
   87SOPE  H11S 8174   1.419   3.824   3.964  0.7329 -2.3752 -3.5753
   87SOPE  C212 8175   1.541   3.865   4.139  0.2178 -0.1483 -0.2442
   87SOPE  H12R 8176   1.471   3.944   4.174  2.2622  1.9075 -0.5598
   87SOPE  H12S 8177   1.643   3.904   4.156  1.0280 -2.1349 -0.2713
   87SOPE  C213 8178   1.528   3.737   4.218 -0.0169 -0.2847  0.0293
   87SOPE  H13R 8179   1.580   3.656   4.161  0.7881  0.1877  0.0794
   87SOPE  H13S 8180   1.421   3.708   4.226 -0.3041  0.2321 -1.5181
   87SOPE  C214 8181   1.585   3.746   4.360 -0.3412 -0.3411  0.1083
   87SOPE  H14R 8182   1.539   3.838   4.402 -0.1130 -0.6958  1.1685
   87SOPE  H14S 8183   1.695   3.756   4.350 -0.1466 -2.3610 -0.2013
   87SOPE  C215 8184   1.549   3.626   4.451 -0.1773 -0.6448 -0.4846
   87SOPE  H15R 8185   1.630   3.615   4.526  1.5389 -1.3566 -2.3665
   87SOPE  H15S 8186   1.541   3.529   4.398 -0.9953 -0.0914 -1.4134
   87SOPE  C216 8187   1.424   3.661   4.534 -0.5023 -0.8732  0.8960
   87SOPE  H16R 8188   1.349   3.718   4.474  2.0307 -0.7210 -2.4404
   87SOPE  H16S 8189   1.451   3.722   4.622 -0.2316  0.3907 -0.0282
   87SOPE  C217 8190   1.355   3.536   4.600  0.3441 -0.1643 -0.3551
   87SOPE  H17R 8191   1.300   3.489   4.515  0.4253 -1.0850  0.0945
   87SOPE  H17S 8192   1.271   3.563   4.667  1.8609 -1.6865  2.3243
   87SOPE  C218 8193   1.444   3.438   4.672  0.7805  0.6890  0.2518
   87SOPE  H18R 8194   1.516   3.388   4.604  3.6453  4.9798 -0.2036
   87SOPE  H18S 8195   1.383   3.365   4.729  0.4306 -1.5366 -2.7107
   87SOPE  H18T 8196   1.512   3.486   4.745  0.8270  0.7311  0.1813
   87SOPE   C33 8197   1.441   3.333   3.189 -0.1162  0.3710 -0.0437
   87SOPE   H3X 8198   1.443   3.444   3.179 -1.8258  0.2230 -3.1150
   87SOPE   H3Y 8199   1.517   3.281   3.128  0.0615  2.8324 -2.0500
   87SOPE   C34 8200   1.463   3.303   3.336 -0.1902  0.0170  0.3314
   87SOPE   H4X 8201   1.480   3.193   3.347 -1.3449 -0.0804  1.4099
   87SOPE   H4Y 8202   1.365   3.312   3.389 -0.0700 -0.0946  0.5745
   87SOPE   C35 8203   1.545   3.403   3.415  0.0891  0.6409 -0.3017
   87SOPE   H5X 8204   1.507   3.506   3.397  0.5902  0.7792 -0.5785
   87SOPE   H5Y 8205   1.652   3.401   3.384 -0.1520 -0.1652 -1.1292
   87SOPE   C36 8206   1.550   3.369   3.564 -0.7914  0.1276 -0.3885
   87SOPE   H6X 8207   1.448   3.380   3.607 -0.4385  0.6032  0.3563
   87SOPE   H6Y 8208   1.596   3.463   3.602  0.0400 -0.1923 -0.5656
   87SOPE   C37 8209   1.635   3.255   3.618  0.7731 -0.4155 -0.3253
   87SOPE   H7X 8210   1.736   3.272   3.574  1.8601 -1.4189  1.6833
   87SOPE   H7Y 8211   1.597   3.163   3.568 -1.3608  1.3727 -2.2205
   87SOPE   C38 8212   1.627   3.235   3.770 -1.4498 -0.2756  0.3052
   87SOPE   H8X 8213   1.526   3.207   3.809 -0.2977 -3.1400  1.5234
   87SOPE   H8Y 8214   1.662   3.331   3.812  0.5351 -0.5499 -0.6273
   87SOPE   C39 8215   1.723   3.120   3.815 -0.1872  0.5512  0.0286
   87SOPE   H9X 8216   1.816   3.118   3.754 -1.3190 -0.7594 -1.7507
   87SOPE   H9Y 8217   1.677   3.028   3.773  2.0247  0.1600 -1.7296
   87SOPE  C310 8218   1.759   3.116   3.965  0.1372  0.2297  0.2538
   87SOPE  H10X 8219   1.667   3.097   4.025  0.8837 -0.2679  1.2880
   87SOPE  H10Y 8220   1.801   3.214   3.996  0.4287  0.5471 -1.0948
   87SOPE  C311 8221   1.866   3.009   4.000  0.4475 -0.8663 -0.1245
   87SOPE  H11X 8222   1.959   3.015   3.938  0.5310  0.7855  0.1171
   87SOPE  H11Y 8223   1.821   2.908   4.000 -0.7129 -0.3778  1.3395
   87SOPE  C312 8224   1.901   3.030   4.149 -1.1390  0.1667 -0.3393
   87SOPE  H12X 8225   1.823   2.998   4.221 -0.2187  0.9447  1.0473
   87SOPE  H12Y 8226   1.918   3.138   4.171 -1.6496 -0.0838  1.4484
   87SOPE  C313 8227   2.025   2.941   4.197  0.3612 -0.0740  0.6882
   87SOPE  H13X 8228   2.049   2.958   4.304  0.4292  1.6726  0.4327
   87SOPE  H13Y 8229   2.123   2.970   4.152 -1.2844  2.6624 -1.4718
   87SOPE  C314 8230   2.002   2.793   4.179  0.9812  0.1002  0.3945
   87SOPE  H14X 8231   1.974   2.773   4.073 -1.5240 -1.0337  1.2055
   87SOPE  H14Y 8232   1.909   2.765   4.232  1.2892  1.4509  1.7118
   87SOPE  C315 8233   2.122   2.700   4.208 -0.5320  0.1098 -0.4776
   87SOPE  H15X 8234   2.117   2.674   4.316  2.2503 -0.5060 -0.4210
   87SOPE  H15Y 8235   2.216   2.756   4.188 -0.9434  1.2949  0.7472
   87SOPE  C316 8236   2.122   2.564   4.139  0.6205 -0.0694  0.1435
   87SOPE  H16X 8237   2.177   2.487   4.198 -1.2828 -1.9767 -0.4689
   87SOPE  H16Y 8238   2.175   2.571   4.042  1.9146  0.5897  0.8557
   87SOPE  C317 8239   1.976   2.514   4.110  0.2533  0.1337  0.4223
   87SOPE  H17X 8240   1.953   2.571   4.017  1.4351  1.5018  0.9200
   87SOPE  H17Y 8241   1.915   2.548   4.196 -0.4284 -0.4193  0.1627
   87SOPE  C318 8242   1.985   2.361   4.081  0.4786  0.1975  0.4299
   87SOPE  H18X 8243   2.028   2.301   4.164  2.2824  1.1846  0.2541
   87SOPE  H18Y 8244   2.039   2.343   3.986  3.2926  0.0244  1.9582
   87SOPE  H18Z 8245   1.879   2.329   4.065  0.2899 -1.0588  3.4183
   88SOPE     N 8246   2.770   3.883   2.584  0.3742  0.3174 -0.0424
   88SOPE   HN1 8247   2.671   3.908   2.565 -0.1867  0.7771  3.0516
   88SOPE   HN2 8248   2.782   3.896   2.686  0.8098  1.6807 -0.2449
   88SOPE   HN3 8249   2.834   3.952   2.538 -1.2890  1.6129 -0.4918
   88SOPE   C12 8250   2.797   3.744   2.555  0.6809 -0.7500  0.4776
   88SOPE  H12A 8251   2.774   3.716   2.450 -1.3003 -1.0329  0.9493
   88SOPE  H12B 8252   2.728   3.686   2.619 -0.4308 -1.1402 -1.0264
   88SOPE   C11 8253   2.951   3.720   2.578  0.0962  0.0481 -0.7510
   88SOPE  H11A 8254   2.975   3.613   2.558 -2.0489 -0.4693 -0.7816
   88SOPE  H11B 8255   2.963   3.742   2.686  0.1038  2.0373 -1.1338
   88SOPE     P 8256   3.196   3.801   2.519 -0.3209  0.0992  0.6217
   88SOPE   O13 8257   3.250   3.857   2.393  0.1891  0.8100 -0.2658
   88SOPE   O14 8258   3.226   3.660   2.536  0.8340  0.4648 -0.4117
   88SOPE   O12 8259   3.043   3.823   2.521  0.6378  0.1922 -0.1178
   88SOPE   O11 8260   3.248   3.891   2.644  0.5996  0.2242  0.3050
   88SOPE    C1 8261   3.224   4.035   2.641 -0.3187  0.5171 -0.2911
   88SOPE    HA 8262   3.118   4.062   2.621 -1.1510 -1.9248  0.4122
   88SOPE    HB 8263   3.297   4.075   2.568  1.5889 -0.6666  0.8845
   88SOPE    C2 8264   3.265   4.093   2.779  0.1575  0.2381 -0.2818
   88SOPE    HS 8265   3.355   4.038   2.812 -0.9759 -1.6119 -0.1367
   88SOPE   O21 8266   3.152   4.067   2.862  0.6748  0.0429  0.1449
   88SOPE   C21 8267   3.173   4.062   2.992  0.4790  0.2480  0.0604
   88SOPE   O22 8268   3.275   4.090   3.048  0.3540 -0.5804 -0.5270
   88SOPE   C22 8269   3.053   3.998   3.061 -0.1767 -0.0952 -0.1497
   88SOPE   H2R 8270   2.994   3.941   2.987 -0.2540  0.1846 -0.3037
   88SOPE   H2S 8271   2.985   4.073   3.107 -1.2692 -2.0065  1.5495
   88SOPE    C3 8272   3.289   4.249   2.765 -0.3339 -0.4102 -0.4424
   88SOPE    HX 8273   3.209   4.311   2.719  0.0239  1.1496  0.9616
   88SOPE    HY 8274   3.371   4.245   2.690 -0.3880 -0.0322 -0.5225
   88SOPE   O31 8275   3.326   4.309   2.894  0.2710 -0.0118 -0.0121
   88SOPE   C31 8276   3.448   4.348   2.917  0.3618  0.2126 -0.4347
   88SOPE   O32 8277   3.541   4.328   2.840 -0.0782  0.5677 -0.6575
   88SOPE   C32 8278   3.454   4.414   3.060 -0.0873 -0.6426  0.8184
   88SOPE   H2X 8279   3.476   4.338   3.138 -0.4689 -0.3654  1.2007
   88SOPE   H2Y 8280   3.360   4.471   3.073 -0.6044 -1.0528 -0.8827
   88SOPE   C23 8281   3.081   3.903   3.178 -0.4945 -0.3655  0.3466
   88SOPE   H3R 8282   3.173   3.842   3.165  0.1791  0.9729 -1.7002
   88SOPE   H3S 8283   2.992   3.837   3.176  1.0417 -2.5542 -1.6310
   88SOPE   C24 8284   3.105   3.972   3.314  0.4660 -0.6633 -0.7538
   88SOPE   H4R 8285   3.205   4.021   3.319  0.2991 -0.4095  0.8081
   88SOPE   H4S 8286   3.026   4.049   3.321  1.5119  0.4602 -1.0862
   88SOPE   C25 8287   3.075   3.874   3.420 -0.3825  0.2586 -0.0742
   88SOPE   H5R 8288   2.970   3.839   3.414  0.1895 -1.5476 -0.0219
   88SOPE   H5S 8289   3.140   3.786   3.399 -1.2771 -1.0660  2.3109
   88SOPE   C26 8290   3.098   3.924   3.567  0.1695 -0.1208  0.6591
   88SOPE   H6R 8291   3.206   3.943   3.587  0.6822 -2.0114 -0.1097
   88SOPE   H6S 8292   3.041   4.018   3.586 -0.1832  0.3669 -2.2956
   88SOPE   C27 8293   3.049   3.811   3.668  0.1292  0.3038 -0.5987
   88SOPE   H7R 8294   2.948   3.783   3.634  1.6926 -1.5333 -4.3546
   88SOPE   H7S 8295   3.116   3.725   3.646  0.8496  0.7814 -0.3017
   88SOPE   C28 8296   3.039   3.847   3.819 -0.5870 -0.8323  0.2316
   88SOPE   H8R 8297   3.143   3.854   3.857 -0.2195  0.7066 -0.9502
   88SOPE   H8S 8298   2.992   3.948   3.817  1.0011 -0.0641 -0.4621
   88SOPE   C29 8299   2.964   3.746   3.910 -0.0910 -0.3599  0.1086
   88SOPE   H91 8300   2.855   3.755   3.897 -0.1308 -1.2905 -0.2681
   88SOPE  C210 8301   3.017   3.667   3.997  0.4589 -0.4725  0.2175
   88SOPE  H101 8302   2.946   3.599   4.045 -1.5699  1.6199  0.3615
   88SOPE  C211 8303   3.159   3.638   4.005 -0.8158  0.6476 -0.0621
   88SOPE  H11R 8304   3.204   3.654   3.905  1.7281  0.9099  1.0458
   88SOPE  H11S 8305   3.175   3.530   4.026 -0.3625  0.7745  0.2573
   88SOPE  C212 8306   3.231   3.720   4.111 -0.4737 -0.0421 -0.1358
   88SOPE  H12R 8307   3.202   3.676   4.209 -0.1839  0.1967  0.0604
   88SOPE  H12S 8308   3.194   3.825   4.102 -0.5320 -0.0535 -0.0306
   88SOPE  C213 8309   3.387   3.724   4.095 -0.6208  0.1384 -0.1364
   88SOPE  H13R 8310   3.410   3.774   3.999 -3.4185  1.5689 -0.1577
   88SOPE  H13S 8311   3.428   3.620   4.095  0.5988  0.6028  0.5027
   88SOPE  C214 8312   3.457   3.812   4.203 -0.4598  0.1382  0.5564
   88SOPE  H14R 8313   3.425   3.918   4.196  1.3797  0.7846  1.1234
   88SOPE  H14S 8314   3.565   3.802   4.177 -0.7011 -0.4400 -0.2455
   88SOPE  C215 8315   3.441   3.769   4.343 -0.8072 -0.2080 -0.5178
   88SOPE  H15R 8316   3.343   3.721   4.359 -1.7552  0.4936 -3.5832
   88SOPE  H15S 8317   3.471   3.847   4.416  1.7984  0.6187 -2.2900
   88SOPE  C216 8318   3.546   3.659   4.377  0.3781  0.2012  0.0437
   88SOPE  H16R 8319   3.643   3.713   4.368 -0.0172  1.1888  1.3077
   88SOPE  H16S 8320   3.539   3.574   4.306 -0.6172  0.1784  0.1555
   88SOPE  C217 8321   3.555   3.608   4.517  0.0523 -0.5733  0.2132
   88SOPE  H17R 8322   3.464   3.545   4.530 -0.2003  0.0477  1.6626
   88SOPE  H17S 8323   3.559   3.683   4.599 -1.1897  0.9973 -1.1241
   88SOPE  C218 8324   3.685   3.526   4.532 -0.7442 -0.2556  0.1208
   88SOPE  H18R 8325   3.687   3.473   4.630 -0.5096 -0.7832 -0.1683
   88SOPE  H18S 8326   3.763   3.604   4.537  0.1463 -1.0595 -0.8372
   88SOPE  H18T 8327   3.690   3.452   4.449  0.8070 -0.9417  0.7946
   88SOPE   C33 8328   3.580   4.504   3.064 -0.6617 -0.7235  0.8678
   88SOPE   H3X 8329   3.572   4.582   2.985 -0.4922 -1.2909  0.2812
   88SOPE   H3Y 8330   3.667   4.438   3.043 -0.7593 -0.7180  0.4263
   88SOPE   C34 8331   3.594   4.582   3.191 -0.1076 -0.2922 -0.0217
   88SOPE   H4X 8332   3.503   4.645   3.200 -1.0297 -1.6433  0.3294
   88SOPE   H4Y 8333   3.687   4.642   3.181  0.9180 -2.0431 -1.6635
   88SOPE   C35 8334   3.615   4.488   3.308  0.1978  0.0038  0.6414
   88SOPE   H5X 8335   3.683   4.407   3.275 -1.0527 -0.8948  0.1772
   88SOPE   H5Y 8336   3.517   4.450   3.343 -0.1333  1.3109  1.1970
   88SOPE   C36 8337   3.661   4.563   3.426 -0.1743  0.1530 -0.5515
   88SOPE   H6X 8338   3.585   4.642   3.445  0.8008  1.1187 -0.6093
   88SOPE   H6Y 8339   3.752   4.623   3.404  0.3205 -0.4196 -0.0746
   88SOPE   C37 8340   3.694   4.485   3.554  0.2349  0.7679 -0.0595
   88SOPE   H7X 8341   3.784   4.423   3.535  0.5448  1.4417 -0.8313
   88SOPE   H7Y 8342   3.616   4.413   3.587  2.2456 -1.1874  0.7051
   88SOPE   C38 8343   3.720   4.580   3.677  0.4387  0.2873 -0.1352
   88SOPE   H8X 8344   3.636   4.648   3.702  0.6467 -0.0192  1.4852
   88SOPE   H8Y 8345   3.806   4.644   3.649 -0.4624  0.8463 -1.7917
   88SOPE   C39 8346   3.737   4.493   3.804 -0.0817  0.1677 -0.2660
   88SOPE   H9X 8347   3.814   4.417   3.781 -2.0253 -1.2701 -2.4145
   88SOPE   H9Y 8348   3.649   4.429   3.825 -0.4500 -0.1457 -2.5170
   88SOPE  C310 8349   3.759   4.572   3.934  0.1877 -0.0804 -0.1865
   88SOPE  H10X 8350   3.666   4.618   3.976  0.9671  0.8970  0.5085
   88SOPE  H10Y 8351   3.839   4.649   3.927 -0.9931  1.3960  1.4490
   88SOPE  C311 8352   3.794   4.481   4.054 -0.8121 -0.4724  0.2586
   88SOPE  H11X 8353   3.883   4.421   4.027 -0.7392 -0.5606  0.7025
   88SOPE  H11Y 8354   3.710   4.413   4.079 -0.5596 -1.4903 -1.5018
   88SOPE  C312 8355   3.829   4.564   4.176 -0.1244  0.5191  0.0298
   88SOPE  H12X 8356   3.744   4.630   4.204  0.4292  0.6503  1.5082
   88SOPE  H12Y 8357   3.913   4.627   4.141 -1.3845  1.3440 -1.6174
   88SOPE  C313 8358   3.869   4.476   4.297 -0.1010 -0.5725 -0.0765
   88SOPE  H13X 8359   3.915   4.383   4.256  0.8048  0.0117 -0.4256
   88SOPE  H13Y 8360   3.770   4.447   4.338 -1.2694 -0.3591 -2.5696
   88SOPE  C314 8361   3.954   4.554   4.399 -0.6522 -0.2395  0.6136
   88SOPE  H14X 8362   3.899   4.643   4.438 -1.0053  0.1193 -0.6267
   88SOPE  H14Y 8363   4.042   4.603   4.351 -1.5026  1.4355  0.6733
   88SOPE  C315 8364   4.004   4.470   4.515  0.0561  0.0892 -0.4665
   88SOPE  H15X 8365   4.076   4.394   4.475  1.7395  0.5818  1.4573
   88SOPE  H15Y 8366   3.915   4.423   4.562  0.2326  0.0962 -0.1216
   88SOPE  C316 8367   4.065   4.548   4.626  0.2883  0.0788 -0.2098
   88SOPE  H16X 8368   3.990   4.619   4.669 -0.0381 -0.6954  0.5207
   88SOPE  H16Y 8369   4.152   4.603   4.586  0.5073  2.4440  3.0217
   88SOPE  C317 8370   4.122   4.465   4.746  0.6896  0.6396 -0.3690
   88SOPE  H17X 8371   4.210   4.408   4.708  1.2836 -0.5995  2.6180
   88SOPE  H17Y 8372   4.051   4.390   4.786  0.6767  1.0077  0.3238
   88SOPE  C318 8373   4.162   4.556   4.858 -0.0124  0.6214  0.3510
   88SOPE  H18X 8374   4.240   4.499   4.912 -0.6183 -1.5798 -0.9702
   88SOPE  H18Y 8375   4.084   4.589   4.929 -0.8479 -1.5439  0.5005
   88SOPE  H18Z 8376   4.234   4.631   4.818  0.3729  0.7167  1.1967
   89SAPC     N 8377   5.940   4.918   7.310  0.3258  0.2772  0.3464
   89SAPC   C12 8378   5.912   4.989   7.178 -0.6937 -0.1717 -0.0299
   89SAPC  H12A 8379   5.983   5.070   7.165 -1.2608  0.1047 -1.6550
   89SAPC  H12B 8380   5.817   5.040   7.189  0.6317  2.0102  2.6458
   89SAPC   C13 8381   5.912   4.998   7.431 -0.0431 -0.3400 -0.2159
   89SAPC  H13A 8382   5.824   5.058   7.418  1.7447  1.9243 -3.3651
   89SAPC  H13B 8383   5.901   4.929   7.514  0.2993 -1.3484 -0.9818
   89SAPC  H13C 8384   5.993   5.062   7.464 -0.7298  0.2811  0.2885
   89SAPC   C14 8385   5.860   4.795   7.322 -0.5581  0.0834 -0.1663
   89SAPC  H14A 8386   5.881   4.725   7.242  1.9507 -3.2054  3.0200
   89SAPC  H14B 8387   5.881   4.742   7.415  0.4843 -0.1170 -0.4975
   89SAPC  H14C 8388   5.755   4.818   7.330 -0.9526 -1.4429 -0.5639
   89SAPC   C15 8389   6.082   4.879   7.316  0.0098 -0.6493 -0.1848
   89SAPC  H15A 8390   6.109   4.813   7.397  3.3878  1.4291  0.5795
   89SAPC  H15B 8391   6.101   4.821   7.227  0.2314 -0.5051 -0.2334
   89SAPC  H15C 8392   6.143   4.968   7.322 -1.4706  0.3306  0.9054
   89SAPC   C11 8393   5.901   4.912   7.048  1.0250  0.6156 -0.0639
   89SAPC  H11A 8394   5.909   4.979   6.959  1.8619 -0.4023 -0.7827
   89SAPC  H11B 8395   5.799   4.866   7.045  0.4884  1.6002  2.0305
   89SAPC     P 8396   6.136   4.820   6.958 -0.0137  0.0860 -0.1464
   89SAPC   O13 8397   6.166   4.963   6.939  0.0892  0.1107  0.2740
   89SAPC   O14 8398   6.235   4.749   7.041  0.1155 -0.4721  0.7535
   89SAPC   O12 8399   5.993   4.802   7.028 -0.4839  0.2737 -0.3729
   89SAPC   O11 8400   6.131   4.748   6.819  0.2895  0.2201 -0.0514
   89SAPC    C1 8401   6.027   4.647   6.792  0.3828 -0.8137 -0.3326
   89SAPC    HA 8402   6.071   4.563   6.734  1.6941 -0.3946  0.0245
   89SAPC    HB 8403   5.987   4.613   6.890  0.0715  2.2316  0.7172
   89SAPC    C2 8404   5.915   4.700   6.701 -0.7239  0.1868  0.2449
   89SAPC    HS 8405   5.910   4.637   6.609 -0.5597  2.0830 -1.1214
   89SAPC   O21 8406   5.922   4.838   6.662 -0.4972 -0.3149  0.6583
   89SAPC   C21 8407   6.030   4.864   6.578 -1.1203 -0.4176  0.1013
   89SAPC   O22 8408   6.103   4.777   6.533 -0.1241  0.9995 -0.9359
   89SAPC   C22 8409   6.044   5.012   6.562 -0.4023 -0.1197 -0.8325
   89SAPC   H2R 8410   5.951   5.053   6.517 -1.6186 -2.1183 -0.2066
   89SAPC   H2S 8411   6.051   5.058   6.663 -0.8519 -0.8531 -0.4656
   89SAPC    C3 8412   5.784   4.677   6.782  0.8702  0.5072  0.0671
   89SAPC    HX 8413   5.789   4.727   6.881  1.8049  1.6167 -0.5088
   89SAPC    HY 8414   5.788   4.567   6.800 -2.0398  0.0923 -1.2014
   89SAPC   O31 8415   5.669   4.729   6.703 -0.1753 -0.0622  0.1511
   89SAPC   C31 8416   5.613   4.637   6.621  0.3566  0.5760 -0.5950
   89SAPC   O32 8417   5.664   4.533   6.583 -0.5452  0.4896  0.1579
   89SAPC   C32 8418   5.467   4.671   6.583  0.0959  0.3147 -0.5342
   89SAPC   H2X 8419   5.421   4.751   6.645  0.6060  0.2597 -0.0817
   89SAPC   H2Y 8420   5.416   4.574   6.597  0.1945  0.0144 -2.0872
   89SAPC   C23 8421   6.169   5.056   6.476 -0.4293 -0.0478  1.0321
   89SAPC   H3R 8422   6.160   5.023   6.371 -0.3784  2.1033  0.3078
   89SAPC   H3S 8423   6.261   5.000   6.504  0.5579  0.9433 -0.1336
   89SAPC   C24 8424   6.174   5.211   6.488 -0.6442 -0.2277 -0.3693
   89SAPC   H4R 8425   6.096   5.247   6.558  0.7274  1.4151  0.3845
   89SAPC   H4S 8426   6.145   5.255   6.390 -0.6050  0.3558 -0.1194
   89SAPC   C25 8427   6.316   5.257   6.533  0.3988 -0.0714 -0.4418
   89SAPC   H5R 8428   6.327   5.261   6.642  1.9281  0.6147 -0.5927
   89SAPC   C26 8429   6.417   5.314   6.468 -0.3884 -0.0603  0.3470
   89SAPC   H6R 8430   6.501   5.338   6.534 -3.6677  0.7995  4.6949
   89SAPC   C27 8431   6.417   5.323   6.313 -0.5399  0.0176 -0.9153
   89SAPC   H7R 8432   6.351   5.250   6.260  1.9542 -1.0495 -2.7257
   89SAPC   H7S 8433   6.522   5.301   6.286 -0.8821  0.4349 -2.7731
   89SAPC   C28 8434   6.382   5.456   6.248 -0.4803  0.2748 -0.1425
   89SAPC   H8R 8435   6.414   5.542   6.308 -1.1119 -0.1818  0.8689
   89SAPC   C29 8436   6.331   5.474   6.128  0.0771 -0.3900  0.6261
   89SAPC   H9R 8437   6.320   5.580   6.102 -0.4214 -0.2151  1.5345
   89SAPC  C210 8438   6.276   5.381   6.021  0.3107  0.2570 -0.3860
   89SAPC  H10R 8439   6.172   5.414   6.002 -0.0264 -1.7753 -2.5846
   89SAPC  H10S 8440   6.265   5.274   6.048 -2.6313  0.8289  1.0503
   89SAPC  C211 8441   6.361   5.382   5.899  0.4863  0.3820 -0.0528
   89SAPC  H11R 8442   6.467   5.366   5.922  0.0191  0.9772  2.8719
   89SAPC  C212 8443   6.308   5.402   5.773 -0.9007 -0.5527 -0.7603
   89SAPC  H12R 8444   6.381   5.428   5.695  0.2155  2.2932  1.0581
   89SAPC  C213 8445   6.169   5.431   5.737 -0.2910  0.5297 -0.3641
   89SAPC  H13R 8446   6.106   5.461   5.823  0.1683  3.1060 -0.8303
   89SAPC  H13S 8447   6.123   5.334   5.709  1.9461 -0.7130 -0.0273
   89SAPC  C214 8448   6.167   5.524   5.619 -0.2126  0.0013 -0.3603
   89SAPC  H14R 8449   6.142   5.625   5.653  1.3371  0.4841 -0.5650
   89SAPC  C215 8450   6.195   5.501   5.487  0.9169 -0.3285 -0.1075
   89SAPC  H15R 8451   6.191   5.580   5.410 -0.4109  0.0060  0.2699
   89SAPC  C216 8452   6.248   5.367   5.437  0.4364  0.3461 -0.3310
   89SAPC  H16R 8453   6.205   5.286   5.501 -0.1707  2.1770  1.7146
   89SAPC  H16S 8454   6.359   5.373   5.442  0.6862 -1.4170 -2.2934
   89SAPC  C217 8455   6.218   5.336   5.292  0.2396  0.6106 -0.4962
   89SAPC  H17R 8456   6.252   5.231   5.281  0.0006  0.6556 -1.8642
   89SAPC  H17S 8457   6.285   5.399   5.229  2.0187  2.0206  2.5817
   89SAPC  C218 8458   6.077   5.349   5.252  0.3803 -0.4476 -0.3173
   89SAPC  H18R 8459   6.046   5.454   5.271 -1.9708 -0.7805 -1.8707
   89SAPC  H18S 8460   6.009   5.291   5.319 -1.6394 -0.1934 -2.0331
   89SAPC  C219 8461   6.049   5.329   5.101  0.0035 -0.1169  0.2979
   89SAPC  H19R 8462   6.068   5.220   5.091  0.1139 -0.0184 -0.5834
   89SAPC  H19S 8463   6.132   5.384   5.052 -0.3470  0.9591  0.8708
   89SAPC  C220 8464   5.919   5.371   5.043  0.6055  0.3068  0.1176
   89SAPC  H20R 8465   5.909   5.345   4.935 -1.6727  0.8091  0.1678
   89SAPC  H20S 8466   5.915   5.480   5.064 -1.0029  0.2443  0.2160
   89SAPC  H20T 8467   5.835   5.324   5.097 -0.6675  1.9957 -0.3269
   89SAPC   C33 8468   5.444   4.722   6.438  0.7122 -0.2533  0.6634
   89SAPC   H3X 8469   5.338   4.714   6.406  1.1306  3.0411 -2.2032
   89SAPC   H3Y 8470   5.509   4.659   6.374 -2.1544 -4.3713  1.4116
   89SAPC   C34 8471   5.470   4.876   6.414  0.1029  0.1018 -0.1780
   89SAPC   H4X 8472   5.572   4.900   6.452  0.4287 -0.5430 -0.6119
   89SAPC   H4Y 8473   5.393   4.925   6.476 -0.0668 -1.3188  0.7973
   89SAPC   C35 8474   5.439   4.921   6.269 -0.5077  0.3086 -0.6179
   89SAPC   H5X 8475   5.331   4.923   6.242 -0.5622  2.0514 -0.3459
   89SAPC   H5Y 8476   5.476   4.831   6.216  1.5657  0.3119  0.7455
   89SAPC   C36 8477   5.503   5.053   6.224  0.4986  0.2894 -0.1051
   89SAPC   H6X 8478   5.614   5.040   6.229  0.7051  2.1836  1.6033
   89SAPC   H6Y 8479   5.480   5.136   6.294  0.0180 -0.0528  0.1491
   89SAPC   C37 8480   5.450   5.100   6.090  0.1784 -0.0897 -0.0071
   89SAPC   H7X 8481   5.480   5.202   6.058 -1.8929  0.3861 -0.6414
   89SAPC   H7Y 8482   5.339   5.111   6.091  0.1947  2.1054 -3.4496
   89SAPC   C38 8483   5.479   5.001   5.983 -0.5556  0.0805  0.3199
   89SAPC   H8X 8484   5.446   4.896   6.000  0.2783 -0.6788 -2.2706
   89SAPC   H8Y 8485   5.590   4.995   5.980 -0.5008  0.2823  1.5562
   89SAPC   C39 8486   5.430   5.057   5.851 -0.4485 -1.1535 -0.3767
   89SAPC   H9X 8487   5.496   5.146   5.839  1.9205 -2.8779 -0.7877
   89SAPC   H9Y 8488   5.322   5.079   5.866 -0.0027  1.0428 -0.1061
   89SAPC  C310 8489   5.466   4.994   5.722 -0.0804  0.4635 -0.3059
   89SAPC  H10X 8490   5.577   4.982   5.723 -0.1891 -0.6896 -0.5189
   89SAPC  H10Y 8491   5.446   5.062   5.636  0.7796 -0.7308 -1.5113
   89SAPC  C311 8492   5.389   4.869   5.694  0.2318 -0.4204  0.0194
   89SAPC  H11X 8493   5.281   4.889   5.706  0.5322  0.7923  0.9411
   89SAPC  H11Y 8494   5.408   4.794   5.773  0.1539 -1.5429 -1.0093
   89SAPC  C312 8495   5.423   4.801   5.564 -0.6533 -0.8084 -0.3879
   89SAPC  H12X 8496   5.430   4.873   5.480  1.8593 -2.1260 -1.4116
   89SAPC  H12Y 8497   5.335   4.738   5.539 -0.0706 -1.3484 -1.1391
   89SAPC  C313 8498   5.551   4.723   5.568  0.4665  0.2863  0.3049
   89SAPC  H13X 8499   5.539   4.638   5.639  0.0906 -0.5298 -0.7081
   89SAPC  H13Y 8500   5.634   4.792   5.593  1.1268 -0.0913 -0.7791
   89SAPC  C314 8501   5.584   4.657   5.433 -0.3920 -0.6634  0.0574
   89SAPC  H14X 8502   5.602   4.739   5.360  0.7620 -0.8304  0.1443
   89SAPC  H14Y 8503   5.492   4.611   5.390 -1.7448  1.2057  0.7823
   89SAPC  C315 8504   5.696   4.556   5.435  0.3433  0.0828 -0.4261
   89SAPC  H15X 8505   5.670   4.471   5.502 -1.8794  1.1287  0.1292
   89SAPC  H15Y 8506   5.788   4.596   5.482 -0.1083 -0.6337  1.1645
   89SAPC  C316 8507   5.742   4.499   5.295  0.4227 -0.3951  0.2985
   89SAPC  H16X 8508   5.656   4.430   5.280 -1.0404  1.2975  0.4552
   89SAPC  H16Y 8509   5.828   4.429   5.302 -0.3173 -1.3760 -0.1832
   89SAPC  C317 8510   5.752   4.598   5.182  0.4369  0.5384  0.2269
   89SAPC  H17X 8511   5.817   4.685   5.208  0.3867  0.5647  0.2646
   89SAPC  H17Y 8512   5.649   4.632   5.157  0.8251  2.4296  1.0091
   89SAPC  C318 8513   5.812   4.520   5.055  0.4007 -0.1697 -0.0657
   89SAPC  H18X 8514   5.794   4.582   4.965  1.2077 -0.9819 -0.8028
   89SAPC  H18Y 8515   5.765   4.420   5.051  0.1943 -0.0265 -2.5447
   89SAPC  H18Z 8516   5.920   4.511   5.079  0.1198  1.6570  2.3489
   90SAPC     N 8517   1.859   0.612   7.353 -0.0711  0.0438 -0.0061
   90SAPC   C12 8518   1.730   0.635   7.432 -0.0753  0.3008 -0.6911
   90SAPC  H12A 8519   1.699   0.737   7.417 -0.7843  0.1708 -0.1180
   90SAPC  H12B 8520   1.756   0.637   7.537 -1.0643 -0.7758 -0.4091
   90SAPC   C13 8521   1.906   0.472   7.385 -0.4566 -0.0534  0.0760
   90SAPC  H13A 8522   1.834   0.404   7.342  0.1608 -1.7448  1.5838
   90SAPC  H13B 8523   2.004   0.443   7.350 -0.1368 -0.7626  1.4784
   90SAPC  H13C 8524   1.910   0.462   7.493  0.6412  1.0081  0.1514
   90SAPC   C14 8525   1.847   0.623   7.206  0.3875 -0.1440  0.1787
   90SAPC  H14A 8526   1.946   0.635   7.164  1.3463  2.3810  2.8384
   90SAPC  H14B 8527   1.790   0.541   7.164 -0.3305  0.8838 -0.9033
   90SAPC  H14C 8528   1.790   0.713   7.189 -0.3159 -0.6040  0.0481
   90SAPC   C15 8529   1.962   0.714   7.391  0.0139 -0.3259 -0.6035
   90SAPC  H15A 8530   2.053   0.693   7.337  0.6919  0.3708  0.2427
   90SAPC  H15B 8531   1.937   0.818   7.374 -0.3494 -0.2187  0.5104
   90SAPC  H15C 8532   1.980   0.706   7.497  0.2953  3.5861 -0.2317
   90SAPC   C11 8533   1.600   0.543   7.418 -0.0416  0.4702 -0.2362
   90SAPC  H11A 8534   1.538   0.563   7.508  1.0095  2.7697  0.0433
   90SAPC  H11B 8535   1.630   0.438   7.436 -1.6954 -0.0475 -0.2698
   90SAPC     P 8536   1.515   0.445   7.181  0.0867 -0.0294 -0.0898
   90SAPC   O13 8537   1.452   0.332   7.250 -0.3417  0.0809 -0.0387
   90SAPC   O14 8538   1.431   0.500   7.071  0.4304 -0.3753 -0.3157
   90SAPC   O12 8539   1.532   0.558   7.290 -0.1319 -0.1733  0.7554
   90SAPC   O11 8540   1.665   0.413   7.131 -0.1015 -0.6088 -0.1911
   90SAPC    C1 8541   1.699   0.282   7.095  0.1228  0.4357 -0.0047
   90SAPC    HA 8542   1.787   0.252   7.156  2.4509  0.6892 -2.9784
   90SAPC    HB 8543   1.619   0.206   7.104 -0.2868  0.9203  0.5053
   90SAPC    C2 8544   1.738   0.266   6.945 -0.4094 -0.9326  0.1729
   90SAPC    HS 8545   1.800   0.175   6.935 -1.1038 -1.3922  0.0046
   90SAPC   O21 8546   1.801   0.379   6.888  0.0675  0.1252 -0.7280
   90SAPC   C21 8547   1.920   0.397   6.910 -0.0839  0.4858  1.0060
   90SAPC   O22 8548   1.996   0.328   6.980 -0.2117 -0.5194  0.0387
   90SAPC   C22 8549   1.965   0.515   6.817  0.4462 -0.2009  0.2129
   90SAPC   H2R 8550   1.873   0.562   6.776 -0.8237 -0.1271  2.9429
   90SAPC   H2S 8551   2.020   0.589   6.878  0.8255  0.5484 -0.9972
   90SAPC    C3 8552   1.613   0.240   6.854 -0.0827  0.4147 -0.0975
   90SAPC    HX 8553   1.543   0.323   6.874 -0.5037  0.2767 -0.9318
   90SAPC    HY 8554   1.560   0.156   6.903  0.6150  0.3806  0.6207
   90SAPC   O31 8555   1.649   0.214   6.714  0.4535 -0.5801 -0.2428
   90SAPC   C31 8556   1.635   0.319   6.630  0.1432  0.1402 -0.1039
   90SAPC   O32 8557   1.594   0.429   6.662 -0.2529  0.1201  0.0145
   90SAPC   C32 8558   1.690   0.276   6.494 -0.0682  0.5573  0.9719
   90SAPC   H2X 8559   1.683   0.169   6.467 -0.5521  1.0375 -1.0360
   90SAPC   H2Y 8560   1.789   0.318   6.467  0.8950 -2.9530 -1.6242
   90SAPC   C23 8561   2.063   0.459   6.715  0.2062 -0.5506  0.6564
   90SAPC   H3R 8562   2.025   0.368   6.664  0.4711 -3.0333  4.4847
   90SAPC   H3S 8563   2.155   0.429   6.770 -1.0185 -0.8789  2.6010
   90SAPC   C24 8564   2.087   0.567   6.594  0.0382 -0.2336 -0.3417
   90SAPC   H4R 8565   2.121   0.659   6.647  1.5139 -1.0934  0.2565
   90SAPC   H4S 8566   1.988   0.605   6.559  0.6764  1.1933 -0.6686
   90SAPC   C25 8567   2.191   0.518   6.499  0.2410 -0.3099  0.0314
   90SAPC   H5R 8568   2.295   0.515   6.534  0.5763  2.1077 -0.6035
   90SAPC   C26 8569   2.167   0.499   6.366 -0.6715 -0.5680  0.3900
   90SAPC   H6R 8570   2.244   0.470   6.293 -0.7498 -1.1929  0.5475
   90SAPC   C27 8571   2.033   0.517   6.301  0.5840 -0.0100 -0.0930
   90SAPC   H7R 8572   1.989   0.605   6.352  2.7084  1.1413 -0.1354
   90SAPC   H7S 8573   1.961   0.433   6.307  0.2108  0.2657 -0.5985
   90SAPC   C28 8574   2.040   0.567   6.154  0.0018 -0.5855 -0.2406
   90SAPC   H8R 8575   1.988   0.505   6.080  1.1519 -2.3584  0.3690
   90SAPC   C29 8576   2.095   0.681   6.114 -0.2966 -0.0585 -0.4533
   90SAPC   H9R 8577   2.087   0.707   6.007 -1.3873 -2.0065 -0.8899
   90SAPC  C210 8578   2.181   0.770   6.207 -0.2050  0.1316 -0.6347
   90SAPC  H10R 8579   2.185   0.738   6.313 -1.6550  0.8373 -0.3471
   90SAPC  H10S 8580   2.128   0.867   6.215  0.0608  0.1980  0.4509
   90SAPC  C211 8581   2.322   0.794   6.139  0.2021  0.3185  0.9831
   90SAPC  H11R 8582   2.319   0.813   6.031  1.7721 -0.7968  0.7081
   90SAPC  C212 8583   2.447   0.792   6.190  0.0516  0.0238 -0.3772
   90SAPC  H12R 8584   2.531   0.821   6.125  0.8896 -0.6111  0.3878
   90SAPC  C213 8585   2.485   0.758   6.331 -0.4340  0.3947  0.6880
   90SAPC  H13R 8586   2.392   0.774   6.390 -0.8616 -1.0623  0.4404
   90SAPC  H13S 8587   2.562   0.833   6.361  1.0072  0.8371 -3.5250
   90SAPC  C214 8588   2.534   0.614   6.342  0.4721 -0.4384  0.5994
   90SAPC  H14R 8589   2.496   0.542   6.268 -0.0443 -2.2593  2.5544
   90SAPC  C215 8590   2.619   0.568   6.437  0.1862 -0.1887 -0.6810
   90SAPC  H15R 8591   2.669   0.470   6.428 -1.0747 -1.0832  1.3649
   90SAPC  C216 8592   2.670   0.655   6.548 -0.0693  0.2982  0.1310
   90SAPC  H16R 8593   2.684   0.761   6.521 -0.7200  0.4121  0.2252
   90SAPC  H16S 8594   2.770   0.626   6.589  0.1267  0.7482 -0.0279
   90SAPC  C217 8595   2.579   0.666   6.672  0.2364  0.9106  0.0918
   90SAPC  H17R 8596   2.563   0.562   6.709  2.5149 -0.1648 -1.7154
   90SAPC  H17S 8597   2.473   0.697   6.657  0.4120  1.8622  0.7618
   90SAPC  C218 8598   2.648   0.745   6.777 -0.0359 -0.0225  0.2846
   90SAPC  H18R 8599   2.662   0.847   6.734 -0.7426 -0.6410 -1.4873
   90SAPC  H18S 8600   2.751   0.714   6.807 -1.3289 -1.1950  4.0506
   90SAPC  C219 8601   2.556   0.757   6.905  0.1890  0.4410  0.2883
   90SAPC  H19R 8602   2.538   0.657   6.950  1.8260 -0.2708 -0.5386
   90SAPC  H19S 8603   2.456   0.793   6.874  0.0193  3.0847  3.3993
   90SAPC  C220 8604   2.591   0.857   7.018  0.0629 -0.0665  0.3215
   90SAPC  H20R 8605   2.674   0.813   7.077  0.3174 -0.3170 -0.2150
   90SAPC  H20S 8606   2.497   0.875   7.074  1.0190  0.2970  1.8559
   90SAPC  H20T 8607   2.631   0.951   6.973  0.7822 -0.8999 -0.8326
   90SAPC   C33 8608   1.605   0.336   6.367 -0.6922  0.0540 -0.2460
   90SAPC   H3X 8609   1.627   0.445   6.369 -0.8996  0.3964 -5.1668
   90SAPC   H3Y 8610   1.498   0.310   6.386 -0.7468  0.5510  0.1513
   90SAPC   C34 8611   1.642   0.284   6.228  0.9421  0.5845 -0.6452
   90SAPC   H4X 8612   1.602   0.181   6.226  0.7051  0.6794 -2.0400
   90SAPC   H4Y 8613   1.753   0.289   6.216  1.0998  0.0408  0.5498
   90SAPC   C35 8614   1.582   0.363   6.111  0.8036 -0.5335 -0.7309
   90SAPC   H5X 8615   1.473   0.380   6.122  1.0195 -0.0623  0.9151
   90SAPC   H5Y 8616   1.598   0.304   6.018  1.9151 -0.5562 -0.5384
   90SAPC   C36 8617   1.654   0.502   6.092 -0.2263  0.9764 -0.3262
   90SAPC   H6X 8618   1.758   0.469   6.071 -0.9247 -1.3880 -0.3918
   90SAPC   H6Y 8619   1.653   0.553   6.190  0.0908 -1.5264  1.0816
   90SAPC   C37 8620   1.582   0.590   5.994  0.0054 -0.8141 -0.2429
   90SAPC   H7X 8621   1.636   0.687   5.998 -0.1086 -0.7461 -0.3498
   90SAPC   H7Y 8622   1.481   0.604   6.038  0.2343 -1.5295  0.5530
   90SAPC   C38 8623   1.560   0.544   5.850 -0.2411 -0.2032  0.2136
   90SAPC   H8X 8624   1.515   0.443   5.861  0.2623 -0.4758 -0.1778
   90SAPC   H8Y 8625   1.664   0.542   5.812  0.6139  0.3504  2.3431
   90SAPC   C39 8626   1.474   0.629   5.756  0.6835 -0.1922  0.6593
   90SAPC   H9X 8627   1.519   0.726   5.726 -1.1326  0.3178 -0.5736
   90SAPC   H9Y 8628   1.373   0.650   5.797 -1.0491 -1.9839 -2.3766
   90SAPC  C310 8629   1.438   0.548   5.624  0.5146 -0.3374  0.4518
   90SAPC  H10X 8630   1.369   0.465   5.650 -1.3021  1.8525  3.3360
   90SAPC  H10Y 8631   1.532   0.510   5.579 -0.2099 -1.3550 -0.2348
   90SAPC  C311 8632   1.364   0.635   5.517 -1.0058 -0.1789 -0.3068
   90SAPC  H11X 8633   1.425   0.728   5.519 -0.8140 -0.2242  3.4166
   90SAPC  H11Y 8634   1.266   0.667   5.561  0.0915  0.2559  1.9998
   90SAPC  C312 8635   1.349   0.569   5.374 -0.3383 -0.1680 -0.0352
   90SAPC  H12X 8636   1.454   0.557   5.341  0.1992 -0.0421  1.5436
   90SAPC  H12Y 8637   1.292   0.637   5.308  1.2683  0.6623 -0.6195
   90SAPC  C313 8638   1.286   0.428   5.376 -0.3562  0.4077  0.6194
   90SAPC  H13X 8639   1.182   0.438   5.415 -0.7969  1.4280 -0.7313
   90SAPC  H13Y 8640   1.350   0.364   5.441 -0.1764  2.1303  2.2443
   90SAPC  C314 8641   1.264   0.374   5.233  0.8423 -0.1464 -0.0283
   90SAPC  H14X 8642   1.209   0.450   5.173  1.5340 -0.5586 -1.1951
   90SAPC  H14Y 8643   1.199   0.289   5.264  0.3479  0.2513  0.0499
   90SAPC  C315 8644   1.383   0.333   5.150 -0.2296  0.8846 -0.1598
   90SAPC  H15X 8645   1.365   0.227   5.125  2.3879 -0.0736  1.5733
   90SAPC  H15Y 8646   1.469   0.328   5.220  0.1409 -1.1853 -0.7079
   90SAPC  C316 8647   1.418   0.420   5.023  0.6749  1.3133  0.5880
   90SAPC  H16X 8648   1.326   0.459   4.975  0.1113 -0.4069  0.2306
   90SAPC  H16Y 8649   1.471   0.353   4.953 -0.1218 -0.0005  1.2083
   90SAPC  C317 8650   1.511   0.543   5.051 -0.2655  0.1975 -0.0418
   90SAPC  H17X 8651   1.602   0.518   5.110 -1.2052 -0.4053  1.2054
   90SAPC  H17Y 8652   1.457   0.619   5.112  1.9232  2.1030 -0.3351
   90SAPC  C318 8653   1.557   0.601   4.920 -0.2758  0.4838 -0.1041
   90SAPC  H18X 8654   1.613   0.523   4.864 -0.3210  0.4398 -0.0882
   90SAPC  H18Y 8655   1.625   0.689   4.927 -0.7535  1.0327 -1.8941
   90SAPC  H18Z 8656   1.475   0.642   4.857  0.1246  0.7622 -0.4456
   91SAPC     N 8657   1.085   0.474   7.571  0.4459  0.0382  0.5754
   91SAPC   C12 8658   1.052   0.332   7.516  0.2336 -0.7110  0.1249
   91SAPC  H12A 8659   0.983   0.296   7.591  2.6090  1.3802  3.6225
   91SAPC  H12B 8660   1.142   0.273   7.515 -0.3308 -1.5870 -0.1963
   91SAPC   C13 8661   1.187   0.458   7.681  0.7963  0.1406  0.0852
   91SAPC  H13A 8662   1.147   0.392   7.757  2.7379 -0.5205  0.5967
   91SAPC  H13B 8663   1.278   0.417   7.641  2.7426  2.5898  1.6760
   91SAPC  H13C 8664   1.199   0.553   7.730  1.5060  0.3369 -0.4592
   91SAPC   C14 8665   1.161   0.554   7.466  0.0789 -0.3186  0.2158
   91SAPC  H14A 8666   1.252   0.505   7.437  1.5233  0.9611  2.2882
   91SAPC  H14B 8667   1.091   0.578   7.387  0.3178  0.9344  0.3623
   91SAPC  H14C 8668   1.189   0.648   7.511  0.7955 -1.3283  1.9794
   91SAPC   C15 8669   0.968   0.551   7.612 -0.4287  0.8235  0.6985
   91SAPC  H15A 8670   1.005   0.643   7.656 -0.9472 -0.0892  3.2542
   91SAPC  H15B 8671   0.893   0.573   7.537 -1.1806 -0.1972  1.1203
   91SAPC  H15C 8672   0.914   0.509   7.696  1.6329 -0.6148  1.3875
   91SAPC   C11 8673   1.006   0.315   7.371  0.0251 -0.3836 -0.0261
   91SAPC  H11A 8674   0.985   0.208   7.347  1.2346 -0.4105 -1.0194
   91SAPC  H11B 8675   1.088   0.337   7.300 -1.4232  1.9803 -1.1122
   91SAPC     P 8676   0.887   0.478   7.210  0.2258 -0.0188 -0.0099
   91SAPC   O13 8677   0.759   0.544   7.186  0.5381 -0.3529  0.3833
   91SAPC   O14 8678   1.001   0.572   7.207  0.5318 -0.4046  0.0982
   91SAPC   O12 8679   0.889   0.385   7.343  0.0827 -0.4355 -0.0264
   91SAPC   O11 8680   0.912   0.377   7.099  0.2717  0.4457  1.0456
   91SAPC    C1 8681   0.814   0.273   7.074  0.7850  0.1718  0.1245
   91SAPC    HA 8682   0.850   0.176   7.114  0.5450 -0.1304 -0.3749
   91SAPC    HB 8683   0.717   0.297   7.123  0.2184 -0.5505 -0.6224
   91SAPC    C2 8684   0.782   0.252   6.922  0.5061 -0.2435  0.1311
   91SAPC    HS 8685   0.701   0.180   6.898  1.6932 -1.0952 -1.4743
   91SAPC   O21 8686   0.893   0.208   6.844  0.3888 -0.2883 -0.1986
   91SAPC   C21 8687   0.932   0.091   6.856 -0.3765 -0.4185 -0.5468
   91SAPC   O22 8688   0.898   0.006   6.935  0.9460  0.0256  0.3465
   91SAPC   C22 8689   1.041   0.066   6.749 -0.5526  0.6087 -0.3757
   91SAPC   H2R 8690   1.121  -0.003   6.783  1.0926  1.3637 -2.5105
   91SAPC   H2S 8691   0.994   0.023   6.657  1.4993  2.0348 -2.1921
   91SAPC    C3 8692   0.725   0.384   6.874 -0.3190 -0.7656  0.1044
   91SAPC    HX 8693   0.795   0.464   6.906  1.3286 -1.5409 -1.4229
   91SAPC    HY 8694   0.631   0.414   6.925  0.1310  0.9915 -0.0376
   91SAPC   O31 8695   0.710   0.385   6.732 -0.3965 -0.2802 -0.3781
   91SAPC   C31 8696   0.806   0.437   6.659 -0.4994 -0.3510  0.3466
   91SAPC   O32 8697   0.907   0.490   6.704 -0.5435 -0.2318  0.2738
   91SAPC   C32 8698   0.776   0.418   6.516  0.1878  0.6355 -0.3239
   91SAPC   H2X 8699   0.668   0.436   6.497 -0.5839 -1.8621  1.2229
   91SAPC   H2Y 8700   0.792   0.313   6.486  0.5079 -0.4369  3.2043
   91SAPC   C23 8701   1.117   0.194   6.691 -0.0450  1.1023 -0.4420
   91SAPC   H3R 8702   1.151   0.255   6.777 -0.9885  0.3364  0.5019
   91SAPC   H3S 8703   1.040   0.249   6.633 -1.8130 -2.0657 -1.2869
   91SAPC   C24 8704   1.241   0.165   6.602  0.1485  0.3248 -0.6667
   91SAPC   H4R 8705   1.323   0.129   6.668 -2.1613 -1.2545  1.5464
   91SAPC   H4S 8706   1.284   0.259   6.562 -0.6647  1.6793  1.4507
   91SAPC   C25 8707   1.206   0.065   6.499  0.0824  0.5118 -0.1913
   91SAPC   H5R 8708   1.211  -0.041   6.530 -2.7362  0.7217  1.2605
   91SAPC   C26 8709   1.191   0.087   6.368 -0.1301  0.4758 -0.0057
   91SAPC   H6R 8710   1.182  -0.001   6.301  1.7813 -0.5030  0.9530
   91SAPC   C27 8711   1.184   0.215   6.293 -0.5938  0.0059  0.1060
   91SAPC   H7R 8712   1.267   0.211   6.219  0.3493 -0.0890  1.1449
   91SAPC   H7S 8713   1.207   0.300   6.360 -0.3632  1.4288 -1.6929
   91SAPC   C28 8714   1.050   0.237   6.228 -0.2011  0.5208  0.9900
   91SAPC   H8R 8715   0.962   0.211   6.288 -0.4558  1.7683  1.1902
   91SAPC   C29 8716   1.031   0.293   6.105  0.2028 -0.0283 -0.4816
   91SAPC   H9R 8717   0.928   0.286   6.066  0.3819 -2.3848 -0.6517
   91SAPC  C210 8718   1.134   0.350   6.012 -0.7685  0.0162 -0.1909
   91SAPC  H10R 8719   1.235   0.329   6.051 -2.4829 -2.0861  3.6764
   91SAPC  H10S 8720   1.123   0.461   6.017  3.1203  0.6166 -1.7754
   91SAPC  C211 8721   1.122   0.317   5.864  0.1975 -0.0879  0.9224
   91SAPC  H11R 8722   1.193   0.247   5.818 -1.1020 -0.3101 -0.8582
   91SAPC  C212 8723   1.037   0.376   5.775 -0.3336 -0.1822 -0.1621
   91SAPC  H12R 8724   1.036   0.344   5.669 -0.9888 -2.8993  0.5677
   91SAPC  C213 8725   0.930   0.476   5.806 -0.7102 -0.0064  0.0491
   91SAPC  H13R 8726   0.969   0.547   5.881 -1.4460 -2.2730  2.7354
   91SAPC  H13S 8727   0.843   0.428   5.856  0.7768 -2.5928  0.3456
   91SAPC  C214 8728   0.880   0.550   5.680  0.5635  0.5742 -0.1427
   91SAPC  H14R 8729   0.850   0.493   5.591 -0.6900 -0.7197  1.0614
   91SAPC  C215 8730   0.858   0.686   5.675  0.4889 -0.1238 -0.1646
   91SAPC  H15R 8731   0.833   0.732   5.579  1.7262 -0.5975 -0.7356
   91SAPC  C216 8732   0.871   0.783   5.792 -0.7602 -0.4494  0.2385
   91SAPC  H16R 8733   0.936   0.864   5.753 -0.6529 -1.4638 -1.7953
   91SAPC  H16S 8734   0.914   0.737   5.884 -0.6838 -2.9139 -0.9515
   91SAPC  C217 8735   0.736   0.842   5.835  0.4628 -0.7282 -0.1159
   91SAPC  H17R 8736   0.662   0.760   5.849 -1.3382  0.7111 -0.7925
   91SAPC  H17S 8737   0.697   0.912   5.758  4.0135  0.7636 -0.7533
   91SAPC  C218 8738   0.744   0.931   5.963  0.2971 -0.2152 -0.3738
   91SAPC  H18R 8739   0.814   1.012   5.934 -1.2056  0.0300 -3.8689
   91SAPC  H18S 8740   0.784   0.871   6.047  1.0147 -2.1530 -2.0047
   91SAPC  C219 8741   0.610   1.007   6.005  0.2488  0.0278  0.0194
   91SAPC  H19R 8742   0.537   0.928   6.034 -0.1216  0.2157 -0.3985
   91SAPC  H19S 8743   0.581   1.056   5.910 -0.8735  0.5242  0.6038
   91SAPC  C220 8744   0.618   1.115   6.115  0.6854  0.3361 -0.2985
   91SAPC  H20R 8745   0.529   1.179   6.096  1.5005  2.1976  1.7386
   91SAPC  H20S 8746   0.713   1.171   6.101  0.0922  1.7683  1.0483
   91SAPC  H20T 8747   0.613   1.065   6.214  0.2795  1.7940  0.4507
   91SAPC   C33 8748   0.866   0.509   6.428 -0.1498  0.0536  0.0443
   91SAPC   H3X 8749   0.967   0.463   6.422 -0.0885  0.3204 -1.4738
   91SAPC   H3Y 8750   0.875   0.612   6.467 -1.0839  0.8238 -1.6528
   91SAPC   C34 8751   0.812   0.506   6.281 -0.6016  0.4814  0.6080
   91SAPC   H4X 8752   0.784   0.400   6.265  0.8770 -0.0325  1.2463
   91SAPC   H4Y 8753   0.897   0.531   6.214  0.5083 -0.7141  1.5040
   91SAPC   C35 8754   0.686   0.598   6.249  0.7800  0.4305 -0.0059
   91SAPC   H5X 8755   0.715   0.706   6.252  2.4326  0.1157 -2.3121
   91SAPC   H5Y 8756   0.603   0.580   6.321  0.0495  0.3096 -0.8470
   91SAPC   C36 8757   0.608   0.570   6.120 -0.1161 -0.0769 -0.1560
   91SAPC   H6X 8758   0.681   0.609   6.046  1.3154 -0.5263  0.9723
   91SAPC   H6Y 8759   0.519   0.635   6.133  0.5731  0.5189  2.0611
   91SAPC   C37 8760   0.569   0.428   6.085  0.0969  0.7371  0.5788
   91SAPC   H7X 8761   0.490   0.388   6.151 -1.8453 -0.7393 -2.4188
   91SAPC   H7Y 8762   0.662   0.368   6.095 -0.0966  0.1081 -0.9778
   91SAPC   C38 8763   0.513   0.441   5.937 -0.4340  0.6384  0.1985
   91SAPC   H8X 8764   0.604   0.423   5.876 -1.7182 -3.0740 -0.8750
   91SAPC   H8Y 8765   0.484   0.542   5.903 -1.7067  0.2579  0.1062
   91SAPC   C39 8766   0.387   0.359   5.885 -0.1485 -0.3942 -0.2728
   91SAPC   H9X 8767   0.300   0.400   5.940  1.3523  0.5975  1.4683
   91SAPC   H9Y 8768   0.404   0.252   5.910  0.2821 -0.2663 -0.0047
   91SAPC  C310 8769   0.364   0.376   5.739 -0.1227 -0.5527 -0.0708
   91SAPC  H10X 8770   0.321   0.477   5.723  1.4631  0.5119  1.9506
   91SAPC  H10Y 8771   0.287   0.310   5.695 -1.4467  1.0140 -0.2245
   91SAPC  C311 8772   0.497   0.360   5.661  0.4498  0.7345 -0.0981
   91SAPC  H11X 8773   0.565   0.284   5.703  1.2638  1.7989  0.5660
   91SAPC  H11Y 8774   0.561   0.450   5.672 -1.0181  1.9382 -0.9483
   91SAPC  C312 8775   0.483   0.349   5.509 -0.2173 -0.3265  0.2707
   91SAPC  H12X 8776   0.410   0.424   5.472  1.5206  1.0813 -0.4948
   91SAPC  H12Y 8777   0.436   0.250   5.490 -0.5624 -0.4428  1.6460
   91SAPC  C313 8778   0.625   0.358   5.433  0.4550 -0.2622 -0.3942
   91SAPC  H13X 8779   0.676   0.445   5.479 -1.3463  1.2786 -1.1676
   91SAPC  H13Y 8780   0.611   0.372   5.324  2.2394  1.0773 -0.4927
   91SAPC  C314 8781   0.717   0.238   5.445  0.4417 -0.0521  0.7312
   91SAPC  H14X 8782   0.665   0.140   5.439  0.5248 -0.2627  2.7842
   91SAPC  H14Y 8783   0.766   0.233   5.544  0.3406  0.2431  0.7970
   91SAPC  C315 8784   0.829   0.230   5.346  0.3388 -0.6303 -0.3279
   91SAPC  H15X 8785   0.883   0.326   5.358 -0.6472 -0.2442  1.2689
   91SAPC  H15Y 8786   0.784   0.228   5.244 -2.3601 -0.1139  0.7741
   91SAPC  C316 8787   0.929   0.120   5.353 -0.2128  0.3542  0.3122
   91SAPC  H16X 8788   0.992   0.115   5.262  3.4441 -1.1243  2.7234
   91SAPC  H16Y 8789   0.878   0.023   5.365  1.1443 -0.2917  1.0427
   91SAPC  C317 8790   1.026   0.136   5.474 -0.4068  0.5100 -0.2530
   91SAPC  H17X 8791   0.970   0.122   5.570 -0.1345 -2.1899 -0.3978
   91SAPC  H17Y 8792   1.063   0.240   5.477 -1.0114  0.7776 -1.5302
   91SAPC  C318 8793   1.130   0.033   5.471  0.1153 -0.1134 -0.2417
   91SAPC  H18X 8794   1.128  -0.029   5.563 -0.1169  0.2635  0.0091
   91SAPC  H18Y 8795   1.229   0.080   5.454 -0.2175  0.6172 -0.1758
   91SAPC  H18Z 8796   1.110  -0.042   5.391 -0.6054 -1.1815  0.8915
   92SAPC     N 8797   6.066   0.848   6.845 -0.6031  0.6674 -0.2171
   92SAPC   C12 8798   6.175   0.742   6.834  0.2855  0.1841  0.4205
   92SAPC  H12A 8799   6.201   0.743   6.729 -4.2651 -0.9465 -0.9527
   92SAPC  H12B 8800   6.125   0.647   6.840  0.3913 -0.0468 -1.5290
   92SAPC   C13 8801   6.109   0.988   6.805 -0.7214  0.8503 -0.2107
   92SAPC  H13A 8802   6.184   1.027   6.872  2.1677  0.0203 -2.7240
   92SAPC  H13B 8803   6.144   0.996   6.703 -2.0730  1.5456 -0.6360
   92SAPC  H13C 8804   6.020   1.049   6.809 -0.9010  0.5192  2.0649
   92SAPC   C14 8805   5.955   0.815   6.749  0.4804 -0.1539 -0.2382
   92SAPC  H14A 8806   5.894   0.904   6.752  1.6039  0.7042 -1.6963
   92SAPC  H14B 8807   5.991   0.816   6.647 -1.1342 -0.1281 -0.8428
   92SAPC  H14C 8808   5.913   0.719   6.776 -1.2571  0.7438  0.4396
   92SAPC   C15 8809   6.007   0.856   6.983  0.7914 -0.6022  0.2209
   92SAPC  H15A 8810   5.932   0.934   6.980 -0.0572 -1.3941 -2.2900
   92SAPC  H15B 8811   5.963   0.762   7.012 -1.3082  0.5730  1.0503
   92SAPC  H15C 8812   6.069   0.895   7.061  0.3425  2.4836 -0.8287
   92SAPC   C11 8813   6.293   0.748   6.928  0.7592 -0.1903 -0.2961
   92SAPC  H11A 8814   6.333   0.851   6.929  0.7594 -0.0701 -3.2761
   92SAPC  H11B 8815   6.372   0.678   6.895  1.0191  1.0512 -2.4958
   92SAPC     P 8816   6.224   0.569   7.108  0.3912 -0.1674  0.3215
   92SAPC   O13 8817   6.349   0.502   7.149 -0.3884  0.3175 -0.3441
   92SAPC   O14 8818   6.124   0.596   7.207 -0.0874  0.1583 -0.0591
   92SAPC   O12 8819   6.263   0.712   7.055  0.8062  0.7713  0.3186
   92SAPC   O11 8820   6.150   0.492   6.989 -0.5499 -0.6190 -0.3002
   92SAPC    C1 8821   6.182   0.350   6.976  0.0664 -0.0047  0.3875
   92SAPC    HA 8822   6.275   0.315   7.026 -1.4172 -1.4716  2.2540
   92SAPC    HB 8823   6.101   0.285   7.015 -1.0116 -0.4572 -2.3384
   92SAPC    C2 8824   6.208   0.312   6.822  0.1121 -0.5373  0.1037
   92SAPC    HS 8825   6.203   0.201   6.813 -0.6259 -0.4580 -0.5715
   92SAPC   O21 8826   6.325   0.379   6.769  0.1478 -0.4101  0.4089
   92SAPC   C21 8827   6.396   0.304   6.694 -0.4087 -0.3264  0.0362
   92SAPC   O22 8828   6.408   0.181   6.699  0.1664 -0.7747  0.5166
   92SAPC   C22 8829   6.502   0.394   6.623 -0.4482  0.3180  0.1436
   92SAPC   H2R 8830   6.451   0.489   6.597 -1.7574 -0.4720 -0.3027
   92SAPC   H2S 8831   6.581   0.420   6.697 -0.5299  0.4622  0.1810
   92SAPC    C3 8832   6.087   0.360   6.735 -0.0759  0.1734  0.5147
   92SAPC    HX 8833   6.061   0.463   6.765  1.6195 -0.0754  3.1473
   92SAPC    HY 8834   5.996   0.300   6.755 -0.7686  1.0810  0.1415
   92SAPC   O31 8835   6.113   0.349   6.592 -0.1082 -0.3432 -0.1812
   92SAPC   C31 8836   6.145   0.456   6.525  0.4585 -0.2790 -0.2646
   92SAPC   O32 8837   6.126   0.569   6.561 -0.3295  0.2013  0.5132
   92SAPC   C32 8838   6.209   0.422   6.390 -0.7731 -0.4378 -0.6291
   92SAPC   H2X 8839   6.134   0.375   6.323 -1.2558  2.4826 -2.3386
   92SAPC   H2Y 8840   6.278   0.338   6.412 -1.1261  0.0521  3.0168
   92SAPC   C23 8841   6.564   0.332   6.496 -0.5165 -0.3503  0.0544
   92SAPC   H3R 8842   6.493   0.328   6.410 -0.0919 -1.1118 -0.2745
   92SAPC   H3S 8843   6.615   0.237   6.521 -2.1547 -1.6606 -1.2876
   92SAPC   C24 8844   6.657   0.442   6.445  0.0462  0.2600  0.0062
   92SAPC   H4R 8845   6.600   0.536   6.434 -2.6679 -1.5656 -4.9269
   92SAPC   H4S 8846   6.684   0.420   6.339  0.1141  0.7413 -0.0760
   92SAPC   C25 8847   6.788   0.460   6.518  0.4252 -0.4414  0.0144
   92SAPC   H5R 8848   6.773   0.474   6.626 -0.6937  1.3896 -0.3319
   92SAPC   C26 8849   6.912   0.453   6.464 -0.1123  0.4137 -0.1387
   92SAPC   H6R 8850   6.997   0.477   6.530 -0.2061  1.3810 -0.3597
   92SAPC   C27 8851   6.960   0.423   6.323 -0.4789 -0.3202 -0.3552
   92SAPC   H7R 8852   7.067   0.451   6.319 -0.5824  0.0138 -1.0995
   92SAPC   H7S 8853   6.914   0.487   6.244  1.1740 -1.5414 -2.4055
   92SAPC   C28 8854   6.962   0.284   6.284  0.2731  0.4762  0.1969
   92SAPC   H8R 8855   7.012   0.219   6.357 -0.2238  1.0357  1.0440
   92SAPC   C29 8856   6.908   0.224   6.175 -0.3591  0.5537 -0.3246
   92SAPC   H9R 8857   6.919   0.115   6.172 -1.7013  0.3666  0.4326
   92SAPC  C210 8858   6.838   0.286   6.051 -0.2427 -0.4748  0.3663
   92SAPC  H10R 8859   6.910   0.273   5.968  0.3321 -0.5979  0.8739
   92SAPC  H10S 8860   6.821   0.395   6.062 -0.1222 -0.2990 -1.0341
   92SAPC  C211 8861   6.707   0.220   6.016  0.2857 -0.0039 -0.5123
   92SAPC  H11R 8862   6.645   0.191   6.102 -0.2108  0.6609 -0.6378
   92SAPC  C212 8863   6.677   0.179   5.891  0.4706 -0.2150  0.2914
   92SAPC  H12R 8864   6.575   0.144   5.871  0.6257 -0.7616  0.4312
   92SAPC  C213 8865   6.766   0.193   5.771 -0.1102  0.0224  0.6983
   92SAPC  H13R 8866   6.835   0.106   5.775 -0.6344 -0.6186 -2.0626
   92SAPC  H13S 8867   6.823   0.289   5.777 -1.7222  0.9693  1.5005
   92SAPC  C214 8868   6.696   0.183   5.636  0.3872  0.0407  0.1513
   92SAPC  H14R 8869   6.589   0.208   5.634  0.6172  1.0162 -1.4752
   92SAPC  C215 8870   6.758   0.161   5.520 -0.2387 -0.9990 -0.2794
   92SAPC  H15R 8871   6.698   0.150   5.429 -1.7179  2.0603  0.2007
   92SAPC  C216 8872   6.908   0.141   5.500 -0.1667 -0.9747 -0.0245
   92SAPC  H16R 8873   6.958   0.119   5.597  2.0737  1.8827 -0.3936
   92SAPC  H16S 8874   6.954   0.236   5.466 -0.7129 -0.8611 -0.4581
   92SAPC  C217 8875   6.954   0.035   5.403  0.7747 -0.2779 -0.0560
   92SAPC  H17R 8876   7.063   0.034   5.385  0.7577 -1.1876 -0.1821
   92SAPC  H17S 8877   6.906   0.052   5.304 -1.7558 -0.3687  1.0818
   92SAPC  C218 8878   6.904  -0.100   5.434  0.8688 -0.7545  0.3909
   92SAPC  H18R 8879   6.914  -0.169   5.347 -1.1728 -2.6540  1.5425
   92SAPC  H18S 8880   6.793  -0.100   5.444  0.4967 -0.6708 -2.7761
   92SAPC  C219 8881   6.978  -0.188   5.536  0.7906  0.1669  0.2857
   92SAPC  H19R 8882   6.991  -0.129   5.629 -2.3691  2.6655 -0.6332
   92SAPC  H19S 8883   7.075  -0.219   5.492  0.0372  1.4696 -2.5735
   92SAPC  C220 8884   6.884  -0.300   5.577 -0.0600 -0.2840  0.0387
   92SAPC  H20R 8885   6.868  -0.350   5.479 -0.7147  3.1317 -1.7500
   92SAPC  H20S 8886   6.780  -0.278   5.611 -1.1619 -2.4513 -1.6717
   92SAPC  H20T 8887   6.938  -0.354   5.658  0.9100  0.9611  0.2545
   92SAPC   C33 8888   6.277   0.546   6.327  0.4915  0.7422 -0.0116
   92SAPC   H3X 8889   6.356   0.578   6.399  1.6430 -0.5293 -0.6661
   92SAPC   H3Y 8890   6.200   0.625   6.314 -0.6091 -0.1554  0.8338
   92SAPC   C34 8891   6.352   0.518   6.202 -0.0448 -0.0029 -0.5087
   92SAPC   H4X 8892   6.438   0.450   6.224  1.8719  2.5553  0.3886
   92SAPC   H4Y 8893   6.398   0.612   6.166 -1.9432  0.4086 -2.0112
   92SAPC   C35 8894   6.267   0.460   6.081  0.5251 -0.0234 -0.1246
   92SAPC   H5X 8895   6.186   0.532   6.059  0.0703 -1.4904 -3.8909
   92SAPC   H5Y 8896   6.220   0.366   6.116 -1.0390  0.6289 -0.4115
   92SAPC   C36 8897   6.354   0.442   5.955 -0.2362 -0.6822 -0.5759
   92SAPC   H6X 8898   6.431   0.366   5.979 -0.6020 -0.5636  1.1613
   92SAPC   H6Y 8899   6.390   0.540   5.919  1.5441 -1.0998 -0.0469
   92SAPC   C37 8900   6.271   0.384   5.838  0.5054 -0.3267  0.8004
   92SAPC   H7X 8901   6.205   0.465   5.800  0.2367 -0.3196  1.2670
   92SAPC   H7Y 8902   6.212   0.294   5.867  1.2077 -0.8757  0.5734
   92SAPC   C38 8903   6.352   0.343   5.714 -0.0488 -0.0830 -0.4800
   92SAPC   H8X 8904   6.441   0.281   5.741 -0.3530 -0.1812  0.3340
   92SAPC   H8Y 8905   6.403   0.436   5.680  0.4248  0.3183  1.1999
   92SAPC   C39 8906   6.267   0.280   5.594  0.1678 -0.2560 -0.4017
   92SAPC   H9X 8907   6.199   0.356   5.550 -3.4081 -2.1370  1.4052
   92SAPC   H9Y 8908   6.198   0.206   5.640 -0.1915  1.3883  1.9092
   92SAPC  C310 8909   6.355   0.207   5.493 -0.4746 -0.1750 -0.3507
   92SAPC  H10X 8910   6.417   0.127   5.537 -1.5261 -0.4927  0.6074
   92SAPC  H10Y 8911   6.411   0.293   5.449 -0.8864 -0.5092 -1.5802
   92SAPC  C311 8912   6.281   0.131   5.385  0.2877 -0.6498 -0.6587
   92SAPC  H11X 8913   6.200   0.194   5.341 -1.1337 -3.5591 -2.5338
   92SAPC  H11Y 8914   6.231   0.046   5.435 -1.2857  2.0965  2.7955
   92SAPC  C312 8915   6.374   0.079   5.287 -0.9320  0.1910  0.3815
   92SAPC  H12X 8916   6.318   0.015   5.216 -1.7359  2.6625 -1.3346
   92SAPC  H12Y 8917   6.446   0.018   5.347 -0.5556  3.0723  3.1678
   92SAPC  C313 8918   6.463   0.186   5.204 -0.8979  0.5534 -0.8512
   92SAPC  H13X 8919   6.500   0.256   5.282  0.2573  0.8732 -1.6698
   92SAPC  H13Y 8920   6.394   0.238   5.134 -0.2744  1.6112 -0.6982
   92SAPC  C314 8921   6.590   0.121   5.144 -0.5242 -0.1449  0.4519
   92SAPC  H14X 8922   6.537   0.041   5.087 -2.0158  0.4967  0.8791
   92SAPC  H14Y 8923   6.665   0.087   5.219  3.1825  0.0145 -2.8580
   92SAPC  C315 8924   6.672   0.207   5.046  0.0494  0.5158  0.2718
   92SAPC  H15X 8925   6.703   0.299   5.100 -0.0784  1.4262 -1.1399
   92SAPC  H15Y 8926   6.617   0.248   4.958 -0.1403 -1.5843 -0.6569
   92SAPC  C316 8927   6.795   0.118   4.998 -0.3508  1.0275 -0.0345
   92SAPC  H16X 8928   6.756   0.022   4.959  1.4218 -0.6242  2.0459
   92SAPC  H16Y 8929   6.850   0.083   5.088  0.4174 -0.6759 -1.1188
   92SAPC  C317 8930   6.894   0.186   4.903 -0.4474  0.3054  0.2703
   92SAPC  H17X 8931   6.979   0.126   4.862 -0.1247 -0.1106  1.5137
   92SAPC  H17Y 8932   6.931   0.273   4.961 -0.3811 -0.2978  1.1553
   92SAPC  C318 8933   6.825   0.256   4.778 -0.5138  0.1917 -0.0184
   92SAPC  H18X 8934   6.769   0.185   4.714 -1.0217 -1.5231  2.2368
   92SAPC  H18Y 8935   6.905   0.308   4.720  0.3388  0.2590  1.1916
   92SAPC  H18Z 8936   6.749   0.327   4.816 -1.0613 -1.3060  1.8561
   93SAPC     N 8937   2.227   2.185   7.621 -0.4288 -0.0039  0.0590
   93SAPC   C12 8938   2.156   2.097   7.521  0.7564  0.3309 -0.0595
   93SAPC  H12A 8939   2.132   2.152   7.432  1.7313 -1.2561 -1.3568
   93SAPC  H12B 8940   2.058   2.078   7.563  0.5111  2.3322  0.3927
   93SAPC   C13 8941   2.129   2.271   7.695  0.2478 -0.3132  0.7781
   93SAPC  H13A 8942   2.181   2.347   7.752  1.3630  0.4000 -1.0919
   93SAPC  H13B 8943   2.072   2.321   7.618 -0.0829 -2.2053 -0.2761
   93SAPC  H13C 8944   2.060   2.205   7.745 -3.1261 -0.5785 -3.6107
   93SAPC   C14 8945   2.307   2.099   7.720 -0.0869 -0.2140 -0.3295
   93SAPC  H14A 8946   2.239   2.033   7.772 -0.7326  1.4010  0.9689
   93SAPC  H14B 8947   2.384   2.044   7.667 -0.8134 -0.5086 -1.1027
   93SAPC  H14C 8948   2.350   2.170   7.789  1.9789 -1.9908  0.3148
   93SAPC   C15 8949   2.328   2.274   7.547  0.2980  1.1060 -0.2574
   93SAPC  H15A 8950   2.304   2.369   7.502  1.7025  3.9351  4.2922
   93SAPC  H15B 8951   2.409   2.291   7.617  0.4238  0.0257 -0.1179
   93SAPC  H15C 8952   2.378   2.204   7.481  2.2968  1.3880  0.8512
   93SAPC   C11 8953   2.223   1.969   7.465  0.5171  0.4935 -0.2725
   93SAPC  H11A 8954   2.159   1.918   7.390  0.7474 -2.1400  1.1859
   93SAPC  H11B 8955   2.241   1.905   7.554  0.5965  1.9848  0.8086
   93SAPC     P 8956   2.384   2.023   7.261  0.2280  0.3319  0.0684
   93SAPC   O13 8957   2.383   2.166   7.238  0.4072  0.3594  0.4939
   93SAPC   O14 8958   2.512   1.956   7.226  0.3172 -0.2337 -0.1695
   93SAPC   O12 8959   2.352   1.994   7.407 -0.2968 -0.2604  1.0743
   93SAPC   O11 8960   2.264   1.957   7.175  0.2850 -0.3667 -0.1552
   93SAPC    C1 8961   2.270   1.820   7.139  0.1144 -0.0353 -0.0341
   93SAPC    HA 8962   2.371   1.775   7.131  0.0695 -0.9491  3.2186
   93SAPC    HB 8963   2.226   1.761   7.222  0.0619  0.2142  0.1152
   93SAPC    C2 8964   2.193   1.786   7.014  0.2219  0.3179  0.1771
   93SAPC    HS 8965   2.201   1.676   7.001  0.3141  0.1409  1.5007
   93SAPC   O21 8966   2.247   1.867   6.904  0.4720 -0.3886 -0.4863
   93SAPC   C21 8967   2.352   1.827   6.837 -0.9285 -0.1095 -0.0467
   93SAPC   O22 8968   2.413   1.721   6.859 -0.2185  0.5508  0.6022
   93SAPC   C22 8969   2.371   1.914   6.719 -0.1189 -0.9316  0.6009
   93SAPC   H2R 8970   2.301   1.883   6.638  1.2146  1.4795 -1.6298
   93SAPC   H2S 8971   2.353   2.020   6.747  0.8663 -0.2223 -1.2577
   93SAPC    C3 8972   2.035   1.811   7.023 -0.2898 -0.0307 -0.6392
   93SAPC    HX 8973   2.019   1.919   7.043  0.8709 -0.2985  2.2242
   93SAPC    HY 8974   2.001   1.755   7.112 -0.8790 -0.1467 -0.9311
   93SAPC   O31 8975   1.982   1.759   6.899 -0.1126  0.2274  0.1259
   93SAPC   C31 8976   1.906   1.836   6.823  0.5142 -1.0267 -1.2154
   93SAPC   O32 8977   1.847   1.938   6.856 -0.1794  0.8079 -0.0779
   93SAPC   C32 8978   1.906   1.766   6.689 -0.3626 -0.1625  0.7938
   93SAPC   H2X 8979   1.817   1.699   6.693 -1.2137  0.9486  0.8784
   93SAPC   H2Y 8980   1.991   1.697   6.672 -1.4202 -1.3432  0.1094
   93SAPC   C23 8981   2.511   1.884   6.671 -0.3500  0.4260 -0.0591
   93SAPC   H3R 8982   2.505   1.794   6.605 -1.0263  1.6686 -1.7773
   93SAPC   H3S 8983   2.578   1.864   6.757 -0.7936  1.6618  0.5903
   93SAPC   C24 8984   2.584   1.990   6.597  0.6734 -0.0053  0.0055
   93SAPC   H4R 8985   2.685   1.958   6.562 -0.0940 -0.5757 -1.8519
   93SAPC   H4S 8986   2.605   2.075   6.666  0.3729  0.1303 -0.0687
   93SAPC   C25 8987   2.517   2.069   6.494  0.1418  0.3392  0.4116
   93SAPC   H5R 8988   2.417   2.107   6.521 -0.7090 -0.7019 -1.1327
   93SAPC   C26 8989   2.556   2.075   6.364 -0.2711 -0.7612 -0.2071
   93SAPC   H6R 8990   2.487   2.139   6.306 -0.7208 -0.2446  0.8546
   93SAPC   C27 8991   2.677   2.017   6.292 -0.1636  0.0481 -0.4586
   93SAPC   H7R 8992   2.724   1.938   6.354 -1.4279 -0.5651 -0.2523
   93SAPC   H7S 8993   2.755   2.095   6.281 -0.4865  0.6085  0.9072
   93SAPC   C28 8994   2.635   1.953   6.163 -0.4801 -0.3284  0.8993
   93SAPC   H8R 8995   2.558   1.874   6.159  0.3354 -1.0964 -1.8161
   93SAPC   C29 8996   2.691   1.965   6.038 -0.0990  0.6738  0.7028
   93SAPC   H9R 8997   2.651   1.916   5.948  1.2485  1.5889 -0.4438
   93SAPC  C210 8998   2.818   2.047   6.014  0.8010 -0.4457 -0.2801
   93SAPC  H10R 8999   2.904   1.988   6.053  0.6874  0.0192  0.7251
   93SAPC  H10S 9000   2.807   2.138   6.077 -0.3168 -0.6964 -0.0881
   93SAPC  C211 9001   2.863   2.087   5.880 -0.1228  0.2461  0.2104
   93SAPC  H11R 9002   2.965   2.055   5.854  0.0048  1.1710 -0.4904
   93SAPC  C212 9003   2.797   2.156   5.786  0.0448 -0.5290 -0.2568
   93SAPC  H12R 9004   2.835   2.171   5.684  0.1317  0.0417 -0.1428
   93SAPC  C213 9005   2.663   2.223   5.814 -0.1751  0.3262 -0.1731
   93SAPC  H13R 9006   2.678   2.331   5.792  0.3947  0.7933  2.2510
   93SAPC  H13S 9007   2.643   2.221   5.923 -0.1387  2.6516 -0.0722
   93SAPC  C214 9008   2.544   2.160   5.745 -0.9186  0.9494  0.0401
   93SAPC  H14R 9009   2.505   2.068   5.793 -0.7112  0.1728 -1.2250
   93SAPC  C215 9010   2.475   2.198   5.642  0.3270  0.3544  0.3545
   93SAPC  H15R 9011   2.395   2.135   5.600  1.7230 -1.0431 -0.3372
   93SAPC  C216 9012   2.505   2.329   5.573 -1.0351  0.0330 -0.3950
   93SAPC  H16R 9013   2.542   2.399   5.651 -1.4421 -0.2471  0.0573
   93SAPC  H16S 9014   2.417   2.375   5.524 -2.2840 -0.1384  1.5604
   93SAPC  C217 9015   2.608   2.294   5.460 -0.0669 -0.2705 -0.2170
   93SAPC  H17R 9016   2.691   2.237   5.506 -0.3968 -0.7505 -0.2057
   93SAPC  H17S 9017   2.665   2.384   5.428  0.2128 -0.5522 -0.5193
   93SAPC  C218 9018   2.542   2.225   5.340  0.2493  0.2373  0.1180
   93SAPC  H18R 9019   2.452   2.283   5.310 -0.8181 -1.1716  0.5095
   93SAPC  H18S 9020   2.497   2.130   5.376 -2.8171  2.3353  2.3348
   93SAPC  C219 9021   2.629   2.199   5.225  0.1042  0.3753 -0.1260
   93SAPC  H19R 9022   2.716   2.137   5.258  0.2996  0.7502  0.0659
   93SAPC  H19S 9023   2.667   2.298   5.193 -0.0603  0.3536 -0.3871
   93SAPC  C220 9024   2.560   2.121   5.121 -0.0667  0.1926  0.2772
   93SAPC  H20R 9025   2.481   2.183   5.073  1.0537  0.1625 -1.7121
   93SAPC  H20S 9026   2.513   2.026   5.156  2.7674 -0.0128  4.1403
   93SAPC  H20T 9027   2.620   2.088   5.033 -0.2057  4.3976 -1.6020
   93SAPC   C33 9028   1.881   1.853   6.572 -0.8449  0.2277 -0.6079
   93SAPC   H3X 9029   1.954   1.937   6.570 -1.6145  0.9255 -0.3510
   93SAPC   H3Y 9030   1.778   1.894   6.577 -0.7983  0.5598 -1.9303
   93SAPC   C34 9031   1.877   1.784   6.439  0.7248 -0.3147 -0.3311
   93SAPC   H4X 9032   1.786   1.719   6.442  0.5642 -0.0584  2.4468
   93SAPC   H4Y 9033   1.961   1.712   6.436  0.8183 -0.2491  0.4830
   93SAPC   C35 9034   1.873   1.867   6.307  0.2064 -0.4578 -0.1250
   93SAPC   H5X 9035   1.964   1.929   6.298 -0.1214 -0.0297 -0.5582
   93SAPC   H5Y 9036   1.791   1.941   6.314  0.5149 -0.1715  0.5622
   93SAPC   C36 9037   1.839   1.780   6.189 -0.1492  0.1906 -0.3012
   93SAPC   H6X 9038   1.729   1.766   6.186 -0.5916  2.7743  0.6499
   93SAPC   H6Y 9039   1.890   1.683   6.174 -0.8597 -0.0673 -1.1645
   93SAPC   C37 9040   1.858   1.852   6.044 -0.2252 -0.4563  0.0831
   93SAPC   H7X 9041   1.966   1.872   6.027 -0.9841  1.9612 -2.5157
   93SAPC   H7Y 9042   1.814   1.952   6.061 -1.8955 -0.6950 -2.3857
   93SAPC   C38 9043   1.797   1.774   5.935 -0.3157  0.5025 -0.5614
   93SAPC   H8X 9044   1.689   1.764   5.960  0.4308 -2.5998  2.1426
   93SAPC   H8Y 9045   1.841   1.672   5.932 -0.8905  0.1619  1.3128
   93SAPC   C39 9046   1.809   1.847   5.807  0.1760  0.0189  0.0877
   93SAPC   H9X 9047   1.911   1.850   5.762  0.0658 -1.6035 -0.3285
   93SAPC   H9Y 9048   1.781   1.953   5.821 -0.5687 -0.1640 -0.0016
   93SAPC  C310 9049   1.734   1.787   5.682  0.1980  0.9792 -0.8166
   93SAPC  H10X 9050   1.628   1.814   5.701 -0.1315 -0.8295  0.0527
   93SAPC  H10Y 9051   1.760   1.679   5.685  1.4656  1.2829  0.3255
   93SAPC  C311 9052   1.777   1.849   5.548  0.4337 -0.6842 -0.0005
   93SAPC  H11X 9053   1.888   1.851   5.545  0.6222  3.7843  1.9944
   93SAPC  H11Y 9054   1.745   1.955   5.533  1.9879 -0.2869 -0.7385
   93SAPC  C312 9055   1.720   1.779   5.428  0.0692 -0.1064  0.0814
   93SAPC  H12X 9056   1.611   1.799   5.415  0.3770  0.4330 -1.9919
   93SAPC  H12Y 9057   1.735   1.669   5.439  3.8455 -0.0386 -2.5362
   93SAPC  C313 9058   1.797   1.824   5.311 -0.9131  0.4155 -0.4033
   93SAPC  H13X 9059   1.896   1.774   5.319 -1.1750  0.0548  0.8811
   93SAPC  H13Y 9060   1.818   1.932   5.319 -0.5741  0.2338  1.6111
   93SAPC  C314 9061   1.733   1.774   5.182  0.1841 -0.5614  0.2714
   93SAPC  H14X 9062   1.632   1.820   5.184  1.0998  1.5913  2.3265
   93SAPC  H14Y 9063   1.715   1.665   5.193 -1.2198 -0.5092 -1.0797
   93SAPC  C315 9064   1.812   1.796   5.057  0.5960  0.6436  0.2507
   93SAPC  H15X 9065   1.915   1.752   5.061  0.4706  0.2777 -0.2848
   93SAPC  H15Y 9066   1.824   1.900   5.021 -0.7298  1.0958  1.0676
   93SAPC  C316 9067   1.750   1.710   4.943 -0.0130 -0.3305 -0.3431
   93SAPC  H16X 9068   1.642   1.732   4.929  0.5152  2.7814 -0.1209
   93SAPC  H16Y 9069   1.766   1.600   4.954 -1.3923 -0.6477 -1.2159
   93SAPC  C317 9070   1.821   1.729   4.807  0.0632  0.9980  0.2390
   93SAPC  H17X 9071   1.928   1.700   4.820  0.2540  0.8403 -1.4449
   93SAPC  H17Y 9072   1.814   1.835   4.774  1.7170  0.5917 -1.6419
   93SAPC  C318 9073   1.754   1.646   4.692  0.0702  0.1218 -0.0400
   93SAPC  H18X 9074   1.829   1.570   4.661  0.1064  0.1482 -0.0181
   93SAPC  H18Y 9075   1.722   1.700   4.600 -0.2210  1.7897  1.0022
   93SAPC  H18Z 9076   1.672   1.586   4.737 -1.0172 -0.0326 -2.1141
   94SAPC     N 9077   6.509   1.557   7.064  0.1968  0.3088  0.3143
   94SAPC   C12 9078   6.625   1.466   7.045 -0.0360  0.2742  0.1764
   94SAPC  H12A 9079   6.626   1.389   7.120  1.4429 -0.6037 -0.6943
   94SAPC  H12B 9080   6.720   1.518   7.042 -0.7708  1.6656 -1.6913
   94SAPC   C13 9081   6.497   1.651   6.946 -0.1685 -0.7332  0.5875
   94SAPC  H13A 9082   6.430   1.728   6.979  0.5951 -0.5272  1.7290
   94SAPC  H13B 9083   6.594   1.689   6.918 -1.7963  0.9215 -3.5721
   94SAPC  H13C 9084   6.457   1.591   6.866 -2.2436 -0.1640  1.1399
   94SAPC   C14 9085   6.376   1.478   7.078  0.1243 -0.4148 -0.0550
   94SAPC  H14A 9086   6.379   1.394   7.009  0.9315 -0.8753  0.5380
   94SAPC  H14B 9087   6.363   1.444   7.179  0.4784 -2.2627 -0.5912
   94SAPC  H14C 9088   6.287   1.535   7.052 -0.6200 -0.8585  1.4317
   94SAPC   C15 9089   6.526   1.635   7.188  0.6014  0.1066  0.2393
   94SAPC  H15A 9090   6.600   1.713   7.179  1.1378 -0.4628 -0.2560
   94SAPC  H15B 9091   6.428   1.667   7.221  0.8063 -1.4036  2.5370
   94SAPC  H15C 9092   6.554   1.580   7.277  0.5263  2.9260  2.1414
   94SAPC   C11 9093   6.610   1.380   6.921 -0.3693 -0.3611 -0.5141
   94SAPC  H11A 9094   6.699   1.352   6.862 -0.1733 -0.8032 -0.0116
   94SAPC  H11B 9095   6.545   1.427   6.843 -0.5852  1.6587  0.7946
   94SAPC     P 9096   6.593   1.143   7.049 -0.2339 -0.4021 -0.0931
   94SAPC   O13 9097   6.638   1.210   7.168  0.0778  0.0400 -0.1915
   94SAPC   O14 9098   6.484   1.045   7.062  0.2529 -0.9703 -0.0372
   94SAPC   O12 9099   6.538   1.259   6.958 -0.5612 -0.2340 -0.3138
   94SAPC   O11 9100   6.716   1.086   6.965  0.1165  0.6254 -0.0128
   94SAPC    C1 9101   6.706   1.038   6.832  0.2203  0.5526  0.4221
   94SAPC    HA 9102   6.636   1.095   6.768  1.6514  1.3104 -0.5204
   94SAPC    HB 9103   6.811   1.042   6.795  0.5924 -1.5131  1.1205
   94SAPC    C2 9104   6.661   0.888   6.823 -0.6005  0.0220  0.3330
   94SAPC    HS 9105   6.561   0.888   6.872 -1.2070  1.3337 -0.8462
   94SAPC   O21 9106   6.768   0.812   6.893 -0.4934  0.3114  0.4085
   94SAPC   C21 9107   6.715   0.702   6.943  0.4633 -0.6475  1.0159
   94SAPC   O22 9108   6.611   0.647   6.908 -0.8430  0.4473  0.4734
   94SAPC   C22 9109   6.807   0.640   7.050 -0.4334  0.0835  0.4113
   94SAPC   H2R 9110   6.855   0.718   7.112  1.9262 -0.7592 -0.2513
   94SAPC   H2S 9111   6.737   0.582   7.114 -1.7149 -1.0229 -1.8740
   94SAPC    C3 9112   6.643   0.840   6.675  0.0411 -0.0681  0.5265
   94SAPC    HX 9113   6.589   0.743   6.684  2.2789 -1.5068 -0.6911
   94SAPC    HY 9114   6.739   0.815   6.625 -0.9514  1.5728 -2.4943
   94SAPC   O31 9115   6.582   0.938   6.585  0.0764  0.1892 -0.8960
   94SAPC   C31 9116   6.456   0.909   6.548  0.3843 -0.5065 -0.0799
   94SAPC   O32 9117   6.396   0.806   6.576 -0.2299  0.5826  0.2509
   94SAPC   C32 9118   6.391   1.027   6.475  0.5003 -0.6072  0.0243
   94SAPC   H2X 9119   6.468   1.096   6.434  0.4757 -0.3642  0.3904
   94SAPC   H2Y 9120   6.330   1.073   6.556 -0.2538  2.1845 -1.9905
   94SAPC   C23 9121   6.904   0.539   6.983  0.0185 -0.2991  0.5753
   94SAPC   H3R 9122   6.859   0.465   6.913  2.5649  0.9798 -2.6794
   94SAPC   H3S 9123   6.942   0.474   7.065  0.0201 -2.0786 -0.7733
   94SAPC   C24 9124   7.025   0.606   6.913  0.2519 -0.2146 -0.5744
   94SAPC   H4R 9125   7.081   0.667   6.987 -1.3447  1.2749 -0.5316
   94SAPC   H4S 9126   6.998   0.692   6.849 -0.7373 -1.1209 -1.4183
   94SAPC   C25 9127   7.120   0.506   6.861 -1.1201 -0.0020 -0.2023
   94SAPC   H5R 9128   7.137   0.411   6.915 -2.6608  0.2798  0.8422
   94SAPC   C26 9129   7.186   0.533   6.748  0.7691  0.0859  0.4099
   94SAPC   H6R 9130   7.258   0.460   6.709  0.5701 -0.6689  1.4104
   94SAPC   C27 9131   7.167   0.657   6.659 -0.2852  0.4048 -0.7250
   94SAPC   H7R 9132   7.061   0.689   6.648 -0.1474  1.0916 -0.1442
   94SAPC   H7S 9133   7.194   0.617   6.559 -0.6542  1.1306 -1.1209
   94SAPC   C28 9134   7.264   0.777   6.681  0.0143 -0.5135 -0.1823
   94SAPC   H8R 9135   7.301   0.807   6.780  1.7646 -0.3277 -0.8665
   94SAPC   C29 9136   7.297   0.859   6.583 -0.1561  0.6071  0.2309
   94SAPC   H9R 9137   7.361   0.946   6.604 -0.7598  0.6060  2.2503
   94SAPC  C210 9138   7.243   0.860   6.444  0.3494 -0.1771  0.4056
   94SAPC  H10R 9139   7.245   0.757   6.402 -1.7415 -1.1923  2.5600
   94SAPC  H10S 9140   7.297   0.926   6.373 -3.9836 -0.1063 -3.2817
   94SAPC  C211 9141   7.095   0.901   6.431  1.0568 -0.4506 -0.6371
   94SAPC  H11R 9142   7.064   0.972   6.509 -1.3672 -0.4615 -1.5321
   94SAPC  C212 9143   7.007   0.876   6.325 -0.3923  0.1092 -1.3308
   94SAPC  H12R 9144   6.902   0.905   6.341  0.4726  2.3939  0.8872
   94SAPC  C213 9145   7.032   0.789   6.211 -0.7844  1.0286 -0.7388
   94SAPC  H13R 9146   6.956   0.709   6.200  2.1405 -2.0648  0.0196
   94SAPC  H13S 9147   7.131   0.741   6.226 -0.2235  2.2732 -0.3214
   94SAPC  C214 9148   7.050   0.873   6.094 -0.1650 -0.4643 -0.0044
   94SAPC  H14R 9149   7.105   0.966   6.114 -1.6374  0.1008  1.6660
   94SAPC  C215 9150   7.015   0.840   5.969 -0.5650  0.1552  0.6860
   94SAPC  H15R 9151   7.035   0.909   5.886  0.0284 -1.2258 -0.3598
   94SAPC  C216 9152   6.954   0.706   5.929  0.0819  0.5266 -0.5969
   94SAPC  H16R 9153   6.896   0.648   6.004  0.6916 -0.5208 -0.9136
   94SAPC  H16S 9154   7.033   0.632   5.906  0.8857  1.0254  0.4631
   94SAPC  C217 9155   6.856   0.714   5.806 -0.3896  0.5339  0.1000
   94SAPC  H17R 9156   6.917   0.746   5.718  1.5520 -3.8726 -0.4514
   94SAPC  H17S 9157   6.772   0.786   5.815 -0.2089  0.7062  0.4551
   94SAPC  C218 9158   6.798   0.574   5.768  1.1083  0.0540  0.1607
   94SAPC  H18R 9159   6.728   0.545   5.849 -0.2635 -0.3020 -1.1060
   94SAPC  H18S 9160   6.879   0.498   5.771  2.7008  1.6833 -0.1641
   94SAPC  C219 9161   6.718   0.562   5.642  0.2406  0.1935 -0.5084
   94SAPC  H19R 9162   6.684   0.458   5.622 -0.1077  0.2235 -0.0967
   94SAPC  H19S 9163   6.776   0.583   5.550 -1.0566  4.0105 -0.6231
   94SAPC  C220 9164   6.597   0.660   5.630  0.3483  0.7893 -0.3656
   94SAPC  H20R 9165   6.534   0.625   5.546 -0.7068  0.2398  0.6339
   94SAPC  H20S 9166   6.629   0.767   5.621 -1.5727  1.3404 -1.1865
   94SAPC  H20T 9167   6.534   0.646   5.720  1.4774  3.6843  1.0085
   94SAPC   C33 9168   6.280   0.986   6.375 -0.3020  0.1407  0.0145
   94SAPC   H3X 9169   6.220   1.075   6.347 -1.9589 -0.9121  0.0627
   94SAPC   H3Y 9170   6.216   0.912   6.428  1.0120 -1.2343 -0.2365
   94SAPC   C34 9171   6.340   0.918   6.257 -0.0396  0.0107 -0.0038
   94SAPC   H4X 9172   6.362   0.816   6.294  1.0141  1.0003  2.3206
   94SAPC   H4Y 9173   6.435   0.964   6.221 -1.1206  1.4372 -1.1645
   94SAPC   C35 9174   6.247   0.926   6.136  0.4019  0.0119 -0.0277
   94SAPC   H5X 9175   6.206   1.028   6.124  0.3783 -0.0328 -0.3157
   94SAPC   H5Y 9176   6.161   0.857   6.153 -0.7906  1.1480 -1.2741
   94SAPC   C36 9177   6.318   0.887   6.005  0.2197  0.0051  0.3859
   94SAPC   H6X 9178   6.340   0.778   6.008 -0.4488 -0.2791 -2.4610
   94SAPC   H6Y 9179   6.410   0.948   5.996 -0.5541  1.2751  0.8720
   94SAPC   C37 9180   6.240   0.930   5.885  0.5357 -0.3073  0.0457
   94SAPC   H7X 9181   6.207   1.036   5.879  0.5978 -0.3128 -0.4030
   94SAPC   H7Y 9182   6.146   0.871   5.892 -0.4947  1.2898  0.1340
   94SAPC   C38 9183   6.313   0.891   5.761  0.3454  0.6525  0.2243
   94SAPC   H8X 9184   6.364   0.792   5.767 -2.5721 -0.9181  1.3461
   94SAPC   H8Y 9185   6.392   0.967   5.742  2.0382 -0.3072  2.8956
   94SAPC   C39 9186   6.234   0.895   5.627  0.0262  0.5361  0.8275
   94SAPC   H9X 9187   6.167   0.983   5.629 -1.2356 -0.3116 -1.3835
   94SAPC   H9Y 9188   6.169   0.805   5.621 -2.6507  2.3560  0.9070
   94SAPC  C310 9189   6.317   0.918   5.501  0.7613  0.8331 -0.2286
   94SAPC  H10X 9190   6.421   0.891   5.528  0.6347  1.5710  1.1091
   94SAPC  H10Y 9191   6.321   1.026   5.479 -1.1341  1.2204  1.0413
   94SAPC  C311 9192   6.260   0.853   5.377 -0.3082 -0.3928  0.1098
   94SAPC  H11X 9193   6.174   0.911   5.337  0.6775  0.3930 -0.9035
   94SAPC  H11Y 9194   6.227   0.747   5.386  0.1522 -0.7802 -2.1174
   94SAPC  C312 9195   6.370   0.842   5.270  0.0329  0.0604 -0.2667
   94SAPC  H12X 9196   6.459   0.796   5.319  1.5383  4.2783  1.4870
   94SAPC  H12Y 9197   6.401   0.946   5.245  3.5399 -0.8197 -0.1102
   94SAPC  C313 9198   6.323   0.772   5.139  0.4058  0.0641 -0.3417
   94SAPC  H13X 9199   6.229   0.818   5.101 -0.2582 -0.2686  0.8673
   94SAPC  H13Y 9200   6.298   0.668   5.169  3.8321 -0.9587 -0.5536
   94SAPC  C314 9201   6.428   0.786   5.024 -0.1909  0.3612 -1.2573
   94SAPC  H14X 9202   6.531   0.760   5.056 -0.6966  0.2031  0.2949
   94SAPC  H14Y 9203   6.432   0.890   4.985  0.3432 -0.3099 -3.1003
   94SAPC  C315 9204   6.390   0.701   4.907  0.3374  0.0154  0.0419
   94SAPC  H15X 9205   6.435   0.744   4.815 -0.3122  2.1854  0.6829
   94SAPC  H15Y 9206   6.280   0.689   4.900  0.3113  0.3704 -0.1602
   94SAPC  C316 9207   6.442   0.556   4.920  0.1318  0.0696 -0.0931
   94SAPC  H16X 9208   6.407   0.510   5.015 -2.3122 -0.2478 -1.0593
   94SAPC  H16Y 9209   6.551   0.559   4.898 -0.1450  1.8659 -1.4479
   94SAPC  C317 9210   6.380   0.477   4.805  0.1068 -0.2812  0.0095
   94SAPC  H17X 9211   6.315   0.538   4.738 -0.1889 -0.2576  0.3165
   94SAPC  H17Y 9212   6.318   0.395   4.846 -1.5206 -0.9618 -3.4013
   94SAPC  C318 9213   6.489   0.421   4.713 -0.2847 -0.1498 -0.6968
   94SAPC  H18X 9214   6.549   0.509   4.681 -0.9731  0.7364  0.3735
   94SAPC  H18Y 9215   6.450   0.381   4.617  2.0370  1.2168 -2.3223
   94SAPC  H18Z 9216   6.546   0.350   4.776 -0.5018 -0.1905 -0.5441
   95SAPC     N 9217   6.077   4.927   2.261 -0.3989 -0.4844  0.1315
   95SAPC   C12 9218   6.060   4.888   2.403  0.5673 -0.7565 -0.3236
   95SAPC  H12A 9219   6.027   4.978   2.454  0.3386 -1.6010  1.0644
   95SAPC  H12B 9220   6.152   4.868   2.456 -0.4128 -1.6676  1.0873
   95SAPC   C13 9221   6.122   4.812   2.174 -0.0663 -0.1042 -0.0515
   95SAPC  H13A 9222   6.156   4.855   2.081  0.7045  2.5482  1.3414
   95SAPC  H13B 9223   6.196   4.754   2.227 -0.4918 -0.0448  0.6242
   95SAPC  H13C 9224   6.044   4.738   2.166  0.9203 -1.5886  2.6706
   95SAPC   C14 9225   5.951   4.992   2.209 -1.0173  0.8592  0.4197
   95SAPC  H14A 9226   5.936   5.087   2.257 -0.3119  2.2283 -1.9372
   95SAPC  H14B 9227   5.960   5.010   2.103  1.8748  1.5050  0.7008
   95SAPC  H14C 9228   5.869   4.934   2.249  0.5823 -0.1371  2.3977
   95SAPC   C15 9229   6.176   5.041   2.261 -0.0437 -0.2231  0.0437
   95SAPC  H15A 9230   6.266   5.021   2.317  0.5421  2.5713  0.2444
   95SAPC  H15B 9231   6.201   5.067   2.159 -0.1704 -0.1555  0.0288
   95SAPC  H15C 9232   6.146   5.132   2.311  0.8346  1.4570 -2.2566
   95SAPC   C11 9233   5.966   4.783   2.461  0.0447  0.1676  0.6828
   95SAPC  H11A 9234   5.982   4.755   2.567 -0.9698 -1.1853  0.4987
   95SAPC  H11B 9235   5.988   4.691   2.403 -1.4937 -0.7185  1.4376
   95SAPC     P 9236   5.770   4.931   2.538  0.4227  0.0857  0.3281
   95SAPC   O13 9237   5.880   5.003   2.591  0.2407 -0.2414  0.0286
   95SAPC   O14 9238   5.672   5.009   2.468 -0.2548  0.6751  0.7638
   95SAPC   O12 9239   5.826   4.809   2.439  0.3597  0.1463 -0.0052
   95SAPC   O11 9240   5.705   4.852   2.649 -0.3849  0.2383  0.0364
   95SAPC    C1 9241   5.590   4.876   2.726  0.2035 -0.2953  0.2590
   95SAPC    HA 9242   5.517   4.939   2.672 -0.4397 -2.2326 -1.2750
   95SAPC    HB 9243   5.531   4.782   2.728 -1.0130  0.4202 -0.8263
   95SAPC    C2 9244   5.627   4.922   2.867 -0.2470 -0.0799 -0.8887
   95SAPC    HS 9245   5.530   4.928   2.921 -0.0719 -1.7600 -0.3285
   95SAPC   O21 9246   5.697   5.043   2.873  0.2197  0.2457 -0.0332
   95SAPC   C21 9247   5.636   5.147   2.826  0.1807 -0.1218 -0.2757
   95SAPC   O22 9248   5.511   5.159   2.811 -0.2828  0.0958 -0.0605
   95SAPC   C22 9249   5.742   5.254   2.782  0.6882  0.0198  0.0910
   95SAPC   H2R 9250   5.847   5.220   2.770  1.0605  1.0240  0.4044
   95SAPC   H2S 9251   5.709   5.279   2.679 -1.0564  0.9872  0.8403
   95SAPC    C3 9252   5.702   4.809   2.942  0.1677 -0.2824 -0.1788
   95SAPC    HX 9253   5.808   4.798   2.911  0.2649 -2.5836  0.7906
   95SAPC    HY 9254   5.663   4.715   2.897 -0.0487 -0.5436  0.5451
   95SAPC   O31 9255   5.684   4.824   3.084  0.6798 -0.1016  0.1678
   95SAPC   C31 9256   5.774   4.905   3.138 -0.0117 -0.6981 -0.9473
   95SAPC   O32 9257   5.867   4.948   3.078  0.4955 -0.3141  0.3788
   95SAPC   C32 9258   5.743   4.933   3.282  0.5667  0.1846  0.0062
   95SAPC   H2X 9259   5.744   4.846   3.351 -0.5118 -0.0051 -0.2013
   95SAPC   H2Y 9260   5.639   4.971   3.290  0.1503 -1.1829  1.7361
   95SAPC   C23 9261   5.747   5.384   2.866  0.2607  0.1081 -0.2449
   95SAPC   H3R 9262   5.651   5.439   2.861  0.8973  1.2645 -0.0278
   95SAPC   H3S 9263   5.823   5.454   2.825 -0.2757  0.2714 -0.9876
   95SAPC   C24 9264   5.785   5.362   3.016  0.3840 -0.3097 -0.0067
   95SAPC   H4R 9265   5.706   5.300   3.064  1.1401 -0.8357  0.5802
   95SAPC   H4S 9266   5.785   5.461   3.067 -1.1218  0.7391 -1.9196
   95SAPC   C25 9267   5.914   5.298   3.041 -0.7548  0.0017 -0.1435
   95SAPC   H5R 9268   5.937   5.204   2.989 -2.1772  0.1064 -1.0026
   95SAPC   C26 9269   6.019   5.362   3.105 -0.9408  0.7322 -0.1029
   95SAPC   H6R 9270   6.115   5.309   3.115  0.0482  2.4544 -0.1402
   95SAPC   C27 9271   6.017   5.492   3.183 -0.2170 -0.0684  0.4990
   95SAPC   H7R 9272   6.061   5.476   3.284 -0.4045  1.0496  0.7682
   95SAPC   H7S 9273   5.911   5.520   3.200  0.2441  1.7211  0.5806
   95SAPC   C28 9274   6.079   5.615   3.114 -1.0321 -0.0356 -0.1580
   95SAPC   H8R 9275   6.019   5.673   3.043 -0.2069  1.4519  0.3131
   95SAPC   C29 9276   6.199   5.672   3.139 -0.5204  0.4900  0.3568
   95SAPC   H9R 9277   6.227   5.751   3.067  1.7294 -1.0804 -0.6026
   95SAPC  C210 9278   6.310   5.636   3.229 -0.0391  0.0509 -0.3901
   95SAPC  H10R 9279   6.256   5.620   3.325  1.5882 -1.3487  0.3455
   95SAPC  H10S 9280   6.372   5.726   3.248  0.4832 -0.5293  0.7862
   95SAPC  C211 9281   6.403   5.526   3.187 -0.1169 -0.1025 -0.0258
   95SAPC  H11R 9282   6.399   5.504   3.080  1.0336  0.2973 -0.1714
   95SAPC  C212 9283   6.479   5.449   3.270  0.1051 -0.3040 -0.0910
   95SAPC  H12R 9284   6.557   5.386   3.228  0.8379  0.9443 -0.6627
   95SAPC  C213 9285   6.477   5.481   3.420  0.0932 -0.0133  0.3909
   95SAPC  H13R 9286   6.514   5.391   3.471  1.5066  0.8926  1.0120
   95SAPC  H13S 9287   6.371   5.494   3.450 -0.1386  1.8904 -1.0402
   95SAPC  C214 9288   6.554   5.600   3.469  0.1685 -0.0410  0.2430
   95SAPC  H14R 9289   6.590   5.669   3.391 -0.5576 -1.6388 -1.5699
   95SAPC  C215 9290   6.587   5.634   3.597  0.1959  0.4672 -0.4220
   95SAPC  H15R 9291   6.654   5.718   3.619  0.4909 -0.3972  2.3839
   95SAPC  C216 9292   6.537   5.550   3.715 -0.9352  0.3687  0.0843
   95SAPC  H16R 9293   6.516   5.442   3.701 -0.2432  0.2354  0.0554
   95SAPC  H16S 9294   6.450   5.603   3.760  0.5880  0.7517  2.8237
   95SAPC  C217 9295   6.650   5.541   3.824  0.6568 -0.4848  0.3510
   95SAPC  H17R 9296   6.675   5.644   3.858 -1.0677  0.7480 -1.8770
   95SAPC  H17S 9297   6.741   5.491   3.785  0.0377 -1.3989  0.0484
   95SAPC  C218 9298   6.619   5.449   3.948  0.1052  0.0407  0.3748
   95SAPC  H18R 9299   6.711   5.438   4.010  0.0527  2.5056  0.9957
   95SAPC  H18S 9300   6.592   5.349   3.907 -0.1193 -0.0932  0.8425
   95SAPC  C219 9301   6.505   5.505   4.039  0.5111 -0.0511  0.4454
   95SAPC  H19R 9302   6.449   5.423   4.089 -1.5568  1.6335  1.0503
   95SAPC  H19S 9303   6.430   5.553   3.973  0.8292 -0.4024 -0.1742
   95SAPC  C220 9304   6.549   5.596   4.151  0.6659 -0.0481  0.2562
   95SAPC  H20R 9305   6.627   5.667   4.117 -1.5046  1.9472 -0.8781
   95SAPC  H20S 9306   6.587   5.535   4.236 -0.5370 -3.2060 -1.3173
   95SAPC  H20T 9307   6.458   5.648   4.190  0.5840 -0.6483  0.8998
   95SAPC   C33 9308   5.833   5.041   3.341  0.2847  0.1361 -0.1672
   95SAPC   H3X 9309   5.818   5.135   3.283 -1.7226 -0.6157 -0.9342
   95SAPC   H3Y 9310   5.941   5.013   3.343  0.5932  1.1392 -1.5462
   95SAPC   C34 9311   5.806   5.086   3.490  0.1150  0.4712  0.0537
   95SAPC   H4X 9312   5.701   5.122   3.491 -0.3142 -0.5622 -2.2695
   95SAPC   H4Y 9313   5.873   5.172   3.512 -0.2076  0.3001  1.9281
   95SAPC   C35 9314   5.825   4.993   3.601 -0.3753  0.3877 -0.6831
   95SAPC   H5X 9315   5.926   4.951   3.584 -0.2094  0.4157  0.1605
   95SAPC   H5Y 9316   5.771   4.897   3.587  0.6561 -0.3404  0.1018
   95SAPC   C36 9317   5.803   5.041   3.747  0.4009  0.4809 -0.0963
   95SAPC   H6X 9318   5.693   5.059   3.748 -0.0169 -1.7501 -1.2472
   95SAPC   H6Y 9319   5.858   5.135   3.771  1.0322 -0.0836  0.6880
   95SAPC   C37 9320   5.825   4.930   3.858  0.7887 -0.5926 -0.6783
   95SAPC   H7X 9321   5.933   4.905   3.849  1.6468  1.7648  1.7527
   95SAPC   H7Y 9322   5.757   4.846   3.832  0.8271 -0.4155 -1.3941
   95SAPC   C38 9323   5.795   4.988   3.997 -0.5908  0.4497 -0.4546
   95SAPC   H8X 9324   5.687   5.006   4.017 -0.4259 -0.1395  1.1717
   95SAPC   H8Y 9325   5.845   5.086   4.011 -0.3628  0.0817  1.6793
   95SAPC   C39 9326   5.847   4.899   4.113  0.3628 -0.5131  0.2244
   95SAPC   H9X 9327   5.958   4.904   4.117  0.3795 -1.0588  0.5854
   95SAPC   H9Y 9328   5.821   4.792   4.096 -2.7551  0.3016 -0.6777
   95SAPC  C310 9329   5.809   4.949   4.256  0.5568 -0.4129  0.1799
   95SAPC  H10X 9330   5.698   4.957   4.256  0.3847 -1.1192  3.4093
   95SAPC  H10Y 9331   5.845   5.051   4.281  2.2764 -0.7825 -0.6451
   95SAPC  C311 9332   5.851   4.844   4.367  0.5579  0.2537  0.2010
   95SAPC  H11X 9333   5.960   4.843   4.390  0.2125  2.1039  2.3005
   95SAPC  H11Y 9334   5.817   4.741   4.346 -1.3676  0.6104  1.3341
   95SAPC  C312 9335   5.782   4.872   4.503  0.3898 -0.1237  0.0559
   95SAPC  H12X 9336   5.817   4.798   4.578  0.4010 -3.5286 -3.0454
   95SAPC  H12Y 9337   5.673   4.854   4.490  0.6734 -1.0597 -1.1644
   95SAPC  C313 9338   5.821   5.009   4.558  0.1928 -0.4419 -0.5294
   95SAPC  H13X 9339   5.767   5.082   4.494 -1.1772 -0.0004  1.0531
   95SAPC  H13Y 9340   5.930   5.030   4.561 -0.1279  1.3801  0.5184
   95SAPC  C314 9341   5.770   5.028   4.704 -0.0861 -0.5466  0.2840
   95SAPC  H14X 9342   5.806   4.938   4.757 -0.0806 -0.4332  0.4705
   95SAPC  H14Y 9343   5.659   5.030   4.695  0.0848  1.1967 -4.7880
   95SAPC  C315 9344   5.799   5.162   4.775 -0.0439  0.8142  0.3405
   95SAPC  H15X 9345   5.904   5.169   4.811  0.5239 -1.7081 -0.6448
   95SAPC  H15Y 9346   5.730   5.163   4.862  0.5869 -0.5765  0.8832
   95SAPC  C316 9347   5.774   5.289   4.690 -0.0563 -0.3958 -0.0756
   95SAPC  H16X 9348   5.757   5.373   4.761  1.6275 -1.0815  1.2170
   95SAPC  H16Y 9349   5.685   5.293   4.624  1.4522 -1.5852 -2.2946
   95SAPC  C317 9350   5.902   5.332   4.611 -0.4169 -0.2805 -0.5774
   95SAPC  H17X 9351   5.923   5.253   4.536  0.1162  0.8547 -1.6528
   95SAPC  H17Y 9352   5.989   5.329   4.680 -0.2525 -2.2528 -0.8000
   95SAPC  C318 9353   5.891   5.462   4.530 -0.3190  0.2400 -0.5971
   95SAPC  H18X 9354   5.984   5.477   4.472 -0.0349 -1.6008 -0.6889
   95SAPC  H18Y 9355   5.870   5.545   4.601 -0.2013 -0.8470  0.7521
   95SAPC  H18Z 9356   5.808   5.453   4.457  1.8457 -0.8468 -3.1059
   96SAPC     N 9357   6.005   6.705   2.061 -0.5789 -0.3816 -0.2493
   96SAPC   C12 9358   5.865   6.696   2.106  0.4225  0.0697  0.2153
   96SAPC  H12A 9359   5.807   6.653   2.025  0.6501 -1.5798  0.8821
   96SAPC  H12B 9360   5.815   6.789   2.126 -2.4941 -1.7054  2.0222
   96SAPC   C13 9361   6.098   6.747   2.168  0.3063  0.0473 -0.4201
   96SAPC  H13A 9362   6.053   6.836   2.210 -3.9431 -1.4826 -1.2423
   96SAPC  H13B 9363   6.096   6.682   2.255  1.0045  1.7852  0.9528
   96SAPC  H13C 9364   6.197   6.770   2.133  0.4330  3.3294  1.6819
   96SAPC   C14 9365   6.056   6.570   2.028  0.2374  0.2630  0.0725
   96SAPC  H14A 9366   6.006   6.492   2.083 -2.3799  0.6232 -1.6235
   96SAPC  H14B 9367   6.037   6.559   1.923  0.6529  0.7004 -0.0502
   96SAPC  H14C 9368   6.158   6.549   2.057  0.0653 -1.5490 -0.5519
   96SAPC   C15 9369   6.017   6.793   1.944 -0.3466 -0.0406 -0.3437
   96SAPC  H15A 9370   6.108   6.769   1.892 -0.9951  0.8031 -1.9353
   96SAPC  H15B 9371   5.937   6.783   1.871 -1.2238  0.1274  0.5741
   96SAPC  H15C 9372   6.027   6.896   1.973 -0.1777 -0.1035 -0.1780
   96SAPC   C11 9373   5.843   6.607   2.233  0.0726 -0.2973 -0.3518
   96SAPC  H11A 9374   5.736   6.598   2.263 -0.0387  1.9941  0.1838
   96SAPC  H11B 9375   5.882   6.660   2.323 -3.4752  0.7458  0.7557
   96SAPC     P 9376   5.833   6.349   2.205  0.2428 -0.1683  0.0648
   96SAPC   O13 9377   5.730   6.378   2.098  0.7872  0.5486  0.0562
   96SAPC   O14 9378   5.928   6.240   2.179  0.1275  0.2720 -0.4009
   96SAPC   O12 9379   5.903   6.478   2.239 -0.0948 -0.1662 -0.0083
   96SAPC   O11 9380   5.762   6.322   2.335 -0.1639 -0.8235 -0.7508
   96SAPC    C1 9381   5.702   6.195   2.372 -0.6349 -0.7544 -0.0234
   96SAPC    HA 9382   5.669   6.135   2.284  1.3074 -1.4824 -0.3104
   96SAPC    HB 9383   5.773   6.128   2.425 -1.9450 -2.4249 -0.2736
   96SAPC    C2 9384   5.573   6.216   2.457 -0.8537  0.0677 -0.0606
   96SAPC    HS 9385   5.505   6.283   2.401 -0.1713  0.9383  0.1400
   96SAPC   O21 9386   5.624   6.268   2.582  0.2477  0.3502  0.0755
   96SAPC   C21 9387   5.583   6.389   2.606 -0.6846 -0.0531 -0.4428
   96SAPC   O22 9388   5.499   6.453   2.550 -0.1484 -0.0747 -0.0322
   96SAPC   C22 9389   5.679   6.449   2.709  0.2329  0.1687 -0.6024
   96SAPC   H2R 9390   5.781   6.420   2.676  0.7734 -0.0902  1.2005
   96SAPC   H2S 9391   5.671   6.560   2.707 -3.2507  0.1196  1.7596
   96SAPC    C3 9392   5.495   6.092   2.503  0.2488 -0.3024 -0.2147
   96SAPC    HX 9393   5.577   6.021   2.526 -0.7365 -0.9405  1.5558
   96SAPC    HY 9394   5.440   6.044   2.420 -0.5753  1.6846 -0.8795
   96SAPC   O31 9395   5.411   6.109   2.620  0.1455  0.3760  0.3163
   96SAPC   C31 9396   5.288   6.150   2.605 -0.7637 -0.5575 -0.1983
   96SAPC   O32 9397   5.237   6.185   2.500  0.7135  0.0863 -0.4810
   96SAPC   C32 9398   5.219   6.146   2.750  0.5351  0.5912 -0.2581
   96SAPC   H2X 9399   5.214   6.039   2.779  1.7376  0.5618 -0.1140
   96SAPC   H2Y 9400   5.114   6.181   2.739  0.5029  0.3205 -0.8895
   96SAPC   C23 9401   5.667   6.378   2.850  0.1568 -0.5169 -0.4062
   96SAPC   H3R 9402   5.692   6.270   2.854 -1.5465 -0.9645 -1.1961
   96SAPC   H3S 9403   5.558   6.391   2.869  0.6542 -0.0878  2.7628
   96SAPC   C24 9404   5.739   6.457   2.959 -0.0702  0.2547 -0.6165
   96SAPC   H4R 9405   5.704   6.562   2.959  1.1504  0.7089  1.0581
   96SAPC   H4S 9406   5.846   6.460   2.927  0.2055 -0.4647  0.1936
   96SAPC   C25 9407   5.728   6.387   3.103  0.1083 -0.8735  0.6551
   96SAPC   H5R 9408   5.630   6.341   3.124 -0.3210 -0.8659 -1.1660
   96SAPC   C26 9409   5.821   6.397   3.202  0.1446 -0.1080 -0.1212
   96SAPC   H6R 9410   5.797   6.340   3.293 -2.3297 -0.8649 -1.1673
   96SAPC   C27 9411   5.961   6.460   3.201  1.2366 -0.0453 -0.8893
   96SAPC   H7R 9412   5.970   6.533   3.285  0.9961 -1.9193  0.8367
   96SAPC   H7S 9413   5.977   6.514   3.105  2.2273  1.5686  0.1361
   96SAPC   C28 9414   6.065   6.351   3.224 -0.1264 -0.1655  1.0257
   96SAPC   H8R 9415   6.085   6.313   3.325  1.3612 -1.0805  0.4236
   96SAPC   C29 9416   6.132   6.290   3.127  0.1677 -0.2453  0.3782
   96SAPC   H9R 9417   6.200   6.207   3.149  1.8988  0.9000 -0.3857
   96SAPC  C210 9418   6.122   6.325   2.982  0.0623 -0.2530  0.3927
   96SAPC  H10R 9419   6.126   6.434   2.964  1.0725 -0.4190 -0.6004
   96SAPC  H10S 9420   6.026   6.299   2.933  0.6004 -0.5744 -0.5309
   96SAPC  C211 9421   6.229   6.256   2.902 -1.0538  0.8257  0.0307
   96SAPC  H11R 9422   6.313   6.322   2.873 -0.4150 -0.5925 -1.5327
   96SAPC  C212 9423   6.224   6.124   2.854  0.2617  0.0251 -0.3238
   96SAPC  H12R 9424   6.306   6.084   2.793 -0.4808 -0.0004 -1.3213
   96SAPC  C213 9425   6.110   6.029   2.877 -0.1271  0.4646 -1.0446
   96SAPC  H13R 9426   6.027   6.077   2.934 -0.9813 -1.6603 -0.3784
   96SAPC  H13S 9427   6.152   5.956   2.949 -0.0148  1.7294  0.2161
   96SAPC  C214 9428   6.045   5.974   2.750 -0.3296 -0.2734  0.7741
   96SAPC  H14R 9429   5.969   6.042   2.707  0.5832  0.6016  0.4976
   96SAPC  C215 9430   6.055   5.853   2.698  0.4713  0.1243 -0.1507
   96SAPC  H15R 9431   5.985   5.825   2.617 -0.1215 -0.8554  0.6780
   96SAPC  C216 9432   6.132   5.731   2.741 -0.0820 -0.0024  0.3459
   96SAPC  H16R 9433   6.076   5.685   2.825 -2.7276  0.7621 -0.8935
   96SAPC  H16S 9434   6.226   5.764   2.791  0.4097 -2.1812  0.9824
   96SAPC  C217 9435   6.158   5.629   2.637 -0.1043  0.4992  0.0299
   96SAPC  H17R 9436   6.214   5.688   2.562 -0.7231 -0.4664 -1.2291
   96SAPC  H17S 9437   6.069   5.591   2.582  0.2120 -0.1246 -0.0665
   96SAPC  C218 9438   6.232   5.510   2.693  0.2683  0.8321  0.5645
   96SAPC  H18R 9439   6.306   5.556   2.761  0.0625 -1.4443  2.4450
   96SAPC  H18S 9440   6.280   5.453   2.611  0.4653 -2.3632  2.7135
   96SAPC  C219 9441   6.141   5.413   2.765  0.8007  0.5708  1.0824
   96SAPC  H19R 9442   6.060   5.373   2.701  0.8386  1.2370  0.6118
   96SAPC  H19S 9443   6.090   5.468   2.847 -0.1980  2.2509 -0.6015
   96SAPC  C220 9444   6.215   5.290   2.822  0.4604 -0.2585 -0.0641
   96SAPC  H20R 9445   6.280   5.316   2.909  0.7181  0.3418 -0.4340
   96SAPC  H20S 9446   6.277   5.255   2.737  0.1290  1.5669 -1.1066
   96SAPC  H20T 9447   6.145   5.212   2.860  1.2618  0.4090  3.1469
   96SAPC   C33 9448   5.304   6.212   2.862  0.6237  0.8278 -0.0576
   96SAPC   H3X 9449   5.313   6.322   2.852 -0.4667  0.7206 -3.2930
   96SAPC   H3Y 9450   5.405   6.170   2.844 -0.5908 -1.1326 -3.1421
   96SAPC   C34 9451   5.242   6.172   2.996 -0.7295 -0.2135 -0.3964
   96SAPC   H4X 9452   5.231   6.061   2.999  0.0207 -0.3316 -1.5235
   96SAPC   H4Y 9453   5.138   6.212   2.994 -0.9530 -0.5547  1.9338
   96SAPC   C35 9454   5.317   6.222   3.118  0.1049  0.4582  0.8676
   96SAPC   H5X 9455   5.423   6.191   3.111  0.4799  1.6202  1.2594
   96SAPC   H5Y 9456   5.278   6.171   3.209  1.0109 -1.7694  0.0739
   96SAPC   C36 9457   5.298   6.377   3.138 -0.2032  0.4578 -0.1985
   96SAPC   H6X 9458   5.189   6.389   3.155  0.0887  0.8600  1.5671
   96SAPC   H6Y 9459   5.335   6.426   3.045  1.9154 -0.8577 -0.1158
   96SAPC   C37 9460   5.376   6.427   3.261 -0.1783 -0.4417 -0.1970
   96SAPC   H7X 9461   5.387   6.536   3.239 -0.6772 -0.8416 -2.7277
   96SAPC   H7Y 9462   5.470   6.369   3.261  0.8693  1.1931  0.7359
   96SAPC   C38 9463   5.309   6.405   3.390  0.1358  0.1877  0.2798
   96SAPC   H8X 9464   5.223   6.337   3.369  0.5124 -0.5747  1.1442
   96SAPC   H8Y 9465   5.262   6.502   3.417  1.8065  0.9929  0.3677
   96SAPC   C39 9466   5.395   6.346   3.497 -0.5694 -0.8561  0.5847
   96SAPC   H9X 9467   5.485   6.411   3.492 -1.4100  0.2477 -1.0483
   96SAPC   H9Y 9468   5.445   6.250   3.472  0.9129  0.5224 -2.2576
   96SAPC  C310 9469   5.333   6.344   3.637  0.3972  0.0893  0.3505
   96SAPC  H10X 9470   5.234   6.295   3.643  0.9214 -1.6357 -2.8707
   96SAPC  H10Y 9471   5.312   6.452   3.654  2.7254  0.3533  2.1717
   96SAPC  C311 9472   5.434   6.301   3.746 -0.0776 -0.0039  0.5617
   96SAPC  H11X 9473   5.514   6.378   3.744  0.8805 -0.9756  0.3409
   96SAPC  H11Y 9474   5.496   6.213   3.715 -0.8776  0.0208 -1.2202
   96SAPC  C312 9475   5.375   6.288   3.886  0.3902 -0.5888 -1.0698
   96SAPC  H12X 9476   5.320   6.191   3.895 -0.0843 -0.3283 -1.1290
   96SAPC  H12Y 9477   5.303   6.372   3.897  0.0204 -1.0741  0.5821
   96SAPC  C313 9478   5.480   6.307   3.999 -0.6024 -0.8567  0.5346
   96SAPC  H13X 9479   5.512   6.413   4.000 -3.1794 -0.0110  0.4696
   96SAPC  H13Y 9480   5.572   6.250   3.974 -0.4371 -0.0249 -0.8861
   96SAPC  C314 9481   5.433   6.282   4.140  0.3460 -0.5799  0.6752
   96SAPC  H14X 9482   5.375   6.187   4.145  0.2376 -0.5860 -0.5442
   96SAPC  H14Y 9483   5.353   6.354   4.167 -0.7212 -1.8760  1.0986
   96SAPC  C315 9484   5.553   6.272   4.234  0.1453  0.0900 -0.4433
   96SAPC  H15X 9485   5.565   6.375   4.274  0.0307 -0.7057  1.7660
   96SAPC  H15Y 9486   5.649   6.252   4.182  1.4400  1.9646  1.0809
   96SAPC  C316 9487   5.527   6.182   4.360  0.0095 -0.3495 -0.5720
   96SAPC  H16X 9488   5.519   6.081   4.313 -0.7619 -0.8559  0.5984
   96SAPC  H16Y 9489   5.432   6.204   4.414 -1.0047 -0.3185 -2.2787
   96SAPC  C317 9490   5.641   6.186   4.465 -0.0278 -1.4150  0.2120
   96SAPC  H17X 9491   5.678   6.287   4.492  1.3628 -1.8345 -0.0253
   96SAPC  H17Y 9492   5.735   6.151   4.417 -0.3180 -1.8562 -0.0376
   96SAPC  C318 9493   5.613   6.123   4.599 -1.2693  0.3434 -0.1095
   96SAPC  H18X 9494   5.535   6.171   4.663 -1.7424  0.6212 -0.8822
   96SAPC  H18Y 9495   5.702   6.110   4.664 -1.2203 -1.4122 -0.4952
   96SAPC  H18Z 9496   5.584   6.018   4.578  1.5266 -0.4611 -0.2852
   97SAPC     N 9497   4.718   4.383   2.491 -0.6427  0.6500  0.3778
   97SAPC   C12 9498   4.649   4.346   2.617 -0.3313 -0.0680 -1.2871
   97SAPC  H12A 9499   4.662   4.242   2.644  2.1478  0.3972 -0.4046
   97SAPC  H12B 9500   4.542   4.345   2.607 -0.6091 -0.3132  1.1267
   97SAPC   C13 9501   4.688   4.523   2.442  0.2733  0.0830  0.6746
   97SAPC  H13A 9502   4.723   4.600   2.509 -1.2199  0.3097  1.2316
   97SAPC  H13B 9503   4.724   4.523   2.340 -1.0068 -3.2865  0.1153
   97SAPC  H13C 9504   4.581   4.538   2.432  0.2154 -0.7919 -0.1360
   97SAPC   C14 9505   4.871   4.369   2.513  0.6809  0.2999 -0.2950
   97SAPC  H14A 9506   4.925   4.411   2.430 -2.2097  2.0000 -1.4707
   97SAPC  H14B 9507   4.896   4.442   2.589 -1.6859 -0.0895  0.9731
   97SAPC  H14C 9508   4.917   4.275   2.539  0.3356  0.8674  2.8408
   97SAPC   C15 9509   4.695   4.281   2.384 -0.1888  0.0819 -0.2756
   97SAPC  H15A 9510   4.591   4.264   2.362 -0.3733 -0.0405  0.6723
   97SAPC  H15B 9511   4.752   4.304   2.295  2.0319 -0.0953  1.0282
   97SAPC  H15C 9512   4.743   4.192   2.421 -1.2077 -0.2959  0.1477
   97SAPC   C11 9513   4.674   4.432   2.741  0.5683  1.3695 -0.6274
   97SAPC  H11A 9514   4.639   4.537   2.730 -2.2389  1.0937  3.3756
   97SAPC  H11B 9515   4.784   4.422   2.754  0.3352  0.4625  0.8700
   97SAPC     P 9516   4.456   4.356   2.866  0.2064 -0.1824  0.0366
   97SAPC   O13 9517   4.396   4.340   2.730  0.4698  0.5737 -0.5621
   97SAPC   O14 9518   4.413   4.259   2.968 -0.4660  0.0269  0.1057
   97SAPC   O12 9519   4.611   4.360   2.853  0.1490  0.2378  0.0690
   97SAPC   O11 9520   4.435   4.496   2.920 -0.0277  0.5552 -0.0540
   97SAPC    C1 9521   4.464   4.533   3.060 -0.1245  0.6094  0.0114
   97SAPC    HA 9522   4.415   4.461   3.129  1.6373  1.4149  2.2354
   97SAPC    HB 9523   4.574   4.534   3.076 -0.2274 -1.3918  1.3147
   97SAPC    C2 9524   4.423   4.678   3.097 -0.0567 -0.2950  0.5997
   97SAPC    HS 9525   4.313   4.681   3.103 -0.1835 -2.0360 -0.3021
   97SAPC   O21 9526   4.483   4.775   3.005 -0.1365 -0.1343 -0.6935
   97SAPC   C21 9527   4.404   4.823   2.910  0.7444  0.6664  0.6107
   97SAPC   O22 9528   4.292   4.778   2.884 -0.6218  0.4256 -0.3630
   97SAPC   C22 9529   4.478   4.930   2.830  0.2822 -0.0946 -0.4807
   97SAPC   H2R 9530   4.493   4.881   2.731  0.7881 -1.4728  0.2500
   97SAPC   H2S 9531   4.406   5.013   2.816 -2.8103 -2.1102  2.1591
   97SAPC    C3 9532   4.472   4.715   3.244 -0.1629 -0.6516  0.6171
   97SAPC    HX 9533   4.413   4.803   3.280 -0.3174 -0.2790 -0.5068
   97SAPC    HY 9534   4.580   4.741   3.249 -0.3308 -0.0786  1.5898
   97SAPC   O31 9535   4.447   4.600   3.326 -0.2658  0.6466  0.1170
   97SAPC   C31 9536   4.493   4.606   3.452 -0.7604  0.1815 -0.0350
   97SAPC   O32 9537   4.545   4.703   3.502  0.4155 -0.3080  0.5521
   97SAPC   C32 9538   4.468   4.471   3.520 -0.2141 -0.6070 -0.7300
   97SAPC   H2X 9539   4.525   4.394   3.465  0.1783 -0.5806 -0.3626
   97SAPC   H2Y 9540   4.362   4.453   3.492 -0.0674 -1.8826 -0.5187
   97SAPC   C23 9541   4.613   4.984   2.875 -0.6713  0.2472 -0.5939
   97SAPC   H3R 9542   4.645   5.061   2.800  0.9776  1.3728  1.1656
   97SAPC   H3S 9543   4.687   4.901   2.878 -0.1417  0.4698 -3.5933
   97SAPC   C24 9544   4.613   5.055   3.010 -0.1721  0.5517  0.8679
   97SAPC   H4R 9545   4.586   4.985   3.093 -1.4629  0.2010  0.1887
   97SAPC   H4S 9546   4.536   5.135   3.007 -0.2987  0.5646  3.1152
   97SAPC   C25 9547   4.757   5.104   3.031  0.7845 -0.2106 -0.1828
   97SAPC   H5R 9548   4.823   5.097   2.944 -0.3419 -0.8359 -0.9982
   97SAPC   C26 9549   4.810   5.151   3.144  0.2714  0.9010 -0.0503
   97SAPC   H6R 9550   4.911   5.191   3.125  0.1758  0.9004 -0.5735
   97SAPC   C27 9551   4.745   5.177   3.274 -0.1551 -0.4950  0.4090
   97SAPC   H7R 9552   4.635   5.185   3.263 -0.3177 -2.0117  0.6941
   97SAPC   H7S 9553   4.779   5.279   3.303 -1.8744  0.7326 -1.6410
   97SAPC   C28 9554   4.770   5.076   3.389  0.0559  0.1769  0.2279
   97SAPC   H8R 9555   4.758   4.974   3.350 -2.1380  1.5937 -3.4370
   97SAPC   C29 9556   4.797   5.094   3.520 -0.1243  0.4594  0.8819
   97SAPC   H9R 9557   4.800   5.004   3.583  2.6976 -0.5239 -0.4495
   97SAPC  C210 9558   4.827   5.225   3.599 -0.3685 -0.0411 -0.3053
   97SAPC  H10R 9559   4.731   5.260   3.644 -0.8590 -0.9280 -0.6341
   97SAPC  H10S 9560   4.851   5.315   3.539  0.2448  2.0561  2.8245
   97SAPC  C211 9561   4.934   5.208   3.706 -0.1943  0.5400  0.2346
   97SAPC  H11R 9562   5.029   5.243   3.664 -0.4460 -0.0055 -0.8050
   97SAPC  C212 9563   4.925   5.194   3.835  0.7232 -0.6097  0.1906
   97SAPC  H12R 9564   5.012   5.190   3.902  0.2233 -1.9334  0.8017
   97SAPC  C213 9565   4.795   5.193   3.911 -0.3500  0.3140 -0.2689
   97SAPC  H13R 9566   4.707   5.239   3.862 -0.7920 -0.4663 -0.2318
   97SAPC  H13S 9567   4.803   5.261   3.998  1.6020 -1.0859  0.7027
   97SAPC  C214 9568   4.762   5.054   3.949  0.7898  0.2229  0.2614
   97SAPC  H14R 9569   4.782   4.979   3.871 -1.0329  0.0917 -0.1452
   97SAPC  C215 9570   4.685   5.015   4.056 -0.7439 -0.0627 -0.6435
   97SAPC  H15R 9571   4.675   4.907   4.075 -2.8448  0.0347 -0.9631
   97SAPC  C216 9572   4.627   5.100   4.170 -0.0797 -0.3334 -0.1897
   97SAPC  H16R 9573   4.525   5.059   4.190  1.6624 -3.6242  3.1817
   97SAPC  H16S 9574   4.634   5.211   4.160 -0.1840 -0.3837 -0.8564
   97SAPC  C217 9575   4.709   5.081   4.304 -0.0729 -0.1224 -0.6918
   97SAPC  H17R 9576   4.707   4.973   4.331 -3.0114  0.0110 -0.0137
   97SAPC  H17S 9577   4.646   5.122   4.386  1.0824 -0.2719  0.3087
   97SAPC  C218 9578   4.848   5.138   4.299  0.5997  0.0056 -0.4998
   97SAPC  H18R 9579   4.855   5.239   4.254 -0.2189 -1.0373 -3.1739
   97SAPC  H18S 9580   4.917   5.084   4.230  0.8904  0.9943 -0.9970
   97SAPC  C219 9581   4.930   5.136   4.431 -0.1052  0.7776  0.3074
   97SAPC  H19R 9582   4.928   5.027   4.453 -0.8067  0.6875 -0.1612
   97SAPC  H19S 9583   4.877   5.178   4.519  0.0493 -0.8379  1.2126
   97SAPC  C220 9584   5.079   5.186   4.417 -0.0782 -0.1112 -0.2308
   97SAPC  H20R 9585   5.135   5.144   4.331  0.0172 -1.1522  0.3284
   97SAPC  H20S 9586   5.136   5.170   4.511 -0.8453 -0.2786  0.2079
   97SAPC  H20T 9587   5.070   5.297   4.411 -1.3347 -0.2800 -2.3939
   97SAPC   C33 9588   4.473   4.481   3.673 -0.3509  0.1156  0.6438
   97SAPC   H3X 9589   4.435   4.388   3.720  2.3622 -1.2234  0.3384
   97SAPC   H3Y 9590   4.398   4.557   3.704 -0.0401  0.4162  0.6532
   97SAPC   C34 9591   4.611   4.496   3.739  0.9256 -0.7230 -0.7891
   97SAPC   H4X 9592   4.677   4.572   3.692 -1.2932  1.3521 -0.6800
   97SAPC   H4Y 9593   4.653   4.393   3.737  2.1598 -0.2764  0.5462
   97SAPC   C35 9594   4.601   4.526   3.884 -0.6759  0.3552 -0.6588
   97SAPC   H5X 9595   4.516   4.473   3.932 -0.2286 -0.5569 -0.8526
   97SAPC   H5Y 9596   4.600   4.636   3.902 -1.7398  0.4266 -1.0932
   97SAPC   C36 9597   4.728   4.481   3.961 -0.0156 -0.1798  0.2970
   97SAPC   H6X 9598   4.804   4.558   3.935  0.1466 -0.2183  0.6468
   97SAPC   H6Y 9599   4.761   4.380   3.929 -2.4913 -0.6420 -1.0099
   97SAPC   C37 9600   4.719   4.483   4.116  0.6110 -0.5470 -0.6690
   97SAPC   H7X 9601   4.775   4.391   4.144  1.9005  0.1768 -0.7689
   97SAPC   H7Y 9602   4.620   4.481   4.167 -0.3771  0.7609 -2.4398
   97SAPC   C38 9603   4.792   4.606   4.183 -0.1596  0.6611  0.9881
   97SAPC   H8X 9604   4.739   4.694   4.139 -0.3358  0.7660  1.4095
   97SAPC   H8Y 9605   4.896   4.617   4.145 -0.3581 -0.1886  0.1561
   97SAPC   C39 9606   4.807   4.598   4.334 -1.2413 -0.1741  0.5460
   97SAPC   H9X 9607   4.861   4.502   4.347 -0.3109  0.1156 -0.9221
   97SAPC   H9Y 9608   4.708   4.589   4.383 -0.8489 -1.5129  1.1298
   97SAPC  C310 9609   4.890   4.702   4.404  0.2617 -0.3714  0.3182
   97SAPC  H10X 9610   4.840   4.800   4.387  0.8697 -0.0469  0.3570
   97SAPC  H10Y 9611   4.994   4.709   4.365  0.8100  0.1580  1.8024
   97SAPC  C311 9612   4.883   4.698   4.560 -0.3399  0.9916  0.2782
   97SAPC  H11X 9613   4.774   4.707   4.579 -0.3828  0.1136  0.4803
   97SAPC  H11Y 9614   4.939   4.790   4.589  1.0444  0.2014  0.2011
   97SAPC  C312 9615   4.957   4.567   4.611  0.9637 -0.5884  0.5452
   97SAPC  H12X 9616   5.059   4.552   4.570 -0.5298 -0.7302 -3.5950
   97SAPC  H12Y 9617   4.904   4.476   4.578 -1.5139  0.9550 -0.0017
   97SAPC  C313 9618   4.961   4.567   4.760 -0.1251 -0.2984 -0.3079
   97SAPC  H13X 9619   4.855   4.574   4.792  0.6080  0.1765  2.2372
   97SAPC  H13Y 9620   5.012   4.662   4.785 -0.5576 -0.6185  1.9843
   97SAPC  C314 9621   5.029   4.445   4.810  0.1547  0.2002 -0.0462
   97SAPC  H14X 9622   5.087   4.390   4.733  0.9161  0.0718  0.6158
   97SAPC  H14Y 9623   4.966   4.371   4.865 -0.2855  0.8110  0.2811
   97SAPC  C315 9624   5.139   4.469   4.913 -0.4307  0.5707 -0.1630
   97SAPC  H15X 9625   5.118   4.535   4.999  1.4713 -0.8356  1.4762
   97SAPC  H15Y 9626   5.228   4.517   4.867 -0.4348  1.0799  0.3538
   97SAPC  C316 9627   5.197   4.346   4.989  0.5029 -0.2002  0.2139
   97SAPC  H16X 9628   5.234   4.265   4.922 -1.2940 -0.5907 -0.3625
   97SAPC  H16Y 9629   5.100   4.314   5.030  0.9836 -1.1297  0.6442
   97SAPC  C317 9630   5.307   4.383   5.087  0.2692  0.3524  0.1384
   97SAPC  H17X 9631   5.301   4.305   5.166  1.6193 -0.2391 -0.3068
   97SAPC  H17Y 9632   5.264   4.471   5.139  0.1078  0.7348 -0.6350
   97SAPC  C318 9633   5.444   4.398   5.026  0.8750  0.0800 -0.1299
   97SAPC  H18X 9634   5.498   4.304   5.002  0.5302 -0.4893  1.2874
   97SAPC  H18Y 9635   5.513   4.441   5.102  0.9235 -0.1437 -0.0491
   97SAPC  H18Z 9636   5.442   4.459   4.933 -0.7485 -1.6982 -1.3193
   98SAPC     N 9637   1.904   0.181   2.642 -0.1628 -0.5366  0.6493
   98SAPC   C12 9638   2.017   0.157   2.741  0.7566  0.6951  0.5590
   98SAPC  H12A 9639   1.988   0.064   2.788 -1.2727  1.2231  0.4583
   98SAPC  H12B 9640   2.009   0.230   2.820  2.2163  1.2211  0.2439
   98SAPC   C13 9641   1.769   0.180   2.716 -0.7266  0.6494  0.1756
   98SAPC  H13A 9642   1.745   0.081   2.752 -0.0851 -0.2724 -1.7899
   98SAPC  H13B 9643   1.766   0.261   2.787  0.2159  0.7573  0.1025
   98SAPC  H13C 9644   1.696   0.191   2.638 -0.0733 -1.3611 -0.8049
   98SAPC   C14 9645   1.915   0.319   2.584  0.3481 -0.2547  0.3179
   98SAPC  H14A 9646   1.925   0.390   2.665  0.2597 -0.6762  0.7069
   98SAPC  H14B 9647   1.994   0.327   2.511 -0.9253 -1.1007 -1.2111
   98SAPC  H14C 9648   1.824   0.345   2.532  2.0621  1.2018 -2.1829
   98SAPC   C15 9649   1.890   0.067   2.536  0.1103  0.2200  0.1968
   98SAPC  H15A 9650   1.905  -0.031   2.579 -1.1471  0.3283  0.9350
   98SAPC  H15B 9651   1.804   0.068   2.471  0.7605 -0.7059 -0.6983
   98SAPC  H15C 9652   1.971   0.074   2.465  0.6593 -0.5744  0.7272
   98SAPC   C11 9653   2.166   0.140   2.709 -0.0958  0.1470  0.1890
   98SAPC  H11A 9654   2.208   0.142   2.812  2.1591 -2.0200 -0.5912
   98SAPC  H11B 9655   2.209   0.217   2.641 -0.6850 -0.6225 -1.0798
   98SAPC     P 9656   2.164  -0.124   2.708  0.4351 -0.0427 -0.4281
   98SAPC   O13 9657   2.071  -0.208   2.634 -0.5508 -0.2261  0.0176
   98SAPC   O14 9658   2.289  -0.189   2.748  0.1755  0.3020 -0.7228
   98SAPC   O12 9659   2.184   0.019   2.641 -0.1303 -0.4685  0.1607
   98SAPC   O11 9660   2.089  -0.101   2.843  0.7091  0.2853  0.3972
   98SAPC    C1 9661   2.153  -0.054   2.959  0.1241  0.7705  0.1359
   98SAPC    HA 9662   2.254  -0.016   2.934  0.1921  1.8279  1.8978
   98SAPC    HB 9663   2.095   0.030   3.000 -0.4160 -0.2236  1.4779
   98SAPC    C2 9664   2.166  -0.165   3.063 -0.2339  0.1104 -0.5326
   98SAPC    HS 9665   2.215  -0.253   3.016  0.7307 -0.7014  1.8224
   98SAPC   O21 9666   2.023  -0.193   3.105  0.4084 -0.0700  0.5210
   98SAPC   C21 9667   2.006  -0.310   3.151 -0.3137  0.3720 -0.9879
   98SAPC   O22 9668   2.098  -0.389   3.165 -0.2891 -0.3981  0.8188
   98SAPC   C22 9669   1.866  -0.336   3.199  0.0650  0.0969  0.2912
   98SAPC   H2R 9670   1.842  -0.248   3.264  0.2419  0.4217 -0.0790
   98SAPC   H2S 9671   1.802  -0.323   3.109 -1.6142  0.4246  1.4915
   98SAPC    C3 9672   2.254  -0.121   3.179 -0.2760 -0.5909 -0.6948
   98SAPC    HX 9673   2.189  -0.041   3.219 -0.7809 -2.5475  2.7267
   98SAPC    HY 9674   2.348  -0.066   3.156 -0.4917  0.2525  0.3913
   98SAPC   O31 9675   2.258  -0.208   3.284 -0.3144  0.5547  0.0546
   98SAPC   C31 9676   2.359  -0.303   3.281 -0.5496 -0.3036 -0.2840
   98SAPC   O32 9677   2.446  -0.307   3.195 -0.3490 -0.0515 -0.5314
   98SAPC   C32 9678   2.328  -0.389   3.402 -0.0391  0.3347  0.6059
   98SAPC   H2X 9679   2.221  -0.415   3.385 -0.5663  2.0227  1.1236
   98SAPC   H2Y 9680   2.330  -0.321   3.490  0.0049  3.1851 -1.4708
   98SAPC   C23 9681   1.838  -0.467   3.274 -0.5858  0.2364 -0.7836
   98SAPC   H3R 9682   1.923  -0.493   3.342 -0.4501  0.1688 -0.9767
   98SAPC   H3S 9683   1.824  -0.554   3.207 -1.9399 -0.0604 -0.1340
   98SAPC   C24 9684   1.707  -0.471   3.352  0.1799 -0.0022  0.1449
   98SAPC   H4R 9685   1.719  -0.391   3.428  1.8418  0.4298 -0.5298
   98SAPC   H4S 9686   1.714  -0.568   3.406 -2.2347 -0.0780  0.4695
   98SAPC   C25 9687   1.585  -0.469   3.259 -0.0164 -0.2776 -0.0018
   98SAPC   H5R 9688   1.580  -0.554   3.190  0.2331 -0.4342  0.1752
   98SAPC   C26 9689   1.497  -0.363   3.243 -0.3607  0.1288 -0.4125
   98SAPC   H6R 9690   1.409  -0.378   3.178 -0.0997  1.1874 -1.0479
   98SAPC   C27 9691   1.482  -0.236   3.328 -1.0165 -0.8014  0.2677
   98SAPC   H7R 9692   1.533  -0.259   3.425  0.0025 -1.3781 -0.3799
   98SAPC   H7S 9693   1.372  -0.227   3.342 -1.1413 -0.1453 -0.9928
   98SAPC   C28 9694   1.526  -0.098   3.290  0.0125  0.1344  0.7864
   98SAPC   H8R 9695   1.471  -0.056   3.204 -0.7359  0.8218  1.5849
   98SAPC   C29 9696   1.616  -0.019   3.347 -0.1046 -0.6214 -0.5067
   98SAPC   H9R 9697   1.632   0.081   3.304 -0.3776 -0.8138 -1.0622
   98SAPC  C210 9698   1.705  -0.048   3.470 -0.0966  0.4351 -0.0639
   98SAPC  H10R 9699   1.679  -0.142   3.523  1.6454 -0.3223 -0.4824
   98SAPC  H10S 9700   1.674   0.034   3.539  0.3040  2.3042 -1.9770
   98SAPC  C211 9701   1.851  -0.025   3.443  0.0372  0.1760  0.0770
   98SAPC  H11R 9702   1.869   0.055   3.370 -1.1317  0.2790 -0.1180
   98SAPC  C212 9703   1.952  -0.099   3.503  0.4103  0.6865  0.3068
   98SAPC  H12R 9704   2.059  -0.080   3.490  0.6591 -1.0394 -0.5069
   98SAPC  C213 9705   1.925  -0.207   3.605 -0.1115 -0.2635 -0.1639
   98SAPC  H13R 9706   1.829  -0.263   3.596 -0.8850  1.1409 -0.9241
   98SAPC  H13S 9707   1.913  -0.153   3.701  2.3790 -0.1617  0.1545
   98SAPC  C214 9708   2.039  -0.314   3.616  0.5043 -0.6355 -0.4600
   98SAPC  H14R 9709   2.068  -0.362   3.521 -0.5601 -1.3391 -0.4405
   98SAPC  C215 9710   2.121  -0.338   3.716  0.0776  0.1728  0.8040
   98SAPC  H15R 9711   2.195  -0.418   3.701 -0.1315 -0.1348  1.3753
   98SAPC  C216 9712   2.144  -0.266   3.845  0.4552 -0.4670  1.0726
   98SAPC  H16R 9713   2.064  -0.193   3.870 -0.0995 -0.8390  0.4217
   98SAPC  H16S 9714   2.230  -0.198   3.828 -0.2873  0.4298  0.8359
   98SAPC  C217 9715   2.175  -0.349   3.967 -0.7148 -1.2351  0.5382
   98SAPC  H17R 9716   2.277  -0.391   3.966 -0.5009 -0.7802  1.6890
   98SAPC  H17S 9717   2.100  -0.430   3.962 -0.2581 -1.6527  0.4558
   98SAPC  C218 9718   2.170  -0.264   4.097 -0.3269  0.3577 -0.5711
   98SAPC  H18R 9719   2.075  -0.208   4.105 -0.5186 -0.1550  1.0902
   98SAPC  H18S 9720   2.245  -0.182   4.097 -0.2563  0.2941 -0.6026
   98SAPC  C219 9721   2.193  -0.343   4.228 -0.2044  0.0422  0.2859
   98SAPC  H19R 9722   2.284  -0.407   4.230 -0.8228 -0.9154 -0.9274
   98SAPC  H19S 9723   2.114  -0.422   4.231  1.4257 -1.6723  0.2680
   98SAPC  C220 9724   2.190  -0.245   4.352 -0.1807  0.1820 -0.0985
   98SAPC  H20R 9725   2.088  -0.212   4.380  0.4693  2.7395 -0.4610
   98SAPC  H20S 9726   2.256  -0.156   4.338  0.5408  0.4976  4.0425
   98SAPC  H20T 9727   2.239  -0.294   4.439  0.4401  2.3151  0.8127
   98SAPC   C33 9728   2.393  -0.528   3.405  0.5861  0.2915 -0.1159
   98SAPC   H3X 9729   2.389  -0.577   3.305 -1.6262  1.2065 -0.5338
   98SAPC   H3Y 9730   2.336  -0.598   3.469 -0.8036  0.9283 -0.6163
   98SAPC   C34 9731   2.541  -0.521   3.441  0.3531  0.2499 -0.8281
   98SAPC   H4X 9732   2.592  -0.446   3.377  0.7761 -0.6046 -1.5097
   98SAPC   H4Y 9733   2.603  -0.610   3.419  2.6914  0.7611  2.7714
   98SAPC   C35 9734   2.551  -0.496   3.593 -0.3147 -0.2351 -0.3499
   98SAPC   H5X 9735   2.488  -0.415   3.635  0.6361  0.5836 -0.4511
   98SAPC   H5Y 9736   2.656  -0.460   3.600 -0.5468  0.2574  0.7779
   98SAPC   C36 9737   2.551  -0.613   3.692 -0.2568 -0.1359  0.3322
   98SAPC   H6X 9738   2.609  -0.694   3.644 -3.3439 -1.5464 -1.3159
   98SAPC   H6Y 9739   2.455  -0.669   3.693 -0.2818 -0.1165 -0.5968
   98SAPC   C37 9740   2.610  -0.570   3.830 -0.0873  0.7179  0.8279
   98SAPC   H7X 9741   2.554  -0.479   3.860  0.5254  2.0719 -1.7531
   98SAPC   H7Y 9742   2.716  -0.534   3.825 -0.4519  1.8254  0.6093
   98SAPC   C38 9743   2.611  -0.684   3.938 -0.1495 -0.6895 -0.0693
   98SAPC   H8X 9744   2.695  -0.753   3.916 -1.4857 -2.2959 -0.2883
   98SAPC   H8Y 9745   2.514  -0.737   3.938 -1.9206  2.2806  0.5747
   98SAPC   C39 9746   2.620  -0.622   4.088  0.3889 -0.9986  0.2898
   98SAPC   H9X 9747   2.524  -0.567   4.103  0.5856 -0.8086  0.8793
   98SAPC   H9Y 9748   2.701  -0.546   4.083 -1.0878  0.9153  2.7104
   98SAPC  C310 9749   2.627  -0.723   4.200 -0.5169 -0.0361  0.3771
   98SAPC  H10X 9750   2.714  -0.787   4.175 -0.9411  0.1125 -1.5717
   98SAPC  H10Y 9751   2.537  -0.786   4.184 -0.5713  0.5989 -2.1525
   98SAPC  C311 9752   2.645  -0.668   4.342  0.0786  0.3413  0.3768
   98SAPC  H11X 9753   2.570  -0.592   4.371 -1.3400 -0.2346 -1.5921
   98SAPC  H11Y 9754   2.746  -0.622   4.351  0.3205  0.1104 -0.9526
   98SAPC  C312 9755   2.630  -0.775   4.460  0.3741 -0.1044  0.3718
   98SAPC  H12X 9756   2.727  -0.829   4.456  0.5407  0.2095  0.0808
   98SAPC  H12Y 9757   2.555  -0.841   4.413  1.0368 -0.2720 -0.4746
   98SAPC  C313 9758   2.598  -0.715   4.595 -0.4813  0.3277 -0.4569
   98SAPC  H13X 9759   2.495  -0.674   4.598 -1.2708 -1.5286 -0.5494
   98SAPC  H13Y 9760   2.674  -0.636   4.615 -0.0998  0.1720 -1.2237
   98SAPC  C314 9761   2.616  -0.822   4.702 -0.0812  0.1261 -0.4777
   98SAPC  H14X 9762   2.724  -0.846   4.702  0.5370  2.4518  1.8230
   98SAPC  H14Y 9763   2.548  -0.903   4.668  0.3027  0.5900 -2.4984
   98SAPC  C315 9764   2.582  -0.758   4.845 -1.0472 -0.5968 -0.3588
   98SAPC  H15X 9765   2.583  -0.839   4.921 -0.3053 -1.1504 -0.9326
   98SAPC  H15Y 9766   2.479  -0.715   4.848 -0.3347  1.1637 -0.1088
   98SAPC  C316 9767   2.680  -0.656   4.894  0.4978 -0.1669 -0.2821
   98SAPC  H16X 9768   2.655  -0.637   5.000 -1.8762 -0.1265 -0.7897
   98SAPC  H16Y 9769   2.659  -0.565   4.833 -1.9664 -0.4610  0.0435
   98SAPC  C317 9770   2.831  -0.690   4.864  0.4856  0.4445 -0.0513
   98SAPC  H17X 9771   2.879  -0.590   4.866 -0.9600  1.1611  1.2987
   98SAPC  H17Y 9772   2.845  -0.718   4.757  0.5611 -0.6221  0.2358
   98SAPC  C318 9773   2.896  -0.785   4.962  0.1209  0.2378  0.2194
   98SAPC  H18X 9774   2.893  -0.744   5.066  2.7395 -2.1618  1.3903
   98SAPC  H18Y 9775   3.006  -0.787   4.944  0.2910 -0.1116  1.2007
   98SAPC  H18Z 9776   2.851  -0.886   4.962 -2.3058  1.1223  3.4978
   99SAPC     N 9777   5.357   2.523   2.356 -0.4672 -0.2269  0.1917
   99SAPC   C12 9778   5.466   2.587   2.437  0.8356 -0.1550 -0.1639
   99SAPC  H12A 9779   5.423   2.671   2.490  0.7957 -1.2636  1.6514
   99SAPC  H12B 9780   5.544   2.620   2.371 -0.3713 -0.1592 -1.6494
   99SAPC   C13 9781   5.400   2.397   2.288 -0.5512  0.6295  0.2231
   99SAPC  H13A 9782   5.348   2.375   2.196  0.7086 -1.5112 -0.0680
   99SAPC  H13B 9783   5.506   2.407   2.267 -0.4028  1.0068  1.1127
   99SAPC  H13C 9784   5.379   2.314   2.354 -0.4945  1.0336  0.7557
   99SAPC   C14 9785   5.236   2.490   2.429  0.2676  0.1285 -0.0825
   99SAPC  H14A 9786   5.212   2.572   2.494 -0.1637 -1.6664  2.1273
   99SAPC  H14B 9787   5.144   2.481   2.371 -0.3798  3.8062  0.1606
   99SAPC  H14C 9788   5.239   2.399   2.487 -0.4644  0.1414 -0.0134
   99SAPC   C15 9789   5.312   2.615   2.251  0.8466  0.1697 -0.0962
   99SAPC  H15A 9790   5.298   2.714   2.292 -1.7747 -0.5717  1.0491
   99SAPC  H15B 9791   5.382   2.624   2.169  1.4936  1.4301  0.5729
   99SAPC  H15C 9792   5.225   2.573   2.201  0.4876  0.6453  0.1142
   99SAPC   C11 9793   5.535   2.493   2.539 -0.1115  0.2449  0.5714
   99SAPC  H11A 9794   5.617   2.545   2.592 -0.9220  1.0128  1.1077
   99SAPC  H11B 9795   5.581   2.406   2.489 -1.8342 -0.5806  0.3506
   99SAPC     P 9796   5.402   2.292   2.670 -0.5893  0.1451  0.3636
   99SAPC   O13 9797   5.275   2.290   2.738 -0.5714  0.2988  0.3722
   99SAPC   O14 9798   5.408   2.218   2.541  0.1415  0.4620  0.1979
   99SAPC   O12 9799   5.437   2.447   2.637  0.6899  0.1738  0.0592
   99SAPC   O11 9800   5.517   2.244   2.759 -0.0213  0.1405  0.2385
   99SAPC    C1 9801   5.549   2.302   2.886  0.1234 -0.8895 -0.2709
   99SAPC    HA 9802   5.658   2.291   2.900  0.0041 -3.1757 -0.6083
   99SAPC    HB 9803   5.505   2.403   2.889  0.0725 -0.8910 -0.8122
   99SAPC    C2 9804   5.486   2.218   3.000 -0.2595  0.1462 -0.2964
   99SAPC    HS 9805   5.375   2.230   2.995 -0.4342  0.7686  3.0028
   99SAPC   O21 9806   5.530   2.260   3.132 -0.3349  0.3711  0.3799
   99SAPC   C21 9807   5.506   2.377   3.175  0.5797  0.1950 -0.7097
   99SAPC   O22 9808   5.430   2.453   3.122  0.6279  0.5687 -0.4251
   99SAPC   C22 9809   5.572   2.396   3.313  0.2519 -0.3965 -0.0502
   99SAPC   H2R 9810   5.487   2.444   3.364 -1.2248 -1.8935 -0.9796
   99SAPC   H2S 9811   5.586   2.298   3.364  0.9799  0.4835  1.4999
   99SAPC    C3 9812   5.507   2.068   2.987 -0.5061  0.1064  0.0961
   99SAPC    HX 9813   5.615   2.048   2.968 -0.8086 -0.1548 -1.5427
   99SAPC    HY 9814   5.468   2.042   2.886 -0.0646  0.1288 -0.0849
   99SAPC   O31 9815   5.466   1.994   3.102 -0.1149 -0.3588 -0.7582
   99SAPC   C31 9816   5.338   1.941   3.093 -0.0053  0.2355 -0.0054
   99SAPC   O32 9817   5.272   1.965   2.994 -0.1154 -0.1685  0.1340
   99SAPC   C32 9818   5.288   1.868   3.210  0.5684 -0.2856 -0.0814
   99SAPC   H2X 9819   5.262   1.942   3.288  0.7144  0.4257 -0.6954
   99SAPC   H2Y 9820   5.364   1.796   3.245 -1.3751 -1.4486  2.0265
   99SAPC   C23 9821   5.702   2.484   3.321  0.0390 -0.1995 -0.3481
   99SAPC   H3R 9822   5.675   2.578   3.268 -0.4240 -0.0785  0.0977
   99SAPC   H3S 9823   5.787   2.430   3.276  1.1715  0.7203  0.6227
   99SAPC   C24 9824   5.744   2.507   3.465  0.7011  0.0018 -0.5030
   99SAPC   H4R 9825   5.848   2.545   3.477  0.4128  0.0962  2.7516
   99SAPC   H4S 9826   5.746   2.413   3.524  1.1125 -0.0872 -0.6541
   99SAPC   C25 9827   5.666   2.621   3.524 -0.4033  0.9490  0.9112
   99SAPC   H5R 9828   5.676   2.715   3.468 -1.5793  0.2411 -0.5438
   99SAPC   C26 9829   5.594   2.611   3.633 -0.5708 -0.2066  0.4284
   99SAPC   H6R 9830   5.536   2.699   3.663 -1.0460  0.2173 -1.5745
   99SAPC   C27 9831   5.585   2.490   3.726  0.3223  0.0579  0.0279
   99SAPC   H7R 9832   5.543   2.525   3.822 -0.0653 -2.7365  0.9595
   99SAPC   H7S 9833   5.687   2.451   3.748  0.5475  0.1060 -0.8722
   99SAPC   C28 9834   5.516   2.359   3.678 -0.4477 -0.5941  0.0539
   99SAPC   H8R 9835   5.543   2.330   3.575 -0.8029 -3.1364  0.6166
   99SAPC   C29 9836   5.424   2.282   3.738 -0.8705  0.5821 -0.0128
   99SAPC   H9R 9837   5.391   2.191   3.687  1.1608 -1.2269  1.7196
   99SAPC  C210 9838   5.356   2.302   3.876 -0.3748  0.3655 -0.7715
   99SAPC  H10R 9839   5.249   2.273   3.864 -0.3466  0.6078 -1.7347
   99SAPC  H10S 9840   5.366   2.409   3.906 -1.1714  0.9300 -2.3737
   99SAPC  C211 9841   5.407   2.217   3.983  0.0205  0.3652 -0.4831
   99SAPC  H11R 9842   5.481   2.140   3.956 -1.3358 -1.9757  2.0084
   99SAPC  C212 9843   5.381   2.246   4.115 -0.5750  0.0837  0.6768
   99SAPC  H12R 9844   5.425   2.187   4.197 -3.4492  1.3567  3.3616
   99SAPC  C213 9845   5.271   2.344   4.164 -0.1343 -0.1150  0.0047
   99SAPC  H13R 9846   5.186   2.287   4.206 -0.1217 -1.6106 -1.8671
   99SAPC  H13S 9847   5.228   2.392   4.074  2.1305 -0.6365 -1.4369
   99SAPC  C214 9848   5.308   2.453   4.260  0.3628 -0.2791 -0.4600
   99SAPC  H14R 9849   5.360   2.536   4.209 -1.2023  0.2402 -1.2599
   99SAPC  C215 9850   5.283   2.449   4.394  0.6861 -0.4685 -0.0711
   99SAPC  H15R 9851   5.294   2.542   4.452  2.2221  0.1207 -1.2583
   99SAPC  C216 9852   5.198   2.347   4.467 -0.2582 -0.2763  0.3973
   99SAPC  H16R 9853   5.243   2.247   4.453 -0.1174 -0.3319  1.2231
   99SAPC  H16S 9854   5.093   2.351   4.429 -0.3407 -0.6618  0.5794
   99SAPC  C217 9855   5.193   2.350   4.621  0.0446 -0.3752 -0.4446
   99SAPC  H17R 9856   5.294   2.343   4.667 -0.6766  0.1726  1.2820
   99SAPC  H17S 9857   5.135   2.267   4.665 -0.5329  1.4499  2.4811
   99SAPC  C218 9858   5.137   2.477   4.682 -0.7129 -0.3489  0.2882
   99SAPC  H18R 9859   5.028   2.472   4.660 -0.6942 -0.5050  0.2318
   99SAPC  H18S 9860   5.192   2.569   4.652 -0.2177 -0.6698  0.1874
   99SAPC  C219 9861   5.152   2.476   4.843  0.1323  0.6923 -0.2056
   99SAPC  H19R 9862   5.112   2.568   4.891  0.1794 -0.1631  1.5431
   99SAPC  H19S 9863   5.260   2.484   4.868 -0.0900  1.9620  0.4422
   99SAPC  C220 9864   5.087   2.357   4.904 -0.3267 -0.1583 -0.4237
   99SAPC  H20R 9865   5.111   2.350   5.012 -0.8261  0.3435 -0.2735
   99SAPC  H20S 9866   5.124   2.259   4.867  1.1263  0.1375  0.2012
   99SAPC  H20T 9867   4.976   2.361   4.906 -0.3672 -0.7472 -1.1787
   99SAPC   C33 9868   5.156   1.807   3.164 -0.0920 -0.5898 -0.2896
   99SAPC   H3X 9869   5.172   1.743   3.075 -0.4380 -0.1612 -0.6642
   99SAPC   H3Y 9870   5.078   1.877   3.128 -0.6739 -1.0460  0.0764
   99SAPC   C34 9871   5.094   1.722   3.278  0.3816  0.2330 -0.0560
   99SAPC   H4X 9872   5.172   1.643   3.285  1.2866  1.0049 -1.1059
   99SAPC   H4Y 9873   5.000   1.666   3.255  0.0832  0.3289  0.8820
   99SAPC   C35 9874   5.073   1.779   3.418  0.6436 -0.2251  0.2594
   99SAPC   H5X 9875   5.001   1.862   3.425  1.2323  0.4332 -1.1534
   99SAPC   H5Y 9876   5.164   1.820   3.466 -0.3739  0.5709  1.5574
   99SAPC   C36 9877   5.016   1.668   3.511  0.0223  0.3245  0.2667
   99SAPC   H6X 9878   5.093   1.588   3.517  0.7100  1.0367  1.2747
   99SAPC   H6Y 9879   4.921   1.622   3.477  0.0761 -0.4811  1.1373
   99SAPC   C37 9880   4.988   1.733   3.651 -0.2253  0.8395 -0.0266
   99SAPC   H7X 9881   4.908   1.810   3.649 -0.5457  0.6239  2.0685
   99SAPC   H7Y 9882   5.082   1.779   3.687 -1.2636  1.7807  1.6196
   99SAPC   C38 9883   4.946   1.629   3.759  0.0611 -0.5753 -0.0611
   99SAPC   H8X 9884   5.011   1.539   3.753  1.1312  0.1153  0.7699
   99SAPC   H8Y 9885   4.843   1.597   3.733 -0.2603 -0.2879  0.8136
   99SAPC   C39 9886   4.949   1.687   3.900 -0.5273  0.4249  0.2144
   99SAPC   H9X 9887   4.888   1.780   3.898  0.1435  0.8729  0.0039
   99SAPC   H9Y 9888   5.054   1.713   3.926 -1.1138  1.8121  1.3532
   99SAPC  C310 9889   4.881   1.595   4.001 -0.5767  0.0219  1.2957
   99SAPC  H10X 9890   4.928   1.496   3.984 -0.3072  0.3962 -0.3228
   99SAPC  H10Y 9891   4.773   1.583   3.980 -0.7569 -0.0539  2.2246
   99SAPC  C311 9892   4.903   1.616   4.149  0.0129 -0.2999  0.9554
   99SAPC  H11X 9893   4.827   1.567   4.213 -1.5542 -1.2136 -1.4770
   99SAPC  H11Y 9894   4.897   1.727   4.156  0.7128 -0.3081  1.9465
   99SAPC  C312 9895   5.044   1.583   4.200 -0.2048  0.9755 -0.3074
   99SAPC  H12X 9896   5.071   1.645   4.288  2.1795 -1.4161  0.7879
   99SAPC  H12Y 9897   5.117   1.608   4.120 -0.8708  1.3161 -0.8200
   99SAPC  C313 9898   5.077   1.439   4.232 -0.0083  0.3845 -0.1773
   99SAPC  H13X 9899   5.067   1.369   4.147 -2.4030 -0.0955  0.4301
   99SAPC  H13Y 9900   5.017   1.394   4.314  1.5452 -0.7857  0.3666
   99SAPC  C314 9901   5.223   1.416   4.281 -0.1153  0.1734  0.0594
   99SAPC  H14X 9902   5.302   1.409   4.203 -0.2604  0.0532 -0.0788
   99SAPC  H14Y 9903   5.212   1.315   4.325  1.8681  0.0933  0.4647
   99SAPC  C315 9904   5.264   1.508   4.395 -0.3816 -0.6973 -0.1736
   99SAPC  H15X 9905   5.173   1.523   4.456  0.7456  2.7724  0.9586
   99SAPC  H15Y 9906   5.302   1.609   4.367  0.0712 -0.7161  0.3646
   99SAPC  C316 9907   5.378   1.462   4.485  0.3650 -0.1314  0.2833
   99SAPC  H16X 9908   5.420   1.557   4.525 -0.1638  0.6331 -0.9096
   99SAPC  H16Y 9909   5.465   1.417   4.433 -0.1919  0.0114 -0.8116
   99SAPC  C317 9910   5.326   1.375   4.593 -0.7179  0.0296  0.0693
   99SAPC  H17X 9911   5.275   1.293   4.537  0.0054  0.2349 -0.9172
   99SAPC  H17Y 9912   5.246   1.423   4.654 -2.1763 -1.8490 -0.2659
   99SAPC  C318 9913   5.428   1.309   4.686  0.2185  0.4782 -0.2256
   99SAPC  H18X 9914   5.523   1.367   4.685  0.4650  0.0767 -0.6469
   99SAPC  H18Y 9915   5.463   1.212   4.647  0.9549  0.1218  1.2417
   99SAPC  H18Z 9916   5.391   1.288   4.789 -0.1156 -0.9400 -0.6167
  100SAPC     N 9917   4.605   1.808   2.355  0.8827 -0.0460  0.1611
  100SAPC   C12 9918   4.510   1.883   2.454  0.1536  0.5345 -0.6761
  100SAPC  H12A 9919   4.571   1.936   2.525 -0.6709  1.6443 -0.7599
  100SAPC  H12B 9920   4.460   1.810   2.517  0.3268  1.3836  0.4771
  100SAPC   C13 9921   4.665   1.693   2.427  0.1429  0.1945  0.1245
  100SAPC  H13A 9922   4.596   1.630   2.480  0.8685  0.8123  1.8883
  100SAPC  H13B 9923   4.718   1.629   2.358 -2.4511 -0.7363 -1.1162
  100SAPC  H13C 9924   4.742   1.722   2.497  1.6356  0.0433 -1.3741
  100SAPC   C14 9925   4.526   1.764   2.236  0.5660  0.4761  0.0019
  100SAPC  H14A 9926   4.582   1.692   2.178 -2.1964 -1.5400 -0.3988
  100SAPC  H14B 9927   4.438   1.705   2.256  0.1388 -0.1211 -3.1041
  100SAPC  H14C 9928   4.498   1.851   2.178  1.1355  0.6855  0.0327
  100SAPC   C15 9929   4.709   1.908   2.311  0.5132  0.8616 -0.2704
  100SAPC  H15A 9930   4.772   1.864   2.234 -0.8919 -0.2949 -0.8043
  100SAPC  H15B 9931   4.663   1.996   2.269  1.7453  1.0142 -1.3928
  100SAPC  H15C 9932   4.778   1.938   2.388  0.0235 -0.6983  0.8159
  100SAPC   C11 9933   4.407   1.992   2.408 -0.4241  0.0809 -0.4598
  100SAPC  H11A 9934   4.351   2.040   2.491 -1.3241 -0.0132 -1.0005
  100SAPC  H11B 9935   4.334   1.952   2.334  0.7027  0.6126 -1.9184
  100SAPC     P 9936   4.553   2.217   2.426  0.2134  0.2118 -0.0337
  100SAPC   O13 9937   4.564   2.171   2.565 -0.4500 -0.3999  0.1477
  100SAPC   O14 9938   4.677   2.243   2.354 -0.2656 -0.3110 -0.2668
  100SAPC   O12 9939   4.470   2.104   2.343  0.2577  0.1346 -0.5813
  100SAPC   O11 9940   4.461   2.343   2.422  0.2134  0.3373  0.2294
  100SAPC    C1 9941   4.494   2.475   2.471 -0.4136 -0.0156 -0.3929
  100SAPC    HA 9942   4.601   2.475   2.501 -0.4861 -0.4537 -0.1387
  100SAPC    HB 9943   4.468   2.548   2.391 -1.9081 -1.5751 -1.4007
  100SAPC    C2 9944   4.401   2.515   2.594  0.5558 -0.2403  0.2666
  100SAPC    HS 9945   4.399   2.625   2.604  3.6127 -0.1870  1.3268
  100SAPC   O21 9946   4.442   2.450   2.717  0.5353  0.5045  0.4654
  100SAPC   C21 9947   4.555   2.485   2.767  0.2749  0.2918 -0.6172
  100SAPC   O22 9948   4.641   2.560   2.728 -0.1619  0.0898  0.4880
  100SAPC   C22 9949   4.566   2.400   2.898  1.0870 -0.1759 -0.7786
  100SAPC   H2R 9950   4.536   2.452   2.991  0.6852 -3.4599  1.0812
  100SAPC   H2S 9951   4.488   2.321   2.892  0.8004 -0.0577  0.8741
  100SAPC    C3 9952   4.256   2.481   2.563 -0.4542 -0.1774  0.2162
  100SAPC    HX 9953   4.249   2.371   2.565 -0.4315 -0.2045 -0.7717
  100SAPC    HY 9954   4.235   2.518   2.460 -1.6800 -2.3486 -0.3611
  100SAPC   O31 9955   4.166   2.540   2.659 -0.3820  0.2849 -0.5128
  100SAPC   C31 9956   4.068   2.608   2.612 -0.2981 -0.2349  0.6386
  100SAPC   O32 9957   4.053   2.637   2.495  0.7329 -0.1931  0.1952
  100SAPC   C32 9958   3.981   2.642   2.734  0.3646 -0.0325  0.3026
  100SAPC   H2X 9959   4.044   2.642   2.826  3.0069 -2.5757 -1.3336
  100SAPC   H2Y 9960   3.912   2.557   2.746 -1.1517  1.4784  3.2170
  100SAPC   C23 9961   4.705   2.324   2.907 -0.0218 -0.2709 -0.5918
  100SAPC   H3R 9962   4.795   2.389   2.908 -0.0954 -0.0413 -3.2249
  100SAPC   H3S 9963   4.722   2.258   2.820  1.8572  0.6700 -0.9765
  100SAPC   C24 9964   4.703   2.232   3.030  0.1490  0.6963 -0.1820
  100SAPC   H4R 9965   4.775   2.151   3.007 -1.1464 -0.0195 -1.9027
  100SAPC   H4S 9966   4.613   2.167   3.037  1.6249 -1.2883  3.5022
  100SAPC   C25 9967   4.731   2.293   3.171 -0.7099  0.0159  0.1862
  100SAPC   H5R 9968   4.654   2.356   3.217 -0.6824  0.9922 -1.0398
  100SAPC   C26 9969   4.840   2.284   3.240 -0.6697  0.7774 -0.1875
  100SAPC   H6R 9970   4.859   2.328   3.339 -1.0219 -0.7693  0.5871
  100SAPC   C27 9971   4.969   2.214   3.190 -0.5426 -0.3381 -0.6909
  100SAPC   H7R 9972   4.954   2.194   3.082  2.4288 -2.3047 -0.8611
  100SAPC   H7S 9973   4.972   2.111   3.232 -1.9853 -0.6504 -1.2797
  100SAPC   C28 9974   5.091   2.295   3.216 -0.0222  0.1714 -0.5966
  100SAPC   H8R 9975   5.101   2.366   3.133 -0.3076 -0.2214 -0.9713
  100SAPC   C29 9976   5.176   2.296   3.326  0.2319  1.1013 -0.9796
  100SAPC   H9R 9977   5.257   2.371   3.331  0.9664  0.4624 -2.5033
  100SAPC  C210 9978   5.160   2.218   3.451  0.7562  0.2630 -0.0473
  100SAPC  H10R 9979   5.249   2.154   3.472 -0.7303 -2.1845 -0.7540
  100SAPC  H10S 9980   5.077   2.145   3.441  1.0385  0.2359 -3.2743
  100SAPC  C211 9981   5.143   2.313   3.558 -0.1779 -0.2074 -0.6440
  100SAPC  H11R 9982   5.204   2.404   3.558 -0.6757  0.1472 -1.7884
  100SAPC  C212 9983   5.063   2.298   3.666 -0.6411 -0.3150  0.1667
  100SAPC  H12R 9984   5.053   2.384   3.733 -0.0787  0.2935 -0.5075
  100SAPC  C213 9985   4.965   2.185   3.689  0.1010 -0.3816 -0.3595
  100SAPC  H13R 9986   4.944   2.119   3.602 -0.4097  2.6167 -2.7094
  100SAPC  H13S 9987   4.868   2.237   3.704  0.1269  0.1774 -1.9689
  100SAPC  C214 9988   4.992   2.099   3.813 -0.5152 -0.1741  0.1995
  100SAPC  H14R 9989   5.047   2.005   3.793  1.7688  1.4080 -1.4458
  100SAPC  C215 9990   4.968   2.133   3.944  0.3169  0.1629  0.2736
  100SAPC  H15R 9991   5.001   2.066   4.024  2.0153 -0.3746 -0.8032
  100SAPC  C216 9992   4.908   2.259   3.990  0.0884 -0.6436  0.2659
  100SAPC  H16R 9993   4.807   2.277   3.947  0.7122  1.4056 -0.4804
  100SAPC  H16S 9994   4.967   2.348   3.957 -0.3924 -0.8183 -1.1310
  100SAPC  C217 9995   4.888   2.253   4.143  0.4487  0.2830 -0.2808
  100SAPC  H17R 9996   4.986   2.254   4.195 -0.2460 -2.1203  1.2677
  100SAPC  H17S 9997   4.838   2.157   4.170 -0.6307  0.3520 -1.9101
  100SAPC  C218 9998   4.812   2.373   4.208 -0.1635  0.3894 -0.0271
  100SAPC  H18R 9999   4.721   2.398   4.149  0.0739  0.8635 -0.1999
  100SAPC  H18S10000   4.884   2.456   4.191 -0.8118  0.5570 -2.3968
  100SAPC  C21910001   4.787   2.354   4.355 -0.1066 -0.4372 -0.1718
  100SAPC  H19R10002   4.884   2.330   4.404 -0.0519 -0.0821 -0.1071
  100SAPC  H19S10003   4.723   2.263   4.363 -0.9694  0.2955  2.1203
  100SAPC  C22010004   4.745   2.488   4.419 -0.2475  0.2017  0.3901
  100SAPC  H20R10005   4.800   2.581   4.393  0.2458  0.5394  2.4536
  100SAPC  H20S10006   4.748   2.486   4.530  1.3525 -1.1450  0.3610
  100SAPC  H20T10007   4.642   2.522   4.394 -0.3301 -0.0354  0.4125
  100SAPC   C3310008   3.901   2.765   2.699  0.3831 -0.6432 -0.3985
  100SAPC   H3X10009   3.817   2.733   2.633 -1.5337 -2.3663  2.5924
  100SAPC   H3Y10010   3.962   2.841   2.647 -0.5088 -1.2025 -2.3448
  100SAPC   C3410011   3.838   2.835   2.825 -0.0266 -0.6721 -0.1804
  100SAPC   H4X10012   3.775   2.757   2.873 -0.6753 -1.7897 -2.7033
  100SAPC   H4Y10013   3.770   2.917   2.793  0.1099  0.4172  2.0918
  100SAPC   C3510014   3.935   2.895   2.933  0.3039 -0.2793 -0.4857
  100SAPC   H5X10015   3.989   2.983   2.892  1.0283 -0.2104  0.5663
  100SAPC   H5Y10016   4.011   2.818   2.959  0.1455 -0.7952 -1.4953
  100SAPC   C3610017   3.865   2.934   3.063  0.3055  0.1839 -0.7810
  100SAPC   H6X10018   3.800   2.850   3.096  1.7438 -0.4194  0.6654
  100SAPC   H6Y10019   3.799   3.020   3.041  0.7047  0.0308 -2.8010
  100SAPC   C3710020   3.972   2.962   3.172  0.0443  0.5256  0.3979
  100SAPC   H7X10021   4.052   3.037   3.150 -1.0683  1.3048 -1.1986
  100SAPC   H7Y10022   4.025   2.866   3.191  2.8629  1.5515 -1.6197
  100SAPC   C3810023   3.912   2.987   3.308 -0.5511  0.5265 -0.0522
  100SAPC   H8X10024   3.830   2.914   3.324  1.1819 -0.9953  2.6411
  100SAPC   H8Y10025   3.875   3.092   3.302  1.8661  1.5510  1.6506
  100SAPC   C3910026   4.013   2.993   3.423  0.3465  0.5066 -0.1722
  100SAPC   H9X10027   4.089   3.072   3.403  0.2986  0.7100  0.4235
  100SAPC   H9Y10028   4.063   2.894   3.425 -0.3595  0.1113 -1.2787
  100SAPC  C31010029   3.941   3.026   3.551 -0.4068  0.1014  0.8774
  100SAPC  H10X10030   3.853   2.961   3.571  1.0189 -1.2407  3.0994
  100SAPC  H10Y10031   3.906   3.132   3.556 -2.2595 -0.5063  1.8061
  100SAPC  C31110032   4.027   3.018   3.670  0.3276 -0.1572 -0.0840
  100SAPC  H11X10033   4.119   3.079   3.657  0.1762 -0.2734 -2.0140
  100SAPC  H11Y10034   4.061   2.914   3.688 -1.2612 -0.7543 -0.3545
  100SAPC  C31210035   3.950   3.072   3.795 -0.1142  0.0394 -0.0734
  100SAPC  H12X10036   3.844   3.042   3.780  0.0741 -1.8503  1.9640
  100SAPC  H12Y10037   3.944   3.183   3.801  1.2926  0.2670 -1.8809
  100SAPC  C31310038   4.001   3.000   3.929  0.3217 -0.3944  0.0535
  100SAPC  H13X10039   4.098   3.043   3.960  0.2963 -0.1831 -0.1495
  100SAPC  H13Y10040   4.024   2.894   3.907 -1.5843 -0.6917 -0.6703
  100SAPC  C31410041   3.908   3.019   4.050 -0.2110  0.6060  0.2920
  100SAPC  H14X10042   3.815   2.961   4.029  1.9833 -2.5214 -1.5776
  100SAPC  H14Y10043   3.882   3.124   4.075  1.4972  0.6058  2.3350
  100SAPC  C31510044   3.965   2.965   4.181 -0.0010 -0.3919 -0.0405
  100SAPC  H15X10045   4.056   3.022   4.206 -0.2230 -0.7220  1.6094
  100SAPC  H15Y10046   3.989   2.859   4.159 -3.3205 -1.1478 -0.6789
  100SAPC  C31610047   3.875   2.971   4.299 -0.0753 -0.0103 -0.2093
  100SAPC  H16X10048   3.801   2.890   4.282  0.2965 -0.3052 -0.4368
  100SAPC  H16Y10049   3.839   3.075   4.312  2.9068  0.8997  1.6909
  100SAPC  C31710050   3.939   2.935   4.432  0.2821 -0.0808  0.1028
  100SAPC  H17X10051   4.031   2.997   4.440  1.3190 -1.4462 -0.7832
  100SAPC  H17Y10052   3.974   2.831   4.418  2.0540  0.7488 -2.3258
  100SAPC  C31810053   3.850   2.950   4.552  0.1845  0.3570  0.2716
  100SAPC  H18X10054   3.893   2.910   4.646 -0.0623  0.4642  0.4330
  100SAPC  H18Y10055   3.759   2.890   4.528  1.3217 -1.2313 -0.1732
  100SAPC  H18Z10056   3.834   3.059   4.571  0.3460  0.0100  2.6490
  101OSM      N10057   6.251   4.451   7.291 -0.2779  0.4206  0.6549
  101OSM    C1510058   6.221   4.408   7.427  0.2996 -0.0585 -0.1176
  101OSM   H15A10059   6.162   4.484   7.476  0.8463 -0.2810  0.9046
  101OSM   H15B10060   6.314   4.383   7.475  1.2038 -1.1561 -2.3239
  101OSM   H15C10061   6.158   4.319   7.423 -0.7723  0.7222 -2.2162
  101OSM    C1410062   6.318   4.585   7.300  0.0940 -0.0671 -0.4513
  101OSM   H14A10063   6.271   4.642   7.379 -3.2997 -2.1470 -0.7500
  101OSM   H14B10064   6.313   4.643   7.209 -3.5441 -0.6428 -0.7648
  101OSM   H14C10065   6.421   4.578   7.331 -0.0505 -1.4061 -0.1834
  101OSM    C1310066   6.347   4.354   7.234  0.5611  0.2153 -0.4519
  101OSM   H13A10067   6.432   4.341   7.300 -0.3639 -0.3997  0.6447
  101OSM   H13B10068   6.389   4.385   7.139 -0.6975 -0.6105 -1.3002
  101OSM   H13C10069   6.299   4.261   7.210 -1.0144  0.7585  0.4588
  101OSM    C1210070   6.131   4.466   7.204  0.9132 -0.3703  0.0832
  101OSM   H12A10071   6.167   4.507   7.111  0.1450  1.9328  0.7335
  101OSM   H12B10072   6.069   4.542   7.250  0.3560 -0.9596  0.3191
  101OSM    C1110073   6.044   4.341   7.186  0.3346  0.6519  1.0561
  101OSM   H11A10074   5.949   4.348   7.129  0.7141 -5.1019 -0.9995
  101OSM   H11B10075   6.012   4.311   7.288  0.7332 -1.3797  0.6347
  101OSM      P10076   6.063   4.073   7.145 -0.1732  0.2759 -0.2607
  101OSM    O1310077   6.138   3.984   7.056 -0.6074 -0.8210 -0.5253
  101OSM    O1410078   6.058   4.039   7.287  0.2706  0.1294  0.1525
  101OSM    O1110079   5.914   4.075   7.098  0.0243 -0.3455 -0.1452
  101OSM    O1210080   6.113   4.224   7.126  0.4753  0.5725 -0.3897
  101OSM    C1S10081   5.878   4.132   6.969 -0.2610 -0.0013  0.0477
  101OSM    H1S10082   5.940   4.219   6.940 -0.2020  0.3222  1.1098
  101OSM    H1T10083   5.773   4.168   6.977 -0.7947 -1.5598  0.4730
  101OSM     NF10084   5.855   4.102   6.721 -0.0648 -0.0925 -0.1449
  101OSM    HNF10085   5.758   4.102   6.696 -0.6137 -1.3519  1.7398
  101OSM    C2S10086   5.876   4.026   6.846  0.7110 -0.1998  0.0938
  101OSM    H2S10087   5.981   3.990   6.848  0.4473 -1.3093 -2.2952
  101OSM    C3S10088   5.784   3.909   6.882 -0.1766 -0.2694 -0.3962
  101OSM    H3S10089   5.677   3.939   6.890 -0.0542 -0.3749  4.0937
  101OSM     O310090   5.820   3.836   7.000  0.2524 -0.1437 -0.0764
  101OSM    HO310091   5.889   3.892   7.034  0.5886 -2.0347  2.6753
  101OSM    C4S10092   5.775   3.820   6.761 -0.0881  0.3219  0.1456
  101OSM    H4S10093   5.700   3.861   6.692  1.3002  1.2308 -0.8669
  101OSM    C5S10094   5.844   3.704   6.738 -0.7053 -0.5555  0.9794
  101OSM    H5S10095   5.902   3.663   6.821 -0.8426  0.5452  1.6446
  101OSM    C6S10096   5.829   3.613   6.618  0.0805 -0.0402  0.1201
  101OSM    H6S10097   5.721   3.604   6.593  0.3097  0.5259 -1.1499
  101OSM    H6T10098   5.867   3.511   6.641  0.2587  0.1589  0.7271
  101OSM    C7S10099   5.902   3.672   6.501 -0.0356 -1.0349 -0.0157
  101OSM    H7S10100   6.011   3.673   6.522 -0.2470 -1.2639  1.1454
  101OSM    H7T10101   5.869   3.777   6.481  1.9877 -0.6026 -1.4295
  101OSM    C8S10102   5.881   3.605   6.368 -0.5658 -0.3295  0.5412
  101OSM    H8S10103   5.773   3.601   6.344 -0.5668  1.8067 -0.0665
  101OSM    H8T10104   5.918   3.500   6.368 -1.2001 -0.6086 -2.0951
  101OSM    C9S10105   5.935   3.690   6.252  0.0843 -0.2110  0.4142
  101OSM    H9S10106   6.041   3.719   6.268 -0.1362  1.2393 -0.5990
  101OSM    H9T10107   5.882   3.787   6.243  2.4750  1.4408  2.6390
  101OSM   C10S10108   5.918   3.612   6.125  0.5914 -0.0964  0.1478
  101OSM   H10S10109   5.812   3.579   6.122  0.5158 -0.0754  1.5961
  101OSM   H10T10110   5.990   3.528   6.122  2.7201  1.5817  1.3920
  101OSM   C11S10111   5.936   3.688   5.989  0.3633 -0.5876 -0.1131
  101OSM   H11S10112   6.019   3.762   5.994 -0.7834  0.7168  0.1817
  101OSM   H11T10113   5.849   3.756   5.977  0.5517 -0.5779 -1.7145
  101OSM   C12S10114   5.931   3.583   5.879  0.2191 -0.3738  0.1876
  101OSM   H12S10115   5.855   3.504   5.899 -0.7783  0.3402 -0.6805
  101OSM   H12T10116   6.031   3.536   5.871  0.0578 -0.4722 -2.1288
  101OSM   C13S10117   5.911   3.639   5.741  0.6952 -0.0286 -0.3760
  101OSM   H13S10118   5.979   3.726   5.732  0.0962  0.5822  0.8600
  101OSM   H13T10119   5.805   3.669   5.722 -0.1715 -1.3408  1.9893
  101OSM   C14S10120   5.938   3.537   5.628  0.1357 -0.3011 -0.3946
  101OSM   H14S10121   5.870   3.453   5.651  1.8613 -1.1673  1.9484
  101OSM   H14T10122   6.038   3.489   5.630 -0.7867 -2.3076  0.4842
  101OSM   C15S10123   5.913   3.600   5.493 -0.1735  0.5669 -0.0820
  101OSM   H15S10124   6.004   3.659   5.470  2.2751 -1.4994  3.3981
  101OSM   H15T10125   5.822   3.663   5.490  0.6859  1.8059 -1.9137
  101OSM   C16S10126   5.909   3.500   5.369 -0.3476 -0.3361 -0.3567
  101OSM   H16S10127   5.823   3.429   5.374  1.2893 -2.3765  0.7858
  101OSM   H16T10128   6.007   3.449   5.364  0.5313  1.2883 -0.2352
  101OSM   C17S10129   5.888   3.587   5.246 -0.6494 -0.0912  0.0373
  101OSM   H17S10130   5.968   3.664   5.248 -0.9210  0.2838 -1.7500
  101OSM   H17T10131   5.801   3.654   5.259  1.0253  1.7557  2.5876
  101OSM   C18S10132   5.879   3.497   5.124  0.0932 -0.0678 -0.0111
  101OSM   H18S10133   5.777   3.455   5.121  1.0426 -2.7157  1.7645
  101OSM   H18T10134   5.937   3.402   5.123 -1.4950 -1.0964  1.5343
  101OSM   H18U10135   5.898   3.558   5.033  3.9065  0.0225  0.6522
  101OSM    C1F10136   5.948   4.192   6.679 -0.1849 -0.2315  0.8482
  101OSM     OF10137   6.066   4.190   6.721  0.7899 -0.0568  0.0929
  101OSM    C2F10138   5.910   4.284   6.565  0.0550  0.0644  0.2526
  101OSM    H2F10139   5.882   4.379   6.615 -0.9791 -0.0167 -0.1422
  101OSM    H2G10140   5.823   4.236   6.515 -0.0084 -0.1911  0.6120
  101OSM    C3F10141   6.015   4.311   6.459  0.4768  0.3746 -0.3566
  101OSM    H3F10142   6.077   4.225   6.428  3.4478  2.8856 -1.9868
  101OSM    H3G10143   6.084   4.386   6.504  1.7832 -1.9250  1.6870
  101OSM    C4F10144   5.951   4.381   6.340 -0.0473 -0.3012  1.3168
  101OSM    H4F10145   5.865   4.329   6.294  0.8347 -0.5127 -0.1660
  101OSM    H4G10146   6.028   4.374   6.260 -0.7080  2.9368  0.2529
  101OSM    C5F10147   5.920   4.527   6.354  0.4471  0.3640  0.0912
  101OSM    H5F10148   5.987   4.578   6.426 -0.7489 -1.4691  2.6685
  101OSM    H5G10149   5.817   4.540   6.394  1.2589  1.3588  2.0210
  101OSM    C6F10150   5.906   4.598   6.222 -0.6348 -0.1900 -0.0015
  101OSM    H6F10151   5.867   4.700   6.243  2.0534  1.0219 -0.5126
  101OSM    H6G10152   5.836   4.541   6.157 -1.6271  0.4376  0.4981
  101OSM    C7F10153   6.029   4.620   6.132  0.4125  0.7966  0.0664
  101OSM    H7F10154   5.997   4.665   6.035  0.0688  0.0149 -0.1930
  101OSM    H7G10155   6.064   4.517   6.109  0.3286  1.0028 -1.0411
  101OSM    C8F10156   6.149   4.703   6.189  0.2440  0.7218 -0.1219
  101OSM    H8F10157   6.202   4.639   6.263 -0.6658 -0.2545 -0.2829
  101OSM    H8G10158   6.101   4.788   6.242  2.9014  0.9286  2.1832
  101OSM    C9F10159   6.235   4.735   6.072  0.0286 -0.0517 -0.4735
  101OSM    H9F10160   6.311   4.659   6.046  0.8950  0.9615 -1.0044
  101OSM   C10F10161   6.241   4.853   6.006 -0.0040 -0.8632  0.1717
  101OSM   H10F10162   6.320   4.877   5.933 -0.6795  0.1498 -0.2646
  101OSM   C11F10163   6.151   4.969   6.031 -0.1003  0.2637  0.3207
  101OSM   H11F10164   6.195   5.046   6.098  0.5843  0.7621 -0.6739
  101OSM   H11G10165   6.064   4.939   6.091  1.2503 -0.0347  2.2100
  101OSM   C12F10166   6.109   5.050   5.901  0.3664  0.8196 -0.3600
  101OSM   H12F10167   6.200   5.098   5.859  1.5084 -1.6051 -0.8254
  101OSM   H12G10168   6.034   5.129   5.927  0.0821 -0.3385  2.8584
  101OSM   C13F10169   6.044   4.960   5.786  0.0348 -0.4105 -0.2104
  101OSM   H13F10170   5.976   4.897   5.848  1.5889 -1.2114  0.7562
  101OSM   H13G10171   6.122   4.898   5.738  1.5289 -0.8924  2.6258
  101OSM   C14F10172   5.964   5.040   5.686 -0.0320  0.4908 -0.0092
  101OSM   H14F10173   6.028   5.121   5.645  0.2251 -0.0303 -0.6663
  101OSM   H14G10174   5.881   5.096   5.734 -0.5848 -1.4169  1.3702
  101OSM   C15F10175   5.903   4.953   5.577 -0.3862 -0.6816 -0.1411
  101OSM   H15F10176   5.814   4.904   5.623  0.2555 -1.8349 -0.1083
  101OSM   H15G10177   5.977   4.889   5.526 -1.1197 -0.9598 -0.8959
  101OSM   C16F10178   5.856   5.042   5.463 -0.2884  0.3785  0.7647
  101OSM   H16F10179   5.934   5.073   5.390 -2.5846  1.5702 -1.3290
  101OSM   H16G10180   5.808   5.132   5.508  0.8619  0.9646  0.8462
  101OSM   C17F10181   5.759   4.964   5.366  0.6298  0.7521  0.8460
  101OSM   H17F10182   5.658   4.972   5.412  0.1824 -1.0326  0.2638
  101OSM   H17G10183   5.776   4.854   5.370 -1.2966  0.3463 -0.8067
  101OSM   C18F10184   5.773   5.015   5.218  0.1466 -0.1716  0.1131
  101OSM   H18F10185   5.877   4.997   5.185  0.0398 -3.3653  1.1787
  101OSM   H18G10186   5.742   5.121   5.202  2.1156  0.2243 -1.4594
  101OSM   H18H10187   5.724   4.942   5.151  2.0353 -1.2553 -0.1387
  102OSM      N10188   0.135   4.600   7.223  0.8384 -0.8101  0.2234
  102OSM    C1510189   0.231   4.505   7.287 -0.0736  0.9070  0.0742
  102OSM   H15A10190   0.319   4.484   7.228 -1.1472 -2.0982 -0.5987
  102OSM   H15B10191   0.180   4.411   7.297  1.2242  0.0814 -0.7330
  102OSM   H15C10192   0.256   4.551   7.382 -4.4269  4.2034 -0.0577
  102OSM    C1410193   0.005   4.592   7.299  0.2581  0.3476  0.0528
  102OSM   H14A10194   0.014   4.627   7.401  1.5514 -2.5463  1.0489
  102OSM   H14B10195  -0.026   4.489   7.292  1.7751 -0.0025 -2.7020
  102OSM   H14C10196  -0.077   4.650   7.260 -0.0496  0.3109  0.6311
  102OSM    C1310197   0.187   4.742   7.222  0.5405  0.6112  0.5124
  102OSM   H13A10198   0.218   4.778   7.320  0.2061  2.3031  0.0239
  102OSM   H13B10199   0.103   4.807   7.200  0.6381  0.9503  1.1049
  102OSM   H13C10200   0.273   4.754   7.158  0.3541 -1.0456 -0.0938
  102OSM    C1210201   0.101   4.555   7.079  0.8844  0.0557  0.0753
  102OSM   H12A10202   0.182   4.585   7.014 -0.0013  1.8582 -0.2680
  102OSM   H12B10203   0.015   4.612   7.045  2.6040  1.5173 -2.1587
  102OSM    C1110204   0.076   4.404   7.060  0.0507  1.0672 -0.1840
  102OSM   H11A10205   0.170   4.348   7.078 -1.4660 -2.0248 -1.1267
  102OSM   H11B10206   0.041   4.377   6.958 -1.2907  0.0411  0.5037
  102OSM      P10207  -0.024   4.234   7.257  0.0046 -0.0811  0.4402
  102OSM    O1310208   0.112   4.209   7.311  0.2830  0.1514  0.4155
  102OSM    O1410209  -0.127   4.269   7.359  0.1865 -0.3099 -0.1477
  102OSM    O1110210  -0.076   4.115   7.161 -0.3225  0.2956 -0.1487
  102OSM    O1210211  -0.026   4.354   7.152 -0.6057  0.1640  0.1273
  102OSM    C1S10212  -0.155   4.137   7.044 -0.0303 -0.2488  0.6969
  102OSM    H1S10213  -0.109   4.206   6.970 -3.8152  0.8396 -0.8783
  102OSM    H1T10214  -0.258   4.169   7.071  1.4134  2.7072  3.2818
  102OSM     NF10215  -0.240   4.036   6.844 -0.1142  0.0561 -0.0074
  102OSM    HNF10216  -0.339   4.026   6.846 -0.1601  0.3282  2.6872
  102OSM    C2S10217  -0.177   4.003   6.968 -0.0867  0.7388  1.2026
  102OSM    H2S10218  -0.076   3.968   6.938 -0.9450  0.9772 -2.5187
  102OSM    C3S10219  -0.263   3.893   7.034  0.1561  0.1420  0.1675
  102OSM    H3S10220  -0.371   3.911   7.054  0.3958 -0.0375  1.7703
  102OSM     O310221  -0.216   3.856   7.168 -0.1612 -0.1602  0.7471
  102OSM    HO310222  -0.149   3.921   7.188 -1.9998  1.9814  0.4105
  102OSM    C4S10223  -0.272   3.771   6.943  0.2427  0.8461  0.6681
  102OSM    H4S10224  -0.182   3.708   6.934  0.3210  1.0680 -0.1475
  102OSM    C5S10225  -0.378   3.729   6.878 -0.0113  0.1140  0.0105
  102OSM    H5S10226  -0.470   3.789   6.877  0.8670  1.5370 -1.3416
  102OSM    C6S10227  -0.376   3.611   6.782 -0.0841  0.1214 -0.4205
  102OSM    H6S10228  -0.468   3.550   6.772  0.0904 -0.2258  0.0764
  102OSM    H6T10229  -0.297   3.539   6.813 -0.4231 -0.0102  0.1341
  102OSM    C7S10230  -0.342   3.642   6.634  0.6101  0.2055  0.2781
  102OSM    H7S10231  -0.364   3.554   6.570 -0.2709  0.3424  0.3845
  102OSM    H7T10232  -0.238   3.664   6.603  0.2812 -1.1341 -2.0164
  102OSM    C8S10233  -0.442   3.741   6.568  0.9243  0.4549  0.1631
  102OSM    H8S10234  -0.443   3.829   6.636  3.5833  0.2503  0.5665
  102OSM    H8T10235  -0.538   3.686   6.573  0.0820  1.8861  0.2607
  102OSM    C9S10236  -0.396   3.776   6.424 -0.0074  0.0432 -0.0583
  102OSM    H9S10237  -0.399   3.684   6.361 -2.9675 -0.6540  0.9201
  102OSM    H9T10238  -0.289   3.804   6.439  0.7048 -0.5025 -3.4112
  102OSM   C10S10239  -0.479   3.879   6.348  1.3455  0.1161 -0.2085
  102OSM   H10S10240  -0.472   3.968   6.414  1.2620 -0.5354  0.7031
  102OSM   H10T10241  -0.585   3.849   6.339  0.0829  3.9168  0.0824
  102OSM   C11S10242  -0.422   3.910   6.211 -0.1764 -0.1843  0.3762
  102OSM   H11S10243  -0.312   3.920   6.205 -0.2673  0.8441  0.3005
  102OSM   H11T10244  -0.468   4.002   6.170  0.0685  0.1669  0.8819
  102OSM   C12S10245  -0.462   3.804   6.110 -0.5398  0.0837 -0.1564
  102OSM   H12S10246  -0.571   3.807   6.089 -0.1984  0.8489 -2.0294
  102OSM   H12T10247  -0.425   3.703   6.135  0.9875 -0.0338 -2.5555
  102OSM   C13S10248  -0.398   3.837   5.972 -0.5568 -0.2152  0.5945
  102OSM   H13S10249  -0.290   3.860   5.982 -0.7295  0.6742  0.4806
  102OSM   H13T10250  -0.437   3.936   5.942  1.0555 -0.2364 -1.8760
  102OSM   C14S10251  -0.425   3.728   5.862  0.5485 -0.2316 -0.1272
  102OSM   H14S10252  -0.533   3.723   5.839  0.6094 -1.5699 -0.1596
  102OSM   H14T10253  -0.389   3.637   5.914 -1.5237 -1.6057 -0.9571
  102OSM   C15S10254  -0.348   3.747   5.734  0.9235 -0.2821 -0.1651
  102OSM   H15S10255  -0.240   3.745   5.759  0.4181  0.7806  2.5013
  102OSM   H15T10256  -0.365   3.852   5.702  2.2712 -0.2843 -0.9485
  102OSM   C16S10257  -0.385   3.652   5.621  0.2599  0.0339  0.0790
  102OSM   H16S10258  -0.492   3.624   5.635  0.5739 -0.6058  1.2705
  102OSM   H16T10259  -0.333   3.554   5.618  0.0939 -0.0352 -1.3341
  102OSM   C17S10260  -0.369   3.712   5.489 -0.2963 -0.5488 -0.2211
  102OSM   H17S10261  -0.450   3.787   5.474  0.4173  0.6623  1.6235
  102OSM   H17T10262  -0.390   3.627   5.421  1.2875 -2.0333  1.0707
  102OSM   C18S10263  -0.224   3.760   5.469 -0.0324  0.8143  0.1388
  102OSM   H18S10264  -0.158   3.677   5.503 -2.4632 -0.4110  2.2861
  102OSM   H18T10265  -0.203   3.845   5.538  1.6488  0.0094  0.6793
  102OSM   H18U10266  -0.195   3.796   5.368  1.7530  1.1504  0.7308
  102OSM    C1F10267  -0.193   4.116   6.745 -0.1889  0.3353  0.6306
  102OSM     OF10268  -0.072   4.148   6.738  0.3205  0.2183  0.0619
  102OSM    C2F10269  -0.296   4.155   6.648  0.0903 -0.3380  0.4156
  102OSM    H2F10270  -0.365   4.228   6.695  0.6306  1.3243 -1.2114
  102OSM    H2G10271  -0.354   4.068   6.613  0.7486 -0.7597  0.3471
  102OSM    C3F10272  -0.239   4.234   6.529  0.4678  0.2333  0.0537
  102OSM    H3F10273  -0.158   4.170   6.488  2.0069  0.8565  1.9363
  102OSM    H3G10274  -0.190   4.330   6.556 -0.8093  1.1171 -0.6588
  102OSM    C4F10275  -0.352   4.280   6.429  0.0042 -0.0350  0.3653
  102OSM    H4F10276  -0.430   4.338   6.482  1.1893  0.4885  1.5585
  102OSM    H4G10277  -0.405   4.184   6.408 -0.0089  0.3170 -1.4413
  102OSM    C5F10278  -0.292   4.343   6.303 -0.2297 -0.0597  0.2392
  102OSM    H5F10279  -0.193   4.313   6.264 -0.9627 -1.8629 -0.3276
  102OSM    H5G10280  -0.301   4.453   6.318 -1.7995  0.0779 -1.3247
  102OSM    C6F10281  -0.385   4.322   6.172 -0.6297  0.5242 -0.1334
  102OSM    H6F10282  -0.489   4.357   6.188 -0.8942  0.6159 -1.8825
  102OSM    H6G10283  -0.383   4.216   6.139  0.0846  1.0859 -2.0359
  102OSM    C7F10284  -0.321   4.398   6.057  0.2107  0.1086  0.1444
  102OSM    H7F10285  -0.224   4.345   6.049  0.0895 -0.1167  0.1570
  102OSM    H7G10286  -0.307   4.501   6.097  0.4131  0.1295  0.0226
  102OSM    C8F10287  -0.399   4.396   5.926 -0.1320  0.0948  0.0583
  102OSM    H8F10288  -0.336   4.463   5.863  2.0625 -0.1501  1.8521
  102OSM    H8G10289  -0.497   4.447   5.935 -0.4033 -0.4828  0.4448
  102OSM    C9F10290  -0.410   4.264   5.854  0.0871  0.9868  0.0364
  102OSM    H9F10291  -0.495   4.203   5.888  1.1203 -0.1358  0.7154
  102OSM   C10F10292  -0.329   4.212   5.763 -0.7368  0.5795 -0.0461
  102OSM   H10F10293  -0.338   4.106   5.736  1.7238  0.8143 -2.0906
  102OSM   C11F10294  -0.205   4.271   5.702  0.4914  1.0454 -0.1307
  102OSM   H11F10295  -0.120   4.210   5.741 -1.1409 -0.9577  0.4847
  102OSM   H11G10296  -0.199   4.378   5.731 -0.1353  1.0950 -0.1727
  102OSM   C12F10297  -0.222   4.264   5.548 -0.5564  0.4433 -0.2051
  102OSM   H12F10298  -0.234   4.159   5.513 -1.7576  0.9089 -1.2487
  102OSM   H12G10299  -0.122   4.297   5.513 -0.0876 -2.3434 -1.8501
  102OSM   C13F10300  -0.341   4.352   5.495 -1.0174  0.1129 -0.1593
  102OSM   H13F10301  -0.314   4.451   5.536  0.6097 -1.3019  2.5169
  102OSM   H13G10302  -0.438   4.316   5.537 -0.0091 -2.3126  0.2987
  102OSM   C14F10303  -0.357   4.364   5.341  0.2708 -0.1321  0.0153
  102OSM   H14F10304  -0.260   4.409   5.313  0.8172 -0.6311  1.0651
  102OSM   H14G10305  -0.435   4.439   5.319  1.9230  1.3981 -0.8263
  102OSM   C15F10306  -0.386   4.233   5.271 -0.5287 -0.5218 -0.2223
  102OSM   H15F10307  -0.472   4.178   5.314 -1.6635  0.3968 -1.2229
  102OSM   H15G10308  -0.288   4.181   5.274 -0.0630  0.3542  0.2578
  102OSM   C16F10309  -0.409   4.261   5.121 -0.2314  0.1056  0.0037
  102OSM   H16F10310  -0.510   4.305   5.104 -0.3925 -1.2243 -3.2530
  102OSM   H16G10311  -0.392   4.161   5.074 -0.3514 -0.5187  1.2431
  102OSM   C17F10312  -0.317   4.352   5.046  0.1163 -0.5810  0.2117
  102OSM   H17F10313  -0.209   4.326   5.051  1.3141  3.5910  0.2153
  102OSM   H17G10314  -0.319   4.452   5.096 -3.8102  1.6301 -3.6325
  102OSM   C18F10315  -0.352   4.377   4.904 -0.6546 -0.0706  0.5135
  102OSM   H18F10316  -0.264   4.414   4.846  0.7305 -3.7339  0.0165
  102OSM   H18G10317  -0.442   4.441   4.894  1.0680  2.6041  0.9631
  102OSM   H18H10318  -0.380   4.281   4.857  0.0536 -0.8584  1.6630
  103OSM      N10319   5.648   4.100   7.310  0.1371 -0.4932 -1.0401
  103OSM    C1510320   5.523   4.125   7.389  0.3735  0.2674  0.3303
  103OSM   H15A10321   5.433   4.141   7.331 -0.2401 -1.3164  0.7967
  103OSM   H15B10322   5.541   4.215   7.446 -0.4397 -0.0484  1.1213
  103OSM   H15C10323   5.515   4.046   7.462 -1.9362 -0.3844 -0.5383
  103OSM    C1410324   5.710   4.229   7.262  0.4182  0.3509  0.4256
  103OSM   H14A10325   5.769   4.273   7.341  0.0050  1.1513  0.2964
  103OSM   H14B10326   5.633   4.299   7.236 -0.6426 -0.9537 -0.0283
  103OSM   H14C10327   5.777   4.211   7.179  0.3219  1.0705  0.1822
  103OSM    C1310328   5.749   4.030   7.397  0.2942 -0.5043 -0.3506
  103OSM   H13A10329   5.850   4.047   7.365 -0.0406  1.0592 -0.6555
  103OSM   H13B10330   5.729   3.924   7.395  1.5232 -0.8146  1.7438
  103OSM   H13C10331   5.740   4.072   7.496  1.6122  0.0105 -0.4340
  103OSM    C1210332   5.617   4.018   7.181  0.0538 -0.4540  0.4705
  103OSM   H12A10333   5.583   3.919   7.208  1.3140 -0.9847  0.2084
  103OSM   H12B10334   5.713   4.002   7.134 -0.0449  1.1194 -0.3519
  103OSM    C1110335   5.516   4.075   7.076  0.8600 -0.2196 -0.2466
  103OSM   H11A10336   5.520   4.007   6.989  0.6851 -0.3902 -0.1223
  103OSM   H11B10337   5.544   4.174   7.033  0.3906 -1.1616 -2.8482
  103OSM      P10338   5.292   3.950   7.132 -0.3155  0.0528  0.3657
  103OSM    O1310339   5.365   3.834   7.176 -0.1412  0.3211 -0.3058
  103OSM    O1410340   5.166   3.962   7.207  0.7923 -0.2635 -0.5850
  103OSM    O1110341   5.268   3.939   6.976 -0.1646 -0.0604  0.0494
  103OSM    O1210342   5.386   4.079   7.137 -0.5438 -0.0584 -0.3675
  103OSM    C1S10343   5.228   4.051   6.891  0.1561 -0.7439  0.1320
  103OSM    H1S10344   5.317   4.110   6.860 -0.2097 -1.1096 -1.7021
  103OSM    H1T10345   5.151   4.112   6.945 -0.2523 -0.2364 -0.9918
  103OSM     NF10346   5.137   4.148   6.682  0.3308  0.1198  0.0372
  103OSM    HNF10347   5.053   4.202   6.683  2.4511  3.8854 -1.7286
  103OSM    C2S10348   5.154   4.025   6.757  0.0758 -0.4372  0.2938
  103OSM    H2S10349   5.215   3.955   6.696 -0.2581  1.2237 -2.1096
  103OSM    C3S10350   5.026   3.943   6.784  0.1062  0.3814  0.6968
  103OSM    H3S10351   4.959   4.015   6.835 -2.1815 -2.2395  1.5915
  103OSM     O310352   5.034   3.827   6.866  0.1061  0.2008 -0.0703
  103OSM    HO310353   5.118   3.828   6.912 -0.6667 -1.3609  1.5142
  103OSM    C4S10354   4.951   3.906   6.653  0.2334  0.3656  0.5055
  103OSM    H4S10355   4.885   3.981   6.607  0.0757  0.6505  1.1961
  103OSM    C5S10356   4.976   3.800   6.572  1.2553  0.4358 -0.3241
  103OSM    H5S10357   5.071   3.746   6.583  1.8347  1.8061  2.2308
  103OSM    C6S10358   4.902   3.769   6.452 -0.1854  0.3020  0.2651
  103OSM    H6S10359   4.798   3.808   6.446 -0.1841  0.2154 -0.4794
  103OSM    H6T10360   4.885   3.660   6.447  0.4679  0.2359 -0.8853
  103OSM    C7S10361   4.978   3.803   6.314  0.1227  0.6886 -0.5585
  103OSM    H7S10362   4.942   3.732   6.237  0.3685 -0.1475  0.0894
  103OSM    H7T10363   5.088   3.787   6.316  0.0326 -0.6563 -3.1181
  103OSM    C8S10364   4.946   3.944   6.272  1.0760 -0.6869 -0.6070
  103OSM    H8S10365   4.974   4.003   6.362 -0.1750  2.2644 -2.0382
  103OSM    H8T10366   4.835   3.952   6.267  0.9192 -1.4588  0.9119
  103OSM    C9S10367   5.020   4.008   6.163 -0.2139  0.4006  0.7482
  103OSM    H9S10368   5.131   4.006   6.171 -0.1035 -0.9910 -0.6996
  103OSM    H9T10369   4.986   4.114   6.160 -3.0366 -0.4179  1.3305
  103OSM   C10S10370   4.996   3.938   6.032  0.4026 -0.3985  0.3466
  103OSM   H10S10371   4.893   3.939   5.991  1.0015  0.8853 -1.2324
  103OSM   H10T10372   5.025   3.833   6.056 -0.1255 -0.5363  0.3943
  103OSM   C11S10373   5.092   3.996   5.920  0.2214  0.2770 -0.1297
  103OSM   H11S10374   5.193   3.965   5.954  0.1233  0.2125  0.1094
  103OSM   H11T10375   5.075   4.105   5.921 -0.9524  0.1083  0.2555
  103OSM   C12S10376   5.069   3.940   5.781  0.0282 -0.1569 -0.0250
  103OSM   H12S10377   4.975   3.985   5.742 -0.4177 -0.7743  0.3169
  103OSM   H12T10378   5.058   3.829   5.789 -2.3715 -0.0714 -1.1127
  103OSM   C13S10379   5.171   3.969   5.671 -0.0592 -0.0993 -0.2651
  103OSM   H13S10380   5.167   3.904   5.581  0.8450 -2.2525  1.1856
  103OSM   H13T10381   5.272   3.941   5.708 -0.0928  1.0320  0.7526
  103OSM   C14S10382   5.198   4.121   5.637  0.0180 -0.1673  0.0190
  103OSM   H14S10383   5.250   4.169   5.723 -0.4932  2.0864 -0.8804
  103OSM   H14T10384   5.093   4.155   5.634  0.7239  2.1166 -2.8019
  103OSM   C15S10385   5.265   4.143   5.509  0.9033 -0.7122 -0.3007
  103OSM   H15S10386   5.197   4.111   5.427 -0.6590 -0.7081  0.9343
  103OSM   H15T10387   5.344   4.065   5.503  1.3755 -0.2833  0.3183
  103OSM   C16S10388   5.328   4.283   5.483  0.0480 -0.5120 -0.3677
  103OSM   H16S10389   5.377   4.287   5.384 -1.2434 -0.5617 -1.0241
  103OSM   H16T10390   5.403   4.314   5.559 -1.5844  0.5862  0.8702
  103OSM   C17S10391   5.231   4.398   5.486  0.3329  0.9731  0.0222
  103OSM   H17S10392   5.271   4.489   5.438 -2.8319  3.0079  0.8995
  103OSM   H17T10393   5.214   4.414   5.595 -1.7922 -3.5138  0.5896
  103OSM   C18S10394   5.094   4.372   5.425  0.4668 -0.3873  0.7695
  103OSM   H18S10395   5.115   4.319   5.329 -0.5924  0.7881 -0.1465
  103OSM   H18T10396   5.037   4.466   5.408  1.7268  0.2408 -0.2180
  103OSM   H18U10397   5.046   4.304   5.497  1.9779 -2.1434  0.1923
  103OSM    C1F10398   5.249   4.211   6.630 -0.6473  0.0200 -0.2010
  103OSM     OF10399   5.358   4.156   6.626 -0.4003 -0.2430 -0.3589
  103OSM    C2F10400   5.228   4.349   6.574 -0.0832  0.5141  0.1916
  103OSM    H2F10401   5.294   4.364   6.486 -1.4227  1.5363 -0.6816
  103OSM    H2G10402   5.261   4.422   6.651  1.3253  1.1923 -1.0035
  103OSM    C3F10403   5.087   4.382   6.528  0.0291 -0.3398 -0.3818
  103OSM    H3F10404   5.001   4.396   6.596  0.7686 -1.8488  0.9148
  103OSM    H3G10405   5.066   4.302   6.454 -1.3510 -1.0619  0.7507
  103OSM    C4F10406   5.091   4.521   6.446 -0.2783  0.5089 -0.2689
  103OSM    H4F10407   5.192   4.516   6.402 -0.3017  1.4508 -0.4547
  103OSM    H4G10408   5.102   4.613   6.509  1.6184  1.2724 -1.6151
  103OSM    C5F10409   4.980   4.529   6.345  0.7394 -0.3336  0.6634
  103OSM    H5F10410   4.956   4.635   6.322  0.1993 -0.5642  0.1314
  103OSM    H5G10411   4.886   4.487   6.386  0.0602  0.7598  0.2751
  103OSM    C6F10412   5.012   4.448   6.216 -0.2693 -0.5086  0.3346
  103OSM    H6F10413   5.005   4.337   6.227  1.7317 -0.9822 -2.1960
  103OSM    H6G10414   5.120   4.455   6.194 -0.4089 -2.4127 -1.3272
  103OSM    C7F10415   4.929   4.483   6.095  0.6134  0.3785  0.0735
  103OSM    H7F10416   4.938   4.588   6.060  1.2402  0.5633  0.7773
  103OSM    H7G10417   4.822   4.472   6.125 -0.0061  0.9339 -1.8143
  103OSM    C8F10418   4.940   4.388   5.972  0.8334 -0.2081 -0.0560
  103OSM    H8F10419   4.837   4.387   5.930 -0.0220 -3.5791  1.7797
  103OSM    H8G10420   4.958   4.287   6.015 -3.7458  0.4805  4.3946
  103OSM    C9F10421   5.041   4.439   5.869  0.3658  0.1484  0.3250
  103OSM    H9F10422   4.997   4.504   5.792 -1.9053  0.8295  2.0936
  103OSM   C10F10423   5.173   4.426   5.868  0.2061 -0.2997 -0.6389
  103OSM   H10F10424   5.228   4.468   5.783 -0.3633  0.7562 -0.5061
  103OSM   C11F10425   5.251   4.348   5.973 -0.2017  0.2305  0.8878
  103OSM   H11F10426   5.305   4.260   5.932 -1.7964 -0.4608  0.2017
  103OSM   H11G10427   5.197   4.291   6.052  0.9382  0.0553  1.5630
  103OSM   C12F10428   5.343   4.446   6.047 -0.0552  0.8637 -0.2050
  103OSM   H12F10429   5.403   4.395   6.125  0.0030  2.6286  0.9615
  103OSM   H12G10430   5.280   4.526   6.092 -1.0383  0.1710 -0.3085
  103OSM   C13F10431   5.444   4.515   5.949  0.1794  0.0665 -0.0516
  103OSM   H13F10432   5.400   4.600   5.893  1.3560  1.2844  0.7803
  103OSM   H13G10433   5.482   4.438   5.878 -0.0755  1.3185 -1.5978
  103OSM   C14F10434   5.563   4.579   6.031  0.0661 -0.0578  0.0994
  103OSM   H14F10435   5.607   4.500   6.095  2.1651 -0.8110 -2.1254
  103OSM   H14G10436   5.520   4.658   6.096  1.4884 -0.7386  1.9540
  103OSM   C15F10437   5.678   4.630   5.943  0.3106  0.0159 -0.0389
  103OSM   H15F10438   5.743   4.691   6.010  4.4984 -2.1370 -1.7708
  103OSM   H15G10439   5.635   4.694   5.863 -0.7621 -1.4764 -0.7058
  103OSM   C16F10440   5.768   4.529   5.879  0.6551 -0.4652  0.1158
  103OSM   H16F10441   5.708   4.444   5.838 -0.1317  0.1366 -0.0050
  103OSM   H16G10442   5.822   4.478   5.962 -1.7429 -1.3228  1.2594
  103OSM   C17F10443   5.863   4.586   5.772 -0.2368 -0.5598  0.6175
  103OSM   H17F10444   5.922   4.668   5.818 -1.2608  0.2931  0.4676
  103OSM   H17G10445   5.793   4.636   5.701  0.3135  0.6391  0.9051
  103OSM   C18F10446   5.951   4.481   5.707 -0.3110 -0.0905  0.8395
  103OSM   H18F10447   5.889   4.417   5.639 -0.5338  3.7845 -3.0878
  103OSM   H18G10448   5.994   4.416   5.786  1.1412 -0.1528  0.0295
  103OSM   H18H10449   6.031   4.514   5.638 -1.5425  1.4959  0.1120
  104OSM      N10450   5.494   5.638   7.445 -0.9518 -0.1804 -0.2894
  104OSM    C1510451   5.435   5.763   7.511  0.2149  0.7170 -0.4239
  104OSM   H15A10452   5.397   5.747   7.610 -2.4480  1.7805 -1.1986
  104OSM   H15B10453   5.343   5.792   7.462  0.3568  2.7507  0.4486
  104OSM   H15C10454   5.515   5.836   7.510  3.1884 -2.2758 -1.3976
  104OSM    C1410455   5.622   5.598   7.517  0.0749  0.3914  0.0676
  104OSM   H14A10456   5.662   5.501   7.491  0.5676  1.0879 -2.0010
  104OSM   H14B10457   5.609   5.603   7.624 -0.1951  1.0655  0.0021
  104OSM   H14C10458   5.709   5.660   7.501  1.5345 -0.9645  2.2075
  104OSM    C1310459   5.399   5.531   7.471 -0.1820 -0.0779  0.3499
  104OSM   H13A10460   5.412   5.499   7.573 -0.2310  0.7447  0.6230
  104OSM   H13B10461   5.441   5.442   7.427  2.1297  0.7527  0.7519
  104OSM   H13C10462   5.297   5.553   7.441 -0.0407 -0.8496 -0.7213
  104OSM    C1210463   5.519   5.648   7.295  0.2930  0.4249 -0.6690
  104OSM   H12A10464   5.428   5.660   7.237 -0.2112 -1.3905 -0.3180
  104OSM   H12B10465   5.557   5.552   7.266 -1.2029 -0.8213  1.2412
  104OSM    C1110466   5.616   5.754   7.247  0.9811  0.2089 -0.5090
  104OSM   H11A10467   5.581   5.858   7.267  1.1100  0.1247  0.1890
  104OSM   H11B10468   5.610   5.749   7.137 -2.2950  2.2621 -0.5529
  104OSM      P10469   5.849   5.665   7.221 -0.0275  0.2837 -0.0176
  104OSM    O1310470   5.961   5.634   7.311  0.3014 -0.1124 -0.0181
  104OSM    O1410471   5.795   5.556   7.146 -0.0840 -0.2496 -0.1310
  104OSM    O1110472   5.900   5.778   7.119 -1.2178  0.4661  0.0622
  104OSM    O1210473   5.743   5.748   7.301  0.6264 -0.4985 -0.4017
  104OSM    C1S10474   5.979   5.727   7.008  0.8472 -0.0813 -0.1498
  104OSM    H1S10475   5.979   5.617   6.996  0.3056 -0.0604 -0.3608
  104OSM    H1T10476   6.088   5.750   7.016  0.5828  1.3111 -0.2724
  104OSM     NF10477   6.019   5.747   6.751  0.5785 -0.4455  0.4764
  104OSM    HNF10478   6.109   5.787   6.739  0.9630 -1.4888 -0.2534
  104OSM    C2S10479   5.952   5.801   6.872  0.3078 -0.9664 -0.3777
  104OSM    H2S10480   5.844   5.791   6.847 -0.1264 -0.5515  1.2418
  104OSM    C3S10481   5.968   5.955   6.908  0.0178  0.2963 -0.7088
  104OSM    H3S10482   6.064   5.968   6.961 -0.1098  0.4482 -0.5147
  104OSM     O310483   5.866   6.005   6.995  0.4152  0.1546  0.4864
  104OSM    HO310484   5.858   5.947   7.072 -1.4630  1.9700  1.7760
  104OSM    C4S10485   5.966   6.040   6.786 -0.6302  0.1025  0.2440
  104OSM    H4S10486   5.879   6.020   6.722 -0.7929 -1.5063  0.9228
  104OSM    C5S10487   6.058   6.132   6.757 -0.2940  0.0420 -0.0493
  104OSM    H5S10488   6.140   6.151   6.828 -1.4064 -1.2993  1.6698
  104OSM    C6S10489   6.057   6.216   6.636  0.8396 -0.3774 -0.0495
  104OSM    H6S10490   6.160   6.251   6.614  0.5694 -0.6984 -2.0035
  104OSM    H6T10491   6.005   6.313   6.656 -0.1110 -0.6595 -1.0546
  104OSM    C7S10492   5.997   6.169   6.497  0.1827  0.7033 -0.8064
  104OSM    H7S10493   5.895   6.128   6.516 -0.4135  1.0267 -2.9908
  104OSM    H7T10494   6.058   6.085   6.459 -1.3648 -0.3306 -1.0914
  104OSM    C8S10495   5.996   6.265   6.381 -0.3389  0.1539  0.1961
  104OSM    H8S10496   6.100   6.305   6.371  0.0398 -0.9515 -0.4325
  104OSM    H8T10497   5.927   6.350   6.401  1.0966  1.0506  1.6449
  104OSM    C9S10498   5.974   6.194   6.249  0.2539 -0.2379 -0.1930
  104OSM    H9S10499   5.863   6.196   6.245  0.2522 -0.5849 -0.4355
  104OSM    H9T10500   6.023   6.094   6.239 -1.6577 -1.2912  0.4170
  104OSM   C10S10501   6.011   6.290   6.125  0.3124 -0.1738 -0.2452
  104OSM   H10S10502   6.113   6.332   6.138 -1.3517  3.6018  2.2032
  104OSM   H10T10503   5.942   6.376   6.137  1.0378  0.4616 -0.5023
  104OSM   C11S10504   5.998   6.234   5.985 -0.2498  0.1637 -0.4246
  104OSM   H11S10505   5.895   6.195   5.980 -0.1122 -0.2189 -0.3274
  104OSM   H11T10506   6.063   6.144   5.989 -0.7943 -0.1949  1.3485
  104OSM   C12S10507   6.035   6.326   5.878  0.4488 -0.6241  0.6095
  104OSM   H12S10508   6.056   6.268   5.786 -0.3086  0.4926 -0.3022
  104OSM   H12T10509   6.117   6.397   5.901 -0.3920  1.3802 -2.0256
  104OSM   C13S10510   5.923   6.427   5.825  0.0641  0.3973 -1.2804
  104OSM   H13S10511   5.907   6.504   5.903 -0.3059 -0.1150 -0.8340
  104OSM   H13T10512   5.830   6.365   5.835 -0.0235  0.9127  4.2437
  104OSM   C14S10513   5.947   6.490   5.683  0.0274 -0.5197 -0.3899
  104OSM   H14S10514   6.052   6.524   5.692  0.1529 -1.4183  3.4441
  104OSM   H14T10515   5.880   6.579   5.675  0.8281  0.0854 -0.5099
  104OSM   C15S10516   5.917   6.412   5.557 -0.3636  0.2511 -0.1097
  104OSM   H15S10517   5.808   6.407   5.537 -0.4874  0.2681  0.5339
  104OSM   H15T10518   5.960   6.310   5.563  1.0117  0.8812  3.6658
  104OSM   C16S10519   5.982   6.480   5.432  0.3880  0.5436 -0.4915
  104OSM   H16S10520   5.985   6.406   5.349  2.3898 -0.1046  0.1144
  104OSM   H16T10521   6.089   6.505   5.445  0.2630  0.9733 -0.2896
  104OSM   C17S10522   5.912   6.607   5.388 -0.1825 -0.6729  1.3130
  104OSM   H17S10523   5.942   6.697   5.448  0.1968  1.6322 -2.0455
  104OSM   H17T10524   5.803   6.591   5.390 -0.3758  0.0212 -0.8845
  104OSM   C18S10525   5.959   6.650   5.245  0.3703  0.4398  0.4694
  104OSM   H18S10526   5.922   6.751   5.217  0.4352  0.6372  1.0731
  104OSM   H18T10527   5.929   6.576   5.168 -1.4094 -0.9369  2.3398
  104OSM   H18U10528   6.070   6.655   5.244  0.3735  0.2992 -0.0185
  104OSM    C1F10529   5.990   5.631   6.696  0.1105 -0.0039 -0.0747
  104OSM     OF10530   5.893   5.572   6.738  0.2867 -0.1300 -0.2081
  104OSM    C2F10531   6.093   5.565   6.600 -0.6272  0.1201  0.0135
  104OSM    H2F10532   6.045   5.471   6.567 -0.6442  0.2258 -0.2606
  104OSM    H2G10533   6.177   5.527   6.664 -2.0315 -1.1299  1.1947
  104OSM    C3F10534   6.132   5.648   6.478 -0.4126  0.1137  0.0286
  104OSM    H3F10535   6.223   5.606   6.429 -0.6255 -1.4319  0.8708
  104OSM    H3G10536   6.163   5.749   6.512 -1.4490  0.2974  0.4591
  104OSM    C4F10537   6.023   5.652   6.379 -0.0025 -0.5866  0.0204
  104OSM    H4F10538   5.927   5.686   6.424  0.5738 -0.3200  1.1073
  104OSM    H4G10539   6.011   5.551   6.334 -0.7287  0.1086 -1.4105
  104OSM    C5F10540   6.065   5.747   6.261 -0.8071  0.4765 -0.0099
  104OSM    H5F10541   6.140   5.694   6.199  1.2946  0.9328  2.0048
  104OSM    H5G10542   6.118   5.838   6.299 -0.1954 -0.5547  1.7338
  104OSM    C6F10543   5.943   5.779   6.174 -0.1276  0.2140 -0.2800
  104OSM    H6F10544   5.905   5.878   6.206  0.2898 -0.1031  1.2442
  104OSM    H6G10545   5.863   5.702   6.187 -1.7066  2.0259  1.4131
  104OSM    C7F10546   5.991   5.806   6.030 -0.2572  0.1290 -0.4278
  104OSM    H7F10547   6.044   5.716   5.991 -0.7579  0.3321 -1.6110
  104OSM    H7G10548   6.070   5.884   6.020  1.3307 -1.3669 -0.0202
  104OSM    C8F10549   5.875   5.862   5.951 -0.3478 -0.0569  0.2415
  104OSM    H8F10550   5.825   5.939   6.013 -0.2665 -0.4416  0.8012
  104OSM    H8G10551   5.804   5.777   5.950  0.1715 -0.6192  2.8310
  104OSM    C9F10552   5.913   5.922   5.816 -0.1216  0.2624 -0.1896
  104OSM    H9F10553   5.948   6.025   5.830  2.1026 -0.3931 -0.5686
  104OSM   C10F10554   5.884   5.888   5.690 -0.6387  0.6326 -0.6174
  104OSM   H10F10555   5.932   5.943   5.607  0.6515 -2.1134 -1.8253
  104OSM   C11F10556   5.812   5.771   5.630 -0.3456  0.4565 -0.6421
  104OSM   H11F10557   5.701   5.779   5.637 -0.3668 -0.6108  0.6377
  104OSM   H11G10558   5.837   5.680   5.688  0.8372  1.4879  0.5119
  104OSM   C12F10559   5.851   5.720   5.487 -0.2335  0.7275 -0.7476
  104OSM   H12F10560   5.836   5.610   5.482  0.4427  0.6001 -0.1123
  104OSM   H12G10561   5.956   5.735   5.456  0.2146  1.3629  0.9589
  104OSM   C13F10562   5.751   5.766   5.380 -0.0031 -0.1161 -0.4181
  104OSM   H13F10563   5.733   5.872   5.410 -1.3106 -0.6018  0.5818
  104OSM   H13G10564   5.644   5.743   5.401  0.0911  2.6797  4.8468
  104OSM   C14F10565   5.769   5.751   5.227  0.2824  0.6094 -0.7119
  104OSM   H14F10566   5.747   5.648   5.192  0.1309  1.2157 -2.4860
  104OSM   H14G10567   5.875   5.774   5.205  1.3343 -3.3464 -0.6634
  104OSM   C15F10568   5.682   5.845   5.140 -0.1366  0.3679 -0.0854
  104OSM   H15F10569   5.703   5.949   5.174  2.2858  0.7490 -2.3677
  104OSM   H15G10570   5.580   5.802   5.151 -1.1618  1.8872 -2.6722
  104OSM   C16F10571   5.721   5.859   4.994 -0.2244 -0.0869  0.7186
  104OSM   H16F10572   5.828   5.887   4.988 -0.0631 -0.4835  1.5626
  104OSM   H16G10573   5.658   5.940   4.950 -2.3791 -2.3859 -0.7086
  104OSM   C17F10574   5.694   5.732   4.916 -0.2001  0.0628 -1.1582
  104OSM   H17F10575   5.583   5.729   4.927 -0.0228  0.3802  0.9990
  104OSM   H17G10576   5.734   5.638   4.960 -2.9305 -0.5186  0.2941
  104OSM   C18F10577   5.720   5.731   4.768  0.1559 -0.1937  0.2413
  104OSM   H18F10578   5.686   5.638   4.718  0.7212 -0.0368 -0.4522
  104OSM   H18G10579   5.830   5.735   4.754 -0.0841  0.9587 -1.8680
  104OSM   H18H10580   5.680   5.823   4.719 -0.1280 -0.6604 -0.4194
  105OSM      N10581   1.125   6.236   7.197  0.5647 -0.4167 -0.2109
  105OSM    C1510582   1.216   6.130   7.190  0.1961 -0.4738 -0.2839
  105OSM   H15A10583   1.170   6.038   7.223  0.5150 -0.5525 -0.0483
  105OSM   H15B10584   1.302   6.155   7.251  0.3571  1.4099 -1.1942
  105OSM   H15C10585   1.247   6.111   7.088 -2.4796  0.9732 -1.4865
  105OSM    C1410586   1.195   6.370   7.176 -0.0822  0.3351  0.0247
  105OSM   H14A10587   1.133   6.456   7.198 -0.8066  0.4809 -2.3036
  105OSM   H14B10588   1.226   6.385   7.073 -0.6497 -0.9895 -0.3530
  105OSM   H14C10589   1.281   6.372   7.242  0.3821 -0.9461 -0.5134
  105OSM    C1310590   1.026   6.208   7.093  0.1750  0.2078 -0.2802
  105OSM   H13A10591   0.944   6.277   7.101 -0.2336 -0.2566 -0.3588
  105OSM   H13B10592   0.975   6.115   7.114  0.5664 -0.2414 -1.2585
  105OSM   H13C10593   1.069   6.218   6.995  0.1066  0.6611 -0.2623
  105OSM    C1210594   1.048   6.239   7.328  1.2064  0.1084 -0.5387
  105OSM   H12A10595   0.968   6.311   7.336  0.5238 -0.8253  2.6640
  105OSM   H12B10596   1.113   6.272   7.407  0.6958 -0.0349 -0.0469
  105OSM    C1110597   0.976   6.105   7.372  0.1029 -1.0274 -0.3122
  105OSM   H11A10598   0.897   6.127   7.447  1.0366  1.8114 -0.0421
  105OSM   H11B10599   1.058   6.053   7.426  2.4995  3.3124  0.6822
  105OSM      P10600   0.957   5.872   7.249  0.4597 -0.1354 -0.4149
  105OSM    O1310601   1.105   5.863   7.243  0.8165  0.7325  0.1359
  105OSM    O1410602   0.876   5.797   7.356  0.5828 -0.6008 -0.1182
  105OSM    O1110603   0.900   5.828   7.111 -0.0531 -0.4708 -0.0448
  105OSM    O1210604   0.920   6.024   7.260  0.6482  0.7642  1.0703
  105OSM    C1S10605   0.790   5.889   7.036 -0.0372  0.9086 -0.7203
  105OSM    H1S10606   0.830   5.984   6.992  0.3475  1.5841  1.0009
  105OSM    H1T10607   0.700   5.910   7.098  1.7951 -0.9850  2.9313
  105OSM     NF10608   0.663   5.896   6.830 -0.2649  0.2297  0.5463
  105OSM    HNF10609   0.563   5.893   6.821 -0.2754 -0.0058  0.7452
  105OSM    C2S10610   0.747   5.806   6.913  0.4262 -0.3991 -0.2874
  105OSM    H2S10611   0.840   5.783   6.858  1.3841  1.7888  0.2703
  105OSM    C3S10612   0.679   5.673   6.954 -0.0095 -0.0121 -0.0322
  105OSM    H3S10613   0.592   5.710   7.012  0.6335  0.3082  0.7430
  105OSM     O310614   0.753   5.599   7.050 -0.0418 -0.2811 -0.2973
  105OSM    HO310615   0.817   5.659   7.089 -0.1728  2.0200 -3.2391
  105OSM    C4S10616   0.645   5.597   6.832 -0.8631 -0.1778 -0.2264
  105OSM    H4S10617   0.542   5.609   6.794 -0.7530 -0.8046 -0.7218
  105OSM    C5S10618   0.736   5.519   6.771  0.2402 -0.2335  0.6733
  105OSM    H5S10619   0.839   5.508   6.808  1.4262 -0.0623 -2.3082
  105OSM    C6S10620   0.706   5.406   6.675  0.4374  0.2140 -0.0337
  105OSM    H6S10621   0.607   5.361   6.701 -0.9582  1.2736 -3.0372
  105OSM    H6T10622   0.778   5.322   6.687  0.9182  0.8840  2.2675
  105OSM    C7S10623   0.704   5.446   6.530 -0.0325 -0.1145  0.4297
  105OSM    H7S10624   0.809   5.469   6.505 -0.0088 -1.0106 -0.3357
  105OSM    H7T10625   0.629   5.526   6.511 -0.6383 -0.8514 -0.3027
  105OSM    C8S10626   0.650   5.337   6.436 -0.0124  0.3680  0.2157
  105OSM    H8S10627   0.543   5.325   6.464 -0.7630  2.5231 -1.4218
  105OSM    H8T10628   0.717   5.249   6.448  0.0090  0.5219  1.3405
  105OSM    C9S10629   0.660   5.374   6.283  0.7449 -0.4459 -0.4689
  105OSM    H9S10630   0.599   5.467   6.272  1.1197 -0.1597 -0.1703
  105OSM    H9T10631   0.607   5.301   6.218 -0.8821 -1.3100  1.7142
  105OSM   C10S10632   0.798   5.398   6.224 -0.1159 -0.3437 -0.5828
  105OSM   H10S10633   0.859   5.305   6.223 -1.2671 -1.1216 -0.1939
  105OSM   H10T10634   0.858   5.460   6.293  1.2036 -2.7028  0.5346
  105OSM   C11S10635   0.796   5.461   6.090  0.1656 -0.7365 -0.3357
  105OSM   H11S10636   0.897   5.493   6.059 -0.8306 -1.0041 -4.4553
  105OSM   H11T10637   0.725   5.547   6.089  0.0083 -0.7918  1.7570
  105OSM   C12S10638   0.751   5.370   5.975  0.2281 -0.3273 -0.4376
  105OSM   H12S10639   0.641   5.354   5.979 -0.1464  2.0210  0.1316
  105OSM   H12T10640   0.809   5.276   5.983  1.4215  0.4260 -0.0877
  105OSM   C13S10641   0.787   5.411   5.832  0.1167  0.1599 -0.4852
  105OSM   H13S10642   0.896   5.432   5.821  0.4665 -1.6037 -0.8655
  105OSM   H13T10643   0.734   5.504   5.801  0.3815 -0.0105 -1.5092
  105OSM   C14S10644   0.762   5.308   5.723 -0.2253 -0.2504  0.1879
  105OSM   H14S10645   0.659   5.267   5.733 -0.2776 -0.3361 -0.6453
  105OSM   H14T10646   0.839   5.230   5.739  0.9197  0.8609  0.2236
  105OSM   C15S10647   0.781   5.371   5.587 -0.3892 -0.3999  0.4735
  105OSM   H15S10648   0.872   5.435   5.591  0.9334 -2.2173  0.6200
  105OSM   H15T10649   0.703   5.447   5.564  0.2104  0.1239  0.1291
  105OSM   C16S10650   0.806   5.282   5.469  0.1679 -0.5337 -0.3397
  105OSM   H16S10651   0.718   5.214   5.464  0.2299 -0.6182 -0.2886
  105OSM   H16T10652   0.899   5.222   5.480  2.4543  2.2038 -3.1002
  105OSM   C17S10653   0.798   5.355   5.335 -0.0897 -0.5349  0.6691
  105OSM   H17S10654   0.895   5.408   5.324  0.2969 -1.3348  0.1081
  105OSM   H17T10655   0.710   5.423   5.344  0.5042  0.4203 -0.4095
  105OSM   C18S10656   0.791   5.261   5.208 -0.3676 -0.4875 -0.0539
  105OSM   H18S10657   0.880   5.196   5.191 -0.2871 -0.2650 -0.4953
  105OSM   H18T10658   0.788   5.338   5.128  1.4691 -0.4863 -0.1609
  105OSM   H18U10659   0.700   5.197   5.204  0.3116 -1.4460 -0.9579
  105OSM    C1F10660   0.724   5.993   6.760  0.1239  0.1882  0.5696
  105OSM     OF10661   0.846   5.983   6.737  0.3306  0.3624 -0.1351
  105OSM    C2F10662   0.649   6.120   6.718 -0.7332 -0.4045 -0.4609
  105OSM    H2F10663   0.702   6.205   6.766  1.8364 -1.0358 -2.0018
  105OSM    H2G10664   0.548   6.111   6.764 -0.5195  0.7839  0.2806
  105OSM    C3F10665   0.635   6.139   6.561  0.0073 -0.0015 -0.2667
  105OSM    H3F10666   0.589   6.047   6.520  0.4993 -0.9861  1.3088
  105OSM    H3G10667   0.738   6.149   6.520 -0.3227 -0.0389 -1.1272
  105OSM    C4F10668   0.545   6.254   6.520 -0.2339  0.2243 -0.1046
  105OSM    H4F10669   0.585   6.333   6.586 -3.0897  1.2537  0.5182
  105OSM    H4G10670   0.436   6.239   6.537 -0.2708 -1.0892 -1.3116
  105OSM    C5F10671   0.565   6.302   6.376  0.5701  0.3629  0.6044
  105OSM    H5F10672   0.674   6.319   6.358  0.0578  1.0473 -2.2840
  105OSM    H5G10673   0.526   6.403   6.355 -0.7722 -0.5494 -1.7451
  105OSM    C6F10674   0.498   6.207   6.268 -0.2787 -0.0302 -0.4583
  105OSM    H6F10675   0.398   6.247   6.243 -0.2401  0.5663  0.3174
  105OSM    H6G10676   0.488   6.103   6.306  1.4862 -0.6677 -1.5987
  105OSM    C7F10677   0.585   6.209   6.137 -0.3178 -0.3197 -0.7822
  105OSM    H7F10678   0.555   6.132   6.063 -0.5663 -0.6314 -0.3685
  105OSM    H7G10679   0.688   6.182   6.169 -0.0240 -1.2265 -2.4159
  105OSM    C8F10680   0.586   6.345   6.073 -0.0837 -0.7864 -0.2743
  105OSM    H8F10681   0.601   6.420   6.153  1.6267 -0.7983 -0.5284
  105OSM    H8G10682   0.483   6.357   6.034 -0.0234 -3.5129 -1.5266
  105OSM    C9F10683   0.700   6.360   5.969 -0.0126 -0.1954 -0.9022
  105OSM    H9F10684   0.789   6.415   6.003 -0.4604 -0.1474  0.2608
  105OSM   C10F10685   0.685   6.331   5.837 -0.3866  0.1842  0.5104
  105OSM   H10F10686   0.760   6.360   5.762 -2.3514  0.1000 -1.5839
  105OSM   C11F10687   0.561   6.272   5.779 -0.3816 -0.1661 -0.0814
  105OSM   H11F10688   0.492   6.357   5.757  1.2703  1.2181 -0.1064
  105OSM   H11G10689   0.509   6.196   5.841  0.4537 -1.0663 -0.4614
  105OSM   C12F10690   0.586   6.190   5.647 -0.6768 -0.2378 -0.3791
  105OSM   H12F10691   0.609   6.086   5.680 -0.9054 -0.9186 -2.2800
  105OSM   H12G10692   0.667   6.235   5.587  0.3318  1.0615  1.8216
  105OSM   C13F10693   0.458   6.167   5.565 -0.1475  0.3074 -0.0919
  105OSM   H13F10694   0.389   6.253   5.551 -1.6680 -0.5747  1.6724
  105OSM   H13G10695   0.395   6.091   5.615 -1.0920  0.7686 -0.5687
  105OSM   C14F10696   0.482   6.120   5.420 -0.3602  0.3448  0.1162
  105OSM   H14F10697   0.381   6.099   5.379  1.0049 -2.4052 -2.2321
  105OSM   H14G10698   0.547   6.030   5.408  1.5213  1.8287 -1.4723
  105OSM   C15F10699   0.533   6.236   5.332  0.0181  0.3889  0.2398
  105OSM   H15F10700   0.643   6.227   5.334 -0.0522 -0.5282  1.8757
  105OSM   H15G10701   0.504   6.334   5.376 -0.7617  0.3974 -0.2756
  105OSM   C16F10702   0.484   6.227   5.186 -0.4548 -0.6055 -0.2267
  105OSM   H16F10703   0.376   6.199   5.196 -0.2811 -0.9057  0.9037
  105OSM   H16G10704   0.548   6.152   5.134  3.0592 -0.1604  2.9999
  105OSM   C17F10705   0.482   6.361   5.104  0.3867 -0.0629  0.3275
  105OSM   H17F10706   0.583   6.397   5.075 -0.5691  1.6599 -1.0776
  105OSM   H17G10707   0.428   6.443   5.158 -0.9598 -1.4275  1.1267
  105OSM   C18F10708   0.424   6.332   4.966 -0.4695 -0.1192  0.2250
  105OSM   H18F10709   0.414   6.429   4.912 -2.7600 -1.5645 -2.1871
  105OSM   H18G10710   0.319   6.297   4.960 -0.9106  1.2895 -0.8297
  105OSM   H18H10711   0.490   6.261   4.911  0.6848  0.4579  0.8357
  106OSM      N10712   4.893   3.445   6.949  0.0296 -0.1277 -1.1409
  106OSM    C1510713   4.844   3.563   7.042  0.4229 -0.0314 -0.0516
  106OSM   H15A10714   4.779   3.520   7.117  2.1295 -0.7475  1.0924
  106OSM   H15B10715   4.792   3.641   6.988  0.4597 -0.3815 -0.6107
  106OSM   H15C10716   4.933   3.602   7.088  0.6343 -0.3711 -0.1620
  106OSM    C1410717   4.770   3.367   6.910  0.8306  0.0749 -0.1280
  106OSM   H14A10718   4.700   3.444   6.881 -0.7942 -1.7912 -1.5102
  106OSM   H14B10719   4.733   3.313   6.996  0.4870 -0.0302 -0.3385
  106OSM   H14C10720   4.768   3.299   6.826  0.0495  0.7302 -0.6544
  106OSM    C1310721   4.967   3.495   6.831  0.6162  0.1506 -0.2944
  106OSM   H13A10722   5.004   3.595   6.850 -2.1852  1.2503 -0.0086
  106OSM   H13B10723   4.903   3.511   6.745  0.7402  2.9753  0.0217
  106OSM   H13C10724   5.051   3.432   6.810  0.7638  0.4174 -0.5138
  106OSM    C1210725   4.988   3.356   7.035  0.2100 -0.0147 -0.6623
  106OSM   H12A10726   5.075   3.414   7.062 -0.1162  0.8178 -1.3343
  106OSM   H12B10727   5.022   3.266   6.988  0.6275 -1.2383  1.8418
  106OSM    C1110728   4.942   3.309   7.176  0.0434 -0.5845  0.1415
  106OSM   H11A10729   4.911   3.392   7.242  0.0430  0.1984 -0.8228
  106OSM   H11B10730   5.021   3.256   7.234  0.1582 -1.4825 -0.7802
  106OSM      P10731   4.861   3.063   7.126 -0.4223 -0.3948 -0.1527
  106OSM    O1310732   4.940   2.992   7.228  0.3434 -0.1964 -0.4495
  106OSM    O1410733   4.731   2.997   7.097  0.1882  0.4345 -0.3036
  106OSM    O1110734   4.964   3.075   7.002  0.5861 -0.1719 -0.8488
  106OSM    O1210735   4.840   3.217   7.167 -0.0469  0.0886  0.2014
  106OSM    C1S10736   4.916   3.021   6.884  0.8453 -0.0202  0.1706
  106OSM    H1S10737   4.830   3.080   6.845  1.7579  1.3283  0.1134
  106OSM    H1T10738   4.893   2.912   6.886 -0.3692  0.2304  0.8130
  106OSM     NF10739   4.973   3.019   6.653 -0.0907 -0.1932 -0.1019
  106OSM    HNF10740   4.979   2.928   6.613  1.6068 -0.8865  1.5826
  106OSM    C2S10741   5.034   3.026   6.788 -0.3116  0.4412 -0.0748
  106OSM    H2S10742   5.075   3.129   6.779 -0.7273  0.7241  1.1250
  106OSM    C3S10743   5.139   2.922   6.832  0.3890 -0.2679  0.3020
  106OSM    H3S10744   5.093   2.820   6.836 -0.3602  0.0836  0.8850
  106OSM     O310745   5.193   2.933   6.962  0.6031  0.2190  0.1780
  106OSM    HO310746   5.121   2.980   7.007 -0.9467 -1.7009 -0.1674
  106OSM    C4S10747   5.242   2.920   6.719 -0.0481  0.2053  0.4932
  106OSM    H4S10748   5.329   2.983   6.743 -0.1717  0.8453 -0.6402
  106OSM    C5S10749   5.241   2.825   6.619 -0.7024 -0.3332  0.1334
  106OSM    H5S10750   5.157   2.754   6.622 -1.0555  0.0866  0.3801
  106OSM    C6S10751   5.346   2.799   6.507 -0.2107 -0.5983  0.3555
  106OSM    H6S10752   5.402   2.703   6.508  1.3590  0.2710 -0.6332
  106OSM    H6T10753   5.418   2.882   6.520 -1.9300  1.2205 -1.0596
  106OSM    C7S10754   5.280   2.814   6.360 -0.1652  0.4668 -0.2103
  106OSM    H7S10755   5.229   2.912   6.349 -2.6437 -0.4184  2.3072
  106OSM    H7T10756   5.209   2.729   6.352 -2.3179  2.2402 -1.2821
  106OSM    C8S10757   5.384   2.801   6.242  0.2097 -0.4728 -0.8866
  106OSM    H8S10758   5.398   2.693   6.219 -0.4210 -0.5355 -0.9855
  106OSM    H8T10759   5.477   2.858   6.266 -0.9182  0.1171  2.7476
  106OSM    C9S10760   5.324   2.869   6.110 -0.7407 -0.2305  0.1054
  106OSM    H9S10761   5.308   2.978   6.124 -0.0114 -0.1888  0.6846
  106OSM    H9T10762   5.227   2.822   6.083 -0.6411 -1.1039  1.1851
  106OSM   C10S10763   5.423   2.844   5.989  0.0849  0.1419  0.0928
  106OSM   H10S10764   5.479   2.748   5.993  2.1484  1.3118  0.6346
  106OSM   H10T10765   5.498   2.924   6.007  0.3475 -0.1029  0.0884
  106OSM   C11S10766   5.359   2.865   5.853  0.1781  0.0501 -0.3958
  106OSM   H11S10767   5.302   2.960   5.853 -3.1941 -1.7817 -2.6913
  106OSM   H11T10768   5.288   2.783   5.828 -0.9063  1.0728 -0.7568
  106OSM   C12S10769   5.481   2.877   5.748  0.2803 -0.1766  0.7839
  106OSM   H12S10770   5.528   2.777   5.732  0.1344 -0.0256 -0.6805
  106OSM   H12T10771   5.551   2.941   5.805  1.2518 -0.2392 -0.3014
  106OSM   C13S10772   5.442   2.953   5.618 -0.3338  0.3619  0.2861
  106OSM   H13S10773   5.362   3.028   5.634  1.5251  3.1428 -2.2269
  106OSM   H13T10774   5.406   2.882   5.540 -0.5633  0.7347  0.0458
  106OSM   C14S10775   5.567   3.023   5.568 -0.1732 -0.0852  0.4125
  106OSM   H14S10776   5.637   2.961   5.508  0.4679  0.5613  0.4856
  106OSM   H14T10777   5.627   3.057   5.655  0.1823  3.2856 -1.0190
  106OSM   C15S10778   5.523   3.140   5.473  0.2525 -0.7239 -0.3280
  106OSM   H15S10779   5.596   3.223   5.487  2.8247 -2.8178 -0.4442
  106OSM   H15T10780   5.437   3.190   5.521  0.0890 -2.2610  1.0603
  106OSM   C16S10781   5.514   3.098   5.326 -0.4694 -0.7823  0.7642
  106OSM   H16S10782   5.424   3.043   5.292  1.3799 -2.6193 -1.4673
  106OSM   H16T10783   5.597   3.028   5.301 -0.4111  0.1875 -2.0650
  106OSM   C17S10784   5.542   3.220   5.232  0.5494  0.6496 -0.0098
  106OSM   H17S10785   5.631   3.281   5.260  0.7118  1.2705 -1.7927
  106OSM   H17T10786   5.458   3.290   5.250  1.0392  0.9016  1.4118
  106OSM   C18S10787   5.543   3.184   5.092 -0.3513  0.6997 -0.1818
  106OSM   H18S10788   5.448   3.141   5.053  0.5829  0.0023 -1.8149
  106OSM   H18T10789   5.621   3.106   5.075 -0.3598  0.9122 -1.3022
  106OSM   H18U10790   5.559   3.269   5.021  1.8213 -0.2053 -0.8731
  106OSM    C1F10791   4.905   3.119   6.594  1.1153  0.6209 -0.0814
  106OSM     OF10792   4.871   3.224   6.643 -0.4419  0.2512 -0.1131
  106OSM    C2F10793   4.842   3.075   6.457 -0.3512  0.3004  0.6817
  106OSM    H2F10794   4.763   3.147   6.427  0.3957 -0.1475 -2.8485
  106OSM    H2G10795   4.803   2.976   6.488 -0.7180 -0.0261 -0.7406
  106OSM    C3F10796   4.951   3.067   6.344  0.0717  0.7185 -0.0724
  106OSM    H3F10797   5.020   2.983   6.364  2.1013  2.1420 -0.7189
  106OSM    H3G10798   5.010   3.161   6.342 -1.3513  1.6303 -1.0847
  106OSM    C4F10799   4.899   3.057   6.198  0.2441 -0.4252 -1.1819
  106OSM    H4F10800   4.829   3.142   6.186 -0.9416 -0.9015  1.5071
  106OSM    H4G10801   4.853   2.956   6.196  1.7806 -1.3174  1.8197
  106OSM    C5F10802   5.000   3.073   6.092  0.7548  0.2585 -0.0854
  106OSM    H5F10803   5.078   2.994   6.101 -0.3143 -0.7903  0.3302
  106OSM    H5G10804   5.034   3.177   6.110 -3.1739  1.8902 -0.9274
  106OSM    C6F10805   4.941   3.065   5.950 -0.0429 -0.5192  0.4926
  106OSM    H6F10806   4.842   3.115   5.939  0.6986  1.2354  1.4407
  106OSM    H6G10807   4.921   2.959   5.923  1.8564 -1.4923  2.5208
  106OSM    C7F10808   5.027   3.129   5.840  0.2974 -0.2376 -0.4881
  106OSM    H7F10809   5.123   3.074   5.836  0.4291  0.0038 -0.6791
  106OSM    H7G10810   5.054   3.232   5.871 -0.8130 -0.7126  2.3267
  106OSM    C8F10811   4.970   3.129   5.700  0.2355 -0.1646 -0.4315
  106OSM    H8F10812   4.867   3.171   5.706  0.6486  0.9710 -0.9254
  106OSM    H8G10813   4.953   3.024   5.667 -1.5367 -0.5619  1.5198
  106OSM    C9F10814   5.045   3.197   5.599 -0.8170  0.3079  0.5142
  106OSM    H9F10815   5.148   3.159   5.586 -0.4698  1.6175 -0.8885
  106OSM   C10F10816   5.001   3.283   5.501  0.8862  0.5061 -0.4666
  106OSM   H10F10817   5.074   3.330   5.434  0.1749  1.7261 -0.4183
  106OSM   C11F10818   4.861   3.335   5.478 -0.9024 -0.4753 -0.0738
  106OSM   H11F10819   4.780   3.279   5.529 -1.7488  0.9351  0.1715
  106OSM   H11G10820   4.839   3.329   5.369 -0.4648 -2.3534 -0.1063
  106OSM   C12F10821   4.851   3.494   5.493 -0.1219  0.3964  0.9417
  106OSM   H12F10822   4.868   3.525   5.598  1.8254 -1.6891  1.3292
  106OSM   H12G10823   4.751   3.522   5.453  1.0196  0.5205 -2.1217
  106OSM   C13F10824   4.958   3.569   5.400 -0.2174  0.1976 -0.2146
  106OSM   H13F10825   4.973   3.513   5.305  3.4139  0.3939  0.0906
  106OSM   H13G10826   5.051   3.560   5.460 -0.4423  2.3771  0.5279
  106OSM   C14F10827   4.936   3.713   5.379 -0.5643 -0.5044 -0.3800
  106OSM   H14F10828   4.910   3.751   5.480 -0.9179  0.3808 -0.7981
  106OSM   H14G10829   4.845   3.732   5.319 -1.6890 -0.6154  1.2314
  106OSM   C15F10830   5.057   3.790   5.318 -0.5184  0.4035 -0.2426
  106OSM   H15F10831   5.102   3.736   5.232  2.3686 -0.0136  1.4301
  106OSM   H15G10832   5.131   3.811   5.398 -1.7415  2.5037  0.4332
  106OSM   C16F10833   5.011   3.928   5.254 -0.4061  1.1902  0.2911
  106OSM   H16F10834   4.974   3.996   5.334  0.7811  3.0344 -0.6544
  106OSM   H16G10835   4.931   3.916   5.178  0.2614  0.8789 -0.3808
  106OSM   C17F10836   5.132   4.004   5.188  0.8938  0.1775  0.1269
  106OSM   H17F10837   5.226   3.994   5.246  0.0639 -0.5319  1.3872
  106OSM   H17G10838   5.090   4.107   5.195 -0.6484 -0.5497  3.7988
  106OSM   C18F10839   5.162   3.966   5.044  0.2851 -0.2193 -0.5468
  106OSM   H18F10840   5.183   3.857   5.041  1.3743 -0.0401  0.2657
  106OSM   H18G10841   5.256   4.016   5.014  0.7170  1.2495  2.8377
  106OSM   H18H10842   5.073   3.999   4.986  0.1155  1.9341  0.8370
  107OSM      N10843   4.857   1.980   7.349 -0.7173 -0.3900  0.1990
  107OSM    C1510844   4.884   1.991   7.487  0.4847  0.2486  0.4273
  107OSM   H15A10845   4.811   2.057   7.531 -0.0590 -0.4504  0.5806
  107OSM   H15B10846   4.980   2.039   7.499  2.8228 -4.1117  1.3845
  107OSM   H15C10847   4.874   1.899   7.543  3.2029 -0.6836 -0.4428
  107OSM    C1410848   4.712   1.968   7.317 -0.3007 -0.0787  0.5949
  107OSM   H14A10849   4.671   1.882   7.368 -0.0471 -2.1753 -2.4943
  107OSM   H14B10850   4.696   1.946   7.213 -0.4662  0.1230  0.5778
  107OSM   H14C10851   4.668   2.064   7.340  1.2543  1.8029 -3.3403
  107OSM    C1310852   4.903   2.108   7.287  0.2772 -0.2271 -0.0083
  107OSM   H13A10853   5.009   2.127   7.291 -0.1146  2.3245  0.8227
  107OSM   H13B10854   4.855   2.195   7.330  1.7257  0.3515  0.4829
  107OSM   H13C10855   4.871   2.112   7.184 -1.2252 -1.7623  0.3530
  107OSM    C1210856   4.936   1.864   7.292  0.0338 -0.5309  0.2871
  107OSM   H12A10857   4.934   1.771   7.346  1.0787  0.1616  1.5676
  107OSM   H12B10858   5.039   1.893   7.306 -0.7603  2.6095  0.3852
  107OSM    C1110859   4.921   1.841   7.140 -0.2237 -0.6616  0.1796
  107OSM   H11A10860   4.812   1.828   7.122 -0.7283  1.5909  1.2012
  107OSM   H11B10861   4.974   1.748   7.112  0.0579 -0.9393  1.5413
  107OSM      P10862   5.130   1.973   7.057  0.3386  0.2403 -0.1040
  107OSM    O1310863   5.174   2.095   7.123  0.5098 -0.1871 -0.5117
  107OSM    O1410864   5.207   1.848   7.086 -0.3431 -0.6792  0.1410
  107OSM    O1110865   5.160   1.998   6.901  0.0161  0.8678  0.6143
  107OSM    O1210866   4.972   1.952   7.065 -0.3329 -0.3811 -0.3570
  107OSM    C1S10867   5.117   2.121   6.852 -0.5448  0.4505  0.0165
  107OSM    H1S10868   5.195   2.191   6.888  0.5411 -0.5845 -0.2818
  107OSM    H1T10869   5.019   2.157   6.891 -0.8827 -0.9055  0.4543
  107OSM     NF10870   5.098   2.248   6.644 -0.2635  0.3731  0.3280
  107OSM    HNF10871   5.012   2.293   6.624 -1.6761 -1.9029  0.8955
  107OSM    C2S10872   5.108   2.113   6.698 -0.1664 -0.1905 -0.5444
  107OSM    H2S10873   5.202   2.069   6.659 -0.2632  1.0530 -2.3256
  107OSM    C3S10874   4.990   2.027   6.651  0.4925  0.2966  0.2692
  107OSM    H3S10875   4.895   2.068   6.689  1.1809  1.2002  1.0595
  107OSM     O310876   5.004   1.899   6.710 -0.7373 -0.6094  0.1183
  107OSM    HO310877   5.058   1.917   6.788 -2.5177 -1.6984  1.7127
  107OSM    C4S10878   5.002   2.024   6.498 -0.9554 -0.2673 -0.1367
  107OSM    H4S10879   4.992   2.123   6.451  1.2126 -0.1948 -0.5267
  107OSM    C5S10880   5.036   1.914   6.427  0.0327  0.0016  0.5277
  107OSM    H5S10881   5.054   1.827   6.491  0.9482 -0.4554 -0.3112
  107OSM    C6S10882   5.069   1.895   6.285  0.4339  0.4793 -1.0469
  107OSM    H6S10883   5.015   1.804   6.253 -0.7974  1.4279 -1.7219
  107OSM    H6T10884   5.178   1.870   6.286  0.7775  1.5308  2.4615
  107OSM    C7S10885   5.031   2.014   6.201  0.3333  0.1869  0.2855
  107OSM    H7S10886   5.089   2.106   6.224  2.0730 -0.5478 -0.9167
  107OSM    H7T10887   4.922   2.029   6.217  0.1747  1.1920 -1.5145
  107OSM    C8S10888   5.048   1.979   6.057  0.0603  0.0555  0.9283
  107OSM    H8S10889   4.975   1.902   6.023  0.0214  1.1994 -1.7930
  107OSM    H8T10890   5.147   1.934   6.036  0.2157  1.4141 -1.4919
  107OSM    C9S10891   5.023   2.091   5.962 -0.1456 -0.4644 -0.3716
  107OSM    H9S10892   5.101   2.169   5.979  0.0780 -0.7780  0.0525
  107OSM    H9T10893   4.923   2.137   5.978  0.6572  1.9631 -1.6746
  107OSM   C10S10894   5.038   2.043   5.816  0.3669 -0.3313 -0.3696
  107OSM   H10S10895   4.959   1.970   5.788 -0.8162  1.6995 -2.6143
  107OSM   H10T10896   5.140   1.997   5.817  0.8666  0.7240 -1.1746
  107OSM   C11S10897   5.028   2.168   5.723  0.5119 -0.0091  0.4930
  107OSM   H11S10898   5.100   2.247   5.753 -1.9286  3.0197 -1.0976
  107OSM   H11T10899   4.926   2.210   5.735 -0.0007 -1.1507  0.2749
  107OSM   C12S10900   5.032   2.124   5.580  0.4217  0.2275 -0.4519
  107OSM   H12S10901   5.002   2.018   5.584  0.2200  0.2945 -0.1235
  107OSM   H12T10902   5.136   2.121   5.541  1.0955  1.5547  1.1126
  107OSM   C13S10903   4.934   2.194   5.478  0.4735 -0.2822  0.4012
  107OSM   H13S10904   4.931   2.304   5.491 -0.8299  0.5321 -4.6298
  107OSM   H13T10905   4.839   2.154   5.518  0.3593 -1.2002 -0.7370
  107OSM   C14S10906   4.953   2.151   5.336 -0.4281  0.4476 -0.2839
  107OSM   H14S10907   4.967   2.041   5.337  2.8455  0.7686  1.5762
  107OSM   H14T10908   5.045   2.203   5.301  0.5782 -0.4588  0.9336
  107OSM   C15S10909   4.826   2.183   5.260 -0.5836  0.3698 -0.5965
  107OSM   H15S10910   4.802   2.292   5.265 -2.9181 -0.0987 -0.2073
  107OSM   H15T10911   4.757   2.113   5.311  1.0181 -0.9217 -0.1333
  107OSM   C16S10912   4.823   2.129   5.120  1.0890 -0.1845  0.1135
  107OSM   H16S10913   4.854   2.023   5.119  1.6394 -0.0381  0.8522
  107OSM   H16T10914   4.890   2.183   5.051  1.3848  1.6404  1.7277
  107OSM   C17S10915   4.677   2.136   5.061 -0.2279  0.2000 -0.4880
  107OSM   H17S10916   4.638   2.238   5.082  1.9911  0.9356  0.2209
  107OSM   H17T10917   4.602   2.072   5.112 -1.4125 -0.2605 -2.6613
  107OSM   C18S10918   4.683   2.089   4.917  0.2898 -0.0326  0.1575
  107OSM   H18S10919   4.582   2.089   4.871  1.2749 -0.8698 -2.1725
  107OSM   H18T10920   4.738   1.994   4.902  0.6094  0.5269 -2.8086
  107OSM   H18U10921   4.739   2.168   4.862  2.2192 -0.7363  1.0287
  107OSM    C1F10922   5.209   2.317   6.637 -0.4635 -0.1077  0.5628
  107OSM     OF10923   5.312   2.271   6.675  0.1035 -0.6684  0.3741
  107OSM    C2F10924   5.211   2.450   6.567  0.1900 -0.5958  0.2058
  107OSM    H2F10925   5.270   2.521   6.628 -1.2420  0.8305 -0.0233
  107OSM    H2G10926   5.110   2.495   6.567 -0.8948 -2.8424  1.5997
  107OSM    C3F10927   5.289   2.439   6.430 -1.0471  0.0131  0.4172
  107OSM    H3F10928   5.378   2.376   6.450  0.4336  1.5897 -0.8764
  107OSM    H3G10929   5.322   2.543   6.410 -1.5248  0.4074  1.5629
  107OSM    C4F10930   5.199   2.380   6.320  0.8474  0.2728  0.0469
  107OSM    H4F10931   5.124   2.458   6.295  0.3440  0.0518  0.8505
  107OSM    H4G10932   5.148   2.290   6.359  1.7383  0.0687  0.7879
  107OSM    C5F10933   5.274   2.345   6.193 -0.5337 -0.2747  0.3348
  107OSM    H5F10934   5.253   2.237   6.176 -1.2269 -0.1818  0.5634
  107OSM    H5G10935   5.383   2.358   6.209 -0.7006  0.2377  1.1497
  107OSM    C6F10936   5.230   2.420   6.068  0.3654  0.6102 -0.3386
  107OSM    H6F10937   5.247   2.528   6.088  1.1764  0.5119 -0.4711
  107OSM    H6G10938   5.122   2.396   6.055  0.6256 -0.2246 -1.0586
  107OSM    C7F10939   5.311   2.374   5.941  0.1539  0.8877 -0.0564
  107OSM    H7F10940   5.275   2.277   5.901 -2.6248  2.5195 -1.8197
  107OSM    H7G10941   5.416   2.345   5.965  0.8070  1.7019 -1.7552
  107OSM    C8F10942   5.316   2.478   5.826  0.8491  0.0413  0.3303
  107OSM    H8F10943   5.375   2.559   5.874 -0.6814  1.3196  0.1401
  107OSM    H8G10944   5.212   2.515   5.813  1.2404  0.9674 -0.1907
  107OSM    C9F10945   5.382   2.430   5.697 -0.0842 -0.2854 -0.8162
  107OSM    H9F10946   5.490   2.420   5.712 -0.1285  1.0033  0.5485
  107OSM   C10F10947   5.327   2.438   5.578  0.0469 -0.1959  0.6074
  107OSM   H10F10948   5.382   2.408   5.488  1.7881  1.9666  0.8570
  107OSM   C11F10949   5.180   2.458   5.552  0.2991  0.6286  0.0222
  107OSM   H11F10950   5.140   2.545   5.606 -3.0607 -1.3864  1.0682
  107OSM   H11G10951   5.116   2.372   5.580  1.6363 -0.3862  0.1116
  107OSM   C12F10952   5.174   2.475   5.401  0.3543  0.2619  0.2857
  107OSM   H12F10953   5.068   2.455   5.374 -0.5635  1.0916  2.9883
  107OSM   H12G10954   5.225   2.390   5.351  0.9070  1.1146 -0.6553
  107OSM   C13F10955   5.202   2.615   5.346 -0.1544 -0.0112 -0.5837
  107OSM   H13F10956   5.310   2.638   5.357 -0.0885 -0.1950 -0.8324
  107OSM   H13G10957   5.154   2.699   5.401  0.0611  0.6552 -1.3950
  107OSM   C14F10958   5.165   2.635   5.199  1.0203 -0.2605  0.0352
  107OSM   H14F10959   5.070   2.581   5.177  0.7948 -0.3661  1.1988
  107OSM   H14G10960   5.239   2.579   5.138 -0.2926 -2.1707  0.0878
  107OSM   C15F10961   5.154   2.780   5.151  0.2823 -0.3190  0.0470
  107OSM   H15F10962   5.151   2.777   5.040  0.4147  0.1527  0.0266
  107OSM   H15G10963   5.249   2.835   5.172  0.2011  0.6640 -1.8975
  107OSM   C16F10964   5.032   2.865   5.192  0.2519 -0.0783  1.0057
  107OSM   H16F10965   5.014   2.854   5.301 -1.1621  0.1101  0.8099
  107OSM   H16G10966   4.945   2.819   5.140 -0.3748 -0.0779  2.0209
  107OSM   C17F10967   5.038   3.010   5.147  0.5743  0.1002  0.9119
  107OSM   H17F10968   4.942   3.061   5.170  1.3602  1.3755  1.4701
  107OSM   H17G10969   5.037   3.003   5.036 -2.3511  2.7119  0.6342
  107OSM   C18F10970   5.155   3.099   5.184 -0.2403  0.4175 -0.0076
  107OSM   H18F10971   5.141   3.189   5.122 -1.1483 -0.4718 -1.1473
  107OSM   H18G10972   5.250   3.047   5.159 -1.2682 -0.6812 -1.8712
  107OSM   H18H10973   5.148   3.122   5.292 -2.7273  1.6049 -0.3552
  108OSM      N10974   0.229   1.120   7.186 -0.3983  0.1102  0.0867
  108OSM    C1510975   0.378   1.142   7.203  0.1433  0.0145 -0.5773
  108OSM   H15A10976   0.411   1.204   7.285  2.9811 -0.1519 -1.4732
  108OSM   H15B10977   0.416   1.187   7.112  1.6675 -1.2300 -0.6033
  108OSM   H15C10978   0.418   1.043   7.217  0.0747  0.2054  1.1202
  108OSM    C1410979   0.213   1.005   7.090 -0.6667 -0.6950  0.0599
  108OSM   H14A10980   0.108   0.999   7.068 -1.2973  3.2771  1.1945
  108OSM   H14B10981   0.272   0.921   7.126 -0.9120  0.1937  2.7825
  108OSM   H14C10982   0.263   1.029   6.997 -3.0074 -0.0716 -1.0922
  108OSM    C1310983   0.175   1.074   7.321  0.5848 -0.0810 -0.6340
  108OSM   H13A10984   0.174   1.153   7.395  0.1135  0.6404 -1.3987
  108OSM   H13B10985   0.240   0.995   7.356 -0.0231 -1.3285 -2.2538
  108OSM   H13C10986   0.076   1.034   7.306 -0.1372  0.2938  2.3734
  108OSM    C1210987   0.161   1.242   7.131 -0.3212 -0.1283 -0.7100
  108OSM   H12A10988   0.188   1.324   7.196  0.9786 -0.2084 -1.1229
  108OSM   H12B10989   0.054   1.231   7.146 -0.5122 -0.4756 -2.1875
  108OSM    C1110990   0.186   1.282   6.984 -0.0069 -0.5307 -0.0671
  108OSM   H11A10991   0.141   1.377   6.948  1.2290  0.3470  0.5802
  108OSM   H11B10992   0.143   1.204   6.919 -2.2529  0.3386  0.2754
  108OSM      P10993   0.399   1.436   6.997 -0.1111  0.0077  0.0843
  108OSM    O1310994   0.331   1.510   7.100  0.7870 -0.4020  0.4742
  108OSM    O1410995   0.546   1.403   7.020  0.1268 -0.3284 -0.1023
  108OSM    O1110996   0.379   1.509   6.856  0.3600  0.7107  0.6530
  108OSM    O1210997   0.324   1.296   6.962 -0.3598 -0.8784 -0.2290
  108OSM    C1S10998   0.449   1.483   6.735  0.1264  0.4456  0.0392
  108OSM    H1S10999   0.545   1.434   6.762  1.0185  1.7767 -0.5844
  108OSM    H1T11000   0.479   1.577   6.683 -1.6562  1.6400  1.0504
  108OSM     NF11001   0.455   1.349   6.524 -0.1482  0.6129  0.0598
  108OSM    HNF11002   0.462   1.404   6.442 -0.4750 -0.9219 -1.0328
  108OSM    C2S11003   0.370   1.401   6.636 -0.8164  0.1278  0.4606
  108OSM    H2S11004   0.328   1.312   6.688 -1.9993  0.4482  0.0831
  108OSM    C3S11005   0.246   1.491   6.596 -0.5463  0.0843 -0.6190
  108OSM    H3S11006   0.292   1.582   6.551 -0.6200 -0.1188 -1.1185
  108OSM     O311007   0.168   1.532   6.706 -0.3955 -0.3233 -0.4633
  108OSM    HO311008   0.230   1.508   6.775 -0.4349  1.8366  0.4331
  108OSM    C4S11009   0.167   1.418   6.491 -0.6256 -0.7046  0.3996
  108OSM    H4S11010   0.159   1.476   6.398 -1.1212 -0.7163  0.4308
  108OSM    C5S11011   0.118   1.290   6.501 -0.5027 -0.3320 -0.4255
  108OSM    H5S11012   0.137   1.231   6.593 -1.5304  2.2669  1.5865
  108OSM    C6S11013   0.050   1.215   6.389  0.2912 -0.3535 -0.4834
  108OSM    H6S11014  -0.058   1.194   6.406  0.3543  0.3851  0.9605
  108OSM    H6T11015   0.096   1.114   6.396  0.6255 -0.0932  2.6190
  108OSM    C7S11016   0.056   1.268   6.242 -0.8786 -0.4780 -0.9554
  108OSM    H7S11017   0.163   1.291   6.221 -0.4251 -2.2739 -0.7430
  108OSM    H7T11018   0.008   1.368   6.235  2.9244  1.4944 -1.3103
  108OSM    C8S11019   0.006   1.173   6.133  0.0827  0.4886  0.2233
  108OSM    H8S11020  -0.093   1.134   6.164  0.5866  0.0270  1.2959
  108OSM    H8T11021   0.070   1.083   6.138 -0.0675  0.4409  1.9583
  108OSM    C9S11022   0.002   1.224   5.995 -0.0940  0.3226  0.3467
  108OSM    H9S11023   0.100   1.254   5.951 -1.0426  2.9816 -0.1756
  108OSM    H9T11024  -0.061   1.316   5.990  0.7573  0.8326 -1.5637
  108OSM   C10S11025  -0.053   1.123   5.890 -0.5816  0.4834 -0.9828
  108OSM   H10S11026  -0.163   1.116   5.899 -0.4509 -0.7977 -0.0526
  108OSM   H10T11027  -0.010   1.026   5.924 -0.1301  0.8326 -0.5424
  108OSM   C11S11028  -0.028   1.172   5.743  0.6406 -0.2692  0.9744
  108OSM   H11S11029   0.075   1.213   5.742  0.2565  0.7539  1.9772
  108OSM   H11T11030  -0.094   1.259   5.725 -0.1237 -1.0635 -0.2457
  108OSM   C12S11031  -0.047   1.074   5.624  0.8904  0.1490 -0.0999
  108OSM   H12S11032  -0.155   1.049   5.624  0.6342  1.1806  0.4561
  108OSM   H12T11033   0.013   0.986   5.656 -1.3661 -1.5080 -0.2664
  108OSM   C13S11034  -0.009   1.127   5.485  0.2944  0.1494 -0.6018
  108OSM   H13S11035   0.100   1.147   5.484  0.1897  0.7156 -1.0197
  108OSM   H13T11036  -0.059   1.226   5.476  0.3693  0.4045  1.4654
  108OSM   C14S11037  -0.043   1.030   5.373 -0.7300  0.2265 -0.5953
  108OSM   H14S11038  -0.038   1.088   5.279 -2.5051 -0.5840 -1.2366
  108OSM   H14T11039  -0.143   0.983   5.385 -0.8951 -0.5994 -4.1519
  108OSM   C15S11040   0.055   0.913   5.369 -0.5437  0.5091 -0.5441
  108OSM   H15S11041   0.060   0.856   5.464 -0.5527 -3.4914 -2.7043
  108OSM   H15T11042   0.156   0.927   5.324 -0.2215 -0.9292 -0.3123
  108OSM   C16S11043  -0.007   0.816   5.270 -0.3031  0.3992  0.0213
  108OSM   H16S11044  -0.040   0.874   5.181  1.4765  2.1701  0.4418
  108OSM   H16T11045  -0.093   0.765   5.318 -0.5219 -0.0959 -0.8702
  108OSM   C17S11046   0.092   0.698   5.228  0.7252 -0.4614 -0.1763
  108OSM   H17S11047   0.140   0.658   5.320  0.1947  0.4649  0.5279
  108OSM   H17T11048   0.177   0.750   5.179 -0.4277  2.6187  0.7974
  108OSM   C18S11049   0.034   0.579   5.157 -0.6209  0.0445 -0.0067
  108OSM   H18S11050  -0.017   0.601   5.061 -0.2064  3.2091  0.3894
  108OSM   H18T11051  -0.044   0.534   5.223 -1.0946  1.2702  0.2903
  108OSM   H18U11052   0.119   0.511   5.135  0.1657  0.4257  1.7000
  108OSM    C1F11053   0.536   1.245   6.552 -1.1401 -0.1741 -0.0793
  108OSM     OF11054   0.517   1.176   6.649 -0.1375  0.1869  0.3107
  108OSM    C2F11055   0.658   1.230   6.468 -0.1391  0.2472 -0.3219
  108OSM    H2F11056   0.664   1.326   6.413 -0.2941 -0.1304 -1.0070
  108OSM    H2G11057   0.637   1.149   6.395 -1.9018  0.4239 -0.0577
  108OSM    C3F11058   0.777   1.199   6.554  0.1145  0.2529  0.8897
  108OSM    H3F11059   0.767   1.116   6.628 -0.0156 -1.3122 -0.8104
  108OSM    H3G11060   0.811   1.290   6.609  1.3098 -0.3897  1.2476
  108OSM    C4F11061   0.896   1.160   6.465  0.0128  0.1279  0.5239
  108OSM    H4F11062   0.983   1.136   6.530  0.1528  1.8079  1.0018
  108OSM    H4G11063   0.930   1.241   6.397 -0.4382 -1.4351 -1.6596
  108OSM    C5F11064   0.873   1.043   6.375  0.0195  0.1835  0.2597
  108OSM    H5F11065   0.837   1.083   6.278 -2.9975 -1.8210  0.4217
  108OSM    H5G11066   0.803   0.982   6.437  0.6764 -0.7362  0.1154
  108OSM    C6F11067   0.999   0.950   6.360 -0.1477  0.0362 -0.2464
  108OSM    H6F11068   0.953   0.864   6.306 -3.7726  0.1885  2.1977
  108OSM    H6G11069   1.030   0.925   6.464 -1.0069  1.3549  0.3476
  108OSM    C7F11070   1.114   1.021   6.281  0.5559  0.0281  0.3374
  108OSM    H7F11071   1.170   1.091   6.347  1.9478 -1.4951  0.8386
  108OSM    H7G11072   1.076   1.071   6.189  1.9449  2.8916  1.1848
  108OSM    C8F11073   1.232   0.922   6.236 -0.3600  0.2073 -0.4432
  108OSM    H8F11074   1.246   0.863   6.329 -0.4070  1.0171  0.0911
  108OSM    H8G11075   1.325   0.980   6.217  0.9996 -1.2625  1.4285
  108OSM    C9F11076   1.195   0.822   6.128 -0.6506  0.3602  0.5694
  108OSM    H9F11077   1.132   0.744   6.173  1.1579 -0.8174  1.1504
  108OSM   C10F11078   1.233   0.812   5.998 -0.8168  0.3677  0.1736
  108OSM   H10F11079   1.205   0.729   5.931  0.9421 -0.9652  0.9921
  108OSM   C11F11080   1.332   0.910   5.943 -0.2130  0.0337 -0.9069
  108OSM   H11F11081   1.419   0.850   5.909 -1.0372 -1.1422 -0.9751
  108OSM   H11G11082   1.372   0.972   6.027  1.3494 -0.9817 -0.8728
  108OSM   C12F11083   1.275   1.002   5.841 -0.0165 -0.1983 -0.4103
  108OSM   H12F11084   1.342   1.090   5.837  0.3673 -0.3204  1.9370
  108OSM   H12G11085   1.171   1.036   5.863 -1.1255 -2.5853 -1.5081
  108OSM   C13F11086   1.262   0.930   5.701 -0.0463 -0.2173 -0.0808
  108OSM   H13F11087   1.199   0.839   5.714  0.6407 -0.7407 -0.3155
  108OSM   H13G11088   1.368   0.903   5.684  0.4408 -0.5943  3.1011
  108OSM   C14F11089   1.207   1.014   5.581 -0.2103 -0.1329 -0.2373
  108OSM   H14F11090   1.272   1.100   5.554 -2.9031  2.8783  2.1109
  108OSM   H14G11091   1.113   1.054   5.624  1.2053  1.3749  1.6031
  108OSM   C15F11092   1.174   0.924   5.458  0.1872 -0.0905 -0.5964
  108OSM   H15F11093   1.095   0.858   5.498  2.2226 -1.3350  1.6271
  108OSM   H15G11094   1.268   0.873   5.427  0.6705  1.1903 -1.3552
  108OSM   C16F11095   1.111   1.003   5.344 -0.0625  0.5069  0.0675
  108OSM   H16F11096   1.189   1.074   5.309 -1.0755 -0.3909 -4.7115
  108OSM   H16G11097   1.023   1.057   5.384 -0.5180 -0.0294 -0.1940
  108OSM   C17F11098   1.051   0.923   5.228 -0.2902 -0.3924  0.0432
  108OSM   H17F11099   1.120   0.843   5.191  0.7985  0.7618 -0.4940
  108OSM   H17G11100   1.027   0.994   5.147  2.2901  1.1313  0.5059
  108OSM   C18F11101   0.921   0.853   5.268 -0.4268  0.4391  0.4918
  108OSM   H18F11102   0.895   0.778   5.191 -0.6309  2.1945 -1.2127
  108OSM   H18G11103   0.841   0.930   5.260  0.7453  1.6364 -0.1543
  108OSM   H18H11104   0.922   0.817   5.373 -3.1220 -0.9942  0.1029
  109OSM      N11105   4.583   4.158   7.149  0.8598 -0.2311  0.1578
  109OSM    C1511106   4.696   4.145   7.055  0.6422  0.1928 -0.2751
  109OSM   H15A11107   4.762   4.230   7.066  0.0686  0.7999 -1.3798
  109OSM   H15B11108   4.659   4.150   6.954  1.0910 -0.0085 -0.4542
  109OSM   H15C11109   4.740   4.046   7.059 -4.3948 -2.5742 -3.2667
  109OSM    C1411110   4.654   4.169   7.276  0.4233  0.0910 -0.2532
  109OSM   H14A11111   4.730   4.246   7.269  0.6067 -0.1446 -0.9414
  109OSM   H14B11112   4.704   4.079   7.310  1.4186  0.4225 -0.8030
  109OSM   H14C11113   4.580   4.193   7.350  0.2561  0.6712 -0.6036
  109OSM    C1311114   4.514   4.280   7.114 -0.3017  0.3893  0.3613
  109OSM   H13A11115   4.455   4.311   7.199  0.2739  1.5983  0.3421
  109OSM   H13B11116   4.449   4.262   7.030  2.9788  0.6176 -2.4312
  109OSM   H13C11117   4.590   4.348   7.078 -1.0353 -0.6152 -3.6166
  109OSM    C1211118   4.491   4.042   7.162 -0.1921  0.4254 -0.4626
  109OSM   H12A11119   4.549   3.960   7.204  0.7126  0.0851 -2.3021
  109OSM   H12B11120   4.464   4.006   7.064  0.6092  1.3962 -1.0483
  109OSM    C1111121   4.365   4.064   7.238  0.0731 -0.4691  0.8154
  109OSM   H11A11122   4.397   4.125   7.325 -0.4556  3.0302 -1.2214
  109OSM   H11B11123   4.322   3.972   7.283 -2.0176 -0.0780 -0.2405
  109OSM      P11124   4.175   4.092   7.061 -0.7753 -0.0201  0.1305
  109OSM    O1311125   4.079   3.999   7.126 -0.2932 -0.1298 -0.4556
  109OSM    O1411126   4.120   4.210   6.993 -0.3555  0.2394 -0.7517
  109OSM    O1111127   4.268   4.012   6.960 -0.3749 -0.6519  0.0505
  109OSM    O1211128   4.277   4.150   7.172  0.3009  0.0426  0.3230
  109OSM    C1S11129   4.216   3.941   6.852  0.6556  0.7077  0.4766
  109OSM    H1S11130   4.105   3.948   6.845  0.7485  0.6736 -3.2721
  109OSM    H1T11131   4.243   3.834   6.863 -0.4564  0.4954  1.2246
  109OSM     NF11132   4.183   3.928   6.603 -0.4639 -0.5946 -0.3721
  109OSM    HNF11133   4.228   3.866   6.540  2.0080 -0.2284  0.9167
  109OSM    C2S11134   4.267   3.986   6.709 -0.0746 -0.7550 -0.8818
  109OSM    H2S11135   4.252   4.096   6.698  3.3619 -0.3047 -2.3247
  109OSM    C3S11136   4.422   3.970   6.700  0.2233 -0.3173  0.3791
  109OSM    H3S11137   4.461   3.866   6.704  0.8368 -0.1993 -1.5055
  109OSM     O311138   4.493   4.026   6.815  0.1043 -0.3797  0.4978
  109OSM    HO311139   4.421   4.031   6.878 -0.6833 -1.9951 -0.2047
  109OSM    C4S11140   4.486   4.026   6.569 -0.5352 -0.2910 -0.1873
  109OSM    H4S11141   4.490   3.953   6.486 -1.8979 -0.1752 -0.3835
  109OSM    C5S11142   4.552   4.144   6.547 -0.1477 -0.0308  0.4313
  109OSM    H5S11143   4.566   4.209   6.634  0.2964  0.2307  0.1619
  109OSM    C6S11144   4.623   4.183   6.418  0.4032  0.0310  0.3348
  109OSM    H6S11145   4.729   4.151   6.417  0.6782  0.9134 -0.1778
  109OSM    H6T11146   4.631   4.294   6.419 -2.5135  0.3467  2.9035
  109OSM    C7S11147   4.562   4.113   6.295  0.2707 -0.1035  0.4887
  109OSM    H7S11148   4.452   4.127   6.290  0.3564  1.1555  1.6135
  109OSM    H7T11149   4.577   4.004   6.309 -0.6926 -0.2555  0.3936
  109OSM    C8S11150   4.626   4.157   6.164  0.2439  0.3154  1.0850
  109OSM    H8S11151   4.736   4.158   6.180  0.3380  0.5735  0.4390
  109OSM    H8T11152   4.597   4.263   6.149 -1.1316  0.0256  1.5344
  109OSM    C9S11153   4.578   4.067   6.055 -0.7664 -0.2118  0.1504
  109OSM    H9S11154   4.468   4.053   6.053 -0.8026  0.1799 -1.8037
  109OSM    H9T11155   4.611   3.965   6.086 -1.7612  0.5135  4.2859
  109OSM   C10S11156   4.642   4.104   5.927  0.2113 -0.1322  0.2982
  109OSM   H10S11157   4.658   4.011   5.869 -0.7938  0.8344 -1.6254
  109OSM   H10T11158   4.748   4.133   5.941  0.7677 -1.9135  0.0538
  109OSM   C11S11159   4.561   4.199   5.836 -0.6008  0.4016  0.0987
  109OSM   H11S11160   4.546   4.291   5.897 -1.9027 -0.2309  0.7826
  109OSM   H11T11161   4.462   4.154   5.812  1.1732 -3.2227 -1.2333
  109OSM   C12S11162   4.643   4.226   5.706  0.3796  0.4266 -0.3244
  109OSM   H12S11163   4.704   4.135   5.690 -1.6327 -0.7058 -2.1019
  109OSM   H12T11164   4.712   4.310   5.729  3.2811 -1.9710  0.4260
  109OSM   C13S11165   4.555   4.262   5.589  0.4207 -0.6001  0.2151
  109OSM   H13S11166   4.486   4.176   5.572  0.6423 -0.5697 -0.8742
  109OSM   H13T11167   4.609   4.279   5.494 -0.3456 -0.8482 -0.2745
  109OSM   C14S11168   4.463   4.383   5.621  0.5068 -0.4033  0.0144
  109OSM   H14S11169   4.527   4.472   5.641 -1.2534  0.9437 -0.0640
  109OSM   H14T11170   4.403   4.358   5.711 -2.6222 -0.5871 -1.9503
  109OSM   C15S11171   4.349   4.417   5.516 -0.3532  0.2439  0.2304
  109OSM   H15S11172   4.279   4.489   5.562 -1.3065  0.6299 -1.7152
  109OSM   H15T11173   4.301   4.322   5.483  1.7603 -0.4109 -1.2419
  109OSM   C16S11174   4.407   4.469   5.381 -0.1543 -0.2080 -0.8635
  109OSM   H16S11175   4.470   4.387   5.338  1.2853 -0.0349  0.8330
  109OSM   H16T11176   4.478   4.549   5.411 -0.3752 -1.2056  2.8228
  109OSM   C17S11177   4.304   4.528   5.283 -0.1309 -0.3586  0.2835
  109OSM   H17S11178   4.358   4.588   5.206 -0.0072  0.8530  1.2888
  109OSM   H17T11179   4.227   4.598   5.321 -0.9912 -1.3875  0.4722
  109OSM   C18S11180   4.222   4.429   5.208  0.1566  0.7685  0.2216
  109OSM   H18S11181   4.160   4.484   5.134  1.3391  0.5192 -0.9948
  109OSM   H18T11182   4.161   4.365   5.276 -0.6043  0.0561 -1.0972
  109OSM   H18U11183   4.288   4.358   5.153 -0.9838 -0.8778  0.8717
  109OSM    C1F11184   4.053   3.934   6.601 -0.3215  0.0005  0.2216
  109OSM     OF11185   3.992   4.029   6.656 -0.1301 -0.1563 -0.0422
  109OSM    C2F11186   3.989   3.829   6.519  0.6388  0.6575  0.5202
  109OSM    H2F11187   3.960   3.745   6.586 -2.3240  0.4640 -0.8399
  109OSM    H2G11188   4.067   3.782   6.456  0.1738 -0.4023  0.7075
  109OSM    C3F11189   3.884   3.881   6.420 -0.1476  0.4179  0.7005
  109OSM    H3F11190   3.790   3.927   6.457  0.0559  0.8522  0.6862
  109OSM    H3G11191   3.849   3.797   6.355 -1.0685  2.3689 -1.4550
  109OSM    C4F11192   3.940   3.963   6.303 -0.1182 -0.3837  0.1290
  109OSM    H4F11193   3.994   4.054   6.337  1.1275 -0.6743 -0.9916
  109OSM    H4G11194   3.850   3.998   6.247  0.4627  0.8232 -0.0832
  109OSM    C5F11195   4.022   3.873   6.209  0.7441 -0.3312  0.3117
  109OSM    H5F11196   3.961   3.786   6.177 -0.6551  1.3468 -1.8200
  109OSM    H5G11197   4.113   3.832   6.257  0.7707 -0.9089 -0.2179
  109OSM    C6F11198   4.046   3.936   6.073 -0.5635 -0.4522 -0.7380
  109OSM    H6F11199   3.951   3.963   6.022 -0.0831 -0.7053 -1.8103
  109OSM    H6G11200   4.100   3.860   6.012 -0.3997 -0.3802 -0.6852
  109OSM    C7F11201   4.144   4.051   6.067  0.3498  0.4040  0.2845
  109OSM    H7F11202   4.231   4.010   6.122  1.0625  0.0451 -1.0802
  109OSM    H7G11203   4.099   4.141   6.114  1.0925  2.8485 -3.3028
  109OSM    C8F11204   4.173   4.110   5.929 -0.7098 -0.0412 -0.3355
  109OSM    H8F11205   4.253   4.185   5.946 -0.9871  0.1180  0.2642
  109OSM    H8G11206   4.079   4.156   5.893 -1.3301 -1.3659 -0.4695
  109OSM    C9F11207   4.221   4.017   5.828  0.2903 -0.3959  0.6745
  109OSM    H9F11208   4.319   3.972   5.848  0.7351  0.3613  0.2086
  109OSM   C10F11209   4.145   3.960   5.732 -0.2220 -0.4289 -0.1047
  109OSM   H10F11210   4.191   3.887   5.663 -1.4044 -0.0270 -1.3511
  109OSM   C11F11211   3.999   3.994   5.703 -0.3505 -0.0657  0.1851
  109OSM   H11F11212   3.982   4.095   5.747  0.4205 -0.8665  2.4976
  109OSM   H11G11213   3.945   3.914   5.759  1.8795 -1.2085  0.8110
  109OSM   C12F11214   3.956   3.990   5.562 -0.7680  0.3228  0.0381
  109OSM   H12F11215   3.847   4.009   5.562 -0.8037  0.1448 -0.7002
  109OSM   H12G11216   3.974   3.893   5.511  2.3364  1.8345 -2.0905
  109OSM   C13F11217   4.029   4.089   5.465 -0.7753 -0.0921  0.1796
  109OSM   H13F11218   4.139   4.088   5.484 -0.6920  2.3052  0.1138
  109OSM   H13G11219   3.996   4.189   5.500  0.8990  1.3011 -1.9707
  109OSM   C14F11220   4.003   4.081   5.315 -0.0266  0.5979  0.6079
  109OSM   H14F11221   4.021   4.177   5.262 -1.6651  0.6098  0.0203
  109OSM   H14G11222   3.900   4.047   5.291  1.1741 -2.2883 -0.9750
  109OSM   C15F11223   4.089   3.971   5.248 -0.8024  0.3852  0.7924
  109OSM   H15F11224   4.095   3.871   5.295 -0.8161  1.0111  2.1924
  109OSM   H15G11225   4.191   4.012   5.259 -1.5677  1.6693  4.3624
  109OSM   C16F11226   4.046   3.949   5.098 -0.6223 -0.8654 -0.6160
  109OSM   H16F11227   4.135   3.909   5.045 -0.0699  1.3237 -1.4957
  109OSM   H16G11228   4.022   4.048   5.053  0.6974 -0.0359  0.4409
  109OSM   C17F11229   3.931   3.854   5.085  0.9222 -0.6372  0.0439
  109OSM   H17F11230   3.845   3.900   5.138  0.3516 -0.3887 -1.0650
  109OSM   H17G11231   3.958   3.757   5.132  2.0279 -1.4770 -2.1805
  109OSM   C18F11232   3.877   3.833   4.943 -0.7895 -0.1973 -0.0904
  109OSM   H18F11233   3.957   3.810   4.870 -0.3723  0.0656  0.2820
  109OSM   H18G11234   3.843   3.925   4.890  2.2687  1.1568  0.0927
  109OSM   H18H11235   3.799   3.754   4.942  0.5365 -1.5596 -1.1626
  110OSM      N11236   6.032   0.107   7.435  0.1185  0.2345 -0.1453
  110OSM    C1511237   6.035   0.256   7.418 -0.0195 -0.8047 -0.4074
  110OSM   H15A11238   6.133   0.278   7.378 -0.3675 -2.6906 -2.5844
  110OSM   H15B11239   6.015   0.307   7.510  0.2378 -3.4018  1.1967
  110OSM   H15C11240   5.968   0.298   7.345 -0.1904  1.6557  1.0764
  110OSM    C1411241   6.161   0.074   7.504 -0.2707  0.0190  0.0663
  110OSM   H14A11242   6.161   0.128   7.598 -0.6279  1.7686 -0.8809
  110OSM   H14B11243   6.245   0.105   7.443 -0.0500 -0.7814 -0.0481
  110OSM   H14C11244   6.175  -0.030   7.526 -0.1134 -0.4341 -2.0078
  110OSM    C1311245   5.910   0.064   7.516 -0.2112 -0.1197  0.0093
  110OSM   H13A11246   5.891  -0.042   7.520 -0.6368 -0.0155  1.5499
  110OSM   H13B11247   5.824   0.118   7.478 -1.1106 -0.4122  1.5700
  110OSM   H13C11248   5.925   0.091   7.619  3.7382 -0.8470 -0.2376
  110OSM    C1211249   6.028   0.050   7.292  0.1510 -0.1776  0.1135
  110OSM   H12A11250   6.017  -0.057   7.303  0.2221 -0.1919  0.0419
  110OSM   H12B11251   6.108   0.084   7.228 -0.9662  1.1150 -0.6392
  110OSM    C1111252   5.896   0.083   7.211  0.6178 -0.6717 -0.4808
  110OSM   H11A11253   5.817   0.030   7.268  0.3215 -1.5933 -1.7013
  110OSM   H11B11254   5.890   0.029   7.114 -0.7957  0.8744 -1.3170
  110OSM      P11255   5.742   0.266   7.135  0.3956  0.2372  0.2197
  110OSM    O1311256   5.634   0.244   7.239 -0.1901  0.2718  0.7315
  110OSM    O1411257   5.746   0.404   7.083 -0.0825 -0.3241  0.1610
  110OSM    O1111258   5.718   0.166   7.020 -0.0300 -0.2385  0.5735
  110OSM    O1211259   5.875   0.226   7.195 -0.3105 -0.5018 -0.6818
  110OSM    C1S11260   5.763   0.189   6.887  0.0830  0.0548  0.2121
  110OSM    H1S11261   5.863   0.142   6.869 -0.3852 -0.7139 -0.4679
  110OSM    H1T11262   5.769   0.295   6.854 -1.1328 -0.1362 -0.6755
  110OSM     NF11263   5.734   0.131   6.641 -0.1629 -0.3836 -1.0341
  110OSM    HNF11264   5.701   0.202   6.579 -0.4824  0.9317  0.5560
  110OSM    C2S11265   5.672   0.118   6.773  0.0295  0.6828 -0.8983
  110OSM    H2S11266   5.684   0.009   6.790  4.1794  1.2056  0.6278
  110OSM    C3S11267   5.531   0.166   6.781  0.4346  0.4089  0.4492
  110OSM    H3S11268   5.510   0.275   6.770 -1.4948  0.1610  1.1702
  110OSM     O311269   5.467   0.139   6.905 -0.2140 -0.5694 -0.1298
  110OSM    HO311270   5.537   0.144   6.971 -0.1542 -2.0521 -0.0458
  110OSM    C4S11271   5.447   0.114   6.657 -0.9514  0.1587  0.2210
  110OSM    H4S11272   5.479   0.167   6.567  0.1593 -1.0231 -0.1151
  110OSM    C5S11273   5.369   0.002   6.645 -0.3356  0.8413  0.0635
  110OSM    H5S11274   5.344  -0.061   6.731  0.3000  1.7483  0.9409
  110OSM    C6S11275   5.310  -0.047   6.514 -0.3476  0.0307 -0.4592
  110OSM    H6S11276   5.202  -0.026   6.525  0.2065  3.3027 -0.3270
  110OSM    H6T11277   5.320  -0.158   6.509  0.0059 -0.2178  3.0787
  110OSM    C7S11278   5.374   0.008   6.397 -0.2267 -0.4062  0.1512
  110OSM    H7S11279   5.470  -0.046   6.397 -0.5692 -1.0776  1.7797
  110OSM    H7T11280   5.387   0.119   6.393  0.9044 -0.2541  3.8795
  110OSM    C8S11281   5.306  -0.027   6.266 -0.5785 -0.1097  0.5203
  110OSM    H8S11282   5.204   0.017   6.262 -0.4211  0.1922 -0.4319
  110OSM    H8T11283   5.293  -0.137   6.254  0.4404 -0.3774  1.6730
  110OSM    C9S11284   5.398   0.026   6.157  0.0447  0.1824 -0.3240
  110OSM    H9S11285   5.502  -0.007   6.176 -0.4169 -1.8261 -1.0155
  110OSM    H9T11286   5.396   0.136   6.167 -0.0305  0.0963  0.7033
  110OSM   C10S11287   5.355  -0.020   6.017  0.3107 -0.1297  0.6152
  110OSM   H10S11288   5.249   0.012   6.008  0.9211  1.4117 -1.9161
  110OSM   H10T11289   5.351  -0.130   5.999 -0.8451 -0.2585  1.5327
  110OSM   C11S11290   5.454   0.041   5.916  0.4691  0.3002 -0.1341
  110OSM   H11S11291   5.552  -0.009   5.928 -0.0991 -0.4599  1.6080
  110OSM   H11T11292   5.475   0.150   5.920  1.0770  0.1557  1.2644
  110OSM   C12S11293   5.403   0.003   5.779 -0.1958 -0.7361 -0.5679
  110OSM   H12S11294   5.312   0.059   5.749 -0.2026 -0.2129  0.3905
  110OSM   H12T11295   5.381  -0.106   5.782 -0.7822 -0.6321 -0.9112
  110OSM   C13S11296   5.504   0.040   5.676 -0.1413 -0.4616  0.1216
  110OSM   H13S11297   5.595  -0.020   5.699 -0.8205 -2.0227 -1.0580
  110OSM   H13T11298   5.518   0.150   5.672  0.3493 -0.4431  1.5824
  110OSM   C14S11299   5.456  -0.008   5.537  0.6985  0.3647  0.4579
  110OSM   H14S11300   5.361   0.044   5.511  0.7501  0.3240  0.1800
  110OSM   H14T11301   5.421  -0.114   5.542 -4.1180  1.6918  0.3594
  110OSM   C15S11302   5.573   0.014   5.431  0.6576 -0.2023 -0.6480
  110OSM   H15S11303   5.669  -0.031   5.465 -0.2440 -2.8131 -1.2904
  110OSM   H15T11304   5.585   0.124   5.428  0.8404 -0.2298 -1.0575
  110OSM   C16S11305   5.525  -0.044   5.294  0.7372 -0.2999 -0.5298
  110OSM   H16S11306   5.475  -0.141   5.319 -0.1451  0.1469 -0.5255
  110OSM   H16T11307   5.624  -0.063   5.248  1.4872  2.3841 -0.1719
  110OSM   C17S11308   5.414   0.033   5.211 -0.9716 -0.6020 -0.2487
  110OSM   H17S11309   5.440   0.135   5.174 -1.0678 -1.1091 -1.7848
  110OSM   H17T11310   5.327   0.046   5.279 -0.0735  1.7715  0.5791
  110OSM   C18S11311   5.359  -0.048   5.091  0.4366 -0.0034 -0.6331
  110OSM   H18S11312   5.313   0.023   5.019  1.3752  0.1283 -1.1212
  110OSM   H18T11313   5.282  -0.122   5.122  0.1417  0.4087 -0.3679
  110OSM   H18U11314   5.447  -0.101   5.049  1.9339  0.0876  2.1450
  110OSM    C1F11315   5.841   0.057   6.597 -0.3211 -0.2312 -0.4449
  110OSM     OF11316   5.898  -0.023   6.671 -0.3579  0.0581  0.5702
  110OSM    C2F11317   5.899   0.095   6.465 -0.2418 -0.0174 -0.0408
  110OSM    H2F11318   5.993   0.038   6.455 -0.5102 -0.3452 -0.7490
  110OSM    H2G11319   5.918   0.204   6.465 -2.6309  0.4828  1.5780
  110OSM    C3F11320   5.811   0.053   6.344 -0.0242 -0.1618 -0.2032
  110OSM    H3F11321   5.717   0.112   6.334  0.4444  0.2626 -3.1327
  110OSM    H3G11322   5.773  -0.049   6.365 -1.1940 -0.0926 -1.7468
  110OSM    C4F11323   5.884   0.072   6.207  0.3333 -0.1000 -0.4213
  110OSM    H4F11324   5.975   0.007   6.205  0.9688  0.7190 -3.6903
  110OSM    H4G11325   5.912   0.179   6.197 -0.8723  0.2338 -0.3165
  110OSM    C5F11326   5.810   0.022   6.090  0.0952  0.5611 -0.1076
  110OSM    H5F11327   5.700   0.042   6.084 -0.1392 -0.8652 -1.2293
  110OSM    H5G11328   5.818  -0.089   6.089  0.0692  0.5553  0.2275
  110OSM    C6F11329   5.873   0.071   5.950  0.2833  1.1105 -0.1197
  110OSM    H6F11330   5.849  -0.008   5.876  0.0356  0.9030  0.1830
  110OSM    H6G11331   5.983   0.069   5.967  0.2317  0.9456  0.1878
  110OSM    C7F11332   5.826   0.216   5.908 -0.5402 -0.2596  0.1112
  110OSM    H7F11333   5.842   0.281   5.997  0.3625  1.9665 -1.5822
  110OSM    H7G11334   5.717   0.213   5.888 -0.5660  0.9811 -0.0106
  110OSM    C8F11335   5.899   0.277   5.790  0.7120 -0.0334 -0.0912
  110OSM    H8F11336   6.009   0.278   5.804  0.4879 -0.2337  2.0170
  110OSM    H8G11337   5.871   0.384   5.791 -1.2177 -0.5028  0.0064
  110OSM    C9F11338   5.885   0.192   5.664 -0.0962 -0.2922  0.3038
  110OSM    H9F11339   5.904   0.084   5.677  0.7374 -0.8387 -4.0024
  110OSM   C10F11340   5.852   0.228   5.535  0.4083  0.4059  0.6824
  110OSM   H10F11341   5.840   0.148   5.459  0.5903  2.0427 -1.1583
  110OSM   C11F11342   5.813   0.362   5.479  1.5424  0.0572  0.3257
  110OSM   H11F11343   5.851   0.441   5.546 -0.3283  2.7728 -1.5807
  110OSM   H11G11344   5.702   0.367   5.481  1.4544 -0.5554  4.4098
  110OSM   C12F11345   5.882   0.394   5.341 -0.2720 -0.2979 -0.6943
  110OSM   H12F11346   5.871   0.306   5.275 -1.7667 -1.0135  0.4439
  110OSM   H12G11347   5.989   0.405   5.370  0.2062 -1.2122 -2.0106
  110OSM   C13F11348   5.846   0.528   5.274 -0.0348  0.4701  0.4519
  110OSM   H13F11349   5.863   0.612   5.345 -0.8532  0.9628  0.0763
  110OSM   H13G11350   5.739   0.541   5.246 -0.0115  1.6506  0.8766
  110OSM   C14F11351   5.917   0.568   5.145 -0.0654  0.3410 -0.6399
  110OSM   H14F11352   6.026   0.584   5.153 -0.2570  1.2191  0.3697
  110OSM   H14G11353   5.871   0.667   5.123 -1.6615 -0.4727 -1.1350
  110OSM   C15F11354   5.885   0.469   5.030 -0.4427  0.0272  0.1639
  110OSM   H15F11355   5.774   0.464   5.026 -0.4253 -2.1721  0.9348
  110OSM   H15G11356   5.917   0.367   5.059 -2.1078 -0.9077 -1.0989
  110OSM   C16F11357   5.949   0.515   4.901  1.3309 -0.1143  0.1625
  110OSM   H16F11358   5.944   0.431   4.829 -1.0893  1.1649 -1.2840
  110OSM   H16G11359   6.054   0.537   4.929  1.4593  0.6415 -0.8456
  110OSM   C17F11360   5.879   0.637   4.824 -0.2059  0.4359  0.6808
  110OSM   H17F11361   5.876   0.725   4.891  1.0797 -0.5989  2.1654
  110OSM   H17G11362   5.780   0.611   4.782  1.6484 -3.3335 -1.9422
  110OSM   C18F11363   5.961   0.680   4.703  0.0326 -0.3088  0.4475
  110OSM   H18F11364   5.900   0.754   4.645 -0.4440 -1.9349 -1.1943
  110OSM   H18G11365   5.980   0.595   4.634  2.3885  0.8091 -0.3705
  110OSM   H18H11366   6.064   0.716   4.722  0.4431 -1.5266  0.5473
  111OSM      N11367   2.251   4.635   6.945 -0.0720 -0.1595 -0.5112
  111OSM    C1511368   2.231   4.576   7.082  0.4177 -0.2636  0.7114
  111OSM   H15A11369   2.136   4.525   7.089  0.2588 -0.3203 -1.3652
  111OSM   H15B11370   2.212   4.654   7.154  0.0800  1.2538 -0.9557
  111OSM   H15C11371   2.314   4.519   7.122  0.4785  0.2379  1.3228
  111OSM    C1411372   2.362   4.732   6.951  0.2380 -0.5736 -0.3693
  111OSM   H14A11373   2.464   4.696   6.955  0.6178  0.4134 -0.8764
  111OSM   H14B11374   2.357   4.802   7.032  2.6725 -0.2085 -0.4548
  111OSM   H14C11375   2.359   4.799   6.866 -0.5617 -0.3119 -0.1417
  111OSM    C1311376   2.282   4.532   6.851 -0.6025  0.5703 -0.6540
  111OSM   H13A11377   2.204   4.458   6.842  0.8920 -1.2349  0.4245
  111OSM   H13B11378   2.366   4.471   6.882 -0.9427 -0.2001 -1.1967
  111OSM   H13C11379   2.309   4.582   6.759  1.0900  1.6494  0.3881
  111OSM    C1211380   2.121   4.713   6.911  0.2061 -0.6018 -0.2810
  111OSM   H12A11381   2.123   4.717   6.803 -0.7112 -1.0158 -0.3245
  111OSM   H12B11382   2.130   4.816   6.941 -1.2771 -0.5005 -0.1016
  111OSM    C1111383   1.985   4.661   6.962 -0.0910 -0.0492 -0.0883
  111OSM   H11A11384   1.979   4.553   6.937 -0.6612  0.1923 -1.0471
  111OSM   H11B11385   1.898   4.702   6.908 -2.3880 -2.1142  1.8265
  111OSM      P11386   1.981   4.814   7.180 -0.2664 -0.2255 -0.2925
  111OSM    O1311387   1.882   4.803   7.297 -0.0064 -0.4442 -0.8784
  111OSM    O1411388   2.126   4.838   7.213 -0.3689  0.2505 -0.0130
  111OSM    O1111389   1.933   4.916   7.076  0.2624  0.0792 -0.4162
  111OSM    O1211390   1.982   4.681   7.102  0.3718 -0.5260 -0.2113
  111OSM    C1S11391   1.913   5.052   7.097 -0.3816 -0.5353 -0.2132
  111OSM    H1S11392   1.997   5.101   7.151  0.9353 -1.0707 -1.6964
  111OSM    H1T11393   1.817   5.080   7.147 -0.1946  3.2404 -1.6357
  111OSM     NF11394   1.921   5.272   6.981 -0.6985 -0.2681  0.1006
  111OSM    HNF11395   1.837   5.326   6.972  0.5679  1.7703 -0.2235
  111OSM    C2S11396   1.901   5.131   6.962 -0.0754 -0.1409 -0.2965
  111OSM    H2S11397   1.978   5.094   6.891 -0.7459 -0.4577 -0.8694
  111OSM    C3S11398   1.766   5.097   6.893  0.1761 -0.5675 -0.2210
  111OSM    H3S11399   1.686   5.118   6.968 -0.8770  1.1199 -1.7188
  111OSM     O311400   1.746   4.952   6.878 -0.2759  0.0545 -0.6890
  111OSM    HO311401   1.831   4.922   6.911 -1.0451  0.1076  1.4966
  111OSM    C4S11402   1.739   5.182   6.763  0.8891  0.7907 -0.0682
  111OSM    H4S11403   1.733   5.291   6.772 -0.5385  1.1070 -3.3410
  111OSM    C5S11404   1.765   5.131   6.639 -0.6144  0.2872 -0.3533
  111OSM    H5S11405   1.806   5.029   6.642  1.6778  1.1374  2.0493
  111OSM    C6S11406   1.735   5.206   6.517 -0.0161 -0.2466  0.8135
  111OSM    H6S11407   1.805   5.290   6.499 -1.1302  0.3261 -1.0797
  111OSM    H6T11408   1.634   5.251   6.527 -0.2547 -0.9075  1.4803
  111OSM    C7S11409   1.731   5.120   6.382  0.3047 -0.5481 -0.1294
  111OSM    H7S11410   1.641   5.055   6.386 -0.8042  0.8264 -1.3117
  111OSM    H7T11411   1.822   5.056   6.374  1.4557  1.1858 -1.9650
  111OSM    C8S11412   1.711   5.215   6.258  0.2660 -0.2786  0.0837
  111OSM    H8S11413   1.801   5.279   6.244  1.2013 -0.9318  2.4812
  111OSM    H8T11414   1.625   5.281   6.284  0.4536 -0.6375  1.7191
  111OSM    C9S11415   1.654   5.142   6.136  0.0435 -0.4645  1.4229
  111OSM    H9S11416   1.548   5.118   6.159 -0.3653  0.1722  0.2716
  111OSM    H9T11417   1.705   5.046   6.111 -0.1277  0.1830 -1.7699
  111OSM   C10S11418   1.671   5.236   6.012  1.0153 -0.7473 -0.0331
  111OSM   H10S11419   1.775   5.276   6.007  1.1940 -1.1806  0.1704
  111OSM   H10T11420   1.597   5.317   6.023  1.2452 -0.0941 -2.6232
  111OSM   C11S11421   1.633   5.154   5.882 -0.2775 -0.5068 -0.2657
  111OSM   H11S11422   1.528   5.119   5.882 -0.4019 -0.1374 -0.1017
  111OSM   H11T11423   1.705   5.069   5.879 -0.8286 -1.1152  2.0490
  111OSM   C12S11424   1.656   5.249   5.765 -0.7383  0.9609  0.0454
  111OSM   H12S11425   1.748   5.310   5.778 -1.1836  1.6692 -0.0559
  111OSM   H12T11426   1.570   5.319   5.767 -0.6792  1.0269  0.9551
  111OSM   C13S11427   1.649   5.180   5.627 -0.6086  0.4754  0.5919
  111OSM   H13S11428   1.557   5.117   5.632  0.3333 -0.9385  0.9356
  111OSM   H13T11429   1.741   5.118   5.628  0.0074  1.3669  0.1761
  111OSM   C14S11430   1.651   5.276   5.505 -0.2510  0.8741  0.2919
  111OSM   H14S11431   1.717   5.363   5.526 -0.0963  1.0848 -0.9809
  111OSM   H14T11432   1.556   5.333   5.491  0.8745  3.4444  2.3576
  111OSM   C15S11433   1.700   5.206   5.380  0.1068 -0.1001  0.4205
  111OSM   H15S11434   1.809   5.198   5.401 -0.2720  0.5310  3.0209
  111OSM   H15T11435   1.686   5.271   5.292 -1.5021 -0.1208  0.6452
  111OSM   C16S11436   1.649   5.071   5.342  0.6971 -0.5258 -0.0875
  111OSM   H16S11437   1.547   5.082   5.298 -0.0435  0.8444  1.8539
  111OSM   H16T11438   1.623   5.017   5.436 -0.1557 -1.2702 -0.7224
  111OSM   C17S11439   1.743   4.995   5.256  0.8375  0.2241  0.5340
  111OSM   H17S11440   1.728   4.886   5.269  0.4328  0.3912  1.5463
  111OSM   H17T11441   1.846   5.017   5.294  1.0765 -1.9062  1.2134
  111OSM   C18S11442   1.749   5.027   5.105  0.1177 -0.8404 -0.7553
  111OSM   H18S11443   1.752   5.138   5.101  3.5508 -0.8208 -0.6745
  111OSM   H18T11444   1.657   4.995   5.051  0.3437  1.2942 -2.5127
  111OSM   H18U11445   1.846   4.991   5.064 -0.4276 -0.8955 -2.0444
  111OSM    C1F11446   2.038   5.325   7.017 -0.6999  0.6488 -0.9716
  111OSM     OF11447   2.128   5.247   7.007  0.5481 -0.7437  0.1912
  111OSM    C2F11448   2.054   5.472   7.058 -0.3732  0.5555  0.4219
  111OSM    H2F11449   2.085   5.478   7.165  0.3903  3.0816  0.1193
  111OSM    H2G11450   1.963   5.533   7.042 -0.9754 -0.8845 -2.4028
  111OSM    C3F11451   2.159   5.556   6.981 -0.0739 -0.9852 -0.4610
  111OSM    H3F11452   2.254   5.512   7.018  0.0091 -0.1409  0.3759
  111OSM    H3G11453   2.153   5.663   7.008  0.0802 -0.6281 -1.7565
  111OSM    C4F11454   2.142   5.547   6.829 -0.1037 -0.4156  0.0380
  111OSM    H4F11455   2.049   5.601   6.803  0.0588  0.4993  1.2727
  111OSM    H4G11456   2.138   5.438   6.806 -0.4691 -0.9342  2.3218
  111OSM    C5F11457   2.252   5.622   6.749 -0.4465  0.4610 -0.3014
  111OSM    H5F11458   2.349   5.569   6.737 -0.6043  0.0334  0.3142
  111OSM    H5G11459   2.270   5.713   6.811 -3.9171 -0.3208  2.0834
  111OSM    C6F11460   2.200   5.663   6.610  0.2897  0.8938  0.7285
  111OSM    H6F11461   2.107   5.724   6.609  0.4597  1.2225 -1.9314
  111OSM    H6G11462   2.175   5.569   6.556  1.9096  0.7059  0.2456
  111OSM    C7F11463   2.297   5.753   6.527  0.4951 -0.1539 -0.0550
  111OSM    H7F11464   2.395   5.702   6.539  0.3899 -0.2240  0.5434
  111OSM    H7G11465   2.294   5.853   6.574  1.7372  0.0612 -0.3935
  111OSM    C8F11466   2.264   5.763   6.378  0.0346  0.6794 -0.2126
  111OSM    H8F11467   2.247   5.660   6.339 -1.4456  2.2320 -4.2733
  111OSM    H8G11468   2.355   5.792   6.320  1.8741 -1.2745  1.5299
  111OSM    C9F11469   2.139   5.840   6.357  0.3035  0.2623  0.5845
  111OSM    H9F11470   2.049   5.805   6.410 -0.5324  0.4159 -0.6943
  111OSM   C10F11471   2.131   5.947   6.285 -1.0807 -0.2269  0.0529
  111OSM   H10F11472   2.040   6.002   6.257  0.0571  1.3136 -0.7543
  111OSM   C11F11473   2.247   6.022   6.217 -0.1124  0.9426 -0.1705
  111OSM   H11F11474   2.334   6.025   6.287 -1.3342 -2.6151  1.7692
  111OSM   H11G11475   2.213   6.127   6.216  2.0886  1.8499  3.2826
  111OSM   C12F11476   2.301   5.963   6.084  0.5502 -0.0241  0.1170
  111OSM   H12F11477   2.323   5.855   6.093 -0.3011 -0.5787 -3.0408
  111OSM   H12G11478   2.389   6.022   6.053  0.6451 -0.8255 -1.2463
  111OSM   C13F11479   2.193   5.987   5.976 -0.5619 -0.2911 -0.0551
  111OSM   H13F11480   2.186   6.098   5.971 -0.0308 -0.1772  1.2420
  111OSM   H13G11481   2.100   5.936   6.008 -0.2176  0.6527  2.7342
  111OSM   C14F11482   2.230   5.936   5.833  0.1170 -0.5300  0.6120
  111OSM   H14F11483   2.227   5.826   5.823 -0.5318 -0.6269  1.7062
  111OSM   H14G11484   2.330   5.974   5.803 -0.5306  0.2612 -0.6338
  111OSM   C15F11485   2.129   5.981   5.733 -0.4089  0.1566  0.4658
  111OSM   H15F11486   2.108   6.088   5.754  2.7043  0.9680 -0.0511
  111OSM   H15G11487   2.045   5.908   5.737  0.1089 -0.4490  0.4963
  111OSM   C16F11488   2.184   5.968   5.586  0.0825  0.1881 -0.0296
  111OSM   H16F11489   2.197   5.861   5.560 -0.3574  0.6332 -2.2954
  111OSM   H16G11490   2.283   6.016   5.570  0.6383 -0.7771  0.4639
  111OSM   C17F11491   2.095   6.035   5.482 -0.0081 -0.1615  0.5656
  111OSM   H17F11492   2.145   6.018   5.385 -0.5492  0.4314  0.1750
  111OSM   H17G11493   2.108   6.142   5.507  2.0887 -0.3529  0.4677
  111OSM   C18F11494   1.953   5.988   5.494  0.6168  1.1442 -0.3576
  111OSM   H18F11495   1.945   5.878   5.476 -0.4813  1.4375 -1.8916
  111OSM   H18G11496   1.874   6.029   5.428 -0.8112 -1.1332 -0.2015
  111OSM   H18H11497   1.919   6.015   5.597 -0.1412  2.3907 -0.9092
  112OSM      N11498   3.847   2.053   7.830 -0.5798 -0.2069 -0.1781
  112OSM    C1511499   3.748   2.136   7.756 -0.1446  0.2592  0.1416
  112OSM   H15A11500   3.748   2.104   7.653  0.7191  1.2947 -0.1928
  112OSM   H15B11501   3.787   2.236   7.742 -0.7884  0.2447 -2.0809
  112OSM   H15C11502   3.648   2.124   7.795 -0.0726 -1.8139 -0.2060
  112OSM    C1411503   3.847   2.074   7.980 -0.0479  0.3685  0.5049
  112OSM   H14A11504   3.840   2.176   8.016  1.4903  0.3686  0.8580
  112OSM   H14B11505   3.927   2.024   8.032  1.2770  2.7338  0.8630
  112OSM   H14C11506   3.762   2.025   8.025  0.6794 -0.1100  1.3714
  112OSM    C1311507   3.810   1.909   7.800 -0.0654  0.7387 -0.1996
  112OSM   H13A11508   3.709   1.889   7.834  0.1586 -0.6469 -0.2623
  112OSM   H13B11509   3.868   1.828   7.843 -1.5106 -1.7357 -2.6038
  112OSM   H13C11510   3.814   1.883   7.696  0.4586 -1.3019  0.2787
  112OSM    C1211511   3.983   2.075   7.779 -0.3218  0.0335 -0.3803
  112OSM   H12A11512   3.984   2.059   7.672 -0.9915 -0.0297 -0.3824
  112OSM   H12B11513   4.042   1.997   7.824 -0.2719  0.8502  1.0292
  112OSM    C1111514   4.050   2.209   7.807  0.0953 -0.2770  0.0015
  112OSM   H11A11515   4.160   2.206   7.818  0.0914  0.3092  0.2402
  112OSM   H11B11516   4.018   2.248   7.906 -0.3304 -1.3956  0.3229
  112OSM      P11517   4.097   2.335   7.591  0.0124  0.1334  0.0384
  112OSM    O1311518   4.012   2.398   7.488 -0.1288  0.0385  0.4268
  112OSM    O1411519   4.215   2.408   7.634  0.7686  0.6438 -0.1123
  112OSM    O1111520   4.160   2.192   7.538 -0.5597  0.0249 -0.0457
  112OSM    O1211521   3.999   2.303   7.716 -0.4973 -0.0869  0.5086
  112OSM    C1S11522   4.080   2.105   7.461 -0.0177  0.2000 -0.4133
  112OSM    H1S11523   3.977   2.146   7.453 -1.2393 -2.9873 -3.6224
  112OSM    H1T11524   4.089   1.999   7.494  0.7848  1.1051  2.6351
  112OSM     NF11525   4.042   2.023   7.228  1.0964 -0.3502 -0.1473
  112OSM    HNF11526   4.068   1.928   7.213 -0.7946 -1.0094  0.4184
  112OSM    C2S11527   4.131   2.099   7.313 -0.1134 -0.5509 -0.1102
  112OSM    H2S11528   4.141   2.201   7.269  1.3888 -0.1596  1.0225
  112OSM    C3S11529   4.279   2.043   7.309 -0.0995  0.2563  0.1399
  112OSM    H3S11530   4.287   1.939   7.345  1.4597  0.3208  0.0299
  112OSM     O311531   4.374   2.112   7.387 -0.1401 -0.7173  0.3926
  112OSM    HO311532   4.319   2.176   7.434  1.4092  0.5398  0.5656
  112OSM    C4S11533   4.330   2.039   7.163  0.7115  0.6914 -0.1391
  112OSM    H4S11534   4.318   1.940   7.116 -0.1084  0.5145  0.4104
  112OSM    C5S11535   4.379   2.141   7.091 -0.5703  0.2258 -0.9210
  112OSM    H5S11536   4.379   2.238   7.143 -3.3589  0.0898 -0.5306
  112OSM    C6S11537   4.421   2.160   6.950 -0.1133  0.0331  0.1364
  112OSM    H6S11538   4.512   2.222   6.931 -0.6711  0.1855 -2.3562
  112OSM    H6T11539   4.345   2.232   6.913  0.4412 -0.4773 -2.1500
  112OSM    C7S11540   4.418   2.041   6.855  0.7071 -0.8325  0.6090
  112OSM    H7S11541   4.317   1.995   6.858 -0.4668  0.7080 -4.7767
  112OSM    H7T11542   4.492   1.972   6.901  0.8283 -0.6659  0.6671
  112OSM    C8S11543   4.474   2.084   6.715  0.1635  0.1429  0.1134
  112OSM    H8S11544   4.470   1.986   6.661 -3.1046 -0.2697  0.8667
  112OSM    H8T11545   4.577   2.123   6.725  0.4012 -0.7047  1.1477
  112OSM    C9S11546   4.379   2.188   6.650 -0.7325  0.4466 -0.3721
  112OSM    H9S11547   4.430   2.286   6.640 -0.9642  0.5099 -1.0050
  112OSM    H9T11548   4.290   2.189   6.718 -2.4544  0.6714 -2.5085
  112OSM   C10S11549   4.328   2.139   6.518 -0.2193  0.3080 -0.6164
  112OSM   H10S11550   4.241   2.197   6.481  0.1006  0.8820 -0.4829
  112OSM   H10T11551   4.289   2.035   6.523  0.0640  0.2406  1.9176
  112OSM   C11S11552   4.433   2.133   6.408 -0.5131  0.6298  0.5490
  112OSM   H11S11553   4.515   2.061   6.426 -2.3751 -1.4767  1.0010
  112OSM   H11T11554   4.490   2.229   6.402  1.2860 -0.3729  1.0036
  112OSM   C12S11555   4.370   2.118   6.269  0.0004 -0.0187 -0.2183
  112OSM   H12S11556   4.329   2.215   6.231 -1.5194 -0.5370  0.0380
  112OSM   H12T11557   4.292   2.041   6.282 -0.0284  0.2146  1.1330
  112OSM   C13S11558   4.462   2.051   6.166  0.1041  0.0608  0.6566
  112OSM   H13S11559   4.465   1.942   6.182  0.4369  0.0685  0.6503
  112OSM   H13T11560   4.566   2.091   6.176 -0.2881  0.7862  2.2788
  112OSM   C14S11561   4.409   2.077   6.020  0.2999 -0.0012  0.5236
  112OSM   H14S11562   4.387   2.185   6.004  0.7244  0.0579  0.3419
  112OSM   H14T11563   4.314   2.022   6.003  1.5680 -1.7516 -1.4298
  112OSM   C15S11564   4.516   2.041   5.914 -0.5305  0.1622  0.1274
  112OSM   H15S11565   4.531   1.931   5.907  1.1816  0.4444 -1.4820
  112OSM   H15T11566   4.613   2.085   5.943 -1.5041  0.9395  2.4147
  112OSM   C16S11567   4.475   2.086   5.769 -0.2762 -0.0347 -0.3991
  112OSM   H16S11568   4.429   2.187   5.782  1.2018  0.4040  2.0505
  112OSM   H16T11569   4.394   2.019   5.732 -3.1005  2.0199  1.6222
  112OSM   C17S11570   4.588   2.086   5.666 -0.5538  0.1680  0.0415
  112OSM   H17S11571   4.636   1.986   5.667  1.9390  1.2368 -1.5723
  112OSM   H17T11572   4.668   2.156   5.698  0.3219 -0.3645 -0.9296
  112OSM   C18S11573   4.548   2.119   5.524  0.3906 -0.2606 -0.5484
  112OSM   H18S11574   4.476   2.043   5.487 -0.5201  0.4964 -0.3659
  112OSM   H18T11575   4.641   2.117   5.463 -0.6018 -3.2852 -2.1906
  112OSM   H18U11576   4.503   2.220   5.527 -2.0595 -1.1312 -3.2239
  112OSM    C1F11577   3.920   2.065   7.195 -0.8692 -0.3744  0.3176
  112OSM     OF11578   3.873   2.169   7.233 -0.2574 -0.0720 -0.2665
  112OSM    C2F11579   3.831   1.970   7.114  0.2467 -0.2594  0.2600
  112OSM    H2F11580   3.790   1.892   7.181 -1.9061 -1.4294 -2.2472
  112OSM    H2G11581   3.898   1.918   7.041  0.2283  1.7626 -1.2622
  112OSM    C3F11582   3.715   2.036   7.042 -0.8330 -0.0418 -0.3846
  112OSM    H3F11583   3.755   2.131   7.002  1.8392  0.3473  2.8293
  112OSM    H3G11584   3.641   2.073   7.116  0.2305 -0.0128  0.7016
  112OSM    C4F11585   3.640   1.952   6.936  0.7978 -0.2705 -0.2529
  112OSM    H4F11586   3.562   2.014   6.885  0.6561 -0.6777 -0.5366
  112OSM    H4G11587   3.595   1.867   6.991  1.4103  0.2755  1.1344
  112OSM    C5F11588   3.730   1.912   6.824  0.3810  0.8871  0.3638
  112OSM    H5F11589   3.797   1.831   6.859  0.5991  1.4722  1.3595
  112OSM    H5G11590   3.793   1.998   6.795 -0.2182  0.6862 -1.6469
  112OSM    C6F11591   3.644   1.869   6.699 -0.2836 -0.3954  0.2467
  112OSM    H6F11592   3.617   1.970   6.659  1.1811  1.0776  2.7310
  112OSM    H6G11593   3.550   1.817   6.726  0.7108 -1.1314  2.5161
  112OSM    C7F11594   3.721   1.773   6.605 -0.3052 -0.2095 -0.1223
  112OSM    H7F11595   3.733   1.681   6.667 -0.5058 -0.0848  0.1059
  112OSM    H7G11596   3.823   1.805   6.575  0.1047 -1.7275 -0.4028
  112OSM    C8F11597   3.642   1.737   6.482  0.1055 -0.5349 -0.4686
  112OSM    H8F11598   3.612   1.836   6.439  1.2169 -0.5134 -1.2283
  112OSM    H8G11599   3.554   1.675   6.508 -0.3064 -0.0181 -0.6127
  112OSM    C9F11600   3.722   1.653   6.392 -1.1771  0.6689 -0.1892
  112OSM    H9F11601   3.793   1.578   6.429 -2.6419 -0.9278 -0.4658
  112OSM   C10F11602   3.691   1.651   6.258 -0.6827  0.6921  0.3304
  112OSM   H10F11603   3.741   1.582   6.188 -0.2180  0.1448  1.1948
  112OSM   C11F11604   3.576   1.724   6.192  0.6012  0.9562 -0.5743
  112OSM   H11F11605   3.499   1.768   6.259  1.2742  1.0994  0.1112
  112OSM   H11G11606   3.517   1.651   6.132 -0.7125  1.2577  0.3206
  112OSM   C12F11607   3.620   1.838   6.106  0.2660  0.1731  0.0941
  112OSM   H12F11608   3.672   1.911   6.172  0.1698  0.1200  0.2302
  112OSM   H12G11609   3.533   1.898   6.071 -0.4111 -0.9978 -0.3216
  112OSM   C13F11610   3.705   1.808   5.986 -0.6402  0.0552  0.0416
  112OSM   H13F11611   3.752   1.708   6.002 -2.0838 -0.4218  1.6288
  112OSM   H13G11612   3.789   1.881   5.992  0.4014 -1.1590  0.7553
  112OSM   C14F11613   3.632   1.804   5.850 -0.8089 -0.2344 -0.0911
  112OSM   H14F11614   3.604   1.910   5.832 -1.4361 -0.0485  1.7087
  112OSM   H14G11615   3.532   1.756   5.864 -0.3458 -2.1082 -2.5589
  112OSM   C15F11616   3.710   1.739   5.735 -0.0833 -0.3137 -0.5508
  112OSM   H15F11617   3.724   1.632   5.761  0.2256  0.0963  1.0749
  112OSM   H15G11618   3.818   1.767   5.725  0.0541 -1.1824 -1.6721
  112OSM   C16F11619   3.627   1.751   5.601 -0.2511  0.3124  0.0923
  112OSM   H16F11620   3.599   1.854   5.572 -2.4834 -0.2340  0.1825
  112OSM   H16G11621   3.535   1.692   5.618 -0.7314  0.3317 -2.1858
  112OSM   C17F11622   3.697   1.686   5.483  0.1347  0.3827 -0.3161
  112OSM   H17F11623   3.714   1.579   5.505 -1.8015  0.0094 -0.4369
  112OSM   H17G11624   3.796   1.731   5.461 -0.3484  1.0414 -1.1920
  112OSM   C18F11625   3.615   1.695   5.351 -0.2044 -0.2214 -0.7028
  112OSM   H18F11626   3.641   1.618   5.276  2.4312  2.2371 -2.5331
  112OSM   H18G11627   3.637   1.795   5.309 -0.3199 -0.7958 -2.2082
  112OSM   H18H11628   3.508   1.678   5.377 -0.0626 -3.5621 -1.8585
  113OSM      N11629   1.460   4.152   7.305 -0.2679  0.0502 -0.6628
  113OSM    C1511630   1.327   4.203   7.273 -0.1164  0.0178 -0.3999
  113OSM   H15A11631   1.301   4.151   7.182  1.8904 -0.0922 -0.9567
  113OSM   H15B11632   1.319   4.309   7.253  0.1461  0.5536  2.0669
  113OSM   H15C11633   1.246   4.176   7.340 -0.5917 -1.7323 -1.6129
  113OSM    C1411634   1.512   4.221   7.434 -0.3004 -0.3032  0.1354
  113OSM   H14A11635   1.443   4.201   7.514 -1.1772  1.5517 -0.0940
  113OSM   H14B11636   1.519   4.328   7.421 -1.6567  0.0214  1.8258
  113OSM   H14C11637   1.614   4.193   7.458 -0.7291 -0.7709  1.4867
  113OSM    C1311638   1.452   4.005   7.334 -0.2237  0.1742  0.5991
  113OSM   H13A11639   1.403   3.946   7.258 -1.3586  0.8882  0.7430
  113OSM   H13B11640   1.393   3.981   7.422 -0.3896 -1.2268  0.1371
  113OSM   H13C11641   1.553   3.970   7.349 -1.0100 -2.6211  0.0517
  113OSM    C1211642   1.563   4.166   7.192  0.4376  0.2166 -0.6384
  113OSM   H12A11643   1.654   4.118   7.225 -0.2628  0.0061  1.0625
  113OSM   H12B11644   1.566   4.272   7.173 -1.8493  1.0203  2.6597
  113OSM    C1111645   1.531   4.115   7.045  0.3268  0.8049 -0.1370
  113OSM   H11A11646   1.619   4.131   6.980  1.0488 -0.3852  0.5170
  113OSM   H11B11647   1.452   4.182   7.003 -1.3880  0.1675  1.8898
  113OSM      P11648   1.368   3.919   6.987 -0.9069 -0.2107 -0.4628
  113OSM    O1311649   1.391   3.775   6.972  0.2080 -0.1294  0.1472
  113OSM    O1411650   1.257   3.968   7.074  0.1433  0.4532 -0.1007
  113OSM    O1111651   1.355   3.981   6.845 -0.1170 -0.1518 -0.2310
  113OSM    O1211652   1.498   3.982   7.048  0.8897  0.2778 -0.1360
  113OSM    C1S11653   1.431   3.932   6.733  0.7598  0.2574 -0.1627
  113OSM    H1S11654   1.369   3.849   6.692  2.5946 -0.8265 -0.8527
  113OSM    H1T11655   1.528   3.889   6.765  0.3906 -1.5347 -1.2758
  113OSM     NF11656   1.548   3.974   6.512  0.3224  0.0228 -0.9370
  113OSM    HNF11657   1.640   4.012   6.515  0.6859 -0.8817  1.5095
  113OSM    C2S11658   1.453   4.031   6.608  0.6778 -0.2552 -0.1522
  113OSM    H2S11659   1.358   4.041   6.551 -1.8241  0.4517  3.7579
  113OSM    C3S11660   1.487   4.174   6.662 -0.0930 -1.1204 -1.1837
  113OSM    H3S11661   1.579   4.176   6.725 -1.5037 -0.8866  0.9733
  113OSM     O311662   1.383   4.243   6.736  0.3941 -0.6606  0.3415
  113OSM    HO311663   1.331   4.169   6.768  1.4727 -1.5689  0.0415
  113OSM    C4S11664   1.508   4.262   6.535 -0.1870 -0.3256 -0.6065
  113OSM    H4S11665   1.615   4.267   6.511  0.0860 -2.4812 -0.0954
  113OSM    C5S11666   1.412   4.324   6.457 -0.4037 -0.4211  1.1337
  113OSM    H5S11667   1.306   4.324   6.487 -0.6107  2.9185  0.7833
  113OSM    C6S11668   1.446   4.404   6.331 -0.1750 -0.5168  0.1996
  113OSM    H6S11669   1.556   4.417   6.327 -0.2266 -0.1374 -0.1091
  113OSM    H6T11670   1.414   4.509   6.349  0.3551  0.0971 -2.1331
  113OSM    C7S11671   1.378   4.336   6.213  0.3566  0.5785 -0.7935
  113OSM    H7S11672   1.270   4.351   6.233  0.3982 -0.6586  0.5564
  113OSM    H7T11673   1.393   4.226   6.215  0.9325  0.6642  0.4174
  113OSM    C8S11674   1.406   4.398   6.080 -0.4664  0.1189  0.6782
  113OSM    H8S11675   1.508   4.367   6.047 -0.1402  1.4487  0.3504
  113OSM    H8T11676   1.401   4.507   6.100  1.4760  0.6276 -1.1849
  113OSM    C9S11677   1.297   4.353   5.975 -0.2451  0.2434  0.3231
  113OSM    H9S11678   1.197   4.357   6.023 -0.6277 -0.8512 -0.3493
  113OSM    H9T11679   1.313   4.244   5.961 -1.6888 -0.1031  1.1185
  113OSM   C10S11680   1.287   4.426   5.844 -0.2799  0.3373  0.7449
  113OSM   H10S11681   1.391   4.439   5.806  0.0819 -1.5302  1.0247
  113OSM   H10T11682   1.252   4.530   5.866  1.3241  0.4635  3.0070
  113OSM   C11S11683   1.198   4.341   5.742  1.1067  0.2818  0.5684
  113OSM   H11S11684   1.094   4.337   5.780  0.6766  1.8551 -0.3259
  113OSM   H11T11685   1.242   4.239   5.739  0.2226 -0.0886 -0.0011
  113OSM   C12S11686   1.189   4.399   5.598 -0.4489  0.2171 -0.0817
  113OSM   H12S11687   1.293   4.430   5.575  0.7968 -2.6763  1.1730
  113OSM   H12T11688   1.123   4.489   5.596 -0.0381  0.5336 -2.5124
  113OSM   C13S11689   1.129   4.300   5.494  0.2516 -0.6462 -0.2192
  113OSM   H13S11690   1.118   4.359   5.401 -0.4002 -0.3910  0.0063
  113OSM   H13T11691   1.026   4.268   5.524  0.1501 -0.2480 -0.1391
  113OSM   C14S11692   1.214   4.166   5.472 -0.1701 -0.3693 -0.1945
  113OSM   H14S11693   1.214   4.115   5.570  0.1301  2.6586  1.5207
  113OSM   H14T11694   1.321   4.195   5.463 -0.3958  0.7225  0.4233
  113OSM   C15S11695   1.153   4.084   5.364 -0.6803  0.2442  0.8590
  113OSM   H15S11696   1.208   3.990   5.341 -0.2064 -0.0295  2.8969
  113OSM   H15T11697   1.151   4.137   5.267 -0.7933 -1.6434 -0.2181
  113OSM   C16S11698   1.004   4.054   5.371  0.6711  0.5932  0.2297
  113OSM   H16S11699   0.952   4.151   5.354  1.9342  0.9018 -2.5549
  113OSM   H16T11700   0.975   4.022   5.473 -0.9278 -1.2471 -0.7203
  113OSM   C17S11701   0.960   3.937   5.281 -0.0997  0.2722  0.4255
  113OSM   H17S11702   1.019   3.849   5.315 -1.0123  0.3827  2.4266
  113OSM   H17T11703   0.983   3.961   5.175  1.8408 -1.9227  0.2755
  113OSM   C18S11704   0.809   3.902   5.289  0.1730 -0.2322  0.7602
  113OSM   H18S11705   0.780   3.858   5.387 -0.7667  0.0168  0.5994
  113OSM   H18T11706   0.779   3.833   5.208 -0.1814 -0.0486  0.7348
  113OSM   H18U11707   0.756   3.995   5.260 -2.1827 -1.9590 -0.7717
  113OSM    C1F11708   1.524   3.861   6.443 -0.4314  0.3743  0.5504
  113OSM     OF11709   1.418   3.801   6.440 -0.4202 -0.1453 -0.1404
  113OSM    C2F11710   1.643   3.808   6.370 -0.0888 -0.2169  0.1235
  113OSM    H2F11711   1.694   3.729   6.429 -1.1523 -1.4043 -0.4925
  113OSM    H2G11712   1.723   3.885   6.364  0.7573 -1.1051 -0.4084
  113OSM    C3F11713   1.619   3.749   6.231  0.3106 -0.7649 -0.0052
  113OSM    H3F11714   1.577   3.834   6.174  1.8661  0.1341  0.1394
  113OSM    H3G11715   1.549   3.663   6.242 -0.7758 -0.2214 -2.0726
  113OSM    C4F11716   1.746   3.691   6.151  0.3204  0.5065 -1.3589
  113OSM    H4F11717   1.765   3.587   6.184 -0.7304  0.4282 -0.9854
  113OSM    H4G11718   1.821   3.764   6.190 -0.6760  1.0838 -0.4490
  113OSM    C5F11719   1.726   3.708   5.999 -0.0272 -0.0733 -0.6673
  113OSM    H5F11720   1.817   3.680   5.941 -0.0710  0.0976 -0.8208
  113OSM    H5G11721   1.703   3.814   5.975 -3.0629  0.0682  2.1774
  113OSM    C6F11722   1.599   3.645   5.936 -0.2653  0.1454  0.0167
  113OSM    H6F11723   1.594   3.693   5.836 -1.1702 -0.9093 -0.4593
  113OSM    H6G11724   1.511   3.690   5.988  0.3164  1.3584 -0.0004
  113OSM    C7F11725   1.602   3.492   5.922  0.1746 -0.1026  0.5524
  113OSM    H7F11726   1.494   3.471   5.942 -0.3275 -1.5192 -2.8726
  113OSM    H7G11727   1.661   3.438   5.999  0.5088 -0.0527  0.3288
  113OSM    C8F11728   1.624   3.447   5.772  0.1817 -0.2360  0.7167
  113OSM    H8F11729   1.554   3.512   5.715  0.1072  1.0996  2.2419
  113OSM    H8G11730   1.581   3.345   5.764 -1.4523  0.5072 -0.5960
  113OSM    C9F11731   1.763   3.446   5.720 -0.3804 -0.2268  0.9129
  113OSM    H9F11732   1.844   3.411   5.786 -1.0403  1.1242  2.4972
  113OSM   C10F11733   1.805   3.493   5.603  0.2790 -0.2879 -0.3680
  113OSM   H10F11734   1.914   3.494   5.586  0.0509  0.7032 -2.0936
  113OSM   C11F11735   1.722   3.564   5.498  0.3065  0.2715  0.2351
  113OSM   H11F11736   1.781   3.640   5.441  0.7776 -0.0176  0.3283
  113OSM   H11G11737   1.647   3.622   5.555  1.3806  0.9501  1.0081
  113OSM   C12F11738   1.652   3.467   5.394 -0.1645  0.4608  0.4741
  113OSM   H12F11739   1.608   3.377   5.443 -2.0658  2.1344  2.0297
  113OSM   H12G11740   1.727   3.429   5.321 -2.2634  1.7737 -2.5924
  113OSM   C13F11741   1.537   3.544   5.319 -0.6893  0.0135  0.1074
  113OSM   H13F11742   1.502   3.629   5.381  0.5246  2.0030 -1.8077
  113OSM   H13G11743   1.450   3.479   5.296  0.5161 -1.2070 -1.2356
  113OSM   C14F11744   1.585   3.605   5.188 -0.5210  0.4221  0.0032
  113OSM   H14F11745   1.629   3.528   5.121 -2.3192 -1.9612  1.4027
  113OSM   H14G11746   1.670   3.673   5.209 -1.1091  1.8097 -1.8224
  113OSM   C15F11747   1.477   3.687   5.118  0.1337  0.3326 -0.4032
  113OSM   H15F11748   1.513   3.736   5.025  1.3508  1.0048  0.3963
  113OSM   H15G11749   1.445   3.765   5.190  0.5370  0.0174  0.1287
  113OSM   C16F11750   1.363   3.598   5.063 -0.1581  0.7223 -0.1836
  113OSM   H16F11751   1.311   3.546   5.146  1.1218  0.2322  0.3377
  113OSM   H16G11752   1.413   3.519   5.003  3.9436  2.0560  1.2104
  113OSM   C17F11753   1.261   3.666   4.973 -0.0113  0.5432  0.1924
  113OSM   H17F11754   1.196   3.600   4.912 -1.0885  1.9098 -0.2000
  113OSM   H17G11755   1.316   3.729   4.900  0.9523  1.5958  1.7460
  113OSM   C18F11756   1.180   3.770   5.053 -0.0746  0.0638  0.1984
  113OSM   H18F11757   1.088   3.806   5.001  0.6036  1.6787  0.0641
  113OSM   H18G11758   1.241   3.863   5.065  0.3069 -0.2109  0.3843
  113OSM   H18H11759   1.161   3.728   5.154  0.5886 -2.1374 -0.5543
  114OSM      N11760   1.444   1.489   7.460 -0.7395  0.7165 -0.4803
  114OSM    C1511761   1.402   1.481   7.319  0.1423 -0.0980  0.2802
  114OSM   H15A11762   1.373   1.576   7.276  0.0068 -0.5243 -0.5985
  114OSM   H15B11763   1.321   1.411   7.307 -2.0410  2.0086  1.7920
  114OSM   H15C11764   1.482   1.449   7.253 -1.0272  0.8462 -1.6747
  114OSM    C1411765   1.349   1.582   7.532  0.0773  0.1547  0.1774
  114OSM   H14A11766   1.373   1.683   7.503 -1.3916  0.7571  0.9215
  114OSM   H14B11767   1.352   1.563   7.638  1.9381  0.5407  0.2298
  114OSM   H14C11768   1.245   1.574   7.502 -0.3396  0.9130  1.3508
  114OSM    C1311769   1.425   1.350   7.516  0.4022  0.4581  0.2676
  114OSM   H13A11770   1.482   1.284   7.452  1.4638 -0.4880  2.0955
  114OSM   H13B11771   1.320   1.328   7.511 -0.4065  3.8060  0.4133
  114OSM   H13C11772   1.467   1.336   7.615  0.4785 -3.0132 -0.1228
  114OSM    C1211773   1.593   1.525   7.470 -0.1654  0.6744  0.4858
  114OSM   H12A11774   1.617   1.542   7.574 -0.9930  2.1267  0.4525
  114OSM   H12B11775   1.624   1.616   7.421 -0.4741  0.6923  0.3265
  114OSM    C1111776   1.695   1.419   7.421  0.5723  0.2218  0.6926
  114OSM   H11A11777   1.665   1.317   7.452 -1.7021  0.9930  1.1959
  114OSM   H11B11778   1.796   1.431   7.464  1.3435  0.0819 -0.9857
  114OSM      P11779   1.762   1.518   7.184 -0.9471 -0.3308 -0.1734
  114OSM    O1311780   1.653   1.579   7.105 -0.2636 -0.0443  0.3027
  114OSM    O1411781   1.849   1.609   7.262  0.0491  0.6692 -0.4324
  114OSM    O1111782   1.861   1.438   7.089  0.2300  0.2725 -0.1622
  114OSM    O1211783   1.690   1.406   7.273 -0.2759 -0.5876 -0.5568
  114OSM    C1S11784   1.818   1.357   6.982  0.4080 -0.5378  0.4642
  114OSM    H1S11785   1.709   1.353   6.962  0.8502 -1.3842 -2.2310
  114OSM    H1T11786   1.841   1.249   6.994 -0.3217 -0.8694 -0.8819
  114OSM     NF11787   1.824   1.357   6.731 -0.1949 -0.7225  0.0381
  114OSM    HNF11788   1.850   1.262   6.717 -2.1933 -1.9338  3.3021
  114OSM    C2S11789   1.893   1.411   6.847  1.4386 -0.0718 -0.4765
  114OSM    H2S11790   1.897   1.521   6.830  0.6141 -0.3724 -2.9966
  114OSM    C3S11791   2.046   1.373   6.851 -0.1692  0.6487 -0.0582
  114OSM    H3S11792   2.063   1.265   6.871  1.0070  1.0381  1.1972
  114OSM     O311793   2.104   1.425   6.972 -0.3433  0.1886  0.3441
  114OSM    HO311794   2.027   1.446   7.025 -0.1964  4.1488 -0.6959
  114OSM    C4S11795   2.131   1.402   6.733  0.6872 -0.0247  0.6397
  114OSM    H4S11796   2.149   1.309   6.675  0.6158 -0.1497  0.8184
  114OSM    C5S11797   2.190   1.520   6.697  0.1674 -0.3502  0.1689
  114OSM    H5S11798   2.169   1.611   6.754 -0.8061 -0.7274  0.4340
  114OSM    C6S11799   2.283   1.536   6.573 -0.0459 -0.1073 -0.4725
  114OSM    H6S11800   2.319   1.438   6.535  1.1327 -0.2211  0.8576
  114OSM    H6T11801   2.376   1.582   6.613  0.0255 -1.2458  0.7535
  114OSM    C7S11802   2.221   1.608   6.449  0.4012 -0.3962 -0.4903
  114OSM    H7S11803   2.187   1.711   6.473 -1.7165 -0.6434 -2.1178
  114OSM    H7T11804   2.135   1.540   6.427 -0.1233  0.3389 -0.7394
  114OSM    C8S11805   2.318   1.614   6.338 -0.8008 -0.5841  0.2648
  114OSM    H8S11806   2.353   1.510   6.322 -2.8733 -1.5010  1.3464
  114OSM    H8T11807   2.408   1.677   6.357 -0.4929 -0.8642 -0.2520
  114OSM    C9S11808   2.261   1.664   6.199 -0.2204  0.3612 -0.8815
  114OSM    H9S11809   2.239   1.770   6.222 -1.2050 -0.2684  1.3394
  114OSM    H9T11810   2.166   1.613   6.173 -0.4454  0.3373 -0.0558
  114OSM   C10S11811   2.360   1.654   6.077 -0.1126 -0.7051 -0.0233
  114OSM   H10S11812   2.394   1.550   6.062  0.5526 -0.4368 -0.3982
  114OSM   H10T11813   2.446   1.712   6.116 -0.7231 -0.7624  1.4665
  114OSM   C11S11814   2.308   1.727   5.956 -0.0104  0.1944 -0.1678
  114OSM   H11S11815   2.276   1.830   5.983  2.0623  0.7126  0.4871
  114OSM   H11T11816   2.222   1.668   5.919  0.5131 -0.6609 -0.0574
  114OSM   C12S11817   2.418   1.752   5.851 -0.0375 -0.1359 -0.0363
  114OSM   H12S11818   2.481   1.661   5.848 -0.8098 -0.6630 -1.3787
  114OSM   H12T11819   2.474   1.845   5.874 -1.1716  0.3027  1.0824
  114OSM   C13S11820   2.366   1.775   5.710  0.4359 -0.7502  0.3469
  114OSM   H13S11821   2.315   1.873   5.702  1.3001 -0.3821 -1.0913
  114OSM   H13T11822   2.298   1.689   5.688 -0.3192 -0.5737  1.8965
  114OSM   C14S11823   2.478   1.785   5.612  0.3803  0.2938 -0.2873
  114OSM   H14S11824   2.540   1.693   5.617 -0.5648 -0.2961  1.3470
  114OSM   H14T11825   2.544   1.874   5.626 -1.5674  1.6403  0.7506
  114OSM   C15S11826   2.415   1.819   5.472  0.5498  0.6672 -0.3053
  114OSM   H15S11827   2.494   1.853   5.402 -0.2397  1.7251 -0.6971
  114OSM   H15T11828   2.334   1.893   5.485  0.2223 -0.0209  2.0513
  114OSM   C16S11829   2.341   1.705   5.389  0.1952 -1.4048 -0.4675
  114OSM   H16S11830   2.326   1.610   5.445 -1.0187 -0.4216  0.9649
  114OSM   H16T11831   2.406   1.683   5.302  0.9370 -1.3380  0.0584
  114OSM   C17S11832   2.203   1.740   5.345 -0.2570 -0.5879  0.0136
  114OSM   H17S11833   2.199   1.829   5.279 -3.0934  0.1590  1.0311
  114OSM   H17T11834   2.148   1.767   5.437 -0.9638  0.7006 -0.7531
  114OSM   C18S11835   2.138   1.628   5.265 -0.3511 -0.0643 -0.3482
  114OSM   H18S11836   2.207   1.594   5.186 -0.3207  0.4304 -0.5387
  114OSM   H18T11837   2.040   1.656   5.222 -0.1811 -1.3728 -1.6563
  114OSM   H18U11838   2.120   1.548   5.341 -3.5357  0.7974 -0.0580
  114OSM    C1F11839   1.716   1.406   6.678  0.1916 -0.4279 -0.5967
  114OSM     OF11840   1.669   1.510   6.721 -0.7288 -0.3565 -0.0601
  114OSM    C2F11841   1.656   1.331   6.568  0.1392 -0.5803  0.2294
  114OSM    H2F11842   1.558   1.294   6.605  0.1323 -0.9897 -0.1836
  114OSM    H2G11843   1.723   1.242   6.569  2.5467  1.1234  1.4417
  114OSM    C3F11844   1.658   1.412   6.442  0.3048 -0.4273 -0.5947
  114OSM    H3F11845   1.760   1.452   6.431  0.1026  0.1973 -0.2197
  114OSM    H3G11846   1.586   1.495   6.457 -1.5025 -1.9479 -0.4652
  114OSM    C4F11847   1.609   1.335   6.319 -0.5241 -0.2721 -0.0986
  114OSM    H4F11848   1.502   1.317   6.340 -1.1043  4.3454  2.2383
  114OSM    H4G11849   1.675   1.245   6.316 -0.3890 -0.3803  2.8917
  114OSM    C5F11850   1.626   1.422   6.190 -1.2465 -0.1689  1.0616
  114OSM    H5F11851   1.734   1.449   6.182 -1.4752  0.8471  1.3131
  114OSM    H5G11852   1.577   1.521   6.200 -1.8081 -0.2693 -0.4751
  114OSM    C6F11853   1.579   1.352   6.063  0.3515  0.3671  0.4305
  114OSM    H6F11854   1.474   1.319   6.081  0.3945 -0.2513 -0.3997
  114OSM    H6G11855   1.644   1.265   6.040 -0.0719  0.5835 -1.7729
  114OSM    C7F11856   1.596   1.445   5.940 -0.0896  0.0805 -0.0756
  114OSM    H7F11857   1.696   1.489   5.924  0.1587 -0.3920  0.1815
  114OSM    H7G11858   1.518   1.524   5.954  0.4432  0.4303  0.9794
  114OSM    C8F11859   1.561   1.365   5.814 -0.1329  0.6178 -0.1376
  114OSM    H8F11860   1.466   1.312   5.831  1.8038 -3.1551 -0.0672
  114OSM    H8G11861   1.633   1.281   5.806  0.5565  1.1496  0.3536
  114OSM    C9F11862   1.539   1.466   5.701  0.2537  0.2653  0.3556
  114OSM    H9F11863   1.531   1.573   5.727 -1.4591  0.1190  0.5078
  114OSM   C10F11864   1.513   1.430   5.580  0.4352  0.6317  0.3470
  114OSM   H10F11865   1.479   1.503   5.505 -2.5194 -0.5745  0.4040
  114OSM   C11F11866   1.506   1.290   5.526 -0.1511 -0.1070 -0.2396
  114OSM   H11F11867   1.422   1.276   5.453  0.7621 -0.7899 -1.1870
  114OSM   H11G11868   1.479   1.228   5.614 -0.1695  1.3443  0.8110
  114OSM   C12F11869   1.638   1.229   5.475 -0.0813 -0.3375 -0.4889
  114OSM   H12F11870   1.729   1.236   5.538 -0.6424 -1.6213  0.5104
  114OSM   H12G11871   1.652   1.269   5.372  0.4719 -0.2260 -0.3761
  114OSM   C13F11872   1.620   1.075   5.459 -0.0498  0.2306 -0.2542
  114OSM   H13F11873   1.533   1.052   5.393  0.3258 -1.2595 -0.2722
  114OSM   H13G11874   1.608   1.028   5.559  0.6634  1.5136  0.4608
  114OSM   C14F11875   1.740   1.011   5.393 -0.4341 -0.4352  0.1591
  114OSM   H14F11876   1.825   1.022   5.463  0.9019  1.2782 -1.6095
  114OSM   H14G11877   1.776   1.066   5.303  2.3997  1.2980  2.1880
  114OSM   C15F11878   1.713   0.865   5.355 -0.2074  0.6783 -0.5568
  114OSM   H15F11879   1.623   0.857   5.292 -2.4521 -0.4302  2.5140
  114OSM   H15G11880   1.682   0.820   5.452 -1.0726 -1.3799 -1.7321
  114OSM   C16F11881   1.831   0.803   5.282  1.1566 -0.5183  0.5120
  114OSM   H16F11882   1.928   0.801   5.336  1.0777  0.6661  0.7290
  114OSM   H16G11883   1.863   0.868   5.198  1.1781  0.4299  1.2373
  114OSM   C17F11884   1.803   0.664   5.229 -0.0089  0.8917  0.0755
  114OSM   H17F11885   1.893   0.632   5.172  1.5226  2.1185  1.7057
  114OSM   H17G11886   1.719   0.677   5.158 -0.3572 -0.2368  0.2614
  114OSM   C18F11887   1.758   0.559   5.333 -0.3991  0.1955  0.3585
  114OSM   H18F11888   1.661   0.590   5.378 -0.8196 -0.4010 -0.1065
  114OSM   H18G11889   1.834   0.531   5.408  1.7204  0.3539 -1.5974
  114OSM   H18H11890   1.732   0.467   5.276  1.4224  0.5546 -1.1342
  115OSM      N11891   6.508   5.007   6.929 -0.5666  0.0775  0.2076
  115OSM    C1511892   6.424   5.101   7.009 -0.0551  0.6366 -0.6338
  115OSM   H15A11893   6.324   5.064   7.021  0.0651  0.4746 -0.0860
  115OSM   H15B11894   6.426   5.187   6.943  1.3142  1.5823  0.5533
  115OSM   H15C11895   6.470   5.116   7.106 -1.0742 -3.2249  0.6034
  115OSM    C1411896   6.516   4.870   6.988  0.2216 -0.6790 -0.3486
  115OSM   H14A11897   6.561   4.886   7.085  0.3174  0.5717 -0.5861
  115OSM   H14B11898   6.572   4.802   6.927  2.9877 -0.0396  1.3270
  115OSM   H14C11899   6.415   4.833   7.003 -0.0149 -0.5225 -1.4798
  115OSM    C1311900   6.464   4.997   6.789 -0.0082 -0.7718  0.1342
  115OSM   H13A11901   6.536   4.945   6.727 -0.3948 -0.1707 -0.8524
  115OSM   H13B11902   6.457   5.098   6.749  0.3055 -1.3228 -1.3857
  115OSM   H13C11903   6.365   4.954   6.785 -0.2105 -0.2500 -1.8749
  115OSM    C1211904   6.649   5.063   6.930  0.1581  0.0569  0.5820
  115OSM   H12A11905   6.713   4.976   6.925 -0.2022 -0.4195  3.1019
  115OSM   H12B11906   6.669   5.106   7.027 -0.4929  0.3403  0.5971
  115OSM    C1111907   6.679   5.166   6.826 -0.0258 -0.7501 -0.0414
  115OSM   H11A11908   6.673   5.126   6.722  0.8109 -0.6194 -0.1479
  115OSM   H11B11909   6.789   5.186   6.831 -0.4474  1.6424  0.7873
  115OSM      P11910   6.639   5.406   6.912 -0.3055 -0.2750 -0.2285
  115OSM    O1311911   6.522   5.496   6.934 -0.5434 -0.0357  0.0081
  115OSM    O1411912   6.706   5.356   7.036  0.2821  0.2159  0.3647
  115OSM    O1111913   6.744   5.483   6.819 -0.6819  0.6236 -0.4016
  115OSM    O1211914   6.597   5.282   6.826 -0.3134  0.3400 -0.1207
  115OSM    C1S11915   6.744   5.457   6.678 -0.1909  0.5308 -1.0569
  115OSM    H1S11916   6.642   5.486   6.645 -1.1798 -0.3034  1.0938
  115OSM    H1T11917   6.766   5.350   6.657 -1.4017 -0.2165  1.1579
  115OSM     NF11918   6.832   5.534   6.465 -0.2573 -0.0409 -0.3114
  115OSM    HNF11919   6.889   5.468   6.415  1.8610  0.7392  0.9625
  115OSM    C2S11920   6.847   5.540   6.604 -0.1814  0.1881  0.1330
  115OSM    H2S11921   6.816   5.643   6.633  0.0424 -0.2552  2.1089
  115OSM    C3S11922   6.995   5.508   6.655  0.5459  0.0137 -0.1121
  115OSM    H3S11923   7.006   5.400   6.630  1.2036 -0.2262  1.1177
  115OSM     O311924   7.012   5.502   6.795  0.3339  0.2381  0.5101
  115OSM    HO311925   6.922   5.491   6.824  1.3380 -1.7490  3.3282
  115OSM    C4S11926   7.096   5.594   6.578 -0.3802  0.9508  0.4760
  115OSM    H4S11927   7.132   5.551   6.483 -1.8831  0.7637 -0.0219
  115OSM    C5S11928   7.140   5.717   6.602 -0.7828  0.3011  0.8856
  115OSM    H5S11929   7.102   5.764   6.694 -0.0454  1.1642  0.7635
  115OSM    C6S11930   7.227   5.799   6.513 -0.2526  0.2431  0.0620
  115OSM    H6S11931   7.327   5.813   6.559 -0.8669 -1.8482  2.2269
  115OSM    H6T11932   7.178   5.899   6.518  0.0195  0.3934 -0.2433
  115OSM    C7S11933   7.238   5.759   6.363  0.4299 -0.5000  0.5586
  115OSM    H7S11934   7.255   5.650   6.358 -2.2416 -0.9872  0.4616
  115OSM    H7T11935   7.319   5.814   6.310 -1.6144  0.1036 -2.1905
  115OSM    C8S11936   7.112   5.793   6.287  0.6552  0.3152 -0.1166
  115OSM    H8S11937   7.076   5.897   6.302 -1.0739  0.0361 -1.9820
  115OSM    H8T11938   7.038   5.726   6.334 -0.2990  2.1667  1.1318
  115OSM    C9S11939   7.123   5.775   6.140 -0.1031  0.6292  0.1704
  115OSM    H9S11940   7.027   5.801   6.091 -0.0167 -1.4191 -1.2197
  115OSM    H9T11941   7.139   5.665   6.127 -0.0683  0.5265  1.0584
  115OSM   C10S11942   7.230   5.861   6.060 -0.2242 -0.2148 -0.2507
  115OSM   H10S11943   7.332   5.818   6.069 -0.3338 -1.5226 -3.7090
  115OSM   H10T11944   7.226   5.967   6.092  0.6057  0.4822 -2.3231
  115OSM   C11S11945   7.195   5.874   5.907 -0.6900  0.1133  0.1760
  115OSM   H11S11946   7.269   5.944   5.861 -0.3229 -0.9286 -0.8746
  115OSM   H11T11947   7.095   5.919   5.889 -0.4071  1.3377  1.4539
  115OSM   C12S11948   7.204   5.748   5.820 -0.3184 -0.2696  0.1113
  115OSM   H12S11949   7.118   5.681   5.842 -1.8060  1.3830 -0.4461
  115OSM   H12T11950   7.299   5.697   5.846 -0.0072 -0.5662 -1.5092
  115OSM   C13S11951   7.203   5.776   5.668  0.0307 -0.1709 -0.0164
  115OSM   H13S11952   7.297   5.832   5.648  0.0795 -0.3118 -0.1764
  115OSM   H13T11953   7.117   5.838   5.637  0.9329  1.0523 -0.1286
  115OSM   C14S11954   7.198   5.638   5.608 -0.4203  0.1868 -0.0351
  115OSM   H14S11955   7.093   5.602   5.606 -0.9024  1.3748  1.7053
  115OSM   H14T11956   7.241   5.573   5.688  1.0096  0.8436 -0.2422
  115OSM   C15S11957   7.258   5.623   5.467  0.3591  0.4930  0.5670
  115OSM   H15S11958   7.265   5.513   5.454 -1.6662  0.5162 -1.5084
  115OSM   H15T11959   7.356   5.674   5.458 -0.2763  1.3136 -3.3108
  115OSM   C16S11960   7.184   5.683   5.344  0.4758  0.4962 -0.0916
  115OSM   H16S11961   7.146   5.786   5.357 -0.4956  0.3344 -1.4345
  115OSM   H16T11962   7.103   5.612   5.319  0.5354  0.6278 -0.6736
  115OSM   C17S11963   7.282   5.675   5.224  0.0171  0.2597  0.2872
  115OSM   H17S11964   7.335   5.577   5.219 -1.4669 -0.5085 -2.8339
  115OSM   H17T11965   7.356   5.758   5.221  3.3567 -2.5113 -0.3062
  115OSM   C18S11966   7.198   5.679   5.097  0.4469 -0.5930  0.3628
  115OSM   H18S11967   7.138   5.587   5.080  1.5692 -0.9029 -2.5002
  115OSM   H18T11968   7.265   5.691   5.009 -1.4201 -1.7273 -1.3257
  115OSM   H18U11969   7.129   5.765   5.108 -2.7172 -2.9139  0.4242
  115OSM    C1F11970   6.733   5.605   6.408 -0.1347  0.5371  0.4359
  115OSM     OF11971   6.649   5.661   6.477  0.5526  0.3128  0.0784
  115OSM    C2F11972   6.719   5.599   6.258 -0.6212 -0.3149 -0.4695
  115OSM    H2F11973   6.635   5.529   6.238 -0.5789 -0.5039 -0.0121
  115OSM    H2G11974   6.810   5.565   6.204  0.5542  5.0228 -2.4847
  115OSM    C3F11975   6.686   5.737   6.194  0.1024  0.2809  0.9127
  115OSM    H3F11976   6.754   5.816   6.234 -1.4853  2.7457 -0.9956
  115OSM    H3G11977   6.581   5.771   6.208  0.3540  0.6294  2.1460
  115OSM    C4F11978   6.726   5.742   6.042  0.0409  0.3364 -0.2999
  115OSM    H4F11979   6.835   5.724   6.024 -0.1594  0.4031 -1.7299
  115OSM    H4G11980   6.694   5.839   5.998 -0.6548 -0.0408 -0.6504
  115OSM    C5F11981   6.649   5.641   5.963  0.2937  0.6591  0.0059
  115OSM    H5F11982   6.540   5.648   5.980  0.5629  1.3836  1.6036
  115OSM    H5G11983   6.677   5.536   5.985  0.4157  0.0619 -2.6828
  115OSM    C6F11984   6.665   5.667   5.811 -0.0561  0.3023  0.2932
  115OSM    H6F11985   6.729   5.756   5.795  0.1451  0.1561  0.2778
  115OSM    H6G11986   6.568   5.705   5.772  0.9266  1.5332 -1.0527
  115OSM    C7F11987   6.716   5.552   5.724  1.3699 -0.3027  0.6283
  115OSM    H7F11988   6.629   5.489   5.695  1.7244 -0.1703 -0.7597
  115OSM    H7G11989   6.776   5.479   5.783  0.6513 -3.3280 -2.0911
  115OSM    C8F11990   6.789   5.592   5.596 -0.3385 -0.8419  0.3423
  115OSM    H8F11991   6.840   5.505   5.549 -0.0344  0.1856 -1.3159
  115OSM    H8G11992   6.860   5.673   5.621 -2.0427  0.3974  1.3783
  115OSM    C9F11993   6.681   5.637   5.498  0.6110  0.2854  0.0182
  115OSM    H9F11994   6.649   5.741   5.517 -3.8539 -1.0396  0.9228
  115OSM   C10F11995   6.629   5.580   5.384 -0.2744  0.2949 -0.5922
  115OSM   H10F11996   6.545   5.632   5.335 -1.6821  1.8913  3.1877
  115OSM   C11F11997   6.645   5.433   5.347 -0.5482 -0.2702 -0.2925
  115OSM   H11F11998   6.601   5.364   5.423 -0.5370 -1.3693 -1.2604
  115OSM   H11G11999   6.751   5.406   5.365 -0.4522  0.0133 -0.4223
  115OSM   C12F12000   6.616   5.392   5.201 -0.4587 -0.0691  0.0502
  115OSM   H12F12001   6.575   5.479   5.145 -0.1182  0.2880  0.3485
  115OSM   H12G12002   6.534   5.317   5.203  1.1989 -1.9658  0.9090
  115OSM   C13F12003   6.739   5.343   5.119  0.0609 -0.5806  0.0773
  115OSM   H13F12004   6.770   5.240   5.146 -0.0936 -0.6196  0.1059
  115OSM   H13G12005   6.822   5.415   5.137 -0.0868 -0.0648 -1.1918
  115OSM   C14F12006   6.705   5.362   4.970 -0.8287  0.2034 -0.1753
  115OSM   H14F12007   6.806   5.366   4.924  0.0552  2.2420  1.7539
  115OSM   H14G12008   6.663   5.464   4.957  0.2334  0.5317 -1.2154
  115OSM   C15F12009   6.629   5.239   4.915 -0.0956  0.0849  0.5907
  115OSM   H15F12010   6.554   5.206   4.990  0.1953 -1.5027  0.2153
  115OSM   H15G12011   6.709   5.163   4.913 -0.2849 -0.1722  2.1891
  115OSM   C16F12012   6.565   5.255   4.776  0.8133  1.0052 -0.0671
  115OSM   H16F12013   6.557   5.365   4.759 -0.2959  1.0692  0.7577
  115OSM   H16G12014   6.458   5.227   4.786  1.0228  0.6155  1.4410
  115OSM   C17F12015   6.641   5.189   4.660 -0.6000  0.1396 -0.3691
  115OSM   H17F12016   6.580   5.215   4.571 -1.7792  0.0240  0.3791
  115OSM   H17G12017   6.635   5.082   4.686  1.7455  0.4124  1.6832
  115OSM   C18F12018   6.792   5.232   4.645  0.6136  0.1531 -0.0810
  115OSM   H18F12019   6.831   5.200   4.546  0.7255 -0.0111  0.0161
  115OSM   H18G12020   6.852   5.180   4.723 -2.3979 -1.0074  1.6386
  115OSM   H18H12021   6.794   5.342   4.662 -1.6527  0.6677 -2.5376
  116OSM      N12022   2.635   3.117   7.391 -0.2573 -0.0023  0.2271
  116OSM    C1512023   2.775   3.056   7.411 -0.4077  0.1375  0.3513
  116OSM   H15A12024   2.817   3.083   7.507 -1.2987 -0.1994  0.8428
  116OSM   H15B12025   2.847   3.099   7.343 -0.3396 -0.8403 -0.2167
  116OSM   H15C12026   2.769   2.949   7.406  0.0409  0.0608  1.2430
  116OSM    C1412027   2.552   3.064   7.505 -0.4047  0.3968 -0.1241
  116OSM   H14A12028   2.537   2.958   7.504  3.6237 -0.3354  0.5233
  116OSM   H14B12029   2.455   3.112   7.512 -0.7572 -0.4493  1.0858
  116OSM   H14C12030   2.594   3.100   7.598 -2.0185  0.1700  0.7327
  116OSM    C1312031   2.644   3.263   7.391  1.1672 -0.4477 -0.3690
  116OSM   H13A12032   2.553   3.308   7.355  1.2471  0.4114  0.4487
  116OSM   H13B12033   2.724   3.303   7.332 -0.8034  2.0067 -1.5524
  116OSM   H13C12034   2.656   3.293   7.494 -2.4746 -3.1086  1.0702
  116OSM    C1212035   2.572   3.067   7.259 -0.3206 -0.6902 -0.5120
  116OSM   H12A12036   2.639   3.118   7.190 -0.0308 -1.1575 -0.5778
  116OSM   H12B12037   2.475   3.113   7.252  0.1862  0.3960 -0.7949
  116OSM    C1112038   2.583   2.913   7.227 -0.5296 -0.0650 -0.2660
  116OSM   H11A12039   2.692   2.893   7.226  0.0403  2.6604 -1.1047
  116OSM   H11B12040   2.542   2.897   7.125 -0.2625  0.3127 -0.4337
  116OSM      P12041   2.360   2.841   7.342 -0.1231  0.6195 -0.0137
  116OSM    O1312042   2.334   2.796   7.479  0.1402  0.1837 -0.0390
  116OSM    O1412043   2.298   2.963   7.286  0.6696 -0.0177  0.3223
  116OSM    O1112044   2.335   2.714   7.247  0.0616  0.2355 -0.6322
  116OSM    O1212045   2.516   2.843   7.329  0.5253 -0.0920  0.2768
  116OSM    C1S12046   2.225   2.712   7.153 -0.3701  0.1538 -0.2551
  116OSM    H1S12047   2.158   2.800   7.151 -0.4022  0.1553  0.5622
  116OSM    H1T12048   2.160   2.625   7.174 -1.1768  0.7123 -0.3757
  116OSM     NF12049   2.192   2.733   6.904 -0.0483  1.1966  0.1722
  116OSM    HNF12050   2.160   2.661   6.844 -0.8535 -0.2338  2.1986
  116OSM    C2S12051   2.283   2.692   7.011  0.4010  0.1715  0.7936
  116OSM    H2S12052   2.363   2.767   6.997  3.4173 -3.1147 -1.4487
  116OSM    C3S12053   2.351   2.556   6.995 -0.3290  0.0515  0.0724
  116OSM    H3S12054   2.269   2.481   6.991 -2.1783  2.0336 -1.7450
  116OSM     O312055   2.443   2.523   7.099 -0.1335 -0.0212 -0.0714
  116OSM    HO312056   2.427   2.589   7.168  1.6677 -0.5125  0.8760
  116OSM    C4S12057   2.430   2.563   6.868  1.1651  0.4662 -0.0923
  116OSM    H4S12058   2.499   2.649   6.863  0.1346  1.4511  1.4115
  116OSM    C5S12059   2.427   2.474   6.769 -0.1510  0.5158 -0.5543
  116OSM    H5S12060   2.352   2.394   6.769  1.2967 -0.9000 -1.2979
  116OSM    C6S12061   2.511   2.481   6.646  0.2739 -0.3442  0.2404
  116OSM    H6S12062   2.534   2.384   6.596  0.1386  0.7454 -2.0855
  116OSM    H6T12063   2.604   2.535   6.673 -0.1560 -0.0229  1.0975
  116OSM    C7S12064   2.441   2.565   6.536 -0.1151  0.1388  1.0498
  116OSM    H7S12065   2.421   2.668   6.572  1.8233  0.8802  0.1240
  116OSM    H7T12066   2.350   2.515   6.497  0.1655 -1.0226  1.8377
  116OSM    C8S12067   2.538   2.564   6.409  0.4594 -0.0155 -0.1080
  116OSM    H8S12068   2.579   2.462   6.398  0.5954 -0.4305  3.2795
  116OSM    H8T12069   2.620   2.632   6.439 -0.3242  1.0149 -0.2406
  116OSM    C9S12070   2.463   2.620   6.287  0.0063 -0.3777 -0.3307
  116OSM    H9S12071   2.410   2.714   6.310 -0.9114 -1.3829  1.8747
  116OSM    H9T12072   2.383   2.549   6.256 -0.7688  0.2067  0.2920
  116OSM   C10S12073   2.558   2.643   6.167 -1.1363 -0.2835 -0.2041
  116OSM   H10S12074   2.615   2.549   6.152 -1.1814 -0.0625 -1.9284
  116OSM   H10T12075   2.630   2.726   6.186 -0.2931 -1.0341 -0.0047
  116OSM   C11S12076   2.489   2.672   6.030  1.1598  0.0237  0.3631
  116OSM   H11S12077   2.417   2.756   6.041 -1.0884 -1.8998  1.2382
  116OSM   H11T12078   2.433   2.581   5.998  2.0395  0.6441 -3.4009
  116OSM   C12S12079   2.577   2.679   5.906 -0.6875 -0.4992 -0.3365
  116OSM   H12S12080   2.628   2.581   5.896  1.1540  0.4535 -0.7620
  116OSM   H12T12081   2.645   2.766   5.915  0.0250 -1.0268 -0.5363
  116OSM   C13S12082   2.497   2.710   5.783 -0.0907 -0.3227  0.1409
  116OSM   H13S12083   2.443   2.805   5.799  1.2915  1.0802 -2.7424
  116OSM   H13T12084   2.420   2.631   5.771 -1.3764  0.5405  2.1544
  116OSM   C14S12085   2.584   2.742   5.659  0.2258  0.0620  0.7026
  116OSM   H14S12086   2.637   2.646   5.639 -1.5662 -0.8760  0.2541
  116OSM   H14T12087   2.657   2.823   5.679  0.9569 -0.8698  1.9225
  116OSM   C15S12088   2.502   2.784   5.530 -0.0740 -1.0221  0.5344
  116OSM   H15S12089   2.576   2.822   5.456  0.6234 -3.0938  0.1071
  116OSM   H15T12090   2.440   2.872   5.557  0.2694 -0.4563 -0.4570
  116OSM   C16S12091   2.431   2.667   5.460  0.4621  0.6378  0.5802
  116OSM   H16S12092   2.345   2.642   5.526  0.9027 -1.8179  0.3114
  116OSM   H16T12093   2.494   2.576   5.451 -0.6154 -0.2733  1.8263
  116OSM   C17S12094   2.399   2.703   5.317  0.7850 -0.0846  0.8404
  116OSM   H17S12095   2.496   2.718   5.265  0.0374  0.2661 -0.5163
  116OSM   H17T12096   2.345   2.799   5.299 -2.1369 -1.6625  0.6142
  116OSM   C18S12097   2.327   2.605   5.231  0.0789  0.4987  0.1620
  116OSM   H18S12098   2.385   2.510   5.234  0.4691  0.6900 -0.7249
  116OSM   H18T12099   2.341   2.638   5.125  1.0534 -1.1193 -0.2482
  116OSM   H18U12100   2.222   2.580   5.254  0.7939 -3.9059 -0.4885
  116OSM    C1F12101   2.146   2.854   6.883 -0.1593 -0.0356 -0.3559
  116OSM     OF12102   2.151   2.939   6.971  0.1083 -0.4315  0.5954
  116OSM    C2F12103   2.092   2.888   6.747 -0.0512 -0.2350 -0.2799
  116OSM    H2F12104   1.989   2.923   6.766  0.5977  1.3313  0.6083
  116OSM    H2G12105   2.094   2.797   6.683 -0.5583  0.3521 -1.1572
  116OSM    C3F12106   2.168   3.012   6.705  0.1104 -0.8865  0.1568
  116OSM    H3F12107   2.148   3.097   6.774 -2.4323 -1.3308  0.0398
  116OSM    H3G12108   2.128   3.041   6.606  2.0928 -1.4267 -0.8581
  116OSM    C4F12109   2.327   2.986   6.688  0.7116  0.2723 -0.2656
  116OSM    H4F12110   2.331   2.892   6.628  1.1741  0.0424  0.1152
  116OSM    H4G12111   2.377   2.971   6.786  0.5854  0.2618 -0.2034
  116OSM    C5F12112   2.396   3.085   6.601 -0.2664  0.2365  0.3526
  116OSM    H5F12113   2.452   3.148   6.674 -2.2358  0.8515  1.4003
  116OSM    H5G12114   2.314   3.154   6.573 -1.1723 -1.1025 -0.4286
  116OSM    C6F12115   2.494   3.039   6.480 -0.1332  0.0574 -0.5260
  116OSM    H6F12116   2.528   3.125   6.419 -0.8978  0.1657 -0.8202
  116OSM    H6G12117   2.430   2.980   6.411  0.5693  0.2056 -1.3050
  116OSM    C7F12118   2.605   2.945   6.531 -0.0674 -0.1251  0.9323
  116OSM    H7F12119   2.558   2.851   6.565 -0.0093 -0.2317  0.7209
  116OSM    H7G12120   2.650   2.983   6.625  0.0900  0.3480  0.6736
  116OSM    C8F12121   2.714   2.939   6.419  0.9853  0.0618 -0.4575
  116OSM    H8F12122   2.658   2.910   6.328  0.1609 -1.3854  0.4611
  116OSM    H8G12123   2.793   2.865   6.444 -0.8557 -0.9245  3.1560
  116OSM    C9F12124   2.786   3.063   6.393  0.4063  0.5044  0.1923
  116OSM    H9F12125   2.802   3.129   6.480 -0.1108 -0.6087  1.1685
  116OSM   C10F12126   2.840   3.097   6.270  0.0948  0.7783  0.1529
  116OSM   H10F12127   2.893   3.193   6.278 -0.8658  1.4566 -1.3492
  116OSM   C11F12128   2.831   3.041   6.133  0.7682  0.7579  0.4899
  116OSM   H11F12129   2.809   3.118   6.055 -1.5488  0.3302  0.6389
  116OSM   H11G12130   2.758   2.958   6.121  0.2663  1.3999 -1.3318
  116OSM   C12F12131   2.962   2.974   6.081  0.1097  0.0193  0.1503
  116OSM   H12F12132   2.933   2.910   5.995  0.7259  0.1429 -0.1555
  116OSM   H12G12133   3.007   2.908   6.158 -0.6895 -1.9694 -1.0061
  116OSM   C13F12134   3.067   3.065   6.027 -0.0445 -0.3157 -0.6309
  116OSM   H13F12135   3.116   3.113   6.114 -2.4236 -1.2692  1.3534
  116OSM   H13G12136   3.025   3.136   5.953 -0.8683 -0.1770 -0.0376
  116OSM   C14F12137   3.183   2.991   5.943  0.1471 -0.6663 -0.8135
  116OSM   H14F12138   3.170   2.888   5.983  1.2301 -0.1298  1.0336
  116OSM   H14G12139   3.277   3.041   5.976 -1.0535  0.3343  1.3780
  116OSM   C15F12140   3.171   2.988   5.797 -0.4164  0.4997  0.1885
  116OSM   H15F12141   3.251   2.920   5.761  1.3567  1.7048  1.6742
  116OSM   H15G12142   3.200   3.086   5.753  0.5859  0.1854  0.1196
  116OSM   C16F12143   3.038   2.931   5.736  0.3335  0.1563  0.0843
  116OSM   H16F12144   2.958   2.986   5.789  0.7803 -1.1440  2.2308
  116OSM   H16G12145   3.044   2.822   5.756  1.0643  0.4054  1.2975
  116OSM   C17F12146   3.037   2.941   5.588 -1.2903  0.4316  0.3363
  116OSM   H17F12147   3.129   2.887   5.560 -1.6331 -0.7467  1.3776
  116OSM   H17G12148   3.055   3.049   5.569  0.5428  0.4279  1.7366
  116OSM   C18F12149   2.918   2.893   5.506 -0.0349 -1.0209 -0.0941
  116OSM   H18F12150   2.833   2.961   5.531  0.4955  0.0018 -0.9788
  116OSM   H18G12151   2.875   2.796   5.540 -0.7330 -0.6491  0.1081
  116OSM   H18H12152   2.940   2.896   5.397  3.5103  1.4657  0.5115
  117OSM      N12153   1.196   5.491   7.666 -0.6851 -0.6092 -0.0586
  117OSM    C1512154   1.286   5.401   7.753  0.4415 -0.2896 -0.7950
  117OSM   H15A12155   1.234   5.352   7.834 -0.4402  0.9579 -0.5616
  117OSM   H15B12156   1.369   5.455   7.796 -0.5114  0.0956  0.6639
  117OSM   H15C12157   1.327   5.328   7.685 -0.9448 -2.3579  0.4797
  117OSM    C1412158   1.075   5.409   7.644 -0.4530  0.0344  0.1620
  117OSM   H14A12159   1.019   5.388   7.734 -1.4461  2.5272  0.2005
  117OSM   H14B12160   1.099   5.312   7.601  0.5269 -0.1828  1.1279
  117OSM   H14C12161   1.011   5.458   7.573 -0.2646  0.2981  0.1734
  117OSM    C1312162   1.149   5.617   7.732  1.1057  0.4964 -0.0204
  117OSM   H13A12163   1.071   5.601   7.804  0.4272 -0.2503 -0.9026
  117OSM   H13B12164   1.096   5.672   7.655 -0.8777 -0.7650  0.3897
  117OSM   H13C12165   1.236   5.674   7.762  2.1047  0.2769 -2.2296
  117OSM    C1212166   1.277   5.511   7.545  0.2235 -0.5127  0.9431
  117OSM   H12A12167   1.327   5.425   7.503  0.0879  0.1345 -0.6457
  117OSM   H12B12168   1.356   5.575   7.581 -0.0918  0.2570  0.2865
  117OSM    C1112169   1.212   5.568   7.422 -0.2136 -0.5113  0.4551
  117OSM   H11A12170   1.146   5.653   7.451  1.9451  1.4418 -0.1246
  117OSM   H11B12171   1.147   5.493   7.372 -0.1164 -0.8820  0.8741
  117OSM      P12172   1.379   5.499   7.241 -0.2217  0.5892 -0.2008
  117OSM    O1312173   1.505   5.541   7.174 -0.1473 -0.3999  0.4759
  117OSM    O1412174   1.395   5.376   7.321  0.0985  0.4242  0.2231
  117OSM    O1112175   1.260   5.466   7.135 -0.0582 -0.4568 -0.1074
  117OSM    O1212176   1.321   5.609   7.339 -0.3182  0.6508  0.1369
  117OSM    C1S12177   1.203   5.566   7.056  0.1363  0.7465  0.0385
  117OSM    H1S12178   1.225   5.664   7.105  3.1495 -0.9547  2.4676
  117OSM    H1T12179   1.093   5.550   7.059  0.0865  1.1592  1.4295
  117OSM     NF12180   1.225   5.699   6.852  0.4571 -0.2952 -0.2597
  117OSM    HNF12181   1.159   5.710   6.779  0.7390  2.3797 -0.1837
  117OSM    C2S12182   1.259   5.574   6.910 -0.2684 -0.3181  0.0268
  117OSM    H2S12183   1.370   5.574   6.916 -0.0671  3.3790 -1.2082
  117OSM    C3S12184   1.212   5.456   6.833  0.2930 -0.1527  0.1963
  117OSM    H3S12185   1.101   5.462   6.832  0.3526  3.2655 -0.0319
  117OSM     O312186   1.242   5.335   6.899  0.4362  0.1894 -0.0109
  117OSM    HO312187   1.226   5.358   6.990  0.4183  1.5924 -0.3434
  117OSM    C4S12188   1.262   5.459   6.683 -0.4532 -0.8242 -1.1437
  117OSM    H4S12189   1.218   5.541   6.624 -1.4625  0.3787  1.1509
  117OSM    C5S12190   1.349   5.370   6.636  0.1543  0.1615 -0.4836
  117OSM    H5S12191   1.409   5.312   6.709  3.2558  2.4907 -0.9649
  117OSM    C6S12192   1.388   5.363   6.485 -0.1900  0.4816 -0.1187
  117OSM    H6S12193   1.391   5.256   6.454  0.5289  0.4710 -0.0395
  117OSM    H6T12194   1.493   5.398   6.476  0.5724 -1.8307 -0.8514
  117OSM    C7S12195   1.290   5.442   6.386  0.2338 -0.4790 -0.1051
  117OSM    H7S12196   1.265   5.545   6.418 -0.1114 -0.4319 -0.5187
  117OSM    H7T12197   1.191   5.393   6.374  0.3789 -0.6203 -0.7920
  117OSM    C8S12198   1.349   5.439   6.245  0.7436 -0.3271 -0.3293
  117OSM    H8S12199   1.392   5.339   6.221  0.4449 -0.5042 -0.1332
  117OSM    H8T12200   1.429   5.515   6.236 -0.7442  1.3920  0.2557
  117OSM    C9S12201   1.250   5.476   6.133  0.3751  0.8388  0.0122
  117OSM    H9S12202   1.205   5.578   6.136 -0.4929  0.4668 -0.1749
  117OSM    H9T12203   1.162   5.410   6.126  1.5074 -0.5691 -2.6016
  117OSM   C10S12204   1.307   5.464   5.993  0.8515 -0.3207  0.7086
  117OSM   H10S12205   1.391   5.392   5.983  0.2310 -0.7212 -2.9070
  117OSM   H10T12206   1.343   5.566   5.968 -0.7139 -0.1602 -1.0887
  117OSM   C11S12207   1.214   5.432   5.872  0.4606  0.1532  0.3477
  117OSM   H11S12208   1.119   5.489   5.877  0.8338  0.8949 -0.8155
  117OSM   H11T12209   1.207   5.321   5.874 -2.6385  0.1737 -2.3892
  117OSM   C12S12210   1.289   5.480   5.744  0.0215  0.1157 -0.0357
  117OSM   H12S12211   1.388   5.433   5.726  0.2610  1.0319 -1.2287
  117OSM   H12T12212   1.291   5.591   5.739  1.9924  0.1436  0.6034
  117OSM   C13S12213   1.196   5.439   5.624  0.3893  0.3633  0.4445
  117OSM   H13S12214   1.089   5.459   5.647 -0.1983 -0.7788 -1.0994
  117OSM   H13T12215   1.202   5.329   5.610 -0.0824  0.3109  0.6445
  117OSM   C14S12216   1.240   5.500   5.488 -0.7448 -0.6160 -0.4204
  117OSM   H14S12217   1.349   5.500   5.463 -1.1062 -0.8937 -2.1124
  117OSM   H14T12218   1.200   5.602   5.505 -2.4377 -1.2783 -0.2224
  117OSM   C15S12219   1.178   5.443   5.366  0.1359  0.4277  0.2276
  117OSM   H15S12220   1.076   5.414   5.399  0.3686 -0.3328  0.2991
  117OSM   H15T12221   1.239   5.350   5.353  0.5154  0.2602  2.6609
  117OSM   C16S12222   1.156   5.537   5.247  0.5326 -0.5196  0.6137
  117OSM   H16S12223   1.242   5.606   5.239 -0.5565  0.5976 -3.3629
  117OSM   H16T12224   1.058   5.589   5.259 -0.6830 -1.9754 -2.1535
  117OSM   C17S12225   1.132   5.461   5.113  0.3149 -0.0941 -0.7840
  117OSM   H17S12226   1.037   5.403   5.109 -0.5619  1.1586  0.7537
  117OSM   H17T12227   1.210   5.383   5.102  0.5900  0.2027 -0.9758
  117OSM   C18S12228   1.137   5.561   4.991  0.9213 -0.2644  0.3337
  117OSM   H18S12229   1.234   5.610   4.967  0.2254  1.4392  0.8205
  117OSM   H18T12230   1.079   5.648   5.028  0.7330 -0.9541  1.6961
  117OSM   H18U12231   1.092   5.521   4.898  0.1648  1.1668  0.0420
  117OSM    C1F12232   1.277   5.816   6.892 -0.2871  0.5853 -0.6894
  117OSM     OF12233   1.382   5.810   6.962  0.5581  0.1404  0.1646
  117OSM    C2F12234   1.215   5.948   6.858 -0.1258  0.4428  0.5170
  117OSM    H2F12235   1.162   5.996   6.943  0.2844  1.2814  0.3140
  117OSM    H2G12236   1.124   5.926   6.798  1.3341  1.3761 -2.1908
  117OSM    C3F12237   1.324   6.032   6.786 -0.4470  1.1722 -0.6051
  117OSM    H3F12238   1.370   5.964   6.711 -1.0488 -1.4705  1.2434
  117OSM    H3G12239   1.403   6.047   6.863 -0.7221  0.8704 -0.2552
  117OSM    C4F12240   1.273   6.165   6.737  0.4590  0.1472  0.6613
  117OSM    H4F12241   1.251   6.232   6.823 -1.6682 -0.7834  0.8987
  117OSM    H4G12242   1.173   6.163   6.690 -0.7934  3.5328  2.8045
  117OSM    C5F12243   1.364   6.231   6.633 -0.2660  0.4392 -0.2008
  117OSM    H5F12244   1.457   6.279   6.671 -0.0895  0.0321 -0.1112
  117OSM    H5G12245   1.311   6.314   6.582  1.9513  0.2785 -2.9791
  117OSM    C6F12246   1.421   6.141   6.522 -0.1738 -0.2458 -0.3188
  117OSM    H6F12247   1.342   6.076   6.481 -1.9723  1.6033  0.0756
  117OSM    H6G12248   1.497   6.074   6.570 -0.9616 -0.4791  0.6342
  117OSM    C7F12249   1.497   6.215   6.405 -0.1061 -0.0016 -0.2244
  117OSM    H7F12250   1.605   6.194   6.421  0.0482  1.5961  1.0750
  117OSM    H7G12251   1.480   6.324   6.419  1.5405  0.6267 -2.5177
  117OSM    C8F12252   1.453   6.173   6.261  0.8407  0.7398  0.6648
  117OSM    H8F12253   1.344   6.184   6.247  0.5890 -1.6100  0.4741
  117OSM    H8G12254   1.483   6.067   6.250 -2.7264 -0.2260 -1.0364
  117OSM    C9F12255   1.525   6.265   6.166  0.7930  0.2941  0.0179
  117OSM    H9F12256   1.615   6.295   6.221  0.3765  0.4534  0.6305
  117OSM   C10F12257   1.493   6.300   6.043 -0.2289 -0.4627  0.1588
  117OSM   H10F12258   1.569   6.357   5.987 -0.3299 -0.2227  0.2663
  117OSM   C11F12259   1.371   6.265   5.966  0.0184  0.0006 -0.1067
  117OSM   H11F12260   1.298   6.349   5.966 -0.9715 -0.8407  0.7243
  117OSM   H11G12261   1.318   6.178   6.010 -0.1570  1.1025  1.9531
  117OSM   C12F12262   1.397   6.239   5.813 -0.0552  0.5044 -0.3087
  117OSM   H12F12263   1.303   6.206   5.764 -0.7301  1.9092 -0.0370
  117OSM   H12G12264   1.470   6.157   5.795 -0.2901  0.3845 -0.7125
  117OSM   C13F12265   1.451   6.364   5.741 -0.4930 -0.2477 -0.3916
  117OSM   H13F12266   1.543   6.401   5.791 -1.6631  0.0285  1.7067
  117OSM   H13G12267   1.376   6.442   5.768  0.0143  0.1862 -0.2102
  117OSM   C14F12268   1.457   6.373   5.585  0.0931  0.6963  0.0062
  117OSM   H14F12269   1.535   6.300   5.555  1.0309  1.2214  1.1093
  117OSM   H14G12270   1.488   6.475   5.553 -0.1686  0.4035 -1.2564
  117OSM   C15F12271   1.322   6.331   5.519 -0.1937 -0.6341  0.4505
  117OSM   H15F12272   1.247   6.411   5.539  0.2155  0.3640 -1.7440
  117OSM   H15G12273   1.273   6.242   5.566 -0.2362 -0.3356  0.9728
  117OSM   C16F12274   1.324   6.290   5.370  0.2320 -0.2991  0.0938
  117OSM   H16F12275   1.358   6.369   5.300  0.8500  0.0147  0.7414
  117OSM   H16G12276   1.217   6.261   5.356  0.0161 -1.5994  3.5198
  117OSM   C17F12277   1.394   6.157   5.342  0.2766 -0.3469  0.5682
  117OSM   H17F12278   1.348   6.091   5.419 -2.6991 -0.5466 -1.1970
  117OSM   H17G12279   1.503   6.159   5.360  0.7336  0.0595 -1.9297
  117OSM   C18F12280   1.355   6.107   5.199 -0.0861  0.0045  0.1699
  117OSM   H18F12281   1.250   6.073   5.207 -1.0189  2.6464  0.0612
  117OSM   H18G12282   1.423   6.024   5.170  0.4050  0.6374 -0.5583
  117OSM   H18H12283   1.360   6.181   5.116 -1.8921  1.1530  1.0455
  118OSM      N12284   1.431   5.007   7.173 -0.4099 -0.3487 -0.4531
  118OSM    C1512285   1.454   4.983   7.320 -0.5765  0.4081 -0.3304
  118OSM   H15A12286   1.549   5.023   7.350 -0.6148  0.4514 -0.2650
  118OSM   H15B12287   1.448   4.877   7.344 -1.1339  0.4922 -0.0608
  118OSM   H15C12288   1.383   5.053   7.363 -0.3237  1.3704 -1.4344
  118OSM    C1412289   1.459   5.149   7.140  0.6499  0.3981  0.2912
  118OSM   H14A12290   1.565   5.168   7.134  0.6257  0.0566 -2.2759
  118OSM   H14B12291   1.428   5.222   7.214 -1.8032 -0.7788  0.5340
  118OSM   H14C12292   1.419   5.177   7.043 -2.1255 -1.2217  0.8765
  118OSM    C1312293   1.513   4.914   7.090 -0.0076 -0.3068 -0.0964
  118OSM   H13A12294   1.614   4.948   7.107  0.1107 -0.3693 -0.6440
  118OSM   H13B12295   1.499   4.935   6.985  1.7522 -1.1987 -0.5301
  118OSM   H13C12296   1.500   4.808   7.102 -0.3566 -0.2628 -0.0523
  118OSM    C1212297   1.285   4.981   7.151  0.4434  0.0553 -0.2489
  118OSM   H12A12298   1.270   4.971   7.044  0.8400  1.3757 -0.4431
  118OSM   H12B12299   1.235   5.068   7.189  2.9011  1.1162  0.7288
  118OSM    C1112300   1.224   4.860   7.232  0.0554 -0.7839 -0.9577
  118OSM   H11A12301   1.116   4.859   7.210  0.1251 -0.7621 -1.3103
  118OSM   H11B12302   1.212   4.879   7.341  0.5155 -2.3600 -0.6122
  118OSM      P12303   1.317   4.627   7.299  0.3956 -0.1780  0.3019
  118OSM    O1312304   1.443   4.656   7.366  0.0476 -0.5809  0.3380
  118OSM    O1412305   1.201   4.588   7.377 -0.0739  0.7312 -0.0439
  118OSM    O1112306   1.339   4.505   7.204 -0.4297  0.3969  0.0217
  118OSM    O1212307   1.287   4.739   7.199  0.7207  0.2913  0.0541
  118OSM    C1S12308   1.292   4.477   7.069  0.0637 -0.5574  0.1818
  118OSM    H1S12309   1.187   4.512   7.057 -0.1707 -1.1047  0.6210
  118OSM    H1T12310   1.308   4.368   7.053  2.1851 -0.1565 -0.7448
  118OSM     NF12311   1.316   4.519   6.817 -0.5511  0.4399 -0.0510
  118OSM    HNF12312   1.356   4.445   6.762 -0.7188  0.8564 -0.7491
  118OSM    C2S12313   1.380   4.539   6.944 -0.6041 -0.4318 -0.7246
  118OSM    H2S12314   1.383   4.648   6.967 -0.8611 -0.6960  0.6972
  118OSM    C3S12315   1.522   4.483   6.950  0.2062 -0.7574 -0.2490
  118OSM    H3S12316   1.531   4.379   6.912  2.1950 -0.6279 -0.2614
  118OSM     O312317   1.574   4.471   7.079 -0.5893 -0.2941  0.3417
  118OSM    HO312318   1.495   4.476   7.133 -0.5565 -0.2426  0.3852
  118OSM    C4S12319   1.604   4.568   6.863 -0.0593 -0.1306  0.2894
  118OSM    H4S12320   1.607   4.675   6.888  0.0670  1.0558 -4.0744
  118OSM    C5S12321   1.672   4.535   6.759 -0.5164 -0.3878  0.3211
  118OSM    H5S12322   1.689   4.431   6.731  0.2052 -0.2863  0.3771
  118OSM    C6S12323   1.740   4.644   6.674  0.4079  0.5583  0.1320
  118OSM    H6S12324   1.850   4.631   6.677  0.4247 -0.0411 -1.6491
  118OSM    H6T12325   1.718   4.752   6.685  0.2036  0.5152  0.1423
  118OSM    C7S12326   1.695   4.605   6.535 -0.0947 -0.1750 -0.7337
  118OSM    H7S12327   1.586   4.620   6.521 -0.1657 -1.3145 -1.4598
  118OSM    H7T12328   1.731   4.502   6.517 -0.2703 -0.0327 -1.9644
  118OSM    C8S12329   1.768   4.690   6.429  0.1593  0.0047  0.2318
  118OSM    H8S12330   1.876   4.685   6.451  0.3178 -1.0956 -0.7144
  118OSM    H8T12331   1.742   4.795   6.455  0.4605 -0.0036  0.5723
  118OSM    C9S12332   1.724   4.649   6.287  0.0993 -0.2790  0.2478
  118OSM    H9S12333   1.614   4.650   6.275  0.2204  2.7129 -1.8978
  118OSM    H9T12334   1.758   4.545   6.269  2.3123  0.6823 -1.6774
  118OSM   C10S12335   1.789   4.735   6.173  0.7829  0.6955 -0.7278
  118OSM   H10S12336   1.894   4.757   6.203  0.2530  0.3301  1.5793
  118OSM   H10T12337   1.738   4.833   6.168 -0.8867  0.0380  1.7781
  118OSM   C11S12338   1.787   4.651   6.047  0.2367  0.9888  1.3408
  118OSM   H11S12339   1.692   4.595   6.037  0.3635  1.2198 -3.0564
  118OSM   H11T12340   1.866   4.573   6.049 -1.1493 -0.7989 -2.8562
  118OSM   C12S12341   1.788   4.736   5.918  0.4200  0.0277  0.3318
  118OSM   H12S12342   1.884   4.792   5.926  0.1209  0.5637  0.2062
  118OSM   H12T12343   1.714   4.818   5.928 -0.5863 -1.0548  2.3079
  118OSM   C13S12344   1.792   4.640   5.800 -0.8266 -0.0303  0.9549
  118OSM   H13S12345   1.705   4.571   5.805 -0.8893 -0.2101 -1.5275
  118OSM   H13T12346   1.875   4.567   5.808 -1.0684 -0.8674 -2.5137
  118OSM   C14S12347   1.793   4.721   5.663  0.4638  1.3811  0.8221
  118OSM   H14S12348   1.892   4.772   5.669  1.7795 -0.9727  0.3237
  118OSM   H14T12349   1.711   4.796   5.655 -1.0708 -0.3878 -1.3484
  118OSM   C15S12350   1.790   4.628   5.536  0.2498  0.7085  0.5845
  118OSM   H15S12351   1.858   4.541   5.523  0.5633  1.0221  0.1348
  118OSM   H15T12352   1.818   4.694   5.452 -2.6726  2.6293  0.9769
  118OSM   C16S12353   1.641   4.577   5.511  0.2810  0.6954 -0.2525
  118OSM   H16S12354   1.575   4.665   5.531  0.3594  0.3379  1.9029
  118OSM   H16T12355   1.597   4.508   5.587  1.8803  0.7967  0.8204
  118OSM   C17S12356   1.613   4.520   5.372 -0.7721 -0.2185  0.3666
  118OSM   H17S12357   1.691   4.442   5.360 -0.0703  0.0889  2.4567
  118OSM   H17T12358   1.626   4.594   5.290 -1.4815 -0.0488  0.4017
  118OSM   C18S12359   1.483   4.448   5.343  0.3734  0.2843 -0.0782
  118OSM   H18S12360   1.466   4.384   5.433  1.5640  0.8285  0.5599
  118OSM   H18T12361   1.489   4.388   5.250  1.2882 -1.5835  1.1305
  118OSM   H18U12362   1.406   4.528   5.333  0.9772  1.1659  1.8081
  118OSM    C1F12363   1.206   4.571   6.776 -0.2984  0.3774  0.0943
  118OSM     OF12364   1.167   4.666   6.831  0.0058  0.1623 -0.0976
  118OSM    C2F12365   1.131   4.497   6.665 -0.3307 -0.6219  0.4631
  118OSM    H2F12366   1.135   4.394   6.706 -1.4407 -1.3283 -1.0927
  118OSM    H2G12367   1.198   4.508   6.577 -0.3640 -0.3203  0.4737
  118OSM    C3F12368   0.985   4.554   6.645 -0.0904 -0.3384  0.1467
  118OSM    H3F12369   1.007   4.656   6.609  1.9850 -0.5759  0.6391
  118OSM    H3G12370   0.931   4.558   6.742  0.6007  0.1807  0.5164
  118OSM    C4F12371   0.887   4.485   6.546 -0.5786  1.0732  0.3607
  118OSM    H4F12372   0.790   4.540   6.551  1.2024  4.4305  0.4909
  118OSM    H4G12373   0.886   4.378   6.577  1.9444  1.0140  0.4000
  118OSM    C5F12374   0.957   4.463   6.409  0.4457 -0.1841 -0.2273
  118OSM    H5F12375   1.055   4.410   6.413  2.4930  3.2589 -0.7023
  118OSM    H5G12376   0.975   4.565   6.368  1.1660  0.0207  0.5542
  118OSM    C6F12377   0.882   4.381   6.306 -0.1892 -0.1717 -0.2098
  118OSM    H6F12378   0.784   4.428   6.284  0.7573  0.8477 -2.5906
  118OSM    H6G12379   0.858   4.287   6.359  0.3590 -0.9206 -1.2533
  118OSM    C7F12380   0.965   4.354   6.185  0.1950 -0.4111 -0.7777
  118OSM    H7F12381   1.044   4.281   6.211 -0.0056 -1.2445 -2.3660
  118OSM    H7G12382   1.020   4.443   6.148 -0.4968  2.5671  4.4751
  118OSM    C8F12383   0.885   4.293   6.068 -0.3864  0.2882  0.1737
  118OSM    H8F12384   0.945   4.284   5.975  0.9399 -0.1017  1.0417
  118OSM    H8G12385   0.806   4.364   6.035 -0.3597  0.4610  0.4821
  118OSM    C9F12386   0.827   4.157   6.102 -0.3749 -0.1692 -0.5977
  118OSM    H9F12387   0.899   4.074   6.113  0.3907  0.7688  2.0433
  118OSM   C10F12388   0.700   4.132   6.126  0.1057 -0.8633 -0.1065
  118OSM   H10F12389   0.669   4.029   6.149  2.7637 -1.9495 -0.8894
  118OSM   C11F12390   0.589   4.234   6.114 -0.6943 -0.1903 -0.1294
  118OSM   H11F12391   0.618   4.333   6.073 -0.8008  1.1443  2.7918
  118OSM   H11G12392   0.549   4.245   6.217  0.5394  0.3457  0.3117
  118OSM   C12F12393   0.475   4.182   6.030  0.9069 -0.3458  0.3850
  118OSM   H12F12394   0.412   4.273   6.021  2.4141  0.6793 -0.1881
  118OSM   H12G12395   0.425   4.099   6.085 -0.9478  0.4371 -0.0625
  118OSM   C13F12396   0.513   4.138   5.888  0.4043  0.0992 -0.1832
  118OSM   H13F12397   0.429   4.112   5.820  2.3576 -1.3528 -2.1808
  118OSM   H13G12398   0.563   4.039   5.891 -0.6145 -0.6513 -3.4173
  118OSM   C14F12399   0.603   4.239   5.816 -0.5867  0.0505  0.5888
  118OSM   H14F12400   0.708   4.227   5.849  0.6315  0.5527 -2.7109
  118OSM   H14G12401   0.544   4.331   5.836 -2.6958 -1.3537  1.1927
  118OSM   C15F12402   0.617   4.196   5.666 -0.2856  0.4420  0.2424
  118OSM   H15F12403   0.615   4.292   5.610 -0.3192  0.1929 -0.1850
  118OSM   H15G12404   0.519   4.149   5.641 -0.4777  0.5025  0.8685
  118OSM   C16F12405   0.729   4.096   5.627 -0.4810 -0.5012  0.0547
  118OSM   H16F12406   0.827   4.139   5.658 -0.8598  0.2376  0.2543
  118OSM   H16G12407   0.737   4.089   5.517  0.3584  1.9893 -0.0976
  118OSM   C17F12408   0.727   3.955   5.682  0.4399  0.1669  0.4517
  118OSM   H17F12409   0.735   3.962   5.792 -3.1814  0.9901  0.7730
  118OSM   H17G12410   0.821   3.902   5.653  1.1115  1.5265  0.0582
  118OSM   C18F12411   0.604   3.872   5.644  0.7546  0.1197  0.1062
  118OSM   H18F12412   0.512   3.904   5.698  1.1440  0.4975  0.5633
  118OSM   H18G12413   0.625   3.766   5.672 -0.0944  0.2933  1.5042
  118OSM   H18H12414   0.578   3.878   5.537  0.7408 -1.3195  0.0112
  119OSM      N12415   2.715   1.711   7.927 -0.1847 -0.4633 -0.5595
  119OSM    C1512416   2.593   1.786   7.881  0.6681  0.0232 -0.7933
  119OSM   H15A12417   2.578   1.870   7.947  0.7721 -1.8780  1.8075
  119OSM   H15B12418   2.511   1.716   7.883  0.6295  0.0837  0.7043
  119OSM   H15C12419   2.613   1.815   7.779 -0.6118  0.3360 -0.9731
  119OSM    C1412420   2.833   1.807   7.924  0.5381  0.6937  0.2180
  119OSM   H14A12421   2.843   1.825   7.818 -0.3906 -0.2794 -0.0530
  119OSM   H14B12422   2.922   1.756   7.960 -1.3285 -1.8342  1.5508
  119OSM   H14C12423   2.821   1.892   7.988 -0.0010  1.7092 -1.1788
  119OSM    C1312424   2.692   1.673   8.065  0.2417  0.8749  0.4816
  119OSM   H13A12425   2.778   1.628   8.113  0.9694  0.0863 -1.4558
  119OSM   H13B12426   2.611   1.608   8.092 -0.1199  1.1595  0.0877
  119OSM   H13C12427   2.668   1.762   8.122  0.1772  1.6239 -0.6834
  119OSM    C1212428   2.742   1.583   7.847 -0.2725 -0.3855  0.3364
  119OSM   H12A12429   2.665   1.507   7.853 -0.1609 -0.8215 -2.5107
  119OSM   H12B12430   2.835   1.541   7.883  0.1672  0.8661  0.6948
  119OSM    C1112431   2.768   1.600   7.696  0.0588 -0.4876 -0.3037
  119OSM   H11A12432   2.679   1.642   7.645  1.3433 -0.2708 -2.4670
  119OSM   H11B12433   2.789   1.500   7.653  0.1698 -0.5121 -0.1946
  119OSM      P12434   3.023   1.644   7.680 -0.3661 -0.5724  0.1278
  119OSM    O1312435   3.112   1.760   7.675 -0.0871 -0.3432 -0.1664
  119OSM    O1412436   3.034   1.566   7.804  0.0698  0.2071 -0.1407
  119OSM    O1112437   3.047   1.553   7.552  0.6923 -0.2358  0.0092
  119OSM    O1212438   2.875   1.692   7.655  0.2769 -0.1112 -0.4267
  119OSM    C1S12439   3.045   1.624   7.425  0.3071 -0.4460  0.2712
  119OSM    H1S12440   3.120   1.706   7.422 -1.0221  0.8709  1.1500
  119OSM    H1T12441   2.941   1.658   7.405  0.1230 -2.1060 -1.9005
  119OSM     NF12442   3.107   1.616   7.200 -0.1663  0.2717 -0.4471
  119OSM    HNF12443   3.043   1.633   7.125  0.1140 -0.3725 -0.8446
  119OSM    C2S12444   3.064   1.529   7.313 -0.6701 -1.1251 -0.5891
  119OSM    H2S12445   3.139   1.453   7.344 -1.4365 -1.7201 -0.1621
  119OSM    C3S12446   2.936   1.443   7.291  0.0843 -0.5936  0.2727
  119OSM    H3S12447   2.854   1.514   7.268  0.7588 -0.4103 -1.8081
  119OSM     O312448   2.896   1.380   7.404 -0.0197 -0.0569 -0.6126
  119OSM    HO312449   2.916   1.433   7.482  0.7646 -3.1890  1.5258
  119OSM    C4S12450   2.958   1.348   7.178  0.2978 -0.0789  0.3577
  119OSM    H4S12451   3.023   1.262   7.199 -0.9148 -1.3276 -0.8469
  119OSM    C5S12452   2.910   1.357   7.052  0.6280 -0.1624 -0.3745
  119OSM    H5S12453   2.844   1.441   7.029  0.8097 -0.2530 -1.2503
  119OSM    C6S12454   2.944   1.265   6.942 -0.8333 -0.3847  0.1100
  119OSM    H6S12455   2.861   1.190   6.944 -1.0384 -0.1557  1.8742
  119OSM    H6T12456   3.032   1.201   6.964  2.1577  2.9728 -1.0271
  119OSM    C7S12457   2.976   1.342   6.807 -0.2114 -0.0251  0.4279
  119OSM    H7S12458   2.999   1.262   6.733  1.8938  0.1470  0.8429
  119OSM    H7T12459   3.076   1.384   6.829 -0.6880  1.0141  0.6415
  119OSM    C8S12460   2.886   1.452   6.747  0.3771  0.3346 -0.5643
  119OSM    H8S12461   2.940   1.514   6.672  2.4300  0.0703  0.6205
  119OSM    H8T12462   2.863   1.523   6.830  0.9043 -0.8132  0.5985
  119OSM    C9S12463   2.762   1.383   6.695 -0.2811  0.3281 -0.2809
  119OSM    H9S12464   2.705   1.332   6.775  3.4472 -0.9897  1.7707
  119OSM    H9T12465   2.790   1.301   6.626 -1.6098 -0.4646  0.1066
  119OSM   C10S12466   2.668   1.486   6.617 -0.2325  0.7671 -0.5540
  119OSM   H10S12467   2.682   1.587   6.661  1.2905  0.3716 -0.0842
  119OSM   H10T12468   2.565   1.455   6.643  0.4916 -0.6250  0.8282
  119OSM   C11S12469   2.685   1.483   6.465 -0.5187 -0.3075  0.5104
  119OSM   H11S12470   2.787   1.507   6.429 -0.8505 -0.5601 -0.6320
  119OSM   H11T12471   2.624   1.569   6.430  0.8423  0.7359  0.6191
  119OSM   C12S12472   2.627   1.351   6.408 -0.6199 -0.3708 -0.9318
  119OSM   H12S12473   2.524   1.343   6.447  0.6687 -0.4370  2.9245
  119OSM   H12T12474   2.684   1.261   6.442  0.8026 -0.2806 -2.8797
  119OSM   C13S12475   2.625   1.344   6.254 -0.4052  0.2038 -0.4955
  119OSM   H13S12476   2.734   1.330   6.234  0.6110  1.9279  3.0749
  119OSM   H13T12477   2.597   1.435   6.196 -0.7574  1.8051  2.0577
  119OSM   C14S12478   2.543   1.234   6.193  0.0792  0.0649  0.5729
  119OSM   H14S12479   2.438   1.258   6.219 -0.6199 -0.8582 -1.2176
  119OSM   H14T12480   2.550   1.136   6.244 -0.2665  0.7952  2.0899
  119OSM   C15S12481   2.577   1.229   6.041  0.3878  0.1847  0.7079
  119OSM   H15S12482   2.686   1.225   6.019  0.1009 -0.7392 -0.6211
  119OSM   H15T12483   2.550   1.323   5.988 -1.4639 -1.6410 -1.8390
  119OSM   C16S12484   2.515   1.098   5.984 -0.2424 -0.1632 -0.1044
  119OSM   H16S12485   2.426   1.072   6.046 -0.8148  3.1606  0.6381
  119OSM   H16T12486   2.593   1.019   5.994  0.3733  0.5803  1.2367
  119OSM   C17S12487   2.460   1.109   5.842  0.3852 -0.9147 -0.2958
  119OSM   H17S12488   2.550   1.143   5.785  1.3099  1.9324  2.5392
  119OSM   H17T12489   2.380   1.187   5.846  1.2120 -0.0801  0.6269
  119OSM   C18S12490   2.402   0.974   5.787  0.2458  0.1273  0.3001
  119OSM   H18S12491   2.480   0.899   5.762 -0.5852 -1.2145  1.5635
  119OSM   H18T12492   2.343   1.000   5.697  1.8846 -0.6121 -1.0627
  119OSM   H18U12493   2.327   0.933   5.857 -0.1486  0.2413 -0.0532
  119OSM    C1F12494   3.229   1.654   7.184  0.4395 -0.6178 -0.6198
  119OSM     OF12495   3.316   1.628   7.261  0.0200  0.0276 -0.6238
  119OSM    C2F12496   3.253   1.758   7.081 -0.6549  0.0382  0.0062
  119OSM    H2F12497   3.286   1.858   7.116  0.2276  0.7776 -2.7069
  119OSM    H2G12498   3.153   1.774   7.034 -0.5120 -1.1203 -0.7334
  119OSM    C3F12499   3.345   1.703   6.970 -0.1451  0.0773 -0.0056
  119OSM    H3F12500   3.438   1.656   7.009 -0.3015  0.3050  0.6613
  119OSM    H3G12501   3.375   1.794   6.915 -2.0790  0.0900 -1.1377
  119OSM    C4F12502   3.278   1.605   6.878 -0.3931 -0.2503  0.8143
  119OSM    H4F12503   3.169   1.628   6.874  0.1430  2.6736  0.3713
  119OSM    H4G12504   3.293   1.503   6.919 -0.1518 -0.7707 -0.4877
  119OSM    C5F12505   3.343   1.600   6.736 -1.2371 -0.5641  0.1654
  119OSM    H5F12506   3.448   1.567   6.747  0.2024  2.4422 -2.7950
  119OSM    H5G12507   3.347   1.691   6.673  1.7086  0.2126  1.3030
  119OSM    C6F12508   3.279   1.488   6.655  0.6297 -0.2497 -0.8366
  119OSM    H6F12509   3.169   1.506   6.655  0.9027  1.6985 -1.4529
  119OSM    H6G12510   3.299   1.399   6.718 -1.2190  0.7206  1.2879
  119OSM    C7F12511   3.328   1.471   6.510  0.3756  0.5733 -0.0148
  119OSM    H7F12512   3.438   1.471   6.528  0.6865 -0.1613 -1.6720
  119OSM    H7G12513   3.289   1.561   6.458 -2.4009 -0.1904  0.5648
  119OSM    C8F12514   3.276   1.340   6.443 -1.0060 -0.7129 -0.1086
  119OSM    H8F12515   3.290   1.262   6.520 -0.2039 -0.8515 -0.3910
  119OSM    H8G12516   3.350   1.321   6.363 -0.6666  0.7369 -0.1567
  119OSM    C9F12517   3.136   1.348   6.392  0.9653  0.2089  0.3942
  119OSM    H9F12518   3.062   1.316   6.466  1.4222 -1.8307  0.0332
  119OSM   C10F12519   3.100   1.360   6.262 -0.4195  0.4722  0.7858
  119OSM   H10F12520   2.995   1.368   6.232 -0.7965 -1.2999  1.5277
  119OSM   C11F12521   3.197   1.395   6.152  0.1249  0.4982  0.0372
  119OSM   H11F12522   3.301   1.396   6.192 -0.0454 -1.6317  0.6595
  119OSM   H11G12523   3.170   1.498   6.123 -2.5333  0.2252  1.2639
  119OSM   C12F12524   3.192   1.303   6.026  0.0246 -0.4418 -0.2155
  119OSM   H12F12525   3.087   1.294   5.992 -0.9584  1.6287  1.9831
  119OSM   H12G12526   3.229   1.209   6.070 -1.9202  0.6090  4.1688
  119OSM   C13F12527   3.278   1.343   5.912  0.2562 -1.4140  1.0074
  119OSM   H13F12528   3.263   1.279   5.822 -1.8141  0.9208 -0.4441
  119OSM   H13G12529   3.385   1.336   5.941  0.6473 -0.8172 -0.1978
  119OSM   C14F12530   3.255   1.485   5.859  0.2174 -0.6927 -0.0117
  119OSM   H14F12531   3.267   1.553   5.946 -0.0673  1.3094 -1.4728
  119OSM   H14G12532   3.157   1.497   5.809  1.7681 -3.4091 -4.2602
  119OSM   C15F12533   3.358   1.533   5.756  0.6415 -0.0594  0.3657
  119OSM   H15F12534   3.462   1.526   5.796  0.1940  0.4490  1.6732
  119OSM   H15G12535   3.350   1.644   5.749 -0.0207  0.1131  3.1238
  119OSM   C16F12536   3.352   1.468   5.612 -0.3289  0.2297 -0.3017
  119OSM   H16F12537   3.376   1.361   5.625  3.5211  1.1899  2.3582
  119OSM   H16G12538   3.434   1.516   5.555 -0.7100  0.9631 -0.2460
  119OSM   C17F12539   3.223   1.493   5.540  0.7600  0.8578  0.0017
  119OSM   H17F12540   3.194   1.600   5.540 -1.3778  0.3400 -0.5925
  119OSM   H17G12541   3.136   1.445   5.591  1.6689 -0.6701  0.1545
  119OSM   C18F12542   3.230   1.457   5.390 -0.4093 -0.1211  0.5692
  119OSM   H18F12543   3.248   1.348   5.378  0.5738  0.0656  0.2237
  119OSM   H18G12544   3.323   1.505   5.352 -1.0519  3.0581  2.5678
  119OSM   H18H12545   3.142   1.484   5.328  2.1787  2.1385 -2.4785
  120OSM      N12546   5.401   0.550   7.184 -0.1239 -0.2839 -0.4447
  120OSM    C1512547   5.531   0.627   7.184  0.8189  0.2860  0.4787
  120OSM   H15A12548   5.540   0.705   7.109 -2.7369 -1.9278 -2.5803
  120OSM   H15B12549   5.619   0.568   7.165  1.9200  1.7293  0.9373
  120OSM   H15C12550   5.556   0.673   7.279  0.2784  0.2852  0.6272
  120OSM    C1412551   5.409   0.459   7.300 -0.8691 -0.2707  0.5125
  120OSM   H14A12552   5.405   0.508   7.396 -2.0094  1.0225 -0.1636
  120OSM   H14B12553   5.501   0.403   7.291 -1.7938 -2.1183  2.0145
  120OSM   H14C12554   5.325   0.391   7.296 -2.2173  1.3784 -2.5161
  120OSM    C1312555   5.290   0.649   7.219 -0.1362  0.5135 -0.0767
  120OSM   H13A12556   5.270   0.720   7.140 -0.9363  0.2852 -0.0991
  120OSM   H13B12557   5.319   0.707   7.305 -1.4109  1.6812 -0.3972
  120OSM   H13C12558   5.196   0.595   7.230 -1.2600  1.5940 -3.2073
  120OSM    C1212559   5.375   0.473   7.050 -0.4587  0.7168  0.3230
  120OSM   H12A12560   5.454   0.399   7.041 -2.9027 -2.2990  1.6182
  120OSM   H12B12561   5.377   0.550   6.975  2.9950 -1.3136 -2.0127
  120OSM    C1112562   5.245   0.388   7.038  0.0503 -0.4950 -0.3014
  120OSM   H11A12563   5.232   0.314   7.121 -0.6603 -1.8944 -1.6078
  120OSM   H11B12564   5.254   0.330   6.944 -0.8310  0.2141 -0.8301
  120OSM      P12565   5.096   0.559   6.902 -0.6261  0.3298 -0.0190
  120OSM    O1312566   4.958   0.595   6.909  0.1861 -0.7202  0.2146
  120OSM    O1412567   5.190   0.671   6.902 -0.0211 -0.2904 -0.1865
  120OSM    O1112568   5.114   0.466   6.778  0.0848  0.4716 -0.1891
  120OSM    O1212569   5.125   0.472   7.026 -0.3124  0.9191 -0.2821
  120OSM    C1S12570   5.033   0.352   6.754  0.0346 -0.4145 -0.2464
  120OSM    H1S12571   4.931   0.363   6.796 -0.2523 -2.7558 -0.2036
  120OSM    H1T12572   5.082   0.266   6.805 -1.3316 -0.8146  0.4188
  120OSM     NF12573   4.953   0.200   6.591 -0.0805 -0.3134  0.6286
  120OSM    HNF12574   5.008   0.117   6.588  0.4233  0.0461 -0.5854
  120OSM    C2S12575   5.034   0.324   6.601 -0.0556  0.0594 -0.5208
  120OSM    H2S12576   4.974   0.402   6.549 -0.3917 -0.8775 -1.5955
  120OSM    C3S12577   5.171   0.322   6.525 -0.6078  0.2718  0.7844
  120OSM    H3S12578   5.234   0.248   6.578  0.9074  1.8213  1.2311
  120OSM     O312579   5.249   0.440   6.550  0.2704  0.4528  0.0777
  120OSM    HO312580   5.202   0.471   6.628 -1.3283 -0.3149 -0.5342
  120OSM    C4S12581   5.150   0.280   6.384 -0.5124  0.6754  0.1929
  120OSM    H4S12582   5.136   0.171   6.373  0.5601  0.2845  2.1644
  120OSM    C5S12583   5.117   0.352   6.275  0.2553 -0.0495  0.0060
  120OSM    H5S12584   5.118   0.462   6.283  0.0189  0.0834 -1.4936
  120OSM    C6S12585   5.083   0.298   6.140  0.0375 -0.3144 -0.3072
  120OSM    H6S12586   4.975   0.302   6.116 -0.0898  0.8164  0.3910
  120OSM    H6T12587   5.097   0.187   6.137 -0.8173 -0.4653  0.7482
  120OSM    C7S12588   5.172   0.363   6.029  0.7109  0.1740  0.0678
  120OSM    H7S12589   5.281   0.353   6.047  0.2549 -4.4208  1.4070
  120OSM    H7T12590   5.158   0.473   6.034  2.8195  0.4406  1.2384
  120OSM    C8S12591   5.156   0.328   5.878  0.3193 -0.0242  0.1233
  120OSM    H8S12592   5.052   0.354   5.849  0.3907 -0.0053 -0.1173
  120OSM    H8T12593   5.164   0.218   5.863  0.3320 -0.1700  1.1332
  120OSM    C9S12594   5.253   0.387   5.776  0.9217  0.7383  0.4449
  120OSM    H9S12595   5.356   0.354   5.801  0.8829  1.9104  2.4112
  120OSM    H9T12596   5.243   0.497   5.780 -0.3885  0.7409 -1.5723
  120OSM   C10S12597   5.230   0.355   5.634  0.1966  0.5353 -0.4659
  120OSM   H10S12598   5.132   0.395   5.601 -1.5180 -0.5481  2.8900
  120OSM   H10T12599   5.223   0.245   5.619 -0.3914  0.4828  0.1689
  120OSM   C11S12600   5.338   0.413   5.540 -0.1192  0.6306  1.0066
  120OSM   H11S12601   5.436   0.369   5.568 -0.1768 -0.6221 -0.5595
  120OSM   H11T12602   5.352   0.522   5.551  1.5944  0.3999  1.4295
  120OSM   C12S12603   5.327   0.366   5.386 -0.4896  0.2106 -0.0368
  120OSM   H12S12604   5.243   0.426   5.347 -0.5763  0.0612 -0.0810
  120OSM   H12T12605   5.303   0.259   5.367 -0.3105  0.0105  0.7837
  120OSM   C13S12606   5.456   0.412   5.304 -0.0144 -0.1726  0.5917
  120OSM   H13S12607   5.542   0.343   5.322  2.3386  2.4597  0.2217
  120OSM   H13T12608   5.491   0.508   5.348 -0.2074  0.1237  0.1006
  120OSM   C14S12609   5.414   0.437   5.161  0.0201  0.2424  0.0752
  120OSM   H14S12610   5.355   0.531   5.164  2.0361  1.7302 -2.7391
  120OSM   H14T12611   5.357   0.348   5.126 -1.0109  0.4750  1.0807
  120OSM   C15S12612   5.522   0.448   5.056  0.7165  0.8290  0.5409
  120OSM   H15S12613   5.589   0.360   5.061 -0.5867 -0.2585 -0.5504
  120OSM   H15T12614   5.575   0.546   5.064  1.6248  0.3195  0.9174
  120OSM   C16S12615   5.467   0.442   4.913 -0.2877  1.2763  0.5222
  120OSM   H16S12616   5.402   0.353   4.905  2.0464 -0.4833  0.2287
  120OSM   H16T12617   5.559   0.430   4.852 -0.2561  2.8855  0.2156
  120OSM   C17S12618   5.404   0.572   4.866  1.1570  0.2566 -0.6683
  120OSM   H17S12619   5.475   0.656   4.849  1.9296 -0.5398 -1.4847
  120OSM   H17T12620   5.333   0.604   4.945  2.2815 -0.2748  0.5749
  120OSM   C18S12621   5.326   0.543   4.740 -0.1567  0.5993  0.5316
  120OSM   H18S12622   5.222   0.580   4.733 -0.2186  0.2761 -0.4047
  120OSM   H18T12623   5.330   0.433   4.725  0.6532  0.6457  0.3443
  120OSM   H18U12624   5.395   0.575   4.658  1.0944 -0.3279  1.1845
  120OSM    C1F12625   4.816   0.194   6.610  0.3582  0.2550 -0.2465
  120OSM     OF12626   4.756   0.296   6.630 -0.3483  0.1135 -0.5677
  120OSM    C2F12627   4.757   0.057   6.591 -0.0174 -0.4264 -0.6118
  120OSM    H2F12628   4.780  -0.000   6.682  2.0134  0.6797 -0.3679
  120OSM    H2G12629   4.799  -0.001   6.506  3.1013 -1.6008  1.5713
  120OSM    C3F12630   4.603   0.055   6.576  0.4138 -0.2351  1.0176
  120OSM    H3F12631   4.558   0.100   6.667  0.5429  0.8204  0.5663
  120OSM    H3G12632   4.562  -0.048   6.571 -3.1820  1.0802  0.1964
  120OSM    C4F12633   4.545   0.135   6.460 -0.3240 -0.0353  0.3098
  120OSM    H4F12634   4.589   0.237   6.457 -1.1596  0.4111  1.9778
  120OSM    H4G12635   4.435   0.143   6.477 -0.3585 -0.8828  0.5267
  120OSM    C5F12636   4.578   0.068   6.322 -0.0072 -0.3501  0.1902
  120OSM    H5F12637   4.534  -0.034   6.322 -3.3645  0.9528 -0.9284
  120OSM    H5G12638   4.688   0.064   6.310 -0.0878 -0.5559 -0.5251
  120OSM    C6F12639   4.516   0.156   6.208  0.0351 -0.3418 -0.0448
  120OSM    H6F12640   4.572   0.251   6.194  0.5125 -0.6868 -0.5121
  120OSM    H6G12641   4.407   0.175   6.222 -0.0234 -0.7911  0.1347
  120OSM    C7F12642   4.516   0.093   6.066 -0.2931  0.1235 -0.0358
  120OSM    H7F12643   4.463   0.153   5.989  1.5083 -0.5044 -1.8565
  120OSM    H7G12644   4.450   0.005   6.077 -0.3137  0.1656  0.1741
  120OSM    C8F12645   4.654   0.058   6.015  0.2194  0.5533 -0.4461
  120OSM    H8F12646   4.653  -0.030   5.948 -2.1692 -0.4801  0.8313
  120OSM    H8G12647   4.711   0.011   6.098 -0.4197 -0.5110 -0.5940
  120OSM    C9F12648   4.720   0.189   5.972  0.2733 -0.3005  0.1276
  120OSM    H9F12649   4.783   0.244   6.043  1.4477  1.8025 -2.3865
  120OSM   C10F12650   4.728   0.234   5.843  0.3516  0.0534 -1.0909
  120OSM   H10F12651   4.781   0.329   5.827 -2.0094  1.6813  0.1515
  120OSM   C11F12652   4.671   0.158   5.729  0.5100  0.6682  0.1324
  120OSM   H11F12653   4.565   0.133   5.749  0.7901  0.6904  1.8123
  120OSM   H11G12654   4.730   0.064   5.732 -1.1042 -0.3673  1.5276
  120OSM   C12F12655   4.694   0.217   5.587  0.2524  0.0463 -0.0391
  120OSM   H12F12656   4.708   0.138   5.511  1.1621  1.1898 -1.1003
  120OSM   H12G12657   4.792   0.268   5.584  0.5892 -0.6130 -0.4483
  120OSM   C13F12658   4.573   0.303   5.549 -0.0630  0.3088 -0.0988
  120OSM   H13F12659   4.566   0.386   5.622 -3.0044  1.0163 -1.0690
  120OSM   H13G12660   4.486   0.235   5.560  1.0770 -1.4532 -1.4027
  120OSM   C14F12661   4.579   0.370   5.411 -0.0907  0.5646  0.2102
  120OSM   H14F12662   4.674   0.427   5.425  0.5470 -0.4509  0.1495
  120OSM   H14G12663   4.486   0.427   5.396 -0.0145  0.5802 -0.2179
  120OSM   C15F12664   4.607   0.262   5.302 -0.2528 -0.2022  0.9531
  120OSM   H15F12665   4.557   0.171   5.341 -0.0642  0.6564  3.4240
  120OSM   H15G12666   4.716   0.254   5.283 -0.6762  0.5742 -2.2392
  120OSM   C16F12667   4.546   0.293   5.164  0.1120 -0.7190 -0.0562
  120OSM   H16F12668   4.610   0.380   5.142  0.2940 -0.4988  1.3030
  120OSM   H16G12669   4.441   0.328   5.163  0.1155 -0.5612 -2.8161
  120OSM   C17F12670   4.555   0.194   5.049 -0.0051 -0.3621  0.0046
  120OSM   H17F12671   4.477   0.117   5.068 -2.7646  2.5984  1.7819
  120OSM   H17G12672   4.654   0.144   5.046  0.4747  0.5390  0.2836
  120OSM   C18F12673   4.547   0.261   4.913 -0.1778 -0.2625  0.2684
  120OSM   H18F12674   4.448   0.294   4.874  0.7025  0.1701 -1.6934
  120OSM   H18G12675   4.577   0.194   4.829 -1.0692  0.6647 -0.8364
  120OSM   H18H12676   4.609   0.352   4.923 -0.0692 -0.5393  2.6558
  121OSM      N12677   1.726   2.835   7.081 -0.0359 -0.6785  0.3154
  121OSM    C1512678   1.579   2.842   7.099  0.4539  0.2652 -0.9092
  121OSM   H15A12679   1.530   2.789   7.019 -1.5057  0.1532  0.2766
  121OSM   H15B12680   1.531   2.937   7.118 -0.0948 -0.1470 -0.1585
  121OSM   H15C12681   1.565   2.781   7.188  2.2808  3.6009  1.9074
  121OSM    C1412682   1.777   2.886   6.946 -0.3867 -0.7649  0.4148
  121OSM   H14A12683   1.744   2.986   6.921  0.3576 -0.7927 -0.7860
  121OSM   H14B12684   1.736   2.841   6.857 -0.5001  0.0840  0.0364
  121OSM   H14C12685   1.885   2.888   6.937 -0.4586 -0.6932 -0.4700
  121OSM    C1312686   1.803   2.930   7.179  0.0102  0.0016  0.3440
  121OSM   H13A12687   1.763   3.028   7.162 -1.2679 -0.6117 -0.3376
  121OSM   H13B12688   1.908   2.925   7.152 -0.4151 -3.3051 -1.3029
  121OSM   H13C12689   1.802   2.894   7.281  0.3539 -0.6307  0.1366
  121OSM    C1212690   1.780   2.695   7.086 -0.1498 -0.5346 -0.3606
  121OSM   H12A12691   1.743   2.652   7.178 -0.9415 -0.1979 -0.5175
  121OSM   H12B12692   1.886   2.705   7.107  0.0570 -1.0626 -1.1033
  121OSM    C1112693   1.777   2.605   6.959 -0.9285 -0.8916 -0.5551
  121OSM   H11A12694   1.837   2.513   6.976  1.0526  0.5660  0.7267
  121OSM   H11B12695   1.832   2.656   6.877  0.7025 -1.6259  0.0510
  121OSM      P12696   1.547   2.472   6.986 -0.0728  0.4857  0.1090
  121OSM    O1312697   1.574   2.464   7.129 -0.0646  0.6533  0.3626
  121OSM    O1412698   1.410   2.493   6.941 -0.2922  0.1496  0.0200
  121OSM    O1112699   1.596   2.338   6.921 -0.6370  0.6776  0.2949
  121OSM    O1212700   1.643   2.576   6.915 -0.1735 -0.2586  1.1768
  121OSM    C1S12701   1.666   2.348   6.791  0.7353  0.7815  0.1378
  121OSM    H1S12702   1.759   2.406   6.809  0.3493  1.1196  1.1156
  121OSM    H1T12703   1.608   2.405   6.716 -0.8090 -1.8161 -0.7590
  121OSM     NF12704   1.767   2.209   6.601  0.5932  0.3427 -0.1259
  121OSM    HNF12705   1.721   2.211   6.513 -0.0842  3.1314  0.2257
  121OSM    C2S12706   1.679   2.210   6.716 -0.1569  0.3903 -0.4921
  121OSM    H2S12707   1.731   2.140   6.786  2.1537 -0.2883 -2.7386
  121OSM    C3S12708   1.539   2.140   6.693 -0.3378  0.9347  0.3647
  121OSM    H3S12709   1.477   2.209   6.633 -1.1267 -0.6885 -0.7749
  121OSM     O312710   1.471   2.120   6.817 -0.0718  0.4751  0.3374
  121OSM    HO312711   1.519   2.185   6.869 -1.4147  1.5698  0.2532
  121OSM    C4S12712   1.531   1.999   6.627  0.1355 -0.4759  0.6136
  121OSM    H4S12713   1.601   1.922   6.661 -1.7148 -1.9208  1.2761
  121OSM    C5S12714   1.455   1.960   6.522 -0.0017  0.6094  0.3594
  121OSM    H5S12715   1.381   2.022   6.470 -1.5177 -2.2103 -1.0449
  121OSM    C6S12716   1.459   1.820   6.477  0.4454  0.1636 -0.4481
  121OSM    H6S12717   1.361   1.773   6.501  0.9501 -0.4510  0.4632
  121OSM    H6T12718   1.538   1.766   6.533 -0.6113  0.2832  1.2338
  121OSM    C7S12719   1.478   1.789   6.331 -0.6281 -0.1795  0.2198
  121OSM    H7S12720   1.494   1.681   6.309  0.0843 -0.2019  0.8411
  121OSM    H7T12721   1.569   1.848   6.304 -1.3847  1.4034  0.9903
  121OSM    C8S12722   1.365   1.840   6.231  0.0981  0.5090  0.0196
  121OSM    H8S12723   1.352   1.950   6.241 -1.5562  0.2861  0.6164
  121OSM    H8T12724   1.266   1.809   6.270 -0.3659  1.8500 -0.0549
  121OSM    C9S12725   1.403   1.792   6.095 -0.4130 -0.3909  0.4774
  121OSM    H9S12726   1.427   1.684   6.093 -0.2743 -0.3742  1.1243
  121OSM    H9T12727   1.492   1.855   6.073 -0.3403 -0.9252 -0.8778
  121OSM   C10S12728   1.303   1.830   5.990 -0.6184 -0.4079  0.4562
  121OSM   H10S12729   1.275   1.936   6.006  2.0725  0.4385  0.0570
  121OSM   H10T12730   1.212   1.765   5.990 -0.0961 -1.3097 -2.8111
  121OSM   C11S12731   1.364   1.806   5.852 -0.2296 -0.2533 -0.3504
  121OSM   H11S12732   1.400   1.701   5.847  0.8416  0.1320 -1.0871
  121OSM   H11T12733   1.455   1.869   5.839  0.3651 -0.9007  0.5094
  121OSM   C12S12734   1.267   1.838   5.737 -0.7993  0.7553  0.7126
  121OSM   H12S12735   1.206   1.929   5.757 -0.8701  1.1166 -0.9822
  121OSM   H12T12736   1.206   1.747   5.720  0.1100  0.2856 -0.0938
  121OSM   C13S12737   1.345   1.838   5.604 -0.0955  0.2214  0.5221
  121OSM   H13S12738   1.398   1.741   5.589  1.2357  0.7569  1.4950
  121OSM   H13T12739   1.427   1.913   5.607 -0.6611  0.8265  0.8898
  121OSM   C14S12740   1.253   1.885   5.495  0.0725 -0.1963  0.2506
  121OSM   H14S12741   1.218   1.988   5.518 -2.4281 -0.4169 -1.9671
  121OSM   H14T12742   1.167   1.815   5.503  0.0347 -0.0771  0.9109
  121OSM   C15S12743   1.315   1.903   5.361 -0.1280  0.8015 -0.2902
  121OSM   H15S12744   1.348   1.803   5.327 -2.5237 -0.0774 -0.2853
  121OSM   H15T12745   1.406   1.964   5.375  0.8841 -1.1201  2.2901
  121OSM   C16S12746   1.215   1.947   5.252 -0.1788  0.4559 -0.3534
  121OSM   H16S12747   1.176   2.049   5.275 -1.9229 -0.4630  1.0028
  121OSM   H16T12748   1.133   1.871   5.245  1.4521 -1.2652 -2.0606
  121OSM   C17S12749   1.283   1.944   5.115 -0.1158 -0.0954 -0.0920
  121OSM   H17S12750   1.335   1.847   5.107 -0.6004 -0.2645 -1.3807
  121OSM   H17T12751   1.354   2.030   5.112 -1.8705  1.3898 -1.5079
  121OSM   C18S12752   1.186   1.958   4.995  0.0211 -0.6827  0.3301
  121OSM   H18S12753   1.237   1.964   4.897 -1.6221 -0.9604 -0.5682
  121OSM   H18T12754   1.112   2.040   5.000 -1.4312 -1.9902  1.4296
  121OSM   H18U12755   1.123   1.866   4.990 -1.4394  0.3006  0.0070
  121OSM    C1F12756   1.892   2.249   6.616  0.9262 -0.0755  0.1141
  121OSM     OF12757   1.940   2.268   6.726  0.1068  0.1780  0.5341
  121OSM    C2F12758   1.970   2.265   6.486 -0.2818 -0.0008 -0.3805
  121OSM    H2F12759   1.941   2.359   6.435  0.4858  0.7044  0.4320
  121OSM    H2G12760   1.935   2.176   6.430  1.0237 -0.7525 -0.0449
  121OSM    C3F12761   2.128   2.268   6.516 -0.0621  0.0858  0.0745
  121OSM    H3F12762   2.146   2.167   6.560  2.4409  0.8592  1.0344
  121OSM    H3G12763   2.157   2.349   6.586  1.6422  0.1374 -0.6453
  121OSM    C4F12764   2.209   2.274   6.389 -0.2884  0.6100  0.2461
  121OSM    H4F12765   2.314   2.304   6.409 -1.3436  3.3123  2.2547
  121OSM    H4G12766   2.180   2.358   6.323  1.1931  0.8314 -0.1403
  121OSM    C5F12767   2.194   2.141   6.303 -0.2808  0.3230  0.5858
  121OSM    H5F12768   2.085   2.119   6.299 -0.1421 -0.3198  0.2852
  121OSM    H5G12769   2.246   2.060   6.358 -0.4296  0.7953  1.4412
  121OSM    C6F12770   2.262   2.163   6.159  0.5606  0.5463 -0.4259
  121OSM    H6F12771   2.297   2.070   6.108  2.6826  0.0555  1.7358
  121OSM    H6G12772   2.347   2.231   6.178  1.7545 -0.0362 -3.2885
  121OSM    C7F12773   2.181   2.254   6.068  0.0434  0.1907  0.1671
  121OSM    H7F12774   2.232   2.265   5.970  1.6620 -0.4910  0.8966
  121OSM    H7G12775   2.152   2.354   6.109 -0.5021  0.6484 -1.2703
  121OSM    C8F12776   2.039   2.186   6.031 -0.0218  0.1468  0.3456
  121OSM    H8F12777   1.999   2.144   6.126 -0.0280  0.3320  0.4280
  121OSM    H8G12778   2.053   2.097   5.967 -1.4092  0.2232 -0.1010
  121OSM    C9F12779   1.957   2.289   5.954 -0.0461 -0.3509 -0.1004
  121OSM    H9F12780   1.876   2.335   6.013  0.4478  0.4806 -0.0544
  121OSM   C10F12781   1.972   2.311   5.819  0.2593  0.3743 -0.1163
  121OSM   H10F12782   1.900   2.377   5.769  0.0900  1.0314  0.9704
  121OSM   C11F12783   2.070   2.256   5.719  0.8356 -0.3329 -0.2946
  121OSM   H11F12784   2.093   2.149   5.742  0.5815 -0.0206  1.5736
  121OSM   H11G12785   2.173   2.293   5.734  0.9598 -0.7787 -0.0036
  121OSM   C12F12786   2.039   2.284   5.569 -0.0339 -1.0253  0.3496
  121OSM   H12F12787   2.030   2.389   5.535 -1.2912 -1.7087 -1.5668
  121OSM   H12G12788   1.944   2.228   5.552 -0.7169 -0.3073  1.6359
  121OSM   C13F12789   2.143   2.217   5.477  0.5525  0.0966  0.4774
  121OSM   H13F12790   2.179   2.126   5.529  3.3855 -0.2176 -1.7679
  121OSM   H13G12791   2.223   2.292   5.458  1.2393 -0.6532  0.3966
  121OSM   C14F12792   2.080   2.178   5.347  0.5500 -0.2355  0.5403
  121OSM   H14F12793   2.043   2.274   5.303  2.6170  1.3942  2.1109
  121OSM   H14G12794   1.991   2.114   5.361 -1.1347  1.6385 -0.9128
  121OSM   C15F12795   2.181   2.115   5.248  0.3818  0.3855 -1.1521
  121OSM   H15F12796   2.230   2.031   5.302 -1.0204  0.3484  0.1242
  121OSM   H15G12797   2.256   2.196   5.241 -0.6082  1.8873  2.8075
  121OSM   C16F12798   2.126   2.075   5.111 -0.4458 -0.2052 -0.5417
  121OSM   H16F12799   2.063   2.157   5.068 -1.2552 -0.2687  0.4771
  121OSM   H16G12800   2.045   2.000   5.124 -1.7895  1.3054  0.1397
  121OSM   C17F12801   2.238   2.008   5.025  0.5651  0.3682 -0.3459
  121OSM   H17F12802   2.292   1.937   5.091  0.8869  1.3067  0.4169
  121OSM   H17G12803   2.314   2.084   5.000  2.4933  0.2352  4.2115
  121OSM   C18F12804   2.170   1.948   4.903 -0.3308  0.6711  0.2977
  121OSM   H18F12805   2.235   1.867   4.863 -2.9073 -1.0106 -0.7159
  121OSM   H18G12806   2.163   2.022   4.820 -3.8048  0.8858  0.6349
  121OSM   H18H12807   2.069   1.903   4.911 -0.1583  0.2549  0.1595
  122OSM      N12808   6.138   6.043   7.305  0.4332  0.1792  0.0415
  122OSM    C1512809   6.195   5.949   7.203 -0.1479 -0.2815  0.3420
  122OSM   H15A12810   6.128   5.866   7.184  0.7367 -1.5654  2.4266
  122OSM   H15B12811   6.288   5.908   7.240  0.5249  1.9711  1.3310
  122OSM   H15C12812   6.211   5.990   7.105  1.4224  0.4800  0.8914
  122OSM    C1412813   6.148   5.967   7.432 -0.2524  0.2172 -0.6428
  122OSM   H14A12814   6.099   5.871   7.428  0.4916 -0.4081  2.5116
  122OSM   H14B12815   6.110   6.035   7.507  0.6525  1.3531 -1.1914
  122OSM   H14C12816   6.251   5.946   7.454 -0.4694 -0.6226 -0.3946
  122OSM    C1312817   6.242   6.159   7.313  0.1999  0.3004 -0.1197
  122OSM   H13A12818   6.339   6.119   7.340 -0.1643 -1.3872 -1.1292
  122OSM   H13B12819   6.216   6.223   7.396  0.4688 -1.2975  1.2475
  122OSM   H13C12820   6.257   6.208   7.218  0.2328  0.8329  0.1589
  122OSM    C1212821   6.001   6.099   7.263 -1.2152  0.3644 -0.3986
  122OSM   H12A12822   5.942   6.010   7.251  1.9152 -1.6349 -2.5736
  122OSM   H12B12823   6.009   6.144   7.165  3.0490  0.2242 -0.3216
  122OSM    C1112824   5.934   6.207   7.350  0.0494 -0.0372 -0.0496
  122OSM   H11A12825   5.893   6.154   7.438 -0.3808 -1.0102 -0.8289
  122OSM   H11B12826   5.850   6.250   7.292  0.6544 -1.7363 -2.2897
  122OSM      P12827   6.027   6.453   7.324  0.2316 -0.0694  0.3663
  122OSM    O1312828   5.927   6.534   7.396 -0.8435 -0.1800  0.3710
  122OSM    O1412829   6.166   6.500   7.321 -0.8559  0.2488 -0.0139
  122OSM    O1112830   5.975   6.436   7.176 -0.4721 -0.0591 -0.3310
  122OSM    O1212831   6.026   6.315   7.385 -0.3664  0.2155 -0.7237
  122OSM    C1S12832   6.029   6.517   7.074  0.2650 -0.3784 -1.1111
  122OSM    H1S12833   6.139   6.518   7.062  0.3685  2.0427 -0.3552
  122OSM    H1T12834   6.002   6.623   7.093  0.7208 -0.5507  0.6665
  122OSM     NF12835   6.031   6.578   6.834  0.1854 -0.5417 -0.9134
  122OSM    HNF12836   5.976   6.644   6.783 -0.6916 -1.7638 -1.6010
  122OSM    C2S12837   5.973   6.493   6.933  0.2082 -0.1158 -0.2899
  122OSM    H2S12838   6.006   6.392   6.902  1.8054  0.5349 -0.8187
  122OSM    C3S12839   5.810   6.487   6.931  0.0443 -0.1203  0.9056
  122OSM    H3S12840   5.777   6.586   6.970 -0.3079 -1.3292  4.0054
  122OSM     O312841   5.754   6.391   7.021 -0.0911  0.2470  0.1652
  122OSM    HO312842   5.828   6.342   7.058 -1.1398 -0.9415  0.7571
  122OSM    C4S12843   5.759   6.463   6.788 -0.2659  0.4071  0.2071
  122OSM    H4S12844   5.780   6.551   6.726  0.4018 -0.9035 -1.5366
  122OSM    C5S12845   5.691   6.352   6.736 -0.1369 -0.8164  0.2053
  122OSM    H5S12846   5.694   6.267   6.805  1.2994 -1.7483 -0.9406
  122OSM    C6S12847   5.641   6.327   6.600  0.0582 -0.1524 -0.1820
  122OSM    H6S12848   5.537   6.288   6.597 -0.4461  1.1513 -0.1861
  122OSM    H6T12849   5.704   6.255   6.544 -1.0751 -1.0945 -0.2672
  122OSM    C7S12850   5.650   6.454   6.512  0.5652 -0.2624 -0.9892
  122OSM    H7S12851   5.752   6.498   6.517  0.3021  0.2417  0.4384
  122OSM    H7T12852   5.584   6.526   6.565  2.7050  1.2020 -0.1864
  122OSM    C8S12853   5.613   6.441   6.369 -0.2659  0.3014 -0.4423
  122OSM    H8S12854   5.693   6.371   6.337  0.7268  0.5487  1.3397
  122OSM    H8T12855   5.641   6.535   6.317  1.8359 -1.5157 -2.8329
  122OSM    C9S12856   5.471   6.387   6.349 -0.6054 -0.1180  0.3351
  122OSM    H9S12857   5.407   6.445   6.419  1.5947  1.7609  0.9246
  122OSM    H9T12858   5.467   6.282   6.383  1.0331 -0.2635  0.1654
  122OSM   C10S12859   5.432   6.396   6.202 -1.0263  0.0893  0.5734
  122OSM   H10S12860   5.439   6.505   6.179  0.4950 -0.5145 -2.3728
  122OSM   H10T12861   5.325   6.369   6.193 -1.1074  0.2616  0.9771
  122OSM   C11S12862   5.514   6.318   6.099  0.2742 -0.3203  0.1585
  122OSM   H11S12863   5.494   6.212   6.128  2.4718 -0.7557  0.2247
  122OSM   H11T12864   5.619   6.354   6.103 -0.0372  1.1134 -2.1788
  122OSM   C12S12865   5.466   6.333   5.953  0.0410  0.2625  0.1224
  122OSM   H12S12866   5.479   6.443   5.940  2.0160  0.0514  0.0022
  122OSM   H12T12867   5.355   6.324   5.953 -0.0813  1.2032  1.9258
  122OSM   C13S12868   5.533   6.255   5.841  0.2413  0.1114  0.2356
  122OSM   H13S12869   5.509   6.146   5.842 -1.4478  0.4621  0.0739
  122OSM   H13T12870   5.644   6.258   5.836  0.2602  0.7967  0.9145
  122OSM   C14S12871   5.485   6.292   5.697  0.2736 -0.1052  0.1738
  122OSM   H14S12872   5.495   6.402   5.687 -1.0142  0.4554  3.5552
  122OSM   H14T12873   5.376   6.272   5.691  0.7033 -2.3299 -3.8627
  122OSM   C15S12874   5.554   6.217   5.584 -0.1818  0.2686 -0.9777
  122OSM   H15S12875   5.558   6.109   5.611 -0.4538  0.0897 -1.6428
  122OSM   H15T12876   5.660   6.251   5.581 -0.3215  0.7161 -0.9999
  122OSM   C16S12877   5.487   6.229   5.447  0.3845  0.6072 -0.2953
  122OSM   H16S12878   5.380   6.212   5.471  0.8431  0.5044  1.8896
  122OSM   H16T12879   5.528   6.142   5.391  1.8347  1.3967 -0.5077
  122OSM   C17S12880   5.526   6.351   5.370  0.7812  0.2074  0.4207
  122OSM   H17S12881   5.502   6.438   5.435 -0.1265  0.1863  0.1304
  122OSM   H17T12882   5.449   6.366   5.291  0.9563  0.6890  0.3363
  122OSM   C18S12883   5.655   6.342   5.299 -0.2820  0.5435  0.6182
  122OSM   H18S12884   5.698   6.444   5.290 -1.1076  1.1900  3.1456
  122OSM   H18T12885   5.645   6.289   5.202  0.4730  0.0683  0.7953
  122OSM   H18U12886   5.722   6.290   5.371  1.3684  1.2030 -0.3851
  122OSM    C1F12887   6.158   6.562   6.800  0.1614 -0.3303  0.2866
  122OSM     OF12888   6.230   6.481   6.858  0.0224 -0.4177  0.6467
  122OSM    C2F12889   6.215   6.652   6.689  0.1161 -0.0819 -0.7678
  122OSM    H2F12890   6.309   6.691   6.733 -1.0307  0.7600  1.0471
  122OSM    H2G12891   6.155   6.745   6.680  0.8327  0.4834  0.1304
  122OSM    C3F12892   6.205   6.571   6.560 -0.6907 -0.4582  0.6957
  122OSM    H3F12893   6.101   6.541   6.535  0.1432 -2.0798 -1.0084
  122OSM    H3G12894   6.255   6.473   6.553 -2.3098 -1.3402  0.8821
  122OSM    C4F12895   6.261   6.658   6.439  0.0193  0.1744  0.1937
  122OSM    H4F12896   6.371   6.660   6.424  0.3571  0.6341  2.3200
  122OSM    H4G12897   6.229   6.764   6.450  0.2302  0.2971 -0.3461
  122OSM    C5F12898   6.206   6.600   6.302 -0.1818  0.6545  0.3324
  122OSM    H5F12899   6.095   6.607   6.304 -0.2106  0.1405  0.8017
  122OSM    H5G12900   6.241   6.496   6.293  2.2012  1.3932  0.4265
  122OSM    C6F12901   6.263   6.682   6.188 -0.1168 -0.1272 -0.4166
  122OSM    H6F12902   6.374   6.683   6.189 -0.0062 -0.2282 -3.6355
  122OSM    H6G12903   6.225   6.787   6.192 -0.1744 -0.1545 -0.2347
  122OSM    C7F12904   6.225   6.632   6.048 -0.5905 -0.3562 -0.3088
  122OSM    H7F12905   6.118   6.649   6.022 -0.3721  2.0211  0.1347
  122OSM    H7G12906   6.233   6.522   6.040  2.2316 -0.2253 -0.0740
  122OSM    C8F12907   6.305   6.714   5.945 -0.1291  0.8342  0.0574
  122OSM    H8F12908   6.409   6.675   5.950  0.0239  1.1164 -0.7408
  122OSM    H8G12909   6.306   6.823   5.969 -0.4704  0.6257  1.0170
  122OSM    C9F12910   6.254   6.715   5.806  0.5400 -0.1830  0.6949
  122OSM    H9F12911   6.156   6.763   5.795 -1.5036 -4.3279 -1.8251
  122OSM   C10F12912   6.300   6.657   5.695 -0.3634 -0.1775 -0.0754
  122OSM   H10F12913   6.234   6.655   5.606 -0.0752 -2.3553 -0.2812
  122OSM   C11F12914   6.422   6.574   5.684 -0.2265  0.4250  0.4050
  122OSM   H11F12915   6.440   6.532   5.785  0.8549  1.3055  0.6032
  122OSM   H11G12916   6.513   6.634   5.664  1.3244 -1.3155  1.9426
  122OSM   C12F12917   6.414   6.471   5.572 -0.1180  0.0779 -0.4683
  122OSM   H12F12918   6.310   6.434   5.562  0.5920 -2.0083 -0.5840
  122OSM   H12G12919   6.482   6.385   5.587 -0.0091  0.6347  2.8679
  122OSM   C13F12920   6.465   6.515   5.427  0.2680  0.1746 -0.5141
  122OSM   H13F12921   6.570   6.548   5.440  0.2192  0.5813 -1.1526
  122OSM   H13G12922   6.402   6.595   5.383 -0.6191 -0.0582  0.2781
  122OSM   C14F12923   6.467   6.395   5.320 -0.4753  0.4948 -0.0837
  122OSM   H14F12924   6.364   6.356   5.301  0.1586 -2.2217  1.4988
  122OSM   H14G12925   6.521   6.312   5.370 -2.5109 -0.9198 -0.1009
  122OSM   C15F12926   6.544   6.422   5.190 -0.5068  0.4286 -0.3936
  122OSM   H15F12927   6.502   6.512   5.140  0.9525  0.9545 -0.7251
  122OSM   H15G12928   6.534   6.341   5.115  2.1478 -0.0733 -0.3105
  122OSM   C16F12929   6.699   6.453   5.206  0.3012 -0.3022  0.5019
  122OSM   H16F12930   6.768   6.370   5.233  1.6773  0.6245 -0.0485
  122OSM   H16G12931   6.712   6.540   5.273 -1.0524 -0.0191  0.4201
  122OSM   C17F12932   6.748   6.497   5.065 -0.2142 -0.1394  0.9318
  122OSM   H17F12933   6.852   6.534   5.077  0.2837 -0.8891 -0.7895
  122OSM   H17G12934   6.679   6.568   5.014  0.9483 -0.4397 -1.1849
  122OSM   C18F12935   6.751   6.390   4.960  0.0107  0.2664 -0.0154
  122OSM   H18F12936   6.838   6.323   4.978 -0.6950 -0.5105  0.5859
  122OSM   H18G12937   6.771   6.431   4.858 -0.3594 -1.9517 -1.0337
  122OSM   H18H12938   6.651   6.343   4.948 -1.3518  2.9037  0.1203
  123OSM      N12939   2.868   6.394   2.657  0.0522 -0.0326 -0.5042
  123OSM    C1512940   2.758   6.379   2.763  0.4485  0.3390  0.3176
  123OSM   H15A12941   2.667   6.432   2.738  0.7032  0.6621  0.0657
  123OSM   H15B12942   2.791   6.431   2.852 -2.4451  4.0876 -0.5197
  123OSM   H15C12943   2.732   6.275   2.776 -2.0501  0.1122 -4.3636
  123OSM    C1412944   2.819   6.333   2.529 -0.3355 -0.4071 -0.1675
  123OSM   H14A12945   2.722   6.372   2.501  0.5858  1.6884 -0.6063
  123OSM   H14B12946   2.813   6.226   2.535 -0.1119 -0.4226 -0.2323
  123OSM   H14C12947   2.880   6.364   2.446  0.1532  0.3829  0.4746
  123OSM    C1312948   2.883   6.541   2.651  0.5756 -0.1798 -0.1096
  123OSM   H13A12949   2.963   6.559   2.580  0.6137 -1.3125 -0.3711
  123OSM   H13B12950   2.908   6.588   2.746 -0.4229  0.1605 -0.0089
  123OSM   H13C12951   2.790   6.584   2.619 -0.3658 -1.1557  1.2134
  123OSM    C1212952   2.990   6.326   2.714 -0.1780 -0.3464  0.0181
  123OSM   H12A12953   3.079   6.355   2.660  0.8078 -1.1317  1.1934
  123OSM   H12B12954   2.991   6.220   2.698  1.1728 -0.0484 -2.3762
  123OSM    C1112955   3.018   6.342   2.867 -0.6430  0.0917  0.6661
  123OSM   H11A12956   3.111   6.286   2.891 -0.9095 -0.9362 -0.6044
  123OSM   H11B12957   2.934   6.295   2.922 -0.7043  0.2919  0.7462
  123OSM      P12958   3.161   6.560   2.941 -0.2209 -0.1985 -0.1615
  123OSM    O1312959   3.274   6.468   2.917 -0.2127 -0.5167 -0.4117
  123OSM    O1412960   3.154   6.677   2.854  0.3828 -0.1570  0.3163
  123OSM    O1112961   3.158   6.608   3.094  0.1215  0.7908 -0.1125
  123OSM    O1212962   3.026   6.472   2.922 -1.4148  0.0400  0.1003
  123OSM    C1S12963   3.266   6.675   3.159  0.0575 -0.5325 -0.0096
  123OSM    H1S12964   3.249   6.784   3.168  1.2104 -0.3979  0.7490
  123OSM    H1T12965   3.363   6.659   3.107  0.0430  0.8942 -0.5277
  123OSM     NF12966   3.402   6.693   3.369 -0.1740 -0.1579  0.5087
  123OSM    HNF12967   3.495   6.658   3.376 -0.7904 -1.7741  0.9003
  123OSM    C2S12968   3.304   6.613   3.299 -0.0181 -0.2715 -0.2072
  123OSM    H2S12969   3.210   6.624   3.358  0.3046 -3.3247  1.0434
  123OSM    C3S12970   3.325   6.462   3.289 -0.1079  0.1861 -0.3136
  123OSM    H3S12971   3.403   6.437   3.214 -1.4882  0.2282 -1.8116
  123OSM     O312972   3.216   6.384   3.245  0.7633 -0.6198 -0.0083
  123OSM    HO312973   3.160   6.454   3.210  1.2693  0.2223  0.7982
  123OSM    C4S12974   3.353   6.401   3.425 -0.2530 -0.5286 -0.1364
  123OSM    H4S12975   3.265   6.385   3.489 -0.8390  0.2954 -0.7207
  123OSM    C5S12976   3.483   6.363   3.461  0.2313 -0.4071  0.0128
  123OSM    H5S12977   3.569   6.390   3.398  0.0877 -0.5978 -0.2674
  123OSM    C6S12978   3.514   6.299   3.597 -0.3111  1.0539  0.4328
  123OSM    H6S12979   3.570   6.203   3.603  0.6732  1.5575 -0.2600
  123OSM    H6T12980   3.421   6.286   3.657  0.8532 -0.0443  2.0872
  123OSM    C7S12981   3.623   6.382   3.678  0.0600 -0.5433  0.3440
  123OSM    H7S12982   3.596   6.488   3.691  0.5931 -0.4120  0.4185
  123OSM    H7T12983   3.711   6.361   3.614 -0.6051 -1.0657 -0.4066
  123OSM    C8S12984   3.651   6.316   3.816 -0.2982 -0.3082 -0.8884
  123OSM    H8S12985   3.685   6.212   3.796  0.2848 -1.0094  2.9922
  123OSM    H8T12986   3.568   6.292   3.886 -0.2044 -1.3709 -1.1288
  123OSM    C9S12987   3.760   6.382   3.903  0.3582 -0.2150 -0.2522
  123OSM    H9S12988   3.743   6.492   3.904  0.4199 -0.2066  1.0866
  123OSM    H9T12989   3.857   6.368   3.851  0.1519  2.0589 -1.3829
  123OSM   C10S12990   3.770   6.345   4.055  0.7561 -0.6081 -0.0998
  123OSM   H10S12991   3.863   6.392   4.094  1.3732 -1.3052 -0.7071
  123OSM   H10T12992   3.767   6.234   4.058  0.2371 -0.5948 -0.0355
  123OSM   C11S12993   3.655   6.408   4.137 -0.1717  0.0903  0.1475
  123OSM   H11S12994   3.561   6.354   4.115 -0.5445 -0.0693  1.9542
  123OSM   H11T12995   3.648   6.518   4.130  3.2285  0.5334  1.4501
  123OSM   C12S12996   3.669   6.383   4.293 -0.2309 -0.9053  0.1953
  123OSM   H12S12997   3.713   6.282   4.305  1.1370 -0.4326 -0.6743
  123OSM   H12T12998   3.566   6.383   4.337 -0.4376 -1.5421 -0.2766
  123OSM   C13S12999   3.759   6.486   4.367  0.8877  0.5504 -0.6040
  123OSM   H13S13000   3.733   6.590   4.338  1.6249  0.5065 -1.4704
  123OSM   H13T13001   3.864   6.468   4.334  0.6169  0.8947 -1.6941
  123OSM   C14S13002   3.762   6.460   4.519  0.5914  0.4835  0.0832
  123OSM   H14S13003   3.789   6.355   4.543 -0.4261  0.6733  2.3372
  123OSM   H14T13004   3.659   6.479   4.557 -0.0470 -1.3421 -0.6233
  123OSM   C15S13005   3.867   6.544   4.593  0.3451  0.5252 -0.0838
  123OSM   H15S13006   3.843   6.647   4.557  0.6171  0.8102  0.5374
  123OSM   H15T13007   3.966   6.512   4.556 -0.0947 -0.4267 -0.4670
  123OSM   C16S13008   3.854   6.539   4.750  0.0590 -0.2854 -0.2486
  123OSM   H16S13009   3.891   6.441   4.787 -1.0066 -0.3723  0.6569
  123OSM   H16T13010   3.756   6.573   4.790  0.2423  1.1823 -0.9553
  123OSM   C17S13011   3.951   6.650   4.803  0.1761  0.2120  0.2370
  123OSM   H17S13012   3.962   6.627   4.911  0.7771 -0.8918 -0.0407
  123OSM   H17T13013   3.913   6.752   4.780 -1.5787 -0.2948  0.7017
  123OSM   C18S13014   4.090   6.624   4.745 -0.0201  0.0258 -0.5933
  123OSM   H18S13015   4.094   6.631   4.634 -0.3212  0.1861 -0.5947
  123OSM   H18T13016   4.128   6.520   4.760 -0.2161  0.2919  2.2804
  123OSM   H18U13017   4.161   6.699   4.786 -0.8934 -0.9783  3.1038
  123OSM    C1F13018   3.383   6.819   3.411 -1.0454 -0.3923  0.1316
  123OSM     OF13019   3.287   6.886   3.387  0.4434 -0.5350  0.7937
  123OSM    C2F13020   3.492   6.882   3.500  0.0999  0.2857 -0.4722
  123OSM    H2F13021   3.450   6.977   3.537 -1.4271 -0.4652 -0.2201
  123OSM    H2G13022   3.586   6.911   3.448  2.1752 -2.9536  1.1309
  123OSM    C3F13023   3.520   6.785   3.623 -0.0696 -0.4458 -1.0979
  123OSM    H3F13024   3.563   6.696   3.573  1.5450  1.0397 -2.5017
  123OSM    H3G13025   3.426   6.761   3.676  1.4420 -1.3294  1.3972
  123OSM    C4F13026   3.619   6.850   3.720 -0.4321 -0.7727  0.9759
  123OSM    H4F13027   3.573   6.950   3.732  0.2419  0.3131 -3.6544
  123OSM    H4G13028   3.711   6.863   3.659 -1.2017 -1.1030 -0.3067
  123OSM    C5F13029   3.640   6.781   3.855 -0.4143 -0.2397 -0.4067
  123OSM    H5F13030   3.682   6.680   3.833  2.1719  0.9819 -1.5182
  123OSM    H5G13031   3.547   6.793   3.914  1.3564  2.5539  2.0483
  123OSM    C6F13032   3.752   6.856   3.938 -0.4679  0.0051  0.6690
  123OSM    H6F13033   3.731   6.965   3.947  2.2090  0.4742  2.1397
  123OSM    H6G13034   3.855   6.856   3.897  0.5836  0.1859  3.1356
  123OSM    C7F13035   3.768   6.802   4.072  0.2235  0.5554  0.6632
  123OSM    H7F13036   3.779   6.691   4.077 -3.7267  0.0275  1.2777
  123OSM    H7G13037   3.670   6.818   4.122  1.6686  1.9773  3.2325
  123OSM    C8F13038   3.868   6.880   4.157 -0.3990  0.4955 -0.8104
  123OSM    H8F13039   3.869   6.991   4.149  3.2029  0.7392  1.1032
  123OSM    H8G13040   3.968   6.846   4.122 -1.6734 -2.3901 -1.9662
  123OSM    C9F13041   3.868   6.840   4.302 -0.2910 -0.8841  0.4205
  123OSM    H9F13042   3.913   6.742   4.325  0.2151 -1.5737 -2.9677
  123OSM   C10F13043   3.840   6.916   4.408 -0.7001  0.2749  0.3310
  123OSM   H10F13044   3.867   6.873   4.506 -3.3264 -1.8782  0.2209
  123OSM   C11F13045   3.790   7.056   4.411 -1.0774  0.4868  0.6528
  123OSM   H11F13046   3.781   7.094   4.307  1.6386 -0.4106 -0.0025
  123OSM   H11G13047   3.867   7.127   4.450 -3.4550  3.8143 -0.3177
  123OSM   C12F13048   3.659   7.067   4.487  0.5679  0.1559 -0.1432
  123OSM   H12F13049   3.588   6.994   4.444 -1.5669  1.7082  0.5718
  123OSM   H12G13050   3.621   7.168   4.464  1.7106  0.3055 -1.5440
  123OSM   C13F13051   3.692   7.055   4.634 -1.1719 -0.4042 -0.3731
  123OSM   H13F13052   3.726   6.953   4.663 -1.4922  0.3547  3.0593
  123OSM   H13G13053   3.595   7.070   4.685 -0.6061  2.8972 -0.0873
  123OSM   C14F13054   3.788   7.163   4.694 -0.0604  0.2465 -0.1572
  123OSM   H14F13055   3.750   7.265   4.676  0.9705  0.4204 -1.5647
  123OSM   H14G13056   3.888   7.158   4.646 -0.0858  2.0252 -0.4299
  123OSM   C15F13057   3.810   7.157   4.840 -0.7731  0.5252 -0.5894
  123OSM   H15F13058   3.716   7.117   4.883  0.6582 -0.2025  2.0826
  123OSM   H15G13059   3.831   7.261   4.875  0.7980  0.2455 -0.6289
  123OSM   C16F13060   3.924   7.067   4.882  0.1182 -0.0085  0.3330
  123OSM   H16F13061   4.022   7.106   4.847  0.4187 -0.8897  0.1671
  123OSM   H16G13062   3.921   6.963   4.842 -1.3739  0.0853  0.1584
  123OSM   C17F13063   3.945   7.059   5.032 -0.3088 -0.1723 -0.2408
  123OSM   H17F13064   3.852   7.008   5.067  1.1881 -2.3633  0.7753
  123OSM   H17G13065   3.961   7.163   5.065  0.4045 -0.8270  1.6168
  123OSM   C18F13066   4.068   6.980   5.085 -0.0387 -0.2176 -0.0475
  123OSM   H18F13067   4.162   7.019   5.040  0.0818  0.3524  0.6855
  123OSM   H18G13068   4.067   6.874   5.054  0.2430  0.3416 -2.1281
  123OSM   H18H13069   4.075   6.990   5.196  1.8248  0.6095 -0.1970
  124OSM      N13070   3.910   1.917   2.240  0.3688 -0.7186  0.6447
  124OSM    C1513071   4.044   1.854   2.255  0.1689 -0.0670 -0.3194
  124OSM   H15A13072   4.038   1.747   2.260 -1.3851  0.0325  0.6015
  124OSM   H15B13073   4.084   1.878   2.352 -1.8832 -0.4767  0.6927
  124OSM   H15C13074   4.109   1.880   2.173  0.0511 -2.1699 -1.1500
  124OSM    C1413075   3.933   2.067   2.232 -0.2929  0.1135 -0.0028
  124OSM   H14A13076   3.841   2.122   2.238  0.2237  1.0832 -0.7179
  124OSM   H14B13077   3.980   2.094   2.139 -2.3025  1.3500 -0.6894
  124OSM   H14C13078   3.999   2.100   2.311  1.1211 -1.2727 -0.5488
  124OSM    C1313079   3.853   1.863   2.114  0.2938 -0.6186  0.6555
  124OSM   H13A13080   3.839   1.756   2.104 -2.3305 -0.1994 -1.6370
  124OSM   H13B13081   3.912   1.897   2.031  0.5868  1.6189  1.7229
  124OSM   H13C13082   3.757   1.911   2.100  1.1836  1.3328  1.0114
  124OSM    C1213083   3.810   1.872   2.348 -0.5684  0.1746 -0.3630
  124OSM   H12A13084   3.788   1.767   2.337 -0.2325  0.2180 -1.5908
  124OSM   H12B13085   3.712   1.914   2.331  0.2284  2.4290  0.2519
  124OSM    C1113086   3.834   1.895   2.497 -0.1589  0.0834 -0.7145
  124OSM   H11A13087   3.943   1.885   2.515 -0.7055 -1.1307  2.8771
  124OSM   H11B13088   3.786   1.819   2.562  1.8077  0.8772  1.8700
  124OSM      P13089   3.631   2.040   2.547 -0.0465 -0.1694 -0.3778
  124OSM    O1313090   3.596   2.180   2.558  0.3081 -0.5397 -0.0201
  124OSM    O1413091   3.561   1.971   2.442 -0.0426 -0.0369 -0.3378
  124OSM    O1113092   3.595   1.972   2.683  0.4898 -0.2915  0.9749
  124OSM    O1213093   3.790   2.030   2.533  0.1891 -0.0864  0.7014
  124OSM    C1S13094   3.668   1.999   2.802  0.0944 -0.0074 -0.6591
  124OSM    H1S13095   3.689   2.107   2.814  1.4756 -0.1072 -1.8770
  124OSM    H1T13096   3.766   1.947   2.797  0.5058  0.7097 -0.1585
  124OSM     NF13097   3.675   1.995   3.053 -0.1185 -0.0995  0.5785
  124OSM    HNF13098   3.729   1.920   3.090 -0.4724 -0.1153  1.0775
  124OSM    C2S13099   3.591   1.957   2.932 -0.3379 -0.7975 -0.1822
  124OSM    H2S13100   3.503   2.024   2.930 -0.7759 -1.3512  0.1224
  124OSM    C3S13101   3.539   1.816   2.928 -0.3382  0.6807 -0.3682
  124OSM    H3S13102   3.631   1.755   2.920 -0.6385 -0.1294  1.7459
  124OSM     O313103   3.470   1.784   2.814 -0.3212 -0.5917  0.0175
  124OSM    HO313104   3.477   1.869   2.770 -1.1783 -0.2946  0.4470
  124OSM    C4S13105   3.460   1.772   3.043 -1.3158  0.7728 -0.2374
  124OSM    H4S13106   3.379   1.843   3.064 -1.1973  0.5383  1.0436
  124OSM    C5S13107   3.497   1.667   3.126  0.5553 -0.7114  0.3111
  124OSM    H5S13108   3.589   1.609   3.105  0.4902 -0.1835 -1.6616
  124OSM    C6S13109   3.423   1.627   3.252  0.0160 -0.4923  0.5519
  124OSM    H6S13110   3.410   1.517   3.245 -0.3509 -0.5097  1.4476
  124OSM    H6T13111   3.319   1.664   3.244  0.4132  0.2511 -2.4180
  124OSM    C7S13112   3.491   1.673   3.384  0.4669  0.2224 -0.0664
  124OSM    H7S13113   3.503   1.783   3.368  3.1142 -0.3055 -2.3672
  124OSM    H7T13114   3.590   1.627   3.400 -0.2918 -0.7019  2.4958
  124OSM    C8S13115   3.393   1.653   3.501 -0.3581 -0.2915 -0.5573
  124OSM    H8S13116   3.363   1.546   3.493 -1.1869 -0.2121  1.1390
  124OSM    H8T13117   3.302   1.715   3.489  0.1924  0.6754  0.1085
  124OSM    C9S13118   3.462   1.679   3.627 -0.5944 -0.4764 -0.5547
  124OSM    H9S13119   3.508   1.780   3.621 -1.4589 -0.0131  0.4312
  124OSM    H9T13120   3.531   1.593   3.644 -0.8211 -0.3064  1.6083
  124OSM   C10S13121   3.380   1.679   3.754 -0.0318 -0.0825  0.4056
  124OSM   H10S13122   3.348   1.573   3.763  0.9301 -0.5792 -1.5161
  124OSM   H10T13123   3.290   1.743   3.742 -0.9360 -0.8972  2.3379
  124OSM   C11S13124   3.467   1.715   3.883  0.0653  0.1402 -0.1011
  124OSM   H11S13125   3.504   1.820   3.881  3.5996 -0.9666 -2.1070
  124OSM   H11T13126   3.555   1.648   3.892  0.3675 -0.2152 -3.9171
  124OSM   C12S13127   3.376   1.699   4.003  0.3026  0.3999  0.6696
  124OSM   H12S13128   3.334   1.597   4.016  0.8680  0.3916  2.6463
  124OSM   H12T13129   3.290   1.760   3.968 -0.2177 -0.5413  0.2359
  124OSM   C13S13130   3.446   1.748   4.124 -0.4662 -0.1196 -0.0072
  124OSM   H13S13131   3.473   1.854   4.109 -1.9696  0.2122 -0.6066
  124OSM   H13T13132   3.538   1.687   4.136  1.4615  2.6130 -0.1394
  124OSM   C14S13133   3.358   1.747   4.251 -0.3590  0.6831  0.2759
  124OSM   H14S13134   3.350   1.638   4.269 -2.0504  0.2591 -2.4836
  124OSM   H14T13135   3.258   1.793   4.238 -1.1749 -0.7944  1.1345
  124OSM   C15S13136   3.424   1.806   4.375 -0.1750 -0.7370  0.5032
  124OSM   H15S13137   3.427   1.915   4.352  0.3482 -0.5171  1.5287
  124OSM   H15T13138   3.528   1.769   4.373  0.1481  0.1806 -1.4392
  124OSM   C16S13139   3.358   1.785   4.513 -0.1116 -1.0327 -0.2319
  124OSM   H16S13140   3.337   1.678   4.531 -1.2339 -0.7339  0.3626
  124OSM   H16T13141   3.259   1.835   4.508  0.7572  0.7869 -0.4177
  124OSM   C17S13142   3.438   1.851   4.633 -0.7061 -0.5504 -0.2083
  124OSM   H17S13143   3.547   1.832   4.626 -0.9829 -1.8378 -1.6158
  124OSM   H17T13144   3.397   1.800   4.723 -1.2250  0.3814  0.1002
  124OSM   C18S13145   3.420   2.003   4.639  0.5408 -0.5464  0.4727
  124OSM   H18S13146   3.502   2.052   4.582 -0.5009 -1.3917 -1.8697
  124OSM   H18T13147   3.425   2.043   4.743 -0.5208 -2.0018  1.0997
  124OSM   H18U13148   3.330   2.036   4.584 -0.6558 -0.5255  2.3594
  124OSM    C1F13149   3.710   2.125   3.084  0.3615  0.0015  0.6139
  124OSM     OF13150   3.637   2.214   3.034 -0.8987  0.3365 -0.2262
  124OSM    C2F13151   3.824   2.154   3.180 -0.1300 -0.6226  0.3827
  124OSM    H2F13152   3.897   2.222   3.130  0.6041 -1.4888  0.2409
  124OSM    H2G13153   3.881   2.059   3.188  0.5739 -0.2093  0.3618
  124OSM    C3F13154   3.789   2.216   3.317 -0.4544 -0.0038  0.3716
  124OSM    H3F13155   3.722   2.154   3.381  0.9349 -0.0839  1.7936
  124OSM    H3G13156   3.749   2.317   3.295  1.9289  0.3155 -3.5021
  124OSM    C4F13157   3.921   2.237   3.401  0.2642 -0.1361  0.0972
  124OSM    H4F13158   3.966   2.332   3.366 -1.4921  0.8611  0.4651
  124OSM    H4G13159   4.000   2.161   3.382  0.9683  0.2334  1.4198
  124OSM    C5F13160   3.906   2.255   3.553  0.2051  0.9615 -1.2267
  124OSM    H5F13161   3.829   2.333   3.571  0.8474  1.2096  0.6858
  124OSM    H5G13162   3.996   2.300   3.600 -1.0857  2.1849  0.2030
  124OSM    C6F13163   3.872   2.129   3.639 -0.3467 -0.4766  0.4059
  124OSM    H6F13164   3.954   2.056   3.621 -1.3889 -1.3581 -0.9340
  124OSM    H6G13165   3.781   2.073   3.609 -0.8765  1.6772 -2.3830
  124OSM    C7F13166   3.871   2.173   3.780  0.6377 -0.3337 -0.4095
  124OSM    H7F13167   3.786   2.244   3.782  0.8691  0.1205 -3.0054
  124OSM    H7G13168   3.947   2.237   3.829 -0.6198 -0.2138  1.4848
  124OSM    C8F13169   3.860   2.057   3.875  0.0370  0.0953 -0.7959
  124OSM    H8F13170   3.962   2.036   3.913 -0.0080 -0.6700 -1.0743
  124OSM    H8G13171   3.836   1.962   3.823  0.5660 -0.7106  0.3904
  124OSM    C9F13172   3.754   2.063   3.980  0.2429 -0.7255  0.3597
  124OSM    H9F13173   3.651   2.035   3.953 -0.7235  2.6857  0.1077
  124OSM   C10F13174   3.782   2.094   4.105 -0.0308  0.0911 -0.5375
  124OSM   H10F13175   3.707   2.091   4.185  1.2344 -0.1666  0.6859
  124OSM   C11F13176   3.923   2.129   4.152 -0.1753  0.3350  0.3695
  124OSM   H11F13177   3.956   2.220   4.098  1.9470 -0.3563  0.4013
  124OSM   H11G13178   4.009   2.069   4.116  1.3525  2.6150 -0.0060
  124OSM   C12F13179   3.924   2.167   4.300 -0.2817  0.2836 -0.2689
  124OSM   H12F13180   3.837   2.227   4.333 -0.9628 -0.3934 -0.7935
  124OSM   H12G13181   4.014   2.231   4.312 -1.2237  1.4339  0.9937
  124OSM   C13F13182   3.931   2.042   4.386 -0.2091 -0.1179 -1.0430
  124OSM   H13F13183   4.030   1.992   4.396  0.9491  1.8671 -2.0288
  124OSM   H13G13184   3.850   1.968   4.366 -0.2391 -0.8880  1.5077
  124OSM   C14F13185   3.900   2.076   4.531 -0.3638  0.0104  0.3507
  124OSM   H14F13186   3.802   2.129   4.525 -0.3711 -0.1355 -3.8989
  124OSM   H14G13187   3.970   2.151   4.573  1.1969 -1.2487  0.0741
  124OSM   C15F13188   3.880   1.950   4.622 -0.7697 -0.3976  0.6016
  124OSM   H15F13189   3.981   1.905   4.632 -1.0182 -1.1786 -0.2616
  124OSM   H15G13190   3.814   1.872   4.578  0.2037 -0.0557 -1.6242
  124OSM   C16F13191   3.815   1.990   4.756 -0.2792  0.4687 -0.4886
  124OSM   H16F13192   3.713   2.032   4.747 -0.8040 -0.5396  0.5374
  124OSM   H16G13193   3.874   2.069   4.807  0.3563 -0.2904 -0.0268
  124OSM   C17F13194   3.791   1.861   4.844 -0.1925 -0.3613 -0.4298
  124OSM   H17F13195   3.878   1.832   4.906  0.2631 -0.4390 -1.0933
  124OSM   H17G13196   3.773   1.777   4.774  0.4407 -0.7882 -0.0860
  124OSM   C18F13197   3.665   1.863   4.934 -1.2081  0.2069 -1.0812
  124OSM   H18F13198   3.685   1.921   5.027 -3.3793  1.5616 -1.3838
  124OSM   H18G13199   3.640   1.762   4.973 -0.2983  0.2897 -0.2631
  124OSM   H18H13200   3.583   1.917   4.881 -1.5436 -2.2825 -3.3011
  125OSM      N13201   5.134   4.918   1.993  0.2437  0.0713  0.0076
  125OSM    C1513202   4.998   4.968   2.050 -0.2172  0.5961 -0.1829
  125OSM   H15A13203   4.925   4.889   2.059 -0.3215  0.5507 -1.3005
  125OSM   H15B13204   4.951   5.049   1.995 -1.2093 -1.5449 -2.7124
  125OSM   H15C13205   5.019   4.993   2.153  1.3049 -0.4759 -0.1986
  125OSM    C1413206   5.118   4.877   1.847 -0.2106 -0.4902  0.1554
  125OSM   H14A13207   5.212   4.838   1.814  0.6369  0.3683  1.4523
  125OSM   H14B13208   5.097   4.967   1.791  0.2139 -0.0941  0.6119
  125OSM   H14C13209   5.033   4.811   1.836  1.1005 -2.0240 -1.1077
  125OSM    C1313210   5.228   5.032   2.017  0.1501  0.1952 -0.3119
  125OSM   H13A13211   5.329   4.999   1.998  0.5148  1.3465 -0.4402
  125OSM   H13B13212   5.222   5.065   2.120  0.2945  1.2505 -0.6333
  125OSM   H13C13213   5.202   5.112   1.949 -1.1829 -0.1874 -0.2800
  125OSM    C1213214   5.169   4.796   2.076  0.1698 -0.4870  0.1303
  125OSM   H12A13215   5.250   4.754   2.019  0.6574  0.1695  0.3271
  125OSM   H12B13216   5.090   4.725   2.057  0.2465 -0.1890 -1.3999
  125OSM    C1113217   5.203   4.819   2.226 -0.0479  0.5390 -1.1710
  125OSM   H11A13218   5.294   4.883   2.230  1.1262 -1.1322  0.3095
  125OSM   H11B13219   5.235   4.716   2.251 -2.4018 -0.2422 -1.0935
  125OSM      P13220   5.011   4.761   2.384 -0.2995 -0.2633  0.4382
  125OSM    O1313221   4.893   4.827   2.449 -0.3148  0.1494  0.1356
  125OSM    O1413222   4.990   4.657   2.285  0.2622  0.6755  0.2124
  125OSM    O1113223   5.100   4.703   2.501 -0.0341  0.2248 -0.0370
  125OSM    O1213224   5.095   4.867   2.306 -0.0417  0.1153  0.1311
  125OSM    C1S13225   5.153   4.793   2.607  0.2288 -0.3395 -0.2291
  125OSM    H1S13226   5.140   4.898   2.573 -2.0483 -0.5459 -0.1751
  125OSM    H1T13227   5.262   4.781   2.623  0.3339 -0.2059 -0.8247
  125OSM     NF13228   5.112   4.890   2.843 -0.6206 -0.4485 -0.5198
  125OSM    HNF13229   5.124   4.854   2.936  0.0053 -1.1657 -0.8680
  125OSM    C2S13230   5.073   4.786   2.745  0.3610 -0.0361  0.1429
  125OSM    H2S13231   4.969   4.811   2.714  0.1833 -1.2442 -0.3144
  125OSM    C3S13232   5.065   4.644   2.802 -0.3501  0.4011 -0.1410
  125OSM    H3S13233   5.158   4.615   2.855 -0.9634 -1.5689 -0.0613
  125OSM     O313234   5.055   4.547   2.699  0.0401  0.3876 -0.6789
  125OSM    HO313235   5.039   4.605   2.624 -0.3398 -2.2153 -2.7424
  125OSM    C4S13236   4.960   4.631   2.908 -0.1289 -0.4593 -0.1635
  125OSM    H4S13237   4.862   4.592   2.876 -0.6331 -0.1059  0.9103
  125OSM    C5S13238   4.987   4.620   3.039 -0.0414  0.5603 -0.0494
  125OSM    H5S13239   5.089   4.619   3.078 -1.0612 -0.3604  2.9296
  125OSM    C6S13240   4.873   4.589   3.140 -0.9035 -0.2131 -0.0701
  125OSM    H6S13241   4.793   4.534   3.088  0.0803 -1.5625 -0.2000
  125OSM    H6T13242   4.849   4.688   3.186 -0.0199  0.1813 -0.4255
  125OSM    C7S13243   4.925   4.509   3.259 -0.5556 -0.2785 -0.4273
  125OSM    H7S13244   4.995   4.571   3.319  1.2422 -3.0324  0.4781
  125OSM    H7T13245   4.986   4.421   3.231  1.4609  1.0875 -0.5320
  125OSM    C8S13246   4.810   4.466   3.345 -0.7214  0.2141  0.0620
  125OSM    H8S13247   4.732   4.409   3.291 -0.0687 -0.1810 -0.4914
  125OSM    H8T13248   4.767   4.558   3.389  0.0380  0.4939  0.2340
  125OSM    C9S13249   4.852   4.376   3.464  0.1592  0.0297 -0.2528
  125OSM    H9S13250   4.897   4.280   3.431  1.7032 -0.4143  2.8240
  125OSM    H9T13251   4.759   4.341   3.514  0.3288 -1.5792 -1.0081
  125OSM   C10S13252   4.938   4.445   3.576  0.0661  0.6343 -0.7870
  125OSM   H10S13253   4.888   4.525   3.634  0.8427  0.2104  0.5078
  125OSM   H10T13254   5.026   4.495   3.528  0.3421  3.4617  2.2821
  125OSM   C11S13255   4.997   4.343   3.675 -0.1947 -0.3409  0.1674
  125OSM   H11S13256   5.069   4.273   3.630 -0.7681 -0.4441 -0.6000
  125OSM   H11T13257   4.908   4.294   3.720 -1.5259  1.6577 -0.1500
  125OSM   C12S13258   5.084   4.406   3.799  0.5260  0.0342  0.1585
  125OSM   H12S13259   5.011   4.459   3.864 -0.5461 -1.3319  0.1301
  125OSM   H12T13260   5.157   4.476   3.754 -0.4349  0.5594 -0.6430
  125OSM   C13S13261   5.146   4.296   3.887 -0.2473  0.0737  0.0806
  125OSM   H13S13262   5.222   4.241   3.828  0.6848 -1.1034  2.2465
  125OSM   H13T13263   5.075   4.216   3.918 -0.2386  0.4705  1.1936
  125OSM   C14S13264   5.222   4.350   4.010 -0.0180  0.2699 -0.4028
  125OSM   H14S13265   5.265   4.451   3.994  0.0075  0.3701  0.2596
  125OSM   H14T13266   5.299   4.275   4.039  1.3060  1.1926 -1.4485
  125OSM   C15S13267   5.120   4.375   4.120  0.5503  0.1029 -0.8092
  125OSM   H15S13268   5.067   4.282   4.147  1.6192  0.1924  1.8642
  125OSM   H15T13269   5.040   4.446   4.087  1.8575  1.7001 -0.6524
  125OSM   C16S13270   5.190   4.422   4.244  0.1820  0.4991 -0.6077
  125OSM   H16S13271   5.114   4.464   4.314  2.2339  0.7411  1.5958
  125OSM   H16T13272   5.263   4.503   4.221  0.1652  0.3831 -1.0909
  125OSM   C17S13273   5.251   4.304   4.324 -0.0577 -0.0640 -0.2584
  125OSM   H17S13274   5.333   4.249   4.274 -0.6925 -1.0457 -0.2484
  125OSM   H17T13275   5.175   4.226   4.346  0.3538 -0.9864 -1.9574
  125OSM   C18S13276   5.295   4.339   4.469 -0.9772  0.1770 -0.4588
  125OSM   H18S13277   5.205   4.374   4.524 -1.2133 -0.1575 -0.6248
  125OSM   H18T13278   5.372   4.419   4.458  0.0446 -0.6826  0.2285
  125OSM   H18U13279   5.349   4.261   4.527 -0.3295  1.0310  0.1190
  125OSM    C1F13280   5.113   5.021   2.824  0.3256  0.2335 -0.3954
  125OSM     OF13281   5.050   5.059   2.727 -0.6470 -0.4628  0.2416
  125OSM    C2F13282   5.171   5.112   2.927  0.2545 -0.5755 -0.7738
  125OSM    H2F13283   5.282   5.102   2.930  0.1632 -1.9627 -1.5255
  125OSM    H2G13284   5.125   5.085   3.025 -2.9779  4.1915 -0.6139
  125OSM    C3F13285   5.119   5.261   2.918  0.2507  0.3140  0.0660
  125OSM    H3F13286   5.011   5.255   2.944  0.0160  0.1164 -0.9263
  125OSM    H3G13287   5.134   5.299   2.815  1.8468 -1.3427 -0.3644
  125OSM    C4F13288   5.200   5.341   3.012 -0.3629  0.5551 -0.0506
  125OSM    H4F13289   5.152   5.439   3.029 -1.5800 -0.5212  3.5997
  125OSM    H4G13290   5.300   5.347   2.965  0.2869 -0.7319  1.0850
  125OSM    C5F13291   5.224   5.287   3.160  0.1258  0.1056 -0.9559
  125OSM    H5F13292   5.272   5.187   3.158 -1.3736 -0.6467 -0.9817
  125OSM    H5G13293   5.120   5.272   3.197  0.1193 -1.0674 -1.4217
  125OSM    C6F13294   5.307   5.388   3.243  0.4187  0.0655  0.3676
  125OSM    H6F13295   5.272   5.396   3.348  0.4261 -1.5351  0.5176
  125OSM    H6G13296   5.309   5.491   3.203  1.3415  0.6773  1.8912
  125OSM    C7F13297   5.455   5.351   3.249  0.6094  0.2542  0.1047
  125OSM    H7F13298   5.476   5.322   3.144 -0.9369  1.7442 -0.6664
  125OSM    H7G13299   5.472   5.258   3.308 -1.5413  1.8833  3.6214
  125OSM    C8F13300   5.547   5.460   3.298  0.6014 -0.4194  0.0087
  125OSM    H8F13301   5.551   5.536   3.217 -1.7612  0.2254  0.4188
  125OSM    H8G13302   5.645   5.407   3.289  0.2957 -0.5916 -4.1498
  125OSM    C9F13303   5.505   5.537   3.423  0.0012  0.2878 -0.1169
  125OSM    H9F13304   5.404   5.581   3.416 -0.0072  0.1431 -0.9549
  125OSM   C10F13305   5.568   5.549   3.540  0.3317 -0.0692 -0.4139
  125OSM   H10F13306   5.520   5.612   3.616  0.7315  1.1532 -1.1456
  125OSM   C11F13307   5.699   5.492   3.592  0.7809  0.1519 -0.1422
  125OSM   H11F13308   5.783   5.539   3.536  1.5242  0.8014  1.4360
  125OSM   H11G13309   5.693   5.382   3.579  2.5384 -0.0082  0.1219
  125OSM   C12F13310   5.728   5.505   3.745  0.4838 -0.3514  0.0893
  125OSM   H12F13311   5.713   5.610   3.779  1.2588 -0.7940  1.9258
  125OSM   H12G13312   5.833   5.477   3.764  0.9134  1.4264  0.5678
  125OSM   C13F13313   5.637   5.422   3.835  0.0555 -0.2407  0.1568
  125OSM   H13F13314   5.649   5.316   3.802 -0.0563 -0.3163  0.3556
  125OSM   H13G13315   5.537   5.466   3.815  0.6563  0.6450 -1.0624
  125OSM   C14F13316   5.659   5.424   3.987 -0.6411  0.0011 -0.2282
  125OSM   H14F13317   5.655   5.522   4.039  0.2501  0.4577 -0.9845
  125OSM   H14G13318   5.761   5.385   4.008 -0.4193  1.6140  2.0106
  125OSM   C15F13319   5.562   5.323   4.049 -0.3253  0.3819 -0.6131
  125OSM   H15F13320   5.598   5.220   4.030  0.3585  0.5482 -0.2548
  125OSM   H15G13321   5.468   5.341   3.992 -1.5465 -0.9610  0.8970
  125OSM   C16F13322   5.557   5.328   4.200  1.2563  0.2162 -1.0383
  125OSM   H16F13323   5.531   5.428   4.240  0.3309  0.2861 -1.7751
  125OSM   H16G13324   5.662   5.320   4.237  0.9317  1.1792  0.1412
  125OSM   C17F13325   5.471   5.212   4.247 -0.3480  0.7017 -0.3102
  125OSM   H17F13326   5.495   5.118   4.193  0.1011  0.2977  0.5719
  125OSM   H17G13327   5.363   5.236   4.235 -0.8659 -2.4575 -4.1039
  125OSM   C18F13328   5.484   5.185   4.394  0.1210 -0.0021 -0.2475
  125OSM   H18F13329   5.416   5.108   4.434  0.9700 -0.7160 -0.1515
  125OSM   H18G13330   5.467   5.285   4.440  0.2617  0.6499 -1.5856
  125OSM   H18H13331   5.587   5.149   4.415 -0.2190 -0.7658  0.1346
  126OSM      N13332   2.095   4.471   2.308  0.1261 -0.0544 -0.1780
  126OSM    C1513333   2.082   4.323   2.314  0.9819 -0.0025 -0.2591
  126OSM   H15A13334   2.096   4.293   2.417  1.2902 -2.1513 -0.8722
  126OSM   H15B13335   2.167   4.291   2.255  0.8584 -1.0600  0.1163
  126OSM   H15C13336   1.989   4.290   2.270  0.6833  1.1703 -0.5391
  126OSM    C1413337   2.088   4.519   2.168  0.3737 -0.0730 -0.2536
  126OSM   H14A13338   1.989   4.508   2.127 -0.7793 -1.0674  2.5256
  126OSM   H14B13339   2.158   4.468   2.104 -1.4945 -2.3281 -0.6427
  126OSM   H14C13340   2.092   4.627   2.170 -5.2803  0.5147 -2.0982
  126OSM    C1313341   1.976   4.536   2.378  0.0325 -0.1722 -0.4655
  126OSM   H13A13342   1.890   4.532   2.313 -1.0152 -1.6921  0.9642
  126OSM   H13B13343   2.008   4.639   2.389  0.6013 -0.1426 -2.1257
  126OSM   H13C13344   1.956   4.482   2.469  1.5979  1.9862  1.2884
  126OSM    C1213345   2.221   4.521   2.365 -0.4210 -0.2204  0.1176
  126OSM   H12A13346   2.232   4.626   2.344 -0.8964 -0.1247  0.3374
  126OSM   H12B13347   2.305   4.467   2.326  0.0144  1.3662 -1.2403
  126OSM    C1113348   2.243   4.490   2.522 -0.1761  0.0120  0.1094
  126OSM   H11A13349   2.151   4.533   2.568 -0.0007 -1.8691  2.3932
  126OSM   H11B13350   2.326   4.550   2.564 -0.4072 -0.3752  1.1402
  126OSM      P13351   2.374   4.273   2.576 -0.2122 -0.1030  0.1851
  126OSM    O1313352   2.343   4.142   2.640  0.2173 -0.2194 -0.5826
  126OSM    O1413353   2.447   4.264   2.447  0.2155  0.5942 -0.4345
  126OSM    O1113354   2.457   4.351   2.681  0.0556  0.4576  0.1343
  126OSM    O1213355   2.240   4.351   2.558  0.2557 -0.0487 -0.3275
  126OSM    C1S13356   2.409   4.375   2.810  0.2665  0.0898  0.2030
  126OSM    H1S13357   2.404   4.278   2.863 -0.7740 -1.3432 -2.3519
  126OSM    H1T13358   2.303   4.408   2.818  0.2686 -0.1699  1.5454
  126OSM     NF13359   2.416   4.513   3.018  0.5810  0.6629  0.5633
  126OSM    HNF13360   2.339   4.573   3.037 -0.6276 -0.3687 -0.8871
  126OSM    C2S13361   2.472   4.502   2.882 -0.1139 -0.0176 -0.1462
  126OSM    H2S13362   2.579   4.472   2.882  0.6928  2.5995 -0.8489
  126OSM    C3S13363   2.459   4.638   2.797 -0.1107  0.4803 -0.3741
  126OSM    H3S13364   2.353   4.661   2.776 -0.1137  2.5550  1.5405
  126OSM     O313365   2.529   4.635   2.671 -0.2776 -0.4348  0.0962
  126OSM    HO313366   2.518   4.541   2.651  0.8647 -0.4329 -0.6383
  126OSM    C4S13367   2.501   4.755   2.875 -0.8841 -0.0670 -0.1835
  126OSM    H4S13368   2.411   4.812   2.902 -0.6273  1.5088 -2.3936
  126OSM    C5S13369   2.625   4.804   2.898  0.1290 -0.3084  0.3690
  126OSM    H5S13370   2.709   4.770   2.836 -0.5519 -1.7379  0.2073
  126OSM    C6S13371   2.654   4.929   2.978  0.1081 -0.2132  0.3911
  126OSM    H6S13372   2.558   4.977   3.009  0.0467  0.9399 -1.4890
  126OSM    H6T13373   2.710   5.007   2.924  1.2612  0.0933  1.9479
  126OSM    C7S13374   2.739   4.900   3.109  0.7312  0.3217  0.3647
  126OSM    H7S13375   2.780   4.994   3.152 -1.2311  0.4352  2.1705
  126OSM    H7T13376   2.830   4.844   3.078  0.3566  0.8396 -1.9097
  126OSM    C8S13377   2.644   4.832   3.210 -0.8928  0.4012  0.3333
  126OSM    H8S13378   2.603   4.736   3.171 -2.6792  1.1188  0.3955
  126OSM    H8T13379   2.565   4.909   3.220  0.1681  1.7427 -1.0765
  126OSM    C9S13380   2.708   4.799   3.345  0.4040 -0.2186 -0.2050
  126OSM    H9S13381   2.656   4.850   3.429 -0.3095 -2.5788  0.8609
  126OSM    H9T13382   2.807   4.851   3.341  0.7630 -0.8098  0.5808
  126OSM   C10S13383   2.739   4.654   3.371  0.1666 -0.3263 -0.2867
  126OSM   H10S13384   2.771   4.609   3.275 -0.6777  0.4298 -0.9473
  126OSM   H10T13385   2.643   4.602   3.396 -0.2200  0.5750  0.1380
  126OSM   C11S13386   2.851   4.637   3.474  0.5371  0.3804  0.8781
  126OSM   H11S13387   2.940   4.689   3.432  0.7810  1.5019  2.6714
  126OSM   H11T13388   2.883   4.533   3.495  1.1451  0.0039 -1.5779
  126OSM   C12S13389   2.819   4.707   3.609  0.0122  0.2776  0.6623
  126OSM   H12S13390   2.710   4.689   3.622 -0.1772 -0.8597 -1.9661
  126OSM   H12T13391   2.836   4.817   3.604 -0.5545  0.3399 -0.1175
  126OSM   C13S13392   2.888   4.657   3.738  0.5292 -0.1485 -0.7229
  126OSM   H13S13393   2.993   4.694   3.738  1.2033 -1.8958  1.0597
  126OSM   H13T13394   2.883   4.546   3.736 -0.3100 -0.1129 -2.8623
  126OSM   C14S13395   2.835   4.710   3.880 -0.1643 -0.2659 -0.7173
  126OSM   H14S13396   2.743   4.650   3.899  0.2768 -0.8084 -0.2292
  126OSM   H14T13397   2.808   4.817   3.875  2.0632  0.3343 -0.6769
  126OSM   C15S13398   2.937   4.673   3.997 -0.1919 -0.2799 -1.2620
  126OSM   H15S13399   3.029   4.729   3.969 -1.6937  2.7761 -0.4410
  126OSM   H15T13400   2.953   4.563   3.993 -1.4787 -0.4860 -1.2957
  126OSM   C16S13401   2.885   4.723   4.134 -0.0247  0.5454  0.4227
  126OSM   H16S13402   2.785   4.675   4.140 -1.1326  2.6798  0.3515
  126OSM   H16T13403   2.857   4.830   4.121  0.2448  0.4067 -1.7149
  126OSM   C17S13404   2.970   4.697   4.267 -0.0925  0.0608 -0.1438
  126OSM   H17S13405   2.913   4.745   4.349 -1.3049 -1.3912 -0.0983
  126OSM   H17T13406   3.071   4.741   4.253  0.6829 -0.8535  2.1295
  126OSM   C18S13407   2.984   4.544   4.294 -0.5463  0.6161 -0.6036
  126OSM   H18S13408   3.036   4.500   4.206 -1.2906 -1.4209 -0.0889
  126OSM   H18T13409   2.882   4.503   4.308  1.0236 -3.3016  1.0026
  126OSM   H18U13410   3.048   4.523   4.383 -0.1633 -1.4265 -1.2929
  126OSM    C1F13411   2.440   4.421   3.111 -0.1705  0.0975  0.3669
  126OSM     OF13412   2.524   4.330   3.094  0.3835 -0.1431 -0.1348
  126OSM    C2F13413   2.371   4.434   3.242 -0.3361 -1.0996 -0.1037
  126OSM    H2F13414   2.273   4.383   3.234 -0.7677 -0.2705 -0.1905
  126OSM    H2G13415   2.351   4.539   3.271  0.2220 -0.9764 -0.1513
  126OSM    C3F13416   2.442   4.363   3.352  0.1167 -0.1487  0.4940
  126OSM    H3F13417   2.552   4.378   3.360  0.0950  1.9308 -1.9862
  126OSM    H3G13418   2.425   4.255   3.328 -1.6513  0.3173 -0.5543
  126OSM    C4F13419   2.389   4.383   3.496 -0.1450  0.1297 -0.0353
  126OSM    H4F13420   2.456   4.317   3.555  0.5659  1.3839  0.5801
  126OSM    H4G13421   2.283   4.348   3.498  0.0340 -0.6515 -2.0036
  126OSM    C5F13422   2.395   4.517   3.554 -0.4292 -0.4002 -0.2300
  126OSM    H5F13423   2.341   4.586   3.485 -1.3473 -2.1865 -1.3905
  126OSM    H5G13424   2.502   4.545   3.567 -0.2317 -1.8475  1.7289
  126OSM    C6F13425   2.332   4.528   3.689 -0.1245  0.3878 -0.5125
  126OSM    H6F13426   2.235   4.474   3.695  0.6653 -1.2172 -1.6030
  126OSM    H6G13427   2.304   4.635   3.706 -2.9958 -0.4636  0.7053
  126OSM    C7F13428   2.423   4.479   3.805  0.1395  0.4154  0.3135
  126OSM    H7F13429   2.525   4.522   3.792  0.1915  0.6576  1.4782
  126OSM    H7G13430   2.432   4.369   3.793 -3.3305 -0.0091  0.8028
  126OSM    C8F13431   2.376   4.502   3.950  0.4605 -0.1633 -0.3183
  126OSM    H8F13432   2.295   4.426   3.955 -1.3171  1.5608 -1.6338
  126OSM    H8G13433   2.327   4.602   3.945  0.0513 -0.4199 -1.7045
  126OSM    C9F13434   2.482   4.489   4.053 -0.4641  0.1006 -0.6069
  126OSM    H9F13435   2.572   4.552   4.045 -0.6382  0.7427  1.6613
  126OSM   C10F13436   2.477   4.405   4.157  0.1901  0.1846 -0.6978
  126OSM   H10F13437   2.564   4.407   4.225 -1.1814 -2.2395  1.2850
  126OSM   C11F13438   2.378   4.294   4.171 -0.6649  0.4379 -0.2821
  126OSM   H11F13439   2.417   4.209   4.231 -0.0352  1.6198  1.0444
  126OSM   H11G13440   2.367   4.246   4.072  0.7591  0.8836 -0.6903
  126OSM   C12F13441   2.247   4.331   4.242  0.1133  0.3055 -0.0334
  126OSM   H12F13442   2.188   4.239   4.264  2.3422 -1.2393 -0.1599
  126OSM   H12G13443   2.178   4.384   4.173 -0.8556  1.2809  1.6132
  126OSM   C13F13444   2.252   4.412   4.367 -0.5169  0.7031 -0.5021
  126OSM   H13F13445   2.153   4.442   4.406 -1.0779 -1.3726 -0.2315
  126OSM   H13G13446   2.318   4.502   4.364  0.4628  0.0449  0.6555
  126OSM   C14F13447   2.303   4.323   4.478 -0.0046 -0.2163 -0.7341
  126OSM   H14F13448   2.403   4.294   4.440  0.1064 -2.9951  1.3140
  126OSM   H14G13449   2.249   4.225   4.482 -0.1718 -0.1091  2.3300
  126OSM   C15F13450   2.307   4.393   4.617 -0.0944  0.0213  0.0786
  126OSM   H15F13451   2.356   4.313   4.676  1.0179 -0.3006 -1.2522
  126OSM   H15G13452   2.209   4.427   4.658 -1.4592 -1.5244 -1.6887
  126OSM   C16F13453   2.416   4.507   4.608  0.4718  0.1435  0.1031
  126OSM   H16F13454   2.367   4.596   4.563 -1.2736 -0.2490  1.1596
  126OSM   H16G13455   2.491   4.462   4.539 -0.3963  1.1105 -1.5056
  126OSM   C17F13456   2.493   4.538   4.735 -0.2705 -0.4912 -0.2695
  126OSM   H17F13457   2.525   4.442   4.780 -2.0468 -1.0992 -0.2575
  126OSM   H17G13458   2.434   4.592   4.813 -0.1020  0.6158 -0.8820
  126OSM   C18F13459   2.617   4.637   4.708  0.4071  0.0708 -0.7992
  126OSM   H18F13460   2.681   4.581   4.636 -1.7360  0.3639 -3.0717
  126OSM   H18G13461   2.670   4.650   4.804  1.7426  0.3241 -1.5459
  126OSM   H18H13462   2.579   4.735   4.674 -2.6848 -0.6953  0.1293
  127OSM      N13463   3.392   0.991   2.986  0.1850 -0.3417 -0.6372
  127OSM    C1513464   3.500   0.907   3.026 -0.4380  0.3380 -0.2895
  127OSM   H15A13465   3.587   0.911   2.962 -0.1159 -1.7994 -0.0854
  127OSM   H15B13466   3.467   0.804   3.028 -1.0817  0.5345  1.4019
  127OSM   H15C13467   3.547   0.934   3.120  1.1642  1.1073 -1.2721
  127OSM    C1413468   3.444   1.130   2.964  0.2016 -0.0232  0.7494
  127OSM   H14A13469   3.508   1.119   2.877 -2.4349 -0.9096 -1.2284
  127OSM   H14B13470   3.500   1.169   3.047  1.3036  1.9340 -0.8179
  127OSM   H14C13471   3.372   1.203   2.931  0.3497 -0.9196 -1.7617
  127OSM    C1313472   3.321   0.939   2.866 -0.2074  0.1067  0.0089
  127OSM   H13A13473   3.266   0.849   2.892 -1.0876  0.6368  0.0103
  127OSM   H13B13474   3.391   0.930   2.784  0.7703  1.0106  0.7116
  127OSM   H13C13475   3.261   1.026   2.843  0.3815  0.8335  1.1225
  127OSM    C1213476   3.294   1.001   3.110 -0.5041  0.4667  0.1033
  127OSM   H12A13477   3.220   1.077   3.091  0.7150  1.3247 -1.4882
  127OSM   H12B13478   3.356   1.025   3.196  0.9728 -1.2765 -0.4186
  127OSM    C1113479   3.218   0.870   3.144  0.1600  0.0264  0.6453
  127OSM   H11A13480   3.167   0.888   3.241 -2.4581  0.1070 -0.6364
  127OSM   H11B13481   3.279   0.782   3.173 -0.3242 -0.1748  1.0816
  127OSM      P13482   3.006   0.922   3.003  0.1640  0.4709  0.1628
  127OSM    O1313483   3.045   1.061   3.007 -0.1653 -0.5912  0.8278
  127OSM    O1413484   2.945   0.874   2.874  0.0984 -0.3096 -0.0473
  127OSM    O1113485   2.903   0.902   3.120  0.1444 -0.3947  0.9531
  127OSM    O1213486   3.128   0.831   3.039 -0.2592 -0.0079  0.2585
  127OSM    C1S13487   2.877   0.768   3.169  0.3342 -0.3077 -0.4702
  127OSM    H1S13488   2.964   0.700   3.161  1.4580  0.9363  0.8617
  127OSM    H1T13489   2.798   0.724   3.103  1.7548 -1.6280 -1.3774
  127OSM     NF13490   2.778   0.635   3.356 -0.4270 -0.0687 -0.6464
  127OSM    HNF13491   2.680   0.616   3.358 -0.5771  0.7564  1.2609
  127OSM    C2S13492   2.836   0.766   3.327  0.9186 -0.0969 -0.7358
  127OSM    H2S13493   2.924   0.774   3.395  0.1707 -1.3210  0.4131
  127OSM    C3S13494   2.747   0.885   3.367  0.1476  0.6616  0.6053
  127OSM    H3S13495   2.657   0.877   3.302  0.3726 -0.4034  0.4158
  127OSM     O313496   2.813   1.005   3.329  0.0510 -0.0926 -0.3525
  127OSM    HO313497   2.857   0.984   3.246  1.0002  0.2522  0.0477
  127OSM    C4S13498   2.700   0.874   3.505 -0.4478 -0.3281 -0.1187
  127OSM    H4S13499   2.602   0.823   3.511 -1.3720  1.3264 -0.4599
  127OSM    C5S13500   2.768   0.912   3.616 -0.6297  0.2525  0.2833
  127OSM    H5S13501   2.871   0.950   3.618 -0.9436  1.3454 -1.5528
  127OSM    C6S13502   2.700   0.899   3.749  0.2302 -0.5201 -0.2951
  127OSM    H6S13503   2.589   0.905   3.755  0.2795  0.4541 -0.1926
  127OSM    H6T13504   2.726   0.987   3.812  2.1438 -0.0299 -1.7017
  127OSM    C7S13505   2.762   0.785   3.823  0.1937  0.1099 -0.1762
  127OSM    H7S13506   2.872   0.796   3.835  0.5760 -0.9297 -2.2605
  127OSM    H7T13507   2.747   0.695   3.760  1.7925 -1.6203  1.7653
  127OSM    C8S13508   2.687   0.773   3.958 -0.0932  0.0625 -0.3820
  127OSM    H8S13509   2.576   0.765   3.962  0.0412 -2.0516  0.4351
  127OSM    H8T13510   2.719   0.859   4.019 -0.5075  0.6154 -0.9305
  127OSM    C9S13511   2.735   0.639   4.013  0.2121 -0.5514  0.3625
  127OSM    H9S13512   2.846   0.638   4.007  0.2326  1.5110 -0.5373
  127OSM    H9T13513   2.707   0.570   3.929  1.1232  0.0585 -0.4694
  127OSM   C10S13514   2.679   0.607   4.150  0.1929  0.0704 -0.2290
  127OSM   H10S13515   2.705   0.500   4.164 -1.3260 -0.6215 -2.3907
  127OSM   H10T13516   2.570   0.627   4.149  0.0592 -0.5787  0.2902
  127OSM   C11S13517   2.748   0.690   4.256 -0.6429  0.1948 -0.0471
  127OSM   H11S13518   2.731   0.798   4.237  1.6357  0.6554  0.1595
  127OSM   H11T13519   2.856   0.665   4.249 -0.7565  0.0688 -2.1026
  127OSM   C12S13520   2.685   0.672   4.398 -1.0064 -0.1596  0.1601
  127OSM   H12S13521   2.699   0.565   4.423  1.4089  0.6021  2.5792
  127OSM   H12T13522   2.577   0.697   4.396 -1.2231 -0.6803  2.6426
  127OSM   C13S13523   2.750   0.761   4.508  0.0685 -0.0920 -0.2432
  127OSM   H13S13524   2.704   0.734   4.605 -0.6245  1.1439 -0.2192
  127OSM   H13T13525   2.724   0.865   4.480 -1.4185 -0.7817 -1.5919
  127OSM   C14S13526   2.901   0.759   4.520  0.0419  0.4175 -0.1217
  127OSM   H14S13527   2.949   0.794   4.426 -1.9079  2.7656 -0.3518
  127OSM   H14T13528   2.941   0.657   4.535  1.2735  0.9642  0.4592
  127OSM   C15S13529   2.963   0.848   4.632  0.4070 -0.2430  0.6937
  127OSM   H15S13530   2.934   0.953   4.611 -1.3669 -0.6533  0.9247
  127OSM   H15T13531   3.070   0.818   4.626 -0.1261 -2.0048 -1.0588
  127OSM   C16S13532   2.911   0.808   4.767 -0.1126  0.6651  0.0541
  127OSM   H16S13533   2.905   0.697   4.776 -2.0244  0.6437 -0.8257
  127OSM   H16T13534   2.804   0.836   4.776 -0.0234  1.3729 -0.9391
  127OSM   C17S13535   2.990   0.867   4.883 -0.3454  0.2088  0.5513
  127OSM   H17S13536   2.992   0.978   4.880  0.9384  0.1780 -1.5840
  127OSM   H17T13537   3.093   0.829   4.873 -0.4777  0.1609 -0.7988
  127OSM   C18S13538   2.931   0.809   5.015  0.6070 -0.5042  0.1943
  127OSM   H18S13539   2.958   0.873   5.102  0.0303 -0.5075  0.3780
  127OSM   H18T13540   2.955   0.703   5.039 -1.5831 -0.5761  2.5021
  127OSM   H18U13541   2.820   0.801   5.010  0.6142 -0.5521  0.0996
  127OSM    C1F13542   2.848   0.522   3.335 -0.5077 -0.0716  0.2125
  127OSM     OF13543   2.966   0.529   3.312 -0.4229  0.7749 -0.0302
  127OSM    C2F13544   2.777   0.398   3.344  0.9339  0.0005  0.0941
  127OSM    H2F13545   2.748   0.354   3.247  0.1263 -2.3350  1.3241
  127OSM    H2G13546   2.680   0.417   3.395  0.8590  1.2418 -0.4786
  127OSM    C3F13547   2.840   0.299   3.445 -0.2913 -0.7247 -0.4459
  127OSM    H3F13548   2.942   0.264   3.419  0.9355 -0.0570  3.0219
  127OSM    H3G13549   2.782   0.204   3.442 -1.1734 -0.1922 -1.2692
  127OSM    C4F13550   2.831   0.338   3.593 -0.5241 -0.1705  1.0336
  127OSM    H4F13551   2.722   0.357   3.609 -0.6184  1.5349 -1.1480
  127OSM    H4G13552   2.881   0.434   3.617 -0.9646 -0.0366  1.4274
  127OSM    C5F13553   2.874   0.228   3.702 -0.2996 -0.5246 -0.3879
  127OSM    H5F13554   2.983   0.209   3.689  0.3370  3.5107 -2.8031
  127OSM    H5G13555   2.816   0.134   3.689 -0.1549 -0.6622 -0.0549
  127OSM    C6F13556   2.854   0.286   3.843 -0.0313 -0.0457  0.1545
  127OSM    H6F13557   2.753   0.332   3.854 -0.2596 -0.6205  0.5055
  127OSM    H6G13558   2.941   0.349   3.870  2.7085 -3.7932  0.7831
  127OSM    C7F13559   2.863   0.168   3.952 -0.1779 -0.4917  0.1279
  127OSM    H7F13560   2.932   0.088   3.916  2.0275  1.8128 -1.1315
  127OSM    H7G13561   2.768   0.115   3.971 -1.0512  0.3466 -1.6492
  127OSM    C8F13562   2.929   0.220   4.080 -0.2401  0.0015 -0.0027
  127OSM    H8F13563   2.876   0.308   4.123 -1.1916 -1.5414  2.1892
  127OSM    H8G13564   3.028   0.265   4.058  0.1233  1.6149  4.0200
  127OSM    C9F13565   2.966   0.113   4.184  0.2576  0.1128 -1.1742
  127OSM    H9F13566   3.061   0.058   4.172 -0.2190 -0.8902 -0.5465
  127OSM   C10F13567   2.911   0.108   4.312  0.3760  0.1357  0.7062
  127OSM   H10F13568   2.938   0.024   4.377 -0.2881 -0.6113  0.0408
  127OSM   C11F13569   2.801   0.195   4.367  0.7139 -0.0902  0.3044
  127OSM   H11F13570   2.719   0.130   4.404  0.9156 -0.1107  0.7223
  127OSM   H11G13571   2.752   0.254   4.286  2.3603  1.4439  0.3558
  127OSM   C12F13572   2.849   0.296   4.479 -0.7962  0.1932 -0.5011
  127OSM   H12F13573   2.768   0.364   4.512  0.6801  0.8135  2.2015
  127OSM   H12G13574   2.922   0.369   4.438 -1.1346  0.8155 -0.0185
  127OSM   C13F13575   2.911   0.237   4.602  0.5636 -0.4712  0.1500
  127OSM   H13F13576   3.011   0.189   4.593  1.8550  1.8191  1.3314
  127OSM   H13G13577   2.833   0.163   4.632 -0.3622 -0.5766 -2.3067
  127OSM   C14F13578   2.918   0.346   4.715 -0.0146 -0.1853 -0.1977
  127OSM   H14F13579   2.814   0.372   4.744  0.7428  0.8727  1.7665
  127OSM   H14G13580   2.960   0.439   4.672  0.2308 -1.2866 -2.4945
  127OSM   C15F13581   2.995   0.286   4.830  0.0537  0.4002 -0.8175
  127OSM   H15F13582   3.104   0.289   4.808 -0.0494  0.5659 -1.3090
  127OSM   H15G13583   2.975   0.178   4.849 -0.4114  0.6410  0.1351
  127OSM   C16F13584   2.967   0.355   4.963  0.3221  0.0653 -0.3243
  127OSM   H16F13585   2.857   0.365   4.978  0.5664 -1.0313  2.7376
  127OSM   H16G13586   3.004   0.459   4.974 -3.6317  1.7465 -1.1530
  127OSM   C17F13587   3.033   0.270   5.074  0.1922 -0.0232 -0.4221
  127OSM   H17F13588   3.138   0.251   5.044  0.4678  0.5765  0.1344
  127OSM   H17G13589   2.981   0.172   5.072  1.0682 -0.4922 -1.3494
  127OSM   C18F13590   3.019   0.342   5.213  0.2733  0.9032 -0.0476
  127OSM   H18F13591   3.064   0.443   5.207  1.6736  0.4118  1.6144
  127OSM   H18G13592   3.073   0.285   5.292 -1.8473  0.2358  1.0059
  127OSM   H18H13593   2.914   0.362   5.245  0.6195  0.8819  1.1701
  128OSM      N13594   2.276   6.214   2.663 -0.3225  0.1288  0.6206
  128OSM    C1513595   2.226   6.072   2.669  0.3153  0.0650 -0.1881
  128OSM   H15A13596   2.280   6.009   2.738  0.7987 -0.5910 -1.1559
  128OSM   H15B13597   2.228   6.026   2.572  1.3719  0.3509 -0.3172
  128OSM   H15C13598   2.119   6.069   2.689 -0.1481 -1.2596 -2.5163
  128OSM    C1413599   2.214   6.313   2.566 -0.1314  0.1005 -0.6665
  128OSM   H14A13600   2.205   6.274   2.466 -3.6290  0.1087 -0.4759
  128OSM   H14B13601   2.272   6.403   2.549  0.4295 -0.4832 -2.0303
  128OSM   H14C13602   2.114   6.340   2.595  0.1440  1.2121 -0.7002
  128OSM    C1313603   2.265   6.266   2.803  0.2046 -0.4816  0.6112
  128OSM   H13A13604   2.165   6.248   2.837 -0.1471  0.8535  0.3422
  128OSM   H13B13605   2.275   6.374   2.802  0.3091 -0.4568  2.0945
  128OSM   H13C13606   2.341   6.228   2.870 -1.3777 -1.9955  1.6033
  128OSM    C1213607   2.421   6.205   2.626 -0.6099  0.6306 -0.1437
  128OSM   H12A13608   2.469   6.301   2.638  0.0811  0.1369  1.2563
  128OSM   H12B13609   2.441   6.189   2.521  2.6274  0.8683  0.3328
  128OSM    C1113610   2.507   6.100   2.696 -0.7224  0.6295 -0.0780
  128OSM   H11A13611   2.458   6.002   2.678 -0.0722  0.2063  0.4251
  128OSM   H11B13612   2.518   6.123   2.804  1.5050 -0.5511  0.0101
  128OSM      P13613   2.708   5.961   2.616 -0.4628 -0.0078  0.0239
  128OSM    O1313614   2.620   5.881   2.529  0.0277 -0.5918  0.3023
  128OSM    O1413615   2.847   5.976   2.571  0.0314  0.4006 -0.1145
  128OSM    O1113616   2.696   5.898   2.762  0.6054 -0.3250 -0.0800
  128OSM    O1213617   2.639   6.102   2.638 -0.2341 -0.4672  0.3341
  128OSM    C1S13618   2.753   5.978   2.878  0.6756 -0.4300  0.7041
  128OSM    H1S13619   2.674   6.048   2.914 -0.4471 -2.2069  1.8325
  128OSM    H1T13620   2.832   6.052   2.853 -0.2385 -0.0469 -1.2492
  128OSM     NF13621   2.836   5.985   3.100  0.1762 -0.8577  0.0933
  128OSM    HNF13622   2.935   5.989   3.102  0.1536  0.5970  1.8468
  128OSM    C2S13623   2.781   5.895   3.002  0.0993 -0.0009  0.1537
  128OSM    H2S13624   2.691   5.842   3.041 -0.0414 -0.1914 -0.4331
  128OSM    C3S13625   2.888   5.781   2.968 -0.4337 -0.0549  0.0793
  128OSM    H3S13626   2.981   5.833   2.936 -1.0170  0.5380 -0.7091
  128OSM     O313627   2.852   5.676   2.877  0.2771 -0.1713  0.0278
  128OSM    HO313628   2.769   5.700   2.837  1.4822 -0.3656 -2.8000
  128OSM    C4S13629   2.927   5.710   3.103 -0.8868  0.1878  0.8096
  128OSM    H4S13630   2.835   5.686   3.159 -3.0082 -2.4426 -3.2915
  128OSM    C5S13631   3.052   5.688   3.154 -0.4896  0.0782 -0.1599
  128OSM    H5S13632   3.143   5.706   3.095 -1.1775  0.4280 -1.1597
  128OSM    C6S13633   3.078   5.634   3.291 -0.4598 -0.0662  0.4588
  128OSM    H6S13634   3.182   5.644   3.328 -0.6042  0.5430  0.7091
  128OSM    H6T13635   3.047   5.527   3.295 -0.6675 -0.0067  0.4499
  128OSM    C7S13636   2.995   5.701   3.402  0.4106  0.4884  0.2695
  128OSM    H7S13637   2.888   5.676   3.386  0.9832 -1.6296 -0.5725
  128OSM    H7T13638   3.006   5.811   3.397 -0.7261  0.6986  1.7355
  128OSM    C8S13639   3.026   5.642   3.536  0.3980 -0.0797  0.1183
  128OSM    H8S13640   3.133   5.649   3.564 -0.3094  0.6086  3.0253
  128OSM    H8T13641   3.006   5.532   3.530  1.6207 -0.3619  0.9551
  128OSM    C9S13642   2.933   5.702   3.640  0.4948 -0.3177  0.5179
  128OSM    H9S13643   2.832   5.664   3.613  0.8214 -0.9745  0.1994
  128OSM    H9T13644   2.942   5.812   3.646 -0.2486 -0.2738  0.8748
  128OSM   C10S13645   2.975   5.649   3.774 -0.2519  0.7990  0.5382
  128OSM   H10S13646   3.021   5.549   3.755  0.6439  1.5481 -1.5462
  128OSM   H10T13647   2.881   5.634   3.831 -0.2718 -0.9091  0.1154
  128OSM   C11S13648   3.063   5.731   3.867 -0.2584 -0.1236 -0.6748
  128OSM   H11S13649   3.011   5.828   3.884  2.1007  0.7222  2.8944
  128OSM   H11T13650   3.160   5.767   3.826 -0.0415 -0.7922 -0.7627
  128OSM   C12S13651   3.087   5.665   4.003  0.5027 -0.4248  0.1028
  128OSM   H12S13652   3.182   5.702   4.047  1.0555  2.1503 -2.9016
  128OSM   H12T13653   3.109   5.559   3.981  1.1457 -0.2413 -0.1419
  128OSM   C13S13654   2.959   5.670   4.085  0.2242  0.3887 -0.8103
  128OSM   H13S13655   2.891   5.588   4.055  0.5583 -0.1164 -0.2115
  128OSM   H13T13656   2.916   5.772   4.077 -1.6547 -0.2967  0.1350
  128OSM   C14S13657   2.979   5.642   4.237 -0.5473 -0.1814  0.2460
  128OSM   H14S13658   3.032   5.545   4.237  1.6394  0.9383  0.9873
  128OSM   H14T13659   2.879   5.615   4.278 -1.5979  2.1177 -0.6205
  128OSM   C15S13660   3.049   5.755   4.313  0.3943  0.3740  0.1353
  128OSM   H15S13661   2.985   5.843   4.294 -0.1650 -0.1567 -0.5014
  128OSM   H15T13662   3.151   5.781   4.279 -0.6115  2.3013 -1.6582
  128OSM   C16S13663   3.063   5.731   4.459 -0.2664  0.0758 -0.5218
  128OSM   H16S13664   3.108   5.630   4.467  0.8061  0.4781 -1.1794
  128OSM   H16T13665   2.965   5.727   4.512  0.2754  2.4160  0.8144
  128OSM   C17S13666   3.146   5.836   4.536 -0.5696  0.1890  0.2574
  128OSM   H17S13667   3.097   5.936   4.533  0.8731  0.9365  0.6883
  128OSM   H17T13668   3.230   5.845   4.464 -0.9830  0.9632 -0.1445
  128OSM   C18S13669   3.207   5.804   4.665 -0.0341  0.3339 -0.1400
  128OSM   H18S13670   3.128   5.810   4.743 -0.4708  1.4341 -0.6528
  128OSM   H18T13671   3.279   5.886   4.685  0.1758  0.2395 -0.5160
  128OSM   H18U13672   3.258   5.705   4.663  1.2645  0.9878 -0.2796
  128OSM    C1F13673   2.774   6.067   3.177 -0.1998 -0.2349 -0.0583
  128OSM     OF13674   2.653   6.080   3.174  0.0968  0.0054 -0.2917
  128OSM    C2F13675   2.856   6.148   3.269  0.0034  0.0261  0.1792
  128OSM    H2F13676   2.788   6.222   3.318  0.3825  1.2436 -1.0906
  128OSM    H2G13677   2.929   6.205   3.208  0.6627 -1.5653 -0.5683
  128OSM    C3F13678   2.937   6.071   3.377 -0.3196  0.0464 -0.8275
  128OSM    H3F13679   3.017   6.014   3.325  0.9649  2.5211 -1.7433
  128OSM    H3G13680   2.865   6.012   3.437  0.1762  0.1400 -0.1288
  128OSM    C4F13681   2.998   6.167   3.485 -0.3346 -0.7947  0.0787
  128OSM    H4F13682   2.918   6.220   3.541  0.5774  2.3046 -1.3411
  128OSM    H4G13683   3.049   6.251   3.433 -1.2729 -0.6816 -0.6814
  128OSM    C5F13684   3.089   6.098   3.586 -0.0192 -0.2226  0.1321
  128OSM    H5F13685   3.185   6.066   3.539 -0.9824  0.1330 -2.2124
  128OSM    H5G13686   3.043   6.011   3.638  0.7236  0.3807  1.8797
  128OSM    C6F13687   3.131   6.190   3.704 -0.1811 -0.2576 -0.3453
  128OSM    H6F13688   3.052   6.260   3.739 -0.9452 -1.8155  1.2162
  128OSM    H6G13689   3.212   6.257   3.667 -0.8027  0.0809 -1.1310
  128OSM    C7F13690   3.182   6.107   3.831 -0.4785 -0.3184 -0.6107
  128OSM    H7F13691   3.288   6.079   3.818 -0.3546 -1.8399  2.7112
  128OSM    H7G13692   3.116   6.017   3.832 -1.5196  0.4202 -0.5491
  128OSM    C8F13693   3.169   6.182   3.971  0.0286  0.2802 -0.1324
  128OSM    H8F13694   3.063   6.205   3.993 -0.5788 -0.8138 -1.7321
  128OSM    H8G13695   3.217   6.282   3.961 -1.1370  1.0466  1.5925
  128OSM    C9F13696   3.224   6.104   4.090  0.1024 -0.5228  0.1763
  128OSM    H9F13697   3.323   6.059   4.074  0.0780 -0.8555  0.8898
  128OSM   C10F13698   3.163   6.071   4.208 -0.0416  0.4530 -0.0233
  128OSM   H10F13699   3.221   6.017   4.284  1.2134 -2.3454 -2.7316
  128OSM   C11F13700   3.031   6.119   4.251  0.1146 -0.4402 -0.3124
  128OSM   H11F13701   2.992   6.052   4.330  1.5070 -1.8881 -0.8066
  128OSM   H11G13702   2.958   6.111   4.168 -2.3509  0.2008  1.6734
  128OSM   C12F13703   3.015   6.270   4.285 -0.1085  0.1322 -0.2238
  128OSM   H12F13704   2.908   6.293   4.302 -0.2145  0.1284 -0.8592
  128OSM   H12G13705   3.036   6.333   4.195 -3.6322  1.6924 -0.1087
  128OSM   C13F13706   3.088   6.310   4.410 -0.2482 -0.3988 -0.8972
  128OSM   H13F13707   3.089   6.421   4.401  1.7673 -0.5076 -3.2678
  128OSM   H13G13708   3.195   6.280   4.410 -0.2480 -0.3963 -0.7585
  128OSM   C14F13709   3.015   6.266   4.538  0.2926 -0.7393  1.1095
  128OSM   H14F13710   3.010   6.155   4.535  2.4058 -0.8692 -0.1259
  128OSM   H14G13711   2.912   6.307   4.541  0.9885  1.8652 -3.0283
  128OSM   C15F13712   3.083   6.310   4.668  0.4714  0.2972  0.6019
  128OSM   H15F13713   3.026   6.264   4.751  0.0455 -3.1801 -1.4033
  128OSM   H15G13714   3.083   6.421   4.670 -0.1715  0.4560 -2.4579
  128OSM   C16F13715   3.223   6.257   4.676  0.0097 -0.0524  0.4626
  128OSM   H16F13716   3.292   6.315   4.611 -0.0768 -1.3791 -0.8722
  128OSM   H16G13717   3.226   6.151   4.642 -1.5638  0.0191  0.0279
  128OSM   C17F13718   3.292   6.258   4.814 -0.2053 -0.6179  1.1157
  128OSM   H17F13719   3.244   6.200   4.896 -1.5095 -0.9444  0.1675
  128OSM   H17G13720   3.302   6.362   4.849 -0.0657 -0.4726  0.6574
  128OSM   C18F13721   3.438   6.208   4.810  0.0534  0.1906  0.4818
  128OSM   H18F13722   3.453   6.101   4.781 -0.4254  0.7721 -2.2422
  128OSM   H18G13723   3.468   6.212   4.917  1.0732 -0.5624  0.2469
  128OSM   H18H13724   3.507   6.274   4.753  0.9502 -0.2310  1.0621
  129OSM      N13725   5.458   5.773   1.689  0.7036  0.3602 -0.0975
  129OSM    C1513726   5.482   5.901   1.761  0.0311 -0.2711 -0.1174
  129OSM   H15A13727   5.516   5.873   1.860  2.0224  1.6791 -0.1504
  129OSM   H15B13728   5.398   5.969   1.766  2.9465  3.6704  0.1894
  129OSM   H15C13729   5.554   5.967   1.715 -1.0336  2.6203  2.0248
  129OSM    C1413730   5.383   5.805   1.557  0.2031  0.6601  0.3798
  129OSM   H14A13731   5.451   5.867   1.501  1.1091 -0.2768  0.4080
  129OSM   H14B13732   5.286   5.852   1.571 -0.7070 -0.3670 -1.9164
  129OSM   H14C13733   5.377   5.711   1.503  0.7479  0.9767 -0.2426
  129OSM    C1313734   5.593   5.717   1.658  0.1590 -0.5080 -0.0190
  129OSM   H13A13735   5.665   5.778   1.605  1.1484 -1.0826  0.6147
  129OSM   H13B13736   5.586   5.624   1.603  0.9926 -0.9494  0.6049
  129OSM   H13C13737   5.640   5.703   1.754 -0.2684 -0.6542  0.1732
  129OSM    C1213738   5.371   5.679   1.777  0.5866  0.1349  0.2849
  129OSM   H12A13739   5.350   5.593   1.715 -1.0883  1.4203 -1.0060
  129OSM   H12B13740   5.280   5.729   1.804  2.0166  3.3750 -0.3619
  129OSM    C1113741   5.415   5.625   1.917 -0.2129  0.6402 -0.2662
  129OSM   H11A13742   5.508   5.566   1.909 -0.6583  0.0182 -1.0137
  129OSM   H11B13743   5.331   5.562   1.953 -0.6929  2.2547  1.5949
  129OSM      P13744   5.313   5.799   2.088  0.3384  0.0116 -0.3098
  129OSM    O1313745   5.364   5.916   2.165  0.1111  0.6522  0.2198
  129OSM    O1413746   5.199   5.828   2.000 -0.0926 -0.1996  0.4998
  129OSM    O1113747   5.263   5.687   2.189 -0.2473  0.3753 -0.0128
  129OSM    O1213748   5.440   5.735   2.007 -0.1592 -0.5913  0.3314
  129OSM    C1S13749   5.346   5.605   2.271  0.3018 -0.3124 -1.2312
  129OSM    H1S13750   5.447   5.604   2.225  0.2059  0.0510 -1.4527
  129OSM    H1T13751   5.307   5.500   2.267  0.7820 -0.6064  0.8037
  129OSM     NF13752   5.446   5.577   2.486 -0.3275  0.0853 -0.4876
  129OSM    HNF13753   5.431   5.504   2.552  2.8436  0.4719  0.8479
  129OSM    C2S13754   5.338   5.647   2.416 -0.0287  0.0743  0.0045
  129OSM    H2S13755   5.360   5.756   2.417  1.6444 -0.2271  0.2970
  129OSM    C3S13756   5.198   5.626   2.476  0.3693 -0.0911  0.1712
  129OSM    H3S13757   5.180   5.521   2.443  0.5838  0.4527 -1.7544
  129OSM     O313758   5.096   5.707   2.418  0.6336 -0.1187 -0.5223
  129OSM    HO313759   5.141   5.735   2.338  0.5094  1.8082  0.0146
  129OSM    C4S13760   5.198   5.630   2.625  0.3318 -0.0707 -0.3613
  129OSM    H4S13761   5.155   5.540   2.673 -2.0256 -0.2348 -2.5268
  129OSM    C5S13762   5.216   5.739   2.703 -0.1691  0.6921 -0.2286
  129OSM    H5S13763   5.228   5.839   2.660  0.8987  0.0554 -1.5009
  129OSM    C6S13764   5.178   5.739   2.844 -0.1626  0.1848  0.0800
  129OSM    H6S13765   5.154   5.632   2.865  2.0159 -0.7597 -1.7025
  129OSM    H6T13766   5.095   5.811   2.855  0.3674  0.8127 -0.0115
  129OSM    C7S13767   5.295   5.777   2.934 -0.4179 -0.1519 -0.5947
  129OSM    H7S13768   5.325   5.882   2.917  0.2452 -0.2836 -0.2896
  129OSM    H7T13769   5.380   5.706   2.930 -1.0956 -0.9952 -0.4202
  129OSM    C8S13770   5.245   5.771   3.085  0.6775  0.5642 -0.2818
  129OSM    H8S13771   5.224   5.665   3.111  0.8253  0.7608  0.6792
  129OSM    H8T13772   5.157   5.839   3.091  1.3099  1.6125 -2.0345
  129OSM    C9S13773   5.360   5.837   3.164 -0.1515  1.1113 -0.0150
  129OSM    H9S13774   5.382   5.939   3.124 -0.4119  1.3214  0.3720
  129OSM    H9T13775   5.449   5.771   3.155 -0.6215  0.4149  0.3328
  129OSM   C10S13776   5.327   5.844   3.313  0.2279  0.6700 -0.5115
  129OSM   H10S13777   5.301   5.741   3.346  1.0802 -0.0807 -2.0725
  129OSM   H10T13778   5.236   5.904   3.331 -0.3820 -0.0920 -1.0083
  129OSM   C11S13779   5.444   5.891   3.399 -0.7296  0.0984  0.5137
  129OSM   H11S13780   5.478   5.994   3.375 -0.9587  0.5294  1.9845
  129OSM   H11T13781   5.527   5.819   3.382 -0.2562  0.7145  0.1278
  129OSM   C12S13782   5.407   5.890   3.551 -0.1866 -0.4467 -0.4515
  129OSM   H12S13783   5.370   5.785   3.562  1.9340 -1.1150  0.9133
  129OSM   H12T13784   5.333   5.971   3.567  1.4690  1.4369 -1.9329
  129OSM   C13S13785   5.537   5.897   3.638 -0.2437  0.4694  0.2330
  129OSM   H13S13786   5.589   5.995   3.626  0.2210  0.3573  1.2190
  129OSM   H13T13787   5.614   5.826   3.600 -0.7982  1.2981 -2.6414
  129OSM   C14S13788   5.528   5.867   3.780  0.6503 -0.2730 -0.3264
  129OSM   H14S13789   5.462   5.779   3.797 -2.5926  1.9857 -0.2644
  129OSM   H14T13790   5.465   5.946   3.826  0.6190 -0.1914 -0.5063
  129OSM   C15S13791   5.658   5.868   3.868 -0.4239 -0.1932  0.6304
  129OSM   H15S13792   5.696   5.972   3.855 -0.8093 -0.2134 -0.8244
  129OSM   H15T13793   5.734   5.792   3.841  0.7852  1.1949 -0.0178
  129OSM   C16S13794   5.630   5.845   4.018 -0.9266  0.7398 -0.0278
  129OSM   H16S13795   5.562   5.762   4.044  0.5162 -0.5072 -0.1047
  129OSM   H16T13796   5.574   5.934   4.054 -3.6771 -1.2816  1.0526
  129OSM   C17S13797   5.765   5.812   4.099  0.0210 -0.7262  0.0675
  129OSM   H17S13798   5.838   5.890   4.069 -0.4730 -0.2501  0.0893
  129OSM   H17T13799   5.809   5.724   4.046  1.7625  0.6142 -0.8350
  129OSM   C18S13800   5.739   5.796   4.244  0.0371  0.4401 -0.4234
  129OSM   H18S13801   5.677   5.880   4.283  0.1595  0.6507 -0.6762
  129OSM   H18T13802   5.832   5.800   4.304 -0.7491  1.5096  0.7890
  129OSM   H18U13803   5.684   5.706   4.277  0.7687  0.5872  1.3040
  129OSM    C1F13804   5.571   5.613   2.480 -0.2938  0.1224  0.1410
  129OSM     OF13805   5.607   5.689   2.395  0.5098 -0.4348  0.1391
  129OSM    C2F13806   5.665   5.558   2.590  0.6335 -0.2526 -0.2500
  129OSM    H2F13807   5.741   5.498   2.534 -0.3659 -1.1356 -0.6951
  129OSM    H2G13808   5.610   5.490   2.658 -0.0605  0.9828  0.4492
  129OSM    C3F13809   5.720   5.683   2.674 -0.1676 -0.0381 -0.3420
  129OSM    H3F13810   5.788   5.746   2.613  2.5643 -1.6051  0.9023
  129OSM    H3G13811   5.779   5.637   2.756 -1.2053 -5.1819 -2.0479
  129OSM    C4F13812   5.612   5.766   2.741  0.5406  0.1367 -0.1922
  129OSM    H4F13813   5.556   5.700   2.812  1.2523 -0.8528 -0.5239
  129OSM    H4G13814   5.544   5.812   2.667  1.3175  1.5464 -0.0759
  129OSM    C5F13815   5.670   5.881   2.827  0.2561 -0.4568 -0.4093
  129OSM    H5F13816   5.581   5.946   2.841  0.5605 -0.2377  0.5694
  129OSM    H5G13817   5.741   5.941   2.767 -2.1153  1.8157 -1.1261
  129OSM    C6F13818   5.728   5.843   2.964  0.0650 -0.0344 -0.0934
  129OSM    H6F13819   5.821   5.782   2.953 -0.0199 -0.1257 -0.3205
  129OSM    H6G13820   5.650   5.790   3.022  2.4697 -1.4677  2.0442
  129OSM    C7F13821   5.775   5.964   3.050  0.5490 -0.3198 -0.5638
  129OSM    H7F13822   5.683   6.008   3.093 -0.1674 -1.3123 -1.0349
  129OSM    H7G13823   5.828   6.034   2.982  0.2293  0.0091 -0.4774
  129OSM    C8F13824   5.898   5.930   3.143  0.5487 -0.2299 -0.3551
  129OSM    H8F13825   5.930   6.027   3.187  1.7258 -0.7054 -0.1487
  129OSM    H8G13826   5.983   5.883   3.091 -0.8638 -2.8268 -0.4481
  129OSM    C9F13827   5.840   5.841   3.258 -0.3091 -0.0678  0.0557
  129OSM    H9F13828   5.770   5.766   3.218 -1.0110  0.4474  0.3053
  129OSM   C10F13829   5.853   5.847   3.389 -0.8428  0.0460 -0.4314
  129OSM   H10F13830   5.801   5.770   3.448  1.7525 -1.9884 -0.6212
  129OSM   C11F13831   5.963   5.929   3.456  0.3195 -0.3268  0.2711
  129OSM   H11F13832   5.922   6.031   3.470  0.3526 -0.1534 -0.7812
  129OSM   H11G13833   6.045   5.939   3.381 -0.6556  0.8995 -0.6925
  129OSM   C12F13834   6.007   5.865   3.589 -0.3784  0.4485 -0.0872
  129OSM   H12F13835   5.917   5.826   3.640 -1.3716  0.6697 -1.6169
  129OSM   H12G13836   6.054   5.936   3.661  1.5783 -0.9397  0.0962
  129OSM   C13F13837   6.113   5.750   3.570  0.2402  0.0265 -0.4945
  129OSM   H13F13838   6.197   5.775   3.503 -0.7547  1.2491 -1.3442
  129OSM   H13G13839   6.052   5.675   3.516  0.7776  0.0108 -1.0859
  129OSM   C14F13840   6.174   5.700   3.701  0.5779  0.2153  0.5335
  129OSM   H14F13841   6.259   5.766   3.730  1.0202  1.6117 -3.3043
  129OSM   H14G13842   6.220   5.604   3.672 -0.3794  0.1030 -0.7226
  129OSM   C15F13843   6.072   5.679   3.816 -0.2152 -0.2615  0.4757
  129OSM   H15F13844   5.984   5.641   3.760  0.4024  1.1298 -1.5818
  129OSM   H15G13845   6.045   5.782   3.850  2.4949  1.0653 -1.0638
  129OSM   C16F13846   6.097   5.590   3.944  0.0156 -0.0673  0.3831
  129OSM   H16F13847   6.193   5.535   3.926  0.4397  0.1944  1.7429
  129OSM   H16G13848   6.018   5.512   3.945 -0.5117  0.1252 -4.2004
  129OSM   C17F13849   6.114   5.666   4.075 -0.2525  0.5453 -0.0051
  129OSM   H17F13850   6.019   5.722   4.094 -0.1617  0.2878  1.3197
  129OSM   H17G13851   6.199   5.736   4.063 -0.0770  0.3248 -0.0641
  129OSM   C18F13852   6.147   5.578   4.198 -0.3077 -0.3796  0.1301
  129OSM   H18F13853   6.083   5.488   4.185  0.4764 -0.7941 -0.9829
  129OSM   H18G13854   6.123   5.623   4.297  0.4584 -0.7609  0.4982
  129OSM   H18H13855   6.248   5.532   4.198 -0.6885 -1.2615 -1.0791
  130OSM      N13856   3.716   1.395   2.644  0.6561  0.0910  0.3905
  130OSM    C1513857   3.809   1.473   2.559  0.3558  0.0422 -0.6036
  130OSM   H15A13858   3.891   1.420   2.513  0.8366  1.5661 -1.5810
  130OSM   H15B13859   3.843   1.553   2.623  0.3957 -1.5501  1.4665
  130OSM   H15C13860   3.757   1.525   2.480 -0.4942  0.4471  0.2059
  130OSM    C1413861   3.798   1.337   2.747 -0.0082 -0.3262  0.0399
  130OSM   H14A13862   3.891   1.300   2.707 -0.0578 -0.2274 -0.1656
  130OSM   H14B13863   3.740   1.263   2.801  0.1067  0.0762  0.7238
  130OSM   H14C13864   3.822   1.416   2.817  0.1144  0.7024 -1.1407
  130OSM    C1313865   3.604   1.472   2.709 -0.0736  0.4510 -0.1540
  130OSM   H13A13866   3.639   1.549   2.776 -1.9937  0.5591  0.8127
  130OSM   H13B13867   3.537   1.404   2.761  2.5267 -0.5953  2.0910
  130OSM   H13C13868   3.545   1.513   2.629  0.1321 -0.4747 -0.7956
  130OSM    C1213869   3.652   1.276   2.560 -0.2805  0.1490  0.1183
  130OSM   H12A13870   3.737   1.219   2.527 -0.4395  0.5987 -1.1280
  130OSM   H12B13871   3.609   1.318   2.470  1.0173  3.2696  0.8367
  130OSM    C1113872   3.559   1.167   2.626 -0.8091 -0.8376 -0.3881
  130OSM   H11A13873   3.529   1.100   2.542  2.5131 -1.1920 -1.4562
  130OSM   H11B13874   3.463   1.206   2.666 -1.4714 -2.8570  0.1160
  130OSM      P13875   3.683   0.947   2.706 -0.1945 -0.6649  0.2005
  130OSM    O1313876   3.573   0.849   2.679  0.7645  0.3983  0.4709
  130OSM    O1413877   3.791   0.957   2.606  0.1475 -0.1419 -0.5889
  130OSM    O1113878   3.735   0.916   2.847  0.1756 -0.7438 -0.5273
  130OSM    O1213879   3.632   1.095   2.724 -0.7242 -0.1911 -1.0802
  130OSM    C1S13880   3.835   1.000   2.905 -0.3468 -0.5920  0.1564
  130OSM    H1S13881   3.793   1.091   2.954 -0.8240 -1.6787  1.8641
  130OSM    H1T13882   3.913   1.039   2.836  0.3808  0.3322  1.4555
  130OSM     NF13883   4.021   1.017   3.066  0.1443 -0.0350 -0.0625
  130OSM    HNF13884   4.118   1.003   3.050 -0.0937  0.3455 -2.1419
  130OSM    C2S13885   3.921   0.926   3.008 -0.1116  0.2329 -0.6714
  130OSM    H2S13886   3.857   0.891   3.092 -0.8724  1.7301 -0.5937
  130OSM    C3S13887   3.990   0.795   2.951 -0.0692  0.2997 -0.1359
  130OSM    H3S13888   4.064   0.835   2.879 -0.8149  2.3225  0.1510
  130OSM     O313889   3.901   0.714   2.875  0.3520  0.0068  0.1785
  130OSM    HO313890   3.826   0.774   2.869  2.2289  2.4637 -0.4872
  130OSM    C4S13891   4.068   0.712   3.048 -0.4186  0.4505 -0.0675
  130OSM    H4S13892   4.171   0.749   3.055 -0.1599  0.1884 -2.1120
  130OSM    C5S13893   4.031   0.606   3.127  0.0282 -0.0302  0.7829
  130OSM    H5S13894   3.927   0.572   3.119  0.0763  0.3503 -2.9539
  130OSM    C6S13895   4.123   0.551   3.230  0.6340  0.2992  0.2032
  130OSM    H6S13896   4.229   0.580   3.212  1.5689 -3.5000 -1.3933
  130OSM    H6T13897   4.122   0.440   3.226 -1.2011  0.3056 -1.1145
  130OSM    C7S13898   4.106   0.577   3.382  0.5582  0.9341 -0.0524
  130OSM    H7S13899   4.002   0.545   3.406  0.3692  1.1699 -0.5466
  130OSM    H7T13900   4.123   0.685   3.405  1.1861  0.4558  1.9355
  130OSM    C8S13901   4.203   0.490   3.460 -0.4223  0.9345 -0.3581
  130OSM    H8S13902   4.301   0.522   3.419 -0.1194 -1.0497 -1.3259
  130OSM    H8T13903   4.191   0.384   3.428  1.3857  0.4716  0.3708
  130OSM    C9S13904   4.182   0.500   3.609 -0.9836 -0.3217 -0.2045
  130OSM    H9S13905   4.072   0.488   3.623 -1.3703  1.2157 -1.6212
  130OSM    H9T13906   4.216   0.598   3.648  0.9829 -0.6943 -0.8652
  130OSM   C10S13907   4.257   0.385   3.676 -1.0358  0.0827  0.2065
  130OSM   H10S13908   4.365   0.386   3.650 -0.5149  2.3424  2.1188
  130OSM   H10T13909   4.218   0.283   3.652 -0.3967 -1.0749  3.4783
  130OSM   C11S13910   4.229   0.397   3.827 -0.7024 -0.0970 -0.4146
  130OSM   H11S13911   4.119   0.395   3.846 -0.2946 -1.5825  2.1745
  130OSM   H11T13912   4.267   0.490   3.874  0.9087 -0.9138 -0.0305
  130OSM   C12S13913   4.284   0.272   3.897 -0.6413 -0.1150  0.1144
  130OSM   H12S13914   4.394   0.288   3.901 -0.5929 -0.6906  1.6347
  130OSM   H12T13915   4.272   0.184   3.829 -1.6097  0.4412 -0.4589
  130OSM   C13S13916   4.222   0.243   4.034 -0.2382 -0.3874  0.3621
  130OSM   H13S13917   4.264   0.143   4.060  0.6103  0.2092  1.3293
  130OSM   H13T13918   4.113   0.228   4.016 -0.5690  2.3259 -0.2806
  130OSM   C14S13919   4.250   0.358   4.139  0.1510  0.1323  0.2901
  130OSM   H14S13920   4.188   0.440   4.096 -1.8801 -0.9018  1.0828
  130OSM   H14T13921   4.355   0.392   4.143  0.5358 -0.8750 -0.6303
  130OSM   C15S13922   4.200   0.353   4.286  0.5488 -0.2089  0.5633
  130OSM   H15S13923   4.090   0.345   4.285  0.6660 -2.3299  0.8037
  130OSM   H15T13924   4.228   0.441   4.348  1.3312 -0.9303  1.2569
  130OSM   C16S13925   4.256   0.240   4.359  0.1568  0.0290  0.3089
  130OSM   H16S13926   4.364   0.262   4.374  0.8861 -2.8173  0.0234
  130OSM   H16T13927   4.258   0.138   4.314 -3.1623  0.1006 -0.2506
  130OSM   C17S13928   4.201   0.224   4.499  0.3248 -0.1163  0.5116
  130OSM   H17S13929   4.104   0.172   4.485 -0.0423  1.1292 -2.4791
  130OSM   H17T13930   4.190   0.324   4.544 -0.1584  0.5757 -1.0581
  130OSM   C18S13931   4.305   0.156   4.594 -0.1862  0.2912  0.7664
  130OSM   H18S13932   4.358   0.074   4.541  0.9220 -0.3209  2.7424
  130OSM   H18T13933   4.253   0.115   4.683  0.4289 -1.4010  0.3802
  130OSM   H18U13934   4.380   0.225   4.638 -0.4247  2.5260 -2.0693
  130OSM    C1F13935   3.983   1.117   3.144 -0.5587 -0.2318 -0.9057
  130OSM     OF13936   3.861   1.132   3.171 -0.0956 -0.8298  0.0810
  130OSM    C2F13937   4.095   1.197   3.199 -0.5014 -0.0713 -0.7903
  130OSM    H2F13938   4.141   1.255   3.116 -2.0431  0.8178 -1.0587
  130OSM    H2G13939   4.165   1.119   3.236 -1.0958  0.4542  1.6168
  130OSM    C3F13940   4.054   1.285   3.316 -0.0797  0.2445  0.2330
  130OSM    H3F13941   3.968   1.335   3.267  0.1039  1.2735  0.9348
  130OSM    H3G13942   4.123   1.368   3.338  0.9789 -0.3241 -0.8427
  130OSM    C4F13943   4.016   1.196   3.433  0.1739  0.1103  0.3398
  130OSM    H4F13944   3.949   1.109   3.419  1.5425 -0.7354 -1.3137
  130OSM    H4G13945   3.963   1.265   3.502  1.8799  2.3210 -0.4474
  130OSM    C5F13946   4.128   1.150   3.527 -0.0602  0.0331 -0.9255
  130OSM    H5F13947   4.215   1.215   3.504 -0.9381  0.2243 -4.2717
  130OSM    H5G13948   4.165   1.053   3.489 -1.1206 -0.1926 -1.4281
  130OSM    C6F13949   4.102   1.149   3.681 -0.3779 -0.2778  0.7699
  130OSM    H6F13950   4.005   1.096   3.686 -0.2429 -0.5642  0.3822
  130OSM    H6G13951   4.081   1.249   3.725 -0.7840 -0.4842  1.0584
  130OSM    C7F13952   4.191   1.058   3.767 -0.2075  0.1479 -0.2754
  130OSM    H7F13953   4.285   1.113   3.784  1.1703 -1.7759 -1.2935
  130OSM    H7G13954   4.205   0.961   3.715 -1.8919 -0.7577  0.8492
  130OSM    C8F13955   4.126   1.014   3.902 -0.5253  0.1532 -0.0934
  130OSM    H8F13956   4.070   0.918   3.895  1.6737 -1.2296  0.2466
  130OSM    H8G13957   4.049   1.089   3.932  0.7486  1.8236 -0.8547
  130OSM    C9F13958   4.226   0.992   4.010 -0.0938  0.0349 -0.9453
  130OSM    H9F13959   4.322   0.946   3.982 -0.6373 -0.9414 -1.2588
  130OSM   C10F13960   4.226   1.041   4.135 -0.4884 -0.3335  0.4330
  130OSM   H10F13961   4.314   1.023   4.200 -1.4501  1.1937  2.2442
  130OSM   C11F13962   4.119   1.112   4.205 -0.5900 -0.8461 -0.0941
  130OSM   H11F13963   4.026   1.061   4.169 -0.8793 -0.1890 -0.2944
  130OSM   H11G13964   4.112   1.219   4.177 -3.7181 -1.2903 -1.4830
  130OSM   C12F13965   4.110   1.102   4.361 -0.3910  0.4665 -0.7840
  130OSM   H12F13966   4.111   0.995   4.389  0.3443  0.3468 -1.2074
  130OSM   H12G13967   4.012   1.145   4.389 -0.8730 -1.5250  0.7582
  130OSM   C13F13968   4.222   1.170   4.440 -0.3558  0.2098 -0.4543
  130OSM   H13F13969   4.226   1.280   4.427  2.1395 -0.0859 -3.4206
  130OSM   H13G13970   4.320   1.145   4.394  0.7096  1.0720  1.2416
  130OSM   C14F13971   4.223   1.129   4.587  0.8579  1.4761  0.3153
  130OSM   H14F13972   4.213   1.018   4.587 -1.9153  1.6457 -0.6143
  130OSM   H14G13973   4.134   1.161   4.644 -0.1270  2.0173 -1.4475
  130OSM   C15F13974   4.350   1.177   4.667  0.6067  0.0644  0.6290
  130OSM   H15F13975   4.379   1.279   4.636 -2.6050  0.5399 -1.1929
  130OSM   H15G13976   4.429   1.112   4.625  0.3858 -0.5680  1.1646
  130OSM   C16F13977   4.339   1.185   4.823 -0.0032  0.1394 -0.1583
  130OSM   H16F13978   4.298   1.089   4.862 -0.7792 -0.9749 -3.3802
  130OSM   H16G13979   4.254   1.253   4.848  1.3161  1.8251 -0.0633
  130OSM   C17F13980   4.477   1.222   4.896  0.1288 -0.3957  0.0374
  130OSM   H17F13981   4.466   1.214   5.007  4.3954 -1.8027  0.5369
  130OSM   H17G13982   4.505   1.326   4.870  0.8773 -0.9157 -1.2965
  130OSM   C18F13983   4.607   1.158   4.848  0.5061  1.5114  0.4327
  130OSM   H18F13984   4.594   1.048   4.848 -2.3760  1.7763  0.2710
  130OSM   H18G13985   4.691   1.190   4.914  3.4617 -1.5113 -1.5167
  130OSM   H18H13986   4.628   1.190   4.744  0.2901  0.8363  0.1764
  131OSM      N13987   3.737   4.894   2.309  0.0863 -0.4509 -0.1667
  131OSM    C1513988   3.802   4.783   2.230  0.4447  0.0840  0.1222
  131OSM   H15A13989   3.730   4.705   2.211 -0.7810  1.7884 -3.0077
  131OSM   H15B13990   3.886   4.740   2.282  0.8269  0.9289  0.2225
  131OSM   H15C13991   3.831   4.815   2.131 -0.0596 -1.1287 -0.4376
  131OSM    C1413992   3.840   4.997   2.350  0.2613  0.0288  0.5132
  131OSM   H14A13993   3.918   4.954   2.410 -0.1581 -2.7322 -0.7506
  131OSM   H14B13994   3.795   5.078   2.405  1.6384  1.5963 -0.5919
  131OSM   H14C13995   3.898   5.038   2.269 -1.4736 -0.2732 -0.9533
  131OSM    C1313996   3.641   4.974   2.221 -0.0888 -0.1509  0.1448
  131OSM   H13A13997   3.609   5.060   2.278  0.1493 -1.3642  2.2127
  131OSM   H13B13998   3.557   4.909   2.198  0.0276 -1.5807  3.2927
  131OSM   H13C13999   3.693   5.011   2.134  2.4279  0.8822  1.9815
  131OSM    C1214000   3.665   4.838   2.427 -0.2386 -0.1691  0.9103
  131OSM   H12A14001   3.614   4.926   2.462 -0.4974 -0.7510  2.0305
  131OSM   H12B14002   3.740   4.812   2.501  1.3031 -1.9034 -1.1221
  131OSM    C1114003   3.563   4.719   2.406 -0.1873 -0.0523  0.4529
  131OSM   H11A14004   3.526   4.686   2.506  1.0467 -0.9450  0.6380
  131OSM   H11B14005   3.621   4.629   2.377  1.6894  1.2333  0.0240
  131OSM      P14006   3.312   4.722   2.332  0.6493 -0.1747 -0.2182
  131OSM    O1314007   3.222   4.808   2.248  0.0392 -0.6976 -0.2168
  131OSM    O1414008   3.283   4.582   2.318 -0.4896  0.0079  0.1978
  131OSM    O1114009   3.304   4.754   2.487 -0.7134  0.1746  0.3555
  131OSM    O1214010   3.464   4.744   2.307  0.2315 -0.1470 -0.3766
  131OSM    C1S14011   3.291   4.878   2.562  0.1211 -0.3922 -0.1343
  131OSM    H1S14012   3.202   4.933   2.525 -0.0959  1.3213  2.7003
  131OSM    H1T14013   3.375   4.951   2.559 -0.3599  0.7032  4.8018
  131OSM     NF14014   3.210   4.991   2.766 -0.3270 -0.3817 -0.1953
  131OSM    HNF14015   3.279   5.046   2.814  1.8987 -3.0055 -0.1585
  131OSM    C2S14016   3.259   4.864   2.711  0.1573 -0.4871 -0.4984
  131OSM    H2S14017   3.175   4.792   2.718 -1.2097  0.9570 -1.3372
  131OSM    C3S14018   3.366   4.783   2.796  0.1220 -0.4259  0.8122
  131OSM    H3S14019   3.465   4.833   2.789 -0.0231 -0.3360 -2.2050
  131OSM     O314020   3.401   4.649   2.752  0.5541 -0.6039  0.4050
  131OSM    HO314021   3.379   4.639   2.660  1.2631  1.6604 -0.0586
  131OSM    C4S14022   3.327   4.790   2.937  0.2892  0.1716 -1.1570
  131OSM    H4S14023   3.375   4.869   2.996 -0.0288 -1.1106  0.9112
  131OSM    C5S14024   3.231   4.709   2.992  0.9296 -0.0888  0.1511
  131OSM    H5S14025   3.189   4.631   2.928  2.8727  0.5559 -2.0369
  131OSM    C6S14026   3.172   4.715   3.132 -0.0124 -0.0250  0.2226
  131OSM    H6S14027   3.194   4.618   3.182  2.2281  0.4550  0.2817
  131OSM    H6T14028   3.062   4.726   3.136 -0.3592 -1.3828 -3.1161
  131OSM    C7S14029   3.228   4.832   3.222  0.0626 -0.2688 -0.2202
  131OSM    H7S14030   3.166   4.915   3.183 -1.7581 -0.8737  1.2196
  131OSM    H7T14031   3.333   4.854   3.195  0.2236 -0.6051  0.1247
  131OSM    C8S14032   3.204   4.818   3.370  0.1139  0.1370  0.3233
  131OSM    H8S14033   3.265   4.731   3.405  1.6902  1.0714  0.0054
  131OSM    H8T14034   3.094   4.805   3.378  0.1014 -0.9086 -1.1041
  131OSM    C9S14035   3.245   4.939   3.454 -0.1208 -0.3078  0.2770
  131OSM    H9S14036   3.200   5.033   3.416 -0.0007  0.2150  1.4085
  131OSM    H9T14037   3.355   4.949   3.442 -0.3345  1.6048 -0.3586
  131OSM   C10S14038   3.219   4.908   3.598 -0.2867 -0.0642  0.0019
  131OSM   H10S14039   3.120   4.859   3.605 -0.4117 -0.2501 -2.3418
  131OSM   H10T14040   3.221   5.001   3.659 -0.8498  0.7011 -1.1181
  131OSM   C11S14041   3.319   4.798   3.661  0.1224  0.1849  0.0377
  131OSM   H11S14042   3.422   4.837   3.645  0.2614  1.3120  3.0022
  131OSM   H11T14043   3.318   4.705   3.602  1.2745  0.7708 -0.9560
  131OSM   C12S14044   3.302   4.778   3.808  0.0083 -0.2070  0.0630
  131OSM   H12S14045   3.217   4.708   3.826 -0.4220  0.1138 -0.6753
  131OSM   H12T14046   3.276   4.877   3.851  1.9964  0.5096 -0.2869
  131OSM   C13S14047   3.425   4.724   3.887  0.5073 -0.3622  0.2355
  131OSM   H13S14048   3.516   4.784   3.863  0.2986 -0.9217 -2.2480
  131OSM   H13T14049   3.445   4.620   3.852  0.4074 -0.0525 -0.7719
  131OSM   C14S14050   3.397   4.723   4.040  0.7286 -0.0736 -0.3244
  131OSM   H14S14051   3.472   4.654   4.083 -0.2525 -0.4267  0.8677
  131OSM   H14T14052   3.300   4.673   4.056  0.2606  0.8158 -0.3409
  131OSM   C15S14053   3.398   4.855   4.119  0.4542  0.7986 -0.0123
  131OSM   H15S14054   3.319   4.914   4.067  0.3246  1.0405  0.4543
  131OSM   H15T14055   3.495   4.908   4.113  1.3061 -0.5215  1.4696
  131OSM   C16S14056   3.366   4.832   4.268 -0.7162 -0.2980 -0.4684
  131OSM   H16S14057   3.288   4.755   4.288 -0.8111  0.0128  0.4150
  131OSM   H16T14058   3.337   4.925   4.321 -1.4855  0.4937 -2.2204
  131OSM   C17S14059   3.495   4.785   4.340 -0.4340 -0.2799  0.4109
  131OSM   H17S14060   3.559   4.874   4.320  1.5242 -1.6733  0.2025
  131OSM   H17T14061   3.528   4.692   4.288 -1.4626 -0.8687  0.7796
  131OSM   C18S14062   3.479   4.768   4.489  0.1050 -0.2036 -0.2797
  131OSM   H18S14063   3.398   4.694   4.509 -0.4276  0.7324  1.2381
  131OSM   H18T14064   3.445   4.858   4.545  0.3297 -0.4703  0.3009
  131OSM   H18U14065   3.570   4.726   4.536  0.5590  0.5325 -0.4855
  131OSM    C1F14066   3.089   5.037   2.745  0.4133  0.2677  0.1752
  131OSM     OF14067   3.009   4.972   2.683 -0.2578 -0.3703  0.0129
  131OSM    C2F14068   3.061   5.174   2.797  0.3076 -0.0908 -0.3378
  131OSM    H2F14069   3.029   5.249   2.721  1.1068  0.8563  0.2279
  131OSM    H2G14070   3.153   5.225   2.835 -0.4696  0.6771  0.5698
  131OSM    C3F14071   2.969   5.180   2.919  0.0877  0.9717  0.6642
  131OSM    H3F14072   3.012   5.108   2.992  1.1528  0.6225 -0.2689
  131OSM    H3G14073   2.863   5.153   2.900  0.6989 -1.2273  0.1191
  131OSM    C4F14074   2.970   5.321   2.974  0.0089  0.1854  0.6524
  131OSM    H4F14075   2.937   5.388   2.892  2.4201 -1.5107 -1.8965
  131OSM    H4G14076   3.074   5.353   2.993  0.1186  1.1427 -1.2889
  131OSM    C5F14077   2.874   5.333   3.097 -0.3856  0.2802  0.5082
  131OSM    H5F14078   2.772   5.298   3.070  0.2505 -0.9920 -0.3136
  131OSM    H5G14079   2.864   5.443   3.114  0.8981  1.0331 -2.7607
  131OSM    C6F14080   2.934   5.256   3.217  0.1095  0.6762 -0.1391
  131OSM    H6F14081   3.033   5.297   3.244  0.6093 -0.7887  0.3158
  131OSM    H6G14082   2.942   5.147   3.202 -3.2844  0.1067  1.1691
  131OSM    C7F14083   2.843   5.281   3.340  0.7787 -0.2776  0.0732
  131OSM    H7F14084   2.735   5.268   3.320  0.4543  0.5415  1.2126
  131OSM    H7G14085   2.866   5.385   3.370  0.3347 -0.7651  2.2953
  131OSM    C8F14086   2.900   5.200   3.464  0.3823  1.0690  0.8425
  131OSM    H8F14087   3.003   5.233   3.488  1.1293 -0.9886  0.7450
  131OSM    H8G14088   2.920   5.097   3.427  1.6187  1.3634  0.6774
  131OSM    C9F14089   2.799   5.190   3.571 -0.3650 -0.7165  0.3154
  131OSM    H9F14090   2.695   5.182   3.537 -0.3710 -0.3255  0.2293
  131OSM   C10F14091   2.816   5.204   3.699 -0.0727  0.3865 -0.1458
  131OSM   H10F14092   2.727   5.200   3.763 -1.4386 -0.4918 -2.0049
  131OSM   C11F14093   2.941   5.236   3.769 -0.0120  0.2292  0.1852
  131OSM   H11F14094   2.917   5.329   3.826  0.4599  0.0716  0.6524
  131OSM   H11G14095   3.029   5.260   3.706  0.1283  1.2709  0.7525
  131OSM   C12F14096   2.979   5.119   3.866 -0.0491 -0.0938 -0.7149
  131OSM   H12F14097   3.089   5.129   3.877  0.0620  0.6118 -2.2535
  131OSM   H12G14098   2.979   5.023   3.811 -0.7202  0.2110 -1.2511
  131OSM   C13F14099   2.906   5.111   4.002 -0.2495 -0.2679 -0.6916
  131OSM   H13F14100   2.940   5.012   4.040  0.8798 -0.4205 -2.0238
  131OSM   H13G14101   2.799   5.100   3.972 -0.2763 -0.0011 -0.6943
  131OSM   C14F14102   2.929   5.235   4.090 -0.4054 -0.0127  0.0905
  131OSM   H14F14103   2.891   5.331   4.047  0.2737 -0.2623 -1.1070
  131OSM   H14G14104   3.038   5.256   4.091 -0.8074  2.4473  0.6202
  131OSM   C15F14105   2.871   5.224   4.234  0.5820 -0.1952  0.3883
  131OSM   H15F14106   2.761   5.231   4.222  0.9790  2.3272 -5.0700
  131OSM   H15G14107   2.908   5.310   4.294  1.8741 -0.4229 -0.0509
  131OSM   C16F14108   2.905   5.089   4.304 -0.0907 -0.3947  0.1512
  131OSM   H16F14109   2.873   5.000   4.246  0.5560 -0.1075 -0.6572
  131OSM   H16G14110   2.841   5.087   4.395 -1.0972 -1.6548 -0.5530
  131OSM   C17F14111   3.052   5.066   4.339 -0.5489 -0.0222 -0.5937
  131OSM   H17F14112   3.124   5.102   4.261  2.0363  0.1624  1.7211
  131OSM   H17G14113   3.085   4.960   4.343 -1.4697 -0.2764  1.4496
  131OSM   C18F14114   3.093   5.128   4.472 -0.5060 -1.0706  0.9046
  131OSM   H18F14115   3.098   5.238   4.460  0.2583 -1.0530  1.3688
  131OSM   H18G14116   3.186   5.092   4.521 -1.5796 -0.7962  3.3004
  131OSM   H18H14117   3.018   5.113   4.553 -4.2714 -0.3838 -2.1301
  132OSM      N14118   1.312   6.055   2.598 -0.8426  0.0933  0.3890
  132OSM    C1514119   1.233   6.039   2.469 -0.3613 -0.6571  0.2109
  132OSM   H15A14120   1.304   6.059   2.391 -1.5301  0.7010 -0.5617
  132OSM   H15B14121   1.153   6.112   2.471  0.1535 -0.0975  1.3316
  132OSM   H15C14122   1.197   5.938   2.457  1.0025 -1.2705  1.0685
  132OSM    C1414123   1.345   6.195   2.617  0.3134 -1.2423  0.1499
  132OSM   H14A14124   1.413   6.205   2.700  1.5532  1.1836 -1.0680
  132OSM   H14B14125   1.264   6.261   2.643  1.8784  0.8026  0.0107
  132OSM   H14C14126   1.398   6.236   2.533 -1.8834 -1.5060 -1.4805
  132OSM    C1314127   1.223   6.003   2.707 -0.7149 -0.3432  0.4127
  132OSM   H13A14128   1.207   5.897   2.699  1.1364 -0.6305 -0.0466
  132OSM   H13B14129   1.125   6.048   2.707 -0.1252  1.0147 -0.2862
  132OSM   H13C14130   1.261   6.015   2.807 -0.6224  1.6830  0.1850
  132OSM    C1214131   1.436   5.969   2.585  0.3303 -0.1623  0.0369
  132OSM   H12A14132   1.494   6.016   2.507  0.6095 -0.7687 -0.1264
  132OSM   H12B14133   1.409   5.876   2.539  0.0552  0.4165 -1.0131
  132OSM    C1114134   1.517   5.948   2.712 -0.6218 -0.1406 -0.1249
  132OSM   H11A14135   1.605   5.881   2.697  0.9819  1.5741  1.2435
  132OSM   H11B14136   1.463   5.904   2.799 -1.5363 -1.5935 -1.3819
  132OSM      P14137   1.702   6.136   2.664 -0.3880 -0.1828 -0.0670
  132OSM    O1314138   1.676   6.103   2.521  0.0208 -1.1976 -0.4087
  132OSM    O1414139   1.714   6.283   2.692 -0.0787  0.0068  0.0313
  132OSM    O1114140   1.823   6.056   2.725 -0.5179 -0.4136  1.0060
  132OSM    O1214141   1.580   6.077   2.749 -0.5079  0.1505  0.2113
  132OSM    C1S14142   1.851   6.053   2.864  0.5168  0.1975 -0.1600
  132OSM    H1S14143   1.775   6.107   2.925 -0.9324 -0.8596 -0.9836
  132OSM    H1T14144   1.946   6.104   2.890 -1.3065  2.8437  1.9741
  132OSM     NF14145   1.820   5.903   3.062  0.1845 -1.1232 -0.1528
  132OSM    HNF14146   1.902   5.869   3.108  2.1226  2.6135 -0.3895
  132OSM    C2S14147   1.846   5.909   2.925  0.9551  0.1200  0.1346
  132OSM    H2S14148   1.760   5.862   2.872  0.8929 -0.9763  1.1539
  132OSM    C3S14149   1.979   5.839   2.885 -0.6690  0.2915  0.0010
  132OSM    H3S14150   2.053   5.893   2.950  0.6553 -0.2688 -1.0005
  132OSM     O314151   2.016   5.855   2.749 -0.3793  0.1787 -0.2543
  132OSM    HO314152   1.947   5.902   2.702  0.7604  1.9100 -0.3037
  132OSM    C4S14153   1.985   5.694   2.921 -0.2418 -0.2137  0.3010
  132OSM    H4S14154   1.942   5.637   2.837  1.5684 -0.1981 -0.6859
  132OSM    C5S14155   2.059   5.641   3.017 -0.1528  0.2457  0.9249
  132OSM    H5S14156   2.128   5.706   3.073  1.3802  1.6075 -2.2894
  132OSM    C6S14157   2.044   5.501   3.079  0.4856 -0.2359  0.7962
  132OSM    H6S14158   2.141   5.447   3.082  0.7432  0.2502  1.4169
  132OSM    H6T14159   1.958   5.441   3.042  0.5348 -0.4424  1.0067
  132OSM    C7S14160   2.008   5.517   3.227 -0.5594  0.7708 -0.0634
  132OSM    H7S14161   1.911   5.572   3.228 -0.0539  1.6846 -0.3248
  132OSM    H7T14162   2.082   5.572   3.289  0.2494  2.2152 -2.2174
  132OSM    C8S14163   1.994   5.377   3.290  0.2890 -0.0403 -0.4296
  132OSM    H8S14164   2.090   5.323   3.275  0.1410  0.0402 -1.7382
  132OSM    H8T14165   1.910   5.318   3.248 -1.1247  2.2848 -1.0379
  132OSM    C9S14166   1.991   5.388   3.442 -0.6335  0.4173 -0.4782
  132OSM    H9S14167   1.896   5.439   3.471  0.6475  1.9073  1.2961
  132OSM    H9T14168   2.063   5.463   3.481 -1.8338 -0.0906  3.0789
  132OSM   C10S14169   1.994   5.247   3.511  0.2494 -0.1193 -0.4670
  132OSM   H10S14170   2.084   5.186   3.486 -0.5265 -2.2860  1.6281
  132OSM   H10T14171   1.904   5.187   3.485  1.8652 -3.3164  0.7961
  132OSM   C11S14172   1.992   5.266   3.659  0.4121 -0.6327  0.0542
  132OSM   H11S14173   1.894   5.307   3.690  1.2107  0.0751  1.7267
  132OSM   H11T14174   2.070   5.341   3.684  2.6396 -1.8444 -2.6363
  132OSM   C12S14175   2.029   5.147   3.749 -0.1807  0.7896 -0.4648
  132OSM   H12S14176   2.125   5.108   3.707  2.3557  0.5552  4.7985
  132OSM   H12T14177   1.952   5.068   3.757 -0.2231  1.0278  2.0793
  132OSM   C13S14178   2.047   5.193   3.895  0.5477  0.2083  0.2697
  132OSM   H13S14179   2.133   5.262   3.907 -0.2515  1.6510 -1.6915
  132OSM   H13T14180   2.088   5.104   3.947  0.6078 -0.6513 -1.1837
  132OSM   C14S14181   1.909   5.228   3.963  0.2729 -0.8359  0.9543
  132OSM   H14S14182   1.826   5.155   3.953  0.4181 -1.0215  1.1013
  132OSM   H14T14183   1.872   5.319   3.911 -1.9748 -2.7245 -0.9553
  132OSM   C15S14184   1.933   5.278   4.102 -0.8117 -0.3182 -0.1731
  132OSM   H15S14185   2.030   5.331   4.106  0.0699 -1.9797  1.6078
  132OSM   H15T14186   1.954   5.195   4.173  0.5440  1.1605  1.2482
  132OSM   C16S14187   1.817   5.350   4.169  0.5208 -0.1597  0.5910
  132OSM   H16S14188   1.721   5.303   4.137  0.1065 -0.3078  1.9621
  132OSM   H16T14189   1.804   5.459   4.149 -2.1668  0.3376  4.0367
  132OSM   C17S14190   1.820   5.329   4.322 -0.2613  0.1560  0.4227
  132OSM   H17S14191   1.827   5.220   4.341  1.4017  0.1441 -0.1103
  132OSM   H17T14192   1.721   5.363   4.360 -1.0708 -1.7270  0.1103
  132OSM   C18S14193   1.937   5.401   4.395 -0.2392 -0.2231  0.5517
  132OSM   H18S14194   1.932   5.397   4.506  0.6630 -1.9021  0.5710
  132OSM   H18T14195   1.926   5.507   4.364 -0.1797  0.2415  2.0257
  132OSM   H18U14196   2.036   5.360   4.366  0.6216  0.7368  2.0216
  132OSM    C1F14197   1.704   5.936   3.132 -0.8449  0.5780  0.1120
  132OSM     OF14198   1.610   5.987   3.071  0.1975 -0.0179  0.0334
  132OSM    C2F14199   1.697   5.902   3.273 -0.2875  0.5663 -0.2120
  132OSM    H2F14200   1.754   5.971   3.338  0.2810 -1.2302  1.3149
  132OSM    H2G14201   1.757   5.809   3.287 -0.6868  0.4506  0.8146
  132OSM    C3F14202   1.558   5.894   3.329  0.2083  0.5439  0.3756
  132OSM    H3F14203   1.504   5.817   3.270  1.2538 -1.3836  1.8031
  132OSM    H3G14204   1.501   5.989   3.326  0.6455  0.8008 -0.0333
  132OSM    C4F14205   1.548   5.850   3.477 -0.8781 -0.2011  0.0859
  132OSM    H4F14206   1.627   5.771   3.485  0.5410  1.1126 -0.4649
  132OSM    H4G14207   1.448   5.812   3.508 -0.7274 -0.1879  0.5940
  132OSM    C5F14208   1.583   5.962   3.577  0.2644 -0.5757 -0.2188
  132OSM    H5F14209   1.672   6.021   3.548  0.1638  0.1396  0.8807
  132OSM    H5G14210   1.605   5.909   3.672 -0.1927 -0.5095 -0.0733
  132OSM    C6F14211   1.463   6.050   3.623 -0.2549 -0.9359 -0.5137
  132OSM    H6F14212   1.434   6.027   3.727  2.7304  0.0266  0.6434
  132OSM    H6G14213   1.373   6.035   3.559 -0.7476 -1.3569  0.2626
  132OSM    C7F14214   1.512   6.199   3.621 -0.7910 -0.3223 -0.3737
  132OSM    H7F14215   1.507   6.232   3.515 -3.9365 -0.5165 -0.3550
  132OSM    H7G14216   1.617   6.188   3.656 -1.7471 -0.8577  2.6581
  132OSM    C8F14217   1.448   6.283   3.725 -0.1449  0.0238  0.3862
  132OSM    H8F14218   1.466   6.235   3.824 -1.4278 -1.0194  0.1368
  132OSM    H8G14219   1.339   6.275   3.709 -0.8684 -1.5822  4.7369
  132OSM    C9F14220   1.496   6.431   3.737  0.1048  0.2925  0.2679
  132OSM    H9F14221   1.479   6.492   3.647  2.1857 -0.3291 -0.6045
  132OSM   C10F14222   1.559   6.484   3.844 -0.7331  0.2753  0.0217
  132OSM   H10F14223   1.599   6.586   3.834  1.8630 -0.7905 -1.3834
  132OSM   C11F14224   1.580   6.416   3.974 -0.2360 -0.6365  0.3199
  132OSM   H11F14225   1.538   6.313   3.978  2.1257 -1.8940 -2.7869
  132OSM   H11G14226   1.528   6.476   4.051 -0.1963 -2.3323  1.7470
  132OSM   C12F14227   1.730   6.428   4.018 -0.5556  0.1628  0.1262
  132OSM   H12F14228   1.766   6.532   4.002  0.6307 -0.5841 -2.5423
  132OSM   H12G14229   1.795   6.359   3.960  1.0871  2.2071 -0.5920
  132OSM   C13F14230   1.746   6.390   4.163  0.4066 -0.1131  0.2245
  132OSM   H13F14231   1.853   6.372   4.185  0.4164  0.5198  0.7389
  132OSM   H13G14232   1.693   6.294   4.181  2.1088 -1.1091  0.0559
  132OSM   C14F14233   1.675   6.489   4.271 -0.0592 -0.0392 -0.7021
  132OSM   H14F14234   1.587   6.435   4.312  0.5106 -1.8738 -1.7561
  132OSM   H14G14235   1.638   6.580   4.218  3.2151  3.1362  1.9354
  132OSM   C15F14236   1.765   6.556   4.379 -0.1399  0.2033  0.4942
  132OSM   H15F14237   1.696   6.616   4.442  0.7944  2.2612 -0.3294
  132OSM   H15G14238   1.834   6.627   4.327 -0.1405  0.8563  1.3561
  132OSM   C16F14239   1.844   6.449   4.460  0.5362  0.0947  0.4464
  132OSM   H16F14240   1.932   6.407   4.406  1.0269  0.0432  1.2797
  132OSM   H16G14241   1.775   6.363   4.475  0.4919 -0.6329 -2.9910
  132OSM   C17F14242   1.901   6.499   4.596 -0.8834  0.8825  0.0515
  132OSM   H17F14243   1.819   6.504   4.670  0.5556 -1.8387  2.0035
  132OSM   H17G14244   1.941   6.603   4.594 -3.6681  2.1291  2.5538
  132OSM   C18F14245   2.002   6.402   4.662  0.6103  0.4430  0.1044
  132OSM   H18F14246   2.098   6.393   4.605  0.7532  0.1839  0.3885
  132OSM   H18G14247   1.952   6.304   4.653 -0.2773  1.0062 -1.4713
  132OSM   H18H14248   2.020   6.430   4.768  2.5066 -0.0244 -0.0600
  133OSM      N14249   0.753   0.052   2.786  0.3471 -0.4001 -0.0188
  133OSM    C1514250   0.773  -0.062   2.696 -0.6376 -0.1516  0.5897
  133OSM   H15A14251   0.846  -0.131   2.736  1.7791  0.8426 -1.8499
  133OSM   H15B14252   0.826  -0.026   2.610  2.6623  0.7489  2.8251
  133OSM   H15C14253   0.679  -0.108   2.666  1.1297 -2.1466 -2.3947
  133OSM    C1414254   0.885   0.089   2.833  0.6064  0.2586  0.3072
  133OSM   H14A14255   0.886   0.178   2.895 -1.4424  0.0040  0.7487
  133OSM   H14B14256   0.954   0.105   2.751  0.6977 -1.3002  0.0596
  133OSM   H14C14257   0.922   0.010   2.896  1.0677  0.9454  0.9207
  133OSM    C1314258   0.699   0.164   2.697 -0.4548  0.4748 -0.2631
  133OSM   H13A14259   0.634   0.123   2.621 -2.0122  1.2569  0.5977
  133OSM   H13B14260   0.784   0.205   2.645 -0.7295  0.5077 -0.6938
  133OSM   H13C14261   0.659   0.248   2.752 -1.2326  1.8016 -2.6706
  133OSM    C1214262   0.641   0.025   2.889  0.0935 -0.5218  0.0965
  133OSM   H12A14263   0.546   0.036   2.838 -0.5233 -1.6250  0.9601
  133OSM   H12B14264   0.646   0.104   2.963 -2.3692 -0.2697  0.0862
  133OSM    C1114265   0.639  -0.119   2.949  0.1031 -0.7299  0.8717
  133OSM   H11A14266   0.577  -0.113   3.041 -0.6335  0.4599  0.3166
  133OSM   H11B14267   0.741  -0.157   2.969  0.6571 -0.4736 -1.2680
  133OSM      P14268   0.588  -0.347   2.824 -0.5010 -0.2195  0.0576
  133OSM    O1314269   0.466  -0.392   2.757  0.2567 -0.1224  0.3575
  133OSM    O1414270   0.722  -0.373   2.767  0.5809  0.1337  0.6038
  133OSM    O1114271   0.577  -0.408   2.974 -0.7076  0.1761 -0.1804
  133OSM    O1214272   0.571  -0.195   2.846  0.3232 -0.7293 -0.1104
  133OSM    C1S14273   0.458  -0.391   3.052  0.4013 -0.4477 -0.3353
  133OSM    H1S14274   0.363  -0.434   3.015 -0.8396 -0.6360  2.7998
  133OSM    H1T14275   0.427  -0.285   3.035  0.3205 -0.1401  1.5688
  133OSM     NF14276   0.348  -0.419   3.267 -0.1869  0.3840 -0.5089
  133OSM    HNF14277   0.306  -0.346   3.320 -0.1473  0.5781 -0.7453
  133OSM    C2S14278   0.481  -0.412   3.211  0.3818 -0.6408  0.2991
  133OSM    H2S14279   0.541  -0.505   3.225  0.2393 -0.6394  0.9584
  133OSM    C3S14280   0.577  -0.301   3.263 -0.5611 -0.0784  0.7393
  133OSM    H3S14281   0.539  -0.200   3.234  1.1978  0.6982  1.0374
  133OSM     O314282   0.707  -0.319   3.197 -0.2291  0.4739 -0.2935
  133OSM    HO314283   0.683  -0.375   3.123 -1.0046 -0.0887  0.3575
  133OSM    C4S14284   0.592  -0.313   3.407 -0.1420 -0.4098  0.5248
  133OSM    H4S14285   0.493  -0.297   3.453 -0.2763 -0.4290  0.2415
  133OSM    C5S14286   0.699  -0.352   3.484 -0.7983 -0.1483 -0.0615
  133OSM    H5S14287   0.797  -0.365   3.434 -0.1536  0.1586  1.0913
  133OSM    C6S14288   0.706  -0.363   3.632 -0.4968  1.0198  0.4465
  133OSM    H6S14289   0.770  -0.276   3.659  1.3347 -0.2129  0.2481
  133OSM    H6T14290   0.755  -0.462   3.643 -0.6627  0.7566 -0.9195
  133OSM    C7S14291   0.578  -0.350   3.715 -0.4900 -0.2346  0.1505
  133OSM    H7S14292   0.545  -0.456   3.722 -3.5158  0.6953  2.6229
  133OSM    H7T14293   0.503  -0.288   3.661  2.0703  1.5430 -1.5377
  133OSM    C8S14294   0.584  -0.309   3.866  0.2058  0.9425  0.6451
  133OSM    H8S14295   0.484  -0.330   3.910  0.5332 -0.7165  0.6553
  133OSM    H8T14296   0.606  -0.200   3.873  0.7662  0.8771  0.0710
  133OSM    C9S14297   0.685  -0.396   3.949 -0.6951 -0.7911  0.1083
  133OSM    H9S14298   0.772  -0.414   3.882  0.5961 -1.9106  1.9745
  133OSM    H9T14299   0.632  -0.487   3.986 -1.3502  0.1242  1.4973
  133OSM   C10S14300   0.746  -0.309   4.070  0.4548 -0.1919  0.1812
  133OSM   H10S14301   0.787  -0.213   4.029  1.9128 -0.4704  0.9367
  133OSM   H10T14302   0.835  -0.357   4.115  0.0305 -1.7698 -0.6005
  133OSM   C11S14303   0.650  -0.286   4.188  0.5969  0.7606  0.5632
  133OSM   H11S14304   0.650  -0.367   4.264 -0.4981  0.8536  0.6842
  133OSM   H11T14305   0.547  -0.279   4.148  0.4981 -1.2500  0.3380
  133OSM   C12S14306   0.675  -0.163   4.276  0.4627 -0.4747  0.1559
  133OSM   H12S14307   0.597  -0.166   4.356  0.9563 -2.2620  0.6163
  133OSM   H12T14308   0.648  -0.075   4.214  0.1434 -0.7811 -0.1501
  133OSM   C13S14309   0.821  -0.162   4.333 -0.0868 -0.3333 -0.3281
  133OSM   H13S14310   0.885  -0.093   4.274  0.1967  0.6485  1.0643
  133OSM   H13T14311   0.859  -0.266   4.331 -1.3986 -0.8763  1.1023
  133OSM   C14S14312   0.837  -0.126   4.480  0.0972  0.1833 -0.7001
  133OSM   H14S14313   0.802  -0.027   4.515  1.0505 -0.1623  1.4188
  133OSM   H14T14314   0.943  -0.129   4.513 -0.1723 -3.3355  0.2003
  133OSM   C15S14315   0.767  -0.225   4.575  0.0116 -0.2053  0.5941
  133OSM   H15S14316   0.817  -0.325   4.575 -1.2401 -0.8512  0.2376
  133OSM   H15T14317   0.660  -0.241   4.551 -0.3249  0.2774  1.6913
  133OSM   C16S14318   0.769  -0.179   4.728  0.0467  0.0280  0.2717
  133OSM   H16S14319   0.728  -0.077   4.743  3.2073  1.5924 -0.7394
  133OSM   H16T14320   0.877  -0.168   4.752 -0.0731  1.3480  0.2699
  133OSM   C17S14321   0.714  -0.277   4.821  0.8575  0.4074 -0.7660
  133OSM   H17S14322   0.608  -0.305   4.806  0.8608  1.2980 -2.6910
  133OSM   H17T14323   0.720  -0.239   4.926 -1.9050  0.3848 -0.5428
  133OSM   C18S14324   0.776  -0.414   4.818 -0.0111 -0.4842  0.3859
  133OSM   H18S14325   0.887  -0.411   4.806 -0.1029 -0.5295 -0.5589
  133OSM   H18T14326   0.730  -0.481   4.742  0.9742  0.3387 -0.9778
  133OSM   H18U14327   0.747  -0.462   4.914 -1.4249 -1.3093 -0.4141
  133OSM    C1F14328   0.270  -0.523   3.249 -0.9827  0.1099 -0.4475
  133OSM     OF14329   0.318  -0.624   3.201 -0.2830  0.7025  0.8536
  133OSM    C2F14330   0.131  -0.508   3.298 -0.2875 -0.0345  0.2411
  133OSM    H2F14331   0.071  -0.474   3.211  0.0875 -0.4527 -0.1870
  133OSM    H2G14332   0.135  -0.438   3.384 -0.3080  0.3107 -0.0400
  133OSM    C3F14333   0.072  -0.646   3.364 -0.3459 -0.6779 -0.2618
  133OSM    H3F14334   0.063  -0.718   3.280 -0.0450  0.1596 -1.0241
  133OSM    H3G14335  -0.028  -0.623   3.407  0.5099 -1.0096  2.0666
  133OSM    C4F14336   0.149  -0.716   3.477  0.1135 -0.4342 -0.6719
  133OSM    H4F14337   0.246  -0.747   3.435  0.1586  1.8789 -2.4856
  133OSM    H4G14338   0.093  -0.798   3.528 -0.2352  0.7054  0.8888
  133OSM    C5F14339   0.186  -0.618   3.587  0.7734  0.3905  0.1189
  133OSM    H5F14340   0.104  -0.558   3.632  0.6933 -0.5901  1.3578
  133OSM    H5G14341   0.258  -0.538   3.560 -0.5537  1.0404 -1.6598
  133OSM    C6F14342   0.249  -0.699   3.707 -0.1844  0.3739 -0.4272
  133OSM    H6F14343   0.345  -0.737   3.666 -0.4846  0.2610 -1.0435
  133OSM    H6G14344   0.174  -0.771   3.746  1.8351 -1.7123 -0.1758
  133OSM    C7F14345   0.270  -0.601   3.831 -0.3757  0.3930 -0.0669
  133OSM    H7F14346   0.185  -0.588   3.900 -0.9192  1.1542 -0.8528
  133OSM    H7G14347   0.286  -0.504   3.780  1.0743 -0.1841 -0.7845
  133OSM    C8F14348   0.391  -0.625   3.924  0.3820  0.6155 -0.2607
  133OSM    H8F14349   0.394  -0.527   3.976  0.5952  1.4539 -1.7774
  133OSM    H8G14350   0.484  -0.637   3.864  0.4774 -0.6259  0.1046
  133OSM    C9F14351   0.386  -0.756   4.012 -0.3635 -0.4262  0.1078
  133OSM    H9F14352   0.324  -0.838   3.972 -1.7740 -0.3608  2.0523
  133OSM   C10F14353   0.432  -0.756   4.138  0.5288  0.5330 -0.0963
  133OSM   H10F14354   0.422  -0.853   4.187  1.8288 -0.7070 -2.1442
  133OSM   C11F14355   0.481  -0.644   4.220  0.6423 -0.0213  0.2561
  133OSM   H11F14356   0.494  -0.553   4.157 -0.7303 -1.5794 -2.4532
  133OSM   H11G14357   0.582  -0.669   4.258  0.2235 -0.0667  1.3779
  133OSM   C12F14358   0.396  -0.603   4.341 -0.5539 -0.9961 -0.4342
  133OSM   H12F14359   0.286  -0.604   4.324 -0.7784 -0.8434  0.8542
  133OSM   H12G14360   0.408  -0.494   4.358 -0.3394 -0.4520 -3.5471
  133OSM   C13F14361   0.422  -0.689   4.471  0.1040 -0.6567 -0.4787
  133OSM   H13F14362   0.526  -0.726   4.479  0.6120  0.4761 -1.6239
  133OSM   H13G14363   0.359  -0.780   4.458 -0.4726 -0.2918 -0.2646
  133OSM   C14F14364   0.380  -0.624   4.602  1.0153 -0.0626 -0.4613
  133OSM   H14F14365   0.280  -0.578   4.586  0.0823 -1.9980 -0.4192
  133OSM   H14G14366   0.450  -0.538   4.608 -0.2423  1.1734 -2.1704
  133OSM   C15F14367   0.356  -0.711   4.730  0.1854 -0.2593  0.3190
  133OSM   H15F14368   0.310  -0.660   4.818 -1.2336 -0.1113 -0.4866
  133OSM   H15G14369   0.452  -0.758   4.761  0.3275 -1.0472 -1.2607
  133OSM   C16F14370   0.270  -0.836   4.711  0.0464 -0.3862  0.0887
  133OSM   H16F14371   0.313  -0.906   4.636  3.1565  1.8360 -0.3870
  133OSM   H16G14372   0.170  -0.820   4.664 -0.3436  1.5775  1.4308
  133OSM   C17F14373   0.244  -0.905   4.846 -0.1899  0.1043  0.3869
  133OSM   H17F14374   0.191  -0.831   4.910 -1.8561 -1.1129  0.4935
  133OSM   H17G14375   0.345  -0.924   4.886  0.0201 -0.6423 -0.4590
  133OSM   C18F14376   0.154  -1.029   4.842 -0.1436 -0.1400  0.8855
  133OSM   H18F14377   0.156  -1.074   4.944 -1.5186  0.9450  1.4228
  133OSM   H18G14378   0.187  -1.094   4.758 -1.0726  1.0887 -0.4843
  133OSM   H18H14379   0.050  -0.993   4.825  0.5227  1.4272 -0.0884
  134OSM      N14380   5.336   1.821   2.571  0.5270 -0.0521 -0.2703
  134OSM    C1514381   5.258   1.705   2.513 -0.3052  0.1859  0.2939
  134OSM   H15A14382   5.169   1.750   2.470 -1.2156 -1.3568  0.5102
  134OSM   H15B14383   5.230   1.634   2.589 -1.6435 -0.7442 -1.0153
  134OSM   H15C14384   5.319   1.655   2.439  1.0336  0.2066  1.3555
  134OSM    C1414385   5.309   1.941   2.483  0.3700  0.1420  0.3926
  134OSM   H14A14386   5.358   2.032   2.512 -1.4103  0.3018  3.2171
  134OSM   H14B14387   5.208   1.978   2.478  0.2778  0.4996  3.4731
  134OSM   H14C14388   5.339   1.909   2.384  0.1504  1.0204  0.0386
  134OSM    C1314389   5.285   1.854   2.707  0.6167 -0.1714  0.0816
  134OSM   H13A14390   5.323   1.951   2.735  1.5207 -0.7600  1.0034
  134OSM   H13B14391   5.320   1.787   2.784  4.0634  1.6881  0.3337
  134OSM   H13C14392   5.178   1.863   2.709  0.6343  0.1248 -0.2847
  134OSM    C1214393   5.484   1.797   2.591  0.4651  0.1969 -0.6993
  134OSM   H12A14394   5.486   1.703   2.644  0.0299  1.5126  1.8288
  134OSM   H12B14395   5.532   1.870   2.654  0.5042  0.1835 -0.7140
  134OSM    C1114396   5.569   1.771   2.464  0.6591  0.1414  0.4167
  134OSM   H11A14397   5.679   1.764   2.481  1.4950  2.1166 -3.2224
  134OSM   H11B14398   5.566   1.857   2.394  0.6501  0.9688  1.3984
  134OSM      P14399   5.577   1.501   2.461 -0.1094  0.0476 -0.4031
  134OSM    O1314400   5.474   1.408   2.409 -0.2950  0.0397 -0.3887
  134OSM    O1414401   5.719   1.478   2.420 -0.1698 -0.2960  0.4764
  134OSM    O1114402   5.564   1.512   2.623  0.1319  0.7416  0.1469
  134OSM    O1214403   5.534   1.641   2.402  0.7226  0.0649  0.5607
  134OSM    C1S14404   5.471   1.406   2.682  0.5966  0.1975  0.8915
  134OSM    H1S14405   5.499   1.306   2.642 -2.0649 -0.8014  1.2749
  134OSM    H1T14406   5.369   1.426   2.642  1.3706  1.3493 -0.6188
  134OSM     NF14407   5.396   1.283   2.875  0.2417  0.0694 -0.4750
  134OSM    HNF14408   5.307   1.296   2.919  0.8167 -0.8768  1.0754
  134OSM    C2S14409   5.470   1.398   2.831 -0.1478  0.3774  0.1995
  134OSM    H2S14410   5.579   1.383   2.850  0.3734  1.4098 -1.7113
  134OSM    C3S14411   5.448   1.537   2.909 -1.1962  0.2162  0.7663
  134OSM    H3S14412   5.338   1.547   2.895 -1.1742 -0.2990  0.1591
  134OSM     O314413   5.506   1.654   2.849  0.1816 -0.1760 -0.6015
  134OSM    HO314414   5.510   1.620   2.760 -0.7273 -2.7419  0.2461
  134OSM    C4S14415   5.472   1.526   3.058 -0.0608  0.0922 -0.8362
  134OSM    H4S14416   5.387   1.466   3.094 -2.0765  1.2167 -3.4136
  134OSM    C5S14417   5.573   1.576   3.140 -0.0474  0.5050  0.1082
  134OSM    H5S14418   5.641   1.651   3.099  0.8136 -1.8978 -3.2739
  134OSM    C6S14419   5.597   1.548   3.288 -0.3675 -0.2833  0.6258
  134OSM    H6S14420   5.599   1.642   3.347 -2.1516  0.5982 -0.6110
  134OSM    H6T14421   5.686   1.483   3.300 -1.8701 -2.6360 -0.1779
  134OSM    C7S14422   5.485   1.462   3.345  0.2520 -0.4068 -0.1346
  134OSM    H7S14423   5.467   1.374   3.280  2.9706 -0.0937 -1.4506
  134OSM    H7T14424   5.388   1.516   3.350  0.0581 -0.8209  1.0992
  134OSM    C8S14425   5.523   1.417   3.489 -0.6394 -0.6291 -0.4060
  134OSM    H8S14426   5.570   1.503   3.541 -1.9432 -0.5726  0.7290
  134OSM    H8T14427   5.605   1.341   3.489 -0.0387 -0.0064  0.7809
  134OSM    C9S14428   5.406   1.365   3.570  0.0044 -0.5057  0.0440
  134OSM    H9S14429   5.351   1.291   3.508 -0.1996 -0.4184  0.1220
  134OSM    H9T14430   5.334   1.445   3.597  1.6283  0.6575  1.1302
  134OSM   C10S14431   5.437   1.279   3.703 -0.2383 -0.3536  0.2351
  134OSM   H10S14432   5.532   1.228   3.676 -0.6230 -0.1259 -1.7750
  134OSM   H10T14433   5.361   1.200   3.718  0.9238 -1.9280 -1.6465
  134OSM   C11S14434   5.441   1.370   3.821 -0.5097  0.8007 -0.4124
  134OSM   H11S14435   5.340   1.412   3.838 -0.1426  1.6288 -0.2379
  134OSM   H11T14436   5.509   1.456   3.805  0.5449  0.5045  2.0452
  134OSM   C12S14437   5.496   1.297   3.949 -0.5390 -0.0386  0.4451
  134OSM   H12S14438   5.492   1.369   4.033 -1.6031  1.7348 -1.0653
  134OSM   H12T14439   5.601   1.264   3.934 -1.7252 -4.3369  0.2084
  134OSM   C13S14440   5.415   1.173   3.990  0.8134  0.5190 -0.0566
  134OSM   H13S14441   5.429   1.096   3.911 -0.6428 -0.6572  0.7820
  134OSM   H13T14442   5.309   1.206   3.995  0.3866 -0.8430  0.2315
  134OSM   C14S14443   5.456   1.111   4.127  0.1983  0.3759  0.0734
  134OSM   H14S14444   5.474   1.182   4.211  0.9837 -0.2518  0.4636
  134OSM   H14T14445   5.561   1.080   4.108  0.1819  1.1371 -1.3039
  134OSM   C15S14446   5.364   1.005   4.178  0.2806 -0.5056 -0.0267
  134OSM   H15S14447   5.343   0.928   4.100  2.0640  1.0890 -2.2217
  134OSM   H15T14448   5.275   1.069   4.195  1.3050  1.2882 -1.0682
  134OSM   C16S14449   5.421   0.942   4.300  0.0649  0.2156  0.0889
  134OSM   H16S14450   5.432   1.021   4.378  1.9239 -0.9972  1.1271
  134OSM   H16T14451   5.528   0.918   4.283  0.1682  0.2635  0.6404
  134OSM   C17S14452   5.332   0.835   4.355  0.0624  0.3078  0.2808
  134OSM   H17S14453   5.335   0.743   4.293  1.0296  0.6276 -0.1772
  134OSM   H17T14454   5.230   0.877   4.369 -0.2935 -0.6770  0.7515
  134OSM   C18S14455   5.370   0.795   4.500  0.5315  0.7346  0.1713
  134OSM   H18S14456   5.353   0.891   4.554 -3.2122  0.1966  0.2165
  134OSM   H18T14457   5.480   0.779   4.494  0.5081  0.8515 -0.8122
  134OSM   H18U14458   5.303   0.728   4.557  0.9325  1.8652  2.0356
  134OSM    C1F14459   5.431   1.155   2.853 -0.3312  0.4119  0.2263
  134OSM     OF14460   5.541   1.128   2.804 -0.1922 -0.3110  0.3674
  134OSM    C2F14461   5.338   1.054   2.915  0.5329 -0.5122  0.3709
  134OSM    H2F14462   5.241   1.069   2.863  1.4051  0.0128 -1.1722
  134OSM    H2G14463   5.321   1.056   3.025 -2.1194  0.9566  0.0165
  134OSM    C3F14464   5.382   0.910   2.888  0.1606  0.7311  0.6412
  134OSM    H3F14465   5.482   0.891   2.930 -0.9322  0.0711  3.1153
  134OSM    H3G14466   5.393   0.890   2.779 -0.3418  0.9907  0.5375
  134OSM    C4F14467   5.288   0.807   2.938  0.3148  0.3563 -0.4075
  134OSM    H4F14468   5.309   0.705   2.899 -2.0235  0.0848 -1.1040
  134OSM    H4G14469   5.181   0.818   2.910 -0.5958 -0.5284  2.3979
  134OSM    C5F14470   5.286   0.798   3.093 -0.5737  0.1868 -0.0256
  134OSM    H5F14471   5.243   0.896   3.122 -0.3970 -0.1048  1.3118
  134OSM    H5G14472   5.385   0.792   3.143  0.5798  0.0060 -2.2029
  134OSM    C6F14473   5.187   0.692   3.144  0.3157  0.6399  0.5668
  134OSM    H6F14474   5.242   0.596   3.139 -0.4158  0.2358  0.0910
  134OSM    H6G14475   5.098   0.693   3.078  0.2359 -0.6900  0.6339
  134OSM    C7F14476   5.137   0.723   3.281  0.3836  0.6272  0.1995
  134OSM    H7F14477   5.087   0.822   3.270  0.5307  0.5025 -1.8682
  134OSM    H7G14478   5.224   0.743   3.347  1.1249  2.5721 -1.2754
  134OSM    C8F14479   5.035   0.622   3.345 -0.3128  0.4054  0.6339
  134OSM    H8F14480   5.078   0.520   3.349 -1.5124 -0.1338  0.2580
  134OSM    H8G14481   4.945   0.606   3.281  0.6424 -1.6133 -0.2983
  134OSM    C9F14482   4.990   0.681   3.477 -0.1326 -0.4179  0.3228
  134OSM    H9F14483   4.946   0.782   3.478  0.4234 -0.1662 -0.1120
  134OSM   C10F14484   5.012   0.625   3.594 -0.4292 -0.1813  0.2857
  134OSM   H10F14485   4.981   0.682   3.683 -0.9148  0.0136 -0.0030
  134OSM   C11F14486   5.086   0.498   3.616  0.2232  0.3816 -0.5771
  134OSM   H11F14487   5.156   0.476   3.533 -0.0823  1.4287 -1.1293
  134OSM   H11G14488   5.009   0.418   3.614 -0.0960  0.6592  0.1322
  134OSM   C12F14489   5.182   0.500   3.741 -0.2545  0.3194  0.2506
  134OSM   H12F14490   5.239   0.595   3.727  3.0285 -1.7790 -1.8632
  134OSM   H12G14491   5.256   0.417   3.740 -1.4858 -0.8693  2.3854
  134OSM   C13F14492   5.107   0.487   3.873 -0.8156 -0.9120  0.0174
  134OSM   H13F14493   5.006   0.526   3.848 -0.0278  0.3646 -1.4043
  134OSM   H13G14494   5.151   0.560   3.944 -0.4719 -2.9648  2.0125
  134OSM   C14F14495   5.104   0.343   3.918  0.1551 -0.3370  0.9908
  134OSM   H14F14496   5.210   0.319   3.940  0.9688  0.4225 -1.7298
  134OSM   H14G14497   5.066   0.273   3.840  1.5937  1.2032 -1.2076
  134OSM   C15F14498   5.021   0.338   4.049  1.1225  0.0951  0.4081
  134OSM   H15F14499   5.031   0.234   4.086 -1.3445  0.4102  2.2754
  134OSM   H15G14500   4.916   0.369   4.033  0.9459  0.5775  2.2102
  134OSM   C16F14501   5.072   0.442   4.152  0.1000 -0.5375 -0.3965
  134OSM   H16F14502   5.035   0.545   4.136  0.1041 -0.7817 -2.1040
  134OSM   H16G14503   5.182   0.449   4.141 -0.0040  2.4030 -0.3102
  134OSM   C17F14504   5.047   0.395   4.299  0.6390 -0.1907 -0.2484
  134OSM   H17F14505   5.098   0.296   4.303  2.6645  0.7708 -0.8476
  134OSM   H17G14506   4.941   0.385   4.330  0.2784 -1.2622 -1.7289
  134OSM   C18F14507   5.124   0.485   4.408  0.7932 -0.2011 -0.6474
  134OSM   H18F14508   5.078   0.586   4.414 -0.4429 -0.7264 -0.9556
  134OSM   H18G14509   5.227   0.494   4.367  0.0112  0.4563 -2.6051
  134OSM   H18H14510   5.125   0.431   4.505  2.3591 -1.0830 -1.1278
  135OSM      N14511   1.884   2.166   2.652 -0.0479  0.3768 -0.5957
  135OSM    C1514512   1.981   2.172   2.768  0.7161  0.2315  0.0588
  135OSM   H15A14513   1.933   2.147   2.862 -0.0861 -0.8937 -0.6273
  135OSM   H15B14514   2.015   2.274   2.782  1.3526  0.1420 -0.7998
  135OSM   H15C14515   2.059   2.106   2.736 -0.1909 -0.0509 -1.7080
  135OSM    C1414516   1.798   2.049   2.669  0.2823 -0.3162 -0.6178
  135OSM   H14A14517   1.731   2.043   2.754 -0.9560  2.3828 -1.3143
  135OSM   H14B14518   1.848   1.954   2.659 -1.8682 -1.7907  1.4716
  135OSM   H14C14519   1.732   2.038   2.584 -0.1426  0.5849 -0.4162
  135OSM    C1314520   1.798   2.290   2.657 -0.5914  0.0069 -0.3057
  135OSM   H13A14521   1.763   2.301   2.758  0.7194 -0.1369  0.1828
  135OSM   H13B14522   1.709   2.285   2.596 -0.9516 -0.7468  0.2641
  135OSM   H13C14523   1.857   2.375   2.627 -1.0491 -0.2408 -2.0206
  135OSM    C1214524   1.949   2.146   2.514 -0.0083  0.2600  0.5874
  135OSM   H12A14525   1.978   2.245   2.479 -0.9212  0.8579  1.4688
  135OSM   H12B14526   1.870   2.115   2.449  1.1033  1.7848 -1.6318
  135OSM    C1114527   2.068   2.037   2.512 -0.2997  0.0208  0.1653
  135OSM   H11A14528   2.158   2.091   2.549  0.0665  0.6528 -1.5970
  135OSM   H11B14529   2.094   2.016   2.406 -1.3902 -0.3016 -0.0478
  135OSM      P14530   2.145   1.798   2.604  0.4448 -0.3762 -0.0269
  135OSM    O1314531   2.081   1.665   2.597 -0.4538  0.1373 -0.0229
  135OSM    O1414532   2.262   1.824   2.522 -0.0833 -0.6437  0.0067
  135OSM    O1114533   2.183   1.836   2.758 -0.0457 -0.4075  0.3311
  135OSM    O1214534   2.036   1.908   2.572 -0.2754  0.0566  0.2804
  135OSM    C1S14535   2.077   1.813   2.859  0.1494  0.3305  0.4681
  135OSM    H1S14536   2.056   1.704   2.860  0.1116  0.2845 -1.2976
  135OSM    H1T14537   1.974   1.844   2.831 -0.6478 -2.1850  0.3012
  135OSM     NF14538   1.997   1.855   3.089  0.6490  0.0046 -0.3256
  135OSM    HNF14539   1.941   1.937   3.090  1.0774  0.4331 -3.3359
  135OSM    C2S14540   2.113   1.868   3.006 -0.6251  0.8508  0.3576
  135OSM    H2S14541   2.188   1.795   3.044  0.2951 -1.3781 -4.8541
  135OSM    C3S14542   2.182   2.008   3.007 -0.1588 -0.7684 -0.5057
  135OSM    H3S14543   2.108   2.087   2.980  2.1707  1.8966  0.3885
  135OSM     O314544   2.284   2.030   2.909  0.0602 -0.1487 -0.3940
  135OSM    HO314545   2.264   1.962   2.844 -0.8284 -0.1409 -0.1429
  135OSM    C4S14546   2.227   2.048   3.145 -0.1517 -0.4532 -0.1070
  135OSM    H4S14547   2.151   2.099   3.205  0.6691  1.2570 -0.4746
  135OSM    C5S14548   2.345   2.024   3.200  0.5658 -0.7433 -0.0356
  135OSM    H5S14549   2.426   1.973   3.145  0.3696 -0.5922 -0.4709
  135OSM    C6S14550   2.373   2.051   3.346 -0.1777  0.5074 -0.2117
  135OSM    H6S14551   2.319   2.145   3.370  1.3196  1.0390  1.2479
  135OSM    H6T14552   2.477   2.082   3.367 -0.7892  1.8709  0.9529
  135OSM    C7S14553   2.325   1.939   3.444 -0.0765  0.6648 -0.3289
  135OSM    H7S14554   2.387   1.848   3.432  0.5131  0.9841  0.2181
  135OSM    H7T14555   2.216   1.923   3.426  0.1349 -2.0041  0.3790
  135OSM    C8S14556   2.350   1.995   3.590  0.1134 -0.5840  0.1474
  135OSM    H8S14557   2.288   2.084   3.610 -0.3259 -0.5041 -1.4311
  135OSM    H8T14558   2.458   2.023   3.584 -0.4089  1.2902 -1.7629
  135OSM    C9S14559   2.340   1.886   3.696  0.1096 -0.0771 -0.3978
  135OSM    H9S14560   2.367   1.786   3.655 -0.5043 -0.3756 -0.0977
  135OSM    H9T14561   2.233   1.874   3.725  0.1606  0.4070 -0.0044
  135OSM   C10S14562   2.424   1.916   3.815  0.4346 -0.2521  0.1668
  135OSM   H10S14563   2.411   2.025   3.836  3.7075  0.3182 -0.2253
  135OSM   H10T14564   2.532   1.891   3.803 -0.1782 -2.1891 -1.7370
  135OSM   C11S14565   2.367   1.850   3.949  0.1552  0.1545  0.1638
  135OSM   H11S14566   2.384   1.740   3.950  2.8988  0.5111  0.4153
  135OSM   H11T14567   2.258   1.872   3.952 -0.4558 -2.2608 -1.2538
  135OSM   C12S14568   2.432   1.907   4.078  0.6211  0.2701  0.4205
  135OSM   H12S14569   2.427   2.018   4.080  0.9055  0.3383 -1.0150
  135OSM   H12T14570   2.541   1.887   4.084  0.4356 -0.3715  2.2313
  135OSM   C13S14571   2.360   1.846   4.197 -0.7901 -0.0900  0.3940
  135OSM   H13S14572   2.374   1.738   4.174  3.9557  0.8119 -2.1622
  135OSM   H13T14573   2.252   1.872   4.198 -1.1097 -1.2581 -0.6369
  135OSM   C14S14574   2.435   1.869   4.329 -0.6993  0.0036 -0.0072
  135OSM   H14S14575   2.457   1.975   4.352  0.1396 -0.7051  2.8056
  135OSM   H14T14576   2.532   1.815   4.322 -0.9266 -0.5242  0.8049
  135OSM   C15S14577   2.358   1.812   4.451 -0.3910  0.6982 -0.0955
  135OSM   H15S14578   2.328   1.707   4.433 -0.7374  0.7463  0.2058
  135OSM   H15T14579   2.268   1.870   4.479  0.2199  2.0056 -0.7224
  135OSM   C16S14580   2.441   1.809   4.572  0.1085  0.7357 -0.5663
  135OSM   H16S14581   2.546   1.791   4.539 -0.6984  0.2742 -3.1064
  135OSM   H16T14582   2.412   1.754   4.665  1.0896  0.2451 -0.5356
  135OSM   C17S14583   2.457   1.953   4.622  0.0766  0.0562 -0.3516
  135OSM   H17S14584   2.356   1.993   4.648 -0.4277 -0.3978 -1.5858
  135OSM   H17T14585   2.510   2.009   4.542 -0.5315 -0.9430 -1.4713
  135OSM   C18S14586   2.540   1.954   4.753 -0.1503  0.4514  0.4808
  135OSM   H18S14587   2.574   2.057   4.776 -1.0055  0.8359  0.0513
  135OSM   H18T14588   2.619   1.876   4.748  0.4602  1.1319 -1.8733
  135OSM   H18U14589   2.478   1.915   4.837 -0.4436  1.3404  0.6823
  135OSM    C1F14590   1.947   1.743   3.140 -0.3578 -0.2176 -0.1740
  135OSM     OF14591   2.006   1.637   3.131  0.5169  0.5859  0.6162
  135OSM    C2F14592   1.807   1.751   3.193 -0.0736 -0.6552  0.1955
  135OSM    H2F14593   1.748   1.681   3.131  1.0423 -0.1508 -1.5189
  135OSM    H2G14594   1.756   1.847   3.169  1.8133  0.2674 -0.3224
  135OSM    C3F14595   1.797   1.707   3.340 -0.1785  0.1709  0.5805
  135OSM    H3F14596   1.793   1.596   3.333  0.5944  0.0688  1.4464
  135OSM    H3G14597   1.699   1.745   3.378 -0.4752  1.1037 -1.0512
  135OSM    C4F14598   1.919   1.730   3.424  0.9604  0.5963 -0.5090
  135OSM    H4F14599   1.948   1.835   3.444  0.7655  0.4370  0.7233
  135OSM    H4G14600   2.005   1.684   3.371  1.7440  0.6791  0.6465
  135OSM    C5F14601   1.911   1.644   3.559 -0.7603  0.2661 -0.2523
  135OSM    H5F14602   1.927   1.542   3.516 -1.4766  0.0291  0.0261
  135OSM    H5G14603   1.813   1.653   3.611  0.3604  0.3788  1.9652
  135OSM    C6F14604   2.025   1.682   3.659  0.0533 -0.2001 -0.6942
  135OSM    H6F14605   2.005   1.783   3.699 -1.3855 -1.0730  0.9671
  135OSM    H6G14606   2.129   1.693   3.622  0.6002  1.4633  1.1506
  135OSM    C7F14607   2.037   1.586   3.788  0.1944 -0.0937  0.4495
  135OSM    H7F14608   2.137   1.600   3.835  0.3512  1.7986 -0.3626
  135OSM    H7G14609   2.025   1.484   3.745  1.5103  0.3428 -1.0587
  135OSM    C8F14610   1.932   1.620   3.890 -0.6607 -0.2017  0.5959
  135OSM    H8F14611   1.840   1.645   3.833 -0.6941 -2.0128 -0.2083
  135OSM    H8G14612   1.982   1.714   3.922 -2.7645  1.9831 -2.0930
  135OSM    C9F14613   1.899   1.528   4.003  0.5542 -0.3485  0.1219
  135OSM    H9F14614   1.791   1.504   4.000  0.0851  1.5175 -3.1800
  135OSM   C10F14615   1.980   1.489   4.101 -0.2380  0.2312  0.8213
  135OSM   H10F14616   1.935   1.419   4.172  0.4606 -2.0047 -0.8310
  135OSM   C11F14617   2.129   1.525   4.125 -0.1805  0.2665  0.1682
  135OSM   H11F14618   2.137   1.626   4.078  2.1595 -0.7341 -1.8239
  135OSM   H11G14619   2.194   1.454   4.071 -1.6074 -0.7202 -0.3273
  135OSM   C12F14620   2.174   1.541   4.271  0.4593 -0.1549 -0.1565
  135OSM   H12F14621   2.100   1.603   4.326  2.8396  0.4226  2.5783
  135OSM   H12G14622   2.274   1.588   4.279  0.0190  1.0040 -1.1246
  135OSM   C13F14623   2.186   1.415   4.356 -0.6530 -0.3072  0.3790
  135OSM   H13F14624   2.247   1.341   4.300 -0.3863  0.5468 -0.4987
  135OSM   H13G14625   2.085   1.373   4.374 -0.7726 -0.5028 -0.6746
  135OSM   C14F14626   2.247   1.439   4.498  0.1344 -0.1621  1.0514
  135OSM   H14F14627   2.342   1.496   4.482 -0.3255 -0.0430 -1.8514
  135OSM   H14G14628   2.276   1.342   4.543 -0.1217 -2.1297 -2.5929
  135OSM   C15F14629   2.157   1.519   4.591  0.3374 -0.4025  0.5713
  135OSM   H15F14630   2.070   1.451   4.599  0.3397 -0.9322 -2.5912
  135OSM   H15G14631   2.125   1.616   4.545 -0.7308 -0.7605  0.5374
  135OSM   C16F14632   2.227   1.548   4.724  1.0737 -0.0576 -0.6070
  135OSM   H16F14633   2.185   1.637   4.776  0.5389 -0.0117 -1.0960
  135OSM   H16G14634   2.334   1.572   4.708  1.2334 -1.3545 -1.6989
  135OSM   C17F14635   2.227   1.432   4.823 -0.6479 -0.6344 -0.1405
  135OSM   H17F14636   2.312   1.460   4.889  0.9039 -1.5628 -1.6647
  135OSM   H17G14637   2.265   1.343   4.767  0.1395 -1.1182  1.1102
  135OSM   C18F14638   2.107   1.407   4.909  0.1045  0.5000 -0.3352
  135OSM   H18F14639   2.128   1.321   4.976  1.3341  0.1588 -1.1128
  135OSM   H18G14640   2.023   1.376   4.843 -0.9364  0.8289  0.7992
  135OSM   H18H14641   2.075   1.486   4.981  0.3999 -1.6388  2.3200
  136OSM      N14642   4.696   3.150   2.316  0.0020 -0.0578 -0.3616
  136OSM    C1514643   4.564   3.087   2.351 -0.6281 -0.7208 -0.2165
  136OSM   H15A14644   4.546   2.986   2.318 -0.8332 -1.1473  1.1501
  136OSM   H15B14645   4.482   3.143   2.308 -0.4347  0.9193  1.4297
  136OSM   H15C14646   4.557   3.083   2.459 -0.0696  0.0273 -0.1460
  136OSM    C1414647   4.805   3.058   2.353  0.3515 -0.2936  0.2919
  136OSM   H14A14648   4.822   3.051   2.459 -0.1795  1.3450  0.5206
  136OSM   H14B14649   4.904   3.089   2.321  0.4317  0.3540  1.1158
  136OSM   H14C14650   4.780   2.957   2.326 -2.9687  1.0199 -2.3039
  136OSM    C1314651   4.699   3.182   2.170  0.2663  0.9753 -0.8365
  136OSM   H13A14652   4.605   3.224   2.137 -0.7845 -1.6571 -1.4321
  136OSM   H13B14653   4.712   3.097   2.106 -0.5099 -0.0132  0.2875
  136OSM   H13C14654   4.785   3.244   2.147  0.2399  1.5963  0.6329
  136OSM    C1214655   4.715   3.278   2.397 -0.3483  0.0292 -0.2001
  136OSM   H12A14656   4.636   3.348   2.373 -0.0453  0.8483  1.1069
  136OSM   H12B14657   4.806   3.326   2.365 -0.7354  0.2472 -1.0039
  136OSM    C1114658   4.709   3.268   2.552  0.2887  0.4501  0.0630
  136OSM   H11A14659   4.609   3.233   2.585  0.8896 -0.6978  0.7510
  136OSM   H11B14660   4.722   3.371   2.592 -0.3208 -0.3781  2.6311
  136OSM      P14661   4.962   3.224   2.637  0.3528 -0.2409 -0.1716
  136OSM    O1314662   5.038   3.105   2.667  0.0754  0.7238  0.4935
  136OSM    O1414663   5.004   3.302   2.520  0.5231  0.1990  0.7574
  136OSM    O1114664   4.952   3.316   2.768  0.3321  0.1473 -0.0707
  136OSM    O1214665   4.818   3.183   2.602 -0.2343  0.5104  0.0686
  136OSM    C1S14666   4.854   3.291   2.868 -0.6197 -0.3605  0.7536
  136OSM    H1S14667   4.772   3.223   2.836 -1.1434  0.5334  0.1459
  136OSM    H1T14668   4.811   3.390   2.894  0.3438  0.3087 -0.1217
  136OSM     NF14669   4.825   3.236   3.111  0.0019 -0.0653 -0.3188
  136OSM    HNF14670   4.846   3.302   3.183 -0.7430 -0.0543 -0.1024
  136OSM    C2S14671   4.914   3.235   2.997 -0.1601  1.0424  0.6790
  136OSM    H2S14672   4.952   3.131   2.980 -0.1614  1.0263  0.7695
  136OSM    C3S14673   5.048   3.307   3.038 -0.1393 -0.0225 -0.0066
  136OSM    H3S14674   5.023   3.410   3.070 -0.5104  0.3044 -1.2618
  136OSM     O314675   5.154   3.319   2.942  0.3680 -0.1178 -0.2726
  136OSM    HO314676   5.108   3.334   2.859  1.9244 -0.1956 -1.1901
  136OSM    C4S14677   5.103   3.244   3.167 -0.2183  0.0305 -0.4294
  136OSM    H4S14678   5.058   3.297   3.252 -1.5853  1.7427 -2.1145
  136OSM    C5S14679   5.187   3.136   3.183 -0.2984  0.1067 -0.0801
  136OSM    H5S14680   5.230   3.084   3.096  0.0838  1.9179 -1.0266
  136OSM    C6S14681   5.225   3.081   3.319 -0.0452  0.3302  0.1114
  136OSM    H6S14682   5.329   3.044   3.305  0.5232  2.4405 -1.8448
  136OSM    H6T14683   5.152   2.998   3.330  0.3679 -0.2641 -1.4146
  136OSM    C7S14684   5.225   3.173   3.450 -0.3107  0.1945  0.3670
  136OSM    H7S14685   5.128   3.226   3.461 -1.0118 -1.2361  1.4049
  136OSM    H7T14686   5.312   3.242   3.445  0.0801 -0.3602 -0.9661
  136OSM    C8S14687   5.230   3.102   3.591 -0.5374 -0.4552 -0.4500
  136OSM    H8S14688   5.311   3.026   3.593 -0.2382 -0.1569  2.4269
  136OSM    H8T14689   5.129   3.060   3.608 -0.8470  1.3872  3.2732
  136OSM    C9S14690   5.251   3.200   3.712 -0.4304 -0.2460 -0.1175
  136OSM    H9S14691   5.187   3.288   3.694 -1.7669 -0.8596  1.4024
  136OSM    H9T14692   5.355   3.239   3.703 -0.0043 -1.5371 -1.4241
  136OSM   C10S14693   5.233   3.134   3.852  0.2032 -0.6448  0.3276
  136OSM   H10S14694   5.316   3.060   3.865 -0.7926 -1.9689 -0.5749
  136OSM   H10T14695   5.133   3.087   3.848 -0.1291  0.1304 -1.4408
  136OSM   C11S14696   5.245   3.236   3.968  0.1301 -0.4367 -0.1545
  136OSM   H11S14697   5.174   3.320   3.953  0.3146  0.0110  1.3157
  136OSM   H11T14698   5.342   3.290   3.963  0.1295 -0.4133  0.0589
  136OSM   C12S14699   5.207   3.182   4.108  0.4486 -0.6228 -0.0293
  136OSM   H12S14700   5.269   3.091   4.124  0.5764 -0.5378 -0.0409
  136OSM   H12T14701   5.101   3.150   4.106 -0.7196  2.8502 -2.1846
  136OSM   C13S14702   5.231   3.287   4.213 -1.0168  0.6617 -0.3152
  136OSM   H13S14703   5.167   3.375   4.190 -0.6106  0.7686 -1.0783
  136OSM   H13T14704   5.336   3.321   4.199 -1.8209  2.9984 -1.0914
  136OSM   C14S14705   5.210   3.246   4.359 -0.3232 -0.1445 -0.2906
  136OSM   H14S14706   5.288   3.170   4.381 -0.9378 -0.2500  1.6846
  136OSM   H14T14707   5.117   3.192   4.384 -0.1282  0.1000  1.0389
  136OSM   C15S14708   5.220   3.369   4.451 -0.4470 -0.7671  0.3060
  136OSM   H15S14709   5.156   3.449   4.408  0.1079  0.0916  1.0216
  136OSM   H15T14710   5.324   3.407   4.444 -1.1360  1.3363  0.6636
  136OSM   C16S14711   5.194   3.348   4.601  0.9085 -0.3019  0.7916
  136OSM   H16S14712   5.089   3.317   4.624 -0.2103  2.5912  0.0326
  136OSM   H16T14713   5.193   3.450   4.645  1.5850 -0.1016  0.3533
  136OSM   C17S14714   5.297   3.255   4.665 -0.3407 -0.2691 -0.0782
  136OSM   H17S14715   5.391   3.312   4.680 -0.1136 -0.5399 -0.4840
  136OSM   H17T14716   5.307   3.161   4.607 -0.0863  0.8044 -1.8390
  136OSM   C18S14717   5.265   3.212   4.806  0.1016 -0.3983  0.0740
  136OSM   H18S14718   5.334   3.131   4.839 -0.5040 -0.8283  0.2867
  136OSM   H18T14719   5.161   3.173   4.808 -0.3174  0.6441 -0.6527
  136OSM   H18U14720   5.271   3.293   4.881 -0.4398 -0.4870  0.2136
  136OSM    C1F14721   4.707   3.179   3.119  0.0316  0.4663  0.2015
  136OSM     OF14722   4.663   3.121   3.018  0.8322  0.4491  0.4869
  136OSM    C2F14723   4.630   3.183   3.250  0.8315 -0.3036 -0.5813
  136OSM    H2F14724   4.628   3.291   3.276 -1.0198 -0.3802 -0.2980
  136OSM    H2G14725   4.690   3.126   3.324 -0.5009 -0.5845  0.3241
  136OSM    C3F14726   4.494   3.109   3.258 -0.1786 -0.0581 -0.6718
  136OSM    H3F14727   4.496   3.005   3.218 -0.4142 -0.5192  0.4938
  136OSM    H3G14728   4.429   3.156   3.181  2.5717  3.3159 -1.1899
  136OSM    C4F14729   4.427   3.106   3.396 -0.8299  0.2465 -0.6274
  136OSM    H4F14730   4.320   3.088   3.370 -0.3885  0.5697 -2.9592
  136OSM    H4G14731   4.433   3.203   3.448 -0.4186  0.8034 -1.6809
  136OSM    C5F14732   4.487   2.991   3.489  0.0373 -1.1571  0.7859
  136OSM    H5F14733   4.598   2.988   3.500  0.4724  1.1247 -1.9432
  136OSM    H5G14734   4.460   2.892   3.447 -0.4862  0.0372 -1.9329
  136OSM    C6F14735   4.428   2.995   3.629  0.2146 -0.6747  0.8990
  136OSM    H6F14736   4.323   2.969   3.607  0.1759  1.4507 -2.0763
  136OSM    H6G14737   4.430   3.101   3.665  3.3758  0.2068 -1.3793
  136OSM    C7F14738   4.493   2.886   3.713  0.2082  0.0519 -0.2897
  136OSM    H7F14739   4.602   2.908   3.708  0.2796 -0.1749  0.1561
  136OSM    H7G14740   4.465   2.785   3.675 -1.3469  0.4658 -0.3116
  136OSM    C8F14741   4.453   2.894   3.863 -0.2546  0.1627 -0.3562
  136OSM    H8F14742   4.489   2.803   3.915 -0.2955 -1.0695 -2.3961
  136OSM    H8G14743   4.343   2.884   3.874 -0.2421  1.0728  0.9736
  136OSM    C9F14744   4.520   3.020   3.912  0.3606 -0.8429  0.3825
  136OSM    H9F14745   4.585   3.073   3.842  1.7385 -2.0350  0.7100
  136OSM   C10F14746   4.492   3.073   4.031  1.0273  0.2552 -0.0759
  136OSM   H10F14747   4.548   3.162   4.064  0.4595  1.6321 -2.5395
  136OSM   C11F14748   4.396   3.004   4.128 -0.5590  0.6892 -0.1756
  136OSM   H11F14749   4.316   2.942   4.081 -2.0940  2.9068 -0.6609
  136OSM   H11G14750   4.317   3.070   4.171 -1.5760 -0.7478  0.2749
  136OSM   C12F14751   4.446   2.926   4.260  0.4729 -0.2443 -0.1007
  136OSM   H12F14752   4.544   2.974   4.280  0.1750  0.8897 -1.2298
  136OSM   H12G14753   4.485   2.829   4.223  2.6174  0.6775 -0.3510
  136OSM   C13F14754   4.349   2.921   4.374 -0.0853 -0.5477 -0.4920
  136OSM   H13F14755   4.390   2.859   4.457 -2.9887 -0.5929  1.0369
  136OSM   H13G14756   4.254   2.871   4.346 -1.0449  2.0256 -2.2114
  136OSM   C14F14757   4.328   3.060   4.454 -1.2628 -0.6410 -0.5551
  136OSM   H14F14758   4.251   3.050   4.534  0.0155 -1.4460  0.6252
  136OSM   H14G14759   4.274   3.122   4.380  0.2506  0.3083 -0.9118
  136OSM   C15F14760   4.457   3.128   4.507  0.1379 -0.7618  0.2326
  136OSM   H15F14761   4.523   3.147   4.421 -1.8492  1.1344 -0.9690
  136OSM   H15G14762   4.519   3.072   4.580  1.7596  1.1021  0.3522
  136OSM   C16F14763   4.431   3.270   4.563  0.7039  0.5996 -0.0023
  136OSM   H16F14764   4.335   3.316   4.529  0.0750 -0.8165 -0.2048
  136OSM   H16G14765   4.504   3.344   4.524  0.4870  1.3279  0.9275
  136OSM   C17F14766   4.425   3.262   4.717 -0.7947  0.8410  0.5026
  136OSM   H17F14767   4.525   3.230   4.751 -0.6281  0.9525  0.1274
  136OSM   H17G14768   4.361   3.177   4.749  0.5229 -0.2151  0.4143
  136OSM   C18F14769   4.377   3.396   4.781  0.1914 -0.3119 -0.1025
  136OSM   H18F14770   4.449   3.477   4.756  0.9013 -0.9463 -0.1599
  136OSM   H18G14771   4.372   3.397   4.892 -2.2921  2.6237 -0.0907
  136OSM   H18H14772   4.271   3.413   4.755 -0.8659 -2.2451  2.4948
  137OSM      N14773   2.343   2.426   2.355  0.4077 -0.2624  0.4703
  137OSM    C1514774   2.485   2.429   2.304  0.2114  0.9691 -0.5709
  137OSM   H15A14775   2.502   2.408   2.200 -1.4872  1.1782 -0.9038
  137OSM   H15B14776   2.532   2.349   2.361 -0.4446  0.1248 -1.1928
  137OSM   H15C14777   2.537   2.522   2.323  0.8318  0.6502 -0.6603
  137OSM    C1414778   2.267   2.535   2.294  0.1541 -0.1598  0.5446
  137OSM   H14A14779   2.332   2.621   2.281  0.3130 -0.3476  0.0781
  137OSM   H14B14780   2.188   2.574   2.357  0.0518  1.3954 -0.4740
  137OSM   H14C14781   2.229   2.509   2.196  1.2074  0.0526  0.0617
  137OSM    C1314782   2.285   2.300   2.310 -0.2174  0.6471  0.2402
  137OSM   H13A14783   2.282   2.293   2.202 -0.8063  0.6024  0.2590
  137OSM   H13B14784   2.186   2.282   2.348  0.4026 -2.1356  0.7165
  137OSM   H13C14785   2.346   2.218   2.344 -0.2663  1.0684  1.3855
  137OSM    C1214786   2.339   2.449   2.504 -0.7107  0.5448 -0.2542
  137OSM   H12A14787   2.389   2.541   2.530 -0.3126 -0.3501  2.5508
  137OSM   H12B14788   2.400   2.370   2.547 -2.9844 -1.3491 -0.3300
  137OSM    C1114789   2.206   2.440   2.571  0.3061  0.2006  0.4018
  137OSM   H11A14790   2.219   2.419   2.680  1.6285 -0.0785  0.2183
  137OSM   H11B14791   2.139   2.359   2.535 -1.1746  1.4042  0.3863
  137OSM      P14792   2.141   2.691   2.635  0.4322 -0.2936 -0.1579
  137OSM    O1314793   2.286   2.721   2.648 -0.1522  0.1583  0.1944
  137OSM    O1414794   2.044   2.792   2.586 -0.4593  0.0062  0.6889
  137OSM    O1114795   2.087   2.633   2.773  0.5816 -0.4472  0.1687
  137OSM    O1214796   2.133   2.559   2.542  0.4058 -0.3495 -0.3719
  137OSM    C1S14797   2.057   2.732   2.878  0.1479  0.4194 -0.5605
  137OSM    H1S14798   1.995   2.816   2.838  1.7056  1.2944 -1.2347
  137OSM    H1T14799   2.142   2.785   2.927  1.9300 -2.4562 -0.3229
  137OSM     NF14800   1.959   2.747   3.116 -0.0550  0.1715 -0.5521
  137OSM    HNF14801   2.013   2.734   3.199 -1.1802 -1.5949 -0.0437
  137OSM    C2S14802   1.987   2.657   3.005 -0.2363 -0.6646 -0.1370
  137OSM    H2S14803   1.892   2.616   2.964 -0.3825 -0.5284  0.0663
  137OSM    C3S14804   2.074   2.538   3.055 -0.3661 -0.6727 -0.2689
  137OSM    H3S14805   2.164   2.589   3.095 -1.3792  0.9251  0.0717
  137OSM     O314806   2.129   2.447   2.966 -0.2234 -0.4006 -0.3701
  137OSM    HO314807   2.132   2.489   2.879  2.0334  0.4666  0.0372
  137OSM    C4S14808   2.009   2.472   3.172  0.2263  0.0755 -0.5869
  137OSM    H4S14809   2.051   2.507   3.268  0.8806 -0.4633 -0.6647
  137OSM    C5S14810   1.924   2.364   3.160 -0.5625 -0.8342 -0.0517
  137OSM    H5S14811   1.904   2.321   3.061 -4.4908 -0.2657  0.3113
  137OSM    C6S14812   1.859   2.283   3.271  0.4580 -0.1893  0.1167
  137OSM    H6S14813   1.813   2.195   3.223 -1.1564  0.7214 -0.0782
  137OSM    H6T14814   1.777   2.340   3.319  0.5095  0.0303 -0.0528
  137OSM    C7S14815   1.951   2.245   3.392 -0.4167  0.0163 -0.5796
  137OSM    H7S14816   2.007   2.327   3.441 -0.3865  0.2004 -0.9241
  137OSM    H7T14817   2.026   2.175   3.350  0.5443  0.4784  0.3190
  137OSM    C8S14818   1.867   2.162   3.490 -0.6720 -0.0869  0.0496
  137OSM    H8S14819   1.833   2.071   3.437  0.5253  0.0668 -1.0734
  137OSM    H8T14820   1.780   2.224   3.520 -0.3607  1.6996 -2.3838
  137OSM    C9S14821   1.936   2.123   3.624 -0.5576  0.3729  0.2203
  137OSM    H9S14822   1.976   2.224   3.649 -0.4941  1.1307 -2.5790
  137OSM    H9T14823   2.024   2.055   3.620 -1.1203 -0.3223 -0.8127
  137OSM   C10S14824   1.835   2.061   3.726 -0.7470  0.5840  0.1990
  137OSM   H10S14825   1.781   1.968   3.697 -1.5837  0.9277  0.6097
  137OSM   H10T14826   1.750   2.133   3.734 -1.1012  0.4829 -2.1672
  137OSM   C11S14827   1.906   2.029   3.856  0.0379 -0.0018  0.2522
  137OSM   H11S14828   1.969   2.115   3.888  0.4749  0.4567 -1.7159
  137OSM   H11T14829   1.977   1.945   3.841 -2.2964 -2.3981  1.7138
  137OSM   C12S14830   1.808   1.995   3.965 -0.5571  0.2673 -0.6638
  137OSM   H12S14831   1.769   1.893   3.947 -1.0508  0.2512  0.4422
  137OSM   H12T14832   1.719   2.061   3.970  0.2561  1.3376  0.1341
  137OSM   C13S14833   1.888   1.975   4.097 -0.0799  0.2368 -0.3810
  137OSM   H13S14834   1.946   2.060   4.138 -0.1415 -0.8389  2.1830
  137OSM   H13T14835   1.971   1.905   4.074  0.5232  1.2076 -1.2762
  137OSM   C14S14836   1.811   1.908   4.212  0.0868 -0.1643 -0.2085
  137OSM   H14S14837   1.777   1.809   4.174  1.4107 -1.1670  1.1227
  137OSM   H14T14838   1.717   1.963   4.236  1.1261  1.5987 -0.0564
  137OSM   C15S14839   1.881   1.886   4.344 -0.2463  0.8217 -0.2139
  137OSM   H15S14840   1.980   1.835   4.341 -0.6732 -0.0577  0.3554
  137OSM   H15T14841   1.815   1.822   4.405  0.4661  0.1810 -0.1040
  137OSM   C16S14842   1.909   2.023   4.412 -0.4972  0.1506  0.7082
  137OSM   H16S14843   1.814   2.081   4.412  0.1598  1.3156 -1.7556
  137OSM   H16T14844   1.959   2.079   4.331 -3.2084 -0.2583 -1.3971
  137OSM   C17S14845   1.966   2.016   4.551 -0.5904  0.4118  0.0518
  137OSM   H17S14846   2.040   1.933   4.550 -2.7303 -1.6002 -0.2320
  137OSM   H17T14847   1.878   1.985   4.612  1.4400  1.9070  4.1049
  137OSM   C18S14848   2.026   2.137   4.610 -0.1325 -0.9169  0.1940
  137OSM   H18S14849   2.034   2.208   4.525 -1.8300  0.4009  1.0640
  137OSM   H18T14850   2.129   2.125   4.648  0.9157  0.7495 -1.9128
  137OSM   H18U14851   1.967   2.180   4.694  0.1820  1.8431 -0.8988
  137OSM    C1F14852   1.862   2.834   3.117  0.2403  0.3582  0.1025
  137OSM     OF14853   1.808   2.863   3.007  0.2105 -0.4268  0.4134
  137OSM    C2F14854   1.847   2.909   3.248  0.7298  0.0639 -0.5154
  137OSM    H2F14855   1.899   3.007   3.243  0.0478  0.6600  2.2989
  137OSM    H2G14856   1.893   2.848   3.328  1.1007  0.8201 -0.1460
  137OSM    C3F14857   1.703   2.945   3.300  0.1729 -0.0050  0.1065
  137OSM    H3F14858   1.657   3.027   3.241  0.8311  0.1248 -0.2432
  137OSM    H3G14859   1.719   2.982   3.403 -0.2352  0.7242 -0.0867
  137OSM    C4F14860   1.610   2.819   3.311  0.5389  0.8694  0.0409
  137OSM    H4F14861   1.569   2.807   3.208  0.9772 -0.0671 -0.0369
  137OSM    H4G14862   1.519   2.849   3.367 -1.8825  0.1684 -3.1924
  137OSM    C5F14863   1.676   2.697   3.370  0.1034  0.6009 -0.8426
  137OSM    H5F14864   1.699   2.710   3.478  1.9851 -2.8811 -0.7003
  137OSM    H5G14865   1.768   2.659   3.320 -0.2400 -0.7171 -0.5076
  137OSM    C6F14866   1.570   2.586   3.356  0.2863  0.7259  0.0867
  137OSM    H6F14867   1.622   2.489   3.365  2.4602  1.7690 -0.5284
  137OSM    H6G14868   1.517   2.591   3.258  0.2458 -1.3079 -0.0404
  137OSM    C7F14869   1.456   2.585   3.459  0.2645  0.2573  0.2797
  137OSM    H7F14870   1.394   2.493   3.453  0.0932  0.1790  2.4281
  137OSM    H7G14871   1.379   2.662   3.435 -0.0789 -0.6813 -1.8749
  137OSM    C8F14872   1.493   2.596   3.601  0.0504  0.0930  0.0793
  137OSM    H8F14873   1.405   2.588   3.668  0.4148  0.8379  0.6692
  137OSM    H8G14874   1.535   2.698   3.616 -0.4941  0.6133 -1.6334
  137OSM    C9F14875   1.588   2.486   3.638  0.5957 -0.0060 -0.1430
  137OSM    H9F14876   1.571   2.383   3.602  0.0875 -0.1011  0.3642
  137OSM   C10F14877   1.711   2.498   3.692  0.4652 -0.3166 -0.0311
  137OSM   H10F14878   1.772   2.407   3.696  1.4789  0.3566  3.8143
  137OSM   C11F14879   1.788   2.617   3.739 -0.5885  0.3690 -0.5376
  137OSM   H11F14880   1.807   2.618   3.848  1.2587  0.0642 -0.8288
  137OSM   H11G14881   1.741   2.715   3.714  0.7297  1.9720  2.7024
  137OSM   C12F14882   1.935   2.619   3.679  0.2672 -0.0986 -0.0231
  137OSM   H12F14883   1.934   2.626   3.569  1.7512  0.2485 -0.0354
  137OSM   H12G14884   1.996   2.533   3.715  0.8337  0.4810  0.4256
  137OSM   C13F14885   2.007   2.741   3.721  0.0927 -0.2676 -0.0094
  137OSM   H13F14886   2.064   2.725   3.815  0.0625 -1.3004 -0.1611
  137OSM   H13G14887   1.921   2.806   3.749 -0.7732 -1.7315  0.8153
  137OSM   C14F14888   2.093   2.809   3.609 -0.2399  0.2727  0.2652
  137OSM   H14F14889   2.055   2.778   3.510  1.4246  0.1608 -0.3645
  137OSM   H14G14890   2.193   2.764   3.624  0.2270  1.7525  1.9204
  137OSM   C15F14891   2.105   2.957   3.631 -0.6765  0.3626 -0.4880
  137OSM   H15F14892   2.168   2.970   3.721  1.1256 -0.5843 -1.5733
  137OSM   H15G14893   2.009   3.010   3.650 -1.3477 -0.5578 -1.2068
  137OSM   C16F14894   2.168   3.019   3.508 -0.0592  0.0779 -0.2855
  137OSM   H16F14895   2.106   3.000   3.418  0.3432 -0.3024 -0.4857
  137OSM   H16G14896   2.260   2.961   3.487  0.2167  0.1120  0.7359
  137OSM   C17F14897   2.183   3.171   3.529 -0.8680 -0.1804  0.4343
  137OSM   H17F14898   2.257   3.189   3.610 -2.0765  1.8973  1.1451
  137OSM   H17G14899   2.091   3.217   3.571  0.4755  2.8536  0.3032
  137OSM   C18F14900   2.222   3.234   3.399  0.1316  0.0959  0.2267
  137OSM   H18F14901   2.327   3.218   3.366 -0.3882  0.0619 -1.5129
  137OSM   H18G14902   2.207   3.344   3.411 -0.2152 -0.0898  1.6612
  137OSM   H18H14903   2.157   3.204   3.315 -0.4877 -1.4871  1.2290
  138OSM      N14904   0.729   2.879   2.314  0.3714 -0.0130  1.0060
  138OSM    C1514905   0.872   2.844   2.338  0.1610  0.0948  0.7927
  138OSM   H15A14906   0.918   2.899   2.418 -2.0488  2.4394  0.5816
  138OSM   H15B14907   0.931   2.864   2.250 -0.4651  0.7978  0.5224
  138OSM   H15C14908   0.877   2.737   2.352  0.8317 -0.0541 -0.4477
  138OSM    C1414909   0.723   3.025   2.275 -0.0725 -0.0680  0.1095
  138OSM   H14A14910   0.765   3.044   2.178 -0.9085 -0.3710 -0.3216
  138OSM   H14B14911   0.751   3.090   2.357  0.2809  2.2302 -1.7109
  138OSM   H14C14912   0.618   3.045   2.260 -0.4993 -2.8226 -1.0358
  138OSM    C1314913   0.669   2.798   2.195  0.5131 -0.5327  0.3238
  138OSM   H13A14914   0.574   2.842   2.171  1.4768  1.6489  0.2361
  138OSM   H13B14915   0.665   2.695   2.227  0.0156  0.4470  3.7771
  138OSM   H13C14916   0.721   2.814   2.101 -2.5399  0.5142 -1.3125
  138OSM    C1214917   0.656   2.840   2.438  0.3448  0.4500  0.3177
  138OSM   H12A14918   0.696   2.744   2.467 -0.5792 -0.8152 -2.2714
  138OSM   H12B14919   0.554   2.829   2.403  0.9099  0.4255 -1.4381
  138OSM    C1114920   0.666   2.933   2.562 -0.3984  0.5040 -0.2101
  138OSM   H11A14921   0.605   2.898   2.648  1.7688 -0.3367  1.0681
  138OSM   H11B14922   0.610   3.022   2.527  0.8833  1.7577  0.8089
  138OSM      P14923   0.862   3.095   2.608 -0.1467  0.3225 -0.3252
  138OSM    O1314924   1.005   3.083   2.573 -0.4981  0.5113  0.1403
  138OSM    O1414925   0.783   3.188   2.525  0.2037  0.0242  0.0181
  138OSM    O1114926   0.848   3.142   2.761  0.3132  0.0411 -0.3717
  138OSM    O1214927   0.798   2.950   2.603  0.4661  0.4862 -1.0961
  138OSM    C1S14928   0.845   3.048   2.869 -0.7703  0.4788 -0.2562
  138OSM    H1S14929   0.920   2.969   2.851  1.3159  2.3775 -0.3222
  138OSM    H1T14930   0.744   3.002   2.884 -1.4419  2.1850  0.7405
  138OSM     NF14931   0.932   3.024   3.093  0.3006 -0.5339  0.3237
  138OSM    HNF14932   0.856   2.971   3.129 -0.5693  0.1934 -0.3621
  138OSM    C2S14933   0.888   3.121   2.995  0.5402  0.2807  1.1356
  138OSM    H2S14934   0.976   3.181   2.963  0.8213 -0.9581 -0.5753
  138OSM    C3S14935   0.783   3.220   3.038  0.0608 -1.0995 -0.9539
  138OSM    H3S14936   0.696   3.163   3.078  0.0622 -0.0095  0.7057
  138OSM     O314937   0.733   3.301   2.935  0.3380  0.3438 -0.5174
  138OSM    HO314938   0.747   3.246   2.858  0.9865 -1.7889  1.0503
  138OSM    C4S14939   0.838   3.313   3.146 -0.1803  0.1094  0.0612
  138OSM    H4S14940   0.877   3.404   3.098 -0.2757 -0.1383 -0.4924
  138OSM    C5S14941   0.864   3.285   3.276 -0.0659  0.0905 -0.6286
  138OSM    H5S14942   0.850   3.186   3.321 -0.5143  1.0081  1.4045
  138OSM    C6S14943   0.928   3.382   3.374  0.2122 -0.1530 -0.3075
  138OSM    H6S14944   0.996   3.313   3.428  1.3652 -0.2854 -1.8580
  138OSM    H6T14945   0.851   3.430   3.438 -1.0330 -2.7527  0.2703
  138OSM    C7S14946   1.007   3.499   3.312 -0.1241 -0.1877 -0.0304
  138OSM    H7S14947   0.949   3.557   3.238 -2.2537  0.4162  1.9990
  138OSM    H7T14948   1.093   3.460   3.253 -0.9682  0.4320 -1.7462
  138OSM    C8S14949   1.074   3.594   3.414 -0.0720 -0.3739 -0.2864
  138OSM    H8S14950   0.995   3.652   3.466  0.5618  2.0013 -1.7833
  138OSM    H8T14951   1.134   3.668   3.356  0.1285 -0.0600  0.3191
  138OSM    C9S14952   1.168   3.535   3.521  0.0340  0.4744 -0.1156
  138OSM    H9S14953   1.265   3.504   3.478 -0.6168 -2.4465  0.3061
  138OSM    H9T14954   1.113   3.462   3.584  1.0327  2.0693  2.7872
  138OSM   C10S14955   1.203   3.646   3.623  0.2310  0.6720  0.0672
  138OSM   H10S14956   1.111   3.681   3.675  0.7659  2.2068  0.0018
  138OSM   H10T14957   1.238   3.735   3.568  0.6418  1.1450  1.0674
  138OSM   C11S14958   1.304   3.615   3.730 -0.2399  0.1659  0.0957
  138OSM   H11S14959   1.329   3.709   3.783 -2.0777  0.4947  0.4214
  138OSM   H11T14960   1.396   3.588   3.673 -0.1712  0.3624  0.1139
  138OSM   C12S14961   1.271   3.497   3.824  0.6712  0.8983 -0.0513
  138OSM   H12S14962   1.221   3.408   3.779 -0.2566  0.1775  2.2360
  138OSM   H12T14963   1.198   3.537   3.898 -1.1152 -0.1493 -1.1799
  138OSM   C13S14964   1.396   3.460   3.915  0.5120 -0.1674  0.9265
  138OSM   H13S14965   1.434   3.551   3.964  1.2098  0.3645 -0.5691
  138OSM   H13T14966   1.477   3.432   3.845  0.6888 -0.8227  1.3843
  138OSM   C14S14967   1.382   3.335   4.007 -0.6071  0.1840 -0.2596
  138OSM   H14S14968   1.479   3.302   4.049 -0.8046 -0.7129 -0.4952
  138OSM   H14T14969   1.353   3.243   3.953  1.2444 -0.0639 -0.9101
  138OSM   C15S14970   1.305   3.361   4.146 -0.1264  0.3563  0.4376
  138OSM   H15S14971   1.199   3.373   4.117 -0.1182 -1.6308 -0.6094
  138OSM   H15T14972   1.341   3.460   4.180 -0.6367  1.6800 -2.5480
  138OSM   C16S14973   1.314   3.253   4.260  0.4966  0.0359 -0.0668
  138OSM   H16S14974   1.281   3.152   4.228  0.2494  0.3785 -0.9143
  138OSM   H16T14975   1.266   3.286   4.355  1.1326 -0.6661  0.5202
  138OSM   C17S14976   1.464   3.218   4.295  0.7509 -0.0363  0.7907
  138OSM   H17S14977   1.528   3.304   4.323  0.1601  1.4555 -2.0599
  138OSM   H17T14978   1.517   3.178   4.206  0.3286 -0.9839  0.9509
  138OSM   C18S14979   1.466   3.107   4.402 -0.6404 -0.3138  0.0604
  138OSM   H18S14980   1.409   3.156   4.483 -1.0244 -0.5266 -0.0792
  138OSM   H18T14981   1.572   3.093   4.433 -0.2026 -0.3653 -1.3800
  138OSM   H18U14982   1.415   3.017   4.361 -0.2161 -0.8342  0.6670
  138OSM    C1F14983   1.058   2.978   3.087 -0.1205  0.2650  0.6145
  138OSM     OF14984   1.141   3.023   3.008  0.6714  0.2816 -0.1951
  138OSM    C2F14985   1.093   2.863   3.170  0.1091  0.2786 -0.9385
  138OSM    H2F14986   1.138   2.784   3.106  0.9846  0.0002 -0.0135
  138OSM    H2G14987   1.000   2.821   3.216  0.9564 -0.3368  0.2635
  138OSM    C3F14988   1.192   2.901   3.284 -0.2485  0.3898  0.1400
  138OSM    H3F14989   1.284   2.947   3.242  0.0080  0.6423  0.9626
  138OSM    H3G14990   1.225   2.810   3.340  0.9860  1.2931  0.9334
  138OSM    C4F14991   1.139   2.997   3.385 -0.2355 -0.1987  0.4002
  138OSM    H4F14992   1.042   2.957   3.424 -0.9934 -0.0864 -1.2705
  138OSM    H4G14993   1.112   3.096   3.343 -2.3460 -0.5270  0.8305
  138OSM    C5F14994   1.235   2.997   3.510  0.4527 -0.5736  0.0751
  138OSM    H5F14995   1.325   3.048   3.471 -1.1784  0.4851 -2.6304
  138OSM    H5G14996   1.267   2.894   3.536  1.2322 -0.7600 -1.4974
  138OSM    C6F14997   1.182   3.079   3.632  0.5203  0.0595 -0.2082
  138OSM    H6F14998   1.082   3.046   3.669 -0.3817  0.1092 -2.4411
  138OSM    H6G14999   1.175   3.182   3.591 -2.4742 -1.1551 -3.1922
  138OSM    C7F15000   1.268   3.074   3.756 -0.5955  0.1334 -0.2574
  138OSM    H7F15001   1.230   3.160   3.815  0.0344 -0.2224  0.6934
  138OSM    H7G15002   1.378   3.064   3.744 -0.3627 -1.5520  2.4794
  138OSM    C8F15003   1.253   2.948   3.847 -0.8361  0.8909 -1.2756
  138OSM    H8F15004   1.297   2.863   3.790  1.9792  1.0220  0.5051
  138OSM    H8G15005   1.148   2.920   3.867 -0.2158 -1.6740 -1.2555
  138OSM    C9F15006   1.310   2.960   3.984  0.5053 -0.4466  0.2874
  138OSM    H9F15007   1.273   3.047   4.039  0.3000 -0.8564  0.8015
  138OSM   C10F15008   1.397   2.873   4.039 -0.3463 -0.7405 -0.2194
  138OSM   H10F15009   1.436   2.890   4.140 -0.3829 -1.0901 -0.1471
  138OSM   C11F15010   1.464   2.748   3.979  0.2150 -0.1830  0.1967
  138OSM   H11F15011   1.564   2.777   3.938 -0.6861  0.5169 -1.6134
  138OSM   H11G15012   1.412   2.707   3.890  1.6315  0.2246 -0.8678
  138OSM   C12F15013   1.486   2.629   4.071  0.0076 -0.2442  0.3620
  138OSM   H12F15014   1.541   2.550   4.016 -1.6261 -1.9155  1.0276
  138OSM   H12G15015   1.385   2.582   4.073 -0.3961  0.6107  0.8748
  138OSM   C13F15016   1.554   2.657   4.200  0.0467 -0.2606 -0.8725
  138OSM   H13F15017   1.492   2.730   4.258  1.7995  0.2062  0.5075
  138OSM   H13G15018   1.655   2.702   4.182 -0.0616 -0.7479 -2.9881
  138OSM   C14F15019   1.582   2.542   4.285 -0.2316  0.3483  0.2857
  138OSM   H14F15020   1.653   2.467   4.244 -0.8116 -0.1417  0.1601
  138OSM   H14G15021   1.491   2.483   4.310 -0.2352  0.0578 -0.3689
  138OSM   C15F15022   1.648   2.580   4.421 -0.3385 -0.2114 -0.4868
  138OSM   H15F15023   1.574   2.621   4.493  0.1856 -0.1392  0.0100
  138OSM   H15G15024   1.719   2.663   4.399 -1.3776  0.3937 -1.8033
  138OSM   C16F15025   1.733   2.472   4.491 -0.0569 -0.1544 -0.1889
  138OSM   H16F15026   1.792   2.507   4.579  1.2502 -0.7990 -0.7806
  138OSM   H16G15027   1.801   2.425   4.416  0.0880 -0.1811 -0.0412
  138OSM   C17F15028   1.653   2.348   4.541  0.3638 -0.8289  0.2242
  138OSM   H17F15029   1.727   2.267   4.560  0.9485 -0.7257 -1.4860
  138OSM   H17G15030   1.583   2.329   4.457 -1.1517  0.9396  1.0170
  138OSM   C18F15031   1.572   2.368   4.666 -0.4289 -0.0224 -0.0970
  138OSM   H18F15032   1.639   2.401   4.748  1.4390 -2.3078 -0.6135
  138OSM   H18G15033   1.521   2.275   4.697 -0.2034 -0.4793 -1.0445
  138OSM   H18H15034   1.493   2.446   4.653 -0.0354  0.5866  1.0464
  139OSM      N15035   2.620   1.136   2.924 -0.0104 -0.1090  0.3016
  139OSM    C1515036   2.647   1.027   3.019  0.4154  0.1971  0.0273
  139OSM   H15A15037   2.679   1.069   3.114  1.0672  0.8775 -0.4775
  139OSM   H15B15038   2.723   0.964   2.975 -1.7901 -1.4104 -1.6401
  139OSM   H15C15039   2.556   0.972   3.036  0.1658  1.0075  1.4845
  139OSM    C1415040   2.521   1.235   2.986 -0.8113  0.0371  0.0979
  139OSM   H14A15041   2.432   1.187   3.022  0.2339 -1.6014  0.6042
  139OSM   H14B15042   2.501   1.323   2.927 -1.2154 -0.5962 -0.7200
  139OSM   H14C15043   2.577   1.272   3.071  0.4550 -1.1756 -0.1787
  139OSM    C1315044   2.747   1.210   2.901 -0.3127 -0.0220 -0.8245
  139OSM   H13A15045   2.789   1.263   2.985 -0.1948  0.0504 -0.9299
  139OSM   H13B15046   2.726   1.285   2.826  1.0500  1.9307  0.6543
  139OSM   H13C15047   2.826   1.151   2.859  0.2423  0.4811 -0.5052
  139OSM    C1215048   2.572   1.099   2.784  0.2102 -0.2262 -0.1623
  139OSM   H12A15049   2.658   1.108   2.720 -0.2819  0.1930 -0.7772
  139OSM   H12B15050   2.513   1.184   2.751 -0.8305 -1.0145 -0.3780
  139OSM    C1115051   2.493   0.972   2.758 -0.3815  0.7508 -0.3602
  139OSM   H11A15052   2.468   0.965   2.650  0.6010  1.2213 -0.6335
  139OSM   H11B15053   2.400   0.976   2.818 -0.5715 -0.9734 -0.4956
  139OSM      P15054   2.506   0.733   2.866 -0.1274  0.3055  0.0346
  139OSM    O1315055   2.405   0.662   2.784 -0.4407  0.2112 -0.1552
  139OSM    O1415056   2.616   0.645   2.914 -0.1710 -0.2948  0.1207
  139OSM    O1115057   2.448   0.799   2.989  0.3270 -0.0461  0.0062
  139OSM    O1215058   2.571   0.853   2.787 -0.6346 -0.2344 -0.0606
  139OSM    C1S15059   2.374   0.723   3.092 -0.1651 -0.4735  0.0122
  139OSM    H1S15060   2.427   0.627   3.108 -2.0308 -1.4117  0.9019
  139OSM    H1T15061   2.272   0.693   3.058 -1.1099  0.7756  1.5997
  139OSM     NF15062   2.314   0.704   3.327  0.0326 -0.1960 -0.3356
  139OSM    HNF15063   2.217   0.682   3.333  0.6535 -3.1619  0.4002
  139OSM    C2S15064   2.364   0.795   3.225 -0.1872  0.5527 -0.4831
  139OSM    H2S15065   2.459   0.845   3.254 -0.5048  0.9605 -0.1387
  139OSM    C3S15066   2.268   0.919   3.195  0.6320 -0.4068 -0.4062
  139OSM    H3S15067   2.173   0.865   3.175  1.2225 -1.4400 -0.5058
  139OSM     O315068   2.300   0.995   3.080 -1.0577 -0.0556  0.3380
  139OSM    HO315069   2.347   0.930   3.028  1.5271 -0.3272  2.7662
  139OSM    C4S15070   2.256   0.998   3.319 -0.5471  0.2997 -0.2872
  139OSM    H4S15071   2.155   1.004   3.362  0.5145  0.3826  2.3828
  139OSM    C5S15072   2.360   1.081   3.357 -0.0423 -0.3949 -0.2379
  139OSM    H5S15073   2.444   1.090   3.287 -0.4957  0.4459 -0.6903
  139OSM    C6S15074   2.358   1.178   3.472  0.2079 -0.3042  0.0283
  139OSM    H6S15075   2.322   1.274   3.429  1.3540 -0.0542 -0.4039
  139OSM    H6T15076   2.455   1.201   3.520 -0.1467  0.7193  0.2683
  139OSM    C7S15077   2.252   1.147   3.587 -0.1209 -0.2508  0.3124
  139OSM    H7S15078   2.269   1.045   3.628  0.9248 -0.8533 -1.5087
  139OSM    H7T15079   2.154   1.147   3.535 -0.3353  0.4987  0.7050
  139OSM    C8S15080   2.237   1.262   3.691  0.3828  0.1592  0.4219
  139OSM    H8S15081   2.138   1.263   3.742  0.4546 -0.6458  0.5923
  139OSM    H8T15082   2.240   1.346   3.618  1.1106 -0.0450  0.2119
  139OSM    C9S15083   2.347   1.270   3.796 -0.3060  0.4510  0.2328
  139OSM    H9S15084   2.335   1.363   3.856  0.4149  1.1045 -0.5995
  139OSM    H9T15085   2.443   1.283   3.741 -0.1749 -2.3872 -0.3425
  139OSM   C10S15086   2.346   1.148   3.887 -0.0969  0.2220 -0.2340
  139OSM   H10S15087   2.358   1.050   3.835 -1.3660 -1.4036  2.3273
  139OSM   H10T15088   2.245   1.163   3.929 -0.9448 -0.0426 -2.0812
  139OSM   C11S15089   2.453   1.157   4.001  0.4216  0.0977 -0.5882
  139OSM   H11S15090   2.449   1.262   4.038  1.7438 -0.5968  1.7397
  139OSM   H11T15091   2.558   1.139   3.969  0.8645  0.4340  0.5917
  139OSM   C12S15092   2.424   1.073   4.123 -0.2583  0.5341 -0.2501
  139OSM   H12S15093   2.437   0.966   4.096  1.2942  0.7733 -0.5317
  139OSM   H12T15094   2.315   1.080   4.140 -0.5084 -2.2510 -0.2471
  139OSM   C13S15095   2.496   1.120   4.247  0.2549  0.0363 -0.2360
  139OSM   H13S15096   2.482   1.230   4.251  1.8359  0.2996 -1.2845
  139OSM   H13T15097   2.605   1.101   4.244  0.2138 -0.2103 -0.1855
  139OSM   C14S15098   2.444   1.052   4.373 -0.8494 -0.1630  0.0837
  139OSM   H14S15099   2.478   0.948   4.354 -1.7484 -0.0570 -2.5191
  139OSM   H14T15100   2.333   1.061   4.363 -0.7957 -0.0682 -0.4739
  139OSM   C15S15101   2.489   1.113   4.508 -0.1897  0.1597  0.0404
  139OSM   H15S15102   2.455   1.215   4.536  1.9952  0.5896  1.3830
  139OSM   H15T15103   2.599   1.115   4.498  0.1517 -3.4621  1.7006
  139OSM   C16S15104   2.463   1.020   4.624  0.1716  1.0336 -0.0998
  139OSM   H16S15105   2.521   0.926   4.610 -0.5714  0.4102  0.8527
  139OSM   H16T15106   2.361   0.983   4.644  1.1818 -0.8218  1.9782
  139OSM   C17S15107   2.517   1.059   4.759  0.6866  0.6438  0.5538
  139OSM   H17S15108   2.462   1.143   4.807  0.8679 -0.6311  3.1354
  139OSM   H17T15109   2.625   1.084   4.749  0.1517  2.5381 -1.3630
  139OSM   C18S15110   2.509   0.953   4.873  0.1288  0.2096 -0.3617
  139OSM   H18S15111   2.549   0.853   4.844  3.0207  1.0547  0.3990
  139OSM   H18T15112   2.400   0.937   4.888  0.1213 -0.0077 -0.6347
  139OSM   H18U15113   2.556   0.995   4.965 -1.2678 -1.1474  1.0527
  139OSM    C1F15114   2.393   0.616   3.389 -0.2138 -0.4926 -0.3854
  139OSM     OF15115   2.509   0.590   3.356 -0.1881 -0.0088  0.1676
  139OSM    C2F15116   2.327   0.526   3.485  0.0480  0.4405 -0.1795
  139OSM    H2F15117   2.296   0.432   3.435  0.4496 -0.2258  0.7890
  139OSM    H2G15118   2.242   0.588   3.521  0.3175  2.1651 -2.2800
  139OSM    C3F15119   2.421   0.496   3.604 -1.0841 -0.3279  0.3972
  139OSM    H3F15120   2.455   0.595   3.640 -0.8944  1.3241 -3.7821
  139OSM    H3G15121   2.510   0.446   3.559 -0.3732  2.2239 -1.2346
  139OSM    C4F15122   2.355   0.408   3.709  0.0788 -0.0130 -0.1747
  139OSM    H4F15123   2.329   0.310   3.662  0.5508  0.2903 -1.0907
  139OSM    H4G15124   2.262   0.459   3.744 -0.4919 -1.1690  0.0478
  139OSM    C5F15125   2.461   0.387   3.828  0.7242  0.0757  0.6546
  139OSM    H5F15126   2.509   0.484   3.854  0.0737 -0.0089  2.3654
  139OSM    H5G15127   2.540   0.318   3.792  1.0040 -0.0158  1.4077
  139OSM    C6F15128   2.395   0.318   3.947  0.2746 -0.1739  0.3185
  139OSM    H6F15129   2.353   0.223   3.907 -0.2770  0.6381 -1.1326
  139OSM    H6G15130   2.317   0.390   3.980  1.9115  1.5151  0.6047
  139OSM    C7F15131   2.497   0.291   4.062  0.5209  0.0255 -0.2525
  139OSM    H7F15132   2.545   0.390   4.076  1.8482 -0.6247 -0.0437
  139OSM    H7G15133   2.576   0.218   4.034  0.6454 -0.2073  0.6477
  139OSM    C8F15134   2.431   0.235   4.193 -0.2118  0.4465  0.4558
  139OSM    H8F15135   2.380   0.328   4.227  0.1141  0.5908  0.5519
  139OSM    H8G15136   2.518   0.205   4.255 -0.0468 -0.0799 -0.0211
  139OSM    C9F15137   2.342   0.122   4.168  0.0627  0.8061 -0.3414
  139OSM    H9F15138   2.389   0.040   4.113 -0.4496 -1.2127  2.0221
  139OSM   C10F15139   2.215   0.103   4.205 -0.1336 -0.1247 -1.0193
  139OSM   H10F15140   2.164   0.011   4.174 -2.8628  1.2310 -0.8730
  139OSM   C11F15141   2.132   0.191   4.292 -0.5672 -0.4092 -0.3272
  139OSM   H11F15142   2.046   0.220   4.228  0.5199 -0.5881 -1.9178
  139OSM   H11G15143   2.194   0.281   4.310 -0.0735 -1.0608  1.3819
  139OSM   C12F15144   2.099   0.126   4.431 -0.1251 -0.4068  0.1681
  139OSM   H12F15145   2.040   0.033   4.418  0.0749 -0.2994 -1.7420
  139OSM   H12G15146   2.027   0.200   4.472 -0.6150 -2.0357  2.4331
  139OSM   C13F15147   2.223   0.090   4.516  0.9253 -0.3979 -0.2877
  139OSM   H13F15148   2.298   0.046   4.447  3.0205  1.2830  0.7853
  139OSM   H13G15149   2.203   0.027   4.605  1.2055  0.8338  0.6780
  139OSM   C14F15150   2.293   0.211   4.569 -0.2816 -1.0703  0.1801
  139OSM   H14F15151   2.234   0.266   4.644  2.3718 -1.0253  2.3894
  139OSM   H14G15152   2.321   0.292   4.498 -0.4397  1.3681  2.7327
  139OSM   C15F15153   2.423   0.179   4.640  0.1156  0.2398 -0.7885
  139OSM   H15F15154   2.475   0.096   4.587 -0.0754 -0.1252 -0.4127
  139OSM   H15G15155   2.393   0.135   4.738  1.0470  1.4633  0.0848
  139OSM   C16F15156   2.512   0.302   4.666  0.2994  0.1268  0.1039
  139OSM   H16F15157   2.548   0.347   4.571  1.3883 -0.5756  0.1670
  139OSM   H16G15158   2.603   0.258   4.712  0.7567 -1.3602 -2.1082
  139OSM   C17F15159   2.444   0.405   4.756 -0.0307  0.5146  0.3334
  139OSM   H17F15160   2.432   0.373   4.861  0.3350 -0.3664  0.1159
  139OSM   H17G15161   2.342   0.417   4.713 -0.0741  0.0383  0.2974
  139OSM   C18F15162   2.520   0.539   4.765 -0.3837  0.2652 -0.1220
  139OSM   H18F15163   2.446   0.609   4.810 -1.9390  0.1373 -2.3566
  139OSM   H18G15164   2.538   0.571   4.661 -2.2699 -1.6002 -1.1003
  139OSM   H18H15165   2.613   0.532   4.826 -0.9266  2.6411  1.1275
  140OSM      N15166   0.241   4.330   2.447  0.3694 -0.1785 -0.3023
  140OSM    C1515167   0.251   4.433   2.336 -0.0313  0.0047  0.2858
  140OSM   H15A15168   0.208   4.397   2.243 -0.9974  3.6343 -0.8362
  140OSM   H15B15169   0.350   4.471   2.319 -0.6838  1.6510 -0.0576
  140OSM   H15C15170   0.190   4.519   2.358  0.4205 -0.1880  2.5418
  140OSM    C1415171   0.318   4.384   2.564 -0.3722 -0.1501  0.2835
  140OSM   H14A15172   0.257   4.457   2.615  1.6197  1.5740  0.3429
  140OSM   H14B15173   0.409   4.433   2.532 -2.0481  2.5373 -0.6169
  140OSM   H14C15174   0.335   4.301   2.631  0.0528 -1.5307 -1.4522
  140OSM    C1315175   0.098   4.308   2.476 -0.2338 -0.0283 -0.7004
  140OSM   H13A15176   0.057   4.401   2.512  1.7406  0.4488  0.5096
  140OSM   H13B15177   0.084   4.232   2.551 -0.2099  2.0576  1.5538
  140OSM   H13C15178   0.043   4.276   2.389 -0.5673  0.4476 -0.6679
  140OSM    C1215179   0.312   4.197   2.414 -0.5348  0.3526 -0.2939
  140OSM   H12A15180   0.415   4.217   2.385 -0.4545 -0.3664 -0.5531
  140OSM   H12B15181   0.270   4.154   2.324  3.1736 -1.8759 -1.2030
  140OSM    C1115182   0.304   4.093   2.526 -0.0210  0.4718 -0.1288
  140OSM   H11A15183   0.353   4.129   2.619 -0.1517  1.7409 -0.5322
  140OSM   H11B15184   0.352   3.996   2.500 -2.1182 -0.2139 -1.7965
  140OSM      P15185   0.102   3.949   2.638  0.5111  0.0185 -0.0427
  140OSM    O1315186  -0.039   3.988   2.641  0.4387  0.5767  0.4922
  140OSM    O1415187   0.125   3.810   2.612 -0.2513  0.0383 -0.2522
  140OSM    O1115188   0.167   3.997   2.777 -0.1403  0.3066 -0.0498
  140OSM    O1215189   0.169   4.048   2.538  0.2156 -0.6664 -0.2902
  140OSM    C1S15190   0.099   3.985   2.904 -0.1041  0.4580  0.1605
  140OSM    H1S15191   0.060   3.881   2.905  2.8864 -0.7881 -0.3741
  140OSM    H1T15192   0.010   4.050   2.902 -1.8316 -1.7465  1.2425
  140OSM     NF15193   0.125   3.977   3.160  0.4438  0.0428  0.0721
  140OSM    HNF15194   0.073   4.055   3.195  0.3676 -0.1321  0.3543
  140OSM    C2S15195   0.195   4.004   3.034  0.0451  0.5230  0.9146
  140OSM    H2S15196   0.278   3.930   3.030 -0.5232 -0.0657 -1.1592
  140OSM    C3S15197   0.272   4.147   3.017  0.5487 -0.1122 -0.5283
  140OSM    H3S15198   0.194   4.224   3.035 -0.4564 -0.8656 -1.4655
  140OSM     O315199   0.323   4.168   2.886  0.0279  0.9704  0.0201
  140OSM    HO315200   0.287   4.106   2.822 -0.0177 -1.0205  1.8868
  140OSM    C4S15201   0.371   4.174   3.129 -0.2786 -0.2357 -0.3049
  140OSM    H4S15202   0.328   4.202   3.227 -0.9372 -0.1192 -0.6183
  140OSM    C5S15203   0.508   4.168   3.129 -0.1283  0.1450 -0.5114
  140OSM    H5S15204   0.564   4.138   3.039  2.0967 -0.2186  0.9041
  140OSM    C6S15205   0.602   4.185   3.253  0.4781  0.0990  0.1048
  140OSM    H6S15206   0.655   4.282   3.253  2.0302 -0.7191 -0.6089
  140OSM    H6T15207   0.670   4.097   3.258  1.2062  0.6467 -0.0900
  140OSM    C7S15208   0.522   4.180   3.381 -0.1420 -0.1232 -0.5664
  140OSM    H7S15209   0.461   4.088   3.379 -1.1651  0.5493 -2.4201
  140OSM    H7T15210   0.462   4.274   3.390  0.5881  0.3676 -0.7651
  140OSM    C8S15211   0.600   4.167   3.519  0.9462 -0.6044 -0.1388
  140OSM    H8S15212   0.677   4.246   3.533 -0.1864  0.3124  1.2412
  140OSM    H8T15213   0.654   4.071   3.533 -0.1788 -1.0539  1.4071
  140OSM    C9S15214   0.506   4.187   3.644 -0.2116  0.9024  1.0033
  140OSM    H9S15215   0.451   4.096   3.675  2.2361  0.3383  4.0899
  140OSM    H9T15216   0.432   4.264   3.613 -0.6095  1.0183  2.1929
  140OSM   C10S15217   0.581   4.235   3.770  0.2779  0.0647 -0.7862
  140OSM   H10S15218   0.631   4.332   3.750 -1.0662  0.5278 -2.0616
  140OSM   H10T15219   0.664   4.161   3.783  1.5770  1.6803  0.5787
  140OSM   C11S15220   0.485   4.240   3.890 -0.6880  0.9208 -0.0442
  140OSM   H11S15221   0.446   4.137   3.904  1.1056  0.2251  0.1110
  140OSM   H11T15222   0.398   4.305   3.867 -1.2351  0.9162  1.8718
  140OSM   C12S15223   0.567   4.281   4.009 -0.0086  0.2536  0.2195
  140OSM   H12S15224   0.591   4.388   3.993  1.3311  0.0466  0.6863
  140OSM   H12T15225   0.662   4.225   4.023 -0.2007  0.2305  1.5320
  140OSM   C13S15226   0.492   4.270   4.146  0.4823 -0.1888 -0.0759
  140OSM   H13S15227   0.472   4.163   4.170 -0.3939 -0.0570 -0.2170
  140OSM   H13T15228   0.399   4.329   4.135  0.4274  0.0423  1.3883
  140OSM   C14S15229   0.570   4.334   4.267  0.0452 -0.2650 -0.4632
  140OSM   H14S15230   0.608   4.437   4.246 -0.3688 -0.1364 -0.5816
  140OSM   H14T15231   0.657   4.269   4.293 -1.2659 -1.1294  2.1081
  140OSM   C15S15232   0.480   4.348   4.392  0.0299  0.3128  0.4268
  140OSM   H15S15233   0.428   4.250   4.403 -1.0965  0.9240  0.6666
  140OSM   H15T15234   0.397   4.420   4.375 -1.1144 -0.7679  1.2546
  140OSM   C16S15235   0.560   4.386   4.516 -0.1165  0.2101  0.2804
  140OSM   H16S15236   0.607   4.486   4.507 -1.5876  0.8987 -0.0883
  140OSM   H16T15237   0.634   4.307   4.541 -1.8352 -0.7378  2.8641
  140OSM   C17S15238   0.461   4.392   4.638 -0.2209 -0.6736 -0.1349
  140OSM   H17S15239   0.390   4.476   4.621  2.2993  1.7321  0.3783
  140OSM   H17T15240   0.520   4.434   4.722  1.3069  1.3798 -2.0970
  140OSM   C18S15241   0.395   4.267   4.669  0.1532 -0.0646 -0.4793
  140OSM   H18S15242   0.335   4.223   4.586  2.1929  0.0809 -2.1382
  140OSM   H18T15243   0.331   4.263   4.759  0.4434  1.1706 -0.1994
  140OSM   H18U15244   0.476   4.197   4.700 -0.5326 -0.5823  0.1708
  140OSM    C1F15245   0.083   3.853   3.190  0.0422  0.1571  0.5058
  140OSM     OF15246   0.146   3.761   3.142 -0.1041 -0.1594  0.0378
  140OSM    C2F15247  -0.034   3.835   3.287 -0.3106 -0.0516 -0.6997
  140OSM    H2F15248  -0.115   3.889   3.234 -0.5969  1.2184  0.9584
  140OSM    H2G15249  -0.014   3.874   3.389 -1.7642  0.3292 -0.5474
  140OSM    C3F15250  -0.069   3.678   3.295 -0.2696  0.5370 -0.4185
  140OSM    H3F15251  -0.051   3.633   3.195 -0.5455  0.6107 -0.5035
  140OSM    H3G15252  -0.176   3.653   3.311  0.6356 -2.9343  1.1954
  140OSM    C4F15253  -0.001   3.615   3.418  0.3271  0.3911  0.5223
  140OSM    H4F15254  -0.067   3.627   3.506  1.0683  0.4604  1.0772
  140OSM    H4G15255   0.094   3.672   3.427  0.2736  0.3667  1.3216
  140OSM    C5F15256   0.040   3.469   3.389 -0.0411  0.3545  0.1139
  140OSM    H5F15257   0.131   3.439   3.446 -1.7193 -1.4603  2.0070
  140OSM    H5G15258   0.061   3.473   3.280 -0.2388  0.5920  0.0826
  140OSM    C6F15259  -0.067   3.367   3.420  0.7249  0.2183 -0.0011
  140OSM    H6F15260  -0.168   3.394   3.384  0.4941  0.6536  0.9507
  140OSM    H6G15261  -0.080   3.358   3.530  1.1254  0.5419  0.0777
  140OSM    C7F15262  -0.035   3.229   3.375 -0.3538  0.6579 -0.0832
  140OSM    H7F15263   0.001   3.225   3.269 -0.3823 -1.8099 -0.0568
  140OSM    H7G15264  -0.122   3.162   3.386 -0.5042  0.8811  0.1035
  140OSM    C8F15265   0.087   3.162   3.451  0.3073  0.4328  0.1359
  140OSM    H8F15266   0.171   3.230   3.478  0.4773 -0.5238  2.2270
  140OSM    H8G15267   0.122   3.080   3.384  0.1228  1.1742 -0.8961
  140OSM    C9F15268   0.037   3.107   3.580 -0.1780  0.5485  0.2119
  140OSM    H9F15269  -0.064   3.065   3.574 -0.2152  0.5062  1.0057
  140OSM   C10F15270   0.095   3.102   3.702  0.3271 -0.0954  0.1964
  140OSM   H10F15271   0.032   3.069   3.787  0.2295 -0.6560 -0.0928
  140OSM   C11F15272   0.229   3.164   3.739  0.3594  0.0789 -0.0971
  140OSM   H11F15273   0.301   3.167   3.654  1.8993  0.2364  1.1639
  140OSM   H11G15274   0.281   3.098   3.812  0.1352  0.3813  0.3439
  140OSM   C12F15275   0.214   3.307   3.789 -0.1776 -0.9524 -0.3205
  140OSM   H12F15276   0.149   3.371   3.726  1.8781  1.0426 -0.5355
  140OSM   H12G15277   0.310   3.362   3.794 -0.9589  0.4153  0.3574
  140OSM   C13F15278   0.137   3.311   3.925 -0.8709  0.2338 -1.0052
  140OSM   H13F15279   0.033   3.276   3.913 -1.3782  0.9960  0.7723
  140OSM   H13G15280   0.126   3.420   3.948 -1.1867  0.1971 -0.9835
  140OSM   C14F15281   0.196   3.224   4.032  0.0655  0.2123  0.0939
  140OSM   H14F15282   0.208   3.118   3.999 -0.4314  0.2750 -0.2917
  140OSM   H14G15283   0.136   3.214   4.126  0.3113 -0.2677  0.2035
  140OSM   C15F15284   0.349   3.259   4.071  0.2325 -0.6745 -0.1111
  140OSM   H15F15285   0.351   3.357   4.123  0.6713 -0.6628 -0.1523
  140OSM   H15G15286   0.411   3.261   3.980  0.3646 -0.6550 -0.0211
  140OSM   C16F15287   0.410   3.143   4.154  0.9028 -0.4311  0.0248
  140OSM   H16F15288   0.420   3.052   4.091  1.1261 -0.6737  0.4093
  140OSM   H16G15289   0.344   3.118   4.239 -0.5869  2.5811 -0.0971
  140OSM   C17F15290   0.545   3.189   4.214  0.1431  0.5934 -0.0713
  140OSM   H17F15291   0.519   3.266   4.290  1.3018  0.9317  0.0102
  140OSM   H17G15292   0.618   3.216   4.135 -0.1492  0.4244 -0.4007
  140OSM   C18F15293   0.608   3.071   4.283  0.5379 -0.0367 -0.4373
  140OSM   H18F15294   0.539   3.015   4.350  1.2108 -2.3806 -1.6047
  140OSM   H18G15295   0.696   3.102   4.343 -1.0672 -1.7080  3.0892
  140OSM   H18H15296   0.650   2.995   4.213 -1.7459 -0.2830 -1.6166
  141OSM      N15297   2.422   3.161   2.423 -0.0063  0.2320 -0.0268
  141OSM    C1515298   2.527   3.109   2.328  0.3152 -0.4055 -0.0366
  141OSM   H15A15299   2.491   3.021   2.277 -0.9028  0.4171 -0.6416
  141OSM   H15B15300   2.624   3.100   2.375  0.0526 -0.8562  0.4337
  141OSM   H15C15301   2.539   3.182   2.249 -1.7648 -0.2734 -0.2752
  141OSM    C1415302   2.293   3.198   2.352 -0.1401 -0.4524 -0.1279
  141OSM   H14A15303   2.264   3.117   2.286 -2.9971 -0.4558  1.0350
  141OSM   H14B15304   2.299   3.290   2.296  0.7876 -0.2697  0.2504
  141OSM   H14C15305   2.219   3.212   2.429  0.8849 -0.2791  0.8552
  141OSM    C1315306   2.389   3.045   2.519  0.2768  0.8264  0.2879
  141OSM   H13A15307   2.458   3.046   2.602  1.2864 -3.1008 -0.2847
  141OSM   H13B15308   2.404   2.953   2.465  0.9458  2.0812 -1.7819
  141OSM   H13C15309   2.289   3.052   2.559 -0.4009 -2.1279 -0.6086
  141OSM    C1215310   2.467   3.285   2.500  0.1526 -0.0342  0.5854
  141OSM   H12A15311   2.384   3.329   2.553  1.5788  3.0045  0.5121
  141OSM   H12B15312   2.500   3.357   2.427 -0.3985 -1.0145 -0.6747
  141OSM    C1115313   2.578   3.268   2.611 -0.0432  0.4942  0.7404
  141OSM   H11A15314   2.549   3.188   2.682  0.8062 -0.0627  0.4911
  141OSM   H11B15315   2.592   3.359   2.672 -0.2809  2.1508 -1.5394
  141OSM      P15316   2.810   3.338   2.522 -0.4478  0.3435  0.5664
  141OSM    O1315317   2.932   3.261   2.476  0.5823 -0.0643  0.3811
  141OSM    O1415318   2.755   3.446   2.438 -0.2714 -0.1115 -0.5569
  141OSM    O1115319   2.830   3.395   2.663 -0.1206 -0.0801  0.6596
  141OSM    O1215320   2.694   3.229   2.543 -0.0367  0.1649  0.5477
  141OSM    C1S15321   2.859   3.309   2.771 -0.4658  0.7692 -0.4096
  141OSM    H1S15322   2.926   3.228   2.734 -1.0741  0.5668 -1.0936
  141OSM    H1T15323   2.772   3.253   2.809  0.8011  0.3955  2.1467
  141OSM     NF15324   2.989   3.285   2.989 -0.0447  0.3670  0.4107
  141OSM    HNF15325   2.935   3.242   3.062 -0.1105 -0.2348  0.0161
  141OSM    C2S15326   2.920   3.383   2.894  0.7734 -0.1317 -0.4058
  141OSM    H2S15327   2.992   3.456   2.851  1.1075  1.0546  1.9645
  141OSM    C3S15328   2.811   3.459   2.958 -0.1002  0.6913 -0.0058
  141OSM    H3S15329   2.731   3.386   2.986  1.2292 -0.9771 -0.4135
  141OSM     O315330   2.738   3.547   2.873  0.2549 -0.2312 -0.4508
  141OSM    HO315331   2.758   3.512   2.786 -0.7401 -1.9726 -0.0370
  141OSM    C4S15332   2.874   3.533   3.075  0.8110  0.0796 -0.0543
  141OSM    H4S15333   2.940   3.619   3.057  0.1662  0.4773 -0.5958
  141OSM    C5S15334   2.865   3.493   3.200 -0.2247 -0.1998  0.6736
  141OSM    H5S15335   2.816   3.397   3.225  0.9929 -0.8007  0.8638
  141OSM    C6S15336   2.937   3.570   3.310 -0.0611  0.1282  0.1199
  141OSM    H6S15337   2.900   3.675   3.310  1.2427  0.6116 -0.0719
  141OSM    H6T15338   3.045   3.575   3.285 -0.2429 -0.9478 -0.9634
  141OSM    C7S15339   2.923   3.503   3.454 -0.3726  0.5539 -0.3230
  141OSM    H7S15340   2.816   3.503   3.485 -0.4726  0.3516 -0.6659
  141OSM    H7T15341   2.971   3.571   3.527  1.6101 -1.8298  0.7424
  141OSM    C8S15342   2.978   3.364   3.467 -0.1873  0.3707 -0.1637
  141OSM    H8S15343   3.086   3.360   3.445 -0.2113 -2.2633 -0.1930
  141OSM    H8T15344   2.925   3.302   3.392  0.0174 -0.5368  0.4166
  141OSM    C9S15345   2.948   3.303   3.613 -0.0551  1.0103 -0.0324
  141OSM    H9S15346   2.958   3.193   3.624 -1.8658  0.8601  0.3145
  141OSM    H9T15347   2.850   3.337   3.652 -1.8418 -1.4111 -2.0886
  141OSM   C10S15348   3.052   3.353   3.711 -0.3520 -0.1515 -0.8983
  141OSM   H10S15349   3.061   3.463   3.715 -1.2590 -0.1026  1.2460
  141OSM   H10T15350   3.152   3.312   3.684  0.3105  1.3633 -0.8111
  141OSM   C11S15351   3.022   3.304   3.854  0.7850  1.0882  0.0444
  141OSM   H11S15352   2.924   3.345   3.888  0.3407  1.5156 -1.6844
  141OSM   H11T15353   3.107   3.346   3.911  0.1394  3.0765 -0.4009
  141OSM   C12S15354   3.020   3.148   3.881 -0.0327 -0.3334  0.1426
  141OSM   H12S15355   3.116   3.115   3.837  1.4036  2.0591  1.2645
  141OSM   H12T15356   2.939   3.099   3.823  1.3328  0.6944 -2.7701
  141OSM   C13S15357   3.018   3.107   4.034 -0.5702  0.2543  0.1935
  141OSM   H13S15358   2.966   3.183   4.097  0.0543 -1.7082  3.2656
  141OSM   H13T15359   3.126   3.120   4.059 -0.1815 -0.5813 -1.0063
  141OSM   C14S15360   2.963   2.969   4.063 -0.4198 -0.3661  0.0118
  141OSM   H14S15361   2.854   2.964   4.046 -0.7956 -2.6975  2.4773
  141OSM   H14T15362   2.982   2.949   4.170  0.1043 -0.5051 -0.1009
  141OSM   C15S15363   3.033   2.853   3.977 -0.4214 -0.3771 -0.5010
  141OSM   H15S15364   3.130   2.817   4.018 -1.1182 -1.9277 -0.1087
  141OSM   H15T15365   3.042   2.901   3.877 -0.2116  0.8720  0.1032
  141OSM   C16S15366   2.942   2.729   3.959  0.3036 -0.3913  0.4043
  141OSM   H16S15367   2.834   2.756   3.966  0.4722  0.1961  0.8676
  141OSM   H16T15368   2.967   2.660   4.042 -0.3229 -0.1434  0.8058
  141OSM   C17S15369   2.954   2.658   3.823 -0.2496  0.0896  0.7174
  141OSM   H17S15370   2.905   2.559   3.836  0.2840  0.0347  2.6943
  141OSM   H17T15371   3.059   2.632   3.795 -0.7382  0.2990 -1.4737
  141OSM   C18S15372   2.894   2.743   3.708  0.2424 -0.0805 -0.2081
  141OSM   H18S15373   2.955   2.831   3.679 -1.0491 -0.1837 -3.6227
  141OSM   H18T15374   2.794   2.783   3.738  0.4347 -1.4526  2.6408
  141OSM   H18U15375   2.897   2.679   3.618  0.6593  1.2612 -1.1750
  141OSM    C1F15376   3.108   3.230   2.952  0.0573  0.0015 -0.2457
  141OSM     OF15377   3.161   3.267   2.852 -0.3546 -0.0445  0.0429
  141OSM    C2F15378   3.157   3.122   3.044 -0.2308  0.1215  0.5742
  141OSM    H2F15379   3.257   3.088   3.010 -0.1332  1.8436 -0.9987
  141OSM    H2G15380   3.082   3.042   3.027 -0.7214  1.1636 -3.0897
  141OSM    C3F15381   3.157   3.147   3.196 -0.0601  0.8090  0.1550
  141OSM    H3F15382   3.059   3.170   3.242  0.0003 -1.8885  1.8526
  141OSM    H3G15383   3.215   3.239   3.219 -0.6523  0.8484  1.5692
  141OSM    C4F15384   3.214   3.029   3.271  0.5329  0.0899 -0.4611
  141OSM    H4F15385   3.320   3.029   3.241 -0.0205 -1.0661 -2.6358
  141OSM    H4G15386   3.160   2.942   3.227 -1.3927  1.4210 -0.8664
  141OSM    C5F15387   3.193   3.039   3.420 -0.0925  0.5178  0.0775
  141OSM    H5F15388   3.085   3.020   3.438 -0.4033  3.7032  2.3607
  141OSM    H5G15389   3.184   3.145   3.450 -1.9150  0.2270  0.7293
  141OSM    C6F15390   3.285   2.954   3.506 -0.2687 -0.2141  0.1781
  141OSM    H6F15391   3.391   2.973   3.479 -0.6678  1.5429 -0.2334
  141OSM    H6G15392   3.267   2.850   3.471 -1.3629 -0.8512  2.4514
  141OSM    C7F15393   3.270   2.970   3.660  0.4900 -0.0853  0.1375
  141OSM    H7F15394   3.160   2.959   3.675  0.3479 -0.5148 -1.1429
  141OSM    H7G15395   3.293   3.071   3.701 -1.1689  1.3331 -2.1832
  141OSM    C8F15396   3.327   2.858   3.756 -0.0758  0.1323  0.4567
  141OSM    H8F15397   3.314   2.750   3.735  3.1865 -0.2712  0.0460
  141OSM    H8G15398   3.284   2.868   3.858  1.0396 -2.4165  1.2278
  141OSM    C9F15399   3.475   2.898   3.764  0.2966  1.5113 -0.5869
  141OSM    H9F15400   3.533   2.876   3.674 -0.3120  0.9803 -0.8521
  141OSM   C10F15401   3.551   2.924   3.876  0.4967 -0.1498  0.3814
  141OSM   H10F15402   3.661   2.924   3.871  0.7736 -0.4625  3.9181
  141OSM   C11F15403   3.488   2.964   4.009  0.0859  0.4887  0.2871
  141OSM   H11F15404   3.386   3.007   3.999  0.1521  0.8620  1.0865
  141OSM   H11G15405   3.560   3.037   4.053 -0.1864  0.4427  0.8115
  141OSM   C12F15406   3.481   2.844   4.103  0.0896 -0.3110  0.5772
  141OSM   H12F15407   3.570   2.779   4.116  0.3127 -0.5366 -1.6854
  141OSM   H12G15408   3.405   2.779   4.054 -0.9256  1.7418 -0.7378
  141OSM   C13F15409   3.441   2.892   4.245 -0.7392  0.6125  0.2276
  141OSM   H13F15410   3.434   3.003   4.249  0.5844  0.6870  1.1350
  141OSM   H13G15411   3.516   2.862   4.322  0.5313  0.3696 -1.0542
  141OSM   C14F15412   3.311   2.824   4.292 -0.2433 -0.2389  0.1267
  141OSM   H14F15413   3.321   2.714   4.287 -1.4395 -0.3670  0.2906
  141OSM   H14G15414   3.232   2.842   4.216 -0.8053 -0.9825  0.5247
  141OSM   C15F15415   3.280   2.882   4.430  0.4365 -0.7611  0.1832
  141OSM   H15F15416   3.275   2.993   4.429 -0.4137 -0.7915  0.3366
  141OSM   H15G15417   3.365   2.852   4.496 -0.1507  0.4239  1.5303
  141OSM   C16F15418   3.145   2.826   4.484 -0.4207 -0.2141 -0.2068
  141OSM   H16F15419   3.153   2.715   4.483 -2.6959 -0.4644  1.9804
  141OSM   H16G15420   3.053   2.857   4.429  1.2925  0.3673 -2.9425
  141OSM   C17F15421   3.127   2.879   4.628  0.1650  0.2784 -0.6172
  141OSM   H17F15422   3.110   2.987   4.609  1.3178  0.5491 -0.1681
  141OSM   H17G15423   3.221   2.875   4.686 -0.8968  2.2122  1.3880
  141OSM   C18F15424   3.005   2.808   4.706 -0.1604 -0.6500  0.0509
  141OSM   H18F15425   3.021   2.823   4.814  0.1342 -0.5135 -0.0098
  141OSM   H18G15426   3.003   2.701   4.675  1.6780 -1.4440  2.3822
  141OSM   H18H15427   2.907   2.855   4.682  0.4222 -0.1716 -1.5512
  142OSM      N15428   3.607   3.683   2.531  0.0814 -0.5157  0.3318
  142OSM    C1515429   3.578   3.837   2.523 -0.5005  0.1602  1.0341
  142OSM   H15A15430   3.622   3.896   2.602  0.1905  1.5121 -0.3073
  142OSM   H15B15431   3.471   3.845   2.533 -0.4897 -1.3912  3.1826
  142OSM   H15C15432   3.609   3.866   2.424 -1.2655 -1.6434  0.2154
  142OSM    C1415433   3.538   3.637   2.654  0.4093 -0.3973 -0.3756
  142OSM   H14A15434   3.560   3.689   2.746 -2.6571 -0.3357  0.4184
  142OSM   H14B15435   3.553   3.533   2.677  0.6186 -0.0079  1.3510
  142OSM   H14C15436   3.432   3.650   2.643  0.4187  0.2467  0.2255
  142OSM    C1315437   3.542   3.605   2.430 -0.4343  0.4796 -0.0952
  142OSM   H13A15438   3.563   3.500   2.430 -1.2038  0.3150  0.3350
  142OSM   H13B15439   3.554   3.637   2.327 -1.4123  0.4462 -0.2283
  142OSM   H13C15440   3.434   3.613   2.432 -0.4618  0.3164 -0.8065
  142OSM    C1215441   3.753   3.648   2.532 -0.2562 -0.0499 -0.2298
  142OSM   H12A15442   3.800   3.651   2.435  1.6118  1.2570  0.6477
  142OSM   H12B15443   3.764   3.548   2.572  0.3804  1.1271  2.8165
  142OSM    C1115444   3.843   3.727   2.623  0.6023  0.2299 -0.3271
  142OSM   H11A15445   3.937   3.673   2.644  1.4645  1.6716 -0.3559
  142OSM   H11B15446   3.799   3.727   2.726  1.1204  0.6267 -0.1027
  142OSM      P15447   3.995   3.930   2.586  0.2377 -0.0139 -0.1535
  142OSM    O1315448   4.099   3.831   2.553  0.2688  0.2529 -0.5727
  142OSM    O1415449   3.983   4.054   2.501  0.3306  0.1016  0.6358
  142OSM    O1115450   3.992   3.966   2.736  0.6996 -0.4126  0.6471
  142OSM    O1215451   3.851   3.858   2.578 -1.0152 -0.5665 -0.0100
  142OSM    C1S15452   4.075   4.073   2.777 -0.1167 -0.3871  0.2453
  142OSM    H1S15453   4.071   4.162   2.712  1.3988 -1.3181 -1.1827
  142OSM    H1T15454   4.183   4.049   2.782  0.3518  1.0171 -1.8814
  142OSM     NF15455   4.101   4.256   2.953 -0.5507 -0.1402 -0.3741
  142OSM    HNF15456   4.198   4.248   2.973 -0.7175 -1.4654  0.0201
  142OSM    C2S15457   4.044   4.125   2.926  0.3816  0.1742  0.4459
  142OSM    H2S15458   3.935   4.131   2.946  0.3793  0.2489  0.4092
  142OSM    C3S15459   4.104   4.020   3.029  0.0193  0.1764  0.3875
  142OSM    H3S15460   4.213   4.020   3.010  0.1875  1.7816  1.2011
  142OSM     O315461   4.055   3.884   2.996  0.2659  0.1441  0.0139
  142OSM    HO315462   4.009   3.891   2.912  1.1166 -1.3466 -0.6082
  142OSM    C4S15463   4.078   4.058   3.169 -0.3985 -0.6035 -0.2821
  142OSM    H4S15464   3.971   4.074   3.187 -1.2702 -1.2126 -3.9851
  142OSM    C5S15465   4.164   4.071   3.274 -0.2765 -0.7403  0.2349
  142OSM    H5S15466   4.271   4.045   3.262  0.4773  1.8698  0.7373
  142OSM    C6S15467   4.106   4.120   3.400 -0.2006 -0.1239 -0.4610
  142OSM    H6S15468   4.119   4.045   3.481 -0.4885  0.8632  0.5326
  142OSM    H6T15469   3.998   4.145   3.386  0.0498  0.7974 -0.8284
  142OSM    C7S15470   4.176   4.253   3.441  0.3902 -0.3056  0.6034
  142OSM    H7S15471   4.156   4.340   3.374  0.3061  0.8359  2.0668
  142OSM    H7T15472   4.287   4.248   3.442  0.4788  1.1562  1.1105
  142OSM    C8S15473   4.113   4.303   3.577  0.0466 -0.7215  0.0075
  142OSM    H8S15474   4.003   4.284   3.576 -0.4381  1.0589  3.2944
  142OSM    H8T15475   4.122   4.414   3.575 -1.7433 -0.5104  0.7026
  142OSM    C9S15476   4.177   4.242   3.700  0.3285  0.5803  0.8725
  142OSM    H9S15477   4.286   4.223   3.691  0.4737  1.0983  1.4745
  142OSM    H9T15478   4.133   4.140   3.703  0.9019  0.2428 -1.0632
  142OSM   C10S15479   4.149   4.311   3.826  0.6969 -0.6556 -0.0140
  142OSM   H10S15480   4.041   4.294   3.842 -0.1100  2.1521 -1.7521
  142OSM   H10T15481   4.161   4.421   3.816 -1.0706 -0.5776 -1.7672
  142OSM   C11S15482   4.223   4.262   3.959  0.0293 -0.8068  0.6958
  142OSM   H11S15483   4.332   4.282   3.952 -0.3583  1.3255 -0.1030
  142OSM   H11T15484   4.194   4.157   3.977 -0.4938 -0.7899 -0.0048
  142OSM   C12S15485   4.171   4.347   4.074 -0.1199 -0.3554  0.1041
  142OSM   H12S15486   4.075   4.306   4.111 -0.4372  0.0744 -0.2317
  142OSM   H12T15487   4.163   4.448   4.028 -1.5172 -1.3973 -2.0676
  142OSM   C13S15488   4.266   4.351   4.197 -0.0701  0.8704 -0.1057
  142OSM   H13S15489   4.211   4.402   4.279  0.5463  3.3982 -1.1646
  142OSM   H13T15490   4.340   4.427   4.165 -0.7034  2.0670  1.1370
  142OSM   C14S15491   4.343   4.223   4.241 -0.3258 -0.3934  0.2432
  142OSM   H14S15492   4.395   4.186   4.150 -0.2773 -0.2975  0.2311
  142OSM   H14T15493   4.271   4.141   4.257 -0.0034 -0.3783  1.8796
  142OSM   C15S15494   4.437   4.243   4.364  0.1891  0.3846 -0.5103
  142OSM   H15S15495   4.512   4.322   4.344  1.3347 -0.5658 -0.1114
  142OSM   H15T15496   4.484   4.143   4.379 -1.1709 -0.0926  0.9412
  142OSM   C16S15497   4.378   4.280   4.503  1.3627  0.0963  0.5427
  142OSM   H16S15498   4.302   4.202   4.528  0.8464  0.4492  0.0879
  142OSM   H16T15499   4.320   4.374   4.492  3.2172  1.2592  0.3768
  142OSM   C17S15500   4.467   4.296   4.628 -0.0886 -0.2879 -0.2128
  142OSM   H17S15501   4.553   4.225   4.623  0.9927  0.9710  0.1833
  142OSM   H17T15502   4.407   4.274   4.719 -2.4730 -3.7287 -2.3460
  142OSM   C18S15503   4.518   4.439   4.641 -0.0821  0.5672  0.8013
  142OSM   H18S15504   4.568   4.466   4.546  0.5636 -0.6884  0.7611
  142OSM   H18T15505   4.586   4.443   4.729  0.4754 -1.0401  0.4896
  142OSM   H18U15506   4.436   4.511   4.663 -3.6320 -3.0256  0.5061
  142OSM    C1F15507   4.034   4.362   2.911 -0.1031 -0.2368  0.0837
  142OSM     OF15508   3.922   4.349   2.858 -0.8240  0.4593  0.1165
  142OSM    C2F15509   4.106   4.490   2.916  0.4174  0.5091  0.7168
  142OSM    H2F15510   4.144   4.523   2.817 -0.7730 -0.3839 -0.0601
  142OSM    H2G15511   4.193   4.479   2.984  0.6596  1.3903  0.5613
  142OSM    C3F15512   4.017   4.595   2.976 -0.4019 -0.6820  0.0961
  142OSM    H3F15513   3.923   4.610   2.919 -1.3951  1.8144  2.2126
  142OSM    H3G15514   4.078   4.688   2.966  1.2925 -1.9236 -2.3407
  142OSM    C4F15515   3.975   4.571   3.121  0.4556 -0.5227 -0.2151
  142OSM    H4F15516   3.950   4.466   3.149 -0.2897 -0.0801  0.8104
  142OSM    H4G15517   3.882   4.631   3.126  1.7845  1.5474  2.4951
  142OSM    C5F15518   4.071   4.621   3.227  0.2270 -0.4349  0.3427
  142OSM    H5F15519   4.101   4.721   3.189 -1.5830  0.9386  2.3243
  142OSM    H5G15520   4.164   4.559   3.220  0.3552 -0.2463  0.3691
  142OSM    C6F15521   4.019   4.636   3.375  0.6463  0.0141 -0.4096
  142OSM    H6F15522   3.984   4.536   3.405  0.5334  0.1531 -0.0732
  142OSM    H6G15523   3.934   4.708   3.369  1.5166  0.9922 -1.7795
  142OSM    C7F15524   4.140   4.681   3.465 -0.2159  0.4311 -0.5237
  142OSM    H7F15525   4.188   4.765   3.412 -0.3702 -0.3655 -1.9785
  142OSM    H7G15526   4.220   4.604   3.469  1.0405  1.7290 -0.2480
  142OSM    C8F15527   4.103   4.729   3.602 -0.3184  0.3581 -0.3689
  142OSM    H8F15528   4.075   4.642   3.665  2.7436 -1.4503 -1.2945
  142OSM    H8G15529   4.014   4.794   3.588  0.0281  0.5784 -1.7044
  142OSM    C9F15530   4.225   4.789   3.672  0.6395 -0.5140  0.8850
  142OSM    H9F15531   4.281   4.854   3.603 -2.7429  0.4907 -1.1218
  142OSM   C10F15532   4.268   4.786   3.799  0.3287  0.4148  0.4127
  142OSM   H10F15533   4.364   4.831   3.828 -0.6448  2.7271  0.3158
  142OSM   C11F15534   4.210   4.705   3.910 -0.3886  0.0642 -0.5700
  142OSM   H11F15535   4.285   4.625   3.929 -0.4544 -0.2758 -1.7047
  142OSM   H11G15536   4.117   4.649   3.885 -1.2303  1.7663 -1.4131
  142OSM   C12F15537   4.208   4.782   4.042 -0.2282  0.0963  0.4538
  142OSM   H12F15538   4.131   4.734   4.107  0.2094 -0.8981  0.2469
  142OSM   H12G15539   4.170   4.884   4.018  1.5578  0.9143  0.8817
  142OSM   C13F15540   4.333   4.796   4.122  0.0734  0.7356  0.2803
  142OSM   H13F15541   4.330   4.892   4.178  1.0574  1.1199 -0.2998
  142OSM   H13G15542   4.421   4.797   4.054 -1.0064  2.2581 -1.1536
  142OSM   C14F15543   4.359   4.687   4.228 -0.0790  0.2946 -0.0701
  142OSM   H14F15544   4.434   4.616   4.186 -1.4198  0.5692 -3.2230
  142OSM   H14G15545   4.267   4.625   4.233  1.5023 -2.1640  0.3348
  142OSM   C15F15546   4.411   4.743   4.358  0.1085 -0.2628  0.1691
  142OSM   H15F15547   4.498   4.808   4.334  3.6434 -4.0491  1.4819
  142OSM   H15G15548   4.449   4.663   4.425 -0.2830 -0.7849 -0.2231
  142OSM   C16F15549   4.316   4.828   4.443 -0.2104  0.8362 -0.3398
  142OSM   H16F15550   4.219   4.778   4.467  1.4424 -3.1253 -1.0949
  142OSM   H16G15551   4.290   4.918   4.384  0.6001 -0.2235 -2.4267
  142OSM   C17F15552   4.376   4.857   4.587 -0.2542 -0.3698  0.0141
  142OSM   H17F15553   4.429   4.766   4.622  1.5259 -0.0379 -1.5828
  142OSM   H17G15554   4.298   4.881   4.662 -1.7141 -2.2640 -0.8158
  142OSM   C18F15555   4.472   4.976   4.578  0.0976  0.0090  0.1961
  142OSM   H18F15556   4.561   4.964   4.514 -0.3373 -0.8487 -0.2597
  142OSM   H18G15557   4.504   5.012   4.678 -3.0755 -0.5296  1.5365
  142OSM   H18H15558   4.420   5.067   4.540  0.3751 -0.2751 -0.9021
  143OSM      N15559   2.959   4.550   2.151  0.7088 -0.2144  0.4264
  143OSM    C1515560   2.908   4.411   2.118  0.1231  0.8394 -0.3715
  143OSM   H15A15561   2.977   4.336   2.155 -0.5686 -0.0153 -0.7855
  143OSM   H15B15562   2.910   4.401   2.011  1.0850  2.4486 -0.5532
  143OSM   H15C15563   2.820   4.379   2.171  2.5481 -0.7202  3.1088
  143OSM    C1415564   3.077   4.566   2.063 -0.1538 -0.6719 -0.1074
  143OSM   H14A15565   3.146   4.485   2.078  0.5535  0.2636  2.1661
  143OSM   H14B15566   3.122   4.663   2.078  0.6368 -1.1824  0.9133
  143OSM   H14C15567   3.049   4.561   1.959  3.1592 -0.1790 -1.1369
  143OSM    C1315568   2.853   4.649   2.098 -0.3964 -0.0410 -0.7441
  143OSM   H13A15569   2.812   4.617   2.003  0.2678 -0.0918 -1.0223
  143OSM   H13B15570   2.894   4.749   2.088 -1.2680  0.3433 -0.6403
  143OSM   H13C15571   2.768   4.653   2.164 -0.4419 -0.0961 -0.7998
  143OSM    C1215572   2.983   4.566   2.298  0.0393 -0.1789 -0.8755
  143OSM   H12A15573   2.988   4.670   2.325  2.0807 -0.7772  1.3476
  143OSM   H12B15574   3.082   4.526   2.313 -0.1714 -1.3226 -2.2825
  143OSM    C1115575   2.880   4.509   2.398  0.1022  0.0295  0.6182
  143OSM   H11A15576   2.780   4.548   2.371 -0.9139 -1.2094  2.4220
  143OSM   H11B15577   2.894   4.552   2.499 -0.4640  1.2077  0.2079
  143OSM      P15578   2.951   4.265   2.456  0.1010 -0.4374 -0.0765
  143OSM    O1315579   2.894   4.124   2.430 -0.4374  0.1945  0.0383
  143OSM    O1415580   3.092   4.284   2.414  0.2617  0.4047  0.6041
  143OSM    O1115581   2.954   4.287   2.617  0.7706 -0.2538 -0.6077
  143OSM    O1215582   2.859   4.373   2.394 -0.5786 -0.0268  0.1491
  143OSM    C1S15583   2.828   4.277   2.684 -0.0677  0.1510 -0.0432
  143OSM    H1S15584   2.779   4.184   2.647  1.5404 -0.3307 -1.0712
  143OSM    H1T15585   2.764   4.365   2.660  2.2429  2.2855  1.2107
  143OSM     NF15586   2.729   4.202   2.919  0.0031  0.3624  0.1430
  143OSM    HNF15587   2.676   4.257   2.982  0.1048 -0.1079  0.6493
  143OSM    C2S15588   2.834   4.270   2.846 -0.3615 -0.2898 -0.2753
  143OSM    H2S15589   2.923   4.206   2.865 -0.4730  0.1505  2.1318
  143OSM    C3S15590   2.882   4.408   2.908 -0.3916  0.3204 -0.5701
  143OSM    H3S15591   2.796   4.478   2.905 -0.9158 -0.3359 -1.2457
  143OSM     O315592   2.985   4.472   2.832 -0.4809 -0.4460 -0.2736
  143OSM    HO315593   3.002   4.412   2.760  0.5959  1.0565 -1.3299
  143OSM    C4S15594   2.910   4.408   3.062 -0.3167  0.6190  0.2650
  143OSM    H4S15595   2.821   4.422   3.124 -0.5573 -1.6591  0.5318
  143OSM    C5S15596   3.026   4.380   3.120 -0.0967  0.0544 -0.4640
  143OSM    H5S15597   3.120   4.387   3.064  0.1835  0.9904  0.1135
  143OSM    C6S15598   3.041   4.378   3.272  0.7116  0.4635  0.2333
  143OSM    H6S15599   2.963   4.322   3.327  0.2235 -1.0507 -1.8916
  143OSM    H6T15600   3.041   4.486   3.301  3.5782  0.6120 -0.0342
  143OSM    C7S15601   3.172   4.319   3.308 -0.7237  0.1345 -0.2136
  143OSM    H7S15602   3.256   4.371   3.258 -0.7102  1.8427  1.4692
  143OSM    H7T15603   3.176   4.217   3.263  2.0530 -0.2164  0.6251
  143OSM    C8S15604   3.202   4.293   3.458  0.5872  0.8019 -0.3527
  143OSM    H8S15605   3.295   4.235   3.476  1.8325  2.5648 -0.7339
  143OSM    H8T15606   3.119   4.234   3.502  1.2886 -0.3206 -0.4989
  143OSM    C9S15607   3.213   4.422   3.538 -0.0652  0.7229  0.0395
  143OSM    H9S15608   3.136   4.496   3.507 -0.1046  0.6312 -0.0831
  143OSM    H9T15609   3.304   4.482   3.521 -0.1201  0.6103 -0.6919
  143OSM   C10S15610   3.208   4.393   3.689  0.3576  0.2006 -0.2833
  143OSM   H10S15611   3.107   4.348   3.703  1.4932 -2.4193  0.1516
  143OSM   H10T15612   3.199   4.484   3.753 -0.0206  0.3655 -0.5693
  143OSM   C11S15613   3.320   4.314   3.757 -0.1693  0.1704  0.9848
  143OSM   H11S15614   3.414   4.373   3.760  1.2364 -2.0195  2.3714
  143OSM   H11T15615   3.333   4.229   3.687  1.6463  0.2511  1.1877
  143OSM   C12S15616   3.286   4.273   3.896  0.4730  0.3658 -0.0828
  143OSM   H12S15617   3.359   4.190   3.912  0.4950  0.0070 -1.8352
  143OSM   H12T15618   3.183   4.231   3.902  1.0202 -0.8650  1.0783
  143OSM   C13S15619   3.298   4.386   3.999 -0.7768 -0.1190  0.5240
  143OSM   H13S15620   3.218   4.463   3.996  0.5084  1.2666  0.7248
  143OSM   H13T15621   3.384   4.449   3.969  0.5002 -2.0648 -0.0612
  143OSM   C14S15622   3.346   4.332   4.133  0.6123  0.2021 -0.2564
  143OSM   H14S15623   3.426   4.257   4.115  0.3557  0.4408 -2.7022
  143OSM   H14T15624   3.261   4.282   4.184  0.2553  1.1165  0.0736
  143OSM   C15S15625   3.393   4.434   4.235 -0.7582  0.1086  0.8239
  143OSM   H15S15626   3.327   4.523   4.244 -2.7927 -1.3262  0.7853
  143OSM   H15T15627   3.487   4.479   4.196 -1.3929  0.5156 -0.2838
  143OSM   C16S15628   3.414   4.380   4.385  0.2083  0.6543 -0.3096
  143OSM   H16S15629   3.314   4.362   4.428  1.0022 -1.0510  0.9568
  143OSM   H16T15630   3.458   4.450   4.459  1.4230 -1.3451  0.9545
  143OSM   C17S15631   3.475   4.233   4.395 -0.1597 -0.8030 -0.5070
  143OSM   H17S15632   3.557   4.218   4.321  2.3944 -1.6784  2.3167
  143OSM   H17T15633   3.395   4.164   4.361  0.7188 -1.7136 -0.7609
  143OSM   C18S15634   3.530   4.182   4.532  0.2142 -0.7937  0.3264
  143OSM   H18S15635   3.587   4.089   4.510  2.5327  1.1623 -2.9001
  143OSM   H18T15636   3.447   4.167   4.604  1.1712  0.1022  1.6577
  143OSM   H18U15637   3.600   4.261   4.566 -0.8228  0.2895  0.0136
  143OSM    C1F15638   2.714   4.072   2.897  0.0881 -0.6125  0.5284
  143OSM     OF15639   2.791   4.007   2.822 -0.3290  0.2073 -0.4830
  143OSM    C2F15640   2.587   4.015   2.949 -0.0806  0.7125  0.0381
  143OSM    H2F15641   2.524   3.991   2.861 -0.2369  0.5333  0.1980
  143OSM    H2G15642   2.528   4.087   3.010 -0.8674 -0.9907  1.3608
  143OSM    C3F15643   2.616   3.880   3.013 -1.0592 -0.7573  0.6391
  143OSM    H3F15644   2.669   3.814   2.941  1.8643 -1.3390  3.1242
  143OSM    H3G15645   2.514   3.850   3.046 -2.3644 -0.8360 -3.0294
  143OSM    C4F15646   2.697   3.885   3.140  0.3837  0.0832 -0.1803
  143OSM    H4F15647   2.793   3.937   3.118  1.0767 -1.3986 -0.7430
  143OSM    H4G15648   2.729   3.781   3.162  1.7255  0.4888 -0.1055
  143OSM    C5F15649   2.630   3.962   3.264  0.4678  0.2342 -0.2870
  143OSM    H5F15650   2.539   3.917   3.307  2.7119 -1.7135  2.8614
  143OSM    H5G15651   2.608   4.060   3.218  1.0896 -0.2080 -1.5985
  143OSM    C6F15652   2.714   3.977   3.394  0.4613  0.0950  0.1404
  143OSM    H6F15653   2.819   4.005   3.373  1.0608 -1.5876  0.7165
  143OSM    H6G15654   2.713   3.888   3.461  1.1409  1.4341  1.9961
  143OSM    C7F15655   2.664   4.094   3.481 -0.1807  0.1390 -0.0494
  143OSM    H7F15656   2.564   4.060   3.516 -0.9767  1.2723 -1.1222
  143OSM    H7G15657   2.653   4.185   3.418 -1.9067 -1.2870 -1.9736
  143OSM    C8F15658   2.761   4.118   3.592  0.5720 -0.5462 -0.9564
  143OSM    H8F15659   2.863   4.114   3.549  0.6411 -0.9623 -0.7619
  143OSM    H8G15660   2.742   4.038   3.667  0.7716  1.0493  0.8630
  143OSM    C9F15661   2.732   4.259   3.651 -0.2341  0.1217  0.2354
  143OSM    H9F15662   2.710   4.335   3.575 -0.1958 -0.0923  0.0076
  143OSM   C10F15663   2.727   4.293   3.782  0.3388 -0.2155 -0.3593
  143OSM   H10F15664   2.711   4.400   3.802 -1.0153 -0.4949  0.0729
  143OSM   C11F15665   2.739   4.197   3.895  0.4496 -0.1650 -0.4466
  143OSM   H11F15666   2.705   4.093   3.874  0.4285 -0.3671  0.5107
  143OSM   H11G15667   2.662   4.220   3.971 -2.5719 -1.3488 -2.9667
  143OSM   C12F15668   2.866   4.212   3.966  0.0245 -0.3615 -0.2912
  143OSM   H12F15669   2.890   4.318   3.989 -2.2864  0.5098 -1.5676
  143OSM   H12G15670   2.944   4.173   3.897  0.4605 -0.7120  0.3930
  143OSM   C13F15671   2.866   4.141   4.104  0.3337 -0.2997  0.4551
  143OSM   H13F15672   2.828   4.039   4.083 -0.7505  0.0741  0.5729
  143OSM   H13G15673   2.793   4.196   4.167 -0.8117  1.0211 -1.8757
  143OSM   C14F15674   3.006   4.130   4.161  0.3721  0.0005 -0.5387
  143OSM   H14F15675   3.036   4.225   4.210  2.3666 -0.2090 -1.2682
  143OSM   H14G15676   3.089   4.097   4.095  0.0478  0.0854 -0.9920
  143OSM   C15F15677   3.005   4.031   4.280 -0.3304  0.4575  0.4649
  143OSM   H15F15678   2.955   3.939   4.245  2.3062 -0.3167 -1.6399
  143OSM   H15G15679   2.945   4.073   4.364 -0.2862  0.9037  0.2772
  143OSM   C16F15680   3.142   3.999   4.345 -0.3455 -0.5580  0.5763
  143OSM   H16F15681   3.207   4.089   4.336 -1.1873  0.0554  0.5743
  143OSM   H16G15682   3.203   3.936   4.276 -0.2891  0.8692 -0.7393
  143OSM   C17F15683   3.129   3.950   4.481 -0.4208  0.5682  0.6489
  143OSM   H17F15684   3.089   4.033   4.543  1.2298  1.9705 -0.0889
  143OSM   H17G15685   3.225   3.922   4.530 -0.6391  1.1370  1.4225
  143OSM   C18F15686   3.018   3.841   4.501 -0.2162 -0.2379  0.6063
  143OSM   H18F15687   3.009   3.772   4.415 -1.4915 -0.2589  0.7393
  143OSM   H18G15688   2.918   3.888   4.506  0.7696  1.9354  1.8632
  143OSM   H18H15689   3.028   3.777   4.592  0.1107 -0.2658  0.5541
  144OSM      N15690   2.215   3.741   2.261  0.3084  1.1639 -0.9496
  144OSM    C1515691   2.360   3.769   2.278  0.0465 -0.5107 -0.0847
  144OSM   H15A15692   2.408   3.778   2.182  0.4709 -0.8153  0.0954
  144OSM   H15B15693   2.405   3.686   2.331  1.4281  1.9685  2.8928
  144OSM   H15C15694   2.385   3.860   2.329  0.0082  0.4298 -1.6890
  144OSM    C1415695   2.145   3.845   2.179  0.6426  0.3579 -0.4008
  144OSM   H14A15696   2.166   3.943   2.219 -0.6200  0.4339  0.1313
  144OSM   H14B15697   2.040   3.822   2.173  0.8232 -0.5873 -0.1614
  144OSM   H14C15698   2.179   3.839   2.076 -0.7837 -0.5011 -0.8481
  144OSM    C1315699   2.212   3.603   2.208  0.1025 -0.6382  0.1220
  144OSM   H13A15700   2.271   3.608   2.117 -0.2016  0.7380 -0.0173
  144OSM   H13B15701   2.116   3.563   2.178 -1.5352  3.6547 -1.1307
  144OSM   H13C15702   2.264   3.531   2.269 -0.5324 -0.8116  0.4695
  144OSM    C1215703   2.149   3.739   2.404  0.1048  0.4989 -0.1686
  144OSM   H12A15704   2.041   3.729   2.402  0.1388  0.0805 -0.0258
  144OSM   H12B15705   2.168   3.834   2.451  2.5260  0.1246 -0.2676
  144OSM    C1115706   2.193   3.629   2.516 -0.6056 -0.1218  0.1380
  144OSM   H11A15707   2.153   3.660   2.615  1.2012 -0.5477  1.0491
  144OSM   H11B15708   2.303   3.640   2.526 -0.3954 -2.0114  0.2190
  144OSM      P15709   2.023   3.436   2.501  0.6214  0.2042 -0.0189
  144OSM    O1315710   1.924   3.505   2.411  0.5439 -0.1827  0.2851
  144OSM    O1415711   2.042   3.294   2.495  0.2197  0.2378  0.7275
  144OSM    O1115712   2.002   3.478   2.655  0.1217  0.1665 -0.4875
  144OSM    O1215713   2.163   3.498   2.477 -0.0365  0.0409  0.5862
  144OSM    C1S15714   2.098   3.429   2.746 -0.9347  0.5323  1.1227
  144OSM    H1S15715   2.201   3.454   2.711 -0.2240 -2.3701  0.8950
  144OSM    H1T15716   2.079   3.320   2.751 -0.4504  0.3490 -0.5534
  144OSM     NF15717   2.184   3.422   2.965 -0.0900 -0.2454 -0.6880
  144OSM    HNF15718   2.175   3.326   2.991 -0.4859 -0.3661 -1.2575
  144OSM    C2S15719   2.076   3.480   2.885 -0.8494 -0.5116 -0.4361
  144OSM    H2S15720   2.076   3.591   2.888  1.7059 -0.4821 -0.1227
  144OSM    C3S15721   1.931   3.434   2.925  0.0449  0.2171 -0.3795
  144OSM    H3S15722   1.926   3.323   2.913 -1.0042  0.2135 -0.0255
  144OSM     O315723   1.823   3.489   2.845  0.7887  0.8571 -0.4508
  144OSM    HO315724   1.869   3.511   2.764  0.9091  0.5049 -0.4804
  144OSM    C4S15725   1.903   3.471   3.069  0.4304 -0.1856 -0.1902
  144OSM    H4S15726   1.941   3.400   3.144  1.0808 -0.1444 -0.4733
  144OSM    C5S15727   1.843   3.583   3.110 -0.1552  0.1548  0.9328
  144OSM    H5S15728   1.828   3.660   3.032  2.4848  0.2668  0.4537
  144OSM    C6S15729   1.820   3.621   3.251 -1.0770  0.1632  0.2021
  144OSM    H6S15730   1.710   3.626   3.265 -0.8769 -0.0916  2.1271
  144OSM    H6T15731   1.855   3.726   3.265 -0.0120 -0.4382  2.5859
  144OSM    C7S15732   1.900   3.531   3.344  0.2758  0.4885  0.6759
  144OSM    H7S15733   2.006   3.551   3.317  0.3853  0.1374  0.8445
  144OSM    H7T15734   1.871   3.424   3.332 -2.8072  1.3854 -1.5055
  144OSM    C8S15735   1.874   3.576   3.488  0.2325  0.5651 -0.3603
  144OSM    H8S15736   1.768   3.559   3.517  0.2956 -1.3181 -1.0883
  144OSM    H8T15737   1.911   3.680   3.496  1.7336  0.2415 -2.3436
  144OSM    C9S15738   1.953   3.503   3.597 -0.6087 -0.0267 -0.3987
  144OSM    H9S15739   2.063   3.506   3.581 -0.8166 -1.1728 -2.3679
  144OSM    H9T15740   1.934   3.393   3.592 -3.7489  0.1856  2.5823
  144OSM   C10S15741   1.902   3.530   3.738 -0.1146  0.2958 -0.2928
  144OSM   H10S15742   1.803   3.482   3.749  0.4642 -0.7262  0.7567
  144OSM   H10T15743   1.898   3.640   3.748 -2.1998  0.3912 -1.6363
  144OSM   C11S15744   1.992   3.476   3.852 -0.0593  0.6202  0.4643
  144OSM   H11S15745   2.091   3.525   3.860  0.6538 -0.6863  0.0053
  144OSM   H11T15746   2.003   3.367   3.833  1.2149  1.0305 -1.4518
  144OSM   C12S15747   1.928   3.485   3.993  0.7027 -0.7833  0.0803
  144OSM   H12S15748   1.824   3.448   3.989  0.8225 -1.0257 -1.4531
  144OSM   H12T15749   1.916   3.593   4.014  1.4656 -0.0390 -2.8135
  144OSM   C13S15750   2.019   3.419   4.096  0.4836  0.5309 -0.1874
  144OSM   H13S15751   2.116   3.474   4.098  1.2482 -0.7864 -0.3215
  144OSM   H13T15752   2.041   3.313   4.073 -0.0130  0.4069 -0.0994
  144OSM   C14S15753   1.958   3.421   4.242  0.2833  0.2201  0.4413
  144OSM   H14S15754   1.862   3.366   4.250  0.0880  0.6376  0.9862
  144OSM   H14T15755   1.950   3.527   4.273  0.3966  0.2866  0.2480
  144OSM   C15S15756   2.058   3.343   4.337  0.2508 -0.9779  0.0009
  144OSM   H15S15757   2.158   3.391   4.329  0.2642 -1.1249 -0.8470
  144OSM   H15T15758   2.062   3.235   4.309 -0.9817 -0.8907 -0.5849
  144OSM   C16S15759   2.011   3.347   4.477  0.1967  0.3315  0.2987
  144OSM   H16S15760   1.981   3.450   4.505 -3.0950 -0.8138  1.4520
  144OSM   H16T15761   2.103   3.331   4.536  2.2700 -1.5189 -3.1049
  144OSM   C17S15762   1.904   3.242   4.509  0.3042  0.5419 -0.0380
  144OSM   H17S15763   1.930   3.146   4.459  2.0978  1.6173 -1.3252
  144OSM   H17T15764   1.812   3.277   4.457  1.2766  2.5278 -0.5409
  144OSM   C18S15765   1.870   3.218   4.654  0.1129  0.0527 -0.0412
  144OSM   H18S15766   1.799   3.299   4.681  0.1568  0.3417 -0.7700
  144OSM   H18T15767   1.965   3.237   4.708 -0.4031  1.5175  0.3944
  144OSM   H18U15768   1.822   3.118   4.657 -0.3774  0.2688 -0.4724
  144OSM    C1F15769   2.305   3.474   2.945 -0.1776 -0.7081 -0.2148
  144OSM     OF15770   2.322   3.580   2.879  0.2210  0.1896  0.4812
  144OSM    C2F15771   2.414   3.392   3.003  0.1618 -0.3381 -0.7037
  144OSM    H2F15772   2.480   3.353   2.923  2.0744 -0.5194  0.8784
  144OSM    H2G15773   2.370   3.295   3.036 -0.6085 -0.6440 -2.5204
  144OSM    C3F15774   2.491   3.467   3.108 -0.9440  0.4431  0.3182
  144OSM    H3F15775   2.533   3.560   3.063 -1.1842  1.4272  2.0199
  144OSM    H3G15776   2.580   3.411   3.144  0.9597  3.1068  0.0650
  144OSM    C4F15777   2.404   3.513   3.230  0.2450 -0.0422  0.1599
  144OSM    H4F15778   2.323   3.439   3.244  1.5411 -1.2615  1.5919
  144OSM    H4G15779   2.356   3.609   3.202 -0.7639 -0.8798 -1.0589
  144OSM    C5F15780   2.484   3.544   3.358  0.1723  0.1495  0.5032
  144OSM    H5F15781   2.577   3.600   3.336  0.2828 -0.5752 -1.0609
  144OSM    H5G15782   2.506   3.442   3.398 -1.7304  0.2111  1.8345
  144OSM    C6F15783   2.405   3.615   3.465  0.0181  0.1472 -0.0310
  144OSM    H6F15784   2.314   3.559   3.493  1.2890 -0.9760  2.1734
  144OSM    H6G15785   2.369   3.708   3.417  3.2867  2.5712  1.7846
  144OSM    C7F15786   2.500   3.645   3.579 -0.1092 -0.0093  0.1071
  144OSM    H7F15787   2.590   3.683   3.526 -1.0517 -1.1941 -2.5189
  144OSM    H7G15788   2.514   3.551   3.636 -0.8553  1.0913  2.2296
  144OSM    C8F15789   2.470   3.761   3.670  0.3277 -0.5926  0.0654
  144OSM    H8F15790   2.435   3.840   3.600  0.4918  0.8632  1.5699
  144OSM    H8G15791   2.569   3.790   3.711  0.5583  0.2484 -1.0328
  144OSM    C9F15792   2.371   3.728   3.775 -0.2241 -0.5024 -0.2603
  144OSM    H9F15793   2.289   3.662   3.743 -0.7159 -0.3152  0.5779
  144OSM   C10F15794   2.368   3.768   3.903  0.4110  0.3048 -0.0354
  144OSM   H10F15795   2.283   3.737   3.965 -0.3828  0.0069 -1.2310
  144OSM   C11F15796   2.471   3.860   3.971 -0.1435 -0.0595 -0.1146
  144OSM   H11F15797   2.465   3.962   3.928 -0.7804 -0.6041 -1.3443
  144OSM   H11G15798   2.576   3.824   3.968  0.0576  0.5905 -2.3755
  144OSM   C12F15799   2.448   3.839   4.118  0.9951 -0.6644 -0.0397
  144OSM   H12F15800   2.445   3.734   4.153 -0.6175 -0.5800  0.1596
  144OSM   H12G15801   2.348   3.878   4.147  0.8873 -1.0624  0.1282
  144OSM   C13F15802   2.555   3.907   4.206 -0.1481  0.4847  0.0551
  144OSM   H13F15803   2.577   4.014   4.181 -1.7545  0.8256  0.0217
  144OSM   H13G15804   2.650   3.852   4.190 -0.4300 -0.1269  0.4684
  144OSM   C14F15805   2.509   3.904   4.352  0.5842 -0.6570  0.0281
  144OSM   H14F15806   2.476   3.803   4.383 -2.3015  0.3954  0.6706
  144OSM   H14G15807   2.433   3.982   4.373  2.1279  0.6481  1.1069
  144OSM   C15F15808   2.624   3.937   4.454 -0.3888 -0.5209  0.2328
  144OSM   H15F15809   2.725   3.923   4.411  0.7230  1.1687  2.1486
  144OSM   H15G15810   2.616   3.871   4.544 -1.2966 -1.7539 -0.7149
  144OSM   C16F15811   2.611   4.089   4.500  0.1886  0.6140  0.0230
  144OSM   H16F15812   2.526   4.106   4.570  0.7428  1.9169  0.4091
  144OSM   H16G15813   2.597   4.138   4.401 -3.2117  0.8453  0.5210
  144OSM   C17F15814   2.723   4.139   4.582  0.2466 -0.2865  0.3849
  144OSM   H17F15815   2.819   4.141   4.526 -0.5616  0.6358 -1.0094
  144OSM   H17G15816   2.741   4.065   4.664  0.2493  1.1499  1.7195
  144OSM   C18F15817   2.711   4.273   4.659 -0.2640  0.4667 -0.2800
  144OSM   H18F15818   2.702   4.354   4.584  0.0033 -0.1230 -0.9624
  144OSM   H18G15819   2.806   4.287   4.715  0.5394 -0.9190 -1.2327
  144OSM   H18H15820   2.629   4.271   4.734  0.5115 -2.0330  0.6113
  145SAPE     N15821   3.243   3.470   7.297 -0.1819  0.4030  0.1591
  145SAPE   HN115822   3.283   3.405   7.367  2.0854  1.0048 -0.5016
  145SAPE   HN215823   3.254   3.561   7.345  1.3903 -1.0719  2.8280
  145SAPE   HN315824   3.147   3.432   7.283 -0.4101  0.6766  0.9720
  145SAPE   C1215825   3.312   3.459   7.168 -0.4812 -0.1745 -0.3960
  145SAPE  H12A15826   3.298   3.353   7.137  2.9954 -2.0210  3.3782
  145SAPE  H12B15827   3.421   3.479   7.178 -0.9993  3.4263 -0.9269
  145SAPE   C1115828   3.250   3.556   7.056  0.6046  0.2126 -0.6484
  145SAPE  H11A15829   3.146   3.519   7.041 -0.2179  1.3405  1.7319
  145SAPE  H11B15830   3.301   3.540   6.958  0.6312 -2.3416 -0.2896
  145SAPE     P15831   3.359   3.794   7.038 -0.2257 -0.1253  0.0971
  145SAPE   O1315832   3.329   3.921   7.108  0.3098 -0.3865  0.5525
  145SAPE   O1415833   3.486   3.727   7.061 -0.1604 -0.3584 -0.3988
  145SAPE   O1215834   3.246   3.698   7.093 -0.4933 -0.4795  0.1550
  145SAPE   O1115835   3.333   3.810   6.882 -0.1722  0.2063 -0.3588
  145SAPE    C115836   3.202   3.815   6.843  0.5227 -0.1224  0.2729
  145SAPE    HA15837   3.134   3.756   6.908  0.5749 -2.0248 -1.2875
  145SAPE    HB15838   3.166   3.919   6.834 -2.6018 -1.2664 -3.6478
  145SAPE    C215839   3.193   3.761   6.696 -0.0280  0.4192 -0.4117
  145SAPE    HS15840   3.202   3.651   6.706 -0.1596  0.5030  0.6959
  145SAPE   O2115841   3.296   3.817   6.612  0.3379 -0.0437 -0.2118
  145SAPE   C2115842   3.397   3.740   6.600 -0.2100  0.2652  0.2200
  145SAPE   O2215843   3.418   3.628   6.646  0.2677 -0.5964 -0.1125
  145SAPE   C2215844   3.499   3.809   6.509 -0.1074  0.0311 -0.1222
  145SAPE   H2R15845   3.504   3.915   6.543  0.3721  0.4261 -1.3635
  145SAPE   H2S15846   3.601   3.767   6.524 -0.8922 -1.8175  0.2385
  145SAPE    C315847   3.051   3.780   6.627 -0.4769 -0.0550 -0.2083
  145SAPE    HX15848   3.030   3.888   6.642 -0.7013 -0.2156  0.6854
  145SAPE    HY15849   2.973   3.726   6.685  0.8984  0.4261  2.2505
  145SAPE   O3115850   3.049   3.760   6.481  0.2696  0.5978  0.5221
  145SAPE   C3115851   3.024   3.636   6.445 -0.1741 -0.5797  0.5614
  145SAPE   O3215852   3.002   3.542   6.508 -0.1825 -0.6719 -0.2993
  145SAPE   C3215853   3.054   3.628   6.298 -0.1871  0.7349  0.4620
  145SAPE   H2X15854   3.145   3.688   6.273  1.1248 -1.3475 -0.0263
  145SAPE   H2Y15855   2.973   3.679   6.242 -1.3939 -2.3751 -0.8932
  145SAPE   C2315856   3.470   3.802   6.355 -0.2173  0.6198  0.3391
  145SAPE   H3R15857   3.543   3.868   6.304  1.0581  0.0404  1.3611
  145SAPE   H3S15858   3.364   3.830   6.333 -1.1856 -2.7947  0.1386
  145SAPE   C2415859   3.483   3.657   6.299  0.5404  0.1651  0.1582
  145SAPE   H4R15860   3.425   3.648   6.205  1.6201  0.0425 -0.5149
  145SAPE   H4S15861   3.440   3.579   6.366 -0.9464 -0.0374 -0.9958
  145SAPE   C2515862   3.630   3.638   6.270 -0.7645 -0.3566  0.2242
  145SAPE   H5R15863   3.697   3.608   6.353  1.1327  0.3592 -0.9756
  145SAPE   C2615864   3.687   3.652   6.145  0.1331  0.1315 -0.4181
  145SAPE   H6R15865   3.796   3.634   6.140  0.1282 -1.9707  3.1461
  145SAPE   C2715866   3.613   3.693   6.023 -0.1860 -0.2304 -0.3823
  145SAPE   H7R15867   3.532   3.765   6.043  0.1247  0.7326 -2.3203
  145SAPE   H7S15868   3.546   3.606   6.003  1.2497 -2.0133  2.0878
  145SAPE   C2815869   3.686   3.752   5.901  0.6566 -0.2048 -0.7448
  145SAPE   H8R15870   3.769   3.819   5.926  1.4508 -1.1701 -0.7374
  145SAPE   C2915871   3.643   3.739   5.770 -0.0401  0.0050  0.4585
  145SAPE   H9R15872   3.695   3.791   5.688  1.1041 -1.1830  0.3943
  145SAPE  C21015873   3.517   3.664   5.725  0.5085 -0.2117 -0.1391
  145SAPE  H10R15874   3.443   3.727   5.670 -0.5833 -1.9983 -0.7963
  145SAPE  H10S15875   3.465   3.627   5.816 -1.5082 -0.7128 -1.4309
  145SAPE  C21115876   3.545   3.546   5.635 -0.6513 -0.3446  0.0206
  145SAPE  H11R15877   3.600   3.467   5.689  1.5157  0.9241 -0.2304
  145SAPE  C21215878   3.525   3.528   5.503  0.3200 -1.1172 -0.5113
  145SAPE  H12R15879   3.553   3.435   5.452  0.7830 -1.8723  1.0679
  145SAPE  C21315880   3.439   3.624   5.422  0.2044  0.0605  0.0456
  145SAPE  H13R15881   3.483   3.724   5.441 -0.0758 -0.1622  2.1374
  145SAPE  H13S15882   3.329   3.631   5.441  0.3571 -0.0268  1.0098
  145SAPE  C21415883   3.449   3.607   5.268 -0.1215 -0.2732 -0.0102
  145SAPE  H14R15884   3.472   3.698   5.211 -2.2301 -0.5706 -1.4451
  145SAPE  C21515885   3.417   3.501   5.198 -0.3125 -0.0264 -0.0185
  145SAPE  H15R15886   3.436   3.516   5.090 -0.4146  0.9432  0.0873
  145SAPE  C21615887   3.362   3.371   5.235  0.1012  0.2532  0.8027
  145SAPE  H16R15888   3.272   3.346   5.175 -1.1817  2.2634  1.7857
  145SAPE  H16S15889   3.328   3.377   5.340  0.4332  0.7856  0.8833
  145SAPE  C21715890   3.460   3.267   5.215 -0.1996  1.0258  0.3549
  145SAPE  H17R15891   3.549   3.298   5.273 -0.7595  2.0897  0.6634
  145SAPE  H17S15892   3.489   3.254   5.108  0.7015  0.2476  0.6815
  145SAPE  C21815893   3.432   3.128   5.279  0.3078 -0.0078  0.1587
  145SAPE  H18R15894   3.518   3.062   5.253  0.8178  1.2617 -1.6248
  145SAPE  H18S15895   3.343   3.079   5.235  0.9110 -0.7346 -0.2954
  145SAPE  C21915896   3.416   3.140   5.432 -0.1086 -0.3361 -0.2815
  145SAPE  H19R15897   3.321   3.189   5.461 -0.7227 -2.2387  1.1117
  145SAPE  H19S15898   3.489   3.207   5.484 -1.6663 -0.4357  2.1855
  145SAPE  C22015899   3.420   3.004   5.509 -0.6495  0.1245  1.1761
  145SAPE  H20R15900   3.395   3.022   5.615  0.2301 -1.5494  1.6986
  145SAPE  H20S15901   3.515   2.948   5.495 -1.4016 -1.2413  1.3114
  145SAPE  H20T15902   3.338   2.941   5.468  0.0712 -0.3498  0.4142
  145SAPE   C3315903   3.072   3.486   6.242  0.6479 -0.6907  0.0046
  145SAPE   H3X15904   2.974   3.437   6.222  0.3887  0.0205 -0.5294
  145SAPE   H3Y15905   3.119   3.425   6.322  0.0165 -1.3494 -0.1132
  145SAPE   C3415906   3.160   3.468   6.122 -0.1872 -0.2715  0.0187
  145SAPE   H4X15907   3.152   3.366   6.079 -1.4734  0.0324 -0.4959
  145SAPE   H4Y15908   3.265   3.500   6.144 -0.6102  1.9735 -0.9102
  145SAPE   C3515909   3.114   3.558   6.005 -0.3973 -0.2358  0.0715
  145SAPE   H5X15910   3.152   3.661   6.024  0.9467 -0.5175 -0.9158
  145SAPE   H5Y15911   3.004   3.567   6.002 -0.4919 -0.7808  1.2607
  145SAPE   C3615912   3.162   3.512   5.866 -0.3228  0.4600  0.4060
  145SAPE   H6X15913   3.241   3.436   5.881 -0.0215  0.6480 -0.1794
  145SAPE   H6Y15914   3.216   3.593   5.813  1.7376 -0.5489  0.8662
  145SAPE   C3715915   3.051   3.457   5.780  0.4677 -0.3667 -0.1800
  145SAPE   H7X15916   2.959   3.517   5.788  0.1563 -1.0283  1.6092
  145SAPE   H7Y15917   3.030   3.350   5.801  2.9206 -0.8678  0.0238
  145SAPE   C3815918   3.084   3.466   5.625 -0.1658  0.0796  0.0142
  145SAPE   H8X15919   3.148   3.376   5.616 -0.0861  0.1454 -0.0813
  145SAPE   H8Y15920   3.142   3.554   5.590  0.8073 -0.2779  0.6693
  145SAPE   C3915921   2.976   3.426   5.530  0.0056 -0.2008 -0.1411
  145SAPE   H9X15922   2.936   3.525   5.497  3.9573  1.2995 -0.9047
  145SAPE   H9Y15923   2.895   3.370   5.581 -1.0180  0.6621 -0.7703
  145SAPE  C31015924   3.017   3.337   5.412  0.2449  0.0110 -0.2504
  145SAPE  H10X15925   3.048   3.239   5.455  0.4012 -0.2613 -0.9795
  145SAPE  H10Y15926   3.093   3.368   5.338 -1.2827  1.5684 -1.2269
  145SAPE  C31115927   2.888   3.308   5.327  0.9241  0.1587  0.0770
  145SAPE  H11X15928   2.867   3.405   5.277 -0.3467  0.5335  1.2478
  145SAPE  H11Y15929   2.814   3.277   5.404  0.0422 -1.2646 -1.2723
  145SAPE  C31215930   2.908   3.201   5.216 -0.2910 -0.0693  0.0355
  145SAPE  H12X15931   2.805   3.185   5.176  0.1928 -0.6071 -1.0639
  145SAPE  H12Y15932   2.948   3.106   5.257 -0.3705  0.3967  1.2173
  145SAPE  C31315933   2.985   3.236   5.085 -0.1725  0.9944  0.4773
  145SAPE  H13X15934   3.094   3.219   5.099 -0.0998 -0.1838 -1.2680
  145SAPE  H13Y15935   2.958   3.339   5.053  0.4894  0.7566 -0.8855
  145SAPE  C31415936   2.952   3.141   4.970 -0.1619 -0.0793 -0.4318
  145SAPE  H14X15937   2.842   3.124   4.968 -0.0139 -1.2067  0.1981
  145SAPE  H14Y15938   3.004   3.044   4.987  1.0457  0.3908 -1.3419
  145SAPE  C31515939   2.996   3.192   4.830  0.7866 -0.0852 -0.8285
  145SAPE  H15X15940   2.947   3.292   4.819 -0.2888 -0.2715  1.4984
  145SAPE  H15Y15941   2.959   3.124   4.751 -2.1279 -1.1054  1.2291
  145SAPE  C31615942   3.151   3.205   4.821 -0.9674  0.6576  0.5647
  145SAPE  H16X15943   3.193   3.102   4.830 -2.8277 -0.4670 -2.3058
  145SAPE  H16Y15944   3.183   3.266   4.908 -1.3982  0.6163  0.7542
  145SAPE  C31715945   3.209   3.267   4.687 -0.8650 -0.0410  0.2957
  145SAPE  H17X15946   3.159   3.366   4.686 -1.5823 -0.3967  0.0333
  145SAPE  H17Y15947   3.168   3.203   4.606 -0.1769  0.5956 -0.5859
  145SAPE  C31815948   3.366   3.283   4.678  0.2376  0.3570 -1.0921
  145SAPE  H18X15949   3.392   3.279   4.570 -2.6662 -2.2848 -1.8699
  145SAPE  H18Y15950   3.408   3.190   4.722  0.7469  0.9341 -0.3287
  145SAPE  H18Z15951   3.389   3.371   4.742 -0.9643 -1.8745  2.7478
  146SAPE     N15952   0.344   3.337   7.423 -0.9079  0.3805  0.1958
  146SAPE   HN115953   0.268   3.275   7.458  0.6312 -2.1641 -0.6771
  146SAPE   HN215954   0.405   3.289   7.354  0.6740 -0.1126  1.8319
  146SAPE   HN315955   0.395   3.379   7.504 -1.8251  2.6470 -0.3346
  146SAPE   C1215956   0.259   3.440   7.352  0.3249 -0.0817  0.1455
  146SAPE  H12A15957   0.195   3.479   7.434  3.1773  0.3300  2.3357
  146SAPE  H12B15958   0.197   3.392   7.274  1.2722 -1.0953 -0.0149
  146SAPE   C1115959   0.350   3.558   7.304 -0.0466  0.5623 -0.3609
  146SAPE  H11A15960   0.402   3.585   7.398  0.5935  1.3015 -0.9142
  146SAPE  H11B15961   0.280   3.641   7.279  1.3119  1.0920 -2.6473
  146SAPE     P15962   0.413   3.556   7.044  0.0992  0.6269 -0.2570
  146SAPE   O1315963   0.430   3.704   7.026  0.0908 -0.0964  0.2454
  146SAPE   O1415964   0.503   3.473   6.959  0.2359 -0.4830  0.2837
  146SAPE   O1215965   0.437   3.518   7.199  0.6434  0.3737  0.0051
  146SAPE   O1115966   0.265   3.522   7.017  0.1162 -0.1743 -0.0640
  146SAPE    C115967   0.205   3.403   6.966 -0.1563 -0.1125  0.0507
  146SAPE    HA15968   0.265   3.312   6.987  1.1922  1.0842  1.6704
  146SAPE    HB15969   0.102   3.387   7.004 -0.0056  0.2023  0.6128
  146SAPE    C215970   0.211   3.416   6.811  0.6166  0.0830  0.3943
  146SAPE    HS15971   0.318   3.437   6.794  0.7336  1.0341  2.0555
  146SAPE   O2115972   0.131   3.530   6.772  0.7632  0.0565 -0.5497
  146SAPE   C2115973   0.180   3.594   6.669  0.0778 -0.3193  0.2447
  146SAPE   O2215974   0.282   3.573   6.613 -0.4136 -0.4121 -0.0971
  146SAPE   C2215975   0.084   3.703   6.635 -0.2122 -0.0507 -0.5834
  146SAPE   H2R15976   0.031   3.662   6.547  0.2480  4.5285 -3.2901
  146SAPE   H2S15977   0.010   3.720   6.717 -1.3713 -0.1048 -1.5954
  146SAPE    C315978   0.164   3.285   6.741 -0.7511 -0.5736 -0.7100
  146SAPE    HX15979   0.065   3.263   6.787 -2.0927  0.5685 -2.9103
  146SAPE    HY15980   0.232   3.205   6.778 -1.6345 -1.5517 -1.1312
  146SAPE   O3115981   0.170   3.308   6.593 -0.4235  0.2396  0.0352
  146SAPE   C3115982   0.082   3.225   6.542 -0.0612  0.1763 -0.0149
  146SAPE   O3215983   0.012   3.143   6.604  0.0602 -0.6489 -0.5099
  146SAPE   C3215984   0.081   3.236   6.390  0.4520 -0.1512 -1.0346
  146SAPE   H2X15985   0.175   3.198   6.345  0.0317 -1.4967 -0.8377
  146SAPE   H2Y15986   0.052   3.338   6.357  2.3810 -0.0083 -2.4505
  146SAPE   C2315987   0.157   3.829   6.590 -0.3467 -0.3074  0.5314
  146SAPE   H3R15988   0.244   3.810   6.525 -1.6078  0.1543 -1.3858
  146SAPE   H3S15989   0.178   3.894   6.678  2.0620  1.2812 -1.1094
  146SAPE   C2415990   0.057   3.912   6.502  0.3292  0.2212 -0.2502
  146SAPE   H4R15991  -0.028   3.935   6.570 -0.2183 -2.0904 -0.0848
  146SAPE   H4S15992   0.025   3.844   6.421 -1.5008 -0.3331  0.8773
  146SAPE   C2515993   0.112   4.046   6.458 -0.1621  0.4178 -0.7096
  146SAPE   H5R15994   0.138   4.109   6.544 -0.7574  0.7563 -0.7747
  146SAPE   C2615995   0.161   4.076   6.341 -0.0725 -0.0644 -0.3288
  146SAPE   H6R15996   0.191   4.181   6.326 -3.0991  0.9928  0.1749
  146SAPE   C2715997   0.138   3.990   6.219 -0.8945 -0.0438 -0.0787
  146SAPE   H7R15998   0.142   3.882   6.248  2.2071  0.2177  0.8300
  146SAPE   H7S15999   0.222   4.007   6.148  2.1033  1.3508  3.4771
  146SAPE   C2816000   0.008   4.014   6.156 -0.0524  0.3764 -0.2062
  146SAPE   H8R16001  -0.075   3.985   6.223  1.4755 -1.9137  0.8296
  146SAPE   C2916002  -0.023   4.032   6.026 -0.0894 -0.1726  0.3547
  146SAPE   H9R16003  -0.126   4.069   6.011 -0.6070 -1.4331  0.6696
  146SAPE  C21016004   0.074   4.035   5.901  0.2291  0.2209  0.3159
  146SAPE  H10R16005   0.178   4.008   5.927  0.4795  0.3204 -0.5611
  146SAPE  H10S16006   0.080   4.141   5.869  1.2260  1.1354  3.1752
  146SAPE  C21116007   0.031   3.936   5.795 -0.1992 -0.9201 -0.3509
  146SAPE  H11R16008  -0.036   3.854   5.821 -0.4181  0.3984  4.0000
  146SAPE  C21216009   0.074   3.950   5.667  0.3113  0.4541 -0.3855
  146SAPE  H12R16010   0.046   3.865   5.603 -0.9077 -1.0638  2.0107
  146SAPE  C21316011   0.165   4.052   5.611 -0.0231 -0.5624 -0.8076
  146SAPE  H13R16012   0.268   4.013   5.623 -0.3836 -1.8775 -1.7299
  146SAPE  H13S16013   0.165   4.147   5.668  1.7969  0.6872 -2.7303
  146SAPE  C21416014   0.167   4.074   5.459 -0.1740  0.0119 -0.0781
  146SAPE  H14R16015   0.090   4.147   5.430 -0.5322  0.2381  1.3578
  146SAPE  C21516016   0.242   4.033   5.357  0.2619  0.2173 -0.5925
  146SAPE  H15R16017   0.215   4.058   5.254  1.4310 -1.7846 -1.4383
  146SAPE  C21616018   0.339   3.918   5.366  0.0633 -0.2816 -0.7003
  146SAPE  H16R16019   0.317   3.852   5.453  2.2932  1.0609  0.9752
  146SAPE  H16S16020   0.441   3.949   5.396  0.1567 -1.6854  0.5717
  146SAPE  C21716021   0.353   3.825   5.248  0.8189 -0.2285  0.1138
  146SAPE  H17R16022   0.432   3.754   5.280  1.0014 -1.2884 -2.4542
  146SAPE  H17S16023   0.400   3.883   5.167  1.1075 -1.2434 -0.4646
  146SAPE  C21816024   0.224   3.760   5.196 -0.4969 -0.8259 -0.2458
  146SAPE  H18R16025   0.250   3.708   5.101 -0.2033  0.1247 -0.6994
  146SAPE  H18S16026   0.165   3.846   5.158 -0.9990 -0.7614  0.6375
  146SAPE  C21916027   0.162   3.668   5.300  0.2642  0.3965 -0.1703
  146SAPE  H19R16028   0.126   3.736   5.380 -0.2064  0.5019 -0.4695
  146SAPE  H19S16029   0.244   3.600   5.334 -0.1275  0.1930  0.3818
  146SAPE  C22016030   0.049   3.581   5.244  0.6404 -0.3316  0.2629
  146SAPE  H20R16031  -0.010   3.653   5.183  0.0988 -0.9756  0.0300
  146SAPE  H20S16032  -0.016   3.550   5.328  1.7344  2.2888  2.2302
  146SAPE  H20T16033   0.085   3.495   5.184  1.6544 -0.4733  1.0363
  146SAPE   C3316034  -0.027   3.136   6.333 -0.0691 -0.7979  0.3306
  146SAPE   H3X16035  -0.123   3.160   6.385  0.0710 -3.9811  2.3429
  146SAPE   H3Y16036   0.003   3.038   6.377  1.3773 -0.1818  0.7688
  146SAPE   C3416037  -0.021   3.135   6.186  0.4323 -0.1611  0.1923
  146SAPE   H4X16038   0.081   3.106   6.154 -0.1445 -3.6918  1.1257
  146SAPE   H4Y16039  -0.047   3.238   6.154  0.1828 -0.5402 -0.8494
  146SAPE   C3516040  -0.131   3.041   6.122  1.2165  0.1750 -0.1680
  146SAPE   H5X16041  -0.233   3.084   6.132  1.0768  0.2932 -1.8668
  146SAPE   H5Y16042  -0.115   2.948   6.181  1.6847 -0.4192 -1.2041
  146SAPE   C3616043  -0.110   3.013   5.968  0.6072  1.0389  0.3596
  146SAPE   H6X16044  -0.005   2.981   5.951 -0.4219 -2.2178 -0.8139
  146SAPE   H6Y16045  -0.137   3.101   5.906 -0.2166  0.3200 -0.3420
  146SAPE   C3716046  -0.193   2.893   5.915  0.0228  0.6261 -0.3916
  146SAPE   H7X16047  -0.299   2.926   5.906 -0.3917 -0.9014 -1.4877
  146SAPE   H7Y16048  -0.187   2.811   5.990  2.1601  0.6310 -0.5014
  146SAPE   C3816049  -0.129   2.842   5.788  0.1816  0.2816  0.1071
  146SAPE   H8X16050  -0.145   2.734   5.769 -1.3865  0.4668  0.2613
  146SAPE   H8Y16051  -0.019   2.851   5.802  0.2783  0.2837 -0.6025
  146SAPE   C3916052  -0.172   2.911   5.659 -0.2886  0.6603  0.3221
  146SAPE   H9X16053  -0.179   3.021   5.666  2.0635  0.9054 -0.1492
  146SAPE   H9Y16054  -0.276   2.878   5.638  0.3648 -0.2631 -1.7119
  146SAPE  C31016055  -0.085   2.877   5.530  0.3753  0.2509  0.3773
  146SAPE  H10X16056   0.023   2.904   5.534  0.9153 -1.1000 -2.2526
  146SAPE  H10Y16057  -0.117   2.945   5.448  1.6454 -0.6580 -0.9461
  146SAPE  C31116058  -0.107   2.734   5.478 -0.5133 -0.2423  0.3755
  146SAPE  H11X16059  -0.216   2.717   5.461 -0.7111  1.0256  0.2372
  146SAPE  H11Y16060  -0.067   2.675   5.563  0.3860  1.2571  1.0476
  146SAPE  C31216061  -0.040   2.705   5.343  0.3385  0.4763  0.2758
  146SAPE  H12X16062   0.065   2.670   5.357 -0.0275 -1.1566 -0.7617
  146SAPE  H12Y16063  -0.036   2.797   5.281 -0.3754  0.3946  0.0946
  146SAPE  C31316064  -0.102   2.586   5.269 -0.4102 -0.0155  0.2258
  146SAPE  H13X16065  -0.211   2.605   5.259 -0.6801 -0.4881  1.9653
  146SAPE  H13Y16066  -0.090   2.488   5.320 -0.2421 -0.7213 -1.1141
  146SAPE  C31416067  -0.042   2.574   5.132 -0.4566 -0.5241 -0.0452
  146SAPE  H14X16068   0.069   2.586   5.135 -0.5057 -0.1600  0.3435
  146SAPE  H14Y16069  -0.071   2.664   5.074 -0.6495 -0.2481  0.4753
  146SAPE  C31516070  -0.071   2.441   5.058  0.7539 -0.3071 -0.3507
  146SAPE  H15X16071  -0.063   2.348   5.118  0.1981 -0.2994 -0.2551
  146SAPE  H15Y16072  -0.003   2.435   4.971 -0.4493 -2.1725 -1.2414
  146SAPE  C31616073  -0.222   2.430   5.018 -0.1654 -0.3674  0.8997
  146SAPE  H16X16074  -0.254   2.531   4.986 -0.9228 -1.1274 -0.8619
  146SAPE  H16Y16075  -0.278   2.391   5.106 -2.3301 -1.2839 -0.8055
  146SAPE  C31716076  -0.257   2.344   4.898 -0.5519  0.3744  0.1287
  146SAPE  H17X16077  -0.172   2.362   4.829  2.2117 -0.6897  2.9961
  146SAPE  H17Y16078  -0.358   2.370   4.860 -1.0346 -0.7477  0.6033
  146SAPE  C31816079  -0.250   2.194   4.916  0.0460 -0.2500  0.0974
  146SAPE  H18X16080  -0.331   2.170   4.988  0.5653 -1.6653  0.2353
  146SAPE  H18Y16081  -0.155   2.166   4.968 -0.1934 -2.2024 -0.4587
  146SAPE  H18Z16082  -0.267   2.130   4.828 -0.1333 -0.6308  0.4104
  147SAPE     N16083   4.194   1.042   7.586 -0.6137  0.2797 -0.5791
  147SAPE   HN116084   4.117   1.097   7.630 -0.6503  0.2180 -0.5653
  147SAPE   HN216085   4.151   0.948   7.577 -1.0344  0.1978  1.6575
  147SAPE   HN316086   4.273   1.035   7.654 -0.2475  0.0184 -1.0236
  147SAPE   C1216087   4.239   1.116   7.459 -1.1545  0.4429  0.3485
  147SAPE  H12A16088   4.144   1.137   7.406  0.2514  1.4229 -1.9435
  147SAPE  H12B16089   4.297   1.042   7.399 -1.4798 -1.2149  1.9871
  147SAPE   C1116090   4.332   1.244   7.477  0.4003  0.7507 -0.2367
  147SAPE  H11A16091   4.351   1.290   7.377 -0.4157  1.1892 -0.2082
  147SAPE  H11B16092   4.430   1.209   7.515  0.1037  2.8000  2.8367
  147SAPE     P16093   4.339   1.483   7.600 -0.2066 -0.2475 -0.1482
  147SAPE   O1316094   4.233   1.548   7.678 -0.7045 -0.6651 -0.4354
  147SAPE   O1416095   4.474   1.475   7.660  0.2515  0.0096 -0.2049
  147SAPE   O1216096   4.273   1.339   7.563 -0.2437 -0.2793  0.2511
  147SAPE   O1116097   4.356   1.547   7.457 -0.0527 -0.9210  0.0628
  147SAPE    C116098   4.263   1.638   7.392  0.2296  0.3178  0.3994
  147SAPE    HA16099   4.219   1.715   7.460  2.3321  1.0933  0.9487
  147SAPE    HB16100   4.313   1.688   7.307  0.2584 -0.7094 -0.2045
  147SAPE    C216101   4.154   1.552   7.321  0.4322  0.2427  0.2918
  147SAPE    HS16102   4.112   1.490   7.403  0.4596 -2.1376 -1.4024
  147SAPE   O2116103   4.212   1.465   7.226 -0.1727  0.5410  0.7990
  147SAPE   C2116104   4.130   1.365   7.181 -0.7161 -0.1267 -0.4421
  147SAPE   O2216105   4.019   1.348   7.230  0.1380  0.2824 -0.3540
  147SAPE   C2216106   4.202   1.290   7.073 -0.6366 -0.4166 -0.1123
  147SAPE   H2R16107   4.215   1.354   6.983 -0.9844 -0.4435 -0.1818
  147SAPE   H2S16108   4.303   1.268   7.113 -1.0079  1.3969  2.0063
  147SAPE    C316109   4.039   1.641   7.266 -0.1117 -0.1267  0.1768
  147SAPE    HX16110   4.008   1.702   7.354 -0.9155  1.3841 -1.1055
  147SAPE    HY16111   3.953   1.577   7.237 -1.6187  1.7349  0.2974
  147SAPE   O3116112   4.086   1.737   7.165  0.0982 -0.2054  0.5610
  147SAPE   C3116113   4.076   1.694   7.038 -0.2854  0.2954  0.3646
  147SAPE   O3216114   4.029   1.589   7.002  0.5552 -0.0745 -0.1078
  147SAPE   C3216115   4.145   1.793   6.943  0.0252  0.0343 -0.9807
  147SAPE   H2X16116   4.254   1.799   6.964  0.4989  1.2523 -3.4497
  147SAPE   H2Y16117   4.085   1.882   6.972  0.2743  0.0109 -0.3694
  147SAPE   C2316118   4.135   1.159   7.035 -0.0407  0.3879 -0.0427
  147SAPE   H3R16119   4.031   1.184   7.007  0.8350  1.6385 -2.4724
  147SAPE   H3S16120   4.138   1.095   7.125 -0.3855  0.2838 -0.1025
  147SAPE   C2416121   4.193   1.109   6.904 -0.3406 -0.0784  0.0520
  147SAPE   H4R16122   4.163   1.167   6.815 -0.5806  0.4193  0.4580
  147SAPE   H4S16123   4.131   1.017   6.900 -3.5870  1.9632  0.5396
  147SAPE   C2516124   4.337   1.070   6.904 -0.3194 -0.7798  0.0744
  147SAPE   H5R16125   4.377   1.044   7.003 -0.6793  1.6338  0.9287
  147SAPE   C2616126   4.413   1.082   6.791 -0.2440  0.0472 -0.3991
  147SAPE   H6R16127   4.518   1.049   6.790 -1.0254 -2.7395 -1.5050
  147SAPE   C2716128   4.360   1.113   6.654 -0.2727  0.0411 -0.0596
  147SAPE   H7R16129   4.256   1.078   6.635  0.8862 -4.1765  0.3949
  147SAPE   H7S16130   4.407   1.052   6.574 -2.1752 -0.8324 -0.5709
  147SAPE   C2816131   4.361   1.262   6.632 -0.1752 -0.5700  0.6683
  147SAPE   H8R16132   4.319   1.315   6.718 -0.4296  1.0451 -0.4052
  147SAPE   C2916133   4.413   1.337   6.530  0.6943 -0.2317  1.1153
  147SAPE   H9R16134   4.405   1.446   6.525 -0.4582 -0.3301  0.0220
  147SAPE  C21016135   4.487   1.279   6.411  0.4246  0.4388  0.5984
  147SAPE  H10R16136   4.564   1.209   6.450  1.1029  0.1992 -1.0980
  147SAPE  H10S16137   4.546   1.361   6.363 -0.5603 -1.0598 -3.6019
  147SAPE  C21116138   4.414   1.181   6.313 -0.4575  0.0948  0.1052
  147SAPE  H11R16139   4.376   1.090   6.362  1.2983 -0.1868  1.0051
  147SAPE  C21216140   4.395   1.200   6.175 -0.7630  1.3651 -0.0486
  147SAPE  H12R16141   4.337   1.125   6.120  0.9339 -0.0835  0.0289
  147SAPE  C21316142   4.433   1.326   6.103 -0.6157  0.2196  0.1583
  147SAPE  H13R16143   4.477   1.405   6.168  0.0094  0.4339 -0.5119
  147SAPE  H13S16144   4.341   1.366   6.054 -0.9392 -0.1212  0.4813
  147SAPE  C21416145   4.518   1.304   5.982  0.4728  0.7275 -0.4251
  147SAPE  H14R16146   4.628   1.309   5.990  0.3465  1.0837  1.5239
  147SAPE  C21516147   4.475   1.263   5.860  0.6420 -0.1326  0.3511
  147SAPE  H15R16148   4.547   1.265   5.777  0.6292  3.2308  0.2709
  147SAPE  C21616149   4.323   1.251   5.827  0.8787  0.4017 -0.8138
  147SAPE  H16R16150   4.257   1.326   5.874  1.4118 -0.2973  1.1765
  147SAPE  H16S16151   4.280   1.154   5.862  1.1264  0.1241 -1.2711
  147SAPE  C21716152   4.295   1.263   5.676 -0.8061 -0.3740 -0.4621
  147SAPE  H17R16153   4.353   1.347   5.632 -1.0710  0.3922  0.6252
  147SAPE  H17S16154   4.186   1.281   5.670 -0.9406 -0.9627  0.0288
  147SAPE  C21816155   4.336   1.129   5.618 -0.3849  0.0849  0.1406
  147SAPE  H18R16156   4.277   1.049   5.668 -0.0701  0.4228  1.0807
  147SAPE  H18S16157   4.443   1.112   5.641 -0.5855 -2.7409 -0.7137
  147SAPE  C21916158   4.307   1.115   5.468 -0.7202 -0.0660 -0.0790
  147SAPE  H19R16159   4.200   1.134   5.447 -1.1590  0.9960  2.7201
  147SAPE  H19S16160   4.329   1.011   5.436  1.1804  0.2290  0.1152
  147SAPE  C22016161   4.385   1.224   5.396 -0.0414  0.2784  0.2831
  147SAPE  H20R16162   4.329   1.319   5.414  0.9466  0.7759  0.7691
  147SAPE  H20S16163   4.390   1.198   5.288 -1.3032 -2.3223  0.7725
  147SAPE  H20T16164   4.492   1.224   5.425  0.6885 -1.7324 -2.0663
  147SAPE   C3316165   4.138   1.744   6.800  0.2591 -0.7456 -0.0031
  147SAPE   H3X16166   4.037   1.706   6.775 -0.4185  1.5803 -1.0883
  147SAPE   H3Y16167   4.213   1.668   6.770  0.4363 -0.9894  1.0069
  147SAPE   C3416168   4.153   1.856   6.691  0.0000  0.7394 -0.1411
  147SAPE   H4X16169   4.259   1.888   6.688  0.4493 -0.7660 -2.5697
  147SAPE   H4Y16170   4.097   1.948   6.719  0.4665  1.1862 -0.6597
  147SAPE   C3516171   4.108   1.801   6.554 -0.2247 -0.8365  0.0351
  147SAPE   H5X16172   4.098   1.898   6.501 -0.2306 -0.3786  0.8717
  147SAPE   H5Y16173   4.006   1.761   6.574 -1.1661  1.1322 -0.6374
  147SAPE   C3616174   4.217   1.706   6.504 -0.5812 -0.1794  0.9283
  147SAPE   H6X16175   4.240   1.620   6.571  1.1041  0.1404  0.7907
  147SAPE   H6Y16176   4.313   1.759   6.486 -0.5880 -0.7712 -1.0066
  147SAPE   C3716177   4.172   1.648   6.371 -0.3488 -0.6154  0.5914
  147SAPE   H7X16178   4.065   1.617   6.374 -0.7444  0.7177  1.0318
  147SAPE   H7Y16179   4.250   1.570   6.353  1.2642  1.2412 -0.9234
  147SAPE   C3816180   4.176   1.746   6.247 -0.0240  0.7277 -0.0144
  147SAPE   H8X16181   4.280   1.786   6.245  0.3120 -0.1284 -1.1592
  147SAPE   H8Y16182   4.111   1.833   6.269 -0.1397  0.7614 -0.4782
  147SAPE   C3916183   4.144   1.671   6.111 -0.6482  0.0643 -0.2732
  147SAPE   H9X16184   4.060   1.603   6.135 -0.6878  0.0406 -0.4761
  147SAPE   H9Y16185   4.222   1.598   6.080 -0.5518 -0.2355  0.6289
  147SAPE  C31016186   4.124   1.763   5.984  0.7085  0.3394 -0.4275
  147SAPE  H10X16187   4.196   1.845   6.002  0.8688 -0.0768  0.9262
  147SAPE  H10Y16188   4.020   1.803   5.976  1.4242  2.0743 -1.5175
  147SAPE  C31116189   4.171   1.697   5.852 -0.4754 -0.6854 -0.4156
  147SAPE  H11X16190   4.114   1.605   5.826 -1.5357 -0.4121  0.8323
  147SAPE  H11Y16191   4.276   1.664   5.864 -0.8664 -1.5962  0.6158
  147SAPE  C31216192   4.166   1.793   5.740 -0.7516 -0.1340 -0.0854
  147SAPE  H12X16193   4.199   1.890   5.783 -0.9671 -0.0823 -0.0352
  147SAPE  H12Y16194   4.061   1.800   5.703 -0.4540 -0.1860 -0.9526
  147SAPE  C31316195   4.264   1.769   5.623 -0.5836 -0.0303 -0.5213
  147SAPE  H13X16196   4.363   1.769   5.673  1.4353  2.0062 -4.0921
  147SAPE  H13Y16197   4.277   1.846   5.544  1.4246  1.4824  1.1560
  147SAPE  C31416198   4.269   1.639   5.562 -0.3122  0.5679  0.4654
  147SAPE  H14X16199   4.251   1.561   5.639 -0.0209  0.7219  0.6915
  147SAPE  H14Y16200   4.366   1.613   5.514 -0.8351  0.1052 -0.3537
  147SAPE  C31516201   4.162   1.633   5.457 -0.1087  0.5385  0.4234
  147SAPE  H15X16202   4.177   1.719   5.388  0.2953  1.4808  1.6398
  147SAPE  H15Y16203   4.069   1.673   5.504 -0.7383  3.0673 -2.6464
  147SAPE  C31616204   4.142   1.494   5.389  0.2038 -0.5349  0.2484
  147SAPE  H16X16205   4.132   1.406   5.457 -1.7871 -1.3656 -1.0250
  147SAPE  H16Y16206   4.237   1.485   5.333  1.4147 -0.0580  2.1232
  147SAPE  C31716207   4.030   1.499   5.288  0.3617 -0.1615  0.5134
  147SAPE  H17X16208   3.940   1.533   5.344 -0.2366 -0.2244 -0.3900
  147SAPE  H17Y16209   4.019   1.391   5.269  0.0317 -0.3896  1.8650
  147SAPE  C31816210   4.061   1.590   5.160  0.2811  0.4064 -0.2499
  147SAPE  H18X16211   3.979   1.579   5.086 -1.9420 -0.4340  2.1935
  147SAPE  H18Y16212   4.158   1.577   5.108 -0.6544  0.9751 -2.2358
  147SAPE  H18Z16213   4.061   1.697   5.191 -1.9604  0.4634 -0.3287
  148SAPE     N16214   3.422   6.229   7.449  0.0620 -0.1222  0.5613
  148SAPE   HN116215   3.345   6.183   7.501 -0.9565  0.4757 -0.3832
  148SAPE   HN216216   3.513   6.192   7.485  0.3710 -1.1520 -1.1677
  148SAPE   HN316217   3.422   6.331   7.471  0.4030 -0.1872  0.8719
  148SAPE   C1216218   3.415   6.214   7.296 -0.7821 -0.5739 -0.5965
  148SAPE  H12A16219   3.323   6.258   7.252 -1.0974 -2.0564 -1.4756
  148SAPE  H12B16220   3.408   6.106   7.270  2.1109 -0.4072 -2.5810
  148SAPE   C1116221   3.527   6.286   7.233 -0.8583 -0.0050  0.5227
  148SAPE  H11A16222   3.508   6.393   7.253  3.5371  0.8141  1.1877
  148SAPE  H11B16223   3.508   6.268   7.125 -0.0243 -0.8477  0.5086
  148SAPE     P16224   3.716   6.106   7.232 -0.1396 -0.1327  0.0270
  148SAPE   O1316225   3.852   6.077   7.285  0.1274  0.0282  0.3821
  148SAPE   O1416226   3.618   5.999   7.241  0.2183  0.0980  0.1617
  148SAPE   O1216227   3.660   6.243   7.288 -0.9370 -0.1928  0.8671
  148SAPE   O1116228   3.750   6.131   7.079 -0.9586  0.0979 -0.4710
  148SAPE    C116229   3.849   6.227   7.042  0.6802 -0.7821 -0.2312
  148SAPE    HA16230   3.800   6.326   7.034  0.8398 -0.7060 -0.2759
  148SAPE    HB16231   3.934   6.239   7.112 -0.0356  1.4621  0.3322
  148SAPE    C216232   3.902   6.192   6.904 -0.0548 -0.6239  0.4756
  148SAPE    HS16233   3.823   6.179   6.827 -3.5791 -1.1431  3.8672
  148SAPE   O2116234   3.979   6.073   6.920 -0.4341 -0.4262 -0.3056
  148SAPE   C2116235   3.912   5.962   6.894  0.6184  0.6140  0.3997
  148SAPE   O2216236   3.808   5.956   6.831  0.6329  0.4285  0.7904
  148SAPE   C2216237   3.984   5.845   6.951  0.3178 -0.6914 -0.9329
  148SAPE   H2R16238   4.094   5.864   6.954  0.3339 -0.8849  0.0417
  148SAPE   H2S16239   3.954   5.844   7.058 -0.7024 -0.2390 -1.2098
  148SAPE    C316240   3.997   6.302   6.854  0.2495 -0.1892  0.8747
  148SAPE    HX16241   4.080   6.315   6.926  2.0147 -0.7854 -0.9252
  148SAPE    HY16242   3.937   6.395   6.857 -0.8024 -0.6526 -2.1185
  148SAPE   O3116243   4.037   6.281   6.713 -0.0531  0.3466  0.5232
  148SAPE   C3116244   4.156   6.218   6.710  0.2466  0.1660 -0.5891
  148SAPE   O3216245   4.241   6.210   6.797  0.2450  0.6684 -0.0519
  148SAPE   C3216246   4.171   6.153   6.575 -0.2898  0.6096 -0.1909
  148SAPE   H2X16247   4.271   6.105   6.568 -0.8525 -0.9399  1.5326
  148SAPE   H2Y16248   4.171   6.234   6.499  0.7721  0.1473 -0.7041
  148SAPE   C2316249   3.947   5.715   6.884  0.1063  0.5907 -0.5715
  148SAPE   H3R16250   3.840   5.702   6.856 -0.3761 -0.2562  1.4781
  148SAPE   H3S16251   3.961   5.638   6.964 -1.9596  0.1953 -0.5208
  148SAPE   C2416252   4.037   5.681   6.760 -0.3686  0.2604  0.2290
  148SAPE   H4R16253   4.138   5.694   6.804  0.9915  2.2909 -3.1238
  148SAPE   H4S16254   4.023   5.760   6.683  1.5045  2.3297  1.8613
  148SAPE   C2516255   4.030   5.541   6.697  0.2325  0.5088  0.1731
  148SAPE   H5R16256   3.985   5.459   6.755 -0.3293 -0.3918 -1.4702
  148SAPE   C2616257   4.066   5.500   6.572  0.8137 -0.6492 -0.9414
  148SAPE   H6R16258   4.037   5.399   6.540 -2.8365 -0.4431  1.1073
  148SAPE   C2716259   4.109   5.599   6.471 -0.7613 -0.1266  0.3653
  148SAPE   H7R16260   4.147   5.690   6.524 -0.5381  1.6363 -2.5855
  148SAPE   H7S16261   4.025   5.632   6.406 -0.1437 -0.7666 -0.7957
  148SAPE   C2816262   4.230   5.547   6.401  0.0665  0.9777  1.3292
  148SAPE   H8R16263   4.327   5.536   6.453 -0.1437  0.5027  1.6303
  148SAPE   C2916264   4.241   5.511   6.268 -0.4378 -0.7026 -0.5198
  148SAPE   H9R16265   4.336   5.465   6.235  1.8775  1.7395  2.1466
  148SAPE  C21016266   4.131   5.517   6.162 -0.3900  0.5425  0.2773
  148SAPE  H10R16267   4.040   5.467   6.201 -1.6558  0.9949 -1.9313
  148SAPE  H10S16268   4.181   5.455   6.085  2.5481  2.9247  0.0614
  148SAPE  C21116269   4.096   5.657   6.113 -0.0045  0.5091 -0.1235
  148SAPE  H11R16270   4.091   5.729   6.196 -0.1869 -0.3274  0.6073
  148SAPE  C21216271   4.066   5.712   5.986 -0.5856  0.1973  0.6359
  148SAPE  H12R16272   4.059   5.821   5.986  2.9685  0.5554  1.7561
  148SAPE  C21316273   4.081   5.631   5.856  0.3045 -0.3893 -0.2409
  148SAPE  H13R16274   3.992   5.628   5.789 -0.3224 -0.4092  0.5792
  148SAPE  H13S16275   4.073   5.525   5.888 -2.8216  0.0210  0.7297
  148SAPE  C21416276   4.201   5.654   5.763 -0.2351  0.5889  0.2750
  148SAPE  H14R16277   4.301   5.623   5.798 -0.1905  1.6892  1.1778
  148SAPE  C21516278   4.198   5.732   5.657 -0.3568  0.1855 -0.2307
  148SAPE  H15R16279   4.285   5.727   5.590 -1.3073 -0.3794 -1.4607
  148SAPE  C21616280   4.082   5.812   5.602  0.4032 -0.2949  0.6531
  148SAPE  H16R16281   4.128   5.908   5.572 -2.3903  0.5456 -1.3333
  148SAPE  H16S16282   4.001   5.837   5.673 -0.8992 -0.1686 -0.8207
  148SAPE  C21716283   4.028   5.751   5.473  0.7476 -0.6479 -0.0757
  148SAPE  H17R16284   3.985   5.651   5.491 -3.1043  0.9735  0.7408
  148SAPE  H17S16285   4.109   5.751   5.396  1.3540  0.6097  0.5194
  148SAPE  C21816286   3.913   5.833   5.425  0.7892 -0.2112 -0.4751
  148SAPE  H18R16287   3.946   5.938   5.437  1.4226 -0.4875  0.2394
  148SAPE  H18S16288   3.822   5.828   5.488  0.8813 -1.3087 -0.4188
  148SAPE  C21916289   3.890   5.823   5.272  0.5380 -0.1840  0.5776
  148SAPE  H19R16290   3.780   5.818   5.254  0.8209 -1.0057 -1.1229
  148SAPE  H19S16291   3.940   5.735   5.225  1.3110  0.1480  0.7572
  148SAPE  C22016292   3.937   5.952   5.202  0.4837 -0.2950  0.3074
  148SAPE  H20R16293   3.863   6.035   5.202  2.0375  1.2378 -2.6798
  148SAPE  H20S16294   3.968   5.937   5.097  0.3561 -1.6573  0.4363
  148SAPE  H20T16295   4.029   5.990   5.252  0.4310  2.6510 -1.6517
  148SAPE   C3316296   4.068   6.047   6.550 -0.0769 -0.0457  0.0842
  148SAPE   H3X16297   3.962   6.082   6.551  0.3841  1.4722  1.8955
  148SAPE   H3Y16298   4.059   5.963   6.623 -2.9927  0.6559  0.6542
  148SAPE   C3416299   4.095   5.987   6.408  0.8607 -0.3914 -0.8525
  148SAPE   H4X16300   4.008   5.925   6.376 -0.2271  1.8614 -2.4961
  148SAPE   H4Y16301   4.184   5.920   6.408  1.0794 -0.1097 -1.9302
  148SAPE   C3516302   4.112   6.091   6.303  0.3907 -0.0751  0.8155
  148SAPE   H5X16303   4.213   6.135   6.293  1.4053 -1.4669  3.7584
  148SAPE   H5Y16304   4.031   6.165   6.321 -1.2958 -1.8636  0.9877
  148SAPE   C3616305   4.083   6.035   6.161  0.9828  0.1180  1.3367
  148SAPE   H6X16306   3.978   5.999   6.161  1.1816 -0.4623  1.4690
  148SAPE   H6Y16307   4.151   5.948   6.148 -2.4405 -2.5982 -0.0286
  148SAPE   C3716308   4.103   6.150   6.051 -0.2445  0.7434  0.6776
  148SAPE   H7X16309   4.208   6.187   6.056 -0.3617  1.2142 -0.1907
  148SAPE   H7Y16310   4.029   6.230   6.072 -1.3493 -0.4027  1.2967
  148SAPE   C3816311   4.086   6.095   5.909  0.8983 -0.3283  0.9552
  148SAPE   H8X16312   3.976   6.085   5.896  1.0492  0.3201 -1.3539
  148SAPE   H8Y16313   4.148   6.005   5.891 -0.5160 -1.7260  2.7153
  148SAPE   C3916314   4.126   6.205   5.806  0.5936 -0.3585  0.4137
  148SAPE   H9X16315   4.235   6.220   5.823  0.5750  1.5684 -0.7974
  148SAPE   H9Y16316   4.071   6.298   5.832 -0.2798 -0.4963 -0.8238
  148SAPE  C31016317   4.099   6.166   5.659 -0.1723  0.0710 -0.1500
  148SAPE  H10X16318   3.990   6.149   5.642 -0.2304  0.4369 -0.1567
  148SAPE  H10Y16319   4.159   6.076   5.639  1.0456  0.9165 -0.4097
  148SAPE  C31116320   4.129   6.287   5.567  0.0514 -0.5263  0.2685
  148SAPE  H11X16321   4.234   6.323   5.575 -0.3851  0.9053 -0.0537
  148SAPE  H11Y16322   4.072   6.376   5.602  0.8668  0.7059 -1.3838
  148SAPE  C31216323   4.107   6.260   5.419 -0.9028 -0.0123 -0.0199
  148SAPE  H12X16324   4.009   6.210   5.404 -0.5806 -0.8862  0.6813
  148SAPE  H12Y16325   4.178   6.181   5.385 -1.5089  0.2312 -2.0082
  148SAPE  C31316326   4.121   6.382   5.334 -0.2570 -0.1385 -0.8387
  148SAPE  H13X16327   4.231   6.396   5.332 -0.0947 -1.0346  0.5273
  148SAPE  H13Y16328   4.076   6.476   5.374  0.8386  1.5979 -3.4032
  148SAPE  C31416329   4.072   6.370   5.193  0.2829 -0.5719 -0.0586
  148SAPE  H14X16330   4.076   6.471   5.147  1.0666  0.2952  1.8024
  148SAPE  H14Y16331   3.967   6.335   5.195 -2.1023  5.2655 -2.3060
  148SAPE  C31516332   4.144   6.269   5.095 -0.0984 -0.0931  0.3792
  148SAPE  H15X16333   4.150   6.170   5.145 -0.8726 -0.1695  0.3472
  148SAPE  H15Y16334   4.245   6.312   5.079 -0.4539  0.4682 -0.4665
  148SAPE  C31616335   4.074   6.280   4.957 -0.5055 -0.2056 -0.0318
  148SAPE  H16X16336   4.097   6.383   4.924  2.2242  0.5792  3.6003
  148SAPE  H16Y16337   3.965   6.263   4.967 -0.6676  1.0990  0.6086
  148SAPE  C31716338   4.120   6.173   4.857 -0.5373 -0.2563 -0.1059
  148SAPE  H17X16339   4.046   6.152   4.776  1.0269  1.7027 -2.1747
  148SAPE  H17Y16340   4.115   6.072   4.903  0.7620 -0.8598 -1.1956
  148SAPE  C31816341   4.265   6.184   4.798  0.5952 -0.2437 -0.0139
  148SAPE  H18X16342   4.282   6.253   4.712  3.5252 -1.8571 -0.8706
  148SAPE  H18Y16343   4.305   6.085   4.767 -0.6076 -0.7106 -0.1314
  148SAPE  H18Z16344   4.330   6.209   4.884  0.0735  1.2440 -0.0093
  149SAPE     N16345   3.654   4.734   7.314 -0.1289  0.6163  0.0903
  149SAPE   HN116346   3.590   4.653   7.323  0.2464  0.5705  4.1186
  149SAPE   HN216347   3.746   4.685   7.321  0.4543  1.7603  0.6830
  149SAPE   HN316348   3.641   4.801   7.392 -1.0234 -0.1102  0.5861
  149SAPE   C1216349   3.642   4.801   7.176  0.5291  0.1331 -0.0093
  149SAPE  H12A16350   3.722   4.877   7.160 -0.5729  0.8778 -2.2572
  149SAPE  H12B16351   3.543   4.849   7.169 -0.4245 -1.4218  1.7651
  149SAPE   C1116352   3.635   4.685   7.068 -0.0680 -0.4057 -0.2049
  149SAPE  H11A16353   3.738   4.655   7.039 -0.8413 -2.4115 -1.1257
  149SAPE  H11B16354   3.588   4.740   6.983  0.8706  1.8688  0.6729
  149SAPE     P16355   3.539   4.423   7.052  0.1600 -0.2988 -0.0057
  149SAPE   O1316356   3.667   4.391   6.984 -0.1719 -0.1982 -0.3944
  149SAPE   O1416357   3.508   4.338   7.170 -0.2583  0.5033  0.5923
  149SAPE   O1216358   3.552   4.569   7.106 -0.0616 -0.0563  0.1035
  149SAPE   O1116359   3.421   4.433   6.952 -0.1130  0.2118 -0.0138
  149SAPE    C116360   3.456   4.469   6.814  0.2293 -0.5938 -0.2211
  149SAPE    HA16361   3.498   4.571   6.821 -0.9301 -0.0339 -1.0292
  149SAPE    HB16362   3.526   4.397   6.766  1.6245  1.6083 -1.6546
  149SAPE    C216363   3.330   4.485   6.728 -0.1889  0.1679 -0.0474
  149SAPE    HS16364   3.247   4.530   6.786 -0.9971 -0.6042 -0.5814
  149SAPE   O2116365   3.288   4.353   6.689 -0.7208  0.3758  0.3667
  149SAPE   C2116366   3.163   4.348   6.658  0.3210 -0.0179 -0.9618
  149SAPE   O2216367   3.084   4.442   6.660 -0.4338  0.1636 -0.2987
  149SAPE   C2216368   3.120   4.208   6.615  0.2156  0.4449  0.3925
  149SAPE   H2R16369   3.198   4.153   6.558 -1.8968 -2.8891  0.4054
  149SAPE   H2S16370   3.098   4.137   6.699  0.0784  0.1136  0.0807
  149SAPE    C316371   3.362   4.579   6.603  0.2276  0.4029 -0.7780
  149SAPE    HX16372   3.385   4.682   6.638  0.1377  0.7269 -1.6483
  149SAPE    HY16373   3.269   4.607   6.549 -0.9247  2.8149  2.1374
  149SAPE   O3116374   3.467   4.523   6.524  0.4431 -0.0605  0.1526
  149SAPE   C3116375   3.430   4.426   6.440  0.0637  0.4227 -0.6943
  149SAPE   O3216376   3.317   4.415   6.397 -0.1620 -0.2923 -0.0188
  149SAPE   C3216377   3.552   4.347   6.393 -0.1274  0.0596  0.0423
  149SAPE   H2X16378   3.588   4.277   6.472  0.9055 -3.5403 -3.2935
  149SAPE   H2Y16379   3.637   4.414   6.369  0.0349  0.1603  0.8486
  149SAPE   C2316380   2.997   4.222   6.518 -0.3874 -0.3041  1.1335
  149SAPE   H3R16381   2.963   4.328   6.524 -1.2597 -0.5651  0.8942
  149SAPE   H3S16382   2.910   4.170   6.563  0.5323 -1.4666  1.6330
  149SAPE   C2416383   3.019   4.189   6.376 -0.0463 -0.2132 -0.2310
  149SAPE   H4R16384   3.113   4.231   6.336 -0.2290  0.4351  0.0113
  149SAPE   H4S16385   2.940   4.236   6.314  0.0916  1.4723  0.8067
  149SAPE   C2516386   3.015   4.041   6.345 -0.1356 -0.7077  0.0799
  149SAPE   H5R16387   2.989   3.978   6.431  0.7757  0.9662  1.6410
  149SAPE   C2616388   3.041   3.993   6.224 -0.9524  0.2010 -0.2492
  149SAPE   H6R16389   3.057   3.885   6.209  0.6237  0.6978 -2.6401
  149SAPE   C2716390   3.086   4.069   6.098  0.4479 -0.6550  0.3672
  149SAPE   H7R16391   3.082   4.179   6.113 -0.7647 -0.1948 -2.5759
  149SAPE   H7S16392   3.000   4.051   6.030 -0.0377  1.5795  0.3101
  149SAPE   C2816393   3.216   4.028   6.041 -0.9344  0.0310  0.2958
  149SAPE   H8R16394   3.289   3.987   6.112 -3.3309 -1.1975  2.2134
  149SAPE   C2916395   3.239   4.004   5.905  0.1924 -0.1271 -0.2316
  149SAPE   H9R16396   3.342   3.976   5.877  0.1566  0.2869 -0.8042
  149SAPE  C21016397   3.142   4.035   5.795  0.4788 -0.5433 -0.2247
  149SAPE  H10R16398   3.203   4.078   5.713  0.4339 -0.3393 -0.1496
  149SAPE  H10S16399   3.062   4.109   5.816  0.8985 -0.1404 -0.0310
  149SAPE  C21116400   3.072   3.909   5.734 -0.9926  0.1802 -0.8193
  149SAPE  H11R16401   3.028   3.850   5.816  0.0583 -0.3901 -0.6550
  149SAPE  C21216402   3.059   3.872   5.606  0.2130 -0.3563 -0.0919
  149SAPE  H12R16403   3.001   3.783   5.577 -1.5088  0.6303  0.1729
  149SAPE  C21316404   3.123   3.950   5.490 -0.5064 -0.4804 -0.1165
  149SAPE  H13R16405   3.097   4.055   5.514  1.0793  0.1001 -0.8095
  149SAPE  H13S16406   3.067   3.930   5.397 -0.4793  2.7528 -0.9365
  149SAPE  C21416407   3.269   3.934   5.465 -0.3339  0.0681  0.5014
  149SAPE  H14R16408   3.330   3.877   5.537  0.8628 -0.6709 -1.0476
  149SAPE  C21516409   3.331   3.993   5.361 -0.1963  0.4697 -0.8844
  149SAPE  H15R16410   3.438   3.992   5.335 -0.0650  0.7778 -0.3600
  149SAPE  C21616411   3.267   4.075   5.247 -0.3249 -0.0824  0.5971
  149SAPE  H16R16412   3.320   4.170   5.224  0.7728 -0.9678 -0.7027
  149SAPE  H16S16413   3.165   4.104   5.280 -0.5385  0.8262 -0.7903
  149SAPE  C21716414   3.257   4.012   5.107 -0.0810  0.9502  0.7048
  149SAPE  H17R16415   3.174   3.939   5.118 -0.0386  0.7023 -0.4647
  149SAPE  H17S16416   3.350   3.955   5.088  0.5590  2.0629  0.4105
  149SAPE  C21816417   3.237   4.111   4.989 -0.1591  0.2116 -0.0600
  149SAPE  H18R16418   3.335   4.163   4.984 -0.1875  0.4029  1.0844
  149SAPE  H18S16419   3.154   4.184   5.002  0.5394  1.0831 -0.3802
  149SAPE  C21916420   3.209   4.024   4.864  0.1083  0.1366  0.1698
  149SAPE  H19R16421   3.163   4.092   4.789 -1.2531 -1.5946 -0.6256
  149SAPE  H19S16422   3.133   3.945   4.883  0.5218 -0.0110  1.3037
  149SAPE  C22016423   3.345   3.964   4.816 -0.1685  0.0322  0.1616
  149SAPE  H20R16424   3.336   3.892   4.733  0.9416 -0.3621  0.3643
  149SAPE  H20S16425   3.397   3.898   4.888 -0.5905 -0.1604  0.2956
  149SAPE  H20T16426   3.415   4.048   4.798 -0.4107 -0.1780 -1.9317
  149SAPE   C3316427   3.502   4.265   6.269 -0.5535 -0.1648  0.5801
  149SAPE   H3X16428   3.490   4.339   6.188  2.2567  1.3685  1.4665
  149SAPE   H3Y16429   3.403   4.214   6.279 -0.0572 -1.9631 -2.4179
  149SAPE   C3416430   3.611   4.160   6.228  0.0045 -0.2672 -1.0027
  149SAPE   H4X16431   3.608   4.079   6.304 -0.9166  2.6720  2.3238
  149SAPE   H4Y16432   3.712   4.202   6.248 -0.1802  0.4728 -1.5850
  149SAPE   C3516433   3.583   4.096   6.092  0.7736  0.2866  0.5599
  149SAPE   H5X16434   3.474   4.104   6.073  0.8242  2.3356  0.9060
  149SAPE   H5Y16435   3.609   3.988   6.096  0.6256  0.2524  0.5991
  149SAPE   C3616436   3.654   4.175   5.976  0.0030  0.5630 -1.1023
  149SAPE   H6X16437   3.764   4.158   5.980 -0.0401  0.4936  0.1238
  149SAPE   H6Y16438   3.643   4.285   5.989 -0.1555  0.4627 -0.3547
  149SAPE   C3716439   3.595   4.148   5.836  0.6121  0.5374  1.2684
  149SAPE   H7X16440   3.484   4.151   5.828  0.5666  0.4669  1.8323
  149SAPE   H7Y16441   3.611   4.042   5.806 -2.8165  0.6840 -1.8218
  149SAPE   C3816442   3.659   4.230   5.722  0.1116 -0.7224  0.1036
  149SAPE   H8X16443   3.767   4.206   5.707  0.5378  2.1100 -2.3619
  149SAPE   H8Y16444   3.661   4.338   5.748 -2.3020 -0.6005 -0.0529
  149SAPE   C3916445   3.587   4.205   5.588  0.0414 -0.2238  0.4406
  149SAPE   H9X16446   3.485   4.249   5.590  0.8560  1.8638 -1.1276
  149SAPE   H9Y16447   3.579   4.096   5.566 -0.0560 -0.1373  0.0477
  149SAPE  C31016448   3.659   4.277   5.472 -0.4026  0.1828 -0.2250
  149SAPE  H10X16449   3.769   4.269   5.485 -0.5632  0.8715  1.9853
  149SAPE  H10Y16450   3.625   4.382   5.479 -3.4282 -0.7870  2.2855
  149SAPE  C31116451   3.616   4.221   5.333 -0.0721 -0.1263 -0.0136
  149SAPE  H11X16452   3.506   4.225   5.320 -0.1399  0.1065  0.5842
  149SAPE  H11Y16453   3.645   4.114   5.323 -0.8896 -0.4598  1.0472
  149SAPE  C31216454   3.674   4.306   5.217 -0.8618  0.0622  0.1436
  149SAPE  H12X16455   3.778   4.268   5.204 -1.3788 -1.3534 -0.0938
  149SAPE  H12Y16456   3.687   4.410   5.252 -0.9494 -0.2153  1.0174
  149SAPE  C31316457   3.614   4.299   5.079 -0.5672  0.6541  0.0747
  149SAPE  H13X16458   3.525   4.364   5.075 -0.2652  1.0382 -0.5039
  149SAPE  H13Y16459   3.598   4.191   5.056  1.8308  0.1680  0.4278
  149SAPE  C31416460   3.711   4.354   4.971 -0.2985  0.1346 -0.2536
  149SAPE  H14X16461   3.793   4.280   4.963  0.3339  0.9504 -1.4863
  149SAPE  H14Y16462   3.771   4.441   5.004  2.2470 -1.4292 -0.5384
  149SAPE  C31516463   3.663   4.369   4.828  0.0749  0.1902  1.0057
  149SAPE  H15X16464   3.642   4.263   4.802  3.7029 -0.3581 -0.1612
  149SAPE  H15Y16465   3.745   4.410   4.766 -0.0835  1.9520  1.8900
  149SAPE  C31616466   3.543   4.461   4.819 -0.0208  1.0261 -0.0915
  149SAPE  H16X16467   3.468   4.432   4.896  0.3821  1.5814  0.5159
  149SAPE  H16Y16468   3.510   4.457   4.713  0.7795 -1.2889 -0.3095
  149SAPE  C31716469   3.571   4.613   4.847  0.3323 -0.0507 -0.6469
  149SAPE  H17X16470   3.561   4.612   4.958  0.4414 -1.1903 -0.6347
  149SAPE  H17Y16471   3.492   4.679   4.805 -1.2914 -1.8121 -0.5200
  149SAPE  C31816472   3.698   4.671   4.793 -0.5394 -0.7507 -0.6139
  149SAPE  H18X16473   3.719   4.627   4.693 -1.9055 -1.5418 -0.5701
  149SAPE  H18Y16474   3.782   4.637   4.857 -0.0695 -2.1347 -1.9209
  149SAPE  H18Z16475   3.693   4.782   4.790 -1.4121 -0.7797 -0.2574
  150SAPE     N16476   0.941   3.679   6.633 -0.2720 -0.4950  0.3281
  150SAPE   HN116477   1.015   3.653   6.702 -0.1108 -0.0023  0.3505
  150SAPE   HN216478   0.990   3.740   6.564  2.4014 -0.8170  1.7977
  150SAPE   HN316479   0.862   3.732   6.675 -1.4240  0.2649 -2.5332
  150SAPE   C1216480   0.890   3.562   6.572  0.8832  0.6338  0.5295
  150SAPE  H12A16481   0.815   3.586   6.494  0.2806  1.4255  1.3355
  150SAPE  H12B16482   0.830   3.509   6.649 -1.5312 -1.3433 -2.5015
  150SAPE   C1116483   0.996   3.474   6.512 -0.1554 -0.3691  0.3338
  150SAPE  H11A16484   1.042   3.528   6.426  3.0175 -0.5490  1.7652
  150SAPE  H11B16485   0.944   3.386   6.469 -1.9087  0.3723  0.8622
  150SAPE     P16486   1.082   3.313   6.697 -0.1741 -0.3209  0.1521
  150SAPE   O1316487   1.129   3.352   6.837  0.0157  0.1004 -0.0291
  150SAPE   O1416488   0.940   3.270   6.686  0.4419  0.7116 -0.3069
  150SAPE   O1216489   1.107   3.438   6.600 -0.6597 -0.0396  1.0055
  150SAPE   O1116490   1.181   3.209   6.645 -0.6289 -0.1284 -0.1745
  150SAPE    C116491   1.318   3.234   6.625 -0.2841 -0.5897  0.2209
  150SAPE    HA16492   1.335   3.337   6.587  3.6178 -1.5866 -1.1944
  150SAPE    HB16493   1.381   3.220   6.716 -0.5737  0.1825  0.5523
  150SAPE    C216494   1.379   3.153   6.513 -0.0550  0.1369  0.9307
  150SAPE    HS16495   1.478   3.197   6.488  0.2466 -1.1386 -0.2590
  150SAPE   O2116496   1.296   3.154   6.387 -0.5719  0.1806 -0.2207
  150SAPE   C2116497   1.305   3.275   6.322  0.2683 -0.1235 -0.0832
  150SAPE   O2216498   1.385   3.361   6.347 -0.1402  0.4330 -0.2086
  150SAPE   C2216499   1.188   3.286   6.223 -0.0188 -0.3323  0.0273
  150SAPE   H2R16500   1.117   3.201   6.224 -1.5379  0.8332 -1.6711
  150SAPE   H2S16501   1.131   3.370   6.268  2.1473  1.4408 -0.3513
  150SAPE    C316502   1.406   3.010   6.556  0.0396  0.1045  0.4877
  150SAPE    HX16503   1.312   2.957   6.584 -0.9205  2.1923  1.4631
  150SAPE    HY16504   1.464   3.018   6.651 -1.0205 -0.8913  1.2475
  150SAPE   O3116505   1.485   2.927   6.463  0.1874  0.0574 -0.3185
  150SAPE   C3116506   1.412   2.872   6.371  0.0115 -0.0967  0.2156
  150SAPE   O3216507   1.290   2.888   6.355  0.4720  0.5579  0.5855
  150SAPE   C3216508   1.505   2.789   6.278 -0.0019 -0.0892 -0.3983
  150SAPE   H2X16509   1.587   2.733   6.328  1.9939  1.0999 -2.1378
  150SAPE   H2Y16510   1.562   2.866   6.221 -0.2209  1.3734  1.2670
  150SAPE   C2316511   1.205   3.344   6.081  0.9887 -0.2305 -0.4488
  150SAPE   H3R16512   1.254   3.265   6.021  1.9258  0.9557 -1.3010
  150SAPE   H3S16513   1.275   3.428   6.102  0.9493 -0.3806  0.2911
  150SAPE   C2416514   1.083   3.399   6.008  0.8273 -0.4928  0.4646
  150SAPE   H4R16515   1.005   3.323   5.986 -1.5171  1.9023 -0.1383
  150SAPE   H4S16516   1.116   3.431   5.907 -0.8361 -0.3340 -0.0683
  150SAPE   C2516517   1.011   3.513   6.069 -0.0618  0.0119 -0.2302
  150SAPE   H5R16518   1.050   3.534   6.169  1.6873 -3.1165 -0.0961
  150SAPE   C2616519   0.915   3.588   6.010 -0.9084 -0.4642 -0.4032
  150SAPE   H6R16520   0.881   3.668   6.077  0.3585  0.3906 -0.7611
  150SAPE   C2716521   0.857   3.568   5.870 -0.3347  1.0130  0.0700
  150SAPE   H7R16522   0.919   3.494   5.814 -0.8551 -0.9251  1.8984
  150SAPE   H7S16523   0.871   3.673   5.839  1.6585  1.7212  2.9621
  150SAPE   C2816524   0.714   3.509   5.856 -0.0815  0.8003  0.2980
  150SAPE   H8R16525   0.673   3.453   5.941 -2.2468  0.7350 -0.7237
  150SAPE   C2916526   0.663   3.479   5.735  0.3979  0.2602  0.9952
  150SAPE   H9R16527   0.566   3.428   5.734  0.9963 -0.9045  0.1461
  150SAPE  C21016528   0.717   3.519   5.598 -0.0342 -0.1757 -0.0655
  150SAPE  H10R16529   0.766   3.425   5.562  2.0348 -0.0402  2.1473
  150SAPE  H10S16530   0.792   3.599   5.611 -0.7385  0.5145 -0.2099
  150SAPE  C21116531   0.606   3.550   5.499  0.7156  0.2907  1.1986
  150SAPE  H11R16532   0.513   3.594   5.538  0.7295  2.6375 -1.0913
  150SAPE  C21216533   0.603   3.528   5.363  0.9426 -0.2442 -0.2213
  150SAPE  H12R16534   0.516   3.552   5.300  1.6073 -0.5578 -1.2918
  150SAPE  C21316535   0.698   3.455   5.271  0.7481  0.2275 -0.4187
  150SAPE  H13R16536   0.667   3.350   5.249 -0.1480  0.5429 -0.6795
  150SAPE  H13S16537   0.787   3.439   5.335 -0.0539  2.4609  1.3543
  150SAPE  C21416538   0.739   3.527   5.150  0.3900  0.0305  0.8001
  150SAPE  H14R16539   0.827   3.593   5.160 -0.3156  1.9293 -3.4246
  150SAPE  C21516540   0.690   3.526   5.023  0.0306  1.2652 -0.6593
  150SAPE  H15R16541   0.737   3.579   4.939  1.1068 -2.2265 -2.4678
  150SAPE  C21616542   0.569   3.441   4.981 -0.4517 -0.2041  0.5709
  150SAPE  H16R16543   0.513   3.407   5.071  1.2087 -3.1691  0.5844
  150SAPE  H16S16544   0.596   3.351   4.922 -1.2415  0.3716 -0.7083
  150SAPE  C21716545   0.475   3.539   4.903 -0.7761 -0.2600  0.0589
  150SAPE  H17R16546   0.519   3.548   4.801 -1.5521  3.3513 -0.0801
  150SAPE  H17S16547   0.465   3.642   4.944 -2.1009 -0.4830  0.3325
  150SAPE  C21816548   0.330   3.498   4.923  0.4977  0.4096  0.4800
  150SAPE  H18R16549   0.322   3.494   5.033  3.0239 -0.5991  0.6958
  150SAPE  H18S16550   0.322   3.394   4.886  0.5261 -0.2655  2.2990
  150SAPE  C21916551   0.235   3.583   4.841 -0.3017  0.3368  0.6521
  150SAPE  H19R16552   0.258   3.563   4.734 -1.7184 -4.5424  1.0470
  150SAPE  H19S16553   0.258   3.690   4.863 -0.5575  0.8969 -1.5944
  150SAPE  C22016554   0.091   3.550   4.869  0.2142 -0.4125 -0.4079
  150SAPE  H20R16555   0.067   3.441   4.867 -2.2923  0.0215  1.3587
  150SAPE  H20S16556   0.033   3.600   4.789  0.7374 -2.0741 -1.9011
  150SAPE  H20T16557   0.074   3.592   4.971  1.1355 -2.2989  0.5877
  150SAPE   C3316558   1.430   2.697   6.179 -0.0061  0.3315 -0.1879
  150SAPE   H3X16559   1.363   2.630   6.237  0.8305 -0.5837 -0.2531
  150SAPE   H3Y16560   1.504   2.625   6.139 -0.7115  0.3867 -1.6829
  150SAPE   C3416561   1.368   2.783   6.069 -0.2274  0.3918  0.3970
  150SAPE   H4X16562   1.444   2.855   6.031 -1.1919 -0.1705 -2.9229
  150SAPE   H4Y16563   1.283   2.847   6.103 -0.5163  0.8092 -1.0607
  150SAPE   C3516564   1.311   2.705   5.952 -0.5031  0.4121  0.1642
  150SAPE   H5X16565   1.224   2.645   5.986  0.5336 -0.9070  0.5778
  150SAPE   H5Y16566   1.386   2.629   5.922  0.2359  1.4248 -0.6363
  150SAPE   C3616567   1.272   2.802   5.841  0.6590 -0.4452 -0.0782
  150SAPE   H6X16568   1.358   2.859   5.799  0.1205 -0.8131 -1.7147
  150SAPE   H6Y16569   1.197   2.875   5.877  0.2133 -0.5044 -0.8698
  150SAPE   C3716570   1.207   2.732   5.717 -0.4206  0.2558 -0.9956
  150SAPE   H7X16571   1.100   2.706   5.735  0.0304 -0.6045  0.6865
  150SAPE   H7Y16572   1.279   2.654   5.686  0.5701  1.3776 -1.5764
  150SAPE   C3816573   1.214   2.832   5.601  0.5645 -0.0939  0.0580
  150SAPE   H8X16574   1.318   2.868   5.593  0.4449 -0.0056 -1.1450
  150SAPE   H8Y16575   1.153   2.922   5.624 -1.7490 -1.3404 -0.8132
  150SAPE   C3916576   1.171   2.778   5.469  0.8749  0.4500  0.2925
  150SAPE   H9X16577   1.068   2.736   5.467  0.7811  0.7045 -0.5551
  150SAPE   H9Y16578   1.241   2.698   5.437  0.2009  0.3305 -0.9367
  150SAPE  C31016579   1.169   2.886   5.362 -0.1674  0.0230  0.6140
  150SAPE  H10X16580   1.273   2.920   5.343 -0.0083 -2.3921 -4.5051
  150SAPE  H10Y16581   1.116   2.970   5.413  0.1743 -0.5169  1.8937
  150SAPE  C31116582   1.095   2.829   5.237  0.5683 -0.3510 -0.0904
  150SAPE  H11X16583   1.085   2.917   5.170 -3.2798 -0.7922 -0.3261
  150SAPE  H11Y16584   0.994   2.793   5.269  1.0114 -1.8987 -0.3789
  150SAPE  C31216585   1.165   2.726   5.153 -0.0438  0.1278  0.2398
  150SAPE  H12X16586   1.107   2.709   5.060  0.4975 -2.0639  0.2531
  150SAPE  H12Y16587   1.155   2.627   5.202 -0.3360 -0.1136 -0.2973
  150SAPE  C31316588   1.313   2.745   5.112  0.4255 -0.4593  0.3330
  150SAPE  H13X16589   1.382   2.750   5.199 -0.4055  3.6320  0.9470
  150SAPE  H13Y16590   1.320   2.844   5.062  2.4184 -1.6724 -2.0133
  150SAPE  C31416591   1.364   2.639   5.015  0.1648 -0.2722 -0.0827
  150SAPE  H14X16592   1.291   2.629   4.932  0.6265  0.0248 -0.5363
  150SAPE  H14Y16593   1.370   2.536   5.056  0.1081 -0.0957  0.3667
  150SAPE  C31516594   1.496   2.688   4.966 -0.2377  0.4348 -0.4294
  150SAPE  H15X16595   1.548   2.600   4.923  1.9990  2.5142 -2.2953
  150SAPE  H15Y16596   1.564   2.738   5.039 -1.5476 -2.0311  2.7026
  150SAPE  C31616597   1.475   2.786   4.848 -0.5656 -0.8138 -0.3520
  150SAPE  H16X16598   1.458   2.885   4.895  1.6609 -0.4897 -0.0942
  150SAPE  H16Y16599   1.403   2.748   4.773  3.2845 -0.4363 -4.6600
  150SAPE  C31716600   1.610   2.806   4.778 -0.5629 -0.3734  0.1325
  150SAPE  H17X16601   1.654   2.709   4.750  1.1801  0.1912  0.7509
  150SAPE  H17Y16602   1.664   2.865   4.856 -1.9360 -0.8485  1.4982
  150SAPE  C31816603   1.603   2.885   4.656  0.7173 -0.4717  0.8631
  150SAPE  H18X16604   1.566   2.988   4.676  1.4665 -0.2236  1.0079
  150SAPE  H18Y16605   1.543   2.840   4.574 -1.5870 -0.3440  2.3852
  150SAPE  H18Z16606   1.709   2.892   4.622  1.2155  1.7349  2.5898
  151SAPE     N16607   5.569   2.292   6.848  0.0840 -0.5083 -0.0691
  151SAPE   HN116608   5.517   2.252   6.768 -0.0824 -1.0617  0.3116
  151SAPE   HN216609   5.580   2.394   6.830 -2.1633 -0.3141 -0.6697
  151SAPE   HN316610   5.665   2.252   6.856  0.8427  0.9626 -1.2866
  151SAPE   C1216611   5.490   2.279   6.973  0.9576 -0.3300 -0.0389
  151SAPE  H12A16612   5.385   2.306   6.949  0.3169 -1.7648  0.9948
  151SAPE  H12B16613   5.525   2.356   7.045  0.2327  2.3813 -2.4025
  151SAPE   C1116614   5.505   2.140   7.028 -0.1146  0.2175 -0.1078
  151SAPE  H11A16615   5.500   2.051   6.961  0.8236 -0.3033  0.4878
  151SAPE  H11B16616   5.425   2.129   7.103  1.7622  0.1112  1.9919
  151SAPE     P16617   5.756   2.060   7.062 -0.0861  0.2604 -0.2070
  151SAPE   O1316618   5.868   2.104   7.149 -0.1388  0.0969 -0.0436
  151SAPE   O1416619   5.742   1.916   7.052  0.1107 -0.3633  0.2882
  151SAPE   O1216620   5.620   2.125   7.116 -0.0054 -0.4210  0.0237
  151SAPE   O1116621   5.771   2.120   6.914  0.4189 -0.0401 -0.2658
  151SAPE    C116622   5.903   2.118   6.859  0.3744  0.1684 -0.4427
  151SAPE    HA16623   5.945   2.219   6.879 -0.7683  0.6513 -0.4104
  151SAPE    HB16624   5.955   2.033   6.908 -3.7875 -0.6712  3.0367
  151SAPE    C216625   5.908   2.097   6.700  0.5876  0.7199 -0.3627
  151SAPE    HS16626   6.014   2.112   6.671  0.8291  0.4028  0.3321
  151SAPE   O2116627   5.822   2.194   6.644  0.4501  0.0250 -0.6418
  151SAPE   C2116628   5.847   2.219   6.520  0.4639  0.3629 -0.3492
  151SAPE   O2216629   5.937   2.167   6.450 -0.2709 -0.5402 -0.3699
  151SAPE   C2216630   5.744   2.323   6.487 -0.6220  0.0519  0.2528
  151SAPE   H2R16631   5.667   2.287   6.415 -1.6762 -0.6603  1.6861
  151SAPE   H2S16632   5.701   2.364   6.581  0.7231  0.7362  0.5949
  151SAPE    C316633   5.859   1.946   6.673 -0.2458 -0.5325  0.5172
  151SAPE    HX16634   5.752   1.933   6.701 -0.1302 -0.1405  1.1728
  151SAPE    HY16635   5.892   1.876   6.754 -1.4779 -0.3005  1.2530
  151SAPE   O3116636   5.876   1.902   6.540 -0.1778 -0.5265  0.0830
  151SAPE   C3116637   5.997   1.847   6.511  0.2907  0.7032 -0.2036
  151SAPE   O3216638   6.086   1.835   6.598  0.1067 -0.4236 -0.1825
  151SAPE   C3216639   6.012   1.797   6.363 -0.1660  0.0839 -0.2842
  151SAPE   H2X16640   5.935   1.717   6.357 -0.9497  0.8008 -0.0467
  151SAPE   H2Y16641   6.113   1.753   6.351  0.0915  0.0111  1.8090
  151SAPE   C2316642   5.810   2.448   6.424 -0.3724  1.2076 -0.3327
  151SAPE   H3R16643   5.865   2.430   6.329  1.5006 -2.2690  1.2104
  151SAPE   H3S16644   5.884   2.499   6.490 -1.8423  0.9024  1.6276
  151SAPE   C2416645   5.705   2.550   6.372  0.3387  0.0778 -0.9706
  151SAPE   H4R16646   5.634   2.565   6.456  1.5953 -1.3971  0.4177
  151SAPE   H4S16647   5.647   2.498   6.292 -0.8821  0.0299 -0.0834
  151SAPE   C2516648   5.756   2.677   6.320 -0.3587 -0.4722 -0.5254
  151SAPE   H5R16649   5.818   2.733   6.391  0.3980 -0.3106 -1.2939
  151SAPE   C2616650   5.779   2.711   6.190  0.0217 -0.7460 -0.0166
  151SAPE   H6R16651   5.811   2.815   6.173  0.1831 -0.8209 -0.1660
  151SAPE   C2716652   5.735   2.646   6.064 -0.3592  0.2138 -0.5747
  151SAPE   H7R16653   5.718   2.720   5.983 -1.8696  0.6327  0.1049
  151SAPE   H7S16654   5.641   2.590   6.080  0.8389 -1.6670  0.2967
  151SAPE   C2816655   5.845   2.554   6.021  0.5997  0.9009  0.7407
  151SAPE   H8R16656   5.914   2.510   6.095  0.6283  1.7260  1.2268
  151SAPE   C2916657   5.867   2.512   5.894 -0.3210  0.5520  0.2728
  151SAPE   H9R16658   5.948   2.441   5.872 -0.9981  0.1360 -0.9706
  151SAPE  C21016659   5.797   2.557   5.765 -0.1091 -0.6322 -0.7525
  151SAPE  H10R16660   5.842   2.652   5.732  2.8959 -1.5129  0.5257
  151SAPE  H10S16661   5.691   2.574   5.795  0.1312 -0.3326 -0.0460
  151SAPE  C21116662   5.799   2.453   5.661  0.6721  0.8485  1.3213
  151SAPE  H11R16663   5.803   2.353   5.705 -1.8649  0.0947  0.0486
  151SAPE  C21216664   5.797   2.477   5.529  0.1525 -0.5837  0.7253
  151SAPE  H12R16665   5.824   2.395   5.460  0.0583 -0.2302  0.2700
  151SAPE  C21316666   5.811   2.610   5.458 -1.0349 -0.3455 -0.3225
  151SAPE  H13R16667   5.916   2.611   5.423 -0.9389 -0.0492 -0.0252
  151SAPE  H13S16668   5.790   2.699   5.521 -3.1968 -0.8931 -0.1687
  151SAPE  C21416669   5.721   2.619   5.331  0.2026 -0.3682  0.1180
  151SAPE  H14R16670   5.652   2.534   5.314  0.9460 -0.3549 -4.0356
  151SAPE  C21516671   5.730   2.716   5.233 -0.5149  1.0479 -1.0449
  151SAPE  H15R16672   5.644   2.713   5.164 -1.4672 -0.8280  0.1632
  151SAPE  C21616673   5.829   2.829   5.225  0.6389  0.5482  0.5295
  151SAPE  H16R16674   5.924   2.776   5.244  0.9933  1.2649  0.8108
  151SAPE  H16S16675   5.804   2.913   5.293 -2.4197  1.2104 -1.2321
  151SAPE  C21716676   5.855   2.895   5.084  0.6279  0.4462 -0.1823
  151SAPE  H17R16677   5.940   2.964   5.099  1.7572 -1.0167  0.3707
  151SAPE  H17S16678   5.772   2.961   5.050  0.0136  0.9170  2.0717
  151SAPE  C21816679   5.880   2.790   4.973 -0.7858  0.3228  0.3054
  151SAPE  H18R16680   5.844   2.851   4.887 -2.3734  1.4573  1.7035
  151SAPE  H18S16681   5.824   2.694   4.977 -0.6312  0.2318  0.2873
  151SAPE  C21916682   6.030   2.760   4.947  0.4184 -0.1995  0.0864
  151SAPE  H19R16683   6.081   2.725   5.039 -1.5994 -1.4940  0.7662
  151SAPE  H19S16684   6.082   2.853   4.915 -0.1543  0.0954  0.0035
  151SAPE  C22016685   6.051   2.663   4.834  0.3212 -0.1285 -0.3758
  151SAPE  H20R16686   6.022   2.698   4.732 -1.8427  0.4264  0.3703
  151SAPE  H20S16687   5.992   2.573   4.860 -0.5831  0.2599 -1.0376
  151SAPE  H20T16688   6.158   2.632   4.836  0.2270 -0.4738 -0.6280
  151SAPE   C3316689   5.987   1.906   6.268  0.7096  0.0804 -0.7301
  151SAPE   H3X16690   6.035   1.999   6.304 -0.3277  0.6545 -0.7783
  151SAPE   H3Y16691   5.878   1.929   6.274  0.9329  0.7899  1.5049
  151SAPE   C3416692   6.028   1.873   6.120 -0.5938  0.4916  0.1698
  151SAPE   H4X16693   5.951   1.808   6.073  1.7280 -2.6781  0.3809
  151SAPE   H4Y16694   6.125   1.818   6.122 -0.7845  0.0877 -0.8546
  151SAPE   C3516695   6.050   1.998   6.038 -0.3744 -0.2217 -0.4589
  151SAPE   H5X16696   6.139   2.049   6.080  1.0992 -1.4308 -2.0139
  151SAPE   H5Y16697   5.961   2.064   6.049 -1.0406 -1.3320  1.5132
  151SAPE   C3616698   6.066   1.975   5.892 -0.3933  0.1139  0.4040
  151SAPE   H6X16699   5.978   1.936   5.837  0.4047 -0.5324 -0.4487
  151SAPE   H6Y16700   6.160   1.917   5.881 -0.1720  0.1807  1.7292
  151SAPE   C3716701   6.095   2.116   5.828 -0.7255  0.5334  0.5031
  151SAPE   H7X16702   6.180   2.156   5.886  1.2378  0.3898 -2.0892
  151SAPE   H7Y16703   6.008   2.184   5.838  0.0719  1.2259  4.4697
  151SAPE   C3816704   6.137   2.110   5.683  0.8266  0.1734 -0.4132
  151SAPE   H8X16705   6.224   2.042   5.665  0.9973  0.2402  0.1545
  151SAPE   H8Y16706   6.172   2.208   5.645 -1.9030  0.5771 -2.1324
  151SAPE   C3916707   6.026   2.073   5.582  0.6025 -0.0984 -0.2780
  151SAPE   H9X16708   5.923   2.102   5.610  1.0736  0.3606  1.0545
  151SAPE   H9Y16709   6.013   1.962   5.587 -4.1812  0.2633  0.3771
  151SAPE  C31016710   6.061   2.121   5.438 -0.3148  0.4132  0.2334
  151SAPE  H10X16711   6.113   2.218   5.450  2.0122 -0.8529  1.2170
  151SAPE  H10Y16712   5.975   2.141   5.372  0.6975  0.7916 -0.9981
  151SAPE  C31116713   6.158   2.028   5.367 -0.3402  0.6463 -0.5316
  151SAPE  H11X16714   6.235   1.987   5.436 -0.6484 -0.8636 -1.0456
  151SAPE  H11Y16715   6.214   2.073   5.282  0.7916  0.3313  0.0331
  151SAPE  C31216716   6.081   1.911   5.294 -0.2621  0.4135 -0.8135
  151SAPE  H12X16717   6.001   1.945   5.224 -0.6740 -0.5384 -0.8187
  151SAPE  H12Y16718   6.032   1.855   5.376  0.1233 -1.2489 -1.6573
  151SAPE  C31316719   6.179   1.809   5.234  0.5956  0.5061 -0.3054
  151SAPE  H13X16720   6.121   1.716   5.216 -2.6859  2.2450  0.4793
  151SAPE  H13Y16721   6.264   1.783   5.299  2.0820  4.5169 -0.3246
  151SAPE  C31416722   6.228   1.864   5.101  1.4300  0.1431 -0.1835
  151SAPE  H14X16723   6.256   1.971   5.108  0.0367  0.4693  0.7623
  151SAPE  H14Y16724   6.146   1.847   5.028  1.0425  1.4025 -0.0654
  151SAPE  C31516725   6.347   1.789   5.049 -0.1875  0.3481 -0.2298
  151SAPE  H15X16726   6.352   1.691   5.100 -0.3851 -0.1635 -1.1723
  151SAPE  H15Y16727   6.446   1.833   5.071  1.0198 -0.3245 -3.7343
  151SAPE  C31616728   6.343   1.771   4.899  0.4448  0.0706  0.0227
  151SAPE  H16X16729   6.436   1.718   4.869  1.2302  0.5153  1.5518
  151SAPE  H16Y16730   6.343   1.871   4.850  0.0551  0.7665  1.3882
  151SAPE  C31716731   6.224   1.683   4.848  0.3020 -0.0397  0.9016
  151SAPE  H17X16732   6.183   1.737   4.760  1.9841  1.0021  0.7256
  151SAPE  H17Y16733   6.145   1.666   4.924 -1.6022 -1.6348 -1.3006
  151SAPE  C31816734   6.259   1.537   4.811 -0.4076 -0.2757  0.6332
  151SAPE  H18X16735   6.297   1.489   4.904  1.4361 -2.3039 -1.0615
  151SAPE  H18Y16736   6.349   1.546   4.746 -0.5002 -1.9749  0.2142
  151SAPE  H18Z16737   6.175   1.479   4.766 -0.0540 -1.2225  1.1690
  152SAPE     N16738   0.498   3.875   7.213  0.0909  0.2013 -0.8060
  152SAPE   HN116739   0.475   3.814   7.294 -2.9062  1.3770 -0.6631
  152SAPE   HN216740   0.427   3.950   7.209 -0.9241 -0.6778  0.1794
  152SAPE   HN316741   0.486   3.809   7.134 -0.2298 -2.2293  1.1311
  152SAPE   C1216742   0.639   3.932   7.217 -0.4080 -0.1158 -0.3541
  152SAPE  H12A16743   0.709   3.846   7.217 -1.5703 -1.1061  0.9340
  152SAPE  H12B16744   0.651   3.986   7.313 -1.5738 -0.2866 -0.0995
  152SAPE   C1116745   0.659   4.020   7.089  0.3943 -0.1124 -0.2874
  152SAPE  H11A16746   0.754   4.073   7.110 -1.3500  2.0547  3.0379
  152SAPE  H11B16747   0.573   4.090   7.098  1.0423  0.8419 -1.2428
  152SAPE     P16748   0.783   3.863   6.911 -0.0844  0.0113  0.2293
  152SAPE   O1316749   0.834   3.775   7.018 -0.2040  0.1754  0.4564
  152SAPE   O1416750   0.744   3.793   6.789  0.1901 -0.6757  0.1414
  152SAPE   O1216751   0.653   3.937   6.966 -0.3183 -0.0341  0.5838
  152SAPE   O1116752   0.883   3.985   6.881 -0.2905 -0.7682  0.7088
  152SAPE    C116753   0.857   4.092   6.789 -0.6314  0.0517  0.0986
  152SAPE    HA16754   0.749   4.114   6.789 -0.8218 -0.8518  0.4700
  152SAPE    HB16755   0.916   4.179   6.826  1.0198  0.1547 -2.5206
  152SAPE    C216756   0.915   4.068   6.651  0.0563  0.2672  0.1917
  152SAPE    HS16757   0.916   4.160   6.590 -0.9146  0.9344  1.1531
  152SAPE   O2116758   0.833   3.965   6.588 -0.2420 -0.2583  0.2252
  152SAPE   C2116759   0.715   4.000   6.546 -0.5078  0.3813 -0.3803
  152SAPE   O2216760   0.671   4.111   6.546  0.6078 -0.2309  0.8539
  152SAPE   C2216761   0.647   3.895   6.468 -0.2397  0.6676  0.3412
  152SAPE   H2R16762   0.728   3.852   6.404  1.6557 -0.1535  3.1352
  152SAPE   H2S16763   0.612   3.812   6.533  1.4843 -1.5925 -1.3999
  152SAPE    C316764   1.058   4.018   6.659 -0.1751  0.2313 -0.9083
  152SAPE    HX16765   1.057   3.911   6.692 -0.3760 -0.2644 -2.4429
  152SAPE    HY16766   1.113   4.076   6.736  0.9234 -1.8438 -0.0239
  152SAPE   O3116767   1.130   4.036   6.535  0.4455  0.4045  0.0654
  152SAPE   C3116768   1.112   3.953   6.441  1.1777  0.0242  0.2063
  152SAPE   O3216769   1.056   3.850   6.447 -0.0350 -0.0298  0.2819
  152SAPE   C3216770   1.179   4.012   6.314  0.2974  1.0401 -0.0323
  152SAPE   H2X16771   1.289   4.024   6.327  0.4995 -0.3964 -0.1750
  152SAPE   H2Y16772   1.137   4.112   6.290 -0.6833  0.4204 -1.0168
  152SAPE   C2316773   0.516   3.939   6.387  0.6862 -0.0271  0.2396
  152SAPE   H3R16774   0.526   4.027   6.320 -2.7674 -0.0565 -0.5488
  152SAPE   H3S16775   0.439   3.974   6.460  1.6947  0.8020  0.9341
  152SAPE   C2416776   0.451   3.832   6.298 -0.4915  0.2378  0.1891
  152SAPE   H4R16777   0.364   3.872   6.241 -2.2704 -1.8493  1.2684
  152SAPE   H4S16778   0.409   3.749   6.359 -0.4714  1.1853  1.5699
  152SAPE   C2516779   0.540   3.766   6.197 -0.5990  0.6533 -0.2730
  152SAPE   H5R16780   0.584   3.826   6.116  0.9452 -1.8665 -1.3970
  152SAPE   C2616781   0.563   3.633   6.191  0.2159 -0.3587  0.5134
  152SAPE   H6R16782   0.616   3.593   6.104 -0.6440  1.1239 -0.7439
  152SAPE   C2716783   0.508   3.523   6.273  0.1977 -0.1982 -0.3393
  152SAPE   H7R16784   0.545   3.554   6.374 -1.1032  1.1786 -0.2491
  152SAPE   H7S16785   0.576   3.435   6.264  1.3759  0.5094  1.0691
  152SAPE   C2816786   0.358   3.501   6.276  0.3092 -0.1252  0.3193
  152SAPE   H8R16787   0.318   3.503   6.378  1.5411  2.2212  0.8132
  152SAPE   C2916788   0.282   3.459   6.177 -0.0315  0.4601  0.4836
  152SAPE   H9R16789   0.175   3.451   6.202  0.1565  0.2443  1.2459
  152SAPE  C21016790   0.329   3.431   6.037 -0.0897 -0.4646 -0.5667
  152SAPE  H10R16791   0.256   3.359   5.996 -0.1588 -1.8093  1.7306
  152SAPE  H10S16792   0.426   3.377   6.033  0.7409  0.8073  1.1201
  152SAPE  C21116793   0.347   3.558   5.960  0.2599  0.4747  0.6040
  152SAPE  H11R16794   0.383   3.642   6.021  0.3665  1.2545 -0.4850
  152SAPE  C21216795   0.315   3.589   5.826  0.3375  0.5144 -0.8075
  152SAPE  H12R16796   0.339   3.686   5.778 -0.1217  0.6853 -0.6952
  152SAPE  C21316797   0.275   3.486   5.721 -1.3026 -0.7436  0.1614
  152SAPE  H13R16798   0.291   3.385   5.766  1.2917  0.1763  1.5794
  152SAPE  H13S16799   0.357   3.490   5.646 -1.5030 -0.5567 -0.0473
  152SAPE  C21416800   0.142   3.515   5.664 -0.7671 -0.0162 -0.2095
  152SAPE  H14R16801   0.144   3.599   5.593  1.1603  0.2926  0.1594
  152SAPE  C21516802   0.029   3.482   5.719 -0.2586  0.5191  0.0240
  152SAPE  H15R16803  -0.063   3.495   5.661 -0.2327 -0.8817 -0.3766
  152SAPE  C21616804   0.005   3.387   5.833 -0.8271  0.1189 -0.1493
  152SAPE  H16R16805   0.101   3.369   5.887 -2.0002  0.7598  2.3095
  152SAPE  H16S16806  -0.040   3.291   5.798  1.0182 -0.5359 -0.8460
  152SAPE  C21716807  -0.086   3.459   5.934 -0.5919 -0.6804 -0.3538
  152SAPE  H17R16808  -0.086   3.388   6.019 -0.3646 -1.9607 -1.3869
  152SAPE  H17S16809  -0.189   3.488   5.904 -0.2618  2.2319  1.0176
  152SAPE  C21816810  -0.038   3.595   5.992  0.0504  0.9351  1.2378
  152SAPE  H18R16811  -0.024   3.672   5.913 -0.4141  2.2348  2.3656
  152SAPE  H18S16812   0.067   3.580   6.025  0.7828 -2.3759 -2.0153
  152SAPE  C21916813  -0.130   3.650   6.102  0.4628  0.7802  0.4387
  152SAPE  H19R16814  -0.236   3.627   6.079  1.2601 -3.7460  0.1770
  152SAPE  H19S16815  -0.113   3.759   6.107 -0.8178  0.9281  1.8467
  152SAPE  C22016816  -0.098   3.605   6.241 -0.1961  1.0397  0.8196
  152SAPE  H20R16817  -0.178   3.620   6.317 -1.5969 -1.1708 -0.1283
  152SAPE  H20S16818  -0.016   3.671   6.276 -0.5656  1.0941  1.6180
  152SAPE  H20T16819  -0.074   3.497   6.245  0.8220  1.1566 -1.1440
  152SAPE   C3316820   1.157   3.912   6.202  0.0047 -0.3115 -0.9741
  152SAPE   H3X16821   1.047   3.895   6.190 -0.2662  1.2915 -0.9399
  152SAPE   H3Y16822   1.218   3.822   6.224  0.2948 -0.0566 -0.7423
  152SAPE   C3416823   1.195   3.974   6.066 -0.0853  0.0912  0.3262
  152SAPE   H4X16824   1.300   4.010   6.057 -0.7316  1.5138 -2.9066
  152SAPE   H4Y16825   1.127   4.060   6.050 -1.2521 -0.6607  1.1051
  152SAPE   C3516826   1.186   3.870   5.948  0.0223  0.0847 -0.3131
  152SAPE   H5X16827   1.088   3.818   5.956 -0.5717  0.9947 -1.4098
  152SAPE   H5Y16828   1.269   3.800   5.972  1.3643  2.1779  1.6652
  152SAPE   C3616829   1.206   3.930   5.800 -0.0859  0.1311 -0.5120
  152SAPE   H6X16830   1.306   3.976   5.790  0.5677 -0.4513  2.4394
  152SAPE   H6Y16831   1.139   4.018   5.809  1.6243  1.3365  1.1301
  152SAPE   C3716832   1.179   3.830   5.696 -0.6150 -0.3422  0.2217
  152SAPE   H7X16833   1.204   3.873   5.597 -0.6789 -0.9390 -0.0615
  152SAPE   H7Y16834   1.075   3.792   5.688 -1.9280  1.3623  5.5454
  152SAPE   C3816835   1.271   3.708   5.713 -0.0409 -0.2464 -0.1152
  152SAPE   H8X16836   1.229   3.636   5.787  0.8041  1.0272  1.6759
  152SAPE   H8Y16837   1.367   3.748   5.751 -0.7510 -0.0782  1.6380
  152SAPE   C3916838   1.277   3.629   5.584 -0.0781 -0.1920 -0.7366
  152SAPE   H9X16839   1.381   3.592   5.586 -0.4139 -1.1874  1.0033
  152SAPE   H9Y16840   1.274   3.695   5.495  1.5949  1.0602  0.0836
  152SAPE  C31016841   1.170   3.519   5.572 -0.0814 -0.1811  0.0083
  152SAPE  H10X16842   1.072   3.568   5.555 -0.4981 -1.0987 -0.2912
  152SAPE  H10Y16843   1.152   3.459   5.664 -0.0837 -2.9393 -1.6798
  152SAPE  C31116844   1.194   3.439   5.447  0.1784 -0.6514  0.0612
  152SAPE  H11X16845   1.296   3.397   5.435 -0.4452 -1.4952 -3.0617
  152SAPE  H11Y16846   1.176   3.521   5.374 -0.4175  0.4372  1.3645
  152SAPE  C31216847   1.083   3.331   5.421 -0.0854  0.3667  0.1075
  152SAPE  H12X16848   0.983   3.371   5.451  0.3099  0.1401  1.7741
  152SAPE  H12Y16849   1.096   3.253   5.498 -0.1329 -0.5246 -0.7626
  152SAPE  C31316850   1.084   3.260   5.280 -0.0471 -0.3205 -0.0990
  152SAPE  H13X16851   1.042   3.332   5.206  1.5264  0.4481 -0.2887
  152SAPE  H13Y16852   1.028   3.165   5.291  0.1902 -0.7399 -2.1446
  152SAPE  C31416853   1.224   3.221   5.227 -0.9044  0.0971 -0.0750
  152SAPE  H14X16854   1.261   3.149   5.303 -1.0837  1.2870  1.1761
  152SAPE  H14Y16855   1.277   3.319   5.236  0.7282 -0.8606  1.2668
  152SAPE  C31516856   1.226   3.172   5.081  0.5747  0.8386  0.0174
  152SAPE  H15X16857   1.190   3.255   5.016 -1.6929 -2.0769 -2.7848
  152SAPE  H15Y16858   1.154   3.088   5.072  2.4023 -0.7291 -0.5694
  152SAPE  C31616859   1.366   3.126   5.029 -0.3531 -0.9486  1.2041
  152SAPE  H16X16860   1.349   3.086   4.926 -1.3234  0.0844  0.9522
  152SAPE  H16Y16861   1.405   3.043   5.093 -0.0849 -1.9315 -0.1686
  152SAPE  C31716862   1.470   3.234   5.010 -0.0861  0.1442  0.3153
  152SAPE  H17X16863   1.498   3.279   5.107 -0.2347  1.1982 -0.1143
  152SAPE  H17Y16864   1.419   3.319   4.959  1.0398 -0.8648 -2.7575
  152SAPE  C31816865   1.588   3.208   4.916 -0.3202 -0.5328 -0.6219
  152SAPE  H18X16866   1.661   3.289   4.902 -0.0640 -0.8299 -1.0057
  152SAPE  H18Y16867   1.551   3.186   4.814 -0.9573  1.3144 -0.8315
  152SAPE  H18Z16868   1.651   3.122   4.947 -1.4460 -0.9666  0.5795
  153SAPE     N16869   0.928   2.938   6.627 -1.1126  0.7027  0.0480
  153SAPE   HN116870   0.986   2.983   6.554  2.4587 -0.0392  2.1976
  153SAPE   HN216871   0.895   2.998   6.706  0.6305 -1.9133  2.9691
  153SAPE   HN316872   0.999   2.879   6.676 -0.2948  1.2408 -0.4617
  153SAPE   C1216873   0.819   2.846   6.571 -0.1828 -0.1070  0.0328
  153SAPE  H12A16874   0.861   2.811   6.475 -1.6272  0.5839 -0.8841
  153SAPE  H12B16875   0.737   2.914   6.541  0.7963  0.3066 -1.8448
  153SAPE   C1116876   0.798   2.715   6.669  0.5039 -0.7436  0.0656
  153SAPE  H11A16877   0.721   2.646   6.628 -0.7155  1.1961 -1.0843
  153SAPE  H11B16878   0.744   2.750   6.760 -0.9112 -2.5541 -0.0078
  153SAPE     P16879   0.906   2.510   6.781  0.0531  0.0497  0.2862
  153SAPE   O1316880   1.042   2.461   6.798  0.0665 -0.2323  0.5146
  153SAPE   O1416881   0.827   2.537   6.902 -0.3596 -0.4580  0.2012
  153SAPE   O1216882   0.921   2.644   6.700  0.2258  0.3613  0.0627
  153SAPE   O1116883   0.818   2.414   6.686 -0.0359 -0.3439 -1.1679
  153SAPE    C116884   0.884   2.358   6.570 -0.5124  0.5826 -0.1441
  153SAPE    HA16885   0.994   2.378   6.570 -0.4880  0.9795  2.8805
  153SAPE    HB16886   0.872   2.248   6.570  2.8369  0.0455  2.5604
  153SAPE    C216887   0.823   2.409   6.439  0.6286 -0.4802  0.0307
  153SAPE    HS16888   0.796   2.517   6.442  2.1401 -0.1019  0.9762
  153SAPE   O2116889   0.712   2.322   6.401 -0.0888 -1.0830  0.0984
  153SAPE   C2116890   0.590   2.377   6.424 -0.9486 -0.0576  0.4332
  153SAPE   O2216891   0.561   2.493   6.452 -0.4098  0.0748  0.0890
  153SAPE   C2216892   0.490   2.260   6.441 -0.2475  0.1699  0.2232
  153SAPE   H2R16893   0.551   2.168   6.454 -0.1905  0.2296  0.3792
  153SAPE   H2S16894   0.432   2.278   6.533  0.6423  0.4001  0.7535
  153SAPE    C316895   0.927   2.401   6.323  0.1039  0.1993  0.3110
  153SAPE    HX16896   0.931   2.294   6.296 -3.1752 -0.0300  0.3404
  153SAPE    HY16897   1.023   2.432   6.370  0.1855 -0.3822  0.5306
  153SAPE   O3116898   0.891   2.480   6.207  0.5420 -0.3803 -0.0197
  153SAPE   C3116899   0.932   2.604   6.211  0.3047  0.0766  0.2235
  153SAPE   O3216900   0.978   2.655   6.311  0.3610 -0.5560 -0.1271
  153SAPE   C3216901   0.901   2.682   6.091 -0.7580 -0.4483  0.1399
  153SAPE   H2X16902   0.837   2.632   6.015  0.9275 -1.8275 -0.4537
  153SAPE   H2Y16903   1.000   2.687   6.040 -0.0755 -3.5762  0.8841
  153SAPE   C2316904   0.391   2.248   6.322 -0.6302  0.2289  0.6859
  153SAPE   H3R16905   0.348   2.344   6.285 -1.6995 -1.2605 -2.1972
  153SAPE   H3S16906   0.303   2.191   6.357 -2.3454  1.7012 -0.9883
  153SAPE   C2416907   0.445   2.171   6.198 -0.0967 -0.5165 -0.1782
  153SAPE   H4R16908   0.497   2.082   6.238 -1.4783 -1.5739 -0.6772
  153SAPE   H4S16909   0.510   2.238   6.137  0.6813 -1.0239  0.0815
  153SAPE   C2516910   0.316   2.133   6.119  0.1127 -0.9186  0.5611
  153SAPE   H5R16911   0.218   2.148   6.167 -0.7708  2.0036 -1.7988
  153SAPE   C2616912   0.320   2.077   5.997  0.6238  0.1318  0.1566
  153SAPE   H6R16913   0.223   2.050   5.954  0.0166  1.2765  0.7762
  153SAPE   C2716914   0.433   2.055   5.905 -0.7711 -0.0546 -0.3880
  153SAPE   H7R16915   0.523   2.115   5.933 -1.0536 -0.0114  0.4503
  153SAPE   H7S16916   0.403   2.088   5.803  0.1147 -0.7183 -0.8766
  153SAPE   C2816917   0.469   1.907   5.910  0.3290 -0.1920  0.3355
  153SAPE   H8R16918   0.538   1.887   5.993  0.6663 -0.6566 -0.0440
  153SAPE   C2916919   0.427   1.810   5.823 -0.1030  0.0809  0.6997
  153SAPE   H9R16920   0.462   1.708   5.840  1.2588  0.8230  2.7580
  153SAPE  C21016921   0.336   1.816   5.704  0.3119 -0.7772  0.3191
  153SAPE  H10R16922   0.304   1.917   5.672 -2.8539 -1.4940  0.8514
  153SAPE  H10S16923   0.243   1.765   5.737  0.0904 -1.6299 -1.4789
  153SAPE  C21116924   0.409   1.760   5.588  0.2929 -1.0244  0.0174
  153SAPE  H11R16925   0.505   1.807   5.563 -1.1698  2.1794 -0.0951
  153SAPE  C21216926   0.353   1.670   5.507 -0.2808  0.8918  0.1751
  153SAPE  H12R16927   0.418   1.643   5.422 -1.7710  0.9882 -1.0513
  153SAPE  C21316928   0.212   1.616   5.515 -0.2567  0.2596  0.5600
  153SAPE  H13R16929   0.153   1.697   5.467 -2.7141 -0.1330  2.6980
  153SAPE  H13S16930   0.176   1.611   5.620  0.8668 -0.8661  0.9146
  153SAPE  C21416931   0.193   1.482   5.447  0.1463  0.3273  0.0476
  153SAPE  H14R16932   0.264   1.403   5.474  2.0833  1.6762 -0.8873
  153SAPE  C21516933   0.105   1.449   5.348  0.4444 -0.3571  1.1229
  153SAPE  H15R16934   0.102   1.344   5.315 -0.1115  0.4963 -1.8474
  153SAPE  C21616935   0.012   1.528   5.269 -0.1450 -0.0028 -0.5299
  153SAPE  H16R16936  -0.056   1.584   5.336  1.1904  0.2253  0.6686
  153SAPE  H16S16937  -0.041   1.454   5.204  0.0768  2.2955 -3.5846
  153SAPE  C21716938   0.090   1.614   5.170  0.0772 -0.2203 -0.3382
  153SAPE  H17R16939   0.173   1.563   5.117  1.5176  1.3296  0.3126
  153SAPE  H17S16940   0.141   1.694   5.228 -2.8954  0.7809  1.0873
  153SAPE  C21816941  -0.003   1.671   5.060  0.3269 -0.3865  0.4024
  153SAPE  H18R16942  -0.104   1.698   5.099 -0.8143 -1.3345 -1.7417
  153SAPE  H18S16943  -0.019   1.601   4.976 -2.9578  0.1531  0.4284
  153SAPE  C21916944   0.052   1.799   4.999  0.2194 -0.1986 -0.1471
  153SAPE  H19R16945   0.151   1.777   4.954 -0.0494 -1.6605 -0.0867
  153SAPE  H19S16946   0.068   1.873   5.080  0.4218 -2.0844  1.6175
  153SAPE  C22016947  -0.045   1.847   4.895  0.6998 -0.1883  0.1883
  153SAPE  H20R16948  -0.139   1.880   4.945  0.3836 -1.8877  0.7822
  153SAPE  H20S16949  -0.057   1.764   4.823  2.1652 -0.5323  0.3035
  153SAPE  H20T16950  -0.005   1.936   4.842  0.1762 -1.1581 -1.9380
  153SAPE   C3316951   0.851   2.820   6.130 -0.3236 -0.1798 -0.3476
  153SAPE   H3X16952   0.904   2.872   6.213 -0.9260  0.9522 -0.6429
  153SAPE   H3Y16953   0.743   2.816   6.155  0.2169  1.8678  2.9907
  153SAPE   C3416954   0.872   2.933   6.027  0.2160 -0.4342  0.5251
  153SAPE   H4X16955   0.980   2.958   6.026 -0.6501  4.3349  0.1791
  153SAPE   H4Y16956   0.816   3.028   6.040  2.0532  0.8194 -0.3294
  153SAPE   C3516957   0.830   2.893   5.881 -0.4265  0.4537 -0.1922
  153SAPE   H5X16958   0.730   2.845   5.888 -0.3669  0.4361  0.6323
  153SAPE   H5Y16959   0.896   2.812   5.841 -0.1170  0.5008  0.2150
  153SAPE   C3616960   0.831   3.020   5.793 -0.5494  0.3013  0.6666
  153SAPE   H6X16961   0.931   3.064   5.773 -0.1911 -0.4105  0.8735
  153SAPE   H6Y16962   0.780   3.096   5.856  1.2769  2.2146 -0.0402
  153SAPE   C3716963   0.745   2.987   5.667 -0.3680  0.2134  0.0590
  153SAPE   H7X16964   0.651   2.940   5.703 -0.3757 -0.2918 -0.6044
  153SAPE   H7Y16965   0.788   2.911   5.599 -2.6098 -3.0205  1.9897
  153SAPE   C3816966   0.712   3.115   5.587  0.5885 -0.6363 -0.1384
  153SAPE   H8X16967   0.810   3.159   5.558  0.5600 -1.6880 -1.9711
  153SAPE   H8Y16968   0.658   3.186   5.654  0.8338  0.0998 -0.6967
  153SAPE   C3916969   0.630   3.084   5.459 -0.4853 -0.1185 -0.7852
  153SAPE   H9X16970   0.604   3.182   5.413 -0.7089 -0.5174 -1.5130
  153SAPE   H9Y16971   0.537   3.036   5.493 -0.2576 -1.0886 -1.4802
  153SAPE  C31016972   0.702   2.994   5.360  0.2387  0.1416 -0.2969
  153SAPE  H10X16973   0.722   2.894   5.404 -2.0514  0.0839  0.7318
  153SAPE  H10Y16974   0.801   3.045   5.357  0.4311 -0.0935  1.2688
  153SAPE  C31116975   0.652   2.988   5.220 -0.0717 -0.4590 -0.2245
  153SAPE  H11X16976   0.611   3.090   5.204 -2.4288 -1.3004  0.0552
  153SAPE  H11Y16977   0.571   2.915   5.200 -0.1513  0.0205 -1.8558
  153SAPE  C31216978   0.762   2.980   5.109 -0.1703  0.0699  0.4812
  153SAPE  H12X16979   0.811   2.882   5.089 -0.4077  0.5429 -3.0361
  153SAPE  H12Y16980   0.845   3.045   5.145  1.1237 -1.3439  0.1737
  153SAPE  C31316981   0.713   3.035   4.968  0.2778 -0.5657  0.0350
  153SAPE  H13X16982   0.662   3.133   4.975 -2.4457 -1.9057  0.6532
  153SAPE  H13Y16983   0.645   2.959   4.924 -0.1677 -0.5316  0.6404
  153SAPE  C31416984   0.826   3.055   4.869 -0.0074 -1.2961  0.0827
  153SAPE  H14X16985   0.908   3.119   4.907  1.0900 -2.3422 -0.4638
  153SAPE  H14Y16986   0.784   3.105   4.779 -0.6092 -1.8913  0.0214
  153SAPE  C31516987   0.900   2.929   4.820  0.2879 -0.6051 -1.0160
  153SAPE  H15X16988   0.820   2.853   4.803  0.4763 -1.1662  0.4518
  153SAPE  H15Y16989   0.962   2.885   4.901 -0.6662  0.8539  0.5618
  153SAPE  C31616990   0.982   2.955   4.692 -0.4619 -0.0839  0.0597
  153SAPE  H16X16991   1.005   3.063   4.677 -1.9964  0.4945  1.4686
  153SAPE  H16Y16992   0.921   2.932   4.602  1.5033 -2.1710 -0.8138
  153SAPE  C31716993   1.112   2.877   4.686 -0.2568 -0.2506 -0.4109
  153SAPE  H17X16994   1.098   2.767   4.685 -0.8253 -0.2102  1.0787
  153SAPE  H17Y16995   1.165   2.901   4.781 -0.4957  0.8058 -0.5372
  153SAPE  C31816996   1.203   2.916   4.569 -0.3676  0.5743  0.3417
  153SAPE  H18X16997   1.199   3.023   4.539 -0.1308  0.6872  0.7192
  153SAPE  H18Y16998   1.177   2.850   4.484 -0.3181  0.1161  0.6799
  153SAPE  H18Z16999   1.305   2.896   4.606 -0.3251 -0.5864 -0.3585
  154SAPE     N17000   5.260   0.953   6.834  0.2544 -0.2151  0.9615
  154SAPE   HN117001   5.354   0.978   6.870  0.3649  0.9089 -0.0370
  154SAPE   HN217002   5.214   0.872   6.880 -0.2979 -1.4291 -1.5173
  154SAPE   HN317003   5.270   0.907   6.742  1.5435 -1.0539  1.4958
  154SAPE   C1217004   5.175   1.072   6.839  0.3934 -0.8635  0.0085
  154SAPE  H12A17005   5.155   1.094   6.946 -0.3781  1.9437 -0.6452
  154SAPE  H12B17006   5.081   1.031   6.796 -0.6854 -0.7316  2.0736
  154SAPE   C1117007   5.227   1.195   6.752  0.3293  0.0285 -0.6082
  154SAPE  H11A17008   5.154   1.276   6.772 -0.4099 -0.7513 -0.0177
  154SAPE  H11B17009   5.216   1.143   6.654  1.0575 -0.4145 -0.4587
  154SAPE     P17010   5.405   1.368   6.811 -0.2373  0.1920  0.0982
  154SAPE   O1317011   5.310   1.443   6.901 -0.2631  0.6886  0.9577
  154SAPE   O1417012   5.547   1.383   6.850 -0.3539  0.8847  0.7317
  154SAPE   O1217013   5.366   1.219   6.788  0.0127  0.5997 -0.0320
  154SAPE   O1117014   5.400   1.433   6.669 -0.4497 -0.4996 -0.1400
  154SAPE    C117015   5.478   1.370   6.569  0.1973  0.1904  0.2711
  154SAPE    HA17016   5.586   1.395   6.573  0.7878 -1.9281 -0.8257
  154SAPE    HB17017   5.484   1.259   6.569  0.5929  0.1534 -2.0496
  154SAPE    C217018   5.433   1.405   6.426 -0.5091 -0.2150  0.0726
  154SAPE    HS17019   5.506   1.352   6.362  0.0951 -1.5768  1.8188
  154SAPE   O2117020   5.434   1.549   6.419  0.5744 -0.0054  0.4930
  154SAPE   C2117021   5.542   1.612   6.417 -0.7054  0.2002  0.3698
  154SAPE   O2217022   5.651   1.564   6.390  0.6927 -0.1600 -0.4422
  154SAPE   C2217023   5.525   1.767   6.439 -0.4115 -0.0875 -0.4515
  154SAPE   H2R17024   5.416   1.783   6.451 -0.5263 -1.7224  1.1986
  154SAPE   H2S17025   5.566   1.790   6.540  1.9533  0.3669 -1.4425
  154SAPE    C317026   5.285   1.348   6.407  0.3187  0.6367 -0.6744
  154SAPE    HX17027   5.228   1.366   6.500  2.3557 -0.1118  0.7911
  154SAPE    HY17028   5.291   1.237   6.415 -0.3447  0.7310  2.5853
  154SAPE   O3117029   5.217   1.385   6.287  0.2641 -0.6261 -0.1541
  154SAPE   C3117030   5.159   1.505   6.287 -0.1025  0.3712  0.1631
  154SAPE   O3217031   5.117   1.567   6.383  0.5999  0.3973 -0.2424
  154SAPE   C3217032   5.144   1.560   6.145 -0.1309  0.1484  0.0078
  154SAPE   H2X17033   5.142   1.671   6.148 -0.8455  0.1594 -0.4936
  154SAPE   H2Y17034   5.047   1.527   6.102 -0.2309  0.3763  0.0596
  154SAPE   C2317035   5.599   1.856   6.336  0.0615  0.4263 -0.5322
  154SAPE   H3R17036   5.707   1.836   6.347  0.4847  2.5611 -0.4439
  154SAPE   H3S17037   5.579   1.960   6.370 -2.4745 -0.3473  0.6069
  154SAPE   C2417038   5.558   1.844   6.185 -0.7662  0.2445 -0.0836
  154SAPE   H4R17039   5.454   1.880   6.176 -0.5201  1.0158  0.0494
  154SAPE   H4S17040   5.564   1.742   6.143  1.9020  0.4515 -0.4049
  154SAPE   C2517041   5.667   1.900   6.094  0.1358 -1.3535 -0.0515
  154SAPE   H5R17042   5.770   1.865   6.112  1.4443  1.4732 -1.3110
  154SAPE   C2617043   5.651   1.981   5.991 -0.0804  0.2629  0.4644
  154SAPE   H6R17044   5.742   2.006   5.934  0.3683 -0.7146  0.7347
  154SAPE   C2717045   5.519   2.039   5.952 -0.1470 -0.6280  0.0845
  154SAPE   H7R17046   5.467   2.085   6.038 -1.0648 -1.7217  0.1440
  154SAPE   H7S17047   5.452   1.952   5.934 -2.3953  0.9403  0.4987
  154SAPE   C2817048   5.540   2.135   5.833  0.1883 -0.0846  0.4369
  154SAPE   H8R17049   5.572   2.234   5.867 -0.6184 -0.3890  2.2043
  154SAPE   C2917050   5.527   2.113   5.698  0.2617 -0.1179 -0.9021
  154SAPE   H9R17051   5.544   2.193   5.624  2.3064 -1.4882 -2.0241
  154SAPE  C21017052   5.469   1.990   5.634  0.1393 -0.5054 -0.3676
  154SAPE  H10R17053   5.389   2.023   5.565  0.1940 -0.3562 -0.3605
  154SAPE  H10S17054   5.422   1.923   5.708  0.9493 -1.2427 -0.5005
  154SAPE  C21117055   5.568   1.907   5.553  0.6301  0.5578  0.0442
  154SAPE  H11R17056   5.615   1.826   5.610 -0.6546 -0.5623 -0.4434
  154SAPE  C21217057   5.597   1.914   5.422 -0.1951  0.1169  0.0782
  154SAPE  H12R17058   5.652   1.828   5.381 -1.8516 -1.5164  1.1024
  154SAPE  C21317059   5.550   2.017   5.318  0.7052  0.1930 -0.3670
  154SAPE  H13R17060   5.480   2.086   5.369  1.2226  0.5699 -0.1596
  154SAPE  H13S17061   5.485   1.965   5.244 -0.0410  0.5380  0.0310
  154SAPE  C21417062   5.662   2.087   5.244  0.0014  0.4072  0.2630
  154SAPE  H14R17063   5.760   2.039   5.253 -0.8820 -1.2582  1.6179
  154SAPE  C21517064   5.658   2.202   5.174  0.6142  0.2629  0.1918
  154SAPE  H15R17065   5.749   2.238   5.124  0.5225 -0.9078 -0.8438
  154SAPE  C21617066   5.532   2.280   5.141 -0.5435  0.0421 -0.5004
  154SAPE  H16R17067   5.502   2.331   5.235  2.1678  0.0168  0.4743
  154SAPE  H16S17068   5.456   2.207   5.105  2.0860 -1.9765 -2.4091
  154SAPE  C21717069   5.532   2.391   5.027  0.3987  0.1115  1.6394
  154SAPE  H17R17070   5.597   2.476   5.056  0.0526  1.4028 -1.0763
  154SAPE  H17S17071   5.425   2.418   5.019  0.5988  0.6902  0.8084
  154SAPE  C21817072   5.588   2.334   4.895  0.1986 -0.4019  0.3318
  154SAPE  H18R17073   5.513   2.259   4.862 -0.7277  0.7367 -0.1865
  154SAPE  H18S17074   5.692   2.294   4.899  0.3250 -0.3210 -1.4753
  154SAPE  C21917075   5.613   2.456   4.804 -0.0350  0.2924  0.8882
  154SAPE  H19R17076   5.667   2.539   4.854 -1.5604  0.9291  1.5370
  154SAPE  H19S17077   5.518   2.497   4.763 -0.1500 -2.6173 -2.2532
  154SAPE  C22017078   5.695   2.426   4.677  0.1493 -0.0838  0.5118
  154SAPE  H20R17079   5.715   2.524   4.628  0.1824 -0.1032  0.4869
  154SAPE  H20S17080   5.638   2.359   4.608 -2.0295  1.0813  1.0820
  154SAPE  H20T17081   5.787   2.369   4.701 -0.1949 -1.0225 -0.3167
  154SAPE   C3317082   5.266   1.520   6.052  0.2408  0.5644 -0.0456
  154SAPE   H3X17083   5.241   1.418   6.017 -0.5281  1.0265 -0.8947
  154SAPE   H3Y17084   5.358   1.535   6.113 -0.2447 -0.2401  0.9118
  154SAPE   C3417085   5.288   1.602   5.927 -0.1292 -0.1462  0.4524
  154SAPE   H4X17086   5.373   1.558   5.871  1.0590 -1.7128  3.2640
  154SAPE   H4Y17087   5.312   1.706   5.961  1.7494 -0.8628  1.4969
  154SAPE   C3517088   5.164   1.611   5.824 -0.2171  0.4987 -0.6928
  154SAPE   H5X17089   5.086   1.678   5.868 -0.2469 -0.1900  0.3534
  154SAPE   H5Y17090   5.114   1.513   5.810 -0.0568  0.3130 -0.0084
  154SAPE   C3617091   5.202   1.659   5.679 -0.0868 -0.4967  0.2615
  154SAPE   H6X17092   5.238   1.573   5.620  0.5152 -1.0007  1.3245
  154SAPE   H6Y17093   5.272   1.745   5.693 -0.7167  0.5357 -2.4001
  154SAPE   C3717094   5.087   1.732   5.603 -0.3380  0.5456 -0.3400
  154SAPE   H7X17095   5.041   1.817   5.658 -0.8404  0.7525 -1.0590
  154SAPE   H7Y17096   5.017   1.649   5.582  1.6730 -1.5997  0.9890
  154SAPE   C3817097   5.130   1.801   5.470 -0.2764  0.0464 -0.2486
  154SAPE   H8X17098   5.186   1.896   5.484 -0.3067 -0.2659  2.4032
  154SAPE   H8Y17099   5.034   1.833   5.425 -2.2755  0.1521  3.7173
  154SAPE   C3917100   5.218   1.710   5.387  0.5101  0.2310  0.5052
  154SAPE   H9X17101   5.155   1.629   5.344  0.5594  0.2575  0.3838
  154SAPE   H9Y17102   5.315   1.679   5.432  1.0281  0.1100 -0.6440
  154SAPE  C31017103   5.264   1.788   5.261 -0.2494 -0.4265 -0.2046
  154SAPE  H10X17104   5.370   1.756   5.248  1.0826  3.0719  0.7581
  154SAPE  H10Y17105   5.264   1.896   5.289  0.1553 -0.5859  0.4267
  154SAPE  C31117106   5.193   1.757   5.129  0.1430 -0.3212 -0.5895
  154SAPE  H11X17107   5.083   1.739   5.135 -0.2279  1.4849 -1.3166
  154SAPE  H11Y17108   5.249   1.673   5.085  0.4874  0.5131 -1.7812
  154SAPE  C31217109   5.217   1.864   5.030  0.4380 -0.9488 -0.4634
  154SAPE  H12X17110   5.208   1.966   5.073 -2.3518 -1.0731 -0.5913
  154SAPE  H12Y17111   5.136   1.854   4.955 -0.4690 -2.7364  0.6718
  154SAPE  C31317112   5.347   1.857   4.959 -0.6670  0.1700  0.4853
  154SAPE  H13X17113   5.377   1.755   4.927 -0.2056  0.4807 -0.0727
  154SAPE  H13Y17114   5.424   1.905   5.023  0.1719 -2.4984  1.6139
  154SAPE  C31417115   5.332   1.942   4.829  0.8952  0.0889 -0.7582
  154SAPE  H14X17116   5.280   2.039   4.843 -0.7004 -0.7568 -0.6415
  154SAPE  H14Y17117   5.255   1.895   4.764  1.1865 -0.1096 -0.9589
  154SAPE  C31517118   5.458   1.965   4.756 -0.5871 -0.5382 -0.0887
  154SAPE  H15X17119   5.510   1.869   4.733  1.6664  0.0235  2.1581
  154SAPE  H15Y17120   5.525   2.021   4.824 -0.8399 -0.2899 -0.0427
  154SAPE  C31617121   5.449   2.035   4.621 -0.2764  0.5604 -0.4950
  154SAPE  H16X17122   5.408   2.137   4.627  1.1527  1.1525 -0.2861
  154SAPE  H16Y17123   5.385   1.985   4.545  1.4042 -0.1924 -1.4853
  154SAPE  C31717124   5.586   2.047   4.555 -0.1429 -0.7685 -0.0909
  154SAPE  H17X17125   5.625   1.943   4.547 -0.4720 -0.8435 -0.7404
  154SAPE  H17Y17126   5.658   2.106   4.616  1.1359 -1.3926 -0.9575
  154SAPE  C31817127   5.575   2.119   4.415 -0.3957  0.3562  0.3442
  154SAPE  H18X17128   5.496   2.067   4.357  2.5989 -1.6048 -2.2871
  154SAPE  H18Y17129   5.673   2.119   4.362  0.7767 -0.5111  2.3733
  154SAPE  H18Z17130   5.545   2.225   4.433 -0.4765  0.4551 -0.3352
  155SAPE     N17131   0.225   2.321   6.776 -0.0158  0.2741  0.6021
  155SAPE   HN117132   0.266   2.225   6.776  0.1250  0.3332  0.4713
  155SAPE   HN217133   0.308   2.384   6.783  1.2069 -1.0563 -0.8422
  155SAPE   HN317134   0.159   2.331   6.855 -1.2580  2.4925 -0.6260
  155SAPE   C1217135   0.158   2.347   6.642 -0.4959 -0.1505 -0.6299
  155SAPE  H12A17136   0.227   2.311   6.564  1.1819  0.1476  0.6512
  155SAPE  H12B17137   0.142   2.452   6.609  0.1912  0.0545 -0.3371
  155SAPE   C1117138   0.019   2.277   6.631  0.4316 -0.7028  0.1888
  155SAPE  H11A17139   0.026   2.171   6.665  1.1387 -0.7068  0.0463
  155SAPE  H11B17140  -0.003   2.276   6.522 -1.5438  1.9505  0.4872
  155SAPE     P17141  -0.142   2.310   6.835 -0.2797  0.2885 -0.2499
  155SAPE   O1317142  -0.225   2.190   6.823 -0.4634 -0.0865 -0.9744
  155SAPE   O1417143  -0.023   2.307   6.928  0.1030  0.0989  0.2877
  155SAPE   O1217144  -0.087   2.345   6.695 -0.1116  0.7308 -0.1919
  155SAPE   O1117145  -0.225   2.432   6.876 -0.6198  0.3687 -0.2942
  155SAPE    C117146  -0.247   2.544   6.793  0.1158 -0.0174 -0.4406
  155SAPE    HA17147  -0.252   2.628   6.865 -1.8727 -1.0670  0.7543
  155SAPE    HB17148  -0.174   2.558   6.711 -1.6724 -0.1431 -2.1435
  155SAPE    C217149  -0.390   2.526   6.731 -0.0780  0.0848  0.1299
  155SAPE    HS17150  -0.446   2.484   6.817  1.8475  0.0778  1.4176
  155SAPE   O2117151  -0.380   2.433   6.626  0.0780 -0.0686 -0.1562
  155SAPE   C2117152  -0.501   2.375   6.605  0.5210 -0.1341  0.3599
  155SAPE   O2217153  -0.593   2.378   6.682  0.2974 -0.0657  0.2131
  155SAPE   C2217154  -0.493   2.318   6.463  0.4356  0.0509  0.1303
  155SAPE   H2R17155  -0.406   2.248   6.463 -0.3718 -0.9953  1.0884
  155SAPE   H2S17156  -0.586   2.260   6.447 -0.2569  1.6234 -1.9678
  155SAPE    C317157  -0.452   2.660   6.685  0.8834  1.0222 -0.3972
  155SAPE    HX17158  -0.442   2.728   6.772 -1.6172 -0.0169  0.8011
  155SAPE    HY17159  -0.558   2.639   6.662  1.2370  0.6396 -1.8265
  155SAPE   O3117160  -0.388   2.704   6.563 -0.4361 -0.2401 -0.3612
  155SAPE   C3117161  -0.421   2.832   6.541 -0.4789 -0.3720  0.2342
  155SAPE   O3217162  -0.519   2.884   6.604 -0.3718  0.0218 -0.9006
  155SAPE   C3217163  -0.353   2.886   6.413 -0.5743  0.5630 -0.1931
  155SAPE   H2X17164  -0.286   2.808   6.373  1.7241  1.0977  2.3244
  155SAPE   H2Y17165  -0.287   2.971   6.441 -0.5894  0.8751 -1.0890
  155SAPE   C2317166  -0.482   2.418   6.346  0.6059 -0.2890  0.4260
  155SAPE   H3R17167  -0.379   2.460   6.334  0.8265 -1.0310 -0.3630
  155SAPE   H3S17168  -0.547   2.504   6.371 -1.2424 -1.5485  0.1614
  155SAPE   C2417169  -0.520   2.357   6.202  0.6048 -0.3393 -0.6859
  155SAPE   H4R17170  -0.625   2.323   6.201  1.0633 -1.8116 -1.3902
  155SAPE   H4S17171  -0.456   2.267   6.186 -1.9610 -2.2318 -0.9159
  155SAPE   C2517172  -0.492   2.452   6.089 -0.3618  0.1828 -0.4641
  155SAPE   H5R17173  -0.568   2.532   6.084 -1.2240 -0.6804 -1.7661
  155SAPE   C2617174  -0.385   2.439   6.005  0.3475  0.0567  0.1058
  155SAPE   H6R17175  -0.372   2.506   5.919 -3.6584 -0.4572 -1.1110
  155SAPE   C2717176  -0.279   2.326   6.014 -0.0783  0.1667  0.1007
  155SAPE   H7R17177  -0.326   2.230   5.985 -1.9889  1.4397 -1.2650
  155SAPE   H7S17178  -0.235   2.320   6.116 -1.6843  0.1836  0.8115
  155SAPE   C2817179  -0.168   2.350   5.917  0.5526  0.0337 -0.1965
  155SAPE   H8R17180  -0.069   2.382   5.953  0.0926  1.6019 -0.2660
  155SAPE   C2917181  -0.189   2.334   5.781 -0.1345 -0.4204  0.5155
  155SAPE   H9R17182  -0.103   2.365   5.719 -0.8420 -0.8638 -0.7353
  155SAPE  C21017183  -0.316   2.302   5.711  0.1362  0.1306  0.4052
  155SAPE  H10R17184  -0.405   2.353   5.753 -0.2405 -1.9315  2.3059
  155SAPE  H10S17185  -0.341   2.198   5.737  0.5777  0.3002  1.5576
  155SAPE  C21117186  -0.308   2.352   5.569 -0.6591 -0.3037  0.1356
  155SAPE  H11R17187  -0.343   2.456   5.564  2.6830  1.1074  2.4135
  155SAPE  C21217188  -0.286   2.281   5.455 -0.0267  0.3369  0.1362
  155SAPE  H12R17189  -0.287   2.334   5.359  0.7549 -2.0123 -1.2503
  155SAPE  C21317190  -0.262   2.136   5.443  0.0092 -0.6594 -0.8702
  155SAPE  H13R17191  -0.357   2.091   5.480 -1.2230  1.6174 -1.0550
  155SAPE  H13S17192  -0.195   2.113   5.529 -1.4273 -2.4722 -0.1553
  155SAPE  C21417193  -0.228   2.073   5.308 -0.2139  0.9148  0.2312
  155SAPE  H14R17194  -0.299   2.084   5.224  1.1778 -0.4239 -1.1976
  155SAPE  C21517195  -0.109   2.006   5.288  0.1639  0.1048 -0.8805
  155SAPE  H15R17196  -0.091   1.966   5.187 -2.0967 -1.5501 -0.7010
  155SAPE  C21617197   0.004   1.973   5.380 -0.5757  0.8858 -1.2543
  155SAPE  H16R17198   0.002   1.861   5.379 -0.6928  0.8906 -1.5098
  155SAPE  H16S17199  -0.010   2.002   5.486  0.2971 -0.0341 -0.8562
  155SAPE  C21717200   0.139   2.034   5.344  0.3088 -0.4052 -0.1938
  155SAPE  H17R17201   0.161   2.004   5.240  4.6621 -2.1785  1.0171
  155SAPE  H17S17202   0.222   1.992   5.404 -0.2185  1.4549  1.9939
  155SAPE  C21817203   0.136   2.187   5.367 -0.1931  0.8809  0.1147
  155SAPE  H18R17204   0.084   2.203   5.464 -0.5982 -0.8122  0.2131
  155SAPE  H18S17205   0.093   2.238   5.278  0.0728  0.9287  0.0133
  155SAPE  C21917206   0.280   2.241   5.394 -0.3656 -0.0121  0.3112
  155SAPE  H19R17207   0.357   2.250   5.314  0.5807  0.4058  1.2503
  155SAPE  H19S17208   0.327   2.178   5.472 -1.9132 -0.7317  0.7125
  155SAPE  C22017209   0.276   2.387   5.444 -0.1063  0.0203  0.0981
  155SAPE  H20R17210   0.207   2.403   5.530 -0.8143 -1.9891 -0.0277
  155SAPE  H20S17211   0.258   2.462   5.364 -1.1001 -0.2085  0.0974
  155SAPE  H20T17212   0.373   2.413   5.491  0.5537 -2.3806  0.1815
  155SAPE   C3317213  -0.440   2.954   6.305  0.1704 -0.1567 -0.0094
  155SAPE   H3X17214  -0.371   3.023   6.251 -0.3155 -0.6862 -1.3518
  155SAPE   H3Y17215  -0.520   3.018   6.348  1.2242  0.3152  1.3267
  155SAPE   C3417216  -0.496   2.853   6.208 -0.5872  0.5094  0.1067
  155SAPE   H4X17217  -0.562   2.782   6.264 -0.0669  0.1648  0.2887
  155SAPE   H4Y17218  -0.416   2.785   6.175 -1.5047 -0.3276 -0.4317
  155SAPE   C3517219  -0.569   2.919   6.091 -0.0464  0.0255 -0.3955
  155SAPE   H5X17220  -0.496   2.986   6.041  0.5867  0.9100  1.6102
  155SAPE   H5Y17221  -0.651   2.981   6.131 -0.7839 -0.4753 -1.1115
  155SAPE   C3617222  -0.626   2.819   5.991  0.6452 -0.0194  0.2377
  155SAPE   H6X17223  -0.731   2.807   6.026  0.0360  0.6175 -1.2983
  155SAPE   H6Y17224  -0.564   2.727   6.001  0.6947  0.0425  0.5159
  155SAPE   C3717225  -0.620   2.863   5.843 -0.4836  0.3684 -0.3820
  155SAPE   H7X17226  -0.540   2.940   5.837  2.5791 -2.5824 -0.4413
  155SAPE   H7Y17227  -0.721   2.897   5.815 -0.8715 -1.3453 -1.1469
  155SAPE   C3817228  -0.571   2.742   5.747  0.0192  0.3594 -0.9438
  155SAPE   H8X17229  -0.631   2.649   5.740 -0.0773  0.3147  0.2303
  155SAPE   H8Y17230  -0.469   2.709   5.775 -0.2950 -0.5318 -0.8259
  155SAPE   C3917231  -0.549   2.795   5.603 -0.0933  0.2515 -0.4040
  155SAPE   H9X17232  -0.467   2.869   5.608  1.8333 -1.8119  0.3477
  155SAPE   H9Y17233  -0.636   2.857   5.573 -0.7099  0.2435  1.2822
  155SAPE  C31017234  -0.510   2.677   5.501 -0.1182 -0.7461  0.5941
  155SAPE  H10X17235  -0.582   2.597   5.531 -2.3467  1.3408  1.1588
  155SAPE  H10Y17236  -0.408   2.646   5.531  0.8987  2.1606  0.4145
  155SAPE  C31117237  -0.520   2.706   5.353  0.6631 -0.7287  0.3352
  155SAPE  H11X17238  -0.442   2.785   5.337  1.1168 -1.3800 -0.7007
  155SAPE  H11Y17239  -0.616   2.759   5.338  1.6884  0.9173 -0.7697
  155SAPE  C31217240  -0.506   2.583   5.261  0.4429 -0.1376 -0.4718
  155SAPE  H12X17241  -0.428   2.510   5.291  0.4056  0.5941  1.5775
  155SAPE  H12Y17242  -0.452   2.612   5.169  2.8136 -2.2209  0.1518
  155SAPE  C31317243  -0.641   2.519   5.222 -0.5055 -0.0816  0.1626
  155SAPE  H13X17244  -0.716   2.588   5.178 -0.9245  0.8152  2.1450
  155SAPE  H13Y17245  -0.681   2.469   5.313  0.2435 -2.0338 -0.5294
  155SAPE  C31417246  -0.626   2.390   5.129 -0.2965  0.8693 -0.3092
  155SAPE  H14X17247  -0.564   2.321   5.190 -1.5274  0.9281  1.0639
  155SAPE  H14Y17248  -0.583   2.433   5.036 -1.2374 -1.3809 -1.8441
  155SAPE  C31517249  -0.762   2.327   5.089 -0.1234 -0.4644 -0.2113
  155SAPE  H15X17250  -0.832   2.402   5.046 -0.7959 -1.2500 -0.5105
  155SAPE  H15Y17251  -0.807   2.279   5.178  2.7023 -2.1460  0.4250
  155SAPE  C31617252  -0.751   2.210   4.988 -0.3963 -0.1231  0.2349
  155SAPE  H16X17253  -0.853   2.178   4.958 -0.6056 -0.0575  0.8686
  155SAPE  H16Y17254  -0.691   2.133   5.041  0.8414  1.8055  1.8018
  155SAPE  C31717255  -0.666   2.239   4.871 -0.7436 -0.9133  0.2567
  155SAPE  H17X17256  -0.568   2.276   4.908 -1.1289 -0.9685  1.3656
  155SAPE  H17Y17257  -0.711   2.327   4.821 -0.0193  0.3379  1.7434
  155SAPE  C31817258  -0.655   2.121   4.775 -0.5259  0.6313 -0.0463
  155SAPE  H18X17259  -0.614   2.153   4.676  1.2600 -2.1765 -0.3275
  155SAPE  H18Y17260  -0.753   2.071   4.766 -0.4933  0.6368 -0.4709
  155SAPE  H18Z17261  -0.579   2.047   4.810  1.0427  1.2054 -2.0417
  156SAPE     N17262   1.491   3.567   6.820  0.2013  0.2485 -0.4788
  156SAPE   HN117263   1.467   3.494   6.890 -0.2698 -1.3642 -2.2176
  156SAPE   HN217264   1.469   3.661   6.858  0.2387  0.9305 -2.0520
  156SAPE   HN317265   1.423   3.545   6.744  1.0760 -0.9681 -0.9461
  156SAPE   C1217266   1.630   3.551   6.774 -0.8120 -0.3411 -0.5176
  156SAPE  H12A17267   1.676   3.500   6.861  1.5361  2.4989  0.0814
  156SAPE  H12B17268   1.678   3.650   6.759 -0.3980 -0.2627  1.2077
  156SAPE   C1117269   1.628   3.472   6.648 -0.2276  0.1201  0.2420
  156SAPE  H11A17270   1.725   3.478   6.594 -0.4579 -0.0254 -0.1926
  156SAPE  H11B17271   1.545   3.506   6.582  0.3879  0.9918 -0.0957
  156SAPE     P17272   1.724   3.235   6.688 -0.3402  0.5308 -0.5465
  156SAPE   O1317273   1.830   3.305   6.762 -0.2960  0.3749  0.2984
  156SAPE   O1417274   1.681   3.108   6.755  0.5620 -0.6906  0.2679
  156SAPE   O1217275   1.601   3.333   6.675 -0.3756 -0.3278  0.3535
  156SAPE   O1117276   1.773   3.190   6.540  0.1472 -0.3457  0.3973
  156SAPE    C117277   1.762   3.273   6.422  0.5592 -0.3349 -0.0561
  156SAPE    HA17278   1.657   3.303   6.403  0.2026 -0.2971  1.7504
  156SAPE    HB17279   1.819   3.366   6.445  0.2822  0.2404 -1.6088
  156SAPE    C217280   1.842   3.216   6.314  0.7094  0.6841  0.2066
  156SAPE    HS17281   1.889   3.302   6.262 -1.0160 -0.0297 -2.7694
  156SAPE   O2117282   1.754   3.141   6.228  0.2233  0.1530 -0.0609
  156SAPE   C2117283   1.788   3.141   6.097 -0.5514  0.3797 -0.1976
  156SAPE   O2217284   1.884   3.192   6.049 -0.6599  0.2473  0.5389
  156SAPE   C2217285   1.671   3.085   6.009 -0.4332  0.1273  0.2883
  156SAPE   H2R17286   1.630   2.990   6.048 -1.5464 -0.0772 -1.2952
  156SAPE   H2S17287   1.591   3.162   6.019  0.1433  0.8425 -0.4537
  156SAPE    C317288   1.954   3.124   6.375 -0.3034 -0.2450 -0.2745
  156SAPE    HX17289   1.920   3.024   6.410  0.8349 -0.7914 -0.6701
  156SAPE    HY17290   1.991   3.184   6.460 -0.1367 -0.7303 -0.0003
  156SAPE   O3117291   2.053   3.085   6.277  0.7083 -0.2637 -0.3889
  156SAPE   C3117292   2.167   3.145   6.277 -0.1189  0.1634 -0.7580
  156SAPE   O3217293   2.194   3.241   6.346 -0.8058 -0.4539 -0.0164
  156SAPE   C3217294   2.266   3.081   6.179 -0.3196 -0.2396 -0.9841
  156SAPE   H2X17295   2.208   3.062   6.086  0.0639  1.7510 -1.6936
  156SAPE   H2Y17296   2.299   2.983   6.217 -1.3901  0.5441  2.2610
  156SAPE   C2317297   1.722   3.055   5.866  0.2835 -0.1540 -0.6201
  156SAPE   H3R17298   1.809   2.987   5.875  1.3342  1.3746  1.6214
  156SAPE   H3S17299   1.772   3.141   5.816  0.0106  0.9694  0.9491
  156SAPE   C2417300   1.609   2.992   5.770 -0.3367  0.4995 -0.8215
  156SAPE   H4R17301   1.567   2.903   5.821 -0.2679  2.7835  3.7440
  156SAPE   H4S17302   1.671   2.954   5.686  1.3630  1.7042 -0.1691
  156SAPE   C2517303   1.502   3.082   5.725 -0.8437  0.2761 -0.6303
  156SAPE   H5R17304   1.427   3.112   5.799 -1.8975  0.4667 -1.7404
  156SAPE   C2617305   1.492   3.129   5.600 -0.7364  0.0531  0.3053
  156SAPE   H6R17306   1.401   3.176   5.560 -0.2443  0.0647 -0.8276
  156SAPE   C2717307   1.593   3.101   5.489  0.3347  0.3547  1.2988
  156SAPE   H7R17308   1.693   3.141   5.515  1.2126  1.8658 -3.4485
  156SAPE   H7S17309   1.566   3.163   5.401  2.0531 -0.2519  0.2812
  156SAPE   C2817310   1.594   2.958   5.439  0.0658  0.3368  0.4822
  156SAPE   H8R17311   1.541   2.888   5.505 -1.2671 -0.1188 -1.0321
  156SAPE   C2917312   1.652   2.911   5.331  0.4236  0.1715  0.5072
  156SAPE   H9R17313   1.636   2.805   5.306  1.2156  0.0056  0.6925
  156SAPE  C21017314   1.735   2.987   5.226  0.2573 -0.6100 -0.4609
  156SAPE  H10R17315   1.748   3.089   5.267  1.9981 -1.2431  0.6747
  156SAPE  H10S17316   1.685   2.994   5.127  1.1843  1.7293 -0.8325
  156SAPE  C21117317   1.874   2.935   5.201  0.0397 -0.2791  0.4156
  156SAPE  H11R17318   1.906   2.847   5.258  2.4192  0.6565  0.6462
  156SAPE  C21217319   1.952   2.964   5.095 -0.6564  0.3498 -0.1322
  156SAPE  H12R17320   2.049   2.912   5.094 -0.5730  0.4961 -1.3853
  156SAPE  C21317321   1.926   3.080   5.003  0.2562 -0.3309 -0.8358
  156SAPE  H13R17322   1.843   3.140   5.046 -0.6486 -1.3282 -1.1586
  156SAPE  H13S17323   1.879   3.055   4.905 -2.8311 -0.7599  0.6217
  156SAPE  C21417324   2.041   3.169   4.980 -0.3385 -0.1023 -0.5186
  156SAPE  H14R17325   2.115   3.133   4.907 -1.1689 -2.0443 -0.4410
  156SAPE  C21517326   2.046   3.295   5.028  0.8429  0.2258  0.3258
  156SAPE  H15R17327   2.135   3.357   5.012  0.7093  0.1654 -0.6636
  156SAPE  C21617328   1.938   3.362   5.110  0.0989  0.3107  0.7608
  156SAPE  H16R17329   1.883   3.295   5.179 -0.9259  0.1847 -0.1449
  156SAPE  H16S17330   1.857   3.403   5.045 -1.1148 -2.7170  0.1782
  156SAPE  C21717331   1.996   3.478   5.196  0.7422  0.6085  0.1611
  156SAPE  H17R17332   1.909   3.525   5.248 -0.4122 -2.1065  0.8877
  156SAPE  H17S17333   2.040   3.554   5.129 -0.7263  0.0489 -1.5228
  156SAPE  C21817334   2.096   3.436   5.301  0.3685 -1.0792 -0.0430
  156SAPE  H18R17335   2.173   3.377   5.247  1.1814 -0.3439  0.3011
  156SAPE  H18S17336   2.063   3.359   5.375 -0.0762 -1.5391 -0.7013
  156SAPE  C21917337   2.159   3.550   5.375 -0.2497 -0.2605 -0.0784
  156SAPE  H19R17338   2.226   3.510   5.454 -0.8125  1.6480  1.4396
  156SAPE  H19S17339   2.079   3.609   5.425 -0.6829 -0.1096 -0.9297
  156SAPE  C22017340   2.233   3.642   5.280  0.2916 -0.5497 -0.3077
  156SAPE  H20R17341   2.319   3.696   5.325 -2.0252  2.2806  1.1032
  156SAPE  H20S17342   2.158   3.719   5.250  1.1399  0.0773 -0.8485
  156SAPE  H20T17343   2.281   3.587   5.197  2.0527 -0.9022  0.8790
  156SAPE   C3317344   2.389   3.172   6.146  0.3481 -0.3369 -0.4137
  156SAPE   H3X17345   2.459   3.188   6.230  1.5052 -3.1970 -0.7156
  156SAPE   H3Y17346   2.350   3.271   6.114  1.5704  0.3196  0.0845
  156SAPE   C3417347   2.465   3.099   6.038  0.3097  0.6915  0.2121
  156SAPE   H4X17348   2.390   3.036   5.985 -0.6759 -0.3775  2.7208
  156SAPE   H4Y17349   2.529   3.024   6.090  0.8312  0.7212 -0.3712
  156SAPE   C3517350   2.542   3.179   5.928 -0.8191 -0.2542  0.2615
  156SAPE   H5X17351   2.634   3.230   5.964  0.7094 -2.7825  0.2532
  156SAPE   H5Y17352   2.471   3.260   5.903  0.0084  0.2071 -0.6784
  156SAPE   C3617353   2.578   3.090   5.806  0.1926 -0.2094 -0.3386
  156SAPE   H6X17354   2.484   3.050   5.761  0.9204 -0.8569 -1.3351
  156SAPE   H6Y17355   2.626   3.000   5.849 -2.3660 -2.2063 -1.3708
  156SAPE   C3717356   2.670   3.167   5.709  0.2241  0.1466  0.0241
  156SAPE   H7X17357   2.738   3.099   5.653  0.8010  0.8660 -0.1592
  156SAPE   H7Y17358   2.740   3.231   5.767  2.0197 -1.3818 -0.3284
  156SAPE   C3817359   2.598   3.248   5.598 -0.0359 -1.0899  0.3077
  156SAPE   H8X17360   2.667   3.325   5.560 -0.0613 -0.7450  0.9470
  156SAPE   H8Y17361   2.518   3.309   5.645  1.7397  1.8519 -0.2648
  156SAPE   C3917362   2.536   3.173   5.476  0.2921 -0.5993  0.2872
  156SAPE   H9X17363   2.452   3.110   5.513  0.6873 -0.1064  2.1421
  156SAPE   H9Y17364   2.612   3.101   5.438  1.6905  1.1382 -0.3132
  156SAPE  C31017365   2.493   3.273   5.367 -0.9788  0.0740 -0.8830
  156SAPE  H10X17366   2.592   3.319   5.349 -0.1582 -0.8582  0.9562
  156SAPE  H10Y17367   2.434   3.357   5.411 -0.1474  0.2846 -0.1438
  156SAPE  C31117368   2.415   3.203   5.252  0.0094 -0.1571 -0.5786
  156SAPE  H11X17369   2.372   3.286   5.191  0.5274  1.5722  1.2773
  156SAPE  H11Y17370   2.335   3.136   5.288  0.6350 -0.3466  0.5049
  156SAPE  C31217371   2.511   3.114   5.163 -0.5388 -0.1356  0.2052
  156SAPE  H12X17372   2.569   3.037   5.218  0.7476  0.9182  0.3602
  156SAPE  H12Y17373   2.586   3.188   5.128 -0.2903 -0.1040  0.7894
  156SAPE  C31317374   2.430   3.039   5.057 -0.0672  0.0206  0.3443
  156SAPE  H13X17375   2.374   3.115   4.999  0.2478  1.4314  1.8043
  156SAPE  H13Y17376   2.362   2.969   5.110  0.0931 -0.8672 -0.6049
  156SAPE  C31417377   2.508   2.951   4.952 -0.2884  0.1620 -0.0092
  156SAPE  H14X17378   2.603   2.914   4.996 -0.9075  2.8244  4.1691
  156SAPE  H14Y17379   2.529   3.017   4.865  0.5896  2.1225  1.5876
  156SAPE  C31517380   2.431   2.824   4.905  0.2427 -0.2270 -0.4108
  156SAPE  H15X17381   2.427   2.759   4.995  0.2965  0.8811  0.4092
  156SAPE  H15Y17382   2.483   2.766   4.825 -1.2053 -1.6886 -0.3602
  156SAPE  C31617383   2.295   2.850   4.856  0.0711  0.0652 -0.0420
  156SAPE  H16X17384   2.241   2.913   4.930  1.9852  1.7392  0.0350
  156SAPE  H16Y17385   2.245   2.751   4.849 -0.1358  0.2157 -0.7375
  156SAPE  C31717386   2.292   2.910   4.709  0.0469 -0.1840  0.6254
  156SAPE  H17X17387   2.374   2.865   4.649 -0.0959 -0.7205  0.8337
  156SAPE  H17Y17388   2.301   3.021   4.713 -2.8057  0.4291 -3.5400
  156SAPE  C31817389   2.166   2.882   4.636 -0.0923 -0.5914  0.6692
  156SAPE  H18X17390   2.096   2.959   4.675 -0.4922 -0.4749 -0.2435
  156SAPE  H18Y17391   2.126   2.779   4.651 -2.7619 -0.0905 -1.9616
  156SAPE  H18Z17392   2.175   2.890   4.526  1.0973 -0.1975  0.7796
  157SAPE     N17393   1.415   0.600   6.824 -0.5793 -0.4481  0.2363
  157SAPE   HN117394   1.393   0.554   6.915  1.8651 -0.7604  0.7162
  157SAPE   HN217395   1.326   0.621   6.773 -0.6031  0.2236  0.5397
  157SAPE   HN317396   1.476   0.548   6.759 -0.0641  2.0815 -1.4740
  157SAPE   C1217397   1.486   0.727   6.858 -0.0538  0.0226 -0.5954
  157SAPE  H12A17398   1.432   0.773   6.944  1.3841 -0.7586  0.7718
  157SAPE  H12B17399   1.483   0.795   6.770  0.4967  0.6167 -0.1723
  157SAPE   C1117400   1.630   0.712   6.898 -0.1216  0.8011 -0.0404
  157SAPE  H11A17401   1.678   0.627   6.845  0.9416  1.0091  0.5606
  157SAPE  H11B17402   1.620   0.671   7.001 -0.5828 -0.3015 -0.4991
  157SAPE     P17403   1.702   0.944   7.015  0.3314  0.5490  0.0854
  157SAPE   O1317404   1.628   1.065   6.971 -0.3523 -0.0798  0.8047
  157SAPE   O1417405   1.662   0.881   7.139  0.4625  0.0366 -0.4371
  157SAPE   O1217406   1.699   0.835   6.901  0.1784 -0.0729  0.1180
  157SAPE   O1117407   1.851   0.984   7.036  0.9705 -0.1846  0.9439
  157SAPE    C117408   1.969   0.892   7.018  0.4439  0.2106 -0.7640
  157SAPE    HA17409   2.038   0.888   7.105 -0.3690 -2.0471 -0.1706
  157SAPE    HB17410   1.936   0.788   7.003 -0.3372  0.2889  0.3224
  157SAPE    C217411   2.043   0.929   6.891  0.5076 -0.0943  0.1092
  157SAPE    HS17412   2.055   1.040   6.896  1.3500 -0.2505  2.7302
  157SAPE   O2117413   1.956   0.887   6.788 -0.1099  0.4598  0.5823
  157SAPE   C2117414   1.899   0.986   6.708  0.8349 -0.1809 -1.0904
  157SAPE   O2217415   1.919   1.105   6.722  0.4729  0.1262 -0.6533
  157SAPE   C2217416   1.808   0.925   6.601  0.1487  0.5957  0.1961
  157SAPE   H2R17417   1.785   0.821   6.634  0.4601  0.3807 -0.2516
  157SAPE   H2S17418   1.719   0.991   6.598 -0.1972  0.1674  0.7920
  157SAPE    C317419   2.183   0.862   6.881 -0.0781  1.4419 -0.0875
  157SAPE    HX17420   2.158   0.754   6.882 -0.8645  1.6173  1.1150
  157SAPE    HY17421   2.243   0.879   6.973 -1.9832  3.4956  0.8677
  157SAPE   O3117422   2.256   0.891   6.753 -0.0889 -0.1924  0.0047
  157SAPE   C3117423   2.327   1.003   6.759 -0.1666  0.9384 -0.0651
  157SAPE   O3217424   2.334   1.080   6.855 -0.3587  0.7200  0.2358
  157SAPE   C3217425   2.409   1.017   6.631 -0.0357 -0.4452 -0.2858
  157SAPE   H2X17426   2.436   0.915   6.594  2.5742 -0.1090  0.4623
  157SAPE   H2Y17427   2.501   1.064   6.673 -0.6665 -0.2389  0.8973
  157SAPE   C2317428   1.872   0.911   6.460  0.1402  0.7574 -0.8910
  157SAPE   H3R17429   1.964   0.850   6.471 -2.4553 -3.3920  0.0492
  157SAPE   H3S17430   1.888   1.014   6.421  0.2813  1.2550  0.4214
  157SAPE   C2417431   1.792   0.830   6.353  0.7637  0.4928  0.4578
  157SAPE   H4R17432   1.754   0.736   6.398  0.9843  1.8445  3.7317
  157SAPE   H4S17433   1.863   0.809   6.270  1.5391  1.0449  0.9612
  157SAPE   C2517434   1.681   0.918   6.303 -0.1992 -0.6985 -0.1580
  157SAPE   H5R17435   1.598   0.957   6.363 -0.3563  1.2653 -1.5708
  157SAPE   C2617436   1.683   0.984   6.175  0.1026  0.1491  0.6520
  157SAPE   H6R17437   1.596   1.044   6.145 -0.9184 -1.4532  0.2342
  157SAPE   C2717438   1.775   0.963   6.059 -0.1128 -0.4893  0.5958
  157SAPE   H7R17439   1.823   0.863   6.067  0.6475 -0.0664  1.6182
  157SAPE   H7S17440   1.851   1.043   6.069 -3.8321  3.3656  0.8547
  157SAPE   C2817441   1.719   0.996   5.922  0.0135 -1.0281 -0.9544
  157SAPE   H8R17442   1.616   1.035   5.917  1.4036  3.9163  1.6947
  157SAPE   C2917443   1.781   0.959   5.807  0.0419  0.1495  0.3733
  157SAPE   H9R17444   1.727   0.984   5.714 -0.9561 -0.0581  0.8756
  157SAPE  C21017445   1.906   0.885   5.776  0.4091 -0.1751 -0.4940
  157SAPE  H10R17446   1.980   0.889   5.859 -0.1794  1.8091 -0.0215
  157SAPE  H10S17447   1.962   0.947   5.703  1.0644  2.3267  1.9554
  157SAPE  C21117448   1.877   0.744   5.728  0.7388  0.4047  0.3916
  157SAPE  H11R17449   1.770   0.721   5.719  0.4322  0.8749  2.3777
  157SAPE  C21217450   1.961   0.644   5.686  0.0574 -0.1997 -0.3179
  157SAPE  H12R17451   1.927   0.540   5.678  1.5780 -0.9529  2.0590
  157SAPE  C21317452   2.112   0.655   5.678 -0.2115 -0.0862 -0.0196
  157SAPE  H13R17453   2.170   0.561   5.693  2.3724  1.5597  1.1466
  157SAPE  H13S17454   2.149   0.720   5.761  0.3439  0.2219 -0.5058
  157SAPE  C21417455   2.156   0.709   5.550  0.1250  0.3437  0.8283
  157SAPE  H14R17456   2.134   0.815   5.532  2.6552  0.7100 -0.5260
  157SAPE  C21517457   2.215   0.654   5.444  0.2495 -0.1565  0.4899
  157SAPE  H15R17458   2.229   0.715   5.353  0.3316 -0.3740  0.3552
  157SAPE  C21617459   2.248   0.508   5.425  0.2812 -0.4816  0.5040
  157SAPE  H16R17460   2.205   0.479   5.327 -0.6549  0.8258  0.5033
  157SAPE  H16S17461   2.206   0.446   5.508 -0.6483  0.5719  0.8463
  157SAPE  C21717462   2.397   0.487   5.426  0.1509  0.5588  0.3031
  157SAPE  H17R17463   2.423   0.381   5.447 -0.6074  0.4519  0.7648
  157SAPE  H17S17464   2.447   0.541   5.509 -0.3618  0.6905  0.5329
  157SAPE  C21817465   2.459   0.521   5.290  1.0925 -0.0935 -0.3755
  157SAPE  H18R17466   2.424   0.621   5.258 -0.9168 -1.4308 -2.7321
  157SAPE  H18S17467   2.418   0.448   5.216  0.2352 -0.6173  0.5873
  157SAPE  C21917468   2.611   0.515   5.275 -0.2165 -0.1639 -0.1201
  157SAPE  H19R17469   2.656   0.522   5.173  2.3234  5.6241  0.9861
  157SAPE  H19S17470   2.646   0.419   5.317  0.1709  0.3596  0.7803
  157SAPE  C22017471   2.679   0.634   5.351 -0.4840  0.5099  0.9219
  157SAPE  H20R17472   2.633   0.661   5.448  1.9250  1.8183  1.7689
  157SAPE  H20S17473   2.656   0.720   5.285 -0.2741 -1.7869 -2.4194
  157SAPE  H20T17474   2.789   0.621   5.357 -0.7563 -3.4424  0.3143
  157SAPE   C3317475   2.347   1.100   6.516 -0.4317  0.2227  0.5619
  157SAPE   H3X17476   2.426   1.093   6.438  0.3449  1.9046  1.1578
  157SAPE   H3Y17477   2.351   1.210   6.529 -0.0018  0.2119  0.5254
  157SAPE   C3417478   2.203   1.046   6.483 -0.0668  0.4760  0.0164
  157SAPE   H4X17479   2.137   1.080   6.566  1.5004  0.5727  1.2759
  157SAPE   H4Y17480   2.219   0.936   6.474 -0.3562  0.5910 -3.0349
  157SAPE   C3517481   2.150   1.097   6.350  0.3410 -0.6117 -0.8241
  157SAPE   H5X17482   2.054   1.050   6.321 -0.2237 -1.2777  1.8157
  157SAPE   H5Y17483   2.226   1.077   6.272 -0.6544 -2.4790 -1.3545
  157SAPE   C3617484   2.112   1.247   6.359 -0.0721  0.3384 -0.0710
  157SAPE   H6X17485   2.207   1.304   6.368  0.0060  0.2677 -0.4307
  157SAPE   H6Y17486   2.050   1.252   6.451  0.1031 -1.6983  0.2076
  157SAPE   C3717487   2.014   1.294   6.242 -0.1152  0.0693  0.2298
  157SAPE   H7X17488   1.996   1.403   6.251 -1.7695 -0.3148  2.1354
  157SAPE   H7Y17489   1.915   1.243   6.245 -0.1393 -0.1310 -1.9928
  157SAPE   C3817490   2.068   1.263   6.101  0.3957 -0.2012 -0.0481
  157SAPE   H8X17491   2.078   1.154   6.082  2.6775 -0.3758  1.7441
  157SAPE   H8Y17492   2.168   1.311   6.100  0.0463  0.5497 -1.6259
  157SAPE   C3917493   1.992   1.336   5.980  0.3890  0.6045 -0.3099
  157SAPE   H9X17494   1.957   1.439   6.001  0.9325  0.8188 -0.4387
  157SAPE   H9Y17495   1.897   1.279   5.976  0.3916  0.4686  1.0479
  157SAPE  C31017496   2.067   1.331   5.847 -0.0736  0.4929 -0.0963
  157SAPE  H10X17497   2.126   1.237   5.851  0.3635  0.7484 -0.4815
  157SAPE  H10Y17498   2.137   1.416   5.837 -0.5185  0.6216 -2.8606
  157SAPE  C31117499   1.976   1.338   5.724 -0.4733 -0.3918  0.1839
  157SAPE  H11X17500   1.889   1.406   5.736 -0.7041 -0.9045  1.5415
  157SAPE  H11Y17501   1.924   1.241   5.710 -0.8810  0.1285 -2.5698
  157SAPE  C31217502   2.050   1.380   5.588  0.4256  0.2877 -0.1645
  157SAPE  H12X17503   2.129   1.446   5.629  0.2795 -0.0584  0.7087
  157SAPE  H12Y17504   1.969   1.422   5.525 -1.8279 -1.9607  1.0218
  157SAPE  C31317505   2.107   1.256   5.521  0.3485  0.1221  1.0270
  157SAPE  H13X17506   2.036   1.171   5.520  3.9384 -3.1832 -1.7480
  157SAPE  H13Y17507   2.192   1.223   5.584 -0.3557 -0.4533  1.6997
  157SAPE  C31417508   2.166   1.283   5.385  0.4306 -1.0225 -0.1713
  157SAPE  H14X17509   2.261   1.340   5.389  1.3481 -2.4659 -0.6762
  157SAPE  H14Y17510   2.094   1.343   5.324  1.1632  0.5751  0.4772
  157SAPE  C31517511   2.204   1.163   5.299  0.1608 -0.2912 -0.0798
  157SAPE  H15X17512   2.281   1.093   5.337 -0.6062 -0.8834  0.4154
  157SAPE  H15Y17513   2.245   1.202   5.203 -1.2271  0.5232 -0.3801
  157SAPE  C31617514   2.085   1.077   5.250 -0.1383 -0.9217  0.0916
  157SAPE  H16X17515   1.988   1.130   5.265  0.1073 -0.6350  0.7039
  157SAPE  H16Y17516   2.092   0.983   5.309 -0.0254 -0.5491  0.6736
  157SAPE  C31717517   2.086   1.034   5.102  0.2692 -0.1386 -0.5311
  157SAPE  H17X17518   2.153   1.105   5.048  0.2986  0.0667 -0.2275
  157SAPE  H17Y17519   1.986   1.043   5.053 -0.1204  1.5493  0.4798
  157SAPE  C31817520   2.130   0.890   5.081  0.7302 -0.1800 -0.1379
  157SAPE  H18X17521   2.063   0.816   5.130  2.7442 -1.5399  0.7164
  157SAPE  H18Y17522   2.233   0.869   5.116  0.8289 -0.9183 -0.8250
  157SAPE  H18Z17523   2.138   0.854   4.976 -0.2075 -1.4588  0.2038
  158SAPE     N17524   4.470   6.573   7.723 -0.4730 -0.5747 -0.2186
  158SAPE   HN117525   4.511   6.633   7.649 -1.7670 -0.3864 -0.8064
  158SAPE   HN217526   4.430   6.629   7.801  0.9561  1.5320 -0.9246
  158SAPE   HN317527   4.550   6.523   7.767  1.9741  1.6539 -1.8235
  158SAPE   C1217528   4.373   6.480   7.666  0.0962  0.3484 -0.2354
  158SAPE  H12A17529   4.300   6.442   7.741  0.4511 -0.5297 -0.3269
  158SAPE  H12B17530   4.426   6.395   7.619  0.8944  0.2662  0.7866
  158SAPE   C1117531   4.286   6.538   7.552 -0.0592  0.4158  0.5745
  158SAPE  H11A17532   4.217   6.466   7.505 -0.6213 -1.0944  3.4938
  158SAPE  H11B17533   4.350   6.562   7.465 -1.2261 -1.8030 -0.9698
  158SAPE     P17534   4.270   6.792   7.532  0.3520 -0.3219  0.3092
  158SAPE   O1317535   4.192   6.903   7.585  0.7954 -0.0720 -0.4043
  158SAPE   O1417536   4.412   6.808   7.561  0.3447  0.1974  0.4658
  158SAPE   O1217537   4.219   6.658   7.597 -0.0372  0.4748 -0.3868
  158SAPE   O1117538   4.245   6.776   7.378  0.8531  0.2380  1.2584
  158SAPE    C117539   4.125   6.712   7.329 -0.3612 -0.7148 -0.4806
  158SAPE    HA17540   4.145   6.603   7.323  3.9382 -0.1121  0.1303
  158SAPE    HB17541   4.045   6.721   7.406 -1.1662  2.6701 -1.5391
  158SAPE    C217542   4.066   6.793   7.199  0.1798  0.4584  0.0923
  158SAPE    HS17543   3.971   6.736   7.184 -1.0101  1.7738  2.1240
  158SAPE   O2117544   4.153   6.791   7.087 -0.6573 -0.4611  1.1574
  158SAPE   C2117545   4.169   6.669   7.033  0.2514  0.1153  0.1290
  158SAPE   O2217546   4.110   6.570   7.081  0.2292  0.3259 -0.0253
  158SAPE   C2217547   4.257   6.661   6.912  0.4397 -0.5491  0.8909
  158SAPE   H2R17548   4.364   6.666   6.943  1.2952 -0.6712 -1.7647
  158SAPE   H2S17549   4.228   6.570   6.856 -0.4638  0.2748 -0.0028
  158SAPE    C317550   4.041   6.937   7.233 -0.0028  0.5953  0.0934
  158SAPE    HX17551   4.135   6.987   7.267 -0.2345  0.3436  1.1207
  158SAPE    HY17552   3.986   6.942   7.329  0.7728  1.4150  0.5128
  158SAPE   O3117553   3.980   7.015   7.126 -0.5719 -0.0572 -0.4184
  158SAPE   C3117554   3.896   7.108   7.162 -0.2623  0.3835 -0.0914
  158SAPE   O3217555   3.871   7.133   7.280 -0.0477 -0.3098  0.9874
  158SAPE   C3217556   3.827   7.179   7.040  0.3635 -0.0559  0.0014
  158SAPE   H2X17557   3.877   7.274   7.010 -1.5754  1.2097  0.5712
  158SAPE   H2Y17558   3.725   7.203   7.078  0.4707 -0.2215  0.3974
  158SAPE   C2317559   4.240   6.784   6.819 -0.7795 -0.5655 -0.2344
  158SAPE   H3R17560   4.321   6.782   6.743 -0.6914  1.4819 -0.2659
  158SAPE   H3S17561   4.247   6.872   6.887 -2.1220  0.6428 -1.5761
  158SAPE   C2417562   4.114   6.793   6.737  0.5099 -0.1707 -0.0296
  158SAPE   H4R17563   4.022   6.796   6.798 -0.3377  0.9072 -1.3192
  158SAPE   H4S17564   4.119   6.696   6.682 -2.8190 -0.4343 -0.0329
  158SAPE   C2517565   4.115   6.906   6.636  0.0011  0.1901 -0.7665
  158SAPE   H5R17566   4.096   7.004   6.683  0.7501  0.0773 -0.2058
  158SAPE   C2617567   4.135   6.907   6.503 -0.4709  0.2583 -0.1343
  158SAPE   H6R17568   4.147   7.002   6.450  0.5748  0.9442  1.2660
  158SAPE   C2717569   4.147   6.788   6.419 -0.6610  0.7727 -0.4596
  158SAPE   H7R17570   4.181   6.699   6.476 -2.6476  1.6754  2.3756
  158SAPE   H7S17571   4.224   6.801   6.340 -0.4462  0.2856 -0.3387
  158SAPE   C2817572   4.028   6.741   6.343 -0.7047  0.1196  0.0300
  158SAPE   H8R17573   3.960   6.665   6.386 -2.1835  1.1096 -0.4812
  158SAPE   C2917574   3.999   6.771   6.215 -0.5824  0.0132  0.6091
  158SAPE   H9R17575   3.909   6.721   6.174 -0.5939 -1.0720  1.9121
  158SAPE  C21017576   4.080   6.860   6.108 -0.4644  0.4251 -0.1932
  158SAPE  H10R17577   4.157   6.926   6.153  0.1258 -0.5381  0.2423
  158SAPE  H10S17578   4.003   6.924   6.059 -2.6852 -1.2749  0.8524
  158SAPE  C21117579   4.155   6.768   6.010  0.2722  0.4720 -0.1091
  158SAPE  H11R17580   4.215   6.689   6.057 -2.3962 -0.5814  1.8204
  158SAPE  C21217581   4.142   6.768   5.879 -0.1965  0.7524  0.0117
  158SAPE  H12R17582   4.199   6.693   5.822 -1.0528  1.7640 -2.3132
  158SAPE  C21317583   4.050   6.848   5.792 -0.0833 -0.1014  0.7778
  158SAPE  H13R17584   3.988   6.921   5.849  1.9665  1.8736  0.6271
  158SAPE  H13S17585   3.977   6.789   5.732 -1.2468  0.9909  1.0648
  158SAPE  C21417586   4.131   6.938   5.692 -0.0320 -0.3195  0.7044
  158SAPE  H14R17587   4.238   6.943   5.717 -0.3148  1.0598  1.7545
  158SAPE  C21517588   4.075   7.010   5.588 -0.0105  0.2987 -0.3794
  158SAPE  H15R17589   4.145   7.068   5.526  1.7345  0.8493  1.9961
  158SAPE  C21617590   3.927   7.027   5.558  0.7019  0.7527 -0.1469
  158SAPE  H16R17591   3.919   7.097   5.472  1.3767  0.1381 -0.7261
  158SAPE  H16S17592   3.876   7.063   5.650 -0.4509 -2.9999  0.8596
  158SAPE  C21717593   3.847   6.900   5.513 -0.0607  0.0886 -0.4506
  158SAPE  H17R17594   3.741   6.932   5.521  0.6340  2.2253  1.0503
  158SAPE  H17S17595   3.849   6.810   5.578  1.6603 -1.5347 -2.5863
  158SAPE  C21817596   3.876   6.851   5.378  0.4715 -0.1896  0.2219
  158SAPE  H18R17597   3.957   6.775   5.376 -0.9325 -1.7445 -1.2656
  158SAPE  H18S17598   3.910   6.934   5.311 -0.0618 -0.2686 -0.1528
  158SAPE  C21917599   3.760   6.790   5.299  0.1431 -0.4543 -0.0950
  158SAPE  H19R17600   3.686   6.871   5.286  0.9113  0.1771 -0.6316
  158SAPE  H19S17601   3.712   6.713   5.364  0.7781  0.4333  1.4728
  158SAPE  C22017602   3.802   6.727   5.169  0.1958  0.1675 -0.3999
  158SAPE  H20R17603   3.833   6.795   5.086 -0.4669  1.0317  0.0371
  158SAPE  H20S17604   3.718   6.668   5.125 -2.1186  2.2736  0.9071
  158SAPE  H20T17605   3.872   6.644   5.188 -0.8301 -0.5862  0.1965
  158SAPE   C3317606   3.791   7.079   6.930 -0.1770  0.6342  0.0640
  158SAPE   H3X17607   3.710   7.008   6.956 -0.5616  0.4547 -1.5175
  158SAPE   H3Y17608   3.878   7.022   6.890 -0.3392 -0.2066  0.8593
  158SAPE   C3417609   3.738   7.159   6.814  0.3399 -0.3829 -0.9095
  158SAPE   H4X17610   3.818   7.200   6.748  1.4692 -0.3110  0.4738
  158SAPE   H4Y17611   3.679   7.244   6.855  1.0745  0.0281 -0.6916
  158SAPE   C3517612   3.621   7.094   6.746 -0.1457  0.1297  0.0923
  158SAPE   H5X17613   3.564   7.159   6.677  0.3742  2.0786  1.4317
  158SAPE   H5Y17614   3.533   7.067   6.809 -0.3240  0.8481  0.1509
  158SAPE   C3617615   3.673   6.962   6.669 -0.1697 -0.7249 -0.6355
  158SAPE   H6X17616   3.594   6.915   6.607 -0.2009  1.2643 -2.2187
  158SAPE   H6Y17617   3.717   6.886   6.737 -1.1547  0.2347  1.1476
  158SAPE   C3717618   3.785   6.982   6.561  0.2469 -1.5553  0.2656
  158SAPE   H7X17619   3.838   6.891   6.526  1.0802 -1.1292  0.3865
  158SAPE   H7Y17620   3.865   7.038   6.614  0.2964 -0.9643 -0.4303
  158SAPE   C3817621   3.747   7.072   6.447  0.5842  0.4245  0.8174
  158SAPE   H8X17622   3.836   7.070   6.381  0.1699 -1.2012  0.2481
  158SAPE   H8Y17623   3.734   7.171   6.495 -0.5687  1.1594 -0.9147
  158SAPE   C3917624   3.626   7.038   6.365  0.3603 -0.0698 -0.5274
  158SAPE   H9X17625   3.533   7.034   6.426  0.4483 -0.2141 -0.4007
  158SAPE   H9Y17626   3.641   6.935   6.329  1.8540 -0.0605 -0.0017
  158SAPE  C31017627   3.598   7.149   6.262 -0.3107  0.6954  0.6414
  158SAPE  H10X17628   3.624   7.245   6.312  2.7617  0.0093  0.5871
  158SAPE  H10Y17629   3.491   7.153   6.233 -0.1525 -0.6094 -0.2031
  158SAPE  C31117630   3.671   7.135   6.126  1.0775 -0.3863  0.0542
  158SAPE  H11X17631   3.613   7.056   6.074 -1.0772  1.0720  0.1383
  158SAPE  H11Y17632   3.775   7.096   6.130  0.9495 -0.7184  0.1812
  158SAPE  C31217633   3.658   7.261   6.036 -0.2035  1.0768 -0.4187
  158SAPE  H12X17634   3.729   7.344   6.056 -0.0088  1.0503 -0.9684
  158SAPE  H12Y17635   3.559   7.310   6.040 -0.7444  0.1945 -2.0706
  158SAPE  C31317636   3.686   7.209   5.890 -0.4086 -0.1169  0.4411
  158SAPE  H13X17637   3.621   7.119   5.879 -3.0687  1.7829 -0.4981
  158SAPE  H13Y17638   3.791   7.178   5.875  0.0535  0.2312  2.5827
  158SAPE  C31417639   3.641   7.324   5.798  0.5418  0.3215 -0.4729
  158SAPE  H14X17640   3.695   7.416   5.828 -2.1595  2.2758 -1.2455
  158SAPE  H14Y17641   3.535   7.348   5.821  0.0201 -1.0846 -1.2831
  158SAPE  C31517642   3.677   7.301   5.655 -0.5353 -0.5357  0.0753
  158SAPE  H15X17643   3.780   7.260   5.643 -1.0664 -1.6523 -0.9182
  158SAPE  H15Y17644   3.663   7.391   5.591 -4.4030 -0.1731  1.1545
  158SAPE  C31617645   3.582   7.204   5.593 -0.2044 -0.1213 -0.1287
  158SAPE  H16X17646   3.477   7.237   5.603  0.8764  3.0174  3.4199
  158SAPE  H16Y17647   3.588   7.104   5.640  1.1682  0.0505  0.1182
  158SAPE  C31717648   3.614   7.185   5.443  0.3767 -0.2293 -0.1591
  158SAPE  H17X17649   3.710   7.133   5.422 -0.1740 -1.1372 -0.5358
  158SAPE  H17Y17650   3.625   7.290   5.408 -2.5385 -0.0568 -0.8717
  158SAPE  C31817651   3.495   7.111   5.372  0.7854 -0.5431  0.1307
  158SAPE  H18X17652   3.402   7.155   5.413  1.2584  1.0987 -0.4580
  158SAPE  H18Y17653   3.496   7.001   5.386 -0.2085 -0.3642  2.0177
  158SAPE  H18Z17654   3.490   7.128   5.263  1.8205 -2.0155 -0.1693
  159SAPE     N17655   0.290   6.581   2.659  0.5766 -0.1283  0.3756
  159SAPE   HN117656   0.359   6.648   2.619 -0.6454 -0.2492 -2.0844
  159SAPE   HN217657   0.340   6.502   2.703  0.4773  1.2872  3.3094
  159SAPE   HN317658   0.245   6.545   2.573 -1.9025  3.0947  0.1061
  159SAPE   C1217659   0.198   6.659   2.746  0.4042  0.6339  0.2102
  159SAPE  H12A17660   0.110   6.595   2.767 -0.3981  0.2471 -3.5342
  159SAPE  H12B17661   0.150   6.742   2.690 -1.9364  1.6539  3.4400
  159SAPE   C1117662   0.267   6.710   2.866  0.0628  0.1837  0.1558
  159SAPE  H11A17663   0.360   6.760   2.829 -1.4029  1.9451 -1.3477
  159SAPE  H11B17664   0.287   6.641   2.951 -1.4684  2.2582  2.3165
  159SAPE     P17665   0.204   6.958   2.952  0.1294 -0.0973  0.3102
  159SAPE   O1317666   0.240   7.018   2.820  0.0166 -0.0411 -0.4015
  159SAPE   O1417667   0.088   7.021   3.022 -0.3647 -0.6578  0.2808
  159SAPE   O1217668   0.181   6.802   2.932  0.1318 -0.0207 -0.1531
  159SAPE   O1117669   0.336   6.965   3.052 -0.4935 -0.8349 -0.0471
  159SAPE    C117670   0.345   6.868   3.152 -0.3114  0.6633  0.4380
  159SAPE    HA17671   0.249   6.847   3.203  0.9410 -0.9647  2.2797
  159SAPE    HB17672   0.390   6.777   3.106 -0.1429  1.5328 -1.1762
  159SAPE    C217673   0.444   6.910   3.270 -0.0940  0.0898 -0.0137
  159SAPE    HS17674   0.413   7.011   3.305 -1.3273 -0.3956  0.3450
  159SAPE   O2117675   0.580   6.904   3.224 -0.7940 -0.0341  1.4333
  159SAPE   C2117676   0.674   6.979   3.291 -0.0469  0.4894 -0.9436
  159SAPE   O2217677   0.651   7.055   3.383 -0.5299 -0.0140  0.3897
  159SAPE   C2217678   0.807   6.936   3.228  0.2776  0.4860  0.6298
  159SAPE   H2R17679   0.818   6.961   3.121 -0.2297 -1.2209  0.1568
  159SAPE   H2S17680   0.885   6.997   3.280  2.1227 -1.8226  0.7147
  159SAPE    C317681   0.425   6.808   3.393  0.5416 -0.0611 -0.0506
  159SAPE    HX17682   0.485   6.847   3.478 -0.4647  0.9075  0.2372
  159SAPE    HY17683   0.462   6.706   3.369 -2.5686 -0.7853 -2.5756
  159SAPE   O3117684   0.295   6.811   3.448  0.6230  0.4635  0.0315
  159SAPE   C3117685   0.238   6.694   3.472 -1.1494 -0.4214 -0.4007
  159SAPE   O3217686   0.272   6.587   3.428 -0.0135 -0.1263  0.1775
  159SAPE   C3217687   0.127   6.699   3.580  0.1495 -0.2332  0.2196
  159SAPE   H2X17688   0.044   6.763   3.541 -0.2620 -0.3426  0.8932
  159SAPE   H2Y17689   0.165   6.734   3.679 -0.9121 -0.1093  0.6070
  159SAPE   C2317690   0.846   6.785   3.234  0.3412 -0.3611 -0.8591
  159SAPE   H3R17691   0.944   6.777   3.181  1.1318 -0.2583  0.5367
  159SAPE   H3S17692   0.773   6.725   3.176 -2.0204  2.2504 -0.8181
  159SAPE   C2417693   0.859   6.721   3.369 -0.2316 -0.8614  0.3219
  159SAPE   H4R17694   0.899   6.620   3.344 -0.4820 -0.6128 -1.1682
  159SAPE   H4S17695   0.761   6.711   3.419 -0.0617  1.0774  1.1648
  159SAPE   C2517696   0.951   6.796   3.469  0.7261 -0.1732  0.5863
  159SAPE   H5R17697   1.051   6.807   3.424 -1.3446  1.4604 -4.2606
  159SAPE   C2617698   0.928   6.835   3.600 -0.2160  0.0980  0.1013
  159SAPE   H6R17699   0.998   6.899   3.655 -1.0359  1.8271 -0.7847
  159SAPE   C2717700   0.794   6.820   3.668 -0.3299  0.1686 -0.0164
  159SAPE   H7R17701   0.818   6.781   3.769 -0.1125 -2.2643 -0.9590
  159SAPE   H7S17702   0.738   6.736   3.622  0.7451 -0.8279  0.4612
  159SAPE   C2817703   0.698   6.942   3.671  0.1324  0.3089 -0.6107
  159SAPE   H8R17704   0.727   7.037   3.623 -0.6156  1.0787  0.4069
  159SAPE   C2917705   0.576   6.956   3.724 -1.3413 -0.0747  0.3502
  159SAPE   H9R17706   0.526   7.054   3.729 -0.0991  0.8320 -2.7165
  159SAPE  C21017707   0.493   6.839   3.783  0.2693  0.1099 -0.0499
  159SAPE  H10R17708   0.526   6.743   3.739 -0.7510 -0.0721 -0.4307
  159SAPE  H10S17709   0.389   6.836   3.745 -0.8059  1.4175  2.5152
  159SAPE  C21117710   0.511   6.831   3.934  0.4846 -0.5389  0.1672
  159SAPE  H11R17711   0.606   6.825   3.990 -0.4688  1.4588  2.1212
  159SAPE  C21217712   0.414   6.822   4.013  0.0464 -0.3117 -0.5037
  159SAPE  H12R17713   0.438   6.813   4.120 -2.3187 -0.5316  0.0760
  159SAPE  C21317714   0.267   6.804   3.967  0.0550  0.1308  0.4777
  159SAPE  H13R17715   0.254   6.701   3.926  2.4708 -0.4209  0.9821
  159SAPE  H13S17716   0.238   6.884   3.895 -1.1570 -0.1132  0.6799
  159SAPE  C21417717   0.164   6.811   4.079 -0.2480 -0.3453  0.7491
  159SAPE  H14R17718   0.122   6.913   4.071  1.7422  0.4493 -0.1863
  159SAPE  C21517719   0.155   6.725   4.184 -0.8348  0.3500  0.0173
  159SAPE  H15R17720   0.071   6.744   4.252  0.6333  1.8096  1.5270
  159SAPE  C21617721   0.240   6.600   4.205  0.2421 -0.2060 -0.2318
  159SAPE  H16R17722   0.346   6.614   4.238  0.0998 -1.1016  0.6575
  159SAPE  H16S17723   0.244   6.552   4.105 -0.4807 -1.4257  0.3059
  159SAPE  C21717724   0.191   6.487   4.308  0.5186 -0.1321 -0.2580
  159SAPE  H17R17725   0.268   6.407   4.303 -1.1996 -1.8825 -0.2439
  159SAPE  H17S17726   0.093   6.444   4.275  1.7586 -3.6651  0.2217
  159SAPE  C21817727   0.154   6.543   4.450 -0.5663  0.4886  0.8052
  159SAPE  H18R17728   0.119   6.452   4.503  0.6578 -2.7124 -3.3681
  159SAPE  H18S17729   0.066   6.610   4.441  1.0683  2.9669  1.8769
  159SAPE  C21917730   0.266   6.611   4.530 -0.8212  0.1305 -0.1489
  159SAPE  H19R17731   0.291   6.707   4.480 -0.0931 -0.5019 -1.0254
  159SAPE  H19S17732   0.360   6.555   4.514  0.8908  2.8964 -0.3606
  159SAPE  C22017733   0.227   6.653   4.673 -0.7107  0.3354  0.5560
  159SAPE  H20R17734   0.155   6.738   4.675 -1.2599 -0.1298  1.2455
  159SAPE  H20S17735   0.319   6.686   4.726 -0.7582  0.7582  0.3797
  159SAPE  H20T17736   0.179   6.570   4.730 -1.0422 -1.2432 -1.8901
  159SAPE   C3317737   0.060   6.552   3.602 -0.3029  0.2037  0.3437
  159SAPE   H3X17738   0.147   6.482   3.601 -0.3440  0.1263  1.3120
  159SAPE   H3Y17739   0.007   6.520   3.509  0.6717 -3.1511  0.7837
  159SAPE   C3417740  -0.047   6.544   3.710  0.5688 -0.1275 -1.2879
  159SAPE   H4X17741  -0.128   6.479   3.671 -2.0626  1.9354  0.3265
  159SAPE   H4Y17742  -0.098   6.639   3.733  2.5476  0.4975  0.9878
  159SAPE   C3517743   0.006   6.487   3.844 -0.5660 -0.2844 -0.4271
  159SAPE   H5X17744   0.064   6.560   3.904 -0.4784  0.5099 -1.4475
  159SAPE   H5Y17745   0.071   6.401   3.817 -0.1096 -0.1178  0.1331
  159SAPE   C3617746  -0.112   6.428   3.925  0.7311  0.1284 -0.0992
  159SAPE   H6X17747  -0.079   6.391   4.025 -0.6915  0.2357  0.4268
  159SAPE   H6Y17748  -0.141   6.334   3.872  0.5440  0.3540 -0.4006
  159SAPE   C3717749  -0.232   6.517   3.955  0.0748  0.1091  0.0733
  159SAPE   H7X17750  -0.272   6.548   3.856  0.1702  1.3027  0.3953
  159SAPE   H7Y17751  -0.200   6.609   4.008  0.2350 -0.8243  1.6375
  159SAPE   C3817752  -0.333   6.453   4.042  0.2583 -0.3438 -0.2874
  159SAPE   H8X17753  -0.347   6.345   4.020  1.6756 -0.6692  0.3278
  159SAPE   H8Y17754  -0.431   6.499   4.018 -1.1246 -3.8806 -2.2054
  159SAPE   C3917755  -0.310   6.482   4.192  0.1784 -0.1020 -0.3208
  159SAPE   H9X17756  -0.310   6.591   4.217  0.2690 -0.9009  3.9335
  159SAPE   H9Y17757  -0.207   6.451   4.222  0.5959  1.4867 -0.0123
  159SAPE  C31017758  -0.403   6.409   4.296 -0.1678 -0.3745 -0.2577
  159SAPE  H10X17759  -0.352   6.408   4.395  2.7112  2.8267 -1.4816
  159SAPE  H10Y17760  -0.399   6.308   4.250 -0.3778 -0.0111 -1.0931
  159SAPE  C31117761  -0.541   6.464   4.302 -0.1006  0.4748  0.2401
  159SAPE  H11X17762  -0.606   6.421   4.222  0.8221 -0.5684  0.0355
  159SAPE  H11Y17763  -0.528   6.573   4.287  0.1424  0.5286  0.8319
  159SAPE  C31217764  -0.612   6.440   4.442  0.3862  0.6417 -0.4627
  159SAPE  H12X17765  -0.558   6.516   4.503  3.1232  0.9603 -3.0343
  159SAPE  H12Y17766  -0.574   6.340   4.471 -1.3176 -0.1439 -0.8197
  159SAPE  C31317767  -0.761   6.450   4.433 -0.0420 -0.8191 -0.5152
  159SAPE  H13X17768  -0.804   6.398   4.345 -2.0102 -2.1116  1.1257
  159SAPE  H13Y17769  -0.776   6.558   4.416 -0.3862 -1.2641 -3.6572
  159SAPE  C31417770  -0.823   6.423   4.569 -0.4606 -0.1721  0.0153
  159SAPE  H14X17771  -0.751   6.430   4.653 -1.4614  2.5762  0.7444
  159SAPE  H14Y17772  -0.867   6.323   4.547  0.6029 -0.8252  0.7545
  159SAPE  C31517773  -0.934   6.529   4.601  0.1153 -0.6117  0.0551
  159SAPE  H15X17774  -1.019   6.510   4.532  1.1273  2.1315 -2.1677
  159SAPE  H15Y17775  -0.891   6.629   4.579  1.0613 -1.5089 -2.6117
  159SAPE  C31617776  -0.975   6.529   4.749  0.3267  0.6105 -0.3146
  159SAPE  H16X17777  -1.035   6.618   4.778 -1.4634 -1.5420  3.2184
  159SAPE  H16Y17778  -0.877   6.529   4.801  0.3477 -0.1810 -0.3434
  159SAPE  C31717779  -1.043   6.403   4.797  0.1672 -0.7393 -0.2779
  159SAPE  H17X17780  -0.981   6.312   4.784  1.2674  0.2075 -2.3572
  159SAPE  H17Y17781  -1.129   6.373   4.734  0.6784 -3.1756  0.1005
  159SAPE  C31817782  -1.094   6.406   4.941 -0.2772  0.0346  0.6585
  159SAPE  H18X17783  -1.171   6.485   4.945  1.1181  1.4786 -0.0997
  159SAPE  H18Y17784  -1.007   6.429   5.006 -1.3083  2.4236  1.2855
  159SAPE  H18Z17785  -1.142   6.312   4.976  1.8798 -0.6171  2.0302
  160SAPE     N17786   6.634   5.826   2.720  0.9040 -0.0821 -0.1942
  160SAPE   HN117787   6.671   5.910   2.671  1.9502 -0.3948  0.0450
  160SAPE   HN217788   6.613   5.848   2.819  3.3760 -1.9572  0.8404
  160SAPE   HN317789   6.703   5.749   2.722 -0.4807 -1.3598  1.1414
  160SAPE   C1217790   6.520   5.765   2.634  0.3196  0.1930  0.2347
  160SAPE  H12A17791   6.441   5.843   2.625  0.4729  0.5640  1.8011
  160SAPE  H12B17792   6.486   5.675   2.689  3.1687 -1.6191 -0.7695
  160SAPE   C1117793   6.571   5.705   2.507  0.1295 -0.3061 -0.6116
  160SAPE  H11A17794   6.580   5.784   2.430 -3.6486 -1.6025 -2.5959
  160SAPE  H11B17795   6.484   5.643   2.481 -0.6464  0.8549 -0.8500
  160SAPE     P17796   6.690   5.475   2.559 -0.4639 -0.1847  0.0255
  160SAPE   O1317797   6.647   5.394   2.437  0.3362  0.0135  0.0044
  160SAPE   O1417798   6.827   5.453   2.612  0.1199 -0.1969 -0.6046
  160SAPE   O1217799   6.689   5.629   2.528 -0.0934  0.1552  1.2237
  160SAPE   O1117800   6.587   5.460   2.674  1.4935 -0.6994  0.7717
  160SAPE    C117801   6.572   5.342   2.754  0.2486 -0.8050  0.0894
  160SAPE    HA17802   6.467   5.344   2.792  0.1806  0.5848 -0.1276
  160SAPE    HB17803   6.584   5.249   2.693 -1.9623 -2.1210  1.4769
  160SAPE    C217804   6.659   5.351   2.882 -0.1694  0.8855  0.5064
  160SAPE    HS17805   6.762   5.315   2.861  0.0641  0.8637  1.5936
  160SAPE   O2117806   6.590   5.258   2.973 -0.5631 -0.1875  0.0151
  160SAPE   C2117807   6.617   5.133   2.936 -0.7408 -0.7241  0.2915
  160SAPE   O2217808   6.712   5.099   2.864  0.5123 -0.1396 -0.1342
  160SAPE   C2217809   6.529   5.032   3.005 -0.1227  0.9016  1.3947
  160SAPE   H2R17810   6.487   5.082   3.095 -0.6063  2.3134  0.4225
  160SAPE   H2S17811   6.448   5.009   2.933  1.1542  0.4184  0.0654
  160SAPE    C317812   6.659   5.487   2.948 -0.4724 -0.3157 -0.4558
  160SAPE    HX17813   6.551   5.514   2.951 -0.8749 -1.7905 -0.8675
  160SAPE    HY17814   6.712   5.554   2.878 -0.3494 -1.2829 -1.3193
  160SAPE   O3117815   6.725   5.480   3.070 -0.3706 -0.3828  0.3654
  160SAPE   C3117816   6.766   5.604   3.108 -0.0865 -0.2372 -0.1241
  160SAPE   O3217817   6.752   5.706   3.047 -0.1854 -0.1782  0.1102
  160SAPE   C3217818   6.833   5.589   3.240 -0.0705 -0.0661  0.1585
  160SAPE   H2X17819   6.920   5.521   3.230  0.9810  1.2226  0.3142
  160SAPE   H2Y17820   6.768   5.544   3.319  0.8984 -0.9712  0.4629
  160SAPE   C2317821   6.597   4.907   3.057  0.2395  0.3837  0.5145
  160SAPE   H3R17822   6.672   4.861   2.990  1.6710  0.4658  1.9847
  160SAPE   H3S17823   6.517   4.830   3.057  0.4221  0.1709 -0.7907
  160SAPE   C2417824   6.643   4.923   3.202  0.5112 -0.5231  0.3440
  160SAPE   H4R17825   6.558   4.972   3.254 -0.0707 -0.6312 -0.4909
  160SAPE   H4S17826   6.731   4.989   3.221  0.9893 -1.3904  1.2315
  160SAPE   C2517827   6.684   4.791   3.259 -0.2507  0.0106 -0.1038
  160SAPE   H5R17828   6.780   4.756   3.219 -0.2512  2.0402 -2.0554
  160SAPE   C2617829   6.634   4.715   3.364 -0.2351 -0.1727  0.2720
  160SAPE   H6R17830   6.685   4.619   3.384  0.5580  0.2947  0.5621
  160SAPE   C2717831   6.513   4.740   3.451 -0.2718  0.4269 -0.7329
  160SAPE   H7R17832   6.490   4.638   3.489  1.2285  0.0990 -0.6564
  160SAPE   H7S17833   6.424   4.743   3.383  0.0199  0.7984 -1.1024
  160SAPE   C2817834   6.516   4.855   3.554  0.3260 -0.5341 -0.2033
  160SAPE   H8R17835   6.487   4.957   3.524  1.1262  0.3036  1.7206
  160SAPE   C2917836   6.544   4.840   3.685 -0.2149 -0.0593 -0.6019
  160SAPE   H9R17837   6.522   4.921   3.756 -2.2459 -0.7985 -0.3400
  160SAPE  C21017838   6.585   4.713   3.750  0.1515  0.8558  0.6309
  160SAPE  H10R17839   6.624   4.636   3.680 -1.1345 -1.6075  2.4414
  160SAPE  H10S17840   6.494   4.666   3.793  0.5978 -0.6888 -0.0358
  160SAPE  C21117841   6.688   4.734   3.848  0.0243  0.4612  0.8507
  160SAPE  H11R17842   6.786   4.704   3.810  0.1184  2.1170 -0.3362
  160SAPE  C21217843   6.662   4.769   3.976  0.3228  0.4934 -0.2125
  160SAPE  H12R17844   6.742   4.770   4.052 -0.5682 -1.7748  0.8249
  160SAPE  C21317845   6.521   4.785   4.032 -0.5929 -0.0745  0.1027
  160SAPE  H13R17846   6.508   4.703   4.105 -0.7062  0.0356  0.2060
  160SAPE  H13S17847   6.439   4.765   3.960 -0.4519 -1.8553  0.3972
  160SAPE  C21417848   6.491   4.919   4.092  0.1017  0.0610  0.5809
  160SAPE  H14R17849   6.457   4.992   4.018 -3.3454 -0.1569  1.7806
  160SAPE  C21517850   6.493   4.954   4.219 -0.2686 -0.1426 -0.1938
  160SAPE  H15R17851   6.447   5.052   4.243 -1.2597 -1.0428  1.8839
  160SAPE  C21617852   6.527   4.870   4.339  0.4815  0.1500 -0.5801
  160SAPE  H16R17853   6.518   4.760   4.323 -1.2387  0.0297  0.8546
  160SAPE  H16S17854   6.451   4.888   4.418  1.1099 -0.6293  0.2245
  160SAPE  C21717855   6.663   4.898   4.396 -0.3665  0.2397 -0.2719
  160SAPE  H17R17856   6.663   5.002   4.434  2.9376  0.7567 -1.3792
  160SAPE  H17S17857   6.743   4.888   4.320  1.7192  1.9451  1.5522
  160SAPE  C21817858   6.716   4.797   4.497  0.2376 -1.0955 -0.0329
  160SAPE  H18R17859   6.622   4.780   4.554 -0.0352 -1.8816 -0.6995
  160SAPE  H18S17860   6.796   4.838   4.563  0.4311  1.1091 -1.5135
  160SAPE  C21917861   6.761   4.656   4.455  0.2074  0.0913 -0.0134
  160SAPE  H19R17862   6.856   4.650   4.398  0.0285  1.4072 -0.4807
  160SAPE  H19S17863   6.681   4.612   4.391 -0.5397 -0.5504  1.3287
  160SAPE  C22017864   6.756   4.551   4.579 -0.8970 -0.2746  1.0717
  160SAPE  H20R17865   6.669   4.579   4.643  1.5046  1.9988  3.6174
  160SAPE  H20S17866   6.840   4.577   4.647  1.6079 -0.3002 -1.7956
  160SAPE  H20T17867   6.757   4.444   4.552 -0.3101 -0.4420  1.7322
  160SAPE   C3317868   6.885   5.720   3.299  0.0643 -0.4056 -0.4397
  160SAPE   H3X17869   6.801   5.776   3.345  1.0475 -0.4160  1.4633
  160SAPE   H3Y17870   6.919   5.779   3.212  0.3776 -1.8673 -1.3507
  160SAPE   C3417871   7.006   5.696   3.392 -0.0037 -0.4430 -0.3653
  160SAPE   H4X17872   7.024   5.793   3.442  0.6872 -1.1855  0.8885
  160SAPE   H4Y17873   7.092   5.667   3.328 -1.4206 -0.8589 -2.1745
  160SAPE   C3517874   6.979   5.606   3.520  0.3719 -0.3657 -0.1903
  160SAPE   H5X17875   6.952   5.505   3.483  2.5839  0.2039 -3.8528
  160SAPE   H5Y17876   6.893   5.650   3.575  1.0212  1.3980 -0.5270
  160SAPE   C3617877   7.100   5.579   3.598 -0.4098  0.3996 -0.6480
  160SAPE   H6X17878   7.167   5.667   3.601  0.9445 -0.5574  3.2275
  160SAPE   H6Y17879   7.165   5.514   3.535 -1.0834  0.9889 -1.9851
  160SAPE   C3717880   7.083   5.518   3.741  0.0110 -0.0181 -0.6106
  160SAPE   H7X17881   7.186   5.490   3.771  0.4856 -2.6951 -4.0581
  160SAPE   H7Y17882   7.027   5.424   3.722 -0.6990  0.0078  1.2049
  160SAPE   C3817883   7.009   5.615   3.840  0.0524  0.0618  0.6663
  160SAPE   H8X17884   6.918   5.662   3.797 -0.3717 -0.4771  0.9760
  160SAPE   H8Y17885   7.086   5.694   3.856  2.3497 -1.9594  0.1922
  160SAPE   C3917886   6.976   5.550   3.974  0.6452  0.2634  0.5505
  160SAPE   H9X17887   7.058   5.480   4.000  0.3928 -1.5616 -2.9294
  160SAPE   H9Y17888   6.896   5.478   3.948  0.5225  0.6095 -0.0586
  160SAPE  C31017889   6.938   5.648   4.076  0.1650 -0.0762  0.1705
  160SAPE  H10X17890   6.835   5.684   4.054  0.4126  0.7267  0.3004
  160SAPE  H10Y17891   6.994   5.743   4.069  0.5960 -0.2190  1.4007
  160SAPE  C31117892   6.958   5.593   4.220  0.8575  0.0851  0.1605
  160SAPE  H11X17893   7.066   5.598   4.244  0.7379  1.3826  0.4624
  160SAPE  H11Y17894   6.915   5.490   4.215  0.0246  0.2503  2.6648
  160SAPE  C31217895   6.881   5.666   4.329 -0.3328 -0.6529 -0.0098
  160SAPE  H12X17896   6.785   5.707   4.291 -0.4516  0.7215  1.6327
  160SAPE  H12Y17897   6.948   5.743   4.375  0.9096 -0.2478 -2.3385
  160SAPE  C31317898   6.836   5.569   4.440 -0.8048 -0.5093 -0.2927
  160SAPE  H13X17899   6.924   5.523   4.491 -1.4507 -0.9015  0.5085
  160SAPE  H13Y17900   6.782   5.486   4.389 -0.1561 -1.3954  0.4067
  160SAPE  C31417901   6.754   5.638   4.556 -0.3713 -0.0003 -0.1820
  160SAPE  H14X17902   6.793   5.739   4.582  1.7932 -0.5870 -0.9509
  160SAPE  H14Y17903   6.767   5.574   4.646 -1.0189  0.9411  0.6053
  160SAPE  C31517904   6.606   5.642   4.518 -0.0157 -0.1640  0.1159
  160SAPE  H15X17905   6.576   5.538   4.493 -2.4295  0.0144  1.9225
  160SAPE  H15Y17906   6.594   5.703   4.426 -1.3979 -0.5954 -0.0023
  160SAPE  C31617907   6.524   5.692   4.635 -0.4304  0.0612 -0.0277
  160SAPE  H16X17908   6.576   5.786   4.661  1.0438 -0.9101  0.7050
  160SAPE  H16Y17909   6.538   5.617   4.716 -1.4610  0.1941  0.2890
  160SAPE  C31717910   6.384   5.713   4.609  0.7317 -0.2137 -0.2804
  160SAPE  H17X17911   6.377   5.787   4.526 -0.9838  0.7107  0.6492
  160SAPE  H17Y17912   6.338   5.764   4.696 -0.5828 -0.8128 -0.5899
  160SAPE  C31817913   6.308   5.588   4.567  0.5888  0.3752 -0.5383
  160SAPE  H18X17914   6.317   5.513   4.649 -2.0743  0.6024  0.0429
  160SAPE  H18Y17915   6.357   5.566   4.470 -0.1718 -1.9127 -0.4470
  160SAPE  H18Z17916   6.202   5.615   4.551  0.4041 -0.0659 -0.0741
  161SAPE     N17917   5.309   1.283   2.232  0.3248  0.0714 -0.0507
  161SAPE   HN117918   5.383   1.210   2.233 -0.1298 -0.4067 -0.7520
  161SAPE   HN217919   5.317   1.341   2.147 -0.3791  1.4982  0.8111
  161SAPE   HN317920   5.319   1.341   2.318  0.1871  0.9972 -0.6542
  161SAPE   C1217921   5.178   1.209   2.250  0.0886  0.1770  0.3301
  161SAPE  H12A17922   5.195   1.114   2.305  1.7484  0.8889  1.1282
  161SAPE  H12B17923   5.138   1.182   2.150  3.2159  1.1622 -1.3230
  161SAPE   C1117924   5.065   1.295   2.313 -0.0778 -0.4517  0.1540
  161SAPE  H11A17925   4.983   1.225   2.340  1.3575 -1.9793  0.7717
  161SAPE  H11B17926   5.028   1.367   2.238 -0.9342 -0.0521  0.9416
  161SAPE     P17927   5.087   1.328   2.579 -0.4128 -0.1720 -0.8879
  161SAPE   O1317928   5.174   1.209   2.621  0.1226 -0.4309  0.1453
  161SAPE   O1417929   5.108   1.453   2.661 -0.1213 -0.4055 -0.2868
  161SAPE   O1217930   5.108   1.369   2.432 -0.4284 -0.3837 -0.3834
  161SAPE   O1117931   4.940   1.300   2.588  0.0368  0.0060 -0.0350
  161SAPE    C117932   4.836   1.382   2.652 -0.1059 -0.4426  0.1610
  161SAPE    HA17933   4.859   1.490   2.658  0.2477 -0.5266  0.3305
  161SAPE    HB17934   4.740   1.375   2.596 -0.1282  1.0212 -0.0204
  161SAPE    C217935   4.812   1.342   2.800  0.0618  0.5454  0.0749
  161SAPE    HS17936   4.894   1.388   2.859  0.1246  2.3273 -1.2871
  161SAPE   O2117937   4.792   1.196   2.790  0.0159  0.4092  0.0770
  161SAPE   C2117938   4.874   1.127   2.867 -0.2851  0.7679 -1.1296
  161SAPE   O2217939   4.971   1.167   2.929 -0.5206 -0.1410 -0.1408
  161SAPE   C2217940   4.827   0.975   2.865  0.6655 -0.0960 -0.0951
  161SAPE   H2R17941   4.723   0.985   2.827  0.4921 -2.7259 -0.5304
  161SAPE   H2S17942   4.881   0.920   2.784 -0.9028 -0.2145 -1.1146
  161SAPE    C317943   4.687   1.410   2.854 -0.2890  0.3517 -0.0548
  161SAPE    HX17944   4.602   1.386   2.786  0.4890 -1.0957 -0.5647
  161SAPE    HY17945   4.702   1.520   2.848 -0.7470  0.4615  0.6699
  161SAPE   O3117946   4.663   1.362   2.986  0.0582  0.4935 -0.2526
  161SAPE   C3117947   4.608   1.439   3.073  0.3246 -0.2135 -0.0125
  161SAPE   O3217948   4.580   1.558   3.054  0.6320  0.0143  0.6356
  161SAPE   C3217949   4.551   1.349   3.184 -0.0369 -0.0044 -0.8157
  161SAPE   H2X17950   4.601   1.249   3.176  1.4485  0.6832 -0.5339
  161SAPE   H2Y17951   4.444   1.335   3.159 -0.1255 -2.7048  0.5795
  161SAPE   C2317952   4.847   0.891   2.997 -0.4716  0.3522  0.1625
  161SAPE   H3R17953   4.957   0.881   3.012 -0.2657  2.2404  0.0820
  161SAPE   H3S17954   4.795   0.793   2.989 -1.1551  0.7866 -0.7672
  161SAPE   C2417955   4.792   0.964   3.118 -0.4795 -0.5386  0.0678
  161SAPE   H4R17956   4.855   1.055   3.130 -0.8012 -0.3850  0.6129
  161SAPE   H4S17957   4.818   0.909   3.210 -1.2717 -0.1584  0.5290
  161SAPE   C2517958   4.647   1.001   3.114 -0.0283 -0.0049  0.4889
  161SAPE   H5R17959   4.621   1.056   3.023 -2.7845  0.7098  1.5862
  161SAPE   C2617960   4.551   0.960   3.195  0.2986 -0.3120 -0.5075
  161SAPE   H6R17961   4.449   1.001   3.187  0.1666 -0.5408 -0.0733
  161SAPE   C2717962   4.573   0.875   3.320 -0.6339 -0.3935 -0.3732
  161SAPE   H7R17963   4.621   0.944   3.393  1.0919 -2.1284  0.2367
  161SAPE   H7S17964   4.660   0.809   3.299 -0.0339  0.2279  0.1041
  161SAPE   C2817965   4.463   0.805   3.392 -0.5800 -0.4623  0.0566
  161SAPE   H8R17966   4.358   0.819   3.362 -0.2255 -2.0910 -2.2730
  161SAPE   C2917967   4.493   0.714   3.486  0.0574  0.2182  0.3270
  161SAPE   H9R17968   4.408   0.671   3.542 -0.0073 -0.7820 -0.5063
  161SAPE  C21017969   4.625   0.678   3.549  0.3850  0.2859 -0.1346
  161SAPE  H10R17970   4.644   0.736   3.642  1.0317  0.0729 -0.1277
  161SAPE  H10S17971   4.711   0.701   3.482 -0.2458  1.0265 -0.7108
  161SAPE  C21117972   4.640   0.533   3.594  0.4794  0.0656  0.3799
  161SAPE  H11R17973   4.626   0.462   3.511 -2.6909  0.5536  0.3852
  161SAPE  C21217974   4.645   0.491   3.722 -0.1230  0.8164  0.7833
  161SAPE  H12R17975   4.665   0.383   3.736 -1.3039  0.3185 -0.9366
  161SAPE  C21317976   4.643   0.580   3.844  0.0262 -0.1842 -0.3528
  161SAPE  H13R17977   4.546   0.634   3.848  1.3424  2.3396 -0.6170
  161SAPE  H13S17978   4.716   0.663   3.855  0.6938 -1.0801  3.4588
  161SAPE  C21417979   4.658   0.499   3.971 -0.0141 -0.2337  0.2460
  161SAPE  H14R17980   4.695   0.397   3.952 -1.3268 -0.7649  0.4613
  161SAPE  C21517981   4.638   0.543   4.093  0.0800  0.1403  0.6174
  161SAPE  H15R17982   4.662   0.476   4.177  2.0758 -0.9328 -0.7432
  161SAPE  C21617983   4.599   0.690   4.121 -0.2987 -0.2309 -0.0636
  161SAPE  H16R17984   4.637   0.755   4.040 -1.1563  0.0238 -0.2752
  161SAPE  H16S17985   4.657   0.716   4.212 -1.9339  1.6416  0.5100
  161SAPE  C21717986   4.449   0.719   4.151 -0.0160 -0.4457  0.3123
  161SAPE  H17R17987   4.387   0.673   4.071 -1.0229  4.0814 -1.8058
  161SAPE  H17S17988   4.426   0.827   4.138 -0.3151 -0.2698  2.0868
  161SAPE  C21817989   4.394   0.669   4.291  0.4812  0.4404  0.1274
  161SAPE  H18R17990   4.420   0.561   4.301 -1.4397  0.0488  1.2474
  161SAPE  H18S17991   4.283   0.666   4.281  0.5608 -0.5760 -0.7286
  161SAPE  C21917992   4.449   0.746   4.414 -0.2183  0.2126  0.3414
  161SAPE  H19R17993   4.551   0.708   4.434  0.1539  1.1713  0.3361
  161SAPE  H19S17994   4.380   0.722   4.498 -0.6043  1.0442  0.2748
  161SAPE  C22017995   4.453   0.896   4.404  0.3573  0.4573 -0.3890
  161SAPE  H20R17996   4.351   0.938   4.393 -0.1027 -0.0401  1.5897
  161SAPE  H20S17997   4.524   0.928   4.324  0.3211  2.5930  0.3631
  161SAPE  H20T17998   4.486   0.944   4.498  2.4842  0.8838 -1.2831
  161SAPE   C3317999   4.560   1.416   3.320 -0.0342  0.0076 -0.4642
  161SAPE   H3X18000   4.494   1.502   3.340 -1.7684 -1.1991 -0.7526
  161SAPE   H3Y18001   4.664   1.456   3.318  1.9805 -4.4943 -2.3789
  161SAPE   C3418002   4.549   1.326   3.442 -0.3153 -0.1299  0.6557
  161SAPE   H4X18003   4.612   1.234   3.439 -0.0341  0.0880 -0.7872
  161SAPE   H4Y18004   4.449   1.281   3.458 -0.5693 -0.2462 -1.1092
  161SAPE   C3518005   4.582   1.388   3.576  0.1593 -0.5960  0.4462
  161SAPE   H5X18006   4.539   1.490   3.590 -0.8669 -1.2237  2.3217
  161SAPE   H5Y18007   4.692   1.405   3.578  0.0570  0.3713 -1.0766
  161SAPE   C3618008   4.548   1.302   3.702  0.1775 -0.6363 -0.7749
  161SAPE   H6X18009   4.604   1.207   3.702  1.3712  0.0452 -0.2203
  161SAPE   H6Y18010   4.437   1.289   3.699  0.0001  0.2239  0.9388
  161SAPE   C3718011   4.591   1.363   3.835  0.3151  0.5051 -0.7247
  161SAPE   H7X18012   4.551   1.466   3.828 -2.6049 -0.5482 -0.9705
  161SAPE   H7Y18013   4.700   1.354   3.851  0.1187 -0.5644  0.1107
  161SAPE   C3818014   4.515   1.311   3.961 -0.1049  0.1826 -0.3069
  161SAPE   H8X18015   4.524   1.201   3.972  0.9458  0.0359 -2.2208
  161SAPE   H8Y18016   4.407   1.335   3.963 -0.7361 -2.2092  3.2830
  161SAPE   C3918017   4.562   1.377   4.091 -0.5179  0.1883  0.4539
  161SAPE   H9X18018   4.530   1.483   4.075  1.5496  0.8551  0.3770
  161SAPE   H9Y18019   4.673   1.377   4.102 -0.5521  0.5850  0.8574
  161SAPE  C31018020   4.492   1.319   4.209  0.7900 -0.6621  0.3151
  161SAPE  H10X18021   4.480   1.209   4.203 -0.3926 -0.5324  0.0839
  161SAPE  H10Y18022   4.389   1.360   4.216  1.4909  1.2667 -0.0005
  161SAPE  C31118023   4.558   1.362   4.339 -0.0845 -0.2680  0.0662
  161SAPE  H11X18024   4.663   1.330   4.323 -0.3168 -0.0277 -2.3409
  161SAPE  H11Y18025   4.512   1.306   4.423 -1.3836  3.7674  2.3178
  161SAPE  C31218026   4.554   1.507   4.378 -0.0305 -0.2897  0.2401
  161SAPE  H12X18027   4.449   1.544   4.372 -0.5377 -1.3642  1.7449
  161SAPE  H12Y18028   4.621   1.567   4.314 -0.7084  1.8683  1.4047
  161SAPE  C31318029   4.599   1.535   4.522  0.1244  0.8595 -0.3334
  161SAPE  H13X18030   4.532   1.474   4.586  0.0511  0.1863 -1.0436
  161SAPE  H13Y18031   4.586   1.642   4.550 -2.3583  0.3361  0.7705
  161SAPE  C31418032   4.742   1.489   4.544 -0.5905  0.7831  0.4438
  161SAPE  H14X18033   4.814   1.531   4.470 -1.6674 -1.0733 -1.8176
  161SAPE  H14Y18034   4.746   1.381   4.519 -0.1160  1.1561 -1.2599
  161SAPE  C31518035   4.787   1.501   4.690  0.1711 -0.5304 -0.2148
  161SAPE  H15X18036   4.705   1.478   4.760 -1.3153  1.7173 -1.1077
  161SAPE  H15Y18037   4.817   1.606   4.710 -0.5833 -0.6331  1.6017
  161SAPE  C31618038   4.908   1.417   4.713 -0.1714  0.3162 -0.3290
  161SAPE  H16X18039   4.978   1.432   4.629  2.9244 -2.2798  1.5302
  161SAPE  H16Y18040   4.891   1.307   4.704 -2.5867  0.4671  1.4894
  161SAPE  C31718041   4.991   1.446   4.835  0.7038 -0.0199  0.4675
  161SAPE  H17X18042   5.080   1.380   4.840  1.2408  0.7605  3.6921
  161SAPE  H17Y18043   4.935   1.415   4.925 -1.7447  2.7777  0.0473
  161SAPE  C31818044   5.035   1.590   4.848 -0.0231  0.3193  0.5785
  161SAPE  H18X18045   5.103   1.600   4.936  0.3559  0.1097  0.3104
  161SAPE  H18Y18046   4.947   1.650   4.881  0.7067  2.4490 -1.0612
  161SAPE  H18Z18047   5.072   1.633   4.753 -0.7315 -1.9952 -0.8121
  162SAPE     N18048   4.522   3.665   2.448  0.3870 -0.2738 -0.0616
  162SAPE   HN118049   4.525   3.639   2.347 -0.4986  0.7695 -0.3764
  162SAPE   HN218050   4.467   3.599   2.506 -2.6831  2.9074  1.0066
  162SAPE   HN318051   4.479   3.759   2.459 -0.0663 -0.6811  1.9682
  162SAPE   C1218052   4.662   3.670   2.512 -0.2731 -0.7002 -0.8618
  162SAPE  H12A18053   4.711   3.573   2.487 -0.0271  0.1527 -3.9642
  162SAPE  H12B18054   4.652   3.679   2.623  0.5173 -2.6244 -0.5876
  162SAPE   C1118055   4.749   3.789   2.466  0.1968  0.0430  0.3437
  162SAPE  H11A18056   4.753   3.791   2.355 -1.6670  0.5071  0.2501
  162SAPE  H11B18057   4.849   3.764   2.507  0.4591 -1.9463 -1.3565
  162SAPE     P18058   4.698   3.993   2.644 -0.0852 -0.1431 -0.4692
  162SAPE   O1318059   4.823   4.066   2.634 -0.3657 -0.1126  0.0991
  162SAPE   O1418060   4.574   4.069   2.654 -0.1136 -0.8847  0.6303
  162SAPE   O1218061   4.691   3.911   2.513  0.0424  0.0107 -0.3391
  162SAPE   O1118062   4.700   3.880   2.753 -0.0295 -0.8328  0.2290
  162SAPE    C118063   4.831   3.836   2.802 -0.1988 -0.2471 -0.1227
  162SAPE    HA18064   4.885   3.783   2.721 -0.7465 -1.3074  0.1920
  162SAPE    HB18065   4.891   3.920   2.842 -1.2683  0.9519 -0.9590
  162SAPE    C218066   4.814   3.710   2.899  0.6278 -1.0814  0.3145
  162SAPE    HS18067   4.772   3.625   2.841 -0.8298 -1.0267  1.2246
  162SAPE   O2118068   4.725   3.745   3.010 -0.8810 -0.5607 -0.0290
  162SAPE   C2118069   4.660   3.642   3.068  0.3752  0.4497  0.5297
  162SAPE   O2218070   4.672   3.524   3.029  0.1637  0.2059 -0.5096
  162SAPE   C2218071   4.562   3.691   3.170 -0.1042 -0.6953 -0.5539
  162SAPE   H2R18072   4.617   3.766   3.231  0.5125 -0.5992 -1.2058
  162SAPE   H2S18073   4.485   3.744   3.109 -1.0729 -1.2120  0.2078
  162SAPE    C318074   4.954   3.668   2.947 -0.2494 -0.6577 -0.4523
  162SAPE    HX18075   5.004   3.636   2.853 -1.1840 -0.2105 -1.1234
  162SAPE    HY18076   4.946   3.572   3.003 -0.2957 -1.3479 -1.5907
  162SAPE   O3118077   5.018   3.778   3.014 -0.3056 -0.4987  0.9261
  162SAPE   C3118078   4.982   3.783   3.139 -0.1280  0.5882  0.3335
  162SAPE   O3218079   4.949   3.691   3.209  0.2690  0.0865 -0.1001
  162SAPE   C3218080   4.986   3.925   3.177  0.3352  0.1151 -0.3973
  162SAPE   H2X18081   4.916   3.971   3.105  0.3562 -2.0648 -1.9239
  162SAPE   H2Y18082   5.083   3.971   3.150  1.1409 -0.7416  0.8985
  162SAPE   C2318083   4.496   3.575   3.240  0.0411 -0.2163  0.2380
  162SAPE   H3R18084   4.561   3.485   3.248  1.2378  0.7960  2.9131
  162SAPE   H3S18085   4.405   3.543   3.185  2.1060 -3.1135 -1.8540
  162SAPE   C2418086   4.471   3.616   3.386  0.2805  0.5061 -0.1591
  162SAPE   H4R18087   4.569   3.645   3.428  1.1843 -1.5521 -0.7048
  162SAPE   H4S18088   4.428   3.522   3.429 -0.2083 -0.0212 -1.7148
  162SAPE   C2518089   4.372   3.733   3.397  0.5765  0.0399  0.2471
  162SAPE   H5R18090   4.292   3.725   3.323  0.4591 -0.3948  0.4135
  162SAPE   C2618091   4.391   3.840   3.471 -0.3348  0.0215  0.4521
  162SAPE   H6R18092   4.315   3.919   3.464 -0.2420  0.0648 -0.0586
  162SAPE   C2718093   4.516   3.866   3.550 -0.0669 -0.7146 -0.0695
  162SAPE   H7R18094   4.602   3.815   3.502  0.0018  0.0544 -0.7901
  162SAPE   H7S18095   4.496   3.819   3.649 -2.0385 -1.0198 -0.5821
  162SAPE   C2818096   4.551   4.013   3.568 -0.1079  0.1969 -0.1094
  162SAPE   H8R18097   4.523   4.078   3.484 -2.7850 -0.6664  0.0304
  162SAPE   C2918098   4.606   4.085   3.670  0.5168 -0.1164 -0.7619
  162SAPE   H9R18099   4.619   4.194   3.660 -0.4985  0.1718  0.7174
  162SAPE  C21018100   4.643   4.028   3.808  0.1460 -1.0493  0.2399
  162SAPE  H10R18101   4.739   3.970   3.805  0.1090 -1.2644  2.2380
  162SAPE  H10S18102   4.581   3.942   3.842  0.8209 -1.7996 -0.3671
  162SAPE  C21118103   4.639   4.122   3.923  0.5311 -0.2784  0.0240
  162SAPE  H11R18104   4.609   4.224   3.896  1.1974 -0.3457 -1.0399
  162SAPE  C21218105   4.689   4.101   4.044  0.1035  0.1041  0.0979
  162SAPE  H12R18106   4.687   4.189   4.111  0.9346  2.0777 -2.2948
  162SAPE  C21318107   4.761   3.974   4.091  0.4768  0.1190  0.2127
  162SAPE  H13R18108   4.867   3.977   4.059  0.4566 -0.0413  0.1268
  162SAPE  H13S18109   4.726   3.881   4.040 -0.4560 -0.7480  2.3229
  162SAPE  C21418110   4.742   3.940   4.239 -0.8557  0.3840 -0.1811
  162SAPE  H14R18111   4.656   3.879   4.270  0.7063 -1.2937  1.1425
  162SAPE  C21518112   4.827   3.978   4.342 -0.3809  0.4673  0.3286
  162SAPE  H15R18113   4.809   3.943   4.445 -0.4869  1.6096  0.7055
  162SAPE  C21618114   4.938   4.083   4.333  0.1625 -0.2748 -0.1989
  162SAPE  H16R18115   4.971   4.097   4.228 -1.9059 -0.4664 -0.9206
  162SAPE  H16S18116   5.021   4.051   4.399  2.1007  1.3136 -1.7329
  162SAPE  C21718117   4.881   4.218   4.385  0.1404 -0.2158  0.0570
  162SAPE  H17R18118   4.806   4.250   4.310 -0.9531  0.1072  1.2598
  162SAPE  H17S18119   4.957   4.299   4.386  1.4660 -1.4177  0.5094
  162SAPE  C21818120   4.810   4.200   4.523  0.1722 -0.4591  0.3958
  162SAPE  H18R18121   4.728   4.127   4.505 -0.2731  0.5730 -2.2906
  162SAPE  H18S18122   4.759   4.292   4.558 -0.6136 -1.0613  0.8496
  162SAPE  C21918123   4.900   4.149   4.638 -0.1289 -0.8063  1.2353
  162SAPE  H19R18124   4.986   4.219   4.639  1.5464 -2.7554  1.5932
  162SAPE  H19S18125   4.936   4.048   4.606 -1.8413 -0.7003 -1.3203
  162SAPE  C22018126   4.828   4.146   4.771  0.6195  0.8705  0.1624
  162SAPE  H20R18127   4.790   4.043   4.793  2.5763  0.0538 -0.0799
  162SAPE  H20S18128   4.748   4.222   4.787 -0.6096 -0.7618  2.4600
  162SAPE  H20T18129   4.902   4.170   4.850  0.6486  1.4515 -0.0398
  162SAPE   C3318130   4.962   3.941   3.328  0.0770  0.1480 -0.2847
  162SAPE   H3X18131   4.883   3.871   3.363  1.1139 -1.5297 -1.1473
  162SAPE   H3Y18132   4.924   4.045   3.329  0.6254  0.4480 -3.1315
  162SAPE   C3418133   5.082   3.925   3.420 -0.0761 -0.2172  0.1146
  162SAPE   H4X18134   5.168   3.991   3.397  0.4661 -1.3600 -1.2962
  162SAPE   H4Y18135   5.117   3.820   3.430 -0.3430 -0.2241  1.1024
  162SAPE   C3518136   5.033   3.952   3.568  0.3232 -0.2432  0.3213
  162SAPE   H5X18137   4.968   3.867   3.598  1.2808 -0.2035  2.7370
  162SAPE   H5Y18138   4.981   4.047   3.590 -0.8290 -0.5805 -0.8709
  162SAPE   C3618139   5.157   3.955   3.659 -0.6747  0.0275 -1.0071
  162SAPE   H6X18140   5.210   4.050   3.639 -1.2867  0.5154 -0.3527
  162SAPE   H6Y18141   5.217   3.862   3.642  0.5715  0.0770  2.3854
  162SAPE   C3718142   5.117   3.954   3.807 -0.0861  0.3318  0.9359
  162SAPE   H7X18143   5.034   3.881   3.815 -0.9499  1.0844 -0.7644
  162SAPE   H7Y18144   5.080   4.057   3.826  0.3682  0.6923 -0.0637
  162SAPE   C3818145   5.225   3.912   3.908  0.2294  0.6012  0.3971
  162SAPE   H8X18146   5.313   3.979   3.898  1.1049 -0.2198  2.2250
  162SAPE   H8Y18147   5.254   3.815   3.863 -2.6987  0.4562 -1.4685
  162SAPE   C3918148   5.183   3.904   4.056  0.9712 -0.0803 -0.3360
  162SAPE   H9X18149   5.102   3.833   4.080  1.4241  0.4943  3.3574
  162SAPE   H9Y18150   5.145   4.004   4.086 -0.3811 -0.5121 -0.5595
  162SAPE  C31018151   5.291   3.855   4.153  0.0723  0.1214 -0.1321
  162SAPE  H10X18152   5.376   3.927   4.150  0.3587 -0.2275 -0.3922
  162SAPE  H10Y18153   5.324   3.753   4.124 -0.1690  0.2907 -1.0183
  162SAPE  C31118154   5.239   3.847   4.302  0.7248 -0.9725 -0.4472
  162SAPE  H11X18155   5.131   3.834   4.280  0.3968  1.9018 -1.0010
  162SAPE  H11Y18156   5.246   3.951   4.343  0.5253 -1.5880  1.2495
  162SAPE  C31218157   5.315   3.753   4.401 -0.5566 -0.0422 -0.2592
  162SAPE  H12X18158   5.372   3.674   4.346  0.4968 -0.4247  1.3288
  162SAPE  H12Y18159   5.239   3.701   4.463  1.4206 -1.0726  1.4069
  162SAPE  C31318160   5.397   3.841   4.502  0.5774  0.1038  0.3373
  162SAPE  H13X18161   5.311   3.876   4.562 -0.1955 -0.8185 -0.2073
  162SAPE  H13Y18162   5.445   3.926   4.449 -1.2390  0.6078 -0.5897
  162SAPE  C31418163   5.483   3.757   4.593 -0.0501 -0.3664  0.0036
  162SAPE  H14X18164   5.422   3.687   4.654  0.6289 -1.1312 -0.1782
  162SAPE  H14Y18165   5.526   3.837   4.656  1.1993 -0.3055 -0.8940
  162SAPE  C31518166   5.601   3.685   4.524  0.5893  0.0508 -0.3108
  162SAPE  H15X18167   5.637   3.751   4.443  1.3260  0.9006  0.6816
  162SAPE  H15Y18168   5.564   3.590   4.481 -2.7596  1.7059 -1.4225
  162SAPE  C31618169   5.730   3.671   4.612  0.2149 -0.1820 -0.0427
  162SAPE  H16X18170   5.717   3.589   4.686 -1.2564 -0.4283 -0.5368
  162SAPE  H16Y18171   5.760   3.768   4.657  0.2146 -1.1476  2.1636
  162SAPE  C31718172   5.855   3.626   4.532  0.2354  0.0156 -0.0952
  162SAPE  H17X18173   5.867   3.697   4.447 -1.8883  1.1170  0.4666
  162SAPE  H17Y18174   5.827   3.528   4.486  1.8302 -0.0428 -0.9986
  162SAPE  C31818175   5.985   3.633   4.604 -0.2515  0.0601  0.7863
  162SAPE  H18X18176   6.059   3.572   4.548 -0.2856  1.3490 -0.7571
  162SAPE  H18Y18177   5.968   3.580   4.700 -1.4467  0.8557  1.0340
  162SAPE  H18Z18178   6.006   3.740   4.622 -1.1809  0.1026  1.7229
  163SAPE     N18179   4.147   3.071   1.804  0.0651  0.7101  0.3545
  163SAPE   HN118180   4.162   2.975   1.767  1.6717  1.3296 -0.7021
  163SAPE   HN218181   4.051   3.076   1.843 -0.2034 -0.1706 -0.1934
  163SAPE   HN318182   4.168   3.146   1.735  0.4684  2.1141  1.9302
  163SAPE   C1218183   4.252   3.099   1.907 -0.5175  0.4327 -0.2992
  163SAPE  H12A18184   4.262   3.210   1.913  0.2475  0.2986  1.5715
  163SAPE  H12B18185   4.345   3.052   1.868  1.3413  3.6293 -0.1201
  163SAPE   C1118186   4.201   3.043   2.047  0.4599 -0.7716 -0.0339
  163SAPE  H11A18187   4.271   3.077   2.127  0.9762 -1.9761  0.0522
  163SAPE  H11B18188   4.194   2.932   2.045 -0.0626 -0.7312 -1.2863
  163SAPE     P18189   3.997   3.130   2.218 -0.0758 -0.0044 -0.0108
  163SAPE   O1318190   3.918   3.252   2.201 -0.2101  0.0295  0.2478
  163SAPE   O1418191   3.915   3.011   2.249  0.5840  0.2723  0.5661
  163SAPE   O1218192   4.072   3.104   2.077  0.0270 -0.5387 -0.8063
  163SAPE   O1118193   4.105   3.155   2.321 -0.1762  0.1034 -0.0531
  163SAPE    C118194   4.136   3.068   2.429  0.8427  0.3007 -0.4394
  163SAPE    HA18195   4.059   2.989   2.447 -1.9036  2.8452 -0.2899
  163SAPE    HB18196   4.236   3.024   2.409 -0.0743 -2.6486  0.8699
  163SAPE    C218197   4.158   3.151   2.562  0.4454 -0.3633 -0.5683
  163SAPE    HS18198   4.244   3.221   2.562 -1.0403  1.5299 -0.2559
  163SAPE   O2118199   4.159   3.067   2.678 -0.2634  0.4028  0.1055
  163SAPE   C2118200   4.274   2.998   2.690 -0.4478 -0.6374  0.1582
  163SAPE   O2218201   4.372   3.011   2.621 -0.1168  0.4278 -0.9075
  163SAPE   C2218202   4.257   2.893   2.802  0.5733  0.1873  0.6886
  163SAPE   H2R18203   4.186   2.925   2.881 -0.9292 -0.5621 -0.2963
  163SAPE   H2S18204   4.194   2.814   2.755 -0.4377  1.0593  0.5315
  163SAPE    C318205   4.048   3.260   2.587  0.3810  0.1758  0.5850
  163SAPE    HX18206   3.951   3.208   2.578  1.3706 -1.4232 -1.5020
  163SAPE    HY18207   4.058   3.334   2.505  1.4247 -1.1769 -0.5468
  163SAPE   O3118208   4.059   3.318   2.713 -0.5329 -0.2041 -0.3640
  163SAPE   C3118209   3.950   3.372   2.762  0.2335 -0.3075 -0.2294
  163SAPE   O3218210   3.836   3.355   2.717 -0.2284 -0.2072  0.8412
  163SAPE   C3218211   3.976   3.446   2.891 -0.3455  0.3655 -0.5137
  163SAPE   H2X18212   3.880   3.466   2.943 -0.0561 -1.5581  0.8654
  163SAPE   H2Y18213   4.022   3.544   2.869  1.4121  0.1871  1.9923
  163SAPE   C2318214   4.387   2.835   2.854 -0.0308  0.5894 -0.8205
  163SAPE   H3R18215   4.436   2.909   2.922 -0.0824  0.6879 -0.8913
  163SAPE   H3S18216   4.449   2.811   2.766  3.9556 -0.2437  1.9161
  163SAPE   C2418217   4.357   2.716   2.948  0.4674  0.4601 -0.3202
  163SAPE   H4R18218   4.454   2.674   2.981  0.8435  2.5642  1.5521
  163SAPE   H4S18219   4.309   2.646   2.878 -1.3272 -1.7040  2.8171
  163SAPE   C2518220   4.265   2.739   3.069 -0.2505 -0.6599 -0.2894
  163SAPE   H5R18221   4.265   2.840   3.112 -0.1672 -1.3595  1.4194
  163SAPE   C2618222   4.186   2.647   3.119 -0.0058 -0.3006  0.8623
  163SAPE   H6R18223   4.110   2.679   3.191 -1.5012 -0.7927 -0.4487
  163SAPE   C2718224   4.169   2.502   3.066  0.7288 -0.6201  0.3523
  163SAPE   H7R18225   4.252   2.468   3.000  1.5942 -5.0139  3.2633
  163SAPE   H7S18226   4.079   2.499   3.000  0.6066 -0.0670  0.4923
  163SAPE   C2818227   4.151   2.402   3.175 -0.6438 -0.0193 -0.8062
  163SAPE   H8R18228   4.049   2.365   3.192  0.1124 -1.5718  0.7008
  163SAPE   C2918229   4.241   2.361   3.269 -0.4919 -0.0051  0.0019
  163SAPE   H9R18230   4.210   2.299   3.354  1.2873 -2.0362 -0.7501
  163SAPE  C21018231   4.395   2.392   3.269  1.0511 -0.4551  0.4507
  163SAPE  H10R18232   4.447   2.384   3.171 -1.4008  0.3292 -1.0050
  163SAPE  H10S18233   4.435   2.306   3.325  1.3443 -0.0099  0.9354
  163SAPE  C21118234   4.434   2.522   3.338 -0.7864 -0.0262  0.4260
  163SAPE  H11R18235   4.428   2.611   3.274 -1.8415  0.6869  1.4568
  163SAPE  C21218236   4.489   2.530   3.461 -0.3770 -0.5016  0.3811
  163SAPE  H12R18237   4.520   2.631   3.491  0.7753 -1.8260  4.1714
  163SAPE  C21318238   4.504   2.418   3.562  0.3332  0.0939 -0.2011
  163SAPE  H13R18239   4.488   2.314   3.527 -1.8754 -0.0192  0.9949
  163SAPE  H13S18240   4.420   2.439   3.631 -1.3174  0.7021 -2.3157
  163SAPE  C21418241   4.633   2.416   3.634  0.3749 -0.0215  0.0623
  163SAPE  H14R18242   4.702   2.352   3.578 -0.1069 -1.4953  1.1013
  163SAPE  C21518243   4.661   2.466   3.757  0.1414  0.3423 -0.8360
  163SAPE  H15R18244   4.762   2.449   3.796 -0.4698 -2.3448 -0.2024
  163SAPE  C21618245   4.573   2.554   3.851  0.4253  0.5522  0.2653
  163SAPE  H16R18246   4.497   2.603   3.786  0.9080 -0.5703 -1.2013
  163SAPE  H16S18247   4.633   2.623   3.913  0.8244 -1.2827  2.0370
  163SAPE  C21718248   4.514   2.444   3.945  1.6048 -0.3575 -0.2334
  163SAPE  H17R18249   4.595   2.390   4.000  0.7760  0.2634  1.6886
  163SAPE  H17S18250   4.451   2.371   3.890 -1.8554  2.1521  0.0970
  163SAPE  C21818251   4.436   2.515   4.055  0.2778 -0.5007  0.9184
  163SAPE  H18R18252   4.479   2.618   4.058 -0.9311  0.1509 -1.4589
  163SAPE  H18S18253   4.459   2.474   4.156  3.3831  0.9539  0.9298
  163SAPE  C21918254   4.285   2.533   4.022  0.2630  0.4510 -0.1920
  163SAPE  H19R18255   4.246   2.429   4.015  0.5540  0.1982  1.5465
  163SAPE  H19S18256   4.272   2.577   3.921 -0.8556 -0.3879 -0.4340
  163SAPE  C22018257   4.211   2.601   4.138  0.3738 -0.5619 -0.2941
  163SAPE  H20R18258   4.107   2.623   4.105 -0.3409 -0.0620  2.0762
  163SAPE  H20S18259   4.260   2.697   4.164  1.1349 -0.1576 -2.9767
  163SAPE  H20T18260   4.208   2.540   4.231  0.6876  0.8276  0.6670
  163SAPE   C3318261   4.063   3.362   2.987  0.6072  0.6097 -0.9420
  163SAPE   H3X18262   4.158   3.326   2.942 -0.7050 -1.0788 -2.5169
  163SAPE   H3Y18263   4.010   3.270   3.017  0.8042 -0.1004 -2.6186
  163SAPE   C3418264   4.084   3.432   3.121  0.1430  0.2220 -0.2666
  163SAPE   H4X18265   3.997   3.474   3.175  0.5306  0.9287 -0.1743
  163SAPE   H4Y18266   4.152   3.517   3.097  2.2305 -0.7724  1.7009
  163SAPE   C3518267   4.155   3.338   3.217  0.7975 -0.4916 -0.3394
  163SAPE   H5X18268   4.253   3.310   3.172  1.3654  1.0061 -0.1046
  163SAPE   H5Y18269   4.089   3.252   3.239 -0.2646  0.7060  1.5206
  163SAPE   C3618270   4.185   3.408   3.352 -0.8680 -0.0070 -0.1113
  163SAPE   H6X18271   4.225   3.511   3.338 -2.5712  0.3654 -2.9559
  163SAPE   H6Y18272   4.269   3.354   3.400 -0.9334 -1.2181 -1.2754
  163SAPE   C3718273   4.073   3.415   3.452 -1.0657  1.3364  0.6170
  163SAPE   H7X18274   4.042   3.311   3.477  0.6539  0.4785 -0.6760
  163SAPE   H7Y18275   3.976   3.461   3.420 -3.6659 -2.1100  2.7958
  163SAPE   C3818276   4.110   3.484   3.591 -0.2048  0.6116  0.6772
  163SAPE   H8X18277   4.015   3.494   3.647 -0.7110 -0.1500 -0.0165
  163SAPE   H8Y18278   4.162   3.581   3.577  0.1376  0.2015 -1.0684
  163SAPE   C3918279   4.205   3.403   3.678  0.0483 -0.4524 -0.7196
  163SAPE   H9X18280   4.307   3.386   3.638  0.3224  0.1874 -0.2970
  163SAPE   H9Y18281   4.162   3.300   3.682  0.9740 -0.8984 -1.6856
  163SAPE  C31018282   4.209   3.456   3.819  0.5721 -0.3723 -0.2265
  163SAPE  H10X18283   4.274   3.382   3.871  0.9433 -1.1555 -1.7564
  163SAPE  H10Y18284   4.114   3.459   3.876  0.4461 -0.0712 -0.4536
  163SAPE  C31118285   4.251   3.598   3.840  0.2868 -0.1332 -0.2242
  163SAPE  H11X18286   4.207   3.673   3.771  0.2088  0.8672  0.8744
  163SAPE  H11Y18287   4.360   3.598   3.819  0.8993  1.8599  2.3544
  163SAPE  C31218288   4.226   3.658   3.980 -0.0694 -0.0424  0.4449
  163SAPE  H12X18289   4.264   3.590   4.059  0.1137  0.3787  0.7226
  163SAPE  H12Y18290   4.115   3.666   3.989 -0.2473 -1.6387 -0.1092
  163SAPE  C31318291   4.299   3.792   3.986  0.4525 -0.5847 -0.1686
  163SAPE  H13X18292   4.274   3.872   3.913  1.3564  0.5002  0.6788
  163SAPE  H13Y18293   4.409   3.783   3.973  0.6065  0.0620  0.6242
  163SAPE  C31418294   4.280   3.862   4.127  0.3032  0.5789 -0.5796
  163SAPE  H14X18295   4.180   3.909   4.145  1.0611  1.0103  3.5656
  163SAPE  H14Y18296   4.353   3.946   4.131 -0.0578  0.8568  0.9220
  163SAPE  C31518297   4.326   3.777   4.256 -0.4630 -0.2641 -0.6959
  163SAPE  H15X18298   4.420   3.725   4.231 -0.8052 -1.1717 -0.1497
  163SAPE  H15Y18299   4.247   3.703   4.282 -0.0536 -0.9678 -1.4103
  163SAPE  C31618300   4.339   3.870   4.374 -0.3175  0.2947  0.3015
  163SAPE  H16X18301   4.254   3.939   4.394  0.3033  1.1391  0.0757
  163SAPE  H16Y18302   4.425   3.936   4.353  0.8963 -1.2937  0.1365
  163SAPE  C31718303   4.370   3.787   4.508  1.1243  0.0060  0.7191
  163SAPE  H17X18304   4.328   3.684   4.514  1.8724 -0.4630 -1.2469
  163SAPE  H17Y18305   4.321   3.844   4.590  1.2785  1.7527 -0.3401
  163SAPE  C31818306   4.517   3.780   4.536 -0.8474 -0.1237  0.2202
  163SAPE  H18X18307   4.532   3.749   4.641 -2.2863 -0.2305  0.4039
  163SAPE  H18Y18308   4.570   3.878   4.531 -2.1135  0.5399 -1.3974
  163SAPE  H18Z18309   4.576   3.709   4.473 -1.2221 -0.2338 -0.0048
  164SAPE     N18310   1.420   0.901   2.664  0.3485  0.3935  0.2178
  164SAPE   HN118311   1.363   0.814   2.664  0.3076  0.3929 -1.3193
  164SAPE   HN218312   1.398   0.951   2.575  1.1966 -0.6466 -0.6028
  164SAPE   HN318313   1.520   0.872   2.662 -0.2317 -1.7457 -1.5183
  164SAPE   C1218314   1.383   0.982   2.783 -0.0744  0.7386  0.9080
  164SAPE  H12A18315   1.458   1.064   2.782  1.5684 -0.6856  1.6292
  164SAPE  H12B18316   1.389   0.919   2.875 -0.1608  0.1652  0.5239
  164SAPE   C1118317   1.235   1.013   2.770 -0.5880 -0.6124 -0.2422
  164SAPE  H11A18318   1.219   1.077   2.681 -0.1356 -1.2562 -0.8006
  164SAPE  H11B18319   1.214   1.074   2.860 -0.2725 -0.1297 -0.4865
  164SAPE     P18320   1.006   0.893   2.758  0.1328  0.0544 -0.0807
  164SAPE   O1318321   0.975   0.947   2.626 -0.1782  0.1330  0.2215
  164SAPE   O1418322   0.956   0.759   2.789  0.5934 -0.2652 -0.4609
  164SAPE   O1218323   1.164   0.895   2.768 -0.4119  0.0118  0.2098
  164SAPE   O1118324   0.951   0.992   2.866  0.1950  0.0580  0.3889
  164SAPE    C118325   0.989   0.967   3.000 -0.1572  0.1904 -0.3219
  164SAPE    HA18326   0.908   0.924   3.064  1.4162 -1.7237  0.5130
  164SAPE    HB18327   1.080   0.903   3.013  0.5686  0.7932 -2.2018
  164SAPE    C218328   1.020   1.106   3.060 -0.1093  0.6493 -0.3714
  164SAPE    HS18329   1.103   1.158   3.008 -0.1159  1.4241  0.3673
  164SAPE   O2118330   1.050   1.104   3.202 -0.4442  0.0390 -0.5101
  164SAPE   C2118331   1.170   1.066   3.233  0.2306  0.0224  0.0990
  164SAPE   O2218332   1.260   1.042   3.154 -0.1918 -0.3243  0.4544
  164SAPE   C2218333   1.179   1.060   3.390  0.4020 -0.7315 -0.2604
  164SAPE   H2R18334   1.182   1.164   3.430  0.8247 -1.3520  1.4140
  164SAPE   H2S18335   1.083   1.020   3.429  1.1518 -2.3437  0.0329
  164SAPE    C318336   0.908   1.207   3.039  0.6444  0.6936 -0.2258
  164SAPE    HX18337   0.815   1.162   3.080  0.8104  0.4862 -0.0738
  164SAPE    HY18338   0.886   1.213   2.931  1.6523 -0.0169 -0.4865
  164SAPE   O3118339   0.943   1.337   3.093  0.0190  0.5284 -0.5073
  164SAPE   C3118340   0.848   1.400   3.154 -0.1151 -0.4347  0.6407
  164SAPE   O3218341   0.735   1.361   3.175  0.2502  0.4649 -0.2405
  164SAPE   C3218342   0.905   1.525   3.220  0.5696  0.5789 -0.6297
  164SAPE   H2X18343   0.824   1.602   3.222 -0.7063 -0.6922  1.7755
  164SAPE   H2Y18344   0.994   1.560   3.164  1.6868 -0.6738  0.2848
  164SAPE   C2318345   1.318   0.997   3.427  0.0381 -0.3304  0.0877
  164SAPE   H3R18346   1.401   1.061   3.390 -0.6623 -0.0839 -1.1195
  164SAPE   H3S18347   1.338   0.903   3.373  2.5671  0.0171  0.3017
  164SAPE   C2418348   1.343   0.973   3.574 -0.3865  0.4757 -0.6972
  164SAPE   H4R18349   1.259   0.904   3.600 -1.0621  1.0669 -1.2502
  164SAPE   H4S18350   1.332   1.072   3.623  0.2403  0.0685  0.2972
  164SAPE   C2518351   1.480   0.923   3.610  0.8272  0.0055  0.1532
  164SAPE   H5R18352   1.563   0.990   3.582  1.6241  0.1070  2.5559
  164SAPE   C2618353   1.524   0.797   3.635  0.9180 -0.6057  0.2674
  164SAPE   H6R18354   1.630   0.779   3.657  0.4012 -1.9210  1.8940
  164SAPE   C2718355   1.438   0.680   3.661 -0.0483 -0.1090  0.1798
  164SAPE   H7R18356   1.420   0.636   3.560 -0.1142 -0.0953  0.1857
  164SAPE   H7S18357   1.343   0.712   3.709  0.0064 -0.2988  0.4129
  164SAPE   C2818358   1.490   0.578   3.755 -0.1986  0.3857 -0.2858
  164SAPE   H8R18359   1.569   0.514   3.714  0.4129  0.0773  1.2684
  164SAPE   C2918360   1.456   0.556   3.883 -0.5439 -0.1798  0.1135
  164SAPE   H9R18361   1.486   0.466   3.939 -1.2757  0.1483  1.0524
  164SAPE  C21018362   1.366   0.644   3.969  0.4740 -0.6830 -0.2959
  164SAPE  H10R18363   1.304   0.585   4.040 -0.3896 -2.2774 -2.2749
  164SAPE  H10S18364   1.290   0.697   3.908  0.8145  0.6690  0.4217
  164SAPE  C21118365   1.441   0.758   4.033 -1.0945 -0.5705  0.5618
  164SAPE  H11R18366   1.495   0.816   3.958  0.7675 -1.2991  1.2930
  164SAPE  C21218367   1.450   0.780   4.163 -0.2460  0.6695  0.7049
  164SAPE  H12R18368   1.519   0.856   4.203 -2.2202  2.4108  0.9572
  164SAPE  C21318369   1.371   0.698   4.262  0.3623  0.3216  0.0677
  164SAPE  H13R18370   1.395   0.591   4.241 -2.4498 -0.4609  0.4847
  164SAPE  H13S18371   1.261   0.709   4.252 -0.0197 -1.3905  1.7248
  164SAPE  C21418372   1.409   0.742   4.404 -0.2832 -0.2517  0.6826
  164SAPE  H14R18373   1.387   0.844   4.439 -0.3057 -0.6422  1.8766
  164SAPE  C21518374   1.430   0.656   4.506  0.5721 -0.0643 -0.3225
  164SAPE  H15R18375   1.473   0.697   4.599 -1.1354  0.7090  0.1669
  164SAPE  C21618376   1.452   0.504   4.479 -0.6017  0.0429 -0.0540
  164SAPE  H16R18377   1.548   0.480   4.428 -0.2950 -1.1864  1.0263
  164SAPE  H16S18378   1.366   0.455   4.429 -0.9691 -0.1589  0.7503
  164SAPE  C21718379   1.471   0.420   4.611 -1.1811  0.4898  0.1182
  164SAPE  H17R18380   1.371   0.419   4.658 -0.4364  0.0008  1.7693
  164SAPE  H17S18381   1.549   0.459   4.679 -1.0929  0.9529 -0.2428
  164SAPE  C21818382   1.513   0.271   4.577  0.4664 -0.1740 -0.5326
  164SAPE  H18R18383   1.510   0.226   4.678  0.9921 -0.1322 -0.4991
  164SAPE  H18S18384   1.606   0.264   4.517  1.0723  2.0796  0.0295
  164SAPE  C21918385   1.410   0.198   4.487  0.7373  0.0097 -0.1409
  164SAPE  H19R18386   1.414   0.248   4.387 -1.8038  2.0351  0.6611
  164SAPE  H19S18387   1.307   0.202   4.527  0.7523 -4.0925  0.7014
  164SAPE  C22018388   1.448   0.052   4.460  0.0226 -0.0790 -0.2895
  164SAPE  H20R18389   1.364   0.002   4.407  0.5556  0.7902 -2.0276
  164SAPE  H20S18390   1.470  -0.005   4.553  3.1721  0.5719 -0.5298
  164SAPE  H20T18391   1.528   0.044   4.383 -2.6309 -0.5067 -3.2178
  164SAPE   C3318392   0.945   1.480   3.367 -0.6781 -0.2199  0.5454
  164SAPE   H3X18393   0.998   1.565   3.415 -0.7778  0.8657 -1.1691
  164SAPE   H3Y18394   1.020   1.398   3.366 -0.5130 -0.0666 -0.2181
  164SAPE   C3418395   0.833   1.443   3.465 -0.6081  0.1289 -0.6713
  164SAPE   H4X18396   0.777   1.352   3.436  1.3557 -0.9934 -1.0987
  164SAPE   H4Y18397   0.757   1.524   3.475  0.0667  0.6559  0.4751
  164SAPE   C3518398   0.890   1.415   3.608  0.1053 -0.0559  0.0796
  164SAPE   H5X18399   0.817   1.368   3.677  1.8998  1.2249  3.0673
  164SAPE   H5Y18400   0.923   1.507   3.662 -0.7581 -0.7266  1.8326
  164SAPE   C3618401   1.019   1.326   3.618 -0.2162 -0.4389  1.0018
  164SAPE   H6X18402   1.105   1.360   3.556  1.0061 -2.2197  1.6442
  164SAPE   H6Y18403   1.005   1.221   3.585 -2.8115  0.4454 -1.1287
  164SAPE   C3718404   1.080   1.325   3.766  0.3375 -0.5044  0.1198
  164SAPE   H7X18405   1.103   1.432   3.786  1.9112 -0.9712  0.9013
  164SAPE   H7Y18406   1.180   1.278   3.755  0.7207  0.3798 -0.3003
  164SAPE   C3818407   1.002   1.265   3.883 -0.1298 -0.0395  0.7580
  164SAPE   H8X18408   0.981   1.161   3.851 -0.2567  0.0032  0.7034
  164SAPE   H8Y18409   0.906   1.317   3.903 -0.3220 -0.2714  0.4525
  164SAPE   C3918410   1.079   1.258   4.018 -0.0476  0.7215  0.0130
  164SAPE   H9X18411   1.068   1.358   4.065 -1.6272  1.2228 -1.3498
  164SAPE   H9Y18412   1.185   1.231   3.999  0.2714  1.6567  0.3934
  164SAPE  C31018413   1.018   1.156   4.116 -0.3667 -0.2595  0.2356
  164SAPE  H10X18414   1.017   1.054   4.071  1.0180  0.3503 -1.2863
  164SAPE  H10Y18415   0.908   1.171   4.130 -0.2386  1.8944 -0.6506
  164SAPE  C31118416   1.095   1.146   4.245 -0.6754 -0.6850 -0.3483
  164SAPE  H11X18417   1.078   1.241   4.299 -1.4935 -0.0650 -1.6624
  164SAPE  H11Y18418   1.204   1.128   4.233 -0.4498 -0.1773  0.7624
  164SAPE  C31218419   1.039   1.029   4.329 -0.1713 -0.1196 -0.0857
  164SAPE  H12X18420   1.034   0.948   4.254 -0.1283  0.4553 -0.7130
  164SAPE  H12Y18421   0.934   1.050   4.358 -0.6755  0.7714 -2.3959
  164SAPE  C31318422   1.133   0.985   4.449  0.1586  0.6233  0.1573
  164SAPE  H13X18423   1.168   1.067   4.515 -0.6760  0.6475  0.5904
  164SAPE  H13Y18424   1.224   0.937   4.407 -1.5462 -1.4433 -1.3988
  164SAPE  C31418425   1.060   0.874   4.535  0.4792  0.1365  0.2517
  164SAPE  H14X18426   1.037   0.787   4.471  2.1889 -0.6079  0.5931
  164SAPE  H14Y18427   0.959   0.919   4.546 -0.8133 -2.9051  1.9676
  164SAPE  C31518428   1.118   0.843   4.677  0.4780  0.0198 -0.8261
  164SAPE  H15X18429   1.136   0.935   4.736 -0.1385 -0.7799  0.6641
  164SAPE  H15Y18430   1.209   0.780   4.672 -1.8944 -3.7080 -1.1562
  164SAPE  C31618431   1.015   0.744   4.745 -0.4474  0.2299  0.0234
  164SAPE  H16X18432   0.981   0.673   4.667  2.8010  0.5429 -1.8765
  164SAPE  H16Y18433   0.917   0.785   4.776 -0.4257  1.0147 -0.9253
  164SAPE  C31718434   1.079   0.658   4.855  0.1863  0.1183 -0.7841
  164SAPE  H17X18435   1.146   0.730   4.906 -0.1573  0.5718 -0.9667
  164SAPE  H17Y18436   1.135   0.577   4.804  0.0159  0.4433 -1.4933
  164SAPE  C31818437   0.973   0.597   4.947 -0.5304  0.2414  0.5239
  164SAPE  H18X18438   0.913   0.678   4.995 -0.7488  1.1281 -1.1764
  164SAPE  H18Y18439   1.025   0.542   5.029 -1.0663  0.5117  1.0468
  164SAPE  H18Z18440   0.908   0.527   4.892 -0.3405 -0.3310  1.0164
  165SAPE     N18441   0.942   1.888   2.495  0.6112 -0.1729 -0.3838
  165SAPE   HN118442   0.985   1.852   2.408  0.3235  0.5292 -0.8186
  165SAPE   HN218443   0.956   1.990   2.506  2.2431 -0.2875 -1.0807
  165SAPE   HN318444   0.981   1.839   2.579 -2.4623  0.2062  1.4214
  165SAPE   C1218445   0.793   1.865   2.518 -0.6376  0.1712 -0.3663
  165SAPE  H12A18446   0.768   1.776   2.456  2.8171 -0.1258 -1.5506
  165SAPE  H12B18447   0.744   1.956   2.477  1.0845  1.1800 -0.2575
  165SAPE   C1118448   0.757   1.867   2.663 -0.2666 -0.1670  0.0768
  165SAPE  H11A18449   0.793   1.765   2.690 -1.5134 -0.2681  1.4661
  165SAPE  H11B18450   0.649   1.850   2.682 -0.4430  0.7905 -0.0554
  165SAPE     P18451   0.768   2.117   2.731 -0.2021  0.1446  0.5508
  165SAPE   O1318452   0.874   2.214   2.737 -0.4577  0.1260  0.0775
  165SAPE   O1418453   0.676   2.131   2.608 -0.2213 -0.2651 -1.2103
  165SAPE   O1218454   0.824   1.973   2.739 -0.2681  0.0631 -0.5076
  165SAPE   O1118455   0.671   2.135   2.851 -0.1016 -0.0278  0.2392
  165SAPE    C118456   0.546   2.067   2.873 -0.3060 -0.1327  0.6222
  165SAPE    HA18457   0.462   2.137   2.851 -0.4312 -0.1619  1.0015
  165SAPE    HB18458   0.543   1.977   2.808 -1.1844 -0.6696  1.3769
  165SAPE    C218459   0.524   2.024   3.011 -0.4901  0.6012  0.2914
  165SAPE    HS18460   0.418   1.993   3.026 -0.8319  1.9206  0.8040
  165SAPE   O2118461   0.556   2.129   3.103  0.0460 -1.0535  0.0920
  165SAPE   C2118462   0.455   2.216   3.117 -0.1829  0.1789  0.4762
  165SAPE   O2218463   0.347   2.219   3.055 -0.3539  0.4605 -0.2173
  165SAPE   C2218464   0.488   2.304   3.234 -0.2728 -0.4760 -0.1136
  165SAPE   H2R18465   0.501   2.237   3.322 -0.2234  0.7790  0.8656
  165SAPE   H2S18466   0.586   2.355   3.220  0.2581 -1.1489  1.0024
  165SAPE    C318467   0.624   1.912   3.049  1.0542 -0.2910  0.0883
  165SAPE    HX18468   0.728   1.948   3.029  0.8049  0.8159  0.7100
  165SAPE    HY18469   0.606   1.822   2.987  0.4718 -0.1148 -0.0029
  165SAPE   O3118470   0.613   1.879   3.193  0.5532  0.5615 -0.2129
  165SAPE   C3118471   0.515   1.794   3.223  0.5271  0.2922 -0.3448
  165SAPE   O3218472   0.450   1.734   3.141 -0.0882 -0.1199 -0.0021
  165SAPE   C3218473   0.497   1.783   3.377  0.3033 -0.2525  0.8192
  165SAPE   H2X18474   0.469   1.884   3.414 -1.3864 -0.5018  0.2974
  165SAPE   H2Y18475   0.596   1.766   3.426  0.6480 -2.1754 -0.4627
  165SAPE   C2318476   0.379   2.408   3.270 -0.2828  0.8170  0.1956
  165SAPE   H3R18477   0.302   2.346   3.321 -0.8443  0.3588 -1.1457
  165SAPE   H3S18478   0.342   2.465   3.181  1.4233  1.0384 -0.3994
  165SAPE   C2418479   0.433   2.511   3.368  0.6948 -0.7009 -0.0090
  165SAPE   H4R18480   0.533   2.541   3.330 -0.3416  0.4071 -2.0148
  165SAPE   H4S18481   0.451   2.465   3.467 -0.2257 -2.6939 -0.6917
  165SAPE   C2518482   0.337   2.623   3.381  0.4197 -0.5982  0.1930
  165SAPE   H5R18483   0.347   2.699   3.301  0.1598  0.6389  1.2939
  165SAPE   C2618484   0.270   2.659   3.494  0.2684  0.6456 -0.1897
  165SAPE   H6R18485   0.190   2.735   3.485  0.7402  0.9193 -2.7236
  165SAPE   C2718486   0.277   2.591   3.626 -0.2823 -0.4336 -0.6126
  165SAPE   H7R18487   0.284   2.482   3.607 -2.3251 -1.3610  2.9944
  165SAPE   H7S18488   0.180   2.601   3.678  1.1697  1.1096  1.9886
  165SAPE   C2818489   0.395   2.626   3.710 -0.2578  0.4029 -0.1693
  165SAPE   H8R18490   0.497   2.601   3.677 -0.5758  1.9974 -2.5953
  165SAPE   C2918491   0.378   2.658   3.840 -0.3939 -0.1450 -0.6210
  165SAPE   H9R18492   0.467   2.680   3.900  0.1344  0.2926 -1.5431
  165SAPE  C21018493   0.239   2.684   3.917 -1.3591 -0.2037  0.2551
  165SAPE  H10R18494   0.200   2.588   3.957  0.3857 -1.1319 -0.2122
  165SAPE  H10S18495   0.158   2.723   3.851  0.3691  2.8278 -0.2794
  165SAPE  C21118496   0.255   2.781   4.032 -0.7781 -0.4859  0.6266
  165SAPE  H11R18497   0.214   2.882   4.014  0.7676  0.2817  1.1952
  165SAPE  C21218498   0.307   2.764   4.150 -0.0770 -0.1258 -1.6041
  165SAPE  H12R18499   0.312   2.844   4.225 -2.9636 -0.9860 -0.3512
  165SAPE  C21318500   0.339   2.620   4.198 -0.7772  0.0655  0.0563
  165SAPE  H13R18501   0.387   2.558   4.119 -2.3174 -1.7158  0.4696
  165SAPE  H13S18502   0.249   2.558   4.218  0.5211 -2.9167 -2.4258
  165SAPE  C21418503   0.431   2.621   4.319 -0.6467 -0.4368  0.0616
  165SAPE  H14R18504   0.522   2.683   4.313  0.7743 -2.5406 -2.0410
  165SAPE  C21518505   0.427   2.540   4.422  0.3077  0.2824  0.1723
  165SAPE  H15R18506   0.500   2.553   4.503  1.1381  1.3707 -0.7140
  165SAPE  C21618507   0.323   2.434   4.441 -0.1324  0.3615 -0.1568
  165SAPE  H16R18508   0.392   2.350   4.464 -0.3423 -0.3484 -1.9357
  165SAPE  H16S18509   0.267   2.395   4.353 -3.2982 -2.2967  2.7186
  165SAPE  C21718510   0.226   2.458   4.556  0.0620  0.1826 -0.7196
  165SAPE  H17R18511   0.277   2.473   4.654 -1.3909  1.0725 -0.0676
  165SAPE  H17S18512   0.158   2.371   4.567 -0.3122  0.6692  1.2064
  165SAPE  C21818513   0.125   2.574   4.537 -0.7233  0.3437 -0.0784
  165SAPE  H18R18514   0.070   2.561   4.441  2.9392 -0.2773 -2.3246
  165SAPE  H18S18515   0.174   2.674   4.534 -1.8421  0.9120 -2.6766
  165SAPE  C21918516   0.023   2.576   4.652 -0.1870 -0.4915  0.1612
  165SAPE  H19R18517  -0.033   2.482   4.670  1.2292 -1.7954 -1.7815
  165SAPE  H19S18518  -0.051   2.649   4.611  0.8625  1.0876  0.9617
  165SAPE  C22018519   0.081   2.619   4.780 -0.6787 -0.1020  0.3660
  165SAPE  H20R18520   0.125   2.535   4.838  0.6560 -0.2209 -0.7740
  165SAPE  H20S18521   0.004   2.667   4.845  0.3144  0.6366  1.0338
  165SAPE  H20T18522   0.156   2.701   4.775  1.1885 -1.7753 -0.1383
  165SAPE   C3318523   0.395   1.674   3.418  0.2108  0.1090  0.3359
  165SAPE   H3X18524   0.431   1.581   3.371  0.7399  1.3557 -1.8686
  165SAPE   H3Y18525   0.297   1.702   3.375  1.1641  1.3118 -1.1584
  165SAPE   C3418526   0.383   1.655   3.571  0.3510  0.0621 -0.5905
  165SAPE   H4X18527   0.308   1.573   3.576  0.2354 -0.1168 -3.4776
  165SAPE   H4Y18528   0.336   1.743   3.619  0.7066 -1.0630  2.0067
  165SAPE   C3518529   0.506   1.615   3.648 -0.4251  0.1156 -0.5233
  165SAPE   H5X18530   0.580   1.697   3.637 -1.1288  1.0270  1.2074
  165SAPE   H5Y18531   0.559   1.529   3.601  1.1742 -0.1315  1.5910
  165SAPE   C3618532   0.490   1.603   3.801  0.4206  0.1144 -0.4423
  165SAPE   H6X18533   0.419   1.520   3.822 -1.5541  1.5849 -0.9976
  165SAPE   H6Y18534   0.442   1.695   3.842 -3.2552 -0.8994 -2.0230
  165SAPE   C3718535   0.621   1.579   3.873 -1.0704  0.3517 -0.1013
  165SAPE   H7X18536   0.683   1.667   3.844 -1.4472  0.1861 -1.5249
  165SAPE   H7Y18537   0.664   1.483   3.837 -2.1388 -0.3125  0.3577
  165SAPE   C3818538   0.600   1.578   4.033 -0.3836 -0.0745 -0.7423
  165SAPE   H8X18539   0.701   1.555   4.073 -0.1253  2.3865  0.1854
  165SAPE   H8Y18540   0.525   1.497   4.047  1.2029 -1.8161 -1.7612
  165SAPE   C3918541   0.566   1.713   4.098 -0.2399 -0.2100 -0.5005
  165SAPE   H9X18542   0.467   1.744   4.060 -0.3701  1.1585  0.8576
  165SAPE   H9Y18543   0.642   1.786   4.062 -1.9042  1.8788  0.0084
  165SAPE  C31018544   0.554   1.698   4.248 -0.5640 -0.1311  0.0212
  165SAPE  H10X18545   0.657   1.687   4.286 -0.2908  0.9676 -0.3643
  165SAPE  H10Y18546   0.507   1.602   4.278  0.0129  0.3723  2.8033
  165SAPE  C31118547   0.504   1.829   4.309 -0.4417  0.4469  0.1407
  165SAPE  H11X18548   0.394   1.835   4.293 -0.3448  0.2293 -0.6254
  165SAPE  H11Y18549   0.552   1.917   4.262 -1.4732 -0.5915 -3.1097
  165SAPE  C31218550   0.523   1.841   4.461  0.2669 -0.0399  0.2820
  165SAPE  H12X18551   0.632   1.849   4.476  0.7476 -0.6686 -2.3479
  165SAPE  H12Y18552   0.484   1.745   4.500  0.9859 -0.4613 -0.0188
  165SAPE  C31318553   0.448   1.961   4.518 -0.2089  0.3893 -1.2689
  165SAPE  H13X18554   0.339   1.941   4.528  0.4228 -2.4294  2.0080
  165SAPE  H13Y18555   0.476   2.041   4.446 -1.4284  1.7483 -0.2915
  165SAPE  C31418556   0.502   1.990   4.662 -0.2079 -0.0285  0.2292
  165SAPE  H14X18557   0.612   1.992   4.679  0.1783 -2.7246 -1.4090
  165SAPE  H14Y18558   0.489   1.902   4.729  0.5503  0.4906  1.0809
  165SAPE  C31518559   0.437   2.103   4.727  0.0493 -0.4172 -0.6835
  165SAPE  H15X18560   0.453   2.200   4.675  1.8967  0.7616  1.8718
  165SAPE  H15Y18561   0.495   2.112   4.821 -0.4703 -0.4648 -0.3529
  165SAPE  C31618562   0.294   2.068   4.764 -0.2047  0.2692  0.5093
  165SAPE  H16X18563   0.288   1.957   4.761  0.1700  0.2582 -0.2478
  165SAPE  H16Y18564   0.215   2.104   4.694 -0.8786  1.2389  1.7318
  165SAPE  C31718565   0.272   2.104   4.907  0.4386  0.4647 -0.2828
  165SAPE  H17X18566   0.368   2.109   4.963 -0.0077  2.7258  0.3836
  165SAPE  H17Y18567   0.195   2.043   4.959  0.8255 -1.9933 -2.4178
  165SAPE  C31818568   0.217   2.256   4.917  0.6340 -0.5905 -0.1111
  165SAPE  H18X18569   0.184   2.268   5.022  3.5003  0.1220  0.7811
  165SAPE  H18Y18570   0.127   2.269   4.852  0.6644  1.6808  0.2326
  165SAPE  H18Z18571   0.297   2.331   4.897 -0.2702  1.1438  2.3343
  166SAPE     N18572   0.244   3.570   2.992  0.3213 -0.0978 -0.0649
  166SAPE   HN118573   0.160   3.529   2.948  0.7477 -0.0855 -0.9103
  166SAPE   HN218574   0.301   3.488   3.020  0.0188 -0.5730 -0.8206
  166SAPE   HN318575   0.225   3.635   3.072 -0.5867 -1.5178  0.9171
  166SAPE   C1218576   0.312   3.651   2.882 -0.0231  0.1868 -0.1605
  166SAPE  H12A18577   0.396   3.705   2.931 -1.0577  0.4904  1.3615
  166SAPE  H12B18578   0.240   3.724   2.838 -0.6654 -0.2292  0.1994
  166SAPE   C1118579   0.360   3.579   2.753 -0.3965  0.2877  1.1495
  166SAPE  H11A18580   0.456   3.530   2.776 -0.2411  0.3151  0.5904
  166SAPE  H11B18581   0.387   3.655   2.676 -1.3155 -0.1675  0.3361
  166SAPE     P18582   0.278   3.417   2.565  0.2437  0.2828  0.6430
  166SAPE   O1318583   0.214   3.492   2.462 -0.0731  0.0875 -0.4174
  166SAPE   O1418584   0.416   3.391   2.537 -1.2775 -0.1522 -0.3481
  166SAPE   O1218585   0.260   3.492   2.705  0.2572 -0.3719  0.0252
  166SAPE   O1118586   0.195   3.286   2.587  0.2200  0.4885  0.4208
  166SAPE    C118587   0.261   3.169   2.634 -0.1408  0.1108 -0.3355
  166SAPE    HA18588   0.210   3.079   2.594  0.1446  0.2515 -1.0319
  166SAPE    HB18589   0.362   3.166   2.588 -1.2119 -0.1148 -2.8291
  166SAPE    C218590   0.265   3.143   2.784  0.4640  0.2176 -0.9135
  166SAPE    HS18591   0.290   3.036   2.805 -1.2498  0.1698  1.3244
  166SAPE   O2118592   0.138   3.192   2.846 -0.8970  0.4736  0.5630
  166SAPE   C2118593   0.019   3.149   2.814 -0.4088 -0.7355 -0.5568
  166SAPE   O2218594  -0.009   3.075   2.718 -0.1671 -0.4313  0.3188
  166SAPE   C2218595  -0.064   3.201   2.921  0.0234 -0.5356 -0.5156
  166SAPE   H2R18596  -0.022   3.176   3.020 -1.0305 -0.3022  0.0013
  166SAPE   H2S18597  -0.066   3.312   2.919  0.8127 -0.5210 -0.6669
  166SAPE    C318598   0.392   3.206   2.848 -0.3522  0.3525  0.1422
  166SAPE    HX18599   0.373   3.315   2.864 -2.2572 -0.0046  0.6332
  166SAPE    HY18600   0.478   3.201   2.779  0.7373  0.3106  1.4614
  166SAPE   O3118601   0.424   3.143   2.978 -0.0820  0.0945  0.5513
  166SAPE   C3118602   0.382   3.205   3.085  0.0450 -0.0611  0.6985
  166SAPE   O3218603   0.322   3.312   3.090 -0.1884 -0.0475 -0.1390
  166SAPE   C3218604   0.408   3.117   3.206  0.4232 -0.0671  0.5535
  166SAPE   H2X18605   0.465   3.025   3.179 -1.6194 -1.4960  0.9229
  166SAPE   H2Y18606   0.309   3.096   3.251  0.7364 -0.7651  0.9419
  166SAPE   C2318607  -0.212   3.154   2.910 -0.0391  0.2475  0.6467
  166SAPE   H3R18608  -0.217   3.045   2.888 -3.3595  0.0161  1.9769
  166SAPE   H3S18609  -0.262   3.209   2.827  0.2609  1.0607  0.9901
  166SAPE   C2418610  -0.289   3.167   3.041 -0.2184 -0.2543  0.1399
  166SAPE   H4R18611  -0.273   3.273   3.071 -0.2420  0.2284 -1.4601
  166SAPE   H4S18612  -0.232   3.109   3.115  2.5996 -0.0111 -1.7036
  166SAPE   C2518613  -0.436   3.138   3.027  0.0520 -0.1169  0.3106
  166SAPE   H5R18614  -0.472   3.095   2.932  0.1024 -1.8345  1.0355
  166SAPE   C2618615  -0.519   3.140   3.129  0.1875  0.2870  0.1194
  166SAPE   H6R18616  -0.627   3.134   3.111  0.4912 -0.8814 -1.6358
  166SAPE   C2718617  -0.485   3.177   3.271 -0.8431  0.5012 -0.6169
  166SAPE   H7R18618  -0.565   3.234   3.323 -1.8518 -2.5378  1.4619
  166SAPE   H7S18619  -0.402   3.250   3.258  0.9040 -1.3207 -0.1912
  166SAPE   C2818620  -0.437   3.068   3.361  0.1492 -0.6160  0.3497
  166SAPE   H8R18621  -0.328   3.055   3.365  0.5464  2.3626  1.3524
  166SAPE   C2918622  -0.514   2.996   3.442  0.6395 -0.1918 -1.1180
  166SAPE   H9R18623  -0.461   2.931   3.513  2.2483  1.4911 -0.6931
  166SAPE  C21018624  -0.663   3.022   3.471  0.4667  0.0913 -0.2842
  166SAPE  H10R18625  -0.711   3.097   3.405 -0.6353 -1.6594 -1.5667
  166SAPE  H10S18626  -0.689   3.052   3.574 -0.1210 -1.0910 -0.0715
  166SAPE  C21118627  -0.727   2.885   3.451 -0.2982  0.1593 -0.0379
  166SAPE  H11R18628  -0.716   2.847   3.349  2.9591  1.5548 -0.3482
  166SAPE  C21218629  -0.753   2.801   3.554 -0.8538 -0.1451  0.9747
  166SAPE  H12R18630  -0.770   2.697   3.525  1.9085 -0.3965  0.0302
  166SAPE  C21318631  -0.749   2.823   3.701 -0.2953  0.5328 -0.2989
  166SAPE  H13R18632  -0.850   2.790   3.734  0.4257 -1.4747 -0.0136
  166SAPE  H13S18633  -0.738   2.933   3.714 -0.2137  0.5533 -0.5317
  166SAPE  C21418634  -0.639   2.760   3.789  0.0607 -0.5742  1.2966
  166SAPE  H14R18635  -0.537   2.800   3.783 -0.8484  1.7848  0.3658
  166SAPE  C21518636  -0.659   2.661   3.879  0.5406  0.0511 -0.3761
  166SAPE  H15R18637  -0.580   2.639   3.951 -0.7631  1.4786  1.6103
  166SAPE  C21618638  -0.801   2.606   3.906 -0.5249  0.1516  0.1305
  166SAPE  H16R18639  -0.786   2.506   3.952  1.8674  0.0609 -0.6730
  166SAPE  H16S18640  -0.860   2.591   3.814  0.3921 -0.0126 -0.4391
  166SAPE  C21718641  -0.877   2.687   4.011 -0.1520 -0.4648  0.2099
  166SAPE  H17R18642  -0.882   2.794   3.979  0.2537 -1.1348 -2.3804
  166SAPE  H17S18643  -0.822   2.697   4.107 -0.8597 -0.7515  0.6441
  166SAPE  C21818644  -1.019   2.635   4.033 -0.2180 -0.4467 -0.4224
  166SAPE  H18R18645  -1.066   2.619   3.934 -0.3599  1.0384 -0.6228
  166SAPE  H18S18646  -1.080   2.714   4.083  2.7387  1.9257 -0.2537
  166SAPE  C21918647  -1.031   2.503   4.117 -0.0054 -0.3734 -0.9829
  166SAPE  H19R18648  -0.962   2.428   4.073 -0.0418 -0.9464 -0.0842
  166SAPE  H19S18649  -1.134   2.462   4.106 -1.5188  2.9456 -0.4564
  166SAPE  C22018650  -1.005   2.529   4.273 -0.5426  0.2783  1.0196
  166SAPE  H20R18651  -1.074   2.608   4.311 -0.8859 -0.2486  1.5119
  166SAPE  H20S18652  -0.903   2.566   4.295  0.2739 -0.4797 -1.2054
  166SAPE  H20T18653  -1.024   2.431   4.321 -1.2880  0.7374  1.6876
  166SAPE   C3318654   0.495   3.189   3.320  0.0490 -0.5236 -0.2335
  166SAPE   H3X18655   0.455   3.291   3.337 -0.2222 -0.7719  0.6735
  166SAPE   H3Y18656   0.597   3.201   3.276 -0.1056  0.2265 -0.4123
  166SAPE   C3418657   0.503   3.102   3.447  0.1153 -0.2216  0.2922
  166SAPE   H4X18658   0.491   2.996   3.416  1.3065 -0.1917 -0.3236
  166SAPE   H4Y18659   0.410   3.130   3.500 -2.1164 -2.6957 -2.0237
  166SAPE   C3518660   0.626   3.120   3.528 -0.3838  0.3394  0.9966
  166SAPE   H5X18661   0.668   3.222   3.522  0.2656  0.0907  1.2276
  166SAPE   H5Y18662   0.703   3.049   3.490 -2.4113 -1.4639 -0.0550
  166SAPE   C3618663   0.582   3.098   3.669  0.0693  0.5469  0.3929
  166SAPE   H6X18664   0.526   3.002   3.668 -0.9576  1.0878  2.1353
  166SAPE   H6Y18665   0.514   3.173   3.714 -0.7263  0.5665 -0.7858
  166SAPE   C3718666   0.697   3.077   3.766  0.0927 -0.6143  0.8571
  166SAPE   H7X18667   0.772   3.001   3.736  0.2372  0.2949 -1.3108
  166SAPE   H7Y18668   0.638   3.034   3.850 -2.6207 -0.3262 -0.7761
  166SAPE   C3818669   0.770   3.207   3.808 -0.2837 -0.1561  0.5872
  166SAPE   H8X18670   0.694   3.286   3.829 -0.0019  0.3882 -0.3796
  166SAPE   H8Y18671   0.837   3.233   3.724  1.2433 -0.2160  1.7311
  166SAPE   C3918672   0.863   3.187   3.931 -0.2168 -0.1500 -0.3733
  166SAPE   H9X18673   0.929   3.098   3.923 -2.1927 -1.9972  2.3778
  166SAPE   H9Y18674   0.793   3.173   4.016  0.3701 -2.6254 -0.2283
  166SAPE  C31018675   0.952   3.314   3.957  0.1090  0.7235  0.2882
  166SAPE  H10X18676   1.025   3.311   3.873 -1.4288 -1.1367 -1.0877
  166SAPE  H10Y18677   1.005   3.304   4.054  1.6467 -0.8966 -0.6586
  166SAPE  C31118678   0.866   3.444   3.959 -0.3563  0.1502  0.2315
  166SAPE  H11X18679   0.769   3.428   4.012  1.1128 -1.2596  2.6976
  166SAPE  H11Y18680   0.850   3.472   3.853  0.8062 -1.3210 -0.3633
  166SAPE  C31218681   0.931   3.559   4.030  0.5260  0.2032  0.0631
  166SAPE  H12X18682   0.919   3.655   3.975 -2.7450 -0.9022 -1.4003
  166SAPE  H12Y18683   1.039   3.538   4.015  0.4337  1.2916 -2.8276
  166SAPE  C31318684   0.896   3.585   4.178  0.4192 -0.4292 -0.8383
  166SAPE  H13X18685   0.786   3.598   4.191  0.6817 -1.0743  3.1978
  166SAPE  H13Y18686   0.957   3.670   4.214  1.6238 -1.3455 -0.6749
  166SAPE  C31418687   0.925   3.470   4.275 -0.0505 -0.0858 -0.4352
  166SAPE  H14X18688   1.032   3.452   4.298 -0.2771  1.2548  2.0876
  166SAPE  H14Y18689   0.874   3.386   4.224 -0.7110  0.5578 -0.8545
  166SAPE  C31518690   0.852   3.481   4.409 -0.3513 -0.0900  0.4275
  166SAPE  H15X18691   0.741   3.472   4.408 -0.2786 -2.6911  2.7956
  166SAPE  H15Y18692   0.892   3.576   4.449 -0.6211  0.1877  0.0446
  166SAPE  C31618693   0.903   3.382   4.513 -0.0788 -0.3930 -0.0419
  166SAPE  H16X18694   1.005   3.397   4.552  1.0814 -0.6060 -2.7459
  166SAPE  H16Y18695   0.912   3.282   4.465  0.7812  1.0886 -3.2358
  166SAPE  C31718696   0.802   3.373   4.631 -0.8205 -0.2568  0.1114
  166SAPE  H17X18697   0.788   3.475   4.674 -0.0017  1.2144 -2.8072
  166SAPE  H17Y18698   0.859   3.315   4.706 -1.7274 -0.3270  0.7598
  166SAPE  C31818699   0.672   3.303   4.607 -0.3572  0.5589  0.3908
  166SAPE  H18X18700   0.681   3.198   4.571 -2.4273  1.1607 -2.1579
  166SAPE  H18Y18701   0.611   3.356   4.531 -0.3992  0.1182  0.1133
  166SAPE  H18Z18702   0.613   3.296   4.701  1.3229 -0.2754  1.4508
  167SAPE     N18703   1.427   1.906   2.422  0.0286 -0.6408 -0.2565
  167SAPE   HN118704   1.421   1.860   2.329 -1.9998  1.0618 -1.0471
  167SAPE   HN218705   1.337   1.956   2.434  0.8154  0.7054  0.3714
  167SAPE   HN318706   1.498   1.983   2.424 -1.6546  0.9941  2.1354
  167SAPE   C1218707   1.457   1.820   2.543 -0.0045 -0.2851  0.1470
  167SAPE  H12A18708   1.445   1.885   2.633  1.5692  0.0621  0.1398
  167SAPE  H12B18709   1.563   1.788   2.542 -0.3540 -1.5112  0.6389
  167SAPE   C1118710   1.368   1.698   2.553  0.5386 -0.1033  0.1852
  167SAPE  H11A18711   1.412   1.625   2.623  2.1643 -0.4967 -1.1781
  167SAPE  H11B18712   1.364   1.634   2.463  1.7380 -1.2758  0.9429
  167SAPE     P18713   1.162   1.694   2.720  0.0416 -0.1693  0.4502
  167SAPE   O1318714   1.024   1.745   2.714  0.2858  0.0865 -0.1286
  167SAPE   O1418715   1.178   1.549   2.733 -0.0673 -0.0470  0.2584
  167SAPE   O1218716   1.233   1.735   2.582 -0.4776 -1.0643 -0.1547
  167SAPE   O1118717   1.246   1.765   2.835 -0.3915 -0.6399  0.3931
  167SAPE    C118718   1.251   1.900   2.853  0.1897 -0.3598 -0.0575
  167SAPE    HA18719   1.355   1.934   2.873 -1.1933  2.1072  4.4214
  167SAPE    HB18720   1.215   1.968   2.772  1.2706 -0.2085 -0.4341
  167SAPE    C218721   1.197   1.940   2.996  0.3440  0.1610  0.5852
  167SAPE    HS18722   1.261   2.022   3.033  0.2610  0.1699  0.7111
  167SAPE   O2118723   1.200   1.831   3.098  0.6585  0.3270 -0.1253
  167SAPE   C2118724   1.314   1.776   3.114  0.3446  0.5922 -0.3488
  167SAPE   O2218725   1.420   1.807   3.064 -0.2093 -0.0719 -0.4134
  167SAPE   C2218726   1.296   1.663   3.217 -0.7388  0.3203  0.3646
  167SAPE   H2R18727   1.277   1.712   3.315 -1.5416 -0.5499  0.6693
  167SAPE   H2S18728   1.211   1.602   3.181 -2.2067  1.3361  1.9488
  167SAPE    C318729   1.049   1.987   2.983  0.2160 -0.0279 -0.0687
  167SAPE    HX18730   1.002   1.900   2.932  1.3617 -0.2268 -0.8028
  167SAPE    HY18731   1.047   2.077   2.919  2.0241 -0.2898 -0.5306
  167SAPE   O3118732   0.986   2.019   3.110  0.1005 -0.2815 -0.3375
  167SAPE   C3118733   0.948   1.905   3.178 -0.2164 -0.4289 -0.1109
  167SAPE   O3218734   0.920   1.801   3.121 -0.6592 -0.1541  0.0514
  167SAPE   C3218735   0.961   1.931   3.333 -0.2583 -0.5187 -0.9786
  167SAPE   H2X18736   0.943   2.040   3.338 -0.0742 -0.4933 -0.8999
  167SAPE   H2Y18737   1.065   1.899   3.356  0.4180  1.6469 -0.8326
  167SAPE   C2318738   1.416   1.568   3.228  0.1973  0.4082  0.6145
  167SAPE   H3R18739   1.508   1.622   3.261 -0.2033  1.1107  0.5820
  167SAPE   H3S18740   1.440   1.537   3.124  0.9647  1.3719  0.4857
  167SAPE   C2418741   1.384   1.447   3.319 -0.4037  0.1740  0.3343
  167SAPE   H4R18742   1.297   1.396   3.273  0.1446  1.9430 -3.0226
  167SAPE   H4S18743   1.366   1.474   3.425  1.2822  0.3391  0.6122
  167SAPE   C2518744   1.499   1.353   3.333  0.0789 -0.1837 -0.3696
  167SAPE   H5R18745   1.536   1.320   3.235  2.0247 -0.6978  0.5050
  167SAPE   C2618746   1.563   1.308   3.444 -0.4593 -0.3666  0.6694
  167SAPE   H6R18747   1.656   1.251   3.429  0.6162  0.8855  2.2266
  167SAPE   C2718748   1.538   1.347   3.586 -0.1805 -0.3112  0.1470
  167SAPE   H7R18749   1.480   1.268   3.639  1.2283 -0.2698  1.8419
  167SAPE   H7S18750   1.480   1.439   3.609 -2.5091 -1.6199 -0.1817
  167SAPE   C2818751   1.668   1.362   3.668 -0.1921  0.3024  0.1010
  167SAPE   H8R18752   1.742   1.432   3.627 -1.3755  1.5686  0.0735
  167SAPE   C2918753   1.689   1.303   3.794 -0.1630 -0.3185 -0.5697
  167SAPE   H9R18754   1.784   1.324   3.847 -0.2518  0.1552 -0.5972
  167SAPE  C21018755   1.603   1.211   3.877  0.0034 -0.1893  0.0550
  167SAPE  H10R18756   1.511   1.193   3.818  0.1433 -0.1028 -0.1964
  167SAPE  H10S18757   1.581   1.264   3.972  0.2036 -0.8888  0.4933
  167SAPE  C21118758   1.660   1.075   3.908 -0.3285  0.3829  0.0005
  167SAPE  H11R18759   1.677   1.011   3.821  2.5010 -0.4767  1.0890
  167SAPE  C21218760   1.712   1.040   4.024 -0.1763  0.1568  0.2271
  167SAPE  H12R18761   1.753   0.938   4.027  2.2646  1.0606 -0.5665
  167SAPE  C21318762   1.724   1.136   4.142 -1.1162 -0.3293  0.5370
  167SAPE  H13R18763   1.643   1.115   4.215 -1.3231 -0.8727  0.1532
  167SAPE  H13S18764   1.724   1.245   4.117 -1.3792 -0.7065 -1.2470
  167SAPE  C21418765   1.862   1.119   4.209  0.7175 -0.1223 -0.2037
  167SAPE  H14R18766   1.922   1.212   4.201 -3.2685  2.6689 -0.4623
  167SAPE  C21518767   1.898   1.033   4.301 -1.2284 -0.2014 -0.0310
  167SAPE  H15R18768   2.005   1.041   4.328 -0.9900 -0.9241 -0.6927
  167SAPE  C21618769   1.838   0.908   4.343  0.4172 -0.0702 -0.9140
  167SAPE  H16R18770   1.728   0.921   4.333  0.3524 -1.3670 -2.1178
  167SAPE  H16S18771   1.853   0.903   4.453  0.8800 -1.3254 -1.0232
  167SAPE  C21718772   1.861   0.783   4.260 -0.2927  0.6369  0.4911
  167SAPE  H17R18773   1.970   0.771   4.246 -0.5830  0.4645 -2.2459
  167SAPE  H17S18774   1.836   0.809   4.154 -0.3216  0.2375  0.3970
  167SAPE  C21818775   1.807   0.640   4.302 -0.2298 -1.2772 -0.1614
  167SAPE  H18R18776   1.696   0.643   4.312 -0.1863 -1.4465  0.4073
  167SAPE  H18S18777   1.845   0.614   4.403  2.6073 -1.1229 -1.1067
  167SAPE  C21918778   1.844   0.523   4.204 -0.5660  0.7502 -0.0147
  167SAPE  H19R18779   1.793   0.428   4.233  3.0965 -1.3634  0.0631
  167SAPE  H19S18780   1.951   0.495   4.210 -0.6104  0.8611  2.3749
  167SAPE  C22018781   1.807   0.549   4.057  0.1330  0.3624 -0.0142
  167SAPE  H20R18782   1.757   0.469   3.999 -0.9821  0.1771  1.1429
  167SAPE  H20S18783   1.896   0.596   4.009  2.3237 -0.4328  2.9818
  167SAPE  H20T18784   1.727   0.626   4.053 -0.3951 -0.0713  1.4787
  167SAPE   C3318785   0.863   1.846   3.410  0.2453  0.6268  0.0011
  167SAPE   H3X18786   0.850   1.747   3.362 -1.6659  0.4063  0.9015
  167SAPE   H3Y18787   0.760   1.887   3.403 -0.5876 -1.6313 -2.4979
  167SAPE   C3418788   0.912   1.823   3.557 -0.4586 -0.3359  0.1053
  167SAPE   H4X18789   1.019   1.794   3.562 -0.1094  0.9962  0.8459
  167SAPE   H4Y18790   0.855   1.741   3.605 -1.3653  2.1116  3.6404
  167SAPE   C3518791   0.885   1.939   3.655  0.0722  0.3370 -0.0086
  167SAPE   H5X18792   0.786   1.986   3.637  1.4659  2.9289 -1.5678
  167SAPE   H5Y18793   0.959   2.021   3.643  0.8746  0.5742  4.5314
  167SAPE   C3618794   0.887   1.904   3.806  0.3899 -0.3544  0.7065
  167SAPE   H6X18795   0.988   1.867   3.835  0.3832 -0.8797  0.0965
  167SAPE   H6Y18796   0.809   1.825   3.814 -1.2078  0.7705 -2.2289
  167SAPE   C3718797   0.854   2.030   3.886 -0.3463  0.2840 -0.1163
  167SAPE   H7X18798   0.744   2.046   3.885 -0.3431  0.3374  0.2966
  167SAPE   H7Y18799   0.906   2.121   3.850 -1.2683  0.0267 -2.2550
  167SAPE   C3818800   0.890   2.017   4.036  0.0173 -0.5430 -0.4491
  167SAPE   H8X18801   1.000   2.018   4.049 -0.1657 -1.7277  1.5595
  167SAPE   H8Y18802   0.870   1.916   4.076 -0.9937  0.3545  1.4758
  167SAPE   C3918803   0.838   2.139   4.115 -0.1638 -0.0919  0.2851
  167SAPE   H9X18804   0.729   2.143   4.090 -0.3015 -1.8625  0.4776
  167SAPE   H9Y18805   0.873   2.240   4.084 -0.0213 -0.2699 -0.1528
  167SAPE  C31018806   0.845   2.119   4.264 -0.2694 -0.9334 -0.4082
  167SAPE  H10X18807   0.953   2.112   4.286 -0.0826  1.3548 -0.3604
  167SAPE  H10Y18808   0.797   2.021   4.284 -1.1055 -0.6172 -0.8136
  167SAPE  C31118809   0.780   2.226   4.349  0.4858 -0.3129  0.1616
  167SAPE  H11X18810   0.671   2.236   4.331  0.5039  0.7634  0.5542
  167SAPE  H11Y18811   0.823   2.321   4.309 -1.2980  1.0687  1.3332
  167SAPE  C31218812   0.811   2.239   4.504  0.0003  0.4163  0.6709
  167SAPE  H12X18813   0.921   2.237   4.518  0.1509 -0.5415 -0.4777
  167SAPE  H12Y18814   0.776   2.138   4.534 -2.5268  0.7636 -0.8457
  167SAPE  C31318815   0.738   2.350   4.577  1.0340  0.2608 -1.0113
  167SAPE  H13X18816   0.628   2.359   4.561 -0.0107  2.3077  4.7526
  167SAPE  H13Y18817   0.782   2.448   4.551  1.3615  1.5991  3.6796
  167SAPE  C31418818   0.744   2.342   4.734 -0.6489 -0.1841  0.6900
  167SAPE  H14X18819   0.844   2.376   4.770 -0.1035 -0.0307 -0.9139
  167SAPE  H14Y18820   0.726   2.236   4.762 -0.0544 -0.2269  0.9251
  167SAPE  C31518821   0.647   2.429   4.812  0.2493  0.2659 -0.0462
  167SAPE  H15X18822   0.665   2.416   4.921  0.2326  2.2157  0.2266
  167SAPE  H15Y18823   0.541   2.397   4.800 -0.2288  1.3744  1.0382
  167SAPE  C31618824   0.659   2.573   4.779  0.2912  0.2807  0.0485
  167SAPE  H16X18825   0.669   2.583   4.669 -2.1722 -0.6355 -0.3186
  167SAPE  H16Y18826   0.750   2.624   4.818  1.3506 -0.7697 -1.0146
  167SAPE  C31718827   0.529   2.645   4.814 -0.1570 -0.1672  0.5589
  167SAPE  H17X18828   0.454   2.572   4.776 -0.3624 -0.7549  2.0039
  167SAPE  H17Y18829   0.527   2.740   4.758  1.9738  0.1245  0.9175
  167SAPE  C31818830   0.504   2.674   4.959 -0.5269 -0.2715  0.1319
  167SAPE  H18X18831   0.399   2.708   4.968 -0.8129 -1.1587  0.2034
  167SAPE  H18Y18832   0.579   2.745   5.001 -0.6020 -0.0766 -0.0604
  167SAPE  H18Z18833   0.497   2.578   5.014 -2.9515 -0.7158 -0.8480
  168SAPE     N18834   5.438   3.820   2.600 -0.0866  0.0803 -0.0401
  168SAPE   HN118835   5.428   3.921   2.622  0.8342 -0.2207  1.9519
  168SAPE   HN218836   5.355   3.796   2.543  0.6876  0.2029 -1.2676
  168SAPE   HN318837   5.432   3.781   2.696  0.8195  0.2995  0.1158
  168SAPE   C1218838   5.566   3.802   2.515  0.6706 -0.2372 -0.1395
  168SAPE  H12A18839   5.540   3.809   2.407  0.2715  2.1190  0.0542
  168SAPE  H12B18840   5.613   3.707   2.548 -3.1353 -1.7045  1.6761
  168SAPE   C1118841   5.659   3.912   2.554 -0.1455  0.7463 -0.0896
  168SAPE  H11A18842   5.751   3.910   2.492 -0.2121 -1.7160 -0.1919
  168SAPE  H11B18843   5.696   3.897   2.658  1.6333  3.5735 -0.1855
  168SAPE     P18844   5.685   4.173   2.563  0.1822  0.1340  0.1422
  168SAPE   O1318845   5.831   4.150   2.564 -0.2464 -0.4074 -0.4308
  168SAPE   O1418846   5.627   4.266   2.465  0.5605 -0.2072  0.0950
  168SAPE   O1218847   5.602   4.046   2.546 -0.3379  0.2112 -0.1487
  168SAPE   O1118848   5.634   4.214   2.710 -0.3706 -0.3529  0.5171
  168SAPE    C118849   5.648   4.120   2.821  0.0385  0.6624 -0.0083
  168SAPE    HA18850   5.580   4.033   2.813  1.1429 -0.3171  0.9549
  168SAPE    HB18851   5.748   4.073   2.823  0.1405  0.8668  1.8638
  168SAPE    C218852   5.655   4.183   2.961  0.0696  0.5375  0.0476
  168SAPE    HS18853   5.713   4.116   3.028 -3.8256 -0.3714  2.8496
  168SAPE   O2118854   5.519   4.200   3.010  0.1682 -0.1765 -0.0733
  168SAPE   C2118855   5.448   4.093   3.036  1.1827 -0.0234 -0.4600
  168SAPE   O2218856   5.488   3.982   3.043 -0.2124  0.5448 -0.2579
  168SAPE   C2218857   5.297   4.139   3.052  0.3334  0.0982  0.2383
  168SAPE   H2R18858   5.250   4.089   2.965  2.1193  0.7357 -1.1689
  168SAPE   H2S18859   5.267   4.093   3.148 -1.5358  2.8890  1.1172
  168SAPE    C318860   5.722   4.323   2.971  0.3247 -0.2016  0.2886
  168SAPE    HX18861   5.670   4.400   2.910  0.1954 -0.7263 -0.2766
  168SAPE    HY18862   5.817   4.314   2.914 -0.7732  1.2003 -1.9088
  168SAPE   O3118863   5.759   4.358   3.105  0.7102 -0.3682  1.0151
  168SAPE   C3118864   5.688   4.452   3.166 -0.2313 -0.4808 -0.4742
  168SAPE   O3218865   5.588   4.508   3.122  0.1186 -0.2934 -0.4723
  168SAPE   C3218866   5.738   4.466   3.310 -0.1986  0.1862 -0.1552
  168SAPE   H2X18867   5.769   4.366   3.347  2.3742  1.5512  1.6992
  168SAPE   H2Y18868   5.650   4.494   3.372 -0.3611  0.8093 -0.6610
  168SAPE   C2318869   5.253   4.289   3.041 -0.5982 -0.9298 -0.6479
  168SAPE   H3R18870   5.144   4.299   3.024 -0.5731 -2.2461 -1.8000
  168SAPE   H3S18871   5.305   4.335   2.954 -0.0900  0.3522  0.3030
  168SAPE   C2418872   5.287   4.365   3.168  0.3406 -0.6635 -0.5374
  168SAPE   H4R18873   5.249   4.469   3.169 -1.4281 -1.2069 -2.7008
  168SAPE   H4S18874   5.397   4.374   3.176  0.0332  2.2714  2.5426
  168SAPE   C2518875   5.226   4.303   3.294 -0.1350  0.2452  0.9129
  168SAPE   H5R18876   5.127   4.255   3.288 -0.6030  1.0942  1.5806
  168SAPE   C2618877   5.297   4.291   3.409  0.0763  0.0506 -0.0788
  168SAPE   H6R18878   5.243   4.254   3.497  1.0966 -1.9810 -0.2618
  168SAPE   C2718879   5.445   4.310   3.431 -0.2241 -0.9693 -0.2020
  168SAPE   H7R18880   5.458   4.416   3.460 -0.4499 -0.9430 -0.1921
  168SAPE   H7S18881   5.497   4.302   3.333  0.5157 -0.6843  0.1657
  168SAPE   C2818882   5.508   4.218   3.531  0.5423  0.5947  0.0887
  168SAPE   H8R18883   5.530   4.120   3.486  0.4809  1.5897 -2.2687
  168SAPE   C2918884   5.531   4.242   3.658 -0.5368  0.4591 -0.6127
  168SAPE   H9R18885   5.579   4.164   3.719 -1.3708 -0.8911 -1.6106
  168SAPE  C21018886   5.526   4.383   3.718  0.5117  0.4375  0.0379
  168SAPE  H10R18887   5.466   4.378   3.811  1.6244 -1.8415  0.7051
  168SAPE  H10S18888   5.455   4.446   3.661  0.8714  0.2693 -0.6114
  168SAPE  C21118889   5.648   4.475   3.726  0.2817 -0.0440  0.2801
  168SAPE  H11R18890   5.643   4.547   3.643  0.3274 -0.3068  0.0475
  168SAPE  C21218891   5.760   4.474   3.809  0.8345  0.3269  0.5624
  168SAPE  H12R18892   5.846   4.542   3.806  1.9011 -0.8019  2.9705
  168SAPE  C21318893   5.770   4.370   3.914 -0.1376 -0.0513  0.0427
  168SAPE  H13R18894   5.876   4.347   3.937  0.0026  0.0957 -0.4382
  168SAPE  H13S18895   5.750   4.271   3.867  2.0179 -1.3000  1.5976
  168SAPE  C21418896   5.687   4.391   4.035 -0.0512  0.0055  0.5803
  168SAPE  H14R18897   5.657   4.488   4.077 -0.2865 -0.7159  2.1592
  168SAPE  C21518898   5.628   4.295   4.109 -0.2245 -0.2360  0.1498
  168SAPE  H15R18899   5.578   4.328   4.201 -2.4230  0.2075 -1.1214
  168SAPE  C21618900   5.634   4.146   4.095  0.1007  0.4600  0.4760
  168SAPE  H16R18901   5.713   4.104   4.030 -0.9188 -0.9442  0.0918
  168SAPE  H16S18902   5.536   4.109   4.058  0.9888  1.1651 -2.9485
  168SAPE  C21718903   5.650   4.075   4.232  0.3821 -0.5563  0.1536
  168SAPE  H17R18904   5.634   3.967   4.214  1.5272 -0.6557 -0.3899
  168SAPE  H17S18905   5.577   4.113   4.306 -0.0071  0.0084 -0.5080
  168SAPE  C21818906   5.796   4.087   4.292 -0.2455  0.8829  0.4527
  168SAPE  H18R18907   5.816   4.195   4.307  1.8945  0.5979 -0.0559
  168SAPE  H18S18908   5.860   4.037   4.216  0.2391 -1.7220  2.4397
  168SAPE  C21918909   5.816   4.022   4.435 -0.2559  0.3867 -0.1318
  168SAPE  H19R18910   5.786   3.915   4.436 -0.1169  0.3420  2.0282
  168SAPE  H19S18911   5.751   4.076   4.507  0.3930 -0.7392  1.3381
  168SAPE  C22018912   5.966   4.036   4.470  0.3458  0.4287  0.2402
  168SAPE  H20R18913   6.022   3.985   4.388 -1.2684 -1.4498  0.2097
  168SAPE  H20S18914   5.995   3.989   4.566 -0.4470 -1.7261 -0.5047
  168SAPE  H20T18915   5.987   4.145   4.468  0.1988  0.4771 -2.1351
  168SAPE   C3318916   5.864   4.552   3.318  0.0884  0.0303 -0.1839
  168SAPE   H3X18917   5.852   4.654   3.275  0.7606 -1.0894 -3.3213
  168SAPE   H3Y18918   5.945   4.508   3.255  0.8943  1.0656  0.1021
  168SAPE   C3418919   5.915   4.578   3.465  0.0644  0.4771 -0.1886
  168SAPE   H4X18920   5.954   4.489   3.519  2.0727  0.8717 -0.9272
  168SAPE   H4Y18921   5.829   4.621   3.521  0.0928 -0.1634  0.3591
  168SAPE   C3518922   6.029   4.677   3.476 -0.4925 -0.5568  0.2294
  168SAPE   H5X18923   6.003   4.780   3.446  1.2919  0.1366  0.9394
  168SAPE   H5Y18924   6.111   4.648   3.407  1.8113  0.7783  2.2300
  168SAPE   C3618925   6.084   4.699   3.628 -0.9853 -0.3532  0.4040
  168SAPE   H6X18926   5.996   4.712   3.695 -0.2948 -0.2974  1.3173
  168SAPE   H6Y18927   6.144   4.793   3.622 -1.0767 -0.1122  2.5761
  168SAPE   C3718928   6.181   4.589   3.671  0.3879 -0.5584 -0.5466
  168SAPE   H7X18929   6.268   4.593   3.602  0.3541 -2.7325 -0.7911
  168SAPE   H7Y18930   6.129   4.492   3.651  0.3471 -0.4885 -0.7881
  168SAPE   C3818931   6.220   4.602   3.817  0.3002  0.0485  0.4744
  168SAPE   H8X18932   6.262   4.704   3.818  0.8146 -0.0956 -1.9593
  168SAPE   H8Y18933   6.299   4.527   3.835  1.2065  0.6901 -0.7333
  168SAPE   C3918934   6.105   4.579   3.916  0.0484 -0.3733 -0.0270
  168SAPE   H9X18935   6.061   4.481   3.887 -1.2111  0.2388 -0.2983
  168SAPE   H9Y18936   6.023   4.654   3.909 -1.6196 -2.1315 -0.1646
  168SAPE  C31018937   6.145   4.565   4.061 -0.2806  0.4881 -0.0224
  168SAPE  H10X18938   6.169   4.666   4.100  0.7640 -0.1910  1.1662
  168SAPE  H10Y18939   6.236   4.503   4.079  0.9260  1.5656 -1.9858
  168SAPE  C31118940   6.032   4.509   4.145 -0.2868 -0.8076 -0.4534
  168SAPE  H11X18941   6.018   4.399   4.133 -0.8239 -1.0831  2.1210
  168SAPE  H11Y18942   5.932   4.555   4.127 -0.8080 -1.6382  0.2471
  168SAPE  C31218943   6.063   4.541   4.299  0.0921 -0.2796  0.5366
  168SAPE  H12X18944   6.060   4.649   4.326  1.7436  0.0696 -0.5329
  168SAPE  H12Y18945   6.166   4.510   4.328  0.1822 -1.6634 -1.0998
  168SAPE  C31318946   5.965   4.464   4.387 -0.1885  0.4055  0.4323
  168SAPE  H13X18947   5.992   4.357   4.375  0.0619  0.3962  1.0646
  168SAPE  H13Y18948   5.862   4.488   4.353  0.0624  2.2065  0.8682
  168SAPE  C31418949   5.973   4.518   4.534  0.8255 -0.3093  0.2207
  168SAPE  H14X18950   6.032   4.612   4.540  1.0886 -0.3104 -1.8244
  168SAPE  H14Y18951   6.042   4.453   4.593  1.9112  1.2498  0.7315
  168SAPE  C31518952   5.838   4.519   4.606  0.3862 -0.0537  0.1006
  168SAPE  H15X18953   5.760   4.562   4.539 -0.8527 -2.6127 -0.2325
  168SAPE  H15Y18954   5.848   4.580   4.698 -1.4210  0.9895 -0.3327
  168SAPE  C31618955   5.792   4.380   4.644  0.3462  0.7334  0.0971
  168SAPE  H16X18956   5.859   4.324   4.712 -1.4515 -1.7636 -0.0253
  168SAPE  H16Y18957   5.773   4.318   4.554 -2.4047  0.4951  0.7593
  168SAPE  C31718958   5.652   4.382   4.696  0.4087  0.4566 -0.4140
  168SAPE  H17X18959   5.594   4.413   4.606 -1.6191  0.2658  0.7595
  168SAPE  H17Y18960   5.624   4.456   4.774 -1.9933 -0.7647 -0.0336
  168SAPE  C31818961   5.611   4.245   4.729  0.6184 -0.4191 -0.2479
  168SAPE  H18X18962   5.502   4.226   4.737  0.3665  1.1526  0.3316
  168SAPE  H18Y18963   5.651   4.208   4.825  1.6441  0.5558 -0.2808
  168SAPE  H18Z18964   5.647   4.164   4.661  0.1710 -1.2936  0.5417
  169SAPE     N18965   2.044   1.173   2.573 -0.4692  0.3711  0.3806
  169SAPE   HN118966   2.091   1.215   2.490  0.0919  0.1944  0.5996
  169SAPE   HN218967   2.065   1.230   2.658  0.6230  0.5758 -0.0124
  169SAPE   HN318968   2.081   1.077   2.588  0.6389  0.9846  1.9407
  169SAPE   C1218969   1.898   1.161   2.555 -0.5712  0.2129 -0.3815
  169SAPE  H12A18970   1.893   1.083   2.476  0.8598 -2.0230  1.5903
  169SAPE  H12B18971   1.860   1.248   2.498  0.7984 -0.0548 -1.7840
  169SAPE   C1118972   1.826   1.105   2.677  0.0619 -0.0157 -0.1084
  169SAPE  H11A18973   1.718   1.097   2.650 -0.0502  4.5557 -1.8592
  169SAPE  H11B18974   1.830   1.190   2.749 -0.6732 -0.4536  0.4764
  169SAPE     P18975   1.889   0.947   2.886  0.5537 -0.3923 -0.3454
  169SAPE   O1318976   1.972   0.830   2.907 -0.3709  0.1128  0.5473
  169SAPE   O1418977   1.924   1.068   2.967 -0.5181  0.2257 -0.3836
  169SAPE   O1218978   1.894   0.984   2.731 -0.8172  0.2838 -0.1577
  169SAPE   O1118979   1.732   0.913   2.904  0.2155 -0.3533  0.8394
  169SAPE    C118980   1.670   0.982   3.015 -0.3591 -0.3140 -0.6956
  169SAPE    HA18981   1.691   1.091   3.003 -1.9513  0.1452  0.3410
  169SAPE    HB18982   1.561   0.974   2.998 -0.2192  0.3511 -1.9961
  169SAPE    C218983   1.708   0.932   3.158  0.5013 -0.1128 -0.2875
  169SAPE    HS18984   1.818   0.916   3.154  0.1452 -2.6924 -2.7221
  169SAPE   O2118985   1.634   0.807   3.179  0.2171 -0.7762 -0.1544
  169SAPE   C2118986   1.698   0.716   3.254 -0.1511  0.1954 -0.5744
  169SAPE   O2218987   1.800   0.740   3.314 -0.5392  0.4990  0.0401
  169SAPE   C2218988   1.632   0.576   3.253 -0.2829 -0.4113 -0.2466
  169SAPE   H2R18989   1.527   0.597   3.225  0.3071  2.7585 -0.4409
  169SAPE   H2S18990   1.662   0.508   3.170  0.5412 -2.9291  1.9783
  169SAPE    C318991   1.676   1.037   3.268  0.0882  0.6829  0.7836
  169SAPE    HX18992   1.566   1.048   3.274 -0.0722 -0.0739 -0.4232
  169SAPE    HY18993   1.700   1.137   3.225 -1.9563  1.9127  2.3233
  169SAPE   O3118994   1.726   1.006   3.401  0.5371 -0.3129  0.3461
  169SAPE   C3118995   1.844   1.050   3.438 -0.5331  0.5103 -0.6338
  169SAPE   O3218996   1.921   1.112   3.370  0.2702 -0.7750  0.0950
  169SAPE   C3218997   1.865   0.997   3.579  0.7112 -0.7692 -0.5038
  169SAPE   H2X18998   1.775   0.983   3.643  2.6407  0.3524  2.6556
  169SAPE   H2Y18999   1.907   1.090   3.622  2.2137 -1.8495  0.4398
  169SAPE   C2319000   1.639   0.509   3.386 -0.2607  0.4856 -0.9892
  169SAPE   H3R19001   1.559   0.557   3.447  0.4342  0.6665 -0.2005
  169SAPE   H3S19002   1.742   0.514   3.429 -1.0398  0.9297  0.9477
  169SAPE   C2419003   1.600   0.357   3.374 -0.3274 -0.6324 -1.1570
  169SAPE   H4R19004   1.636   0.284   3.449 -2.3592 -2.1411 -1.5586
  169SAPE   H4S19005   1.672   0.318   3.298  1.9628 -0.3453  0.7579
  169SAPE   C2519006   1.454   0.337   3.335 -0.1496 -0.4890 -0.9275
  169SAPE   H5R19007   1.427   0.380   3.237  1.4583  0.9131 -0.8010
  169SAPE   C2619008   1.355   0.297   3.424 -0.6081  0.2843  0.2416
  169SAPE   H6R19009   1.248   0.302   3.398 -0.8963  0.7122  1.4263
  169SAPE   C2719010   1.375   0.249   3.571  1.3528 -0.6681  0.7931
  169SAPE   H7R19011   1.335   0.328   3.638  1.5604  0.0715  0.0505
  169SAPE   H7S19012   1.484   0.240   3.593  1.2744 -0.9992  1.0602
  169SAPE   C2819013   1.320   0.114   3.602  0.0458  0.9261 -0.2306
  169SAPE   H8R19014   1.334   0.025   3.540 -0.0332 -1.0376  2.4121
  169SAPE   C2919015   1.280   0.077   3.723 -0.1285 -0.7343 -0.5038
  169SAPE   H9R19016   1.257  -0.029   3.743 -0.0195 -0.3651  1.8932
  169SAPE  C21019017   1.258   0.167   3.845 -0.0448  0.4611 -0.8746
  169SAPE  H10R19018   1.155   0.204   3.829  0.7267  2.0818 -2.4899
  169SAPE  H10S19019   1.317   0.260   3.832  3.8140 -1.6165  0.0549
  169SAPE  C21119020   1.285   0.112   3.984  0.0944 -0.1460  0.8319
  169SAPE  H11R19021   1.194   0.118   4.046 -0.4287  1.2515 -0.0219
  169SAPE  C21219022   1.403   0.088   4.049  0.3135  0.5115  0.4767
  169SAPE  H12R19023   1.390   0.064   4.156  2.0551 -1.5092  0.3011
  169SAPE  C21319024   1.546   0.090   3.994 -0.6996  0.2143  0.0202
  169SAPE  H13R19025   1.553   0.140   3.895  1.1619 -0.3864 -0.1910
  169SAPE  H13S19026   1.569  -0.019   3.990  0.0263  0.3693 -0.1539
  169SAPE  C21419027   1.651   0.155   4.086  0.3975 -0.5295  1.1163
  169SAPE  H14R19028   1.616   0.243   4.142  1.8573  0.4618  0.5477
  169SAPE  C21519029   1.787   0.139   4.099  0.5868 -0.0674  0.3225
  169SAPE  H15R19030   1.836   0.195   4.180  3.1773 -1.1108 -0.4309
  169SAPE  C21619031   1.862   0.048   4.011 -0.3059  0.0400  0.0468
  169SAPE  H16R19032   1.795   0.010   3.931 -0.1848  1.4607 -0.7494
  169SAPE  H16S19033   1.906  -0.042   4.060 -2.1993 -0.7456  0.4107
  169SAPE  C21719034   1.978   0.104   3.932  0.0278 -0.0659 -0.0628
  169SAPE  H17R19035   2.040   0.020   3.895 -2.2902 -2.5860  1.3837
  169SAPE  H17S19036   2.045   0.161   4.001  1.7695 -0.3869 -1.4111
  169SAPE  C21819037   1.937   0.193   3.820 -0.0427 -0.3261  0.3978
  169SAPE  H18R19038   1.916   0.291   3.868  1.4730 -0.1387  0.7351
  169SAPE  H18S19039   1.841   0.163   3.773 -0.2434  1.2799 -0.2925
  169SAPE  C21919040   2.047   0.231   3.720  0.2940  0.3926 -0.6835
  169SAPE  H19R19041   2.081   0.141   3.664  0.5793 -0.3867  0.6749
  169SAPE  H19S19042   2.132   0.260   3.786  1.2615 -2.7586 -0.3821
  169SAPE  C22019043   1.995   0.349   3.634 -0.4569  0.7264  0.0507
  169SAPE  H20R19044   1.928   0.310   3.556  0.3117  0.9616 -0.7426
  169SAPE  H20S19045   2.078   0.400   3.581  1.2473  1.4490  3.1482
  169SAPE  H20T19046   1.931   0.419   3.693 -2.3191  1.4431 -2.6083
  169SAPE   C3319047   1.974   0.889   3.588  0.5278  0.6220  0.8359
  169SAPE   H3X19048   2.066   0.916   3.533 -1.1468  1.3078 -1.7693
  169SAPE   H3Y19049   1.937   0.796   3.540  1.3694  0.2898  0.8206
  169SAPE   C3419050   1.993   0.854   3.736 -0.2110  0.2878 -0.1072
  169SAPE   H4X19051   1.915   0.786   3.774  1.1513 -0.6819  1.0741
  169SAPE   H4Y19052   1.997   0.945   3.799 -0.1067 -0.1695  0.5525
  169SAPE   C3519053   2.127   0.787   3.764  0.1643  0.1264 -0.8437
  169SAPE   H5X19054   2.213   0.843   3.721  0.0193  1.6140  0.7180
  169SAPE   H5Y19055   2.139   0.690   3.711 -1.0994 -2.0302  2.5189
  169SAPE   C3619056   2.145   0.779   3.913 -0.1248  0.4769 -0.0505
  169SAPE   H6X19057   2.061   0.715   3.948 -0.5095  0.6392 -0.6517
  169SAPE   H6Y19058   2.128   0.879   3.960 -0.4733  1.2259 -1.6958
  169SAPE   C3719059   2.273   0.720   3.956 -0.4990 -0.0539 -0.2269
  169SAPE   H7X19060   2.352   0.797   3.963  0.7402 -1.3674  0.8080
  169SAPE   H7Y19061   2.299   0.638   3.886  0.6036  2.1625 -2.5970
  169SAPE   C3819062   2.257   0.652   4.096 -0.2752 -0.1601 -0.7136
  169SAPE   H8X19063   2.337   0.576   4.105 -0.3444 -0.1157  0.3183
  169SAPE   H8Y19064   2.161   0.596   4.089  0.6739 -1.8624 -0.6802
  169SAPE   C3919065   2.251   0.749   4.212 -0.4134  0.0819  0.3097
  169SAPE   H9X19066   2.166   0.817   4.187 -2.1764 -2.1271 -0.0887
  169SAPE   H9Y19067   2.348   0.801   4.223  1.2777 -2.3984 -1.5237
  169SAPE  C31019068   2.231   0.666   4.344  0.2646  0.1414  0.4181
  169SAPE  H10X19069   2.323   0.608   4.366 -0.7220 -2.2606 -1.2625
  169SAPE  H10Y19070   2.148   0.597   4.319  1.3957 -0.9740 -0.3596
  169SAPE  C31119071   2.200   0.751   4.462  0.1769  0.2924  0.0915
  169SAPE  H11X19072   2.114   0.815   4.433  1.0280  1.0656 -0.7762
  169SAPE  H11Y19073   2.283   0.824   4.466  1.5118 -1.0936 -0.9634
  169SAPE  C31219074   2.178   0.685   4.595 -0.0903  0.3178 -0.6141
  169SAPE  H12X19075   2.132   0.764   4.658  1.2108  1.1136 -0.6348
  169SAPE  H12Y19076   2.279   0.669   4.637 -0.1016  2.1461  0.1855
  169SAPE  C31319077   2.091   0.566   4.601 -0.1828 -0.2593  0.3067
  169SAPE  H13X19078   2.148   0.480   4.559  0.0179 -1.1334  2.2647
  169SAPE  H13Y19079   2.002   0.590   4.539 -0.5261  1.3255  1.3500
  169SAPE  C31419080   2.053   0.520   4.742  0.2826  0.8735  0.2312
  169SAPE  H14X19081   2.018   0.611   4.795 -1.1820  0.2385  0.3802
  169SAPE  H14Y19082   2.148   0.481   4.785  0.9977  0.9571 -1.2308
  169SAPE  C31519083   1.952   0.411   4.748 -0.2960  0.5803  0.3519
  169SAPE  H15X19084   1.993   0.326   4.689  0.9107  0.3641  1.4402
  169SAPE  H15Y19085   1.862   0.455   4.701  0.1447  1.5583  0.3877
  169SAPE  C31619086   1.918   0.369   4.892 -0.1212 -0.3452 -0.6479
  169SAPE  H16X19087   1.832   0.298   4.895  0.3974 -0.9472  2.1416
  169SAPE  H16Y19088   1.881   0.459   4.945 -0.8676 -0.3498 -1.1385
  169SAPE  C31719089   2.037   0.302   4.966  0.0055  0.5824  0.2840
  169SAPE  H17X19090   2.118   0.377   4.982  1.8635 -1.2255 -0.2977
  169SAPE  H17Y19091   2.088   0.227   4.903  0.2714 -0.2783  1.4902
  169SAPE  C31819092   1.992   0.249   5.101  0.6611  0.2232  0.0211
  169SAPE  H18X19093   2.071   0.188   5.149  0.0923 -1.5636 -1.2057
  169SAPE  H18Y19094   1.902   0.186   5.082  0.7962  0.6801 -2.4007
  169SAPE  H18Z19095   1.963   0.323   5.179  0.6991  0.8159 -0.5178
  170SAPE     N19096   1.430   2.638   2.852  0.4351 -0.0698 -0.0347
  170SAPE   HN119097   1.404   2.692   2.937 -0.3723 -2.7262  1.5193
  170SAPE   HN219098   1.433   2.703   2.770 -2.3409 -1.2369 -1.1958
  170SAPE   HN319099   1.355   2.567   2.838 -1.4295  1.8151 -0.2087
  170SAPE   C1219100   1.566   2.571   2.855 -0.2378 -0.2901  0.2403
  170SAPE  H12A19101   1.633   2.658   2.841  0.2912 -0.8368 -0.6849
  170SAPE  H12B19102   1.580   2.497   2.773 -0.5612  0.3818 -0.4403
  170SAPE   C1119103   1.609   2.521   3.003 -0.4524  0.4784  0.3296
  170SAPE  H11A19104   1.614   2.607   3.073 -0.5180  1.5191 -0.9169
  170SAPE  H11B19105   1.713   2.482   3.003 -0.7404 -0.3473  1.3298
  170SAPE     P19106   1.475   2.288   2.985 -0.3733 -0.4202  0.2403
  170SAPE   O1319107   1.358   2.324   2.893 -0.5569 -0.0924 -0.0093
  170SAPE   O1419108   1.592   2.230   2.918 -0.5866  0.4242 -0.4167
  170SAPE   O1219109   1.526   2.422   3.056  0.2557  0.5591 -0.4572
  170SAPE   O1119110   1.424   2.189   3.097 -0.1948  0.0923 -0.0743
  170SAPE    C119111   1.469   2.226   3.229 -0.0268 -0.3328 -0.2224
  170SAPE    HA19112   1.575   2.259   3.236 -0.2261  0.8677 -2.0706
  170SAPE    HB19113   1.400   2.311   3.248 -1.9991 -0.3851 -5.5467
  170SAPE    C219114   1.428   2.120   3.337  0.1988  0.7514 -0.0403
  170SAPE    HS19115   1.331   2.076   3.308  1.6116 -2.6830 -0.0340
  170SAPE   O2119116   1.428   2.184   3.465 -1.0523 -0.2551 -0.3233
  170SAPE   C2119117   1.318   2.155   3.535 -0.1841 -0.0723 -0.6925
  170SAPE   O2219118   1.239   2.070   3.502  0.0838 -0.3962  0.5617
  170SAPE   C2219119   1.326   2.233   3.665 -0.1041  0.0636 -0.3849
  170SAPE   H2R19120   1.429   2.241   3.706  0.7792 -0.9223 -2.2538
  170SAPE   H2S19121   1.289   2.334   3.639 -1.1578 -0.6077 -1.6068
  170SAPE    C319122   1.526   1.996   3.330  0.6941 -0.5657 -0.7116
  170SAPE    HX19123   1.627   2.033   3.357  0.5784  0.0921 -1.1712
  170SAPE    HY19124   1.531   1.973   3.221  3.0656 -2.8424 -0.2246
  170SAPE   O3119125   1.480   1.880   3.400  0.2559  0.4005  0.6177
  170SAPE   C3119126   1.515   1.857   3.528 -0.3564  0.2641  0.6652
  170SAPE   O3219127   1.589   1.924   3.593  0.5471  0.6542  0.0948
  170SAPE   C3219128   1.427   1.744   3.572 -0.1749 -0.6700 -0.2592
  170SAPE   H2X19129   1.432   1.662   3.497  0.1698  0.7667 -1.8548
  170SAPE   H2Y19130   1.324   1.784   3.570 -0.0465 -0.3067  0.2929
  170SAPE   C2319131   1.240   2.175   3.775  0.3073 -0.5642 -0.1914
  170SAPE   H3R19132   1.289   2.082   3.811  0.1822 -0.5058  0.1335
  170SAPE   H3S19133   1.144   2.154   3.723  1.3389 -2.0758 -1.6040
  170SAPE   C2419134   1.204   2.283   3.886  0.4773 -0.0115  0.5981
  170SAPE   H4R19135   1.113   2.248   3.939 -1.1209 -0.3636 -2.1915
  170SAPE   H4S19136   1.179   2.372   3.824 -2.3105 -1.0374  0.1201
  170SAPE   C2519137   1.319   2.301   3.979 -0.0970  0.1869  0.5750
  170SAPE   H5R19138   1.387   2.380   3.944 -1.9046  0.7660 -1.8349
  170SAPE   C2619139   1.347   2.219   4.082 -0.4651 -0.2086 -0.0798
  170SAPE   H6R19140   1.433   2.240   4.147 -0.3796 -1.3713  0.2120
  170SAPE   C2719141   1.267   2.098   4.134  0.8901  0.4204  0.0883
  170SAPE   H7R19142   1.199   2.066   4.052 -0.8432  0.6186  1.4046
  170SAPE   H7S19143   1.204   2.129   4.220  2.9340  2.9097  0.8338
  170SAPE   C2819144   1.358   1.982   4.168 -0.1919  0.2939  0.0707
  170SAPE   H8R19145   1.377   1.915   4.082  2.6744  1.7715 -0.5976
  170SAPE   C2919146   1.423   1.957   4.283  0.6104  0.4508 -0.4583
  170SAPE   H9R19147   1.491   1.871   4.274  1.0060  0.6210  0.7152
  170SAPE  C21019148   1.416   2.040   4.403  0.3420  0.5587 -0.9169
  170SAPE  H10R19149   1.314   2.082   4.417  0.5805  0.8605  0.0426
  170SAPE  H10S19150   1.487   2.123   4.383  0.0251  1.2702  0.7273
  170SAPE  C21119151   1.469   1.976   4.531  0.2879 -0.6429  0.0320
  170SAPE  H11R19152   1.575   1.989   4.553 -0.2854  2.3187  1.5046
  170SAPE  C21219153   1.404   1.888   4.607 -0.1743 -0.4787 -0.6263
  170SAPE  H12R19154   1.450   1.851   4.700 -1.5754  0.9086  0.6615
  170SAPE  C21319155   1.256   1.867   4.605  0.4306  0.1721 -0.3284
  170SAPE  H13R19156   1.243   1.785   4.679 -1.3258 -0.8466 -1.6905
  170SAPE  H13S19157   1.219   1.818   4.512 -3.1576  0.8795  0.5865
  170SAPE  C21419158   1.166   1.980   4.637  0.1316 -0.3127  0.8758
  170SAPE  H14R19159   1.205   2.083   4.633  0.4669 -0.4441 -3.1780
  170SAPE  C21519160   1.034   1.969   4.657 -0.4906  0.3694 -0.4613
  170SAPE  H15R19161   0.984   2.065   4.676  2.5142  2.0246 -0.1587
  170SAPE  C21619162   0.954   1.838   4.654 -0.4093  0.6826 -0.4480
  170SAPE  H16R19163   0.846   1.858   4.635 -1.0195 -1.0583  0.8994
  170SAPE  H16S19164   0.949   1.800   4.759  2.0298  0.6551 -0.2868
  170SAPE  C21719165   0.984   1.707   4.572 -0.1609 -0.1349 -0.5346
  170SAPE  H17R19166   1.075   1.652   4.604  0.2731  1.8318  1.9659
  170SAPE  H17S19167   0.983   1.754   4.472 -2.1192  2.0974  0.4286
  170SAPE  C21819168   0.864   1.605   4.553  0.3301  0.0562 -0.5274
  170SAPE  H18R19169   0.781   1.673   4.526  1.5913  2.6052  1.5698
  170SAPE  H18S19170   0.830   1.569   4.653 -0.9327  3.3482  0.3453
  170SAPE  C21919171   0.900   1.499   4.447  0.4025  0.5156  0.3130
  170SAPE  H19R19172   0.826   1.416   4.455  1.8398 -0.7041  1.3728
  170SAPE  H19S19173   0.997   1.453   4.473  0.3420  1.9958  3.7119
  170SAPE  C22019174   0.908   1.547   4.295 -0.1503  0.0144  0.0352
  170SAPE  H20R19175   0.864   1.647   4.271  3.7860  1.9267 -0.1153
  170SAPE  H20S19176   0.856   1.468   4.236  1.0229 -1.2529  0.6620
  170SAPE  H20T19177   1.015   1.550   4.264  0.0490 -0.7035  0.6257
  170SAPE   C3319178   1.461   1.698   3.717  0.1846  0.1437  0.0093
  170SAPE   H3X19179   1.498   1.783   3.778 -0.6661 -0.0474  0.7996
  170SAPE   H3Y19180   1.542   1.623   3.724  0.1379  0.2040  1.3477
  170SAPE   C3419181   1.340   1.631   3.779 -1.4152  0.0311 -0.2829
  170SAPE   H4X19182   1.301   1.553   3.710  0.3481 -0.4979 -0.7138
  170SAPE   H4Y19183   1.255   1.697   3.808 -0.4015 -0.0949  3.5334
  170SAPE   C3519184   1.381   1.559   3.906  0.4060  0.2895  0.1530
  170SAPE   H5X19185   1.426   1.462   3.875 -0.4976 -0.3472  0.7657
  170SAPE   H5Y19186   1.282   1.530   3.948  0.8730  0.9679  1.8323
  170SAPE   C3619187   1.468   1.637   4.000 -0.0176  0.3929 -0.1621
  170SAPE   H6X19188   1.417   1.736   4.011  0.8643  1.0355 -1.5332
  170SAPE   H6Y19189   1.564   1.653   3.946 -0.3696 -0.3000 -1.0059
  170SAPE   C3719190   1.505   1.569   4.132  0.2167 -0.2033  0.1919
  170SAPE   H7X19191   1.585   1.628   4.182  0.0403  1.7606 -1.6601
  170SAPE   H7Y19192   1.542   1.466   4.115  0.9041 -0.1642  1.3493
  170SAPE   C3819193   1.379   1.546   4.216  0.9017  0.3579  0.5443
  170SAPE   H8X19194   1.296   1.530   4.144  0.0683 -0.0976  1.5826
  170SAPE   H8Y19195   1.349   1.639   4.268 -0.9446 -0.3173  0.7712
  170SAPE   C3919196   1.386   1.422   4.307  0.9039 -0.2393 -0.3229
  170SAPE   H9X19197   1.385   1.330   4.246 -1.1939  0.7739 -1.9750
  170SAPE   H9Y19198   1.294   1.407   4.367  1.1815  1.0774  0.4709
  170SAPE  C31019199   1.511   1.421   4.400 -0.2008 -0.0949  0.2387
  170SAPE  H10X19200   1.515   1.502   4.476  1.4058  0.7182 -0.6575
  170SAPE  H10Y19201   1.599   1.450   4.338 -0.5288  0.9998  0.2742
  170SAPE  C31119202   1.529   1.282   4.466 -0.4258 -0.4035 -0.1360
  170SAPE  H11X19203   1.627   1.296   4.515 -0.4557  1.0692 -0.4597
  170SAPE  H11Y19204   1.536   1.199   4.392 -1.0474 -0.6677  0.0876
  170SAPE  C31219205   1.421   1.265   4.578 -0.8646 -0.5434  0.0566
  170SAPE  H12X19206   1.320   1.250   4.534 -2.0659  0.6390  2.2434
  170SAPE  H12Y19207   1.415   1.361   4.634 -4.0003 -0.0286 -0.9809
  170SAPE  C31319208   1.460   1.139   4.671  0.3400 -0.6656  1.6421
  170SAPE  H13X19209   1.473   1.061   4.592  1.9370  0.0659  1.1399
  170SAPE  H13Y19210   1.377   1.122   4.743  1.9664 -0.4834  3.6168
  170SAPE  C31419211   1.584   1.156   4.753 -0.6270 -0.3680  0.1309
  170SAPE  H14X19212   1.660   1.206   4.689 -1.3091  1.7076  0.8734
  170SAPE  H14Y19213   1.622   1.057   4.787 -0.4435 -1.1318 -2.1366
  170SAPE  C31519214   1.567   1.246   4.878 -0.6451  0.3222  0.2096
  170SAPE  H15X19215   1.482   1.213   4.941 -0.2264  2.3280  1.9483
  170SAPE  H15Y19216   1.545   1.351   4.848  0.2689  0.5948  0.4473
  170SAPE  C31619217   1.691   1.253   4.976  0.5515  0.8945  0.5886
  170SAPE  H16X19218   1.772   1.306   4.921  0.2029  1.6742  0.8168
  170SAPE  H16Y19219   1.727   1.147   4.979 -0.0615  0.5706 -1.5672
  170SAPE  C31719220   1.658   1.324   5.107  0.5667 -0.1106  0.9931
  170SAPE  H17X19221   1.597   1.256   5.170  0.4690  0.2527  1.2867
  170SAPE  H17Y19222   1.599   1.413   5.076  0.8284 -0.6902 -1.4259
  170SAPE  C31819223   1.786   1.372   5.173  0.3186  0.2597  0.2069
  170SAPE  H18X19224   1.855   1.289   5.199 -1.3020 -0.9720  0.7425
  170SAPE  H18Y19225   1.750   1.420   5.267 -0.5862  0.3324 -0.1665
  170SAPE  H18Z19226   1.834   1.449   5.109  0.2736 -0.8319 -1.1856
  171SAPE     N19227   3.166   2.381   2.715 -0.0566  0.4096  0.0026
  171SAPE   HN119228   3.231   2.358   2.637 -0.9198  1.6887 -1.1317
  171SAPE   HN219229   3.082   2.405   2.660 -1.8077 -0.2901  2.2223
  171SAPE   HN319230   3.199   2.471   2.758  0.9912 -0.4510  1.0912
  171SAPE   C1219231   3.125   2.286   2.820  0.0507 -0.2016 -1.0594
  171SAPE  H12A19232   3.215   2.260   2.879  0.5788  0.0975 -1.7143
  171SAPE  H12B19233   3.082   2.201   2.763 -2.5221  1.1174 -1.2666
  171SAPE   C1119234   3.027   2.348   2.923 -0.1458 -0.0606 -0.8211
  171SAPE  H11A19235   3.079   2.412   2.997  0.0786 -1.4500  0.2410
  171SAPE  H11B19236   2.981   2.260   2.972  1.0004 -1.0339 -1.4387
  171SAPE     P19237   2.818   2.506   2.931 -0.0084 -0.1080  0.6514
  171SAPE   O1319238   2.871   2.640   2.950  0.1496 -0.3123 -0.3414
  171SAPE   O1419239   2.696   2.495   2.847 -0.0657  0.4323  0.4524
  171SAPE   O1219240   2.925   2.419   2.856  0.8075 -0.3638 -0.0054
  171SAPE   O1119241   2.803   2.428   3.065 -0.3633 -0.7815  0.1549
  171SAPE    C119242   2.680   2.375   3.111  0.4609  0.3062 -0.1316
  171SAPE    HA19243   2.633   2.313   3.031 -2.4227 -0.2343  1.8199
  171SAPE    HB19244   2.708   2.300   3.188 -0.3388 -0.3381 -0.4468
  171SAPE    C219245   2.575   2.475   3.156  0.1458 -0.4059 -0.9885
  171SAPE    HS19246   2.544   2.540   3.071 -1.2702  1.3594  0.7670
  171SAPE   O2119247   2.629   2.551   3.274 -0.5472 -0.5637  0.4123
  171SAPE   C2119248   2.583   2.673   3.277 -0.6918 -0.0918 -0.3433
  171SAPE   O2219249   2.496   2.724   3.205  0.3028 -0.0030  0.0241
  171SAPE   C2219250   2.664   2.755   3.382  0.3467  0.0783 -0.0506
  171SAPE   H2R19251   2.643   2.712   3.482  1.0292  0.9260  0.4754
  171SAPE   H2S19252   2.770   2.747   3.351  0.0567 -1.2762 -0.7578
  171SAPE    C319253   2.437   2.405   3.190  0.9431  0.1660 -0.3162
  171SAPE    HX19254   2.415   2.322   3.119  0.0164 -0.0961  0.2526
  171SAPE    HY19255   2.360   2.482   3.168 -0.2833 -0.7614  0.5262
  171SAPE   O3119256   2.424   2.356   3.318 -0.1331  0.6281 -0.3530
  171SAPE   C3119257   2.386   2.440   3.417  0.2280 -0.7335 -0.0435
  171SAPE   O3219258   2.320   2.539   3.406  0.2826 -0.2319 -0.2294
  171SAPE   C3219259   2.443   2.391   3.546  0.1975 -0.3077 -0.7498
  171SAPE   H2X19260   2.551   2.417   3.553 -0.3931  3.1545 -2.5707
  171SAPE   H2Y19261   2.446   2.280   3.547  2.3194 -0.4139 -3.8693
  171SAPE   C2319262   2.613   2.899   3.389  0.3979 -0.5260  0.1250
  171SAPE   H3R19263   2.504   2.913   3.404  0.2173  0.0153 -1.5094
  171SAPE   H3S19264   2.646   2.945   3.294  2.4552 -1.9413  0.0938
  171SAPE   C2419265   2.680   2.988   3.500 -0.9116  0.5553  0.1634
  171SAPE   H4R19266   2.790   2.983   3.481 -0.6663 -1.6570  1.8482
  171SAPE   H4S19267   2.664   2.934   3.596  0.2417  2.1112  1.2840
  171SAPE   C2519268   2.627   3.130   3.507  0.0833 -0.4340 -0.1586
  171SAPE   H5R19269   2.642   3.197   3.422  0.7302  0.3991  0.5936
  171SAPE   C2619270   2.577   3.189   3.616  0.1357 -0.3209  0.8007
  171SAPE   H6R19271   2.547   3.294   3.615 -2.6411 -0.9972 -2.2306
  171SAPE   C2719272   2.554   3.116   3.745 -0.6257  0.4956  0.1743
  171SAPE   H7R19273   2.650   3.105   3.799 -0.9951 -0.1749  0.7107
  171SAPE   H7S19274   2.519   3.013   3.725 -0.7859  0.9880 -2.4311
  171SAPE   C2819275   2.445   3.175   3.827 -0.5323 -0.2061  0.9161
  171SAPE   H8R19276   2.342   3.150   3.795 -0.5253  1.5742 -0.7038
  171SAPE   C2919277   2.457   3.262   3.923 -0.1265 -0.6409  0.4907
  171SAPE   H9R19278   2.362   3.284   3.974  0.9247  0.7863  1.9425
  171SAPE  C21019279   2.584   3.315   3.981 -0.6099 -0.5185 -0.2052
  171SAPE  H10R19280   2.672   3.259   3.942  0.7836  0.6273  1.1989
  171SAPE  H10S19281   2.582   3.270   4.083 -0.3725 -1.2515 -0.5097
  171SAPE  C21119282   2.620   3.461   3.979  0.1197  0.2556  0.1033
  171SAPE  H11R19283   2.648   3.506   3.882 -2.1955 -0.8531 -1.1774
  171SAPE  C21219284   2.639   3.535   4.094 -0.1889  0.5916  0.0697
  171SAPE  H12R19285   2.645   3.643   4.072 -0.9627  0.9267  1.4017
  171SAPE  C21319286   2.613   3.488   4.228  0.0704 -0.1155 -0.5372
  171SAPE  H13R19287   2.608   3.378   4.239  0.7748 -0.2029 -0.9834
  171SAPE  H13S19288   2.517   3.527   4.267  1.1717  0.2708  2.0467
  171SAPE  C21419289   2.705   3.539   4.338 -0.5057 -0.0353 -0.3658
  171SAPE  H14R19290   2.673   3.635   4.382 -3.6744 -1.0590 -0.1399
  171SAPE  C21519291   2.819   3.480   4.381  0.2992  0.0350  0.4978
  171SAPE  H15R19292   2.865   3.536   4.464 -2.0141  2.4397  0.3049
  171SAPE  C21619293   2.869   3.350   4.333  0.8739 -1.0241  0.2913
  171SAPE  H16R19294   2.872   3.336   4.223 -1.6200 -0.3538  0.0821
  171SAPE  H16S19295   2.818   3.280   4.403  0.8636  1.1348  2.5800
  171SAPE  C21719296   3.016   3.327   4.371  0.1949 -0.0311  0.1564
  171SAPE  H17R19297   3.049   3.223   4.351  0.2996  0.1383 -0.6018
  171SAPE  H17S19298   3.021   3.339   4.481 -1.9591  2.0152  0.1202
  171SAPE  C21819299   3.101   3.428   4.292  0.2477 -0.1375  0.3657
  171SAPE  H18R19300   3.074   3.534   4.307 -4.7207 -1.1633  0.6119
  171SAPE  H18S19301   3.096   3.411   4.182  0.7374  1.1919  0.1294
  171SAPE  C21919302   3.254   3.413   4.322 -0.1914 -1.3249 -0.3011
  171SAPE  H19R19303   3.278   3.441   4.426 -0.1410 -0.8701 -0.4319
  171SAPE  H19S19304   3.314   3.486   4.263  0.1644 -2.7485 -1.7757
  171SAPE  C22019305   3.317   3.272   4.303  0.0515 -0.7442  0.7048
  171SAPE  H20R19306   3.282   3.228   4.207  1.6610  0.4860 -0.5068
  171SAPE  H20S19307   3.274   3.209   4.384  0.3412 -1.8927 -0.0062
  171SAPE  H20T19308   3.427   3.283   4.310  0.0943 -1.2179  0.8049
  171SAPE   C3319309   2.384   2.425   3.684 -0.2360  0.2515  0.0422
  171SAPE   H3X19310   2.427   2.362   3.765 -0.0329  2.9285  2.1568
  171SAPE   H3Y19311   2.274   2.413   3.673 -0.4956 -0.2053  2.5413
  171SAPE   C3419312   2.427   2.564   3.725 -0.2964 -0.3038  0.4237
  171SAPE   H4X19313   2.383   2.646   3.665  2.9219  0.8777 -0.5028
  171SAPE   H4Y19314   2.533   2.579   3.695 -1.4361  0.5977 -3.7583
  171SAPE   C3519315   2.427   2.612   3.871 -0.5909 -0.9689 -0.2094
  171SAPE   H5X19316   2.471   2.525   3.925 -1.7341 -1.7483 -0.4817
  171SAPE   H5Y19317   2.326   2.615   3.918 -1.2240 -1.2387 -1.5244
  171SAPE   C3619318   2.485   2.742   3.889  0.0653 -0.4471 -0.3830
  171SAPE   H6X19319   2.421   2.831   3.869 -1.7617 -1.4854  0.6076
  171SAPE   H6Y19320   2.573   2.749   3.822  1.3567 -0.6463  1.2192
  171SAPE   C3719321   2.515   2.749   4.037 -0.0500 -0.4822  0.7141
  171SAPE   H7X19322   2.597   2.677   4.058 -0.3542 -1.4540 -1.1945
  171SAPE   H7Y19323   2.424   2.718   4.092 -1.1106 -1.9839 -1.7157
  171SAPE   C3819324   2.571   2.888   4.091 -0.0285 -0.3069  0.0482
  171SAPE   H8X19325   2.525   2.980   4.049 -0.6767 -0.7634 -0.2573
  171SAPE   H8Y19326   2.674   2.889   4.048 -0.5701 -0.2683 -1.3076
  171SAPE   C3919327   2.600   2.892   4.243 -0.5491  1.3990  0.7444
  171SAPE   H9X19328   2.710   2.877   4.251 -0.7854 -0.4445  0.7650
  171SAPE   H9Y19329   2.538   2.814   4.291 -0.1796  1.5693  1.5199
  171SAPE  C31019330   2.570   3.028   4.307  0.3522 -0.1256  0.8945
  171SAPE  H10X19331   2.466   3.060   4.288  0.2012 -1.0103  0.1386
  171SAPE  H10Y19332   2.645   3.097   4.264  0.7714  0.1300  1.9898
  171SAPE  C31119333   2.580   3.030   4.459 -0.1266  0.3238 -0.1172
  171SAPE  H11X19334   2.685   3.005   4.483 -0.1983  2.3598  2.8849
  171SAPE  H11Y19335   2.513   2.959   4.512  0.2374  1.6256  2.2250
  171SAPE  C31219336   2.559   3.177   4.494  0.4500 -0.0552  0.6263
  171SAPE  H12X19337   2.452   3.205   4.488  0.6103  0.4463 -0.2618
  171SAPE  H12Y19338   2.617   3.250   4.432 -0.1064  1.5422  1.9029
  171SAPE  C31319339   2.597   3.202   4.635 -0.2880  0.4158 -0.5021
  171SAPE  H13X19340   2.705   3.177   4.642 -0.9676 -2.7443  0.3364
  171SAPE  H13Y19341   2.549   3.123   4.697  2.9587 -0.7222  0.7496
  171SAPE  C31419342   2.570   3.333   4.705  0.3375 -0.2149  0.0596
  171SAPE  H14X19343   2.636   3.404   4.651  0.5202 -0.6732 -0.3329
  171SAPE  H14Y19344   2.595   3.327   4.813 -0.1470 -0.6686  0.1485
  171SAPE  C31519345   2.432   3.393   4.693  0.6142 -0.3803  0.4841
  171SAPE  H15X19346   2.371   3.327   4.759 -1.6740  0.8393 -0.2814
  171SAPE  H15Y19347   2.395   3.366   4.592  1.1539 -1.5734  0.5880
  171SAPE  C31619348   2.418   3.543   4.723 -0.1273 -0.5453 -0.0275
  171SAPE  H16X19349   2.351   3.589   4.648 -2.0011  0.1104  1.9434
  171SAPE  H16Y19350   2.523   3.571   4.703  0.0436  0.0464  1.5418
  171SAPE  C31719351   2.364   3.564   4.866  0.1932  0.1155 -0.1625
  171SAPE  H17X19352   2.254   3.546   4.864  0.1693  0.2852 -1.8190
  171SAPE  H17Y19353   2.374   3.671   4.896 -0.2515 -0.5959  2.8121
  171SAPE  C31819354   2.437   3.483   4.974  0.4092 -0.2213 -0.3122
  171SAPE  H18X19355   2.395   3.381   4.966 -3.2807  0.9938  1.4935
  171SAPE  H18Y19356   2.420   3.514   5.079  1.1856  3.8580 -1.2260
  171SAPE  H18Z19357   2.548   3.493   4.965  0.5758  0.5153  1.9055
  172SAPE     N19358   1.570   4.865   2.808 -0.8584  0.0786  0.8060
  172SAPE   HN119359   1.491   4.850   2.742 -1.0043  0.2626  0.9364
  172SAPE   HN219360   1.575   4.784   2.873 -1.8750 -1.2029 -0.6405
  172SAPE   HN319361   1.548   4.955   2.855 -1.0249  1.3640 -1.5782
  172SAPE   C1219362   1.691   4.883   2.722  0.0461  0.3489  0.0849
  172SAPE  H12A19363   1.783   4.902   2.781 -1.1123  3.1326  1.1658
  172SAPE  H12B19364   1.684   4.976   2.662  0.1351 -0.3112 -0.9767
  172SAPE   C1119365   1.722   4.761   2.639  0.0175 -0.5897 -0.7184
  172SAPE  H11A19366   1.821   4.769   2.588  0.9582 -0.1385  1.0788
  172SAPE  H11B19367   1.647   4.755   2.557  0.3236 -2.1051 -0.9026
  172SAPE     P19368   1.845   4.588   2.796 -0.3339  0.3263  0.1782
  172SAPE   O1319369   1.805   4.521   2.918  0.6918 -0.5103 -0.2770
  172SAPE   O1419370   1.920   4.500   2.705 -0.6970 -0.3596  0.3770
  172SAPE   O1219371   1.720   4.636   2.712  0.4395 -0.0452  0.0404
  172SAPE   O1119372   1.927   4.718   2.832  0.2949 -0.2663 -0.5343
  172SAPE    C119373   2.046   4.743   2.771 -0.0835 -0.3997  0.4977
  172SAPE    HA19374   2.112   4.653   2.775 -1.3574 -1.3249  2.6107
  172SAPE    HB19375   2.047   4.771   2.664  4.9965  2.5761  0.9971
  172SAPE    C219376   2.122   4.863   2.844  0.6377 -0.5742  0.0625
  172SAPE    HS19377   2.232   4.849   2.835  0.6194  0.2203 -2.1537
  172SAPE   O2119378   2.091   4.872   2.983  0.2228  0.4979  0.1746
  172SAPE   C2119379   2.126   4.775   3.063 -0.3552  0.0381  0.0625
  172SAPE   O2219380   2.197   4.679   3.037  0.4531  0.4291  0.2553
  172SAPE   C2219381   2.059   4.796   3.194  0.6501 -0.8889 -0.5765
  172SAPE   H2R19382   2.033   4.903   3.202 -1.1808 -1.2205 -1.5349
  172SAPE   H2S19383   1.956   4.753   3.193 -1.1657  2.9578  0.5607
  172SAPE    C319384   2.101   5.003   2.776  0.4225  0.1745  0.1621
  172SAPE    HX19385   1.991   4.998   2.764  0.4216  0.5743  0.0084
  172SAPE    HY19386   2.151   5.008   2.677  3.1096 -0.3357  1.4048
  172SAPE   O3119387   2.138   5.110   2.867 -0.2276  0.2024  0.0275
  172SAPE   C3119388   2.268   5.138   2.855  0.1533  0.3886  0.1659
  172SAPE   O3219389   2.345   5.077   2.786 -0.5011  1.1708 -0.6755
  172SAPE   C3219390   2.289   5.255   2.948 -0.3269 -0.2805 -0.1740
  172SAPE   H2X19391   2.195   5.268   3.005 -0.9882  0.7302 -1.4470
  172SAPE   H2Y19392   2.308   5.338   2.876  0.2283 -0.1033  0.1673
  172SAPE   C2319393   2.144   4.744   3.314  0.4022  0.2691  0.5071
  172SAPE   H3R19394   2.236   4.806   3.301  0.1651  0.1240 -2.5536
  172SAPE   H3S19395   2.179   4.639   3.305 -1.8267 -0.3418 -2.1148
  172SAPE   C2419396   2.082   4.776   3.447  0.3809  0.3141  0.5044
  172SAPE   H4R19397   2.061   4.885   3.447 -1.4590 -0.0052 -0.2099
  172SAPE   H4S19398   2.158   4.758   3.526  2.2530 -1.4531 -1.5644
  172SAPE   C2519399   1.963   4.686   3.460  0.4822 -0.2914 -0.6210
  172SAPE   H5R19400   1.908   4.649   3.372  0.9951  1.9819 -1.9768
  172SAPE   C2619401   1.911   4.653   3.577 -0.2547 -0.0940 -0.0863
  172SAPE   H6R19402   1.830   4.580   3.574  0.4982 -1.0918  1.8371
  172SAPE   C2719403   1.967   4.690   3.718 -0.3079 -0.2810  0.0291
  172SAPE   H7R19404   2.033   4.779   3.708  1.5755 -1.4440  1.4441
  172SAPE   H7S19405   2.018   4.602   3.764 -1.7852 -2.1988 -1.7836
  172SAPE   C2819406   1.851   4.721   3.811 -0.4745 -0.2116  0.6277
  172SAPE   H8R19407   1.754   4.695   3.766 -0.3885  0.3292  0.1175
  172SAPE   C2919408   1.858   4.766   3.935 -0.2655 -0.0837 -1.0258
  172SAPE   H9R19409   1.766   4.783   3.994 -0.5785  0.6115 -1.7009
  172SAPE  C21019410   1.989   4.806   3.995  0.3262  0.2675 -0.2127
  172SAPE  H10R19411   1.972   4.903   4.048 -1.4880 -0.4754  0.6134
  172SAPE  H10S19412   2.065   4.825   3.915  1.1165 -3.7583 -0.6065
  172SAPE  C21119413   2.044   4.709   4.088 -0.0370  0.0694  0.0708
  172SAPE  H11R19414   2.095   4.625   4.040 -1.9059 -0.0765 -1.7925
  172SAPE  C21219415   2.047   4.707   4.228  0.3827 -0.3689  1.1299
  172SAPE  H12R19416   2.082   4.615   4.277  0.2496 -2.7448 -2.8739
  172SAPE  C21319417   1.981   4.797   4.334  0.4798  0.4817  0.4365
  172SAPE  H13R19418   2.006   4.902   4.311  2.9268 -0.0874  0.1625
  172SAPE  H13S19419   2.028   4.768   4.431  1.1484 -0.2506 -0.0842
  172SAPE  C21419420   1.831   4.794   4.345 -0.4425  0.7643 -0.1997
  172SAPE  H14R19421   1.781   4.809   4.248  0.5916 -0.0616 -0.8918
  172SAPE  C21519422   1.750   4.789   4.454  0.4993  0.3921  0.8930
  172SAPE  H15R19423   1.643   4.767   4.442  0.5485 -1.7517  3.4418
  172SAPE  C21619424   1.795   4.781   4.594  0.2073  0.2509  0.1848
  172SAPE  H16R19425   1.904   4.793   4.610  0.3881 -2.5117  1.5658
  172SAPE  H16S19426   1.782   4.672   4.607  0.2145 -0.0741 -2.1494
  172SAPE  C21719427   1.706   4.842   4.705  0.2129 -0.0171  0.3856
  172SAPE  H17R19428   1.735   4.803   4.804 -1.5971 -2.2341  0.1272
  172SAPE  H17S19429   1.601   4.815   4.678  0.2731 -0.8499  0.9675
  172SAPE  C21819430   1.713   5.000   4.704 -0.5790  0.3749  0.2056
  172SAPE  H18R19431   1.648   5.043   4.783  0.2796  1.9344  0.0981
  172SAPE  H18S19432   1.664   5.047   4.616  1.0896 -0.5549 -1.2774
  172SAPE  C21919433   1.849   5.063   4.754 -0.4117 -0.0753 -0.0925
  172SAPE  H19R19434   1.924   5.027   4.681  0.6035  0.7697  0.5061
  172SAPE  H19S19435   1.866   5.028   4.858 -2.8387 -0.7007  0.1724
  172SAPE  C22019436   1.844   5.216   4.730 -0.1151  0.3724 -0.3486
  172SAPE  H20R19437   1.749   5.256   4.772 -0.7858  1.5153 -2.7709
  172SAPE  H20S19438   1.839   5.244   4.622  2.1047 -0.1605 -0.6370
  172SAPE  H20T19439   1.935   5.262   4.774 -0.3298  2.2500 -1.7441
  172SAPE   C3319440   2.405   5.235   3.044  0.0746 -0.1486 -0.1549
  172SAPE   H3X19441   2.429   5.334   3.087  4.6747 -0.1640 -2.0882
  172SAPE   H3Y19442   2.499   5.196   2.999 -0.1958 -0.5911 -0.3478
  172SAPE   C3419443   2.366   5.145   3.160 -0.1122 -0.7446 -0.7865
  172SAPE   H4X19444   2.340   5.043   3.124  0.1611 -0.6084 -1.3804
  172SAPE   H4Y19445   2.275   5.193   3.202  0.7319 -0.9053  1.3266
  172SAPE   C3519446   2.453   5.134   3.284  0.2132  0.0486 -0.2446
  172SAPE   H5X19447   2.465   5.231   3.336 -1.1649 -2.0945  4.6036
  172SAPE   H5Y19448   2.556   5.099   3.260  0.2797 -0.5988  0.9264
  172SAPE   C3619449   2.395   5.038   3.392 -0.4434  0.3143  0.3333
  172SAPE   H6X19450   2.399   4.934   3.354 -0.8951 -0.0268  1.1989
  172SAPE   H6Y19451   2.291   5.066   3.419 -0.9718 -0.7339 -0.5377
  172SAPE   C3719452   2.476   5.033   3.522 -0.0606  0.2036 -0.1935
  172SAPE   H7X19453   2.463   5.130   3.573  0.4246  0.7724 -1.1148
  172SAPE   H7Y19454   2.581   4.999   3.513 -0.2550 -0.3696 -0.4116
  172SAPE   C3819455   2.416   4.937   3.628 -0.0939  0.7078 -0.0778
  172SAPE   H8X19456   2.419   4.832   3.593 -1.0249  0.8056 -0.4885
  172SAPE   H8Y19457   2.312   4.967   3.655 -0.8019  1.5240 -3.2768
  172SAPE   C3919458   2.495   4.942   3.760 -0.7537 -0.6052 -0.5332
  172SAPE   H9X19459   2.523   5.049   3.772 -1.9104 -0.5172  2.3003
  172SAPE   H9Y19460   2.589   4.884   3.748  0.7968  1.7084 -0.2688
  172SAPE  C31019461   2.429   4.918   3.893  0.0254  0.6776  0.5358
  172SAPE  H10X19462   2.381   4.819   3.881  0.2200  0.5879  0.4918
  172SAPE  H10Y19463   2.341   4.985   3.904  0.5470  1.2307  1.5106
  172SAPE  C31119464   2.514   4.925   4.017  0.1258  0.4029  0.0041
  172SAPE  H11X19465   2.582   5.013   4.012  1.7684 -0.8709 -1.7941
  172SAPE  H11Y19466   2.585   4.841   4.030 -2.1403 -1.9090 -1.6409
  172SAPE  C31219467   2.432   4.919   4.150  0.2042  0.0356  0.1390
  172SAPE  H12X19468   2.372   4.825   4.144 -1.1655  0.9535 -1.0766
  172SAPE  H12Y19469   2.366   5.006   4.168  0.2523 -0.2553  1.9794
  172SAPE  C31319470   2.524   4.923   4.277 -0.1176  0.1812 -0.1212
  172SAPE  H13X19471   2.600   5.002   4.260  1.1576 -1.2244 -1.2407
  172SAPE  H13Y19472   2.584   4.830   4.281 -1.2219 -0.5711 -0.6207
  172SAPE  C31419473   2.434   4.957   4.398 -0.1779 -0.3490 -0.3020
  172SAPE  H14X19474   2.391   5.060   4.396  0.9833  0.2231  1.7767
  172SAPE  H14Y19475   2.498   4.957   4.488 -0.1722 -0.6135 -0.3056
  172SAPE  C31519476   2.313   4.862   4.426 -0.4711 -0.3537  0.5601
  172SAPE  H15X19477   2.348   4.764   4.386  0.3010 -0.2216  0.9010
  172SAPE  H15Y19478   2.222   4.892   4.369 -1.2980 -0.4767  1.7900
  172SAPE  C31619479   2.290   4.867   4.570 -0.1395 -0.1202 -0.4828
  172SAPE  H16X19480   2.368   4.814   4.629  1.3693  0.0618 -2.2640
  172SAPE  H16Y19481   2.197   4.806   4.578 -2.1830  2.5392 -2.4234
  172SAPE  C31719482   2.260   5.012   4.624 -0.9504 -0.5958 -0.5067
  172SAPE  H17X19483   2.358   5.064   4.629 -1.5656  0.6074 -0.6668
  172SAPE  H17Y19484   2.227   4.998   4.729 -1.3078  0.8536 -0.4073
  172SAPE  C31819485   2.161   5.102   4.543  0.2056 -0.6248  0.7060
  172SAPE  H18X19486   2.207   5.116   4.443  1.0099 -0.2806  1.1100
  172SAPE  H18Y19487   2.163   5.197   4.601 -0.0327 -1.3758  1.9864
  172SAPE  H18Z19488   2.059   5.060   4.550 -0.1452  0.0714 -0.0618
  173SLPC     N19489   0.392   1.898   7.149 -0.2167 -0.7551  0.1438
  173SLPC   C1319490   0.519   1.985   7.150 -0.2142 -0.2723  0.1412
  173SLPC  H13A19491   0.566   1.976   7.247 -1.3064  2.2472  0.9990
  173SLPC  H13B19492   0.587   1.942   7.079 -0.4925  0.1401 -0.3754
  173SLPC  H13C19493   0.497   2.090   7.135  1.1293  0.5112  2.9528
  173SLPC   C1419494   0.287   1.966   7.235  0.3064 -0.0355  0.3630
  173SLPC  H14A19495   0.267   2.068   7.207 -1.4009 -0.1837  0.8950
  173SLPC  H14B19496   0.194   1.911   7.231  0.8687 -0.9368 -1.1281
  173SLPC  H14C19497   0.319   1.969   7.338 -0.7630 -1.2249  0.7606
  173SLPC   C1519498   0.418   1.769   7.228 -0.3719  0.0094 -0.0425
  173SLPC  H15A19499   0.415   1.785   7.335 -1.3280 -1.2096  0.1305
  173SLPC  H15B19500   0.355   1.685   7.204 -1.6121  0.3128  1.8969
  173SLPC  H15C19501   0.519   1.739   7.207 -1.4038 -2.7172 -1.6099
  173SLPC   C1219502   0.339   1.880   7.010 -0.0767 -0.0645  0.4883
  173SLPC  H12A19503   0.299   1.969   6.964  0.2929 -0.9613 -1.6761
  173SLPC  H12B19504   0.252   1.820   7.034  0.8930 -1.2934  1.0453
  173SLPC   C1119505   0.426   1.818   6.903  0.1014 -0.5256  0.3544
  173SLPC  H11A19506   0.354   1.788   6.824  0.7520 -2.0293  0.2889
  173SLPC  H11B19507   0.465   1.720   6.938 -0.7524 -0.4959  1.4117
  173SLPC     P19508   0.503   2.033   6.777  0.3481 -0.4654 -0.6540
  173SLPC   O1319509   0.378   2.103   6.818 -0.3156  0.2851 -0.3222
  173SLPC   O1419510   0.623   2.113   6.786 -0.6297  0.0448 -0.4478
  173SLPC   O1219511   0.541   1.902   6.859  0.4446 -0.3079 -0.7790
  173SLPC   O1119512   0.486   1.982   6.629  0.3113 -0.1281 -0.5822
  173SLPC    C119513   0.526   1.853   6.588  0.9592  0.2932  0.6537
  173SLPC    HA19514   0.617   1.823   6.643  0.4291  0.5839  1.7255
  173SLPC    HB19515   0.461   1.769   6.620 -1.0684  1.1696 -0.8496
  173SLPC    C219516   0.544   1.831   6.435  0.2346 -0.1782  0.0898
  173SLPC    HS19517   0.602   1.738   6.418  1.0940  0.5003 -0.8135
  173SLPC   O2119518   0.625   1.946   6.387 -0.1947  0.1706  0.0514
  173SLPC   C2119519   0.679   1.916   6.273 -0.4997  0.1517  0.2873
  173SLPC   O2219520   0.675   1.810   6.213  0.3674  0.9158 -0.3788
  173SLPC   C2219521   0.774   2.028   6.239  0.2893  0.4868 -0.2816
  173SLPC   H2R19522   0.727   2.125   6.265  0.0313  1.1060 -2.7831
  173SLPC   H2S19523   0.859   2.003   6.306 -0.9487 -1.0606  0.7980
  173SLPC    C319524   0.403   1.832   6.373  0.1855  0.0317 -0.2122
  173SLPC    HX19525   0.374   1.939   6.366 -2.8086 -0.6708 -0.0862
  173SLPC    HY19526   0.325   1.783   6.435  2.0387 -1.3097  1.1685
  173SLPC   O3119527   0.402   1.773   6.242 -0.6290  1.2110 -0.6369
  173SLPC   C3119528   0.425   1.646   6.229  0.0261 -0.7615  0.4374
  173SLPC   O3219529   0.432   1.558   6.316 -0.0597  0.1631  0.6040
  173SLPC   C3219530   0.412   1.609   6.078 -0.3718 -0.6144  0.4905
  173SLPC   H2X19531   0.519   1.622   6.048 -0.2448  0.2869  1.2859
  173SLPC   H2Y19532   0.336   1.674   6.030  0.3255  0.2135  0.4727
  173SLPC   C2319533   0.830   2.040   6.096  0.9558 -0.6533  0.6672
  173SLPC   H3R19534   0.744   2.067   6.031 -1.5825 -2.8588  2.8815
  173SLPC   H3S19535   0.850   1.939   6.053 -1.1289 -1.0197  0.4770
  173SLPC   C2419536   0.955   2.123   6.070 -0.4189  0.8227  0.0046
  173SLPC   H4R19537   1.027   2.072   6.138 -0.0629  0.7375 -0.4369
  173SLPC   H4S19538   0.949   2.228   6.105  1.2849  0.8417  0.3311
  173SLPC   C2519539   1.020   2.116   5.932  0.0316 -0.2175  0.6622
  173SLPC   H5R19540   1.034   2.009   5.907  3.8457  0.6339 -1.6023
  173SLPC   H5S19541   1.122   2.160   5.940 -0.4461  1.4680 -1.5890
  173SLPC   C2619542   0.954   2.196   5.826  0.9258  0.6446 -0.3913
  173SLPC   H6R19543   0.975   2.305   5.837 -2.0022  1.2999 -0.2503
  173SLPC   H6S19544   0.843   2.188   5.830  1.0020 -0.7928 -0.5759
  173SLPC   C2719545   0.988   2.139   5.689  0.6319 -0.5218  0.0265
  173SLPC   H7R19546   0.985   2.028   5.687 -1.0550 -0.5007 -1.0145
  173SLPC   H7S19547   1.091   2.176   5.672  0.1092  1.2965  0.5824
  173SLPC   C2819548   0.893   2.188   5.575 -0.3344 -0.0855 -0.3984
  173SLPC   H8R19549   0.940   2.157   5.479  0.5732  0.3472 -0.1101
  173SLPC   H8S19550   0.904   2.299   5.580  0.0323 -0.1768  1.4618
  173SLPC   C2919551   0.744   2.145   5.586 -0.1765 -0.4575 -0.1552
  173SLPC   H9R19552   0.683   2.201   5.659  1.4103  3.5646 -1.6309
  173SLPC  C21019553   0.685   2.057   5.498 -0.3061 -0.3472 -0.0305
  173SLPC  H10R19554   0.577   2.040   5.506 -0.9345  2.4222 -1.2463
  173SLPC  C21119555   0.753   1.977   5.396 -0.3852  0.7278  0.9155
  173SLPC  H11R19556   0.697   1.882   5.405  1.7295 -0.6606  0.2104
  173SLPC  H11S19557   0.853   1.943   5.429 -1.1012 -0.9982  1.4024
  173SLPC  C21219558   0.747   2.019   5.249 -0.6914 -0.3152  0.7380
  173SLPC  H12R19559   0.826   2.087   5.214 -0.9962 -0.1551  0.3561
  173SLPC  C21319560   0.645   1.995   5.165 -0.4322 -0.5624  0.4048
  173SLPC  H13R19561   0.653   2.031   5.062 -0.7802  0.4282  0.7163
  173SLPC  C21419562   0.529   1.900   5.189  0.0253  0.2408 -0.4820
  173SLPC  H14R19563   0.448   1.932   5.119 -1.7796  0.5365  1.6082
  173SLPC  H14S19564   0.476   1.901   5.287 -0.4888 -4.7966 -0.4453
  173SLPC  C21519565   0.566   1.760   5.150 -0.2072  0.2700  0.2768
  173SLPC  H15R19566   0.626   1.714   5.232 -0.1959 -0.3410 -0.0686
  173SLPC  H15S19567   0.624   1.754   5.056 -0.3799  0.6361  0.1468
  173SLPC  C21619568   0.448   1.663   5.124 -0.0566 -0.5134 -0.1524
  173SLPC  H16R19569   0.380   1.708   5.049  1.1950  1.6629 -0.0572
  173SLPC  H16S19570   0.380   1.659   5.212 -0.4483  1.4637 -0.3199
  173SLPC  C21719571   0.511   1.531   5.089  0.4265  0.2182  0.2362
  173SLPC  H17R19572   0.576   1.483   5.164  0.3800 -0.4832 -0.1629
  173SLPC  H17S19573   0.564   1.546   4.992  0.7936 -1.3913  0.1643
  173SLPC  C21819574   0.397   1.428   5.065  0.7441  0.4484 -0.2556
  173SLPC  H18R19575   0.338   1.444   4.972  1.5705  1.0837 -0.6897
  173SLPC  H18S19576   0.323   1.427   5.147  0.5845 -2.6847 -0.3036
  173SLPC  H18T19577   0.440   1.327   5.049  0.3616  0.5134 -1.8250
  173SLPC   C3319578   0.383   1.466   6.065  0.0011  0.2991 -0.0112
  173SLPC   H3X19579   0.280   1.446   6.100  0.4321  1.0810  1.8217
  173SLPC   H3Y19580   0.456   1.423   6.136  0.8087 -0.5608 -1.3234
  173SLPC   C3419581   0.397   1.428   5.922 -0.2573  0.1600 -0.0652
  173SLPC   H4X19582   0.339   1.497   5.857  1.7897 -0.2491 -2.4927
  173SLPC   H4Y19583   0.356   1.325   5.912  1.2306 -0.4647  0.0478
  173SLPC   C3519584   0.535   1.426   5.861  0.7638 -0.8152  0.0409
  173SLPC   H5X19585   0.612   1.397   5.935  1.7122 -0.8805 -0.9363
  173SLPC   H5Y19586   0.564   1.525   5.820 -2.5362  0.2692  0.0187
  173SLPC   C3619587   0.556   1.324   5.747 -0.1110 -0.0934 -0.1827
  173SLPC   H6X19588   0.523   1.227   5.789 -0.2105 -0.0300 -0.1132
  173SLPC   H6Y19589   0.663   1.301   5.733 -0.5247 -1.6393 -1.0457
  173SLPC   C3719590   0.478   1.353   5.620  0.3010  0.6242 -0.2503
  173SLPC   H7X19591   0.534   1.428   5.560  1.1771  0.7710  0.7041
  173SLPC   H7Y19592   0.378   1.391   5.651  0.2902  1.1564 -0.9175
  173SLPC   C3819593   0.463   1.233   5.526  0.4706  0.9161  0.2793
  173SLPC   H8X19594   0.390   1.245   5.443 -1.2197 -2.0277  1.1639
  173SLPC   H8Y19595   0.422   1.145   5.581 -0.6092  0.8713 -0.5581
  173SLPC   C3919596   0.593   1.180   5.463 -0.1968 -0.5135  0.0947
  173SLPC   H9X19597   0.652   1.139   5.548 -0.7297 -1.0609  0.2058
  173SLPC   H9Y19598   0.654   1.258   5.413 -0.5141  1.4536  2.5965
  173SLPC  C31019599   0.563   1.055   5.370 -0.0882  0.2009 -0.1123
  173SLPC  H10X19600   0.652   1.043   5.305 -1.9822  1.4261 -3.1172
  173SLPC  H10Y19601   0.478   1.084   5.305 -0.8240  0.4557  0.9300
  173SLPC  C31119602   0.536   0.928   5.450  0.0975 -0.1564 -0.2491
  173SLPC  H11X19603   0.437   0.928   5.499  0.0478  2.0146 -0.2480
  173SLPC  H11Y19604   0.605   0.929   5.538 -2.6170 -0.7217  2.0281
  173SLPC  C31219605   0.553   0.794   5.374  0.1211  0.4466 -0.0193
  173SLPC  H12X19606   0.550   0.711   5.448 -0.1996  0.8586  0.4368
  173SLPC  H12Y19607   0.656   0.789   5.334 -0.1302 -2.0285 -0.5463
  173SLPC  C31319608   0.455   0.776   5.260 -0.0124 -0.2067  0.1444
  173SLPC  H13X19609   0.463   0.861   5.189 -1.5265 -0.3963 -0.2994
  173SLPC  H13Y19610   0.359   0.791   5.315  0.0672 -1.9197  0.8247
  173SLPC  C31419611   0.458   0.645   5.176  0.4896  0.2281 -0.1888
  173SLPC  H14X19612   0.406   0.659   5.079 -0.1273  0.2203  0.1366
  173SLPC  H14Y19613   0.397   0.567   5.226  0.8650  1.0641  1.6826
  173SLPC  C31519614   0.600   0.612   5.146 -0.0690  0.6461  0.6704
  173SLPC  H15X19615   0.656   0.569   5.232  1.8455  0.0176 -0.8309
  173SLPC  H15Y19616   0.650   0.709   5.124  1.4927  1.0617  5.0155
  173SLPC  C31619617   0.635   0.518   5.031  0.1754  0.4770  0.2091
  173SLPC  H16X19618   0.616   0.413   5.060  2.2872 -0.0341 -0.0913
  173SLPC  H16Y19619   0.745   0.533   5.022  0.5203 -0.9307  1.7636
  173SLPC  C31719620   0.557   0.546   4.903  0.3747 -0.1507 -0.3412
  173SLPC  H17X19621   0.624   0.519   4.819 -0.4610 -1.7493 -0.5340
  173SLPC  H17Y19622   0.536   0.655   4.893 -0.6158 -0.3222 -0.2058
  173SLPC  C31819623   0.421   0.469   4.892  0.6820  0.8594 -0.5742
  173SLPC  H18X19624   0.438   0.367   4.932 -0.9205 -0.2274 -2.5227
  173SLPC  H18Y19625   0.382   0.465   4.789  0.3760  1.5118 -0.4921
  173SLPC  H18Z19626   0.336   0.511   4.951  0.5139  1.4473 -1.2201
  174SLPC     N19627   3.551   3.109   6.837  0.3454 -0.1361  0.4339
  174SLPC   C1319628   3.648   3.223   6.858  0.5605 -0.0221 -0.2867
  174SLPC  H13A19629   3.664   3.272   6.763 -1.9600  1.3382 -0.0933
  174SLPC  H13B19630   3.606   3.302   6.920 -2.5356 -1.2111 -0.6840
  174SLPC  H13C19631   3.732   3.183   6.912 -0.4637 -0.4140  1.0809
  174SLPC   C1419632   3.504   3.052   6.968  0.7492  0.5618  0.1957
  174SLPC  H14A19633   3.470   2.952   6.948  1.0310  0.4929  0.0559
  174SLPC  H14B19634   3.592   3.053   7.031 -0.5529 -0.9219  2.1392
  174SLPC  H14C19635   3.426   3.111   7.014  0.1213 -1.9702  2.5667
  174SLPC   C1519636   3.626   3.004   6.762 -0.2685 -0.2025 -0.3378
  174SLPC  H15A19637   3.558   2.921   6.748  0.1947 -0.4581 -1.0770
  174SLPC  H15B19638   3.655   3.035   6.663 -1.0545  2.8409  0.2722
  174SLPC  H15C19639   3.720   2.972   6.803 -0.1077  0.5132 -0.1334
  174SLPC   C1219640   3.431   3.158   6.752 -0.4077 -0.1304 -0.3691
  174SLPC  H12A19641   3.375   3.070   6.724 -0.3250  0.3095 -1.9984
  174SLPC  H12B19642   3.461   3.207   6.661  1.4627 -0.5145 -0.0043
  174SLPC   C1119643   3.339   3.257   6.813  0.5303  0.0710 -0.4768
  174SLPC  H11A19644   3.279   3.298   6.729  1.2611  1.1992 -0.4690
  174SLPC  H11B19645   3.395   3.343   6.856  0.7043 -1.3886  2.5255
  174SLPC     P19646   3.113   3.130   6.873 -0.3055  0.1486 -0.0025
  174SLPC   O1319647   3.046   3.097   6.999 -0.3637  1.1858  0.2198
  174SLPC   O1419648   3.033   3.221   6.786  0.0921  0.2438  0.6362
  174SLPC   O1219649   3.255   3.196   6.914  0.4801  0.2590 -0.5547
  174SLPC   O1119650   3.159   2.999   6.788  0.6679 -0.3669 -0.1600
  174SLPC    C119651   3.066   2.967   6.680 -0.1425  0.4867 -0.0283
  174SLPC    HA19652   2.968   2.935   6.720  0.6938 -1.3445  0.6867
  174SLPC    HB19653   3.069   3.059   6.617  1.7198 -0.0755 -0.8394
  174SLPC    C219654   3.125   2.853   6.596 -0.4969  0.2467 -0.3264
  174SLPC    HS19655   3.056   2.845   6.509  0.3502 -0.0787 -0.9798
  174SLPC   O2119656   3.142   2.723   6.665 -0.1858 -0.2082 -0.0282
  174SLPC   C2119657   3.024   2.660   6.687 -0.1886 -0.3383  0.2595
  174SLPC   O2219658   2.919   2.716   6.660 -0.0798 -0.2473 -0.5225
  174SLPC   C2219659   3.049   2.512   6.730  1.3438 -0.0137 -0.2322
  174SLPC   H2R19660   3.134   2.509   6.801  0.2805  1.1209  1.1492
  174SLPC   H2S19661   2.957   2.475   6.780  1.1313 -0.1524 -0.7212
  174SLPC    C319662   3.271   2.893   6.552 -0.0000  0.6752  0.0497
  174SLPC    HX19663   3.306   2.819   6.476 -0.5074  1.7690 -1.2963
  174SLPC    HY19664   3.327   2.873   6.646 -1.0287 -1.0541  0.3328
  174SLPC   O3119665   3.284   3.030   6.511  0.1685 -0.0212  0.0941
  174SLPC   C3119666   3.280   3.043   6.379 -0.3513  0.0752  0.1173
  174SLPC   O3219667   3.277   2.960   6.292 -0.1574  0.3160  0.2691
  174SLPC   C3219668   3.286   3.193   6.349  0.3860 -0.0628 -0.0646
  174SLPC   H2X19669   3.276   3.253   6.442  1.5394 -0.0124  0.0428
  174SLPC   H2Y19670   3.203   3.220   6.279  1.5773 -1.8560 -2.2938
  174SLPC   C2319671   3.060   2.408   6.615  0.1643  0.0843  0.7385
  174SLPC   H3R19672   3.103   2.313   6.652  0.5630 -0.7952 -1.7696
  174SLPC   H3S19673   3.141   2.434   6.544  1.3594 -1.5042  1.4485
  174SLPC   C2419674   2.931   2.394   6.529  0.1816 -0.2459 -0.4503
  174SLPC   H4R19675   2.888   2.494   6.507 -1.6915 -0.0805  3.0701
  174SLPC   H4S19676   2.853   2.339   6.587 -1.5349 -0.1407 -2.5362
  174SLPC   C2519677   2.955   2.306   6.410 -0.3476 -0.7401 -0.0574
  174SLPC   H5R19678   2.863   2.266   6.364  0.3326 -1.0274 -1.1975
  174SLPC   H5S19679   3.033   2.230   6.433 -1.2933 -1.3392  1.3118
  174SLPC   C2619680   3.032   2.394   6.304  0.0534  0.3027  0.2516
  174SLPC   H6R19681   3.080   2.325   6.231  0.7434  0.0630  0.9310
  174SLPC   H6S19682   3.107   2.467   6.340 -0.6620  0.7718  0.8399
  174SLPC   C2719683   2.930   2.476   6.219 -0.6560 -0.4175  0.3467
  174SLPC   H7R19684   2.854   2.524   6.285  0.7693  2.5317  0.0106
  174SLPC   H7S19685   2.874   2.404   6.156  0.4594 -1.2534  0.2958
  174SLPC   C2819686   2.991   2.586   6.118  0.0474 -0.4061 -0.0755
  174SLPC   H8R19687   2.991   2.681   6.175  0.8941 -0.7569  0.5223
  174SLPC   H8S19688   2.921   2.597   6.032 -2.3736 -0.8952  1.7195
  174SLPC   C2919689   3.128   2.571   6.064  0.4294 -0.7817  0.7780
  174SLPC   H9R19690   3.205   2.594   6.139  0.6495 -3.0647  1.3253
  174SLPC  C21019691   3.164   2.538   5.938  0.2782  0.1194 -0.3069
  174SLPC  H10R19692   3.272   2.517   5.926  0.7277  1.4504  1.1128
  174SLPC  C21119693   3.081   2.507   5.818  0.7223 -0.1740 -0.8318
  174SLPC  H11R19694   3.049   2.606   5.781  0.3144 -0.0454 -0.1424
  174SLPC  H11S19695   2.991   2.448   5.844  0.1806  0.6620 -0.7914
  174SLPC  C21219696   3.159   2.434   5.712  0.2624 -0.4763 -0.1849
  174SLPC  H12R19697   3.203   2.344   5.758  1.7394  1.0356  1.4841
  174SLPC  C21319698   3.160   2.460   5.576 -0.3488  0.4206  0.1700
  174SLPC  H13R19699   3.232   2.410   5.510  0.2033  0.5634  0.6485
  174SLPC  C21419700   3.089   2.572   5.509 -0.0697 -0.4830  1.1706
  174SLPC  H14R19701   3.173   2.639   5.480 -1.6469  0.7850 -0.7475
  174SLPC  H14S19702   3.015   2.620   5.577 -1.1935  0.8086 -0.8568
  174SLPC  C21519703   3.033   2.550   5.367  0.2380 -0.4821 -0.8170
  174SLPC  H15R19704   3.087   2.470   5.312  0.7713 -0.3153 -0.5396
  174SLPC  H15S19705   3.039   2.647   5.313 -0.0358  0.2392  0.4145
  174SLPC  C21619706   2.884   2.513   5.362  0.2134 -0.0356 -0.1723
  174SLPC  H16R19707   2.836   2.584   5.432 -0.5249 -0.9093  0.2329
  174SLPC  H16S19708   2.882   2.414   5.412  0.4249 -0.1774 -0.4384
  174SLPC  C21719709   2.816   2.526   5.226  0.1477 -0.7564 -0.2420
  174SLPC  H17R19710   2.710   2.493   5.237  0.2720 -0.7624  1.2028
  174SLPC  H17S19711   2.858   2.455   5.152  1.2610 -0.8283  0.4306
  174SLPC  C21819712   2.794   2.675   5.187  0.1317 -0.5200  0.6109
  174SLPC  H18R19713   2.890   2.726   5.165  0.0407 -0.3374  0.6355
  174SLPC  H18S19714   2.734   2.722   5.267  1.8316  2.1186  0.4313
  174SLPC  H18T19715   2.728   2.685   5.098  0.1098 -0.4779  0.6326
  174SLPC   C3319716   3.413   3.238   6.284 -0.2972 -0.1330  0.5461
  174SLPC   H3X19717   3.500   3.207   6.346  1.0410  1.8455 -0.2400
  174SLPC   H3Y19718   3.420   3.348   6.280 -0.2800 -0.1667 -1.2172
  174SLPC   C3419719   3.441   3.196   6.139 -0.7191  0.3081  0.2207
  174SLPC   H4X19720   3.372   3.239   6.063  1.1567 -2.6571 -3.5653
  174SLPC   H4Y19721   3.437   3.086   6.123 -1.5496  0.2036  1.0668
  174SLPC   C3519722   3.581   3.250   6.105 -0.5466 -0.2255  0.0545
  174SLPC   H5X19723   3.666   3.220   6.170  1.2424  1.0760 -1.5539
  174SLPC   H5Y19724   3.574   3.360   6.118  0.4320 -0.1951  0.4223
  174SLPC   C3619725   3.622   3.200   5.970 -0.0854 -1.0606 -0.7569
  174SLPC   H6X19726   3.552   3.229   5.889  1.7006  0.4851 -1.8117
  174SLPC   H6Y19727   3.627   3.090   5.987 -1.6117 -1.0989 -0.3823
  174SLPC   C3719728   3.763   3.251   5.930  0.0819 -0.0890 -0.3626
  174SLPC   H7X19729   3.822   3.241   6.024  0.0918  0.1747 -0.3382
  174SLPC   H7Y19730   3.747   3.356   5.895  3.0149  0.9158  0.9937
  174SLPC   C3819731   3.828   3.168   5.818 -0.3231  0.3714  0.3571
  174SLPC   H8X19732   3.849   3.065   5.855 -0.1891  0.4429  0.4815
  174SLPC   H8Y19733   3.927   3.217   5.804  0.0481 -0.5786 -0.5425
  174SLPC   C3919734   3.755   3.183   5.683 -0.1947  0.1827 -0.4161
  174SLPC   H9X19735   3.706   3.282   5.670 -1.0993 -0.4768 -2.3652
  174SLPC   H9Y19736   3.675   3.106   5.682  1.9276 -2.1292 -1.1015
  174SLPC  C31019737   3.843   3.155   5.558  0.3915 -1.0616 -0.8680
  174SLPC  H10X19738   3.884   3.052   5.565  2.8852 -0.0994 -0.2644
  174SLPC  H10Y19739   3.925   3.228   5.575 -1.2436  0.4492  0.9427
  174SLPC  C31119740   3.768   3.182   5.430  0.0019 -0.5608  0.4777
  174SLPC  H11X19741   3.720   3.282   5.431  0.2473 -0.4339  0.0842
  174SLPC  H11Y19742   3.683   3.115   5.407 -0.1736 -0.8256  1.8578
  174SLPC  C31219743   3.861   3.190   5.305  0.2210 -0.3270  0.0415
  174SLPC  H12X19744   3.962   3.227   5.333  1.7362 -2.3663 -2.2161
  174SLPC  H12Y19745   3.814   3.236   5.215 -0.2961 -0.9468 -0.0155
  174SLPC  C31319746   3.895   3.051   5.236 -0.7780  0.0149  0.3542
  174SLPC  H13X19747   3.803   2.994   5.211 -2.1007  1.2726  2.1183
  174SLPC  H13Y19748   3.958   2.994   5.307 -0.7529 -3.1515 -2.0091
  174SLPC  C31419749   3.964   3.063   5.095  0.7356  0.5187 -0.4687
  174SLPC  H14X19750   4.029   3.152   5.107  1.2418 -0.1158  1.9140
  174SLPC  H14Y19751   3.884   3.089   5.022 -0.5925  5.6631  2.3313
  174SLPC  C31519752   4.046   2.945   5.055 -1.0863  0.4637  0.6455
  174SLPC  H15X19753   3.991   2.852   5.081  0.0371 -0.7041 -0.9032
  174SLPC  H15Y19754   4.140   2.933   5.114 -1.2280 -3.1484  0.3835
  174SLPC  C31619755   4.077   2.942   4.901  0.4341 -0.1910 -0.4366
  174SLPC  H16X19756   4.137   3.031   4.871  0.6167 -1.0191 -2.7042
  174SLPC  H16Y19757   3.975   2.941   4.857 -0.8043  0.4615  2.2319
  174SLPC  C31719758   4.159   2.823   4.855 -0.0404  0.3155 -0.3438
  174SLPC  H17X19759   4.091   2.735   4.852  0.0505  0.2673 -1.4340
  174SLPC  H17Y19760   4.239   2.787   4.922 -0.8357 -2.0813 -0.5709
  174SLPC  C31819761   4.228   2.851   4.719  0.3520 -0.5126 -0.2751
  174SLPC  H18X19762   4.285   2.945   4.737  1.1613 -0.8875 -0.7854
  174SLPC  H18Y19763   4.154   2.861   4.638 -0.9710  0.9002  1.0526
  174SLPC  H18Z19764   4.303   2.769   4.713  1.0709 -0.2409  2.8641
  175SLPC     N19765   0.088   6.044   7.464 -0.3262  0.4352  0.5772
  175SLPC   C1319766   0.102   6.139   7.583  0.3707  0.3214  0.4112
  175SLPC  H13A19767   0.142   6.087   7.669  1.1375  1.4969  0.7814
  175SLPC  H13B19768   0.159   6.229   7.568 -2.3236  2.2033  0.6725
  175SLPC  H13C19769   0.010   6.178   7.624 -0.1943 -1.5502  1.0353
  175SLPC   C1419770   0.003   5.926   7.511 -0.3523  0.0062  0.1458
  175SLPC  H14A19771  -0.031   5.873   7.423  1.3087 -1.2926  0.2303
  175SLPC  H14B19772   0.063   5.858   7.569 -0.2914  0.1599  0.2620
  175SLPC  H14C19773  -0.069   5.960   7.584  0.2943 -2.6359  2.1560
  175SLPC   C1519774   0.231   5.990   7.456 -0.1437 -0.8321 -0.5731
  175SLPC  H15A19775   0.267   5.949   7.549  0.1825 -0.6175 -0.6015
  175SLPC  H15B19776   0.253   5.920   7.376 -0.2452 -0.5009 -0.8922
  175SLPC  H15C19777   0.291   6.078   7.438 -0.9202 -0.2231 -0.2341
  175SLPC   C1219778   0.050   6.100   7.334 -0.5187 -0.9101  1.3088
  175SLPC  H12A19779   0.110   6.187   7.316 -0.2115 -0.8589  2.4999
  175SLPC  H12B19780  -0.056   6.121   7.332 -0.5169 -0.8827 -1.1318
  175SLPC   C1119781   0.058   5.998   7.211  0.1898  0.0192 -0.0990
  175SLPC  H11A19782   0.155   5.944   7.210  0.3268  0.2684 -0.4666
  175SLPC  H11B19783   0.045   6.056   7.117 -0.5361  1.6089  0.9448
  175SLPC     P19784  -0.206   5.957   7.195  0.1924  0.0218  0.5236
  175SLPC   O1319785  -0.291   5.832   7.202 -0.3651  0.0151  0.0523
  175SLPC   O1419786  -0.242   6.066   7.283 -0.1144  0.5362  0.1654
  175SLPC   O1219787  -0.059   5.918   7.233 -0.7073  0.2710  0.3495
  175SLPC   O1119788  -0.193   6.003   7.048  0.3298  0.0731 -0.3316
  175SLPC    C119789  -0.142   5.910   6.953  0.2616  0.4381  0.4438
  175SLPC    HA19790  -0.044   5.869   6.986 -0.4232 -1.2829  0.4324
  175SLPC    HB19791  -0.206   5.820   6.947 -1.2232  1.4224  1.0883
  175SLPC    C219792  -0.106   5.986   6.817  0.1037  0.1947  0.4902
  175SLPC    HS19793  -0.011   6.038   6.842 -0.4558  1.2603  0.4478
  175SLPC   O2119794  -0.214   6.066   6.768  0.2682  0.4100  0.0131
  175SLPC   C2119795  -0.183   6.166   6.685  0.3630  0.4610  0.2950
  175SLPC   O2219796  -0.074   6.216   6.673  0.1645  0.0375 -0.3663
  175SLPC   C2219797  -0.323   6.232   6.637  0.1928  0.4258  0.5688
  175SLPC   H2R19798  -0.399   6.187   6.704  1.1384 -1.8511  0.1987
  175SLPC   H2S19799  -0.302   6.341   6.649  2.2694 -0.0350  1.7657
  175SLPC    C319800  -0.062   5.884   6.710  0.4154 -0.1004 -0.3107
  175SLPC    HX19801  -0.148   5.831   6.663  0.9454 -2.4871  1.2134
  175SLPC    HY19802   0.011   5.811   6.751 -1.2962 -2.4992 -1.3004
  175SLPC   O3119803   0.006   5.951   6.594  0.1619  0.0682  0.6183
  175SLPC   C3119804   0.120   6.013   6.622  0.3288 -0.3117  0.0889
  175SLPC   O3219805   0.176   6.003   6.729 -0.1245  0.3468  0.8006
  175SLPC   C3219806   0.167   6.091   6.493  0.0126  0.1843 -1.1320
  175SLPC   H2X19807   0.278   6.078   6.491 -0.1782 -2.2118 -0.0187
  175SLPC   H2Y19808   0.145   6.199   6.500 -0.2912  0.3136 -3.3525
  175SLPC   C2319809  -0.355   6.190   6.493 -0.2361  0.8082  0.3686
  175SLPC   H3R19810  -0.277   6.227   6.423 -1.2286  1.1323 -0.5857
  175SLPC   H3S19811  -0.450   6.240   6.466 -0.7153  1.2514  2.7146
  175SLPC   C2419812  -0.389   6.038   6.481  0.2449  0.3146  0.3492
  175SLPC   H4R19813  -0.463   6.022   6.563 -2.0398  0.6003 -1.5440
  175SLPC   H4S19814  -0.292   5.987   6.500  1.3305  1.6892 -1.2361
  175SLPC   C2519815  -0.447   5.982   6.352 -0.5050  0.1345  0.3004
  175SLPC   H5R19816  -0.548   6.027   6.347  0.0001  1.2344 -0.7793
  175SLPC   H5S19817  -0.437   5.872   6.345  0.6709  0.0045  2.7905
  175SLPC   C2619818  -0.364   6.038   6.233  0.1953  0.4570 -0.2833
  175SLPC   H6R19819  -0.256   6.015   6.237  0.0334 -0.2052  0.6634
  175SLPC   H6S19820  -0.386   6.147   6.246 -2.7846 -0.1346  0.3847
  175SLPC   C2719821  -0.420   5.991   6.101 -0.5436 -0.3170 -0.4198
  175SLPC   H7R19822  -0.525   6.025   6.086 -1.6788 -1.2983  3.8333
  175SLPC   H7S19823  -0.425   5.881   6.116  1.0072 -0.3087  0.3370
  175SLPC   C2819824  -0.335   6.005   5.977  0.3944  0.2226  0.5980
  175SLPC   H8R19825  -0.355   5.919   5.909  0.3420  1.5437 -1.1339
  175SLPC   H8S19826  -0.230   5.976   5.996 -0.4623 -2.9452  1.0125
  175SLPC   C2919827  -0.353   6.137   5.912  0.7360  0.6143 -0.1492
  175SLPC   H9R19828  -0.334   6.218   5.985  0.5843  1.0420 -0.5816
  175SLPC  C21019829  -0.414   6.169   5.799  0.4646  0.2139 -0.5896
  175SLPC  H10R19830  -0.409   6.273   5.764 -1.1619  0.3600 -0.4899
  175SLPC  C21119831  -0.457   6.073   5.696  0.2819  0.2382 -0.2542
  175SLPC  H11R19832  -0.565   6.087   5.675  0.2068 -1.2255 -1.0123
  175SLPC  H11S19833  -0.473   5.972   5.740 -1.6407  0.0342 -1.3306
  175SLPC  C21219834  -0.388   6.073   5.562  0.1972 -0.5625 -0.6516
  175SLPC  H12R19835  -0.295   6.133   5.569  0.1563 -0.5441 -0.2465
  175SLPC  C21319836  -0.439   6.031   5.450  0.3711 -0.6137 -0.4090
  175SLPC  H13R19837  -0.385   6.046   5.355 -3.0823 -1.6527 -2.7642
  175SLPC  C21419838  -0.567   5.956   5.439 -0.2161 -0.2223 -0.6571
  175SLPC  H14R19839  -0.582   5.904   5.537 -1.0355  1.2082  0.0113
  175SLPC  H14S19840  -0.549   5.867   5.374 -1.5621 -1.9946  1.2434
  175SLPC  C21519841  -0.690   6.030   5.382  0.0708  0.2297 -0.5119
  175SLPC  H15R19842  -0.748   6.081   5.462 -0.6928 -0.4206 -0.6404
  175SLPC  H15S19843  -0.753   5.946   5.346 -0.1130  0.7652 -1.4570
  175SLPC  C21619844  -0.666   6.123   5.262 -0.2979  0.2429  0.3866
  175SLPC  H16R19845  -0.570   6.082   5.223  1.7102  1.0710  3.9675
  175SLPC  H16S19846  -0.659   6.229   5.294 -2.0663  0.6743 -0.5295
  175SLPC  C21719847  -0.778   6.119   5.159 -0.1819  0.3492  0.4878
  175SLPC  H17R19848  -0.874   6.115   5.215 -1.5678 -3.7352 -1.7632
  175SLPC  H17S19849  -0.776   6.017   5.115  0.1037  0.6310 -0.1676
  175SLPC  C21819850  -0.794   6.223   5.055  0.2061 -0.3671  0.4795
  175SLPC  H18R19851  -0.706   6.231   4.988 -1.1497  1.7051 -1.1806
  175SLPC  H18S19852  -0.790   6.321   5.108  1.7471 -0.3277  0.3280
  175SLPC  H18T19853  -0.886   6.224   4.993  0.3458  2.0802  0.1924
  175SLPC   C3319854   0.092   6.044   6.368  0.3508  0.6572  0.2060
  175SLPC   H3X19855  -0.011   6.087   6.372  0.2342  0.2612  2.0122
  175SLPC   H3Y19856   0.086   5.934   6.359  0.1189  0.7684 -1.5153
  175SLPC   C3419857   0.140   6.105   6.232  0.1283 -0.1748  0.0039
  175SLPC   H4X19858   0.247   6.079   6.217  0.4199 -0.2125  1.9291
  175SLPC   H4Y19859   0.138   6.213   6.256  1.0106 -0.4734  1.5637
  175SLPC   C3519860   0.044   6.096   6.111 -0.8203  0.4530  0.6699
  175SLPC   H5X19861  -0.042   6.166   6.108  0.3508  1.9126 -0.1261
  175SLPC   H5Y19862   0.006   5.992   6.106 -1.0629  0.6061 -2.3996
  175SLPC   C3619863   0.119   6.135   5.977 -0.2242 -0.1524 -0.0243
  175SLPC   H6X19864   0.217   6.084   5.965 -0.3549 -0.6815  0.9728
  175SLPC   H6Y19865   0.142   6.243   5.988 -0.7358 -0.1120  0.6924
  175SLPC   C3719866   0.035   6.107   5.858 -0.2377 -0.8479  0.7841
  175SLPC   H7X19867  -0.051   6.178   5.854 -1.4750 -2.3533 -1.2383
  175SLPC   H7Y19868  -0.017   6.009   5.856 -3.2024  0.5945  1.5090
  175SLPC   C3819869   0.106   6.110   5.722  0.8155  0.3292 -0.0098
  175SLPC   H8X19870   0.190   6.038   5.719 -0.6322 -1.4396  0.3749
  175SLPC   H8Y19871   0.133   6.212   5.688  2.9529  0.7180  2.5332
  175SLPC   C3919872   0.010   6.070   5.612 -0.6446 -0.2784  0.3439
  175SLPC   H9X19873  -0.051   6.162   5.598 -0.1776  0.3202  2.0032
  175SLPC   H9Y19874  -0.064   5.993   5.643 -0.5144 -0.8051 -0.6231
  175SLPC  C31019875   0.076   6.023   5.485  0.7345 -0.2903  0.5483
  175SLPC  H10X19876   0.144   5.936   5.495  0.0763 -0.9227 -0.2468
  175SLPC  H10Y19877   0.146   6.102   5.451  1.1446 -0.9013 -0.0435
  175SLPC  C31119878  -0.029   5.995   5.373  0.0239  0.3501  0.0300
  175SLPC  H11X19879  -0.090   6.081   5.340  0.1477  0.3464 -0.2041
  175SLPC  H11Y19880  -0.098   5.917   5.412  1.7273 -0.7834  0.9614
  175SLPC  C31219881   0.031   5.942   5.240 -0.4834 -0.7258  1.2866
  175SLPC  H12X19882   0.074   5.840   5.253 -2.2734 -2.1705 -2.6068
  175SLPC  H12Y19883   0.120   6.008   5.228 -0.4944 -0.3121  3.2154
  175SLPC  C31319884  -0.067   5.951   5.124  0.1660  0.3521  0.3403
  175SLPC  H13X19885  -0.004   5.915   5.040  0.7734  0.4132  0.7657
  175SLPC  H13Y19886  -0.107   6.053   5.104  2.0333  0.6880 -2.2453
  175SLPC  C31419887  -0.188   5.852   5.124  0.0218  0.4642 -0.1127
  175SLPC  H14X19888  -0.270   5.897   5.184 -1.3252 -1.2270 -0.5976
  175SLPC  H14Y19889  -0.163   5.763   5.186 -0.9723  0.2501 -0.0078
  175SLPC  C31519890  -0.243   5.804   4.989  0.4788  0.7988 -0.0147
  175SLPC  H15X19891  -0.156   5.763   4.935  0.0721  0.2033 -0.2259
  175SLPC  H15Y19892  -0.282   5.892   4.933 -2.8260 -0.3193  0.3025
  175SLPC  C31619893  -0.352   5.691   4.987 -0.5672 -0.0651 -0.0203
  175SLPC  H16X19894  -0.313   5.594   5.024 -2.9856 -1.8901 -1.8863
  175SLPC  H16Y19895  -0.377   5.671   4.880  0.1841 -0.8754 -0.0561
  175SLPC  C31719896  -0.467   5.732   5.077 -0.0558 -0.5158  0.7917
  175SLPC  H17X19897  -0.465   5.843   5.077  0.8941 -0.4928  2.3798
  175SLPC  H17Y19898  -0.462   5.684   5.177 -0.1634  1.6373  1.8865
  175SLPC  C31819899  -0.608   5.707   5.024  0.8246  0.2473  0.6203
  175SLPC  H18X19900  -0.642   5.601   5.021 -1.1243  0.8483 -0.7246
  175SLPC  H18Y19901  -0.618   5.744   4.920 -0.1910 -0.2842  0.5101
  175SLPC  H18Z19902  -0.688   5.761   5.079 -0.2230  2.2157 -2.5742
  176SLPC     N19903   0.623   2.752   7.116 -0.0413 -0.5283  1.1193
  176SLPC   C1319904   0.695   2.878   7.065  0.4819 -0.3511 -0.1719
  176SLPC  H13A19905   0.781   2.853   7.004  0.0085 -0.9907 -0.5861
  176SLPC  H13B19906   0.635   2.947   7.008 -0.4555 -1.0432 -0.0380
  176SLPC  H13C19907   0.730   2.933   7.151  1.4882 -1.2205 -0.0031
  176SLPC   C1419908   0.510   2.787   7.209  0.3453 -0.0335  0.2175
  176SLPC  H14A19909   0.470   2.702   7.263 -0.9387 -1.1118 -2.2608
  176SLPC  H14B19910   0.541   2.870   7.270  3.1142 -0.9965  0.2397
  176SLPC  H14C19911   0.421   2.821   7.158 -1.8452 -0.7002  3.2899
  176SLPC   C1519912   0.724   2.663   7.180  0.4060 -0.1533 -0.4575
  176SLPC  H15A19913   0.758   2.708   7.272 -1.7352  0.6347 -0.0001
  176SLPC  H15B19914   0.687   2.564   7.205 -0.3776  0.2578  0.0607
  176SLPC  H15C19915   0.807   2.650   7.113 -1.0253  0.8422 -2.5330
  176SLPC   C1219916   0.563   2.674   6.997 -0.7860  0.5196 -0.3512
  176SLPC  H12A19917   0.510   2.591   7.041  1.8228  0.2609  2.6514
  176SLPC  H12B19918   0.650   2.627   6.954  0.6174  0.2142  2.5912
  176SLPC   C1119919   0.485   2.734   6.880 -0.7681  0.2867  0.2099
  176SLPC  H11A19920   0.475   2.667   6.791  0.6863  2.9138 -2.0922
  176SLPC  H11B19921   0.544   2.822   6.848 -0.7528 -0.0082 -0.6042
  176SLPC     P19922   0.248   2.643   6.917 -0.7327 -0.4892  0.2470
  176SLPC   O1319923   0.315   2.522   6.977 -0.4074 -0.4631 -0.2468
  176SLPC   O1419924   0.122   2.684   6.976  0.3838  0.3564  0.2786
  176SLPC   O1219925   0.354   2.763   6.926  0.1949 -0.2534  0.5053
  176SLPC   O1119926   0.208   2.615   6.763 -0.0232  0.1963  0.0084
  176SLPC    C119927   0.136   2.720   6.693 -0.3691  0.5911  0.0299
  176SLPC    HA19928   0.027   2.701   6.687 -0.1973 -0.0893 -1.0874
  176SLPC    HB19929   0.157   2.823   6.729  2.0161  0.1740  0.0088
  176SLPC    C219930   0.169   2.726   6.538  0.0536 -0.2440 -0.1457
  176SLPC    HS19931   0.149   2.831   6.511 -3.1769 -0.8734 -0.5102
  176SLPC   O2119932   0.099   2.635   6.460 -0.0874 -0.1624 -0.7562
  176SLPC   C2119933  -0.014   2.680   6.415  0.7169  0.4923 -0.8585
  176SLPC   O2219934  -0.061   2.788   6.432  0.0931  0.0433  0.1988
  176SLPC   C2219935  -0.069   2.567   6.332  0.7298 -0.4045  0.1684
  176SLPC   H2R19936  -0.018   2.470   6.353 -2.3100 -2.5247 -1.4413
  176SLPC   H2S19937  -0.175   2.555   6.360  1.1220 -1.3729  1.3198
  176SLPC    C319938   0.319   2.694   6.501 -0.5436  0.0623  0.7470
  176SLPC    HX19939   0.350   2.591   6.530  2.0783  0.1755 -1.2982
  176SLPC    HY19940   0.376   2.757   6.573  2.2160  0.0488 -1.3012
  176SLPC   O3119941   0.362   2.729   6.366  0.2463  0.1484  0.4850
  176SLPC   C3119942   0.385   2.854   6.346 -0.3596 -0.4814  0.1248
  176SLPC   O3219943   0.365   2.947   6.424  0.5992  0.3728  0.3618
  176SLPC   C3219944   0.442   2.874   6.197 -0.3465  0.0838 -0.4737
  176SLPC   H2X19945   0.374   2.831   6.121 -1.3255 -0.0006  0.4135
  176SLPC   H2Y19946   0.532   2.809   6.187  0.0062  0.5946 -0.6693
  176SLPC   C2319947  -0.050   2.582   6.180 -1.0208  0.3341  0.1750
  176SLPC   H3R19948  -0.090   2.681   6.150  0.2083 -0.0778 -3.2377
  176SLPC   H3S19949  -0.112   2.507   6.127 -1.6949  0.2391  1.0716
  176SLPC   C2419950   0.094   2.588   6.116  0.2467  0.5386  0.2049
  176SLPC   H4R19951   0.141   2.488   6.116 -2.5206 -0.9117  2.7603
  176SLPC   H4S19952   0.161   2.656   6.172  1.0573  1.1873 -1.4537
  176SLPC   C2519953   0.098   2.641   5.972  0.5239 -0.3293 -0.2973
  176SLPC   H5R19954   0.066   2.747   5.967  1.5090 -0.0433 -3.7545
  176SLPC   H5S19955   0.020   2.586   5.915 -0.0349 -1.2271  1.2805
  176SLPC   C2619956   0.236   2.622   5.914 -0.6100 -0.2463  0.2640
  176SLPC   H6R19957   0.275   2.518   5.916 -1.7647 -0.6906  0.6594
  176SLPC   H6S19958   0.307   2.681   5.975  1.0295  1.9733 -3.4290
  176SLPC   C2719959   0.248   2.670   5.766 -0.2329 -0.2771 -0.4834
  176SLPC   H7R19960   0.253   2.781   5.772 -2.3465 -0.1979  0.8384
  176SLPC   H7S19961   0.161   2.650   5.700 -0.5015 -2.1742  0.3680
  176SLPC   C2819962   0.370   2.606   5.694 -0.3119  0.8906 -0.7567
  176SLPC   H8R19963   0.385   2.652   5.594  2.3007 -2.1129 -1.9472
  176SLPC   H8S19964   0.341   2.499   5.685  1.9894  0.0954  0.4304
  176SLPC   C2919965   0.497   2.611   5.785  0.3595  0.6518  0.4987
  176SLPC   H9R19966   0.479   2.593   5.892  0.9033 -1.9967  0.2168
  176SLPC  C21019967   0.623   2.626   5.739  0.1651 -0.2161 -0.1899
  176SLPC  H10R19968   0.704   2.636   5.812  1.2461  0.8001 -1.4622
  176SLPC  C21119969   0.671   2.639   5.596  0.0764  0.6166  0.9591
  176SLPC  H11R19970   0.781   2.654   5.590  0.0255  0.3586 -2.9099
  176SLPC  H11S19971   0.635   2.732   5.546  1.3677  0.7243  0.1756
  176SLPC  C21219972   0.635   2.524   5.504  0.2563 -0.1684 -0.0270
  176SLPC  H12R19973   0.594   2.435   5.554  1.6614 -1.3315 -0.8275
  176SLPC  C21319974   0.655   2.522   5.369 -0.1504  0.2814 -0.0119
  176SLPC  H13R19975   0.628   2.433   5.311  0.4191  1.4136 -2.0966
  176SLPC  C21419976   0.720   2.629   5.282  0.3510  0.2142 -0.2266
  176SLPC  H14R19977   0.788   2.691   5.344  0.8028 -1.1251  0.6646
  176SLPC  H14S19978   0.645   2.699   5.240  1.1410  0.6856 -0.8799
  176SLPC  C21519979   0.796   2.569   5.166  0.5544 -0.0473  0.3487
  176SLPC  H15R19980   0.835   2.637   5.088 -2.3313  1.2651 -0.0532
  176SLPC  H15S19981   0.726   2.506   5.107  1.5734  0.4847 -1.5237
  176SLPC  C21619982   0.912   2.469   5.195 -0.2557 -0.0742  0.2076
  176SLPC  H16R19983   0.879   2.380   5.253 -1.2616 -0.8963 -1.5392
  176SLPC  H16S19984   0.981   2.516   5.268 -0.9247  0.5744  0.4218
  176SLPC  C21719985   0.999   2.412   5.085 -0.3922 -0.5941  0.0244
  176SLPC  H17R19986   1.044   2.506   5.047  2.5086  0.0888  4.4761
  176SLPC  H17S19987   0.946   2.368   4.997  0.3699  2.3171 -2.0290
  176SLPC  C21819988   1.106   2.324   5.143 -0.2145 -0.1590  0.0611
  176SLPC  H18R19989   1.064   2.227   5.177  0.4424 -0.4391  0.0778
  176SLPC  H18S19990   1.161   2.373   5.225 -0.6819 -0.1215  0.3544
  176SLPC  H18T19991   1.186   2.298   5.070 -0.7055 -0.1231 -0.5075
  176SLPC   C3319992   0.464   3.021   6.164  0.1884 -0.0621 -0.1342
  176SLPC   H3X19993   0.559   3.064   6.204  0.0787  0.0487  0.0103
  176SLPC   H3Y19994   0.382   3.085   6.203 -0.2587 -0.1892 -0.8374
  176SLPC   C3419995   0.475   3.046   6.014  0.1104  0.1232 -0.5763
  176SLPC   H4X19996   0.566   3.002   5.967  0.7787 -0.3088  1.0276
  176SLPC   H4Y19997   0.497   3.154   6.003  0.3084  0.0266 -1.1126
  176SLPC   C3519998   0.340   3.033   5.937  0.1142  0.0553  0.1159
  176SLPC   H5X19999   0.271   3.100   5.994 -0.2690 -0.0912 -0.1688
  176SLPC   H5Y20000   0.297   2.931   5.930 -1.5037  0.7949 -2.4011
  176SLPC   C3620001   0.365   3.083   5.794  0.2952  0.8187  0.4689
  176SLPC   H6X20002   0.437   3.015   5.744 -0.4179 -0.0222  0.5682
  176SLPC   H6Y20003   0.421   3.179   5.790  1.4355  0.1797  0.6938
  176SLPC   C3720004   0.241   3.088   5.703 -0.0887  0.9963 -0.1557
  176SLPC   H7X20005   0.161   3.149   5.750 -0.4094  0.1756  0.3759
  176SLPC   H7Y20006   0.193   2.988   5.698 -2.3658  1.9766  0.8356
  176SLPC   C3820007   0.272   3.138   5.565 -0.7760 -0.4372 -0.4697
  176SLPC   H8X20008   0.322   3.058   5.505 -2.6628 -0.8127 -1.6415
  176SLPC   H8Y20009   0.344   3.218   5.589 -1.1123  0.3854 -2.0402
  176SLPC   C3920010   0.159   3.198   5.480  1.1228 -0.4938  0.4264
  176SLPC   H9X20011   0.110   3.276   5.543  2.0172  1.1489 -0.8202
  176SLPC   H9Y20012   0.075   3.129   5.457 -1.2596  1.3257  2.9447
  176SLPC  C31020013   0.228   3.263   5.356  0.3563  0.2255 -0.3312
  176SLPC  H10X20014   0.321   3.312   5.391 -0.7011  1.4046  0.9826
  176SLPC  H10Y20015   0.165   3.342   5.310  0.3159  0.8172  0.7046
  176SLPC  C31120016   0.280   3.163   5.251  0.0211  0.3771  0.4744
  176SLPC  H11X20017   0.347   3.090   5.302 -0.5899 -0.0498  0.6833
  176SLPC  H11Y20018   0.349   3.224   5.190  2.3599  0.0347  2.6080
  176SLPC  C31220019   0.172   3.104   5.165 -0.9282 -0.2755 -0.1060
  176SLPC  H12X20020   0.140   3.191   5.104 -1.1752  0.5704  1.1912
  176SLPC  H12Y20021   0.088   3.058   5.221 -1.3030 -0.3411 -0.7027
  176SLPC  C31320022   0.231   2.997   5.071 -0.7673  0.2451  0.5899
  176SLPC  H13X20023   0.150   2.923   5.059  0.8175 -1.5766  0.5916
  176SLPC  H13Y20024   0.320   2.953   5.120  0.3060  1.9790  0.3076
  176SLPC  C31420025   0.274   3.051   4.939  0.4219 -0.4362 -0.0412
  176SLPC  H14X20026   0.326   2.966   4.890  0.2163  0.0736 -1.1979
  176SLPC  H14Y20027   0.357   3.124   4.942  0.9933 -0.9616 -1.7955
  176SLPC  C31520028   0.157   3.098   4.853 -0.0888 -0.0602 -0.5067
  176SLPC  H15X20029   0.135   3.204   4.879  2.5392  1.0646 -2.4324
  176SLPC  H15Y20030   0.075   3.023   4.858  1.4139 -1.6830  0.5069
  176SLPC  C31620031   0.197   3.113   4.710 -0.2030  0.8033 -0.7108
  176SLPC  H16X20032   0.100   3.103   4.657  0.9005 -0.0087 -2.7240
  176SLPC  H16Y20033   0.264   3.029   4.682 -1.1541  0.1927 -1.2169
  176SLPC  C31720034   0.258   3.246   4.661  0.1113  0.5819 -0.8727
  176SLPC  H17X20035   0.346   3.286   4.715 -0.9877  2.0103 -0.0427
  176SLPC  H17Y20036   0.179   3.321   4.683  0.6076  0.5256  1.3959
  176SLPC  C31820037   0.290   3.245   4.520  0.1730  0.0561  0.4407
  176SLPC  H18X20038   0.272   3.338   4.463  1.2439 -0.5731 -0.9954
  176SLPC  H18Y20039   0.232   3.173   4.458 -1.4302 -0.7940  2.8247
  176SLPC  H18Z20040   0.400   3.235   4.506  0.0558  1.4522 -2.0594
  177SLPC     N20041   0.247   5.320   7.230  0.3932 -0.3729 -0.4664
  177SLPC   C1320042   0.373   5.410   7.243  0.0754  0.3724 -0.3331
  177SLPC  H13A20043   0.362   5.506   7.195 -1.1848  1.1806  1.4422
  177SLPC  H13B20044   0.402   5.427   7.346  0.3434 -0.0472 -0.3371
  177SLPC  H13C20045   0.460   5.359   7.206 -0.5910 -0.9526 -0.1415
  177SLPC   C1420046   0.138   5.386   7.302 -0.5090 -0.5422  0.0099
  177SLPC  H14A20047   0.148   5.368   7.408  1.4828 -1.7921 -0.3392
  177SLPC  H14B20048   0.134   5.493   7.293  1.4628 -0.3198  1.1823
  177SLPC  H14C20049   0.044   5.342   7.271 -0.8657 -1.9255  2.7235
  177SLPC   C1520050   0.267   5.192   7.304  0.1884 -0.2115 -0.0621
  177SLPC  H15A20051   0.299   5.207   7.406 -1.3307  1.3654  0.2490
  177SLPC  H15B20052   0.177   5.133   7.314  0.0676  0.2491  2.4184
  177SLPC  H15C20053   0.334   5.132   7.245  1.6983  2.7717 -1.6096
  177SLPC   C1220054   0.209   5.296   7.079 -0.1389 -0.4279 -0.5352
  177SLPC  H12A20055   0.168   5.384   7.032 -1.0431 -0.0795  0.8680
  177SLPC  H12B20056   0.137   5.216   7.069  0.1154 -0.4293 -2.9044
  177SLPC   C1120057   0.325   5.248   6.987  0.6432 -0.6588 -0.7193
  177SLPC  H11A20058   0.401   5.329   6.989 -0.5840  0.6039  3.5015
  177SLPC  H11B20059   0.275   5.258   6.888  0.5703  1.1340 -0.5414
  177SLPC     P20060   0.280   5.001   6.997  0.4124  0.0427  0.2990
  177SLPC   O1320061   0.359   4.872   6.997  0.4455 -0.3489 -0.4481
  177SLPC   O1420062   0.156   5.001   7.082  0.0960  0.0867 -0.3392
  177SLPC   O1220063   0.375   5.120   7.023 -0.3501  0.0213  0.3639
  177SLPC   O1120064   0.230   5.027   6.847  0.7783 -0.4163 -0.2691
  177SLPC    C120065   0.316   5.012   6.734  0.3144  0.0117  0.2108
  177SLPC    HA20066   0.416   5.054   6.756 -0.1971  0.2290  2.4354
  177SLPC    HB20067   0.339   4.905   6.715  0.2259  0.2491 -1.3183
  177SLPC    C220068   0.251   5.074   6.608 -0.1006 -0.0470 -0.0897
  177SLPC    HS20069   0.219   5.179   6.629 -1.8058 -0.4180 -0.6946
  177SLPC   O2120070   0.136   4.997   6.579 -0.2443  0.6301 -0.3331
  177SLPC   C2120071   0.036   5.046   6.508  0.1523 -1.0361  0.1836
  177SLPC   O2220072   0.010   5.159   6.487 -0.0923 -0.6216  0.5627
  177SLPC   C2220073  -0.056   4.930   6.471 -0.3628  0.0713 -0.0004
  177SLPC   H2R20074   0.001   4.863   6.403 -2.2841 -0.9280 -0.6946
  177SLPC   H2S20075  -0.058   4.870   6.565  2.5804 -0.6554 -0.3215
  177SLPC    C320076   0.339   5.088   6.479  0.6793 -0.0575  0.1011
  177SLPC    HX20077   0.395   4.992   6.482 -1.3298 -1.2705  2.3202
  177SLPC    HY20078   0.425   5.157   6.496  0.3420  0.5534 -0.6407
  177SLPC   O3120079   0.280   5.095   6.346 -0.1660  0.2807  0.7378
  177SLPC   C3120080   0.278   5.214   6.292  0.3954 -0.1784  0.5041
  177SLPC   O3220081   0.317   5.321   6.344 -0.3852  0.3222  0.1142
  177SLPC   C3220082   0.230   5.201   6.146 -0.7837 -0.1458 -0.8178
  177SLPC   H2X20083   0.120   5.187   6.152 -0.6688 -0.6115  0.7910
  177SLPC   H2Y20084   0.267   5.109   6.097 -1.0052  0.7118 -2.6700
  177SLPC   C2320085  -0.198   4.961   6.417  0.4705 -0.1596  0.0952
  177SLPC   H3R20086  -0.221   5.070   6.419 -2.3570 -0.6489 -0.5681
  177SLPC   H3S20087  -0.275   4.927   6.490 -0.1104 -0.5433 -0.6846
  177SLPC   C2420088  -0.225   4.914   6.273 -0.0576  0.1388  0.3882
  177SLPC   H4R20089  -0.322   4.964   6.249  0.5937  2.2346  1.7920
  177SLPC   H4S20090  -0.243   4.804   6.273 -1.4164  0.3315  1.1989
  177SLPC   C2520091  -0.114   4.955   6.176 -1.0103  0.1898  0.3829
  177SLPC   H5R20092  -0.014   4.907   6.176 -0.4678  1.2988  0.4447
  177SLPC   H5S20093  -0.085   5.056   6.212  3.2544  0.1113 -2.0633
  177SLPC   C2620094  -0.169   4.960   6.034  0.5917  0.5882  0.1042
  177SLPC   H6R20095  -0.279   4.978   6.039  0.2849 -0.6682 -1.5162
  177SLPC   H6S20096  -0.148   4.858   5.995  0.0133 -0.0799  1.4556
  177SLPC   C2720097  -0.115   5.070   5.949 -0.0521 -0.0141  0.0111
  177SLPC   H7R20098  -0.009   5.045   5.927 -0.3857 -2.7400  1.2362
  177SLPC   H7S20099  -0.114   5.165   6.006  0.0747  0.9249 -1.4830
  177SLPC   C2820100  -0.195   5.078   5.821 -0.3566  0.2068 -0.3138
  177SLPC   H8R20101  -0.296   5.121   5.836  0.1129  1.7018 -1.2986
  177SLPC   H8S20102  -0.205   4.976   5.778  0.1141 -0.2968  0.7226
  177SLPC   C2920103  -0.123   5.150   5.713 -0.0968 -0.1946  0.3499
  177SLPC   H9R20104  -0.067   5.240   5.742 -1.5002  0.8686 -0.1617
  177SLPC  C21020105  -0.126   5.119   5.581 -0.1255 -0.0788  0.3973
  177SLPC  H10R20106  -0.091   5.189   5.503  0.8943 -1.2855 -0.2517
  177SLPC  C21120107  -0.206   5.014   5.512 -0.4576  0.7097 -0.2767
  177SLPC  H11R20108  -0.189   4.914   5.558 -2.2004 -0.5713 -2.2389
  177SLPC  H11S20109  -0.166   4.998   5.410  0.5414  3.3310 -0.3692
  177SLPC  C21220110  -0.357   5.039   5.501  0.0404 -0.7387 -0.7707
  177SLPC  H12R20111  -0.398   5.138   5.477  0.2434 -0.9844 -2.2249
  177SLPC  C21320112  -0.449   4.941   5.503  0.1370  0.2106 -0.6233
  177SLPC  H13R20113  -0.554   4.971   5.492  0.2111  0.9017  0.3560
  177SLPC  C21420114  -0.431   4.791   5.510  0.1507 -0.4441 -0.6562
  177SLPC  H14R20115  -0.442   4.760   5.616 -1.4044  0.5310 -0.5016
  177SLPC  H14S20116  -0.329   4.756   5.483  1.6631  1.8771  1.5751
  177SLPC  C21520117  -0.535   4.715   5.431 -0.1664  0.3060 -0.0143
  177SLPC  H15R20118  -0.641   4.740   5.452 -1.1844 -0.7818 -3.1933
  177SLPC  H15S20119  -0.524   4.606   5.451  1.2872  0.7859  2.0911
  177SLPC  C21620120  -0.522   4.738   5.280 -1.0450 -0.8782 -0.1093
  177SLPC  H16R20121  -0.425   4.699   5.245  0.6324  0.2158  2.9585
  177SLPC  H16S20122  -0.528   4.849   5.273  1.8250 -0.5612  1.1750
  177SLPC  C21720123  -0.639   4.693   5.193  0.7155 -0.1225  0.3032
  177SLPC  H17R20124  -0.735   4.709   5.246 -0.0784 -0.3437 -1.0096
  177SLPC  H17S20125  -0.635   4.582   5.190  1.2650 -0.1491  1.4000
  177SLPC  C21820126  -0.647   4.758   5.053  0.1849 -0.4063 -0.5897
  177SLPC  H18R20127  -0.740   4.721   5.004  0.6386  0.6243 -2.2833
  177SLPC  H18S20128  -0.561   4.731   4.990 -0.6628 -0.6966 -1.6507
  177SLPC  H18T20129  -0.657   4.868   5.061  0.5365 -0.3651 -0.7206
  177SLPC   C3320130   0.262   5.329   6.065 -0.1225 -0.0326  0.2256
  177SLPC   H3X20131   0.371   5.348   6.075 -0.0729 -0.7534  1.1846
  177SLPC   H3Y20132   0.202   5.415   6.102 -0.2314  0.2933 -0.6861
  177SLPC   C3420133   0.229   5.316   5.920 -0.5563  0.5237  0.4687
  177SLPC   H4X20134   0.197   5.404   5.860 -0.2071  1.1292  1.1580
  177SLPC   H4Y20135   0.142   5.248   5.908 -0.1426  0.2506 -1.2345
  177SLPC   C3520136   0.337   5.247   5.833  0.4955 -0.2960  0.9200
  177SLPC   H5X20137   0.335   5.137   5.846  0.3037 -0.2367  1.4162
  177SLPC   H5Y20138   0.441   5.285   5.847 -0.2671  2.1033  0.6224
  177SLPC   C3620139   0.298   5.270   5.681  0.2095 -0.5472 -0.0168
  177SLPC   H6X20140   0.289   5.374   5.643 -1.1144 -0.8972 -0.7374
  177SLPC   H6Y20141   0.193   5.235   5.672 -0.1674  0.7400 -0.8778
  177SLPC   C3720142   0.375   5.185   5.583 -0.3992 -0.4194  0.5653
  177SLPC   H7X20143   0.376   5.083   5.627  0.4315 -1.1772 -1.1495
  177SLPC   H7Y20144   0.479   5.216   5.560 -0.3554 -1.3738 -0.6211
  177SLPC   C3820145   0.298   5.192   5.449  0.1215  0.8215 -0.5676
  177SLPC   H8X20146   0.281   5.297   5.416  2.9378  1.5208 -0.0776
  177SLPC   H8Y20147   0.202   5.138   5.465 -0.6400  2.4292  0.7472
  177SLPC   C3920148   0.380   5.115   5.341  0.6122  0.1552 -0.2392
  177SLPC   H9X20149   0.423   5.026   5.392 -0.8147 -1.6873 -2.0976
  177SLPC   H9Y20150   0.475   5.162   5.308  0.4921  1.6940  1.4572
  177SLPC  C31020151   0.286   5.061   5.232 -0.6439  0.2303  0.1385
  177SLPC  H10X20152   0.234   5.134   5.166 -1.8815 -0.9891 -0.2590
  177SLPC  H10Y20153   0.205   5.011   5.289 -1.7909  2.0297  0.1934
  177SLPC  C31120154   0.362   4.965   5.143  0.4053 -0.3773 -0.1283
  177SLPC  H11X20155   0.288   4.915   5.076 -1.8332  0.5982  1.4568
  177SLPC  H11Y20156   0.416   4.892   5.206 -0.4306  0.0371  1.0987
  177SLPC  C31220157   0.462   5.042   5.051 -0.1959 -0.0587  0.5719
  177SLPC  H12X20158   0.526   4.965   5.003 -0.9928 -0.0895 -0.4668
  177SLPC  H12Y20159   0.533   5.103   5.111 -0.1759  1.1108 -0.6173
  177SLPC  C31320160   0.400   5.124   4.941 -0.0556 -1.0091  0.6096
  177SLPC  H13X20161   0.359   5.217   4.986 -0.0881 -0.0238 -1.3388
  177SLPC  H13Y20162   0.320   5.061   4.896 -0.5721 -1.5409  2.2234
  177SLPC  C31420163   0.506   5.159   4.835 -0.8475 -0.0655 -0.2510
  177SLPC  H14X20164   0.467   5.226   4.755  1.4567  0.5716 -0.9137
  177SLPC  H14Y20165   0.551   5.068   4.789  0.2027 -0.1878  0.9734
  177SLPC  C31520166   0.633   5.232   4.897  0.2811  0.9477 -1.2836
  177SLPC  H15X20167   0.695   5.170   4.965 -0.6951  1.6667  0.3184
  177SLPC  H15Y20168   0.593   5.312   4.962 -0.7280 -0.0295 -0.6774
  177SLPC  C31620169   0.729   5.278   4.788  0.6312  0.0278  1.0045
  177SLPC  H16X20170   0.671   5.341   4.718 -0.0432 -2.1583 -0.5195
  177SLPC  H16Y20171   0.753   5.190   4.724  1.2280 -0.9814  2.5563
  177SLPC  C31720172   0.863   5.333   4.838  0.6142  0.2576 -0.0576
  177SLPC  H17X20173   0.840   5.404   4.921 -2.4311 -1.4620  0.7117
  177SLPC  H17Y20174   0.909   5.396   4.759  0.8329  1.2750  0.8562
  177SLPC  C31820175   0.963   5.222   4.883  0.0631 -0.5358  1.3859
  177SLPC  H18X20176   0.921   5.182   4.977  0.6489 -0.6365  1.6110
  177SLPC  H18Y20177   1.068   5.256   4.899  0.7768 -0.8324 -1.9025
  177SLPC  H18Z20178   0.963   5.135   4.814 -2.5748  0.9866 -0.7283
  178SLPC     N20179   4.429   2.913   7.400 -0.0955  0.7824 -0.0078
  178SLPC   C1320180   4.492   2.783   7.442  0.0573 -0.4374 -0.0154
  178SLPC  H13A20181   4.549   2.811   7.530 -0.4150  1.6512 -0.3250
  178SLPC  H13B20182   4.413   2.714   7.466  0.6653 -0.6461  1.5305
  178SLPC  H13C20183   4.557   2.737   7.369  2.1364  0.5111  1.1267
  178SLPC   C1420184   4.543   3.000   7.356  0.3097 -0.2722  0.0495
  178SLPC  H14A20185   4.509   3.099   7.327  2.3704  0.0979 -1.3019
  178SLPC  H14B20186   4.589   3.027   7.450  1.2369 -0.4491 -0.3405
  178SLPC  H14C20187   4.607   2.946   7.288 -1.1448 -1.6235 -0.3207
  178SLPC   C1520188   4.360   2.977   7.517  0.2755 -0.4383 -0.9674
  178SLPC  H15A20189   4.289   2.904   7.552 -0.8930  0.7946 -0.6652
  178SLPC  H15B20190   4.421   2.999   7.603  0.3821 -3.5248 -0.1430
  178SLPC  H15C20191   4.308   3.066   7.483 -1.7277 -1.3705 -0.5156
  178SLPC   C1220192   4.333   2.901   7.279 -0.1260 -0.5085  1.0256
  178SLPC  H12A20193   4.274   2.991   7.277 -0.0675 -0.4422 -2.4624
  178SLPC  H12B20194   4.264   2.822   7.304 -0.3248 -0.3827  0.8670
  178SLPC   C1120195   4.384   2.856   7.140 -0.3880  0.3502 -0.2589
  178SLPC  H11A20196   4.467   2.924   7.112 -0.9673  1.7777  1.3072
  178SLPC  H11B20197   4.304   2.876   7.066 -0.2090  1.1802 -0.2352
  178SLPC     P20198   4.332   2.592   7.128 -0.0236  0.2876 -0.1321
  178SLPC   O1320199   4.402   2.478   7.063  0.1595 -0.7765 -0.1333
  178SLPC   O1420200   4.263   2.579   7.256 -0.0449 -0.7368  0.1841
  178SLPC   O1220201   4.431   2.717   7.136 -0.1120  0.2401 -0.3664
  178SLPC   O1120202   4.221   2.650   7.028 -0.1626  0.6304  0.2851
  178SLPC    C120203   4.232   2.652   6.886 -0.4971 -0.3955  0.1826
  178SLPC    HA20204   4.168   2.730   6.839 -2.6253 -2.1103  0.0577
  178SLPC    HB20205   4.338   2.681   6.871 -0.5368  1.4740  2.8949
  178SLPC    C220206   4.200   2.514   6.825  0.3536 -0.0670 -0.5748
  178SLPC    HS20207   4.294   2.455   6.833  0.2074 -0.2376 -0.1303
  178SLPC   O2120208   4.155   2.526   6.688  0.3318 -0.1319  0.1766
  178SLPC   C2120209   4.232   2.594   6.606  0.9243  0.4195 -0.1637
  178SLPC   O2220210   4.354   2.611   6.624 -0.5318 -0.1129 -0.1254
  178SLPC   C2220211   4.155   2.597   6.475 -0.3180  0.3916  0.5437
  178SLPC   H2R20212   4.063   2.535   6.486 -0.1177 -0.1738 -0.7240
  178SLPC   H2S20213   4.109   2.698   6.460 -0.5154  0.0149 -1.8350
  178SLPC    C320214   4.091   2.428   6.903 -0.1470  1.2047  0.4453
  178SLPC    HX20215   4.005   2.495   6.923 -0.7051  0.4559  0.6196
  178SLPC    HY20216   4.130   2.400   7.003 -2.9118  0.4779  1.3906
  178SLPC   O3120217   4.061   2.310   6.816  0.5387  0.2396 -0.5939
  178SLPC   C3120218   3.951   2.322   6.748 -0.0040  0.1841 -0.6783
  178SLPC   O3220219   3.873   2.414   6.741  0.2180 -0.1876 -0.1486
  178SLPC   C3220220   3.939   2.201   6.656 -0.4787  0.1971  0.0337
  178SLPC   H2X20221   3.938   2.109   6.718  0.5395  1.0216  1.3279
  178SLPC   H2Y20222   4.034   2.208   6.598 -0.6212  2.9186  0.0238
  178SLPC   C2320223   4.244   2.568   6.349 -0.0089 -0.3325  1.4138
  178SLPC   H3R20224   4.302   2.474   6.365 -0.6723 -0.8504  0.7982
  178SLPC   H3S20225   4.312   2.656   6.346 -0.5702  0.1519  2.2840
  178SLPC   C2420226   4.151   2.553   6.226  0.6047  0.0399 -0.7904
  178SLPC   H4R20227   4.095   2.648   6.217  1.2552  0.5081  0.0339
  178SLPC   H4S20228   4.082   2.468   6.246  1.6516 -0.3661  1.3821
  178SLPC   C2520229   4.217   2.530   6.088 -0.1996 -0.3370 -0.6958
  178SLPC   H5R20230   4.263   2.429   6.088 -0.7625 -0.6133 -1.9223
  178SLPC   H5S20231   4.298   2.605   6.076 -0.5481  0.0061 -0.9142
  178SLPC   C2620232   4.136   2.545   5.963  0.6656 -0.0574  0.8730
  178SLPC   H6R20233   4.114   2.652   5.946 -1.7283 -0.8764 -2.0035
  178SLPC   H6S20234   4.038   2.493   5.964  1.2388 -1.1646  1.4094
  178SLPC   C2720235   4.218   2.484   5.849 -0.0026  1.2234  0.3607
  178SLPC   H7R20236   4.219   2.375   5.874  0.9476  0.9346 -0.8475
  178SLPC   H7S20237   4.323   2.518   5.839 -0.0493  0.8092 -2.1248
  178SLPC   C2820238   4.153   2.521   5.715 -0.0909  0.1334 -0.1954
  178SLPC   H8R20239   4.044   2.507   5.732  0.2219 -0.7108  1.3120
  178SLPC   H8S20240   4.179   2.444   5.639 -2.2667 -1.4075  0.5124
  178SLPC   C2920241   4.170   2.667   5.670  0.0608 -0.0379 -0.3274
  178SLPC   H9R20242   4.143   2.739   5.749  1.1920  0.3711 -0.2912
  178SLPC  C21020243   4.208   2.706   5.547 -0.2307 -0.0460 -0.3377
  178SLPC  H10R20244   4.204   2.816   5.539 -1.4124 -0.1655 -1.8754
  178SLPC  C21120245   4.258   2.616   5.438  0.6419 -0.5041  1.1363
  178SLPC  H11R20246   4.221   2.511   5.450 -1.7149  0.0006 -0.7649
  178SLPC  H11S20247   4.369   2.611   5.442  0.6117 -0.5339  2.1575
  178SLPC  C21220248   4.211   2.675   5.307  0.0034  0.1780 -0.2395
  178SLPC  H12R20249   4.184   2.780   5.292  0.3112  0.2624 -0.2040
  178SLPC  C21320250   4.221   2.601   5.196 -0.3727  0.1763 -0.6510
  178SLPC  H13R20251   4.198   2.650   5.100 -0.9387  0.8667 -0.1800
  178SLPC  C21420252   4.265   2.459   5.190 -0.4941 -0.0260  0.2377
  178SLPC  H14R20253   4.353   2.452   5.258  0.0028  1.8943 -0.1328
  178SLPC  H14S20254   4.301   2.445   5.085 -2.5481  1.7947 -0.7962
  178SLPC  C21520255   4.151   2.348   5.195  0.0710 -0.0595 -1.1161
  178SLPC  H15R20256   4.079   2.371   5.114 -0.9020  2.7194  0.4421
  178SLPC  H15S20257   4.102   2.343   5.294 -0.1946  0.6128 -1.2135
  178SLPC  C21620258   4.201   2.212   5.158  0.9057  0.3188 -0.4794
  178SLPC  H16R20259   4.284   2.192   5.229 -0.0702  1.7712  1.1448
  178SLPC  H16S20260   4.238   2.210   5.053  1.1727  2.2123 -0.4519
  178SLPC  C21720261   4.083   2.114   5.177  0.9026  0.1688 -0.8121
  178SLPC  H17R20262   3.993   2.141   5.118  0.5508 -2.3280 -1.5212
  178SLPC  H17S20263   4.044   2.122   5.281  0.3596  1.0580 -1.0705
  178SLPC  C21820264   4.114   1.972   5.144  0.3121 -0.8851 -0.5766
  178SLPC  H18R20265   4.201   1.940   5.205  0.0603 -2.7645 -1.1434
  178SLPC  H18S20266   4.127   1.941   5.038  3.9157 -2.8373  0.2907
  178SLPC  H18T20267   4.034   1.905   5.183  0.3191  0.1194  1.2791
  178SLPC   C3320268   3.824   2.219   6.560  0.2015 -0.4014  0.0982
  178SLPC   H3X20269   3.807   2.323   6.525 -0.4627 -0.2430  0.8387
  178SLPC   H3Y20270   3.729   2.189   6.610 -0.2320  0.8589  0.0648
  178SLPC   C3420271   3.842   2.133   6.436 -0.1788  0.4695 -0.2743
  178SLPC   H4X20272   3.745   2.116   6.385 -0.5246 -2.6163  1.2000
  178SLPC   H4Y20273   3.883   2.036   6.472  2.2644  0.2741 -3.2238
  178SLPC   C3520274   3.937   2.181   6.331  0.1830  0.1068 -0.1429
  178SLPC   H5X20275   4.034   2.128   6.343  0.1344  0.0019 -0.2015
  178SLPC   H5Y20276   3.966   2.288   6.322  0.5633  0.0385  0.2443
  178SLPC   C3620277   3.891   2.154   6.189  0.0141 -0.9299  0.0949
  178SLPC   H6X20278   3.795   2.206   6.167  0.7511 -0.4239 -2.2322
  178SLPC   H6Y20279   3.864   2.047   6.172 -1.6426 -0.7242  1.2094
  178SLPC   C3720280   3.998   2.199   6.081  0.7205  0.0161 -0.4916
  178SLPC   H7X20281   4.072   2.117   6.076 -0.9400 -1.5404 -0.8289
  178SLPC   H7Y20282   4.038   2.297   6.114 -0.5556  0.6766 -0.8210
  178SLPC   C3820283   3.920   2.230   5.952  0.0754 -0.3187  1.6862
  178SLPC   H8X20284   3.899   2.339   5.939  0.2918 -0.2277  2.0598
  178SLPC   H8Y20285   3.820   2.187   5.969  0.2430 -2.3033 -1.5059
  178SLPC   C3920286   3.981   2.164   5.828  0.2559  0.2441 -0.7564
  178SLPC   H9X20287   4.013   2.062   5.856  1.3376  0.2515 -1.8669
  178SLPC   H9Y20288   4.073   2.222   5.805  0.5026 -0.7254 -2.4363
  178SLPC  C31020289   3.884   2.157   5.707  0.4588 -0.1073 -0.1707
  178SLPC  H10X20290   3.847   2.260   5.687 -1.6469 -1.0627 -1.5785
  178SLPC  H10Y20291   3.789   2.109   5.737  0.6900 -1.4252 -1.4083
  178SLPC  C31120292   3.951   2.086   5.578  0.2780  0.3730 -0.4976
  178SLPC  H11X20293   4.010   1.996   5.605  1.3254 -0.4287 -4.7596
  178SLPC  H11Y20294   4.019   2.143   5.510 -2.8080  1.2102 -3.1466
  178SLPC  C31220295   3.845   2.033   5.485 -0.2911  0.0928 -0.3416
  178SLPC  H12X20296   3.770   1.970   5.539  0.7390 -0.4913  0.4298
  178SLPC  H12Y20297   3.902   1.967   5.416 -0.1606  0.1769 -0.3146
  178SLPC  C31320298   3.763   2.151   5.422  0.1610 -0.0491 -0.4142
  178SLPC  H13X20299   3.819   2.179   5.330 -0.3431  2.4784 -0.0043
  178SLPC  H13Y20300   3.759   2.238   5.490 -1.4024 -0.1209 -0.3893
  178SLPC  C31420301   3.615   2.117   5.385  0.0364 -0.2047  0.2609
  178SLPC  H14X20302   3.556   2.099   5.477  1.1634 -0.3867  0.9702
  178SLPC  H14Y20303   3.611   2.025   5.324 -2.8182 -0.9272  1.3699
  178SLPC  C31520304   3.539   2.221   5.304  0.3710 -0.5239  0.3462
  178SLPC  H15X20305   3.612   2.251   5.226 -0.7521 -1.8672 -1.2808
  178SLPC  H15Y20306   3.520   2.305   5.375 -3.3526 -1.2486  0.4192
  178SLPC  C31620307   3.403   2.171   5.244  0.0436 -1.1624 -0.3848
  178SLPC  H16X20308   3.345   2.120   5.323  0.3819 -1.6173 -0.4256
  178SLPC  H16Y20309   3.421   2.092   5.168 -1.8402 -1.4053 -0.6278
  178SLPC  C31720310   3.319   2.289   5.194 -0.6807 -0.4175  0.5378
  178SLPC  H17X20311   3.363   2.336   5.103 -1.1201  3.0482  1.9493
  178SLPC  H17Y20312   3.305   2.370   5.268 -1.5855  1.9339 -2.0086
  178SLPC  C31820313   3.183   2.250   5.141 -0.0046  0.3138 -0.0520
  178SLPC  H18X20314   3.125   2.228   5.234  1.0515 -0.4982  0.4425
  178SLPC  H18Y20315   3.184   2.154   5.085 -0.9513 -0.2981  0.9367
  178SLPC  H18Z20316   3.126   2.330   5.089  0.0397  1.2559  1.2837
  179SLPC     N20317   3.181   5.478   2.388 -0.2729  0.5253 -0.0064
  179SLPC   C1320318   3.304   5.560   2.354 -0.6644 -0.0930 -1.0331
  179SLPC  H13A20319   3.291   5.667   2.362  0.9602  0.2053 -1.9758
  179SLPC  H13B20320   3.374   5.520   2.425 -1.4235 -0.5809 -0.5452
  179SLPC  H13C20321   3.339   5.540   2.254 -1.0995 -3.4253 -0.6289
  179SLPC   C1420322   3.092   5.482   2.266  0.0828 -0.3755  0.6024
  179SLPC  H14A20323   3.137   5.425   2.185  0.8322 -0.9950  1.4383
  179SLPC  H14B20324   2.994   5.441   2.280 -0.2852 -0.2467 -1.3237
  179SLPC  H14C20325   3.090   5.586   2.235  2.3173  0.3038  2.4628
  179SLPC   C1520326   3.107   5.536   2.503  0.8751  0.1272  0.0514
  179SLPC  H15A20327   3.170   5.531   2.591  1.1884  1.0195 -0.1179
  179SLPC  H15B20328   3.083   5.639   2.481  0.2193 -0.4888 -2.4469
  179SLPC  H15C20329   3.020   5.482   2.538  0.0697  1.1681 -0.3023
  179SLPC   C1220330   3.222   5.338   2.408 -0.1993 -0.3809 -0.5053
  179SLPC  H12A20331   3.286   5.310   2.325  2.4508 -0.3170  1.3721
  179SLPC  H12B20332   3.141   5.267   2.410 -0.5147 -0.0155  0.3241
  179SLPC   C1120333   3.312   5.298   2.531 -0.2556  0.1942 -0.4882
  179SLPC  H11A20334   3.316   5.188   2.541 -2.9771  0.1750  1.5541
  179SLPC  H11B20335   3.276   5.349   2.623 -1.2704  0.6672 -1.1231
  179SLPC     P20336   3.567   5.296   2.425 -0.2865 -0.0742  0.2157
  179SLPC   O1320337   3.514   5.235   2.300  0.4651 -0.8257 -1.0848
  179SLPC   O1420338   3.659   5.413   2.408  0.3309 -0.4746 -0.3933
  179SLPC   O1220339   3.453   5.340   2.515  0.1163 -0.1982 -0.3824
  179SLPC   O1120340   3.647   5.184   2.510 -0.1984  0.8212 -0.2737
  179SLPC    C120341   3.724   5.217   2.624 -0.9841 -0.4455 -0.3688
  179SLPC    HA20342   3.815   5.155   2.615 -0.6142 -0.1957  1.3468
  179SLPC    HB20343   3.762   5.321   2.624  1.2953 -1.2375  0.2472
  179SLPC    C220344   3.662   5.181   2.759  0.2694 -0.2587  1.0814
  179SLPC    HS20345   3.595   5.092   2.757  0.3663 -0.3298  0.9440
  179SLPC   O2120346   3.592   5.295   2.819  0.9233 -0.0563  0.2828
  179SLPC   C2120347   3.473   5.279   2.870 -0.2217 -0.7147  0.5139
  179SLPC   O2220348   3.414   5.173   2.874 -0.1781  0.0404  0.1921
  179SLPC   C2220349   3.410   5.416   2.916  0.0789  0.4610 -0.2886
  179SLPC   H2R20350   3.442   5.488   2.838  0.7457  0.5616  0.0696
  179SLPC   H2S20351   3.300   5.410   2.911  0.0825  0.7119 -0.7063
  179SLPC    C320352   3.777   5.142   2.859  0.1294 -0.6821 -0.5574
  179SLPC    HX20353   3.848   5.226   2.843 -0.1713 -0.5561 -1.2854
  179SLPC    HY20354   3.835   5.052   2.833 -2.4088 -2.0229 -2.0209
  179SLPC   O3120355   3.728   5.148   2.995  0.3389 -0.3919  0.7252
  179SLPC   C3120356   3.685   5.022   3.030 -0.0975  0.1004  0.1061
  179SLPC   O3220357   3.693   4.924   2.959 -0.7616 -0.2613 -0.0889
  179SLPC   C3220358   3.642   5.007   3.171  0.6223  0.0967 -0.0783
  179SLPC   H2X20359   3.717   4.939   3.216  0.4967  0.1715  0.2471
  179SLPC   H2Y20360   3.540   4.962   3.171 -0.2579  1.9520 -1.0751
  179SLPC   C2320361   3.458   5.447   3.061  0.1252 -0.0870  0.3686
  179SLPC   H3R20362   3.455   5.557   3.077 -1.3299  0.0821 -0.8151
  179SLPC   H3S20363   3.566   5.425   3.071  0.2245  0.5546  0.7050
  179SLPC   C2420364   3.370   5.395   3.177  0.5116 -0.3464  0.5749
  179SLPC   H4R20365   3.356   5.285   3.172  0.9759 -0.3578 -1.3375
  179SLPC   H4S20366   3.271   5.442   3.159  0.9571  0.6995  0.8191
  179SLPC   C2520367   3.419   5.457   3.304 -0.2081 -0.3639 -0.2397
  179SLPC   H5R20368   3.417   5.568   3.296  0.1057 -0.2199  1.3478
  179SLPC   H5S20369   3.526   5.428   3.302 -0.7433 -2.5414 -0.8342
  179SLPC   C2620370   3.347   5.412   3.430 -0.7893 -0.2218 -0.1473
  179SLPC   H6R20371   3.349   5.301   3.431 -0.0012 -0.2166  0.9723
  179SLPC   H6S20372   3.242   5.448   3.436  0.0837  3.3707 -3.1153
  179SLPC   C2720373   3.413   5.472   3.556  0.2967  0.0617  0.3616
  179SLPC   H7R20374   3.418   5.582   3.541  1.3855  0.3881  2.6132
  179SLPC   H7S20375   3.516   5.431   3.564 -0.7035 -2.7012  0.3886
  179SLPC   C2820376   3.332   5.441   3.681  0.5897 -0.2433 -0.5870
  179SLPC   H8R20377   3.227   5.478   3.671  0.5134 -0.5694 -0.9810
  179SLPC   H8S20378   3.367   5.498   3.770 -2.7926 -1.5000  1.7817
  179SLPC   C2920379   3.333   5.295   3.713 -0.4339 -0.1382  0.2950
  179SLPC   H9R20380   3.340   5.226   3.628 -2.9216  0.2821 -0.3374
  179SLPC  C21020381   3.336   5.243   3.831 -0.4379  0.2746 -0.4418
  179SLPC  H10R20382   3.342   5.134   3.845 -0.9910  0.5964  3.6507
  179SLPC  C21120383   3.337   5.319   3.967 -0.2817  0.9517  0.4056
  179SLPC  H11R20384   3.268   5.269   4.039  0.8715  0.0118  0.8923
  179SLPC  H11S20385   3.302   5.423   3.954  0.3333  0.9883 -1.1664
  179SLPC  C21220386   3.476   5.324   4.022 -1.1702  0.0441  0.2076
  179SLPC  H12R20387   3.542   5.369   3.946 -0.8523  0.8553  0.9533
  179SLPC  C21320388   3.526   5.289   4.147  0.8030 -0.0667  0.0644
  179SLPC  H13R20389   3.631   5.320   4.161  0.7498  2.1192 -3.1291
  179SLPC  C21420390   3.452   5.234   4.264  0.4447  0.3767 -0.7122
  179SLPC  H14R20391   3.457   5.123   4.268  1.2477  0.3872 -1.1718
  179SLPC  H14S20392   3.346   5.259   4.242  0.9299  3.0712 -0.2654
  179SLPC  C21520393   3.488   5.291   4.403  0.6461 -0.8872 -0.4882
  179SLPC  H15R20394   3.598   5.282   4.421  0.8727  0.1717 -1.2630
  179SLPC  H15S20395   3.422   5.250   4.482  0.6357  0.2567  0.1344
  179SLPC  C21620396   3.462   5.445   4.413 -0.0269 -0.8190  0.1634
  179SLPC  H16R20397   3.377   5.462   4.343  1.5671 -2.5004 -2.3757
  179SLPC  H16S20398   3.553   5.492   4.369 -0.8368 -0.7116 -1.4935
  179SLPC  C21720399   3.430   5.497   4.554 -0.5457 -0.5266 -0.4716
  179SLPC  H17R20400   3.342   5.438   4.586  1.3903 -1.9256  2.7934
  179SLPC  H17S20401   3.405   5.605   4.553 -0.9499 -0.6176 -0.2585
  179SLPC  C21820402   3.535   5.460   4.662 -0.3101  0.0292  0.0526
  179SLPC  H18R20403   3.575   5.357   4.654 -2.2544 -0.7052 -0.9856
  179SLPC  H18S20404   3.487   5.463   4.763 -2.3874  1.4346 -0.9155
  179SLPC  H18T20405   3.625   5.524   4.655  0.7801 -1.5004 -0.5897
  179SLPC   C3320406   3.641   5.139   3.255  0.1113 -0.5778  0.1260
  179SLPC   H3X20407   3.569   5.210   3.210  0.0680  0.2514  1.4537
  179SLPC   H3Y20408   3.738   5.194   3.254 -0.3612  0.2527 -0.3065
  179SLPC   C3420409   3.598   5.109   3.400  0.1598  0.1344 -0.0855
  179SLPC   H4X20410   3.540   5.015   3.415 -0.8869  0.9469  1.1374
  179SLPC   H4Y20411   3.544   5.197   3.442 -0.1051 -0.4979  0.9313
  179SLPC   C3520412   3.721   5.089   3.492 -0.0665  0.0899 -0.6233
  179SLPC   H5X20413   3.779   5.003   3.454 -1.0184 -0.9998  0.3258
  179SLPC   H5Y20414   3.793   5.172   3.471  2.9281 -2.2348 -0.2784
  179SLPC   C3620415   3.684   5.077   3.639  0.0488  0.2213  0.1631
  179SLPC   H6X20416   3.602   5.004   3.649  0.1119  0.1666  0.2895
  179SLPC   H6Y20417   3.644   5.176   3.669  0.1050 -0.0352  1.1171
  179SLPC   C3720418   3.809   5.045   3.722  0.8068 -0.0121 -0.4234
  179SLPC   H7X20419   3.865   5.140   3.710 -0.3958  0.7846  0.0722
  179SLPC   H7Y20420   3.872   4.963   3.681  1.2267 -1.1476  2.2586
  179SLPC   C3820421   3.768   5.014   3.868 -0.3636  0.2862  0.6233
  179SLPC   H8X20422   3.704   4.923   3.864 -0.4551  0.3808 -0.2550
  179SLPC   H8Y20423   3.702   5.099   3.894 -2.2581 -1.1394  0.6263
  179SLPC   C3920424   3.878   5.006   3.978  0.2224  0.5097  0.1251
  179SLPC   H9X20425   3.941   5.097   3.984  0.1974  0.4581  1.6061
  179SLPC   H9Y20426   3.930   4.910   3.956 -0.8882  0.1949 -1.2777
  179SLPC  C31020427   3.812   4.993   4.117  0.1909  0.7915 -0.4009
  179SLPC  H10X20428   3.748   4.903   4.121 -2.2443  2.3259 -2.1334
  179SLPC  H10Y20429   3.746   5.082   4.128 -1.1890  0.2084 -3.1142
  179SLPC  C31120430   3.912   4.996   4.234 -1.7715 -0.3834 -0.0283
  179SLPC  H11X20431   3.961   5.096   4.236  0.7465 -1.5653  0.1573
  179SLPC  H11Y20432   3.990   4.923   4.204  0.2384  1.6591 -0.0312
  179SLPC  C31220433   3.839   4.970   4.368 -0.1334 -0.2861 -0.3171
  179SLPC  H12X20434   3.803   4.865   4.364 -0.2994 -0.2024 -0.9931
  179SLPC  H12Y20435   3.754   5.042   4.379 -0.4506 -0.8145  0.8924
  179SLPC  C31320436   3.937   4.980   4.488  0.1674 -0.0503  0.2747
  179SLPC  H13X20437   3.972   5.085   4.487  1.1912 -0.3621 -1.4876
  179SLPC  H13Y20438   4.027   4.918   4.465  1.3222  1.3315  0.9062
  179SLPC  C31420439   3.881   4.928   4.619  0.1693  1.2439 -0.1995
  179SLPC  H14X20440   3.851   4.822   4.602  1.2675  1.1037 -1.3708
  179SLPC  H14Y20441   3.792   4.990   4.646 -0.8150  0.1958 -0.9570
  179SLPC  C31520442   3.979   4.931   4.740 -0.4842  0.0646  0.4647
  179SLPC  H15X20443   4.069   4.868   4.724 -0.6815  0.2863 -2.0135
  179SLPC  H15Y20444   3.939   4.881   4.831  1.2485  1.0103  1.8011
  179SLPC  C31620445   4.018   5.070   4.792 -0.8541  0.6766 -0.3510
  179SLPC  H16X20446   3.925   5.130   4.802 -1.9377 -1.2034  1.8264
  179SLPC  H16Y20447   4.096   5.112   4.724  0.5868  1.2152  1.5329
  179SLPC  C31720448   4.102   5.068   4.923 -0.2635  0.8087 -0.1964
  179SLPC  H17X20449   4.047   5.005   4.995  0.1321  0.4269 -0.2255
  179SLPC  H17Y20450   4.090   5.169   4.968  1.3436  2.2774 -2.7837
  179SLPC  C31820451   4.250   5.034   4.906  0.0607 -1.3677 -0.3453
  179SLPC  H18X20452   4.317   5.056   4.992  1.1785  1.8798 -1.9108
  179SLPC  H18Y20453   4.286   5.100   4.824  1.4316 -0.2439  1.1079
  179SLPC  H18Z20454   4.259   4.930   4.865 -0.2041 -0.8158 -1.8785
  180SLPC     N20455   1.280   5.351   2.276  0.2301 -0.1436  0.2919
  180SLPC   C1320456   1.325   5.209   2.257  0.0977 -0.1840  0.7590
  180SLPC  H13A20457   1.291   5.162   2.166 -0.7479  0.4460  0.7424
  180SLPC  H13B20458   1.432   5.216   2.241 -0.1712  1.1342 -0.6548
  180SLPC  H13C20459   1.295   5.137   2.332  0.0169 -0.3364  0.5792
  180SLPC   C1420460   1.135   5.370   2.246  0.4018  0.2516 -0.7518
  180SLPC  H14A20461   1.069   5.314   2.310 -0.9666  1.8945 -0.6308
  180SLPC  H14B20462   1.111   5.475   2.247 -0.0411  0.1712 -1.8279
  180SLPC  H14C20463   1.118   5.334   2.145  0.9993 -0.2337 -0.6852
  180SLPC   C1520464   1.362   5.433   2.182  0.3685 -0.0540 -0.0572
  180SLPC  H15A20465   1.323   5.534   2.174 -1.2585 -0.8067 -3.4781
  180SLPC  H15B20466   1.469   5.438   2.198  0.2934  1.9845  0.0549
  180SLPC  H15C20467   1.356   5.398   2.080 -0.2781 -0.9536  0.2767
  180SLPC   C1220468   1.313   5.403   2.414  0.0229 -0.5035 -0.3006
  180SLPC  H12A20469   1.241   5.362   2.484  0.4212 -1.2869 -0.3293
  180SLPC  H12B20470   1.308   5.510   2.417  1.2712 -0.4340 -0.2698
  180SLPC   C1120471   1.449   5.360   2.470 -0.4562 -0.1878  0.1599
  180SLPC  H11A20472   1.496   5.268   2.429  0.8552 -0.4825  2.1624
  180SLPC  H11B20473   1.435   5.330   2.576 -0.2910  0.0659  0.2561
  180SLPC     P20474   1.560   5.598   2.527  0.0082 -0.4265  0.5575
  180SLPC   O1320475   1.669   5.672   2.457 -0.4068  0.3774  0.3441
  180SLPC   O1420476   1.430   5.671   2.531 -0.1821  0.9185  0.0323
  180SLPC   O1220477   1.541   5.465   2.446 -0.5038  0.2609  0.2170
  180SLPC   O1120478   1.608   5.550   2.671 -0.0917 -0.4728  1.1436
  180SLPC    C120479   1.714   5.451   2.684  0.4456 -0.8692  0.4930
  180SLPC    HA20480   1.728   5.377   2.602  3.6403 -1.8587  1.7602
  180SLPC    HB20481   1.813   5.502   2.691  0.7179 -1.2692 -0.2577
  180SLPC    C220482   1.695   5.373   2.817 -1.1630 -0.0406 -0.2685
  180SLPC    HS20483   1.605   5.310   2.804 -0.3105 -1.2904 -0.3427
  180SLPC   O2120484   1.682   5.475   2.921 -0.6313  0.1974 -0.2157
  180SLPC   C2120485   1.595   5.441   3.011 -0.1978  0.6689 -0.0745
  180SLPC   O2220486   1.516   5.348   3.018  0.1023  0.0253 -0.0733
  180SLPC   C2220487   1.623   5.524   3.133  0.4289 -0.8394  0.4566
  180SLPC   H2R20488   1.721   5.577   3.127  0.2118 -0.3946  0.7739
  180SLPC   H2S20489   1.547   5.605   3.130  0.7304 -0.5810 -0.4819
  180SLPC    C320490   1.823   5.282   2.840 -0.8349  0.1306 -0.4592
  180SLPC    HX20491   1.912   5.346   2.825 -0.0862 -0.6202  0.5783
  180SLPC    HY20492   1.834   5.197   2.770  0.8416 -0.3387  0.3158
  180SLPC   O3120493   1.853   5.243   2.980  0.5414 -0.1534  0.0190
  180SLPC   C3120494   1.772   5.136   2.998 -0.1162 -0.1183 -0.3493
  180SLPC   O3220495   1.699   5.091   2.910  0.0575  0.4273 -0.4302
  180SLPC   C3220496   1.788   5.083   3.144  0.4669 -0.4093 -0.0810
  180SLPC   H2X20497   1.778   5.161   3.223  1.4742  0.0547 -0.3911
  180SLPC   H2Y20498   1.897   5.063   3.147  0.3157 -1.2454 -0.0303
  180SLPC   C2320499   1.609   5.436   3.265  0.1349  0.0070  0.8691
  180SLPC   H3R20500   1.670   5.343   3.268  0.0106 -0.0653  3.0989
  180SLPC   H3S20501   1.502   5.406   3.276  0.4901 -1.8181 -0.2875
  180SLPC   C2420502   1.632   5.521   3.392 -0.4958  0.0626  0.4256
  180SLPC   H4R20503   1.565   5.609   3.382 -1.4326 -0.1511  3.7341
  180SLPC   H4S20504   1.736   5.556   3.410 -0.3317  0.4176 -1.0649
  180SLPC   C2520505   1.591   5.441   3.511 -0.3879 -0.0806 -0.0875
  180SLPC   H5R20506   1.660   5.354   3.512 -0.1425  0.1066  0.9795
  180SLPC   H5S20507   1.487   5.402   3.504 -1.3231  1.9997  1.0916
  180SLPC   C2620508   1.598   5.495   3.658 -0.5050 -0.0793 -0.1599
  180SLPC   H6R20509   1.539   5.589   3.657  0.1110  0.3161  0.0629
  180SLPC   H6S20510   1.699   5.527   3.688 -0.6115  0.5878 -0.4781
  180SLPC   C2720511   1.541   5.410   3.774 -0.1737  0.3723  0.0702
  180SLPC   H7R20512   1.610   5.323   3.779  0.7040  1.1090  3.2329
  180SLPC   H7S20513   1.439   5.369   3.762  0.0444 -1.2111  2.8028
  180SLPC   C2820514   1.541   5.488   3.905 -0.0388 -0.2178 -0.4021
  180SLPC   H8R20515   1.648   5.519   3.905 -0.7857  2.6175 -0.2154
  180SLPC   H8S20516   1.522   5.410   3.982 -0.8281 -0.5262 -0.8972
  180SLPC   C2920517   1.456   5.607   3.922 -0.2578  0.5204 -1.0913
  180SLPC   H9R20518   1.357   5.614   3.874 -2.5265  1.2527  3.2339
  180SLPC  C21020519   1.490   5.720   3.988 -0.1952 -0.1786 -0.2674
  180SLPC  H10R20520   1.438   5.816   3.978  1.9646  1.0607 -0.4187
  180SLPC  C21120521   1.624   5.737   4.059  0.5296 -0.0404 -0.3669
  180SLPC  H11R20522   1.704   5.757   3.985  0.6336 -1.3185 -0.6260
  180SLPC  H11S20523   1.647   5.645   4.118 -2.4616 -0.6884 -0.0312
  180SLPC  C21220524   1.623   5.851   4.158  1.1598  0.1192 -0.8966
  180SLPC  H12R20525   1.667   5.948   4.128  0.3374  0.3401 -1.4245
  180SLPC  C21320526   1.556   5.839   4.274 -0.8658  0.2552 -0.1755
  180SLPC  H13R20527   1.550   5.938   4.321 -0.3919  1.5417 -2.6747
  180SLPC  C21420528   1.472   5.718   4.326  0.1324  0.2400 -0.0753
  180SLPC  H14R20529   1.532   5.639   4.377 -1.3226 -0.3073  0.8325
  180SLPC  H14S20530   1.434   5.658   4.241  0.2259  0.3580 -0.2024
  180SLPC  C21520531   1.348   5.759   4.408 -0.1920  0.0342 -0.0855
  180SLPC  H15R20532   1.302   5.664   4.441 -1.9695  0.9141  0.0731
  180SLPC  H15S20533   1.275   5.810   4.342 -0.3263 -1.2212 -0.9391
  180SLPC  C21620534   1.377   5.848   4.531  0.2948  0.0477  0.4055
  180SLPC  H16R20535   1.284   5.894   4.570  0.2388  0.5637 -0.3082
  180SLPC  H16S20536   1.430   5.937   4.490 -0.7117  0.1191 -0.8016
  180SLPC  C21720537   1.467   5.783   4.632  0.0653 -0.0053  0.3970
  180SLPC  H17R20538   1.492   5.841   4.723  0.9007 -1.4193  1.0962
  180SLPC  H17S20539   1.560   5.768   4.572  0.1332  0.4924  0.3745
  180SLPC  C21820540   1.432   5.640   4.679 -0.3935  0.0962  0.2209
  180SLPC  H18R20541   1.407   5.575   4.592  0.5730 -1.8842  1.3624
  180SLPC  H18S20542   1.340   5.652   4.739  0.1056 -1.5744  1.4181
  180SLPC  H18T20543   1.506   5.585   4.741 -0.7102 -2.3315 -1.4052
  180SLPC   C3320544   1.675   4.978   3.178 -0.6167  0.1404 -0.4995
  180SLPC   H3X20545   1.693   4.894   3.108  2.1859 -0.9915  1.4029
  180SLPC   H3Y20546   1.575   5.026   3.165 -0.6037  0.7032  1.2290
  180SLPC   C3420547   1.682   4.926   3.320  0.3685  0.1595  0.1364
  180SLPC   H4X20548   1.790   4.922   3.349  0.7777  1.1364 -1.1415
  180SLPC   H4Y20549   1.630   4.829   3.320 -1.9789  1.3514  0.7028
  180SLPC   C3520550   1.608   5.020   3.417  0.0383 -0.5656 -0.2098
  180SLPC   H5X20551   1.502   5.024   3.386  0.6416  1.0644 -2.2469
  180SLPC   H5Y20552   1.648   5.123   3.413 -3.1780  0.7704 -0.5644
  180SLPC   C3620553   1.625   4.968   3.557  0.3166  0.2458  0.3198
  180SLPC   H6X20554   1.730   4.997   3.577  1.1632 -0.7676 -2.2347
  180SLPC   H6Y20555   1.609   4.859   3.573 -1.3910  0.1788 -1.4620
  180SLPC   C3720556   1.538   5.038   3.662 -0.6019 -0.0190 -0.1041
  180SLPC   H7X20557   1.437   4.994   3.651 -0.4188 -0.8117  1.1217
  180SLPC   H7Y20558   1.551   5.147   3.645  1.1257  0.2637  2.4830
  180SLPC   C3820559   1.575   5.013   3.807 -0.9270  0.2653  0.7370
  180SLPC   H8X20560   1.680   5.045   3.826 -0.8787 -0.0961  1.0859
  180SLPC   H8Y20561   1.571   4.903   3.822 -0.2036  0.4386  2.3561
  180SLPC   C3920562   1.485   5.074   3.921 -0.5701  0.1184 -0.3797
  180SLPC   H9X20563   1.380   5.037   3.922 -0.0190 -1.5541  0.9603
  180SLPC   H9Y20564   1.484   5.184   3.908  0.4464 -0.1851 -4.2770
  180SLPC  C31020565   1.544   5.033   4.060  0.9309 -0.2474  0.2541
  180SLPC  H10X20566   1.650   5.061   4.076  0.5887  0.2855  1.8050
  180SLPC  H10Y20567   1.549   4.922   4.063 -0.7165 -0.3316  1.3829
  180SLPC  C31120568   1.450   5.070   4.187  0.0607 -0.0982 -0.6973
  180SLPC  H11X20569   1.346   5.041   4.163  0.2926 -1.9146  0.3395
  180SLPC  H11Y20570   1.453   5.180   4.198 -1.9268 -0.2786  3.1147
  180SLPC  C31220571   1.504   5.020   4.314 -0.0654 -0.2919  0.1803
  180SLPC  H12X20572   1.604   5.067   4.322 -0.7511  1.0676  1.1932
  180SLPC  H12Y20573   1.499   4.909   4.309 -3.9294 -0.3012  0.5677
  180SLPC  C31320574   1.414   5.058   4.435  0.0398 -0.1991  0.5565
  180SLPC  H13X20575   1.466   5.019   4.525  2.1411  2.2975  0.5393
  180SLPC  H13Y20576   1.319   5.002   4.422 -0.1095 -0.0367  0.9453
  180SLPC  C31420577   1.383   5.209   4.456  0.0629 -0.0617 -0.0939
  180SLPC  H14X20578   1.310   5.248   4.382 -0.1395 -0.8464 -0.3137
  180SLPC  H14Y20579   1.473   5.272   4.444 -1.3273  2.0063 -0.1879
  180SLPC  C31520580   1.316   5.239   4.592  0.0469 -0.0788  0.3254
  180SLPC  H15X20581   1.234   5.163   4.597  0.8991 -0.9621  1.4783
  180SLPC  H15Y20582   1.271   5.340   4.583  1.8205  0.6213 -1.6151
  180SLPC  C31620583   1.401   5.223   4.711  0.5048  0.2661  0.6685
  180SLPC  H16X20584   1.470   5.309   4.725 -1.0395  1.7381 -0.4242
  180SLPC  H16Y20585   1.477   5.142   4.696  0.9409  0.9237 -0.8430
  180SLPC  C31720586   1.329   5.203   4.847 -0.9167  0.2653 -0.6603
  180SLPC  H17X20587   1.272   5.108   4.843  1.6826 -1.3519 -1.8423
  180SLPC  H17Y20588   1.271   5.297   4.858  0.8564  1.1358  2.5774
  180SLPC  C31820589   1.428   5.195   4.966  0.9019  0.1546  0.0680
  180SLPC  H18X20590   1.504   5.275   4.959 -0.3259  1.2651 -0.9334
  180SLPC  H18Y20591   1.474   5.094   4.956 -0.3868 -0.3552 -1.0369
  180SLPC  H18Z20592   1.375   5.210   5.063  0.9211 -0.5822  0.1985
  181SLPC     N20593   0.737   3.777   2.448  0.2625  0.1090  0.3087
  181SLPC   C1320594   0.861   3.854   2.439  0.0515  0.0272  0.3872
  181SLPC  H13A20595   0.893   3.864   2.337 -2.7489  0.0806 -0.5653
  181SLPC  H13B20596   0.845   3.956   2.471 -0.9521 -0.5812  1.9509
  181SLPC  H13C20597   0.947   3.813   2.490  1.0150  1.0669 -0.3587
  181SLPC   C1420598   0.704   3.752   2.595 -0.3137  0.0837  0.3602
  181SLPC  H14A20599   0.683   3.843   2.650  1.1009  1.2414 -0.9150
  181SLPC  H14B20600   0.630   3.675   2.604 -0.3860  0.3975  3.7676
  181SLPC  H14C20601   0.797   3.718   2.638 -1.8314 -2.2357  2.0324
  181SLPC   C1520602   0.757   3.639   2.382 -0.5340 -0.9824 -0.4459
  181SLPC  H15A20603   0.842   3.592   2.430 -0.8136 -1.1873 -0.1420
  181SLPC  H15B20604   0.667   3.581   2.393 -1.1990  0.1432  0.2309
  181SLPC  H15C20605   0.791   3.653   2.281 -0.1460 -0.5776 -0.2650
  181SLPC   C1220606   0.623   3.855   2.375  0.2048 -0.6557  0.1323
  181SLPC  H12A20607   0.529   3.803   2.387 -0.7918  0.4545 -2.1905
  181SLPC  H12B20608   0.642   3.846   2.269 -2.6831 -0.8678 -0.4633
  181SLPC   C1120609   0.603   4.006   2.423  0.5915 -0.3795 -0.0350
  181SLPC  H11A20610   0.573   4.001   2.530  1.1176  2.0200  0.2776
  181SLPC  H11B20611   0.516   4.046   2.365 -0.3509 -1.4056  0.6401
  181SLPC     P20612   0.764   4.201   2.516 -0.0729 -0.0433 -0.1819
  181SLPC   O1320613   0.888   4.152   2.580 -0.1354 -0.7764  0.3232
  181SLPC   O1420614   0.758   4.335   2.454  0.0293 -0.0505 -0.0737
  181SLPC   O1220615   0.712   4.092   2.410 -0.0446  0.1938 -0.3721
  181SLPC   O1120616   0.645   4.193   2.619 -0.4807  0.4715 -1.0081
  181SLPC    C120617   0.613   4.302   2.711  0.3446  0.0858  0.2984
  181SLPC    HA20618   0.615   4.401   2.660 -1.2386  0.2817  0.5558
  181SLPC    HB20619   0.516   4.296   2.764  0.8344  0.1374  1.2252
  181SLPC    C220620   0.719   4.327   2.822 -0.0878 -0.1218  0.0507
  181SLPC    HS20621   0.808   4.353   2.761 -0.9654  1.2668 -0.6885
  181SLPC   O2120622   0.735   4.201   2.893 -0.1444  0.9425 -0.3646
  181SLPC   C2120623   0.853   4.180   2.945 -0.0807  0.1855  0.1186
  181SLPC   O2220624   0.950   4.255   2.945 -0.0797 -0.3906  0.5939
  181SLPC   C2220625   0.861   4.035   3.000 -0.1976 -0.2889  0.1705
  181SLPC   H2R20626   0.764   4.012   3.048 -1.6267 -1.5413 -3.0335
  181SLPC   H2S20627   0.876   3.964   2.916  0.8927 -1.5498  1.3756
  181SLPC    C320628   0.688   4.449   2.915 -0.2745  0.3360 -0.5703
  181SLPC    HX20629   0.584   4.451   2.956 -0.3260  0.3598 -0.7042
  181SLPC    HY20630   0.686   4.541   2.854  0.2431  0.2941 -0.6572
  181SLPC   O3120631   0.776   4.460   3.037  0.1252 -0.4472  0.3841
  181SLPC   C3120632   0.884   4.537   3.013 -0.3603  0.5292 -0.7963
  181SLPC   O3220633   0.919   4.583   2.906 -0.0426 -0.3694  0.1263
  181SLPC   C3220634   0.977   4.533   3.135 -0.0550 -0.1386 -0.2179
  181SLPC   H2X20635   1.020   4.635   3.137 -0.1436 -0.0996 -0.3040
  181SLPC   H2Y20636   1.064   4.466   3.116 -0.5135 -0.7197 -0.3128
  181SLPC   C2320637   0.974   4.017   3.111 -0.1012 -0.4454 -0.5328
  181SLPC   H3R20638   1.073   4.054   3.079 -0.5045  0.9450 -0.2310
  181SLPC   H3S20639   0.989   3.908   3.126  0.2970 -0.3414 -0.1611
  181SLPC   C2420640   0.944   4.067   3.257  0.3349 -0.0018  0.1982
  181SLPC   H4R20641   0.851   4.020   3.297 -0.4968  1.2639 -0.2207
  181SLPC   H4S20642   0.935   4.177   3.264  1.3876  0.0909  0.2055
  181SLPC   C2520643   1.050   4.029   3.355  0.4139 -0.8745  0.6848
  181SLPC   H5R20644   1.142   4.066   3.305 -0.8367 -0.7398 -1.6304
  181SLPC   H5S20645   1.044   3.918   3.366  0.6010 -0.8301  1.2586
  181SLPC   C2620646   1.047   4.102   3.488 -0.3558 -0.6574 -0.8928
  181SLPC   H6R20647   0.945   4.106   3.532 -0.0014 -2.2882  0.1507
  181SLPC   H6S20648   1.077   4.209   3.474  3.0306 -1.0614  1.9217
  181SLPC   C2720649   1.139   4.036   3.596 -0.4915 -0.1641 -0.6250
  181SLPC   H7R20650   1.238   4.031   3.546 -1.5067  0.0874 -2.7634
  181SLPC   H7S20651   1.106   3.930   3.597  0.4296 -0.4671  0.2401
  181SLPC   C2820652   1.113   4.094   3.739 -0.3768 -0.1354  1.3685
  181SLPC   H8R20653   1.003   4.109   3.752 -0.1918  1.2318  1.4339
  181SLPC   H8S20654   1.143   4.201   3.738 -3.0149  0.6754  0.3178
  181SLPC   C2920655   1.177   3.994   3.837 -0.6048 -0.2195 -0.9226
  181SLPC   H9R20656   1.267   3.939   3.805  1.6178  1.4627  1.9497
  181SLPC  C21020657   1.138   3.977   3.966 -0.3617  0.2759 -0.7188
  181SLPC  H10R20658   1.196   3.900   4.019  0.3212 -2.1102 -4.5076
  181SLPC  C21120659   1.030   4.054   4.041  0.0309 -0.0772 -0.0209
  181SLPC  H11R20660   0.959   4.100   3.970 -0.3238 -1.1203 -0.3655
  181SLPC  H11S20661   1.063   4.139   4.104  0.7315  0.9470 -1.7328
  181SLPC  C21220662   0.944   3.952   4.111 -0.8095 -0.2396  0.9070
  181SLPC  H12R20663   0.877   3.896   4.044  1.2328  0.9776 -2.4193
  181SLPC  C21320664   0.925   3.932   4.242  0.1478  0.2565 -0.6538
  181SLPC  H13R20665   0.873   3.840   4.271  0.2676  0.8826  1.7107
  181SLPC  C21420666   1.007   4.002   4.344  0.6249 -0.3446 -0.3959
  181SLPC  H14R20667   0.940   4.060   4.411 -1.0464 -1.0918 -1.3581
  181SLPC  H14S20668   1.077   4.076   4.300  1.4226  0.6521  2.3502
  181SLPC  C21520669   1.075   3.886   4.421  0.5336 -0.0079 -0.4199
  181SLPC  H15R20670   1.142   3.834   4.349  1.3581  0.5142 -0.0403
  181SLPC  H15S20671   1.010   3.805   4.460  1.2553  0.1080  1.0735
  181SLPC  C21620672   1.155   3.943   4.538 -0.5590 -0.1463  0.2508
  181SLPC  H16R20673   1.184   3.857   4.603 -0.0182  0.4045  0.7474
  181SLPC  H16S20674   1.086   4.004   4.599 -2.2057 -0.5713 -1.1095
  181SLPC  C21720675   1.277   4.027   4.510  0.0334 -0.2763 -0.2729
  181SLPC  H17R20676   1.246   4.124   4.465 -0.9420 -0.2495  0.4253
  181SLPC  H17S20677   1.337   3.971   4.435  2.4810  2.7978 -0.8269
  181SLPC  C21820678   1.362   4.050   4.636 -0.4018 -0.0413  0.1813
  181SLPC  H18R20679   1.457   4.100   4.611  1.4564 -1.5191  3.5573
  181SLPC  H18S20680   1.388   3.959   4.694 -1.4123 -0.8694 -0.6297
  181SLPC  H18T20681   1.307   4.113   4.709 -0.1907  0.9725 -0.5182
  181SLPC   C3320682   0.905   4.500   3.265  0.4078 -0.2884  0.1298
  181SLPC   H3X20683   0.857   4.400   3.262 -0.9596  0.3800 -1.0483
  181SLPC   H3Y20684   0.825   4.574   3.286  1.5240  0.9470  0.1968
  181SLPC   C3420685   0.997   4.517   3.383 -0.1282 -0.0888  0.1920
  181SLPC   H4X20686   1.049   4.615   3.379 -0.4417  0.0616 -0.1518
  181SLPC   H4Y20687   1.073   4.435   3.382 -0.7122 -0.8178  3.2011
  181SLPC   C3520688   0.921   4.498   3.519 -0.3321  0.4012  0.4812
  181SLPC   H5X20689   0.887   4.392   3.523 -0.1808  0.3746  1.1823
  181SLPC   H5Y20690   0.829   4.559   3.519 -0.2232  0.6050  1.6737
  181SLPC   C3620691   1.007   4.504   3.646 -0.7617  0.1884  0.0029
  181SLPC   H6X20692   1.035   4.608   3.673 -0.5858  0.7341 -2.1375
  181SLPC   H6Y20693   1.093   4.443   3.611 -1.2283  0.1205 -1.0539
  181SLPC   C3720694   0.950   4.438   3.777  0.2004 -0.6170  0.4231
  181SLPC   H7X20695   0.924   4.330   3.772 -2.3956 -0.0617  0.0453
  181SLPC   H7Y20696   0.849   4.480   3.796  0.9535  0.6196  1.8366
  181SLPC   C3820697   1.029   4.453   3.911 -1.0058 -0.0931 -0.0776
  181SLPC   H8X20698   1.066   4.556   3.930  1.1626 -0.7018 -0.7300
  181SLPC   H8Y20699   1.117   4.388   3.890 -0.7784  0.3328 -0.4507
  181SLPC   C3920700   0.949   4.394   4.033 -0.6103 -1.1747  0.0589
  181SLPC   H9X20701   0.918   4.290   4.010 -0.3089 -1.3229  0.3058
  181SLPC   H9Y20702   0.854   4.449   4.043 -1.0082 -1.6622 -0.8907
  181SLPC  C31020703   1.035   4.401   4.164  0.3735 -0.0946  0.4667
  181SLPC  H10X20704   1.076   4.503   4.158 -0.9911  0.3867 -1.4824
  181SLPC  H10Y20705   1.119   4.329   4.151  2.8639  2.5530  1.0459
  181SLPC  C31120706   0.949   4.366   4.287  0.3428 -0.4682 -0.1916
  181SLPC  H11X20707   0.906   4.264   4.290  2.2897 -1.4148 -1.8871
  181SLPC  H11Y20708   0.869   4.442   4.296 -0.2357 -1.0739 -0.1665
  181SLPC  C31220709   1.044   4.372   4.410  0.6724 -0.4285 -0.7043
  181SLPC  H12X20710   1.102   4.467   4.422  3.5171 -2.2306  1.2427
  181SLPC  H12Y20711   1.118   4.289   4.405  0.9585 -0.1391 -1.5462
  181SLPC  C31320712   0.972   4.358   4.552 -0.1839 -1.3994  0.3856
  181SLPC  H13X20713   0.935   4.254   4.543  1.0568 -1.7001 -2.3360
  181SLPC  H13Y20714   0.885   4.425   4.567 -1.5700 -2.1635 -3.1913
  181SLPC  C31420715   1.060   4.390   4.674 -0.3098 -0.2075  0.0826
  181SLPC  H14X20716   1.086   4.497   4.691  1.6068 -0.7090  0.6265
  181SLPC  H14Y20717   1.159   4.341   4.663  0.1760  0.9684 -1.1149
  181SLPC  C31520718   0.979   4.343   4.806  0.0565  0.1895  0.6873
  181SLPC  H15X20719   0.931   4.246   4.781 -0.8587  0.5719  0.8987
  181SLPC  H15Y20720   0.898   4.419   4.813  0.2290  1.0901 -4.0035
  181SLPC  C31620721   1.078   4.324   4.935  0.5995  0.4990  0.5843
  181SLPC  H16X20722   1.153   4.253   4.895 -1.3137  0.1996 -2.9592
  181SLPC  H16Y20723   1.017   4.271   5.011  0.1143 -1.1893 -0.9005
  181SLPC  C31720724   1.144   4.451   4.983 -0.2907  0.0859  0.1112
  181SLPC  H17X20725   1.062   4.525   5.001  0.2422  0.4916  0.9676
  181SLPC  H17Y20726   1.211   4.485   4.902 -1.7753  0.8071 -0.8696
  181SLPC  C31820727   1.221   4.426   5.114  0.5418 -0.3687  0.3916
  181SLPC  H18X20728   1.304   4.352   5.113  0.1646 -0.8059  0.6096
  181SLPC  H18Y20729   1.142   4.397   5.187 -0.4479  1.3925  0.0650
  181SLPC  H18Z20730   1.261   4.521   5.155 -0.4765  0.6622 -0.9002
  182SLPC     N20731   5.645   3.217   2.122  0.0947 -0.1880  0.0564
  182SLPC   C1320732   5.552   3.321   2.181 -0.3770  0.3224  0.1079
  182SLPC  H13A20733   5.455   3.331   2.134 -0.5159  1.9474  0.6647
  182SLPC  H13B20734   5.522   3.286   2.279 -0.3718 -1.5739 -0.5263
  182SLPC  H13C20735   5.586   3.423   2.195 -0.6956  0.9988 -3.2004
  182SLPC   C1420736   5.673   3.261   1.984 -0.1200 -0.1905 -0.2279
  182SLPC  H14A20737   5.726   3.183   1.931  1.2482 -0.5406  1.5636
  182SLPC  H14B20738   5.581   3.268   1.927 -0.9449 -1.6754  0.8440
  182SLPC  H14C20739   5.722   3.355   1.967 -0.4317  0.3788  1.7823
  182SLPC   C1520740   5.572   3.083   2.119  0.3461 -0.2991  0.6315
  182SLPC  H15A20741   5.477   3.101   2.071 -0.9656 -2.7544  2.0952
  182SLPC  H15B20742   5.622   3.015   2.052  0.1157 -0.5387  0.6999
  182SLPC  H15C20743   5.573   3.036   2.217  3.9012 -2.1015 -0.0960
  182SLPC   C1220744   5.769   3.196   2.201 -0.3215 -1.1854  0.6469
  182SLPC  H12A20745   5.811   3.296   2.205  0.8303 -1.5021 -1.6828
  182SLPC  H12B20746   5.845   3.144   2.145  0.7670 -0.3972  1.3206
  182SLPC   C1120747   5.762   3.130   2.342  0.8460  0.5723  0.0945
  182SLPC  H11A20748   5.658   3.141   2.380  0.3097 -1.6816 -0.5339
  182SLPC  H11B20749   5.832   3.177   2.414 -0.7616  0.8465  1.5511
  182SLPC     P20750   5.727   2.879   2.419  0.0644 -0.1484 -0.2854
  182SLPC   O1320751   5.579   2.894   2.431 -0.8072  0.2301  0.3859
  182SLPC   O1420752   5.788   2.748   2.381  0.2794  0.5624  0.8470
  182SLPC   O1220753   5.786   2.985   2.317 -0.1918 -0.2018 -1.0727
  182SLPC   O1120754   5.783   2.928   2.558 -0.1078 -0.2443  0.1799
  182SLPC    C120755   5.926   2.935   2.588  0.0719 -0.1576 -0.5269
  182SLPC    HA20756   5.977   2.837   2.577  1.2313  0.5409 -1.6704
  182SLPC    HB20757   5.977   3.011   2.526 -0.2996  2.2742  1.9654
  182SLPC    C220758   5.955   3.004   2.725  0.1472 -0.1173  0.1262
  182SLPC    HS20759   6.056   3.051   2.732  1.0493 -2.1752  2.0486
  182SLPC   O2120760   5.961   2.901   2.822  0.2706  0.0840 -0.8101
  182SLPC   C2120761   6.061   2.817   2.818 -0.7244  0.1977  0.7825
  182SLPC   O2220762   6.172   2.824   2.757  0.6528 -0.1170 -0.4432
  182SLPC   C2220763   6.026   2.689   2.900  0.8356 -0.2508 -0.0461
  182SLPC   H2R20764   5.916   2.682   2.913  1.0443 -4.5815  1.0683
  182SLPC   H2S20765   6.067   2.600   2.849 -1.7128 -1.4869 -0.0996
  182SLPC    C320766   5.855   3.117   2.757  0.3455  1.3076  0.7753
  182SLPC    HX20767   5.760   3.090   2.705 -0.7630  1.7037  2.5299
  182SLPC    HY20768   5.894   3.213   2.718 -1.6366  1.7372 -0.2426
  182SLPC   O3120769   5.833   3.128   2.897  0.0594  0.5776 -0.2228
  182SLPC   C3120770   5.715   3.076   2.945  1.0486 -0.2863 -0.0526
  182SLPC   O3220771   5.633   3.018   2.877  0.0271  0.2513 -0.5669
  182SLPC   C3220772   5.708   3.117   3.093  0.6144 -0.6583  0.0251
  182SLPC   H2X20773   5.652   3.213   3.097 -0.5190 -1.3344  2.0223
  182SLPC   H2Y20774   5.807   3.129   3.140  0.0499  0.1989  1.0306
  182SLPC   C2320775   6.072   2.703   3.053 -0.2284  0.9537 -0.4290
  182SLPC   H3R20776   6.016   2.773   3.118 -2.6539 -1.8248  0.7273
  182SLPC   H3S20777   6.180   2.727   3.049  0.1263 -0.6100 -1.4031
  182SLPC   C2420778   6.060   2.563   3.123 -0.9867 -0.1957 -0.5178
  182SLPC   H4R20779   6.136   2.502   3.069  0.7007  1.5538 -0.2301
  182SLPC   H4S20780   5.964   2.510   3.107 -0.5681 -0.7659 -1.1914
  182SLPC   C2520781   6.098   2.565   3.279 -0.7531  0.1785  0.5923
  182SLPC   H5R20782   6.015   2.618   3.331  0.5015  0.2475  2.6214
  182SLPC   H5S20783   6.191   2.626   3.275 -0.1834 -0.7305 -0.3101
  182SLPC   C2620784   6.131   2.430   3.340  0.5878 -0.1198  0.0524
  182SLPC   H6R20785   6.223   2.381   3.302 -0.0178 -1.6524  0.4769
  182SLPC   H6S20786   6.046   2.362   3.316  1.6828 -0.8310 -2.0953
  182SLPC   C2720787   6.140   2.428   3.492  0.2287  0.3574  0.0800
  182SLPC   H7R20788   6.041   2.460   3.530 -0.0161 -0.7048  0.3561
  182SLPC   H7S20789   6.223   2.490   3.533  0.2387  0.9559 -0.8127
  182SLPC   C2820790   6.171   2.287   3.542 -0.4945  0.2513  0.2254
  182SLPC   H8R20791   6.184   2.303   3.651  0.5294 -1.9823  0.4831
  182SLPC   H8S20792   6.271   2.261   3.501 -0.3825  2.0392 -0.7790
  182SLPC   C2920793   6.069   2.179   3.529  0.3001  0.0340  1.1989
  182SLPC   H9R20794   6.043   2.158   3.424 -0.0508 -1.7550  1.6178
  182SLPC  C21020795   6.001   2.112   3.622 -0.8131  0.2661 -0.4772
  182SLPC  H10R20796   5.921   2.046   3.583  0.2709 -1.7286  0.4808
  182SLPC  C21120797   6.007   2.114   3.776 -0.2045 -0.4215  0.4386
  182SLPC  H11R20798   6.102   2.154   3.817  0.0152 -0.1975 -0.2762
  182SLPC  H11S20799   5.999   2.006   3.803 -0.0412 -0.6975 -0.5697
  182SLPC  C21220800   5.903   2.200   3.843 -0.1174 -0.1305  0.1871
  182SLPC  H12R20801   5.913   2.308   3.824  0.0383 -0.3951 -1.4601
  182SLPC  C21320802   5.796   2.162   3.914  0.2303 -0.5220 -0.2933
  182SLPC  H13R20803   5.731   2.242   3.952  0.7634  0.0128 -0.4965
  182SLPC  C21420804   5.748   2.021   3.937  0.0484  0.0491 -0.3278
  182SLPC  H14R20805   5.794   1.949   3.867  0.3941  0.9161 -1.0141
  182SLPC  H14S20806   5.637   2.013   3.931 -0.2519  2.9447 -0.1109
  182SLPC  C21520807   5.787   1.979   4.079 -0.2726  0.0616 -0.1796
  182SLPC  H15R20808   5.716   2.028   4.149 -0.2544 -3.8255  2.9362
  182SLPC  H15S20809   5.893   2.005   4.100  0.6569 -2.2138 -1.7092
  182SLPC  C21620810   5.772   1.825   4.096  0.1908  0.3458  0.0531
  182SLPC  H16R20811   5.836   1.769   4.024 -0.6973  1.5363 -1.7249
  182SLPC  H16S20812   5.668   1.801   4.062  0.1440 -3.2530  2.2573
  182SLPC  C21720813   5.782   1.769   4.235 -0.4618  0.7514 -0.2070
  182SLPC  H17R20814   5.720   1.829   4.305 -1.2403 -0.7080  0.4091
  182SLPC  H17S20815   5.887   1.795   4.262  0.1138 -0.1743 -1.4518
  182SLPC  C21820816   5.760   1.621   4.237  0.0046 -0.0884 -0.5978
  182SLPC  H18R20817   5.660   1.595   4.196  0.0102 -0.8617 -0.1366
  182SLPC  H18S20818   5.766   1.577   4.339  0.6074 -0.7423 -0.9127
  182SLPC  H18T20819   5.834   1.562   4.180 -0.0430 -2.3721  1.5140
  182SLPC   C3320820   5.638   3.005   3.176 -0.0348  0.0635 -0.7044
  182SLPC   H3X20821   5.660   2.904   3.136 -1.7725 -0.3808 -0.6030
  182SLPC   H3Y20822   5.530   2.996   3.151  0.0120  0.2984 -0.9988
  182SLPC   C3420823   5.650   3.021   3.327 -0.8982 -0.4302  0.2372
  182SLPC   H4X20824   5.754   2.998   3.361 -1.2272 -0.7120  1.0942
  182SLPC   H4Y20825   5.589   2.945   3.381 -1.0651 -0.3653  0.1379
  182SLPC   C3520826   5.618   3.167   3.356 -0.2483  0.3249  0.4265
  182SLPC   H5X20827   5.523   3.206   3.313 -0.9640 -0.2540  1.4503
  182SLPC   H5Y20828   5.699   3.232   3.316 -0.1341  0.2133  0.4782
  182SLPC   C3620829   5.620   3.190   3.508  0.2530 -0.1762  0.0033
  182SLPC   H6X20830   5.548   3.120   3.555 -0.2702  0.8816  0.8093
  182SLPC   H6Y20831   5.574   3.290   3.526 -0.2828 -0.0161 -1.9702
  182SLPC   C3720832   5.763   3.172   3.574  0.0612 -0.1577  0.3139
  182SLPC   H7X20833   5.836   3.249   3.542  0.4978 -0.1901  1.2086
  182SLPC   H7Y20834   5.812   3.073   3.561  0.8824 -0.3295  3.7341
  182SLPC   C3820835   5.752   3.182   3.728  0.0365 -0.0628  0.6846
  182SLPC   H8X20836   5.705   3.281   3.742  1.9203  1.1824 -1.1979
  182SLPC   H8Y20837   5.853   3.182   3.773  0.0987  0.5881  0.5553
  182SLPC   C3920838   5.670   3.071   3.790  0.2849  0.4557 -0.8975
  182SLPC   H9X20839   5.707   2.976   3.745  2.2088  0.9277 -0.4237
  182SLPC   H9Y20840   5.563   3.090   3.769  0.0664  1.5181  0.9374
  182SLPC  C31020841   5.686   3.061   3.940  0.0905  0.0499 -0.3446
  182SLPC  H10X20842   5.721   3.157   3.983 -1.1933  0.6068 -0.5165
  182SLPC  H10Y20843   5.763   2.984   3.965  0.5500  1.3224  2.5756
  182SLPC  C31120844   5.564   3.008   4.016 -0.4706 -0.8872  0.4172
  182SLPC  H11X20845   5.550   2.901   3.989 -1.1841 -0.0783 -2.8759
  182SLPC  H11Y20846   5.470   3.062   3.995  0.1643  0.9425  2.0474
  182SLPC  C31220847   5.605   3.012   4.168 -0.1163  0.2263  0.2020
  182SLPC  H12X20848   5.632   3.115   4.200  0.4855  0.0474  0.2768
  182SLPC  H12Y20849   5.698   2.953   4.181 -0.6933 -0.4559  1.5358
  182SLPC  C31320850   5.499   2.949   4.254  0.2582  0.5292  0.1469
  182SLPC  H13X20851   5.465   2.849   4.219  0.0090  0.2543  1.1520
  182SLPC  H13Y20852   5.408   3.012   4.256 -0.3894 -0.3064 -1.5547
  182SLPC  C31420853   5.543   2.910   4.399  1.1902  0.0230  0.7962
  182SLPC  H14X20854   5.563   3.003   4.457  1.2193 -1.7123  3.7877
  182SLPC  H14Y20855   5.629   2.841   4.395  0.4130 -0.8965 -0.9307
  182SLPC  C31520856   5.425   2.835   4.472 -0.4305 -0.5447  0.3247
  182SLPC  H15X20857   5.396   2.743   4.416 -0.6972 -0.5999  0.5515
  182SLPC  H15Y20858   5.349   2.912   4.451 -0.1612 -0.8047 -1.7685
  182SLPC  C31620859   5.445   2.783   4.612 -0.0321 -0.2901  0.0369
  182SLPC  H16X20860   5.533   2.717   4.629  0.1249 -0.1237 -0.1182
  182SLPC  H16Y20861   5.363   2.711   4.632 -0.3921 -0.2973 -1.3495
  182SLPC  C31720862   5.445   2.895   4.719 -0.1217  0.2697 -0.1123
  182SLPC  H17X20863   5.367   2.973   4.707 -0.3573  0.0607  0.0574
  182SLPC  H17Y20864   5.543   2.948   4.720 -1.0028  2.2370  3.8966
  182SLPC  C31820865   5.422   2.818   4.848  0.4357  0.5001  0.4016
  182SLPC  H18X20866   5.327   2.760   4.851 -1.6613  3.4866  5.7147
  182SLPC  H18Y20867   5.403   2.893   4.928 -1.0057  2.0917 -1.3176
  182SLPC  H18Z20868   5.501   2.743   4.867 -0.1059 -0.3749 -0.7208
  183SLPC     N20869   0.204   5.814   2.333 -0.7235  0.1334  0.2425
  183SLPC   C1320870   0.073   5.821   2.275 -0.3023 -0.6650 -0.6713
  183SLPC  H13A20871   0.009   5.894   2.322 -1.3083 -2.3981  0.7684
  183SLPC  H13B20872   0.079   5.847   2.170 -0.2934 -1.7968 -0.9711
  183SLPC  H13C20873   0.021   5.727   2.287  1.2835 -1.3274  1.4780
  183SLPC   C1420874   0.269   5.694   2.279  0.2759  0.2461  0.0541
  183SLPC  H14A20875   0.287   5.698   2.173  0.6753 -0.8809  0.0639
  183SLPC  H14B20876   0.366   5.665   2.316  1.9051  3.6238 -1.1549
  183SLPC  H14C20877   0.213   5.603   2.297  1.7750 -0.5531  0.8680
  183SLPC   C1520878   0.185   5.793   2.484  0.1811 -0.2587 -0.4524
  183SLPC  H15A20879   0.112   5.715   2.496  0.7851 -0.7906 -0.1547
  183SLPC  H15B20880   0.272   5.766   2.542  0.3475  1.9809  0.4567
  183SLPC  H15C20881   0.149   5.885   2.528  1.7046  0.2132 -0.1169
  183SLPC   C1220882   0.275   5.944   2.314  0.9593 -0.0821  0.5885
  183SLPC  H12A20883   0.312   5.947   2.213  1.4701  1.6757  0.7897
  183SLPC  H12B20884   0.366   5.936   2.372  1.5506  1.6176 -0.0309
  183SLPC   C1120885   0.217   6.080   2.342  0.0425 -0.4076 -0.2103
  183SLPC  H11A20886   0.125   6.097   2.281 -0.2591 -0.1575  0.3096
  183SLPC  H11B20887   0.292   6.153   2.306  1.1075 -2.4644 -2.4837
  183SLPC     P20888   0.064   6.140   2.543 -0.6226 -0.2988  0.0165
  183SLPC   O1320889  -0.007   6.230   2.451 -0.3501 -0.3084 -0.3769
  183SLPC   O1420890  -0.004   6.020   2.585 -0.0545 -0.3851 -0.7014
  183SLPC   O1220891   0.196   6.090   2.483  0.1429 -0.3712 -0.6271
  183SLPC   O1120892   0.108   6.222   2.676 -0.2488  0.4210  0.2323
  183SLPC    C120893   0.139   6.149   2.793 -0.0684 -0.3731  0.5739
  183SLPC    HA20894   0.205   6.060   2.783 -0.2172 -0.6934  2.1654
  183SLPC    HB20895   0.202   6.216   2.856  1.1113 -0.3790 -0.5395
  183SLPC    C220896   0.015   6.126   2.878  0.4783 -0.5427  0.2367
  183SLPC    HS20897  -0.053   6.062   2.817  1.4793  0.0592 -1.6027
  183SLPC   O2120898  -0.040   6.255   2.910  0.0700  0.2912  0.8091
  183SLPC   C2120899  -0.140   6.295   2.835  0.1322 -0.3622  0.6052
  183SLPC   O2220900  -0.214   6.217   2.777 -0.2925 -0.6716 -0.1821
  183SLPC   C2220901  -0.152   6.444   2.840 -0.0992  0.8237 -0.5806
  183SLPC   H2R20902  -0.085   6.483   2.760 -1.4025  1.9162 -1.1742
  183SLPC   H2S20903  -0.255   6.458   2.801 -0.1670  0.8914 -0.3809
  183SLPC    C320904   0.036   6.048   3.012 -0.5160  0.1367 -0.3080
  183SLPC    HX20905   0.116   6.107   3.063 -0.8394  0.8547 -0.6095
  183SLPC    HY20906   0.083   5.951   2.988  0.1772  0.5740 -0.7715
  183SLPC   O3120907  -0.084   6.047   3.091  0.0977 -0.2797  0.0755
  183SLPC   C3120908  -0.193   5.984   3.061  0.0249  0.8313 -0.3611
  183SLPC   O3220909  -0.202   5.900   2.971 -0.2686  0.1696  0.1891
  183SLPC   C3220910  -0.310   6.014   3.158 -0.2784  0.2818 -0.9185
  183SLPC   H2X20911  -0.389   5.944   3.124  0.0726 -0.1592 -0.8536
  183SLPC   H2Y20912  -0.341   6.120   3.148  1.8204  1.1717  0.9392
  183SLPC   C2320913  -0.140   6.504   2.986 -0.4078 -0.0995  0.3807
  183SLPC   H3R20914  -0.147   6.614   2.978 -1.1436 -0.2746 -2.0238
  183SLPC   H3S20915  -0.037   6.474   3.017 -0.5094 -1.2975 -0.3599
  183SLPC   C2420916  -0.238   6.453   3.092 -0.1350 -0.0392 -0.0313
  183SLPC   H4R20917  -0.211   6.350   3.126 -3.5209 -0.3458  2.2057
  183SLPC   H4S20918  -0.346   6.446   3.066 -0.5726 -0.7149  1.8141
  183SLPC   C2520919  -0.233   6.554   3.214  0.1825 -0.1575  0.1855
  183SLPC   H5R20920  -0.231   6.654   3.166 -0.1471 -0.6715 -0.9352
  183SLPC   H5S20921  -0.140   6.527   3.268  0.4623 -0.2670 -0.3450
  183SLPC   C2620922  -0.349   6.535   3.311  1.1460 -0.7011  0.9191
  183SLPC   H6R20923  -0.367   6.427   3.329  1.2692 -0.5649  1.9272
  183SLPC   H6S20924  -0.436   6.580   3.258  0.8161 -0.6223  1.5184
  183SLPC   C2720925  -0.335   6.610   3.442  0.0969 -0.9938 -0.5927
  183SLPC   H7R20926  -0.316   6.718   3.427  2.9338 -1.1935  0.8128
  183SLPC   H7S20927  -0.236   6.581   3.482 -0.9976 -0.0159  3.1956
  183SLPC   C2820928  -0.437   6.591   3.554  0.7975 -0.1701 -0.6983
  183SLPC   H8R20929  -0.538   6.613   3.514  0.0323  1.1559  1.7540
  183SLPC   H8S20930  -0.434   6.664   3.638 -1.7832 -0.8641  0.0979
  183SLPC   C2920931  -0.437   6.449   3.606 -0.5158  0.2201  0.5417
  183SLPC   H9R20932  -0.339   6.401   3.592  0.1172  0.8633  2.4966
  183SLPC  C21020933  -0.538   6.374   3.661  0.3665 -0.3338 -0.0880
  183SLPC  H10R20934  -0.519   6.268   3.681 -2.0614 -0.8928 -0.5338
  183SLPC  C21120935  -0.678   6.411   3.683  1.2374 -0.4336  0.8999
  183SLPC  H11R20936  -0.735   6.321   3.651 -2.7668  1.2496  2.6313
  183SLPC  H11S20937  -0.704   6.495   3.615  0.0914 -0.8001  0.8569
  183SLPC  C21220938  -0.703   6.450   3.826 -0.1588 -0.0155 -0.5804
  183SLPC  H12R20939  -0.664   6.551   3.842  1.7178 -0.7937  0.0379
  183SLPC  C21320940  -0.765   6.389   3.931  0.2780 -0.2722  0.3532
  183SLPC  H13R20941  -0.772   6.448   4.023 -2.9138 -0.1981  0.1671
  183SLPC  C21420942  -0.820   6.247   3.935 -0.1341  0.7396 -0.0177
  183SLPC  H14R20943  -0.845   6.208   3.835 -1.7924 -2.8566  1.6397
  183SLPC  H14S20944  -0.907   6.250   4.004  1.1223  3.6662  1.6193
  183SLPC  C21520945  -0.724   6.145   3.991  0.4154  0.0892 -0.3480
  183SLPC  H15R20946  -0.627   6.159   3.938  1.1858 -2.1090  0.3941
  183SLPC  H15S20947  -0.772   6.047   3.970 -0.0987  0.0332  0.9900
  183SLPC  C21620948  -0.699   6.139   4.144 -0.1392 -0.2270  0.6768
  183SLPC  H16R20949  -0.796   6.145   4.198 -0.5662  0.5421 -0.1595
  183SLPC  H16S20950  -0.651   6.234   4.174  2.4629 -0.4361 -2.2899
  183SLPC  C21720951  -0.622   6.011   4.201 -0.4482 -1.2831  0.9982
  183SLPC  H17R20952  -0.525   6.000   4.148  1.0067  0.4058  3.1473
  183SLPC  H17S20953  -0.676   5.916   4.183  1.6290 -2.1732 -1.0027
  183SLPC  C21820954  -0.587   6.033   4.347  0.2166  0.0265  0.4775
  183SLPC  H18R20955  -0.520   6.121   4.355 -0.5218  0.5602  0.9343
  183SLPC  H18S20956  -0.538   5.941   4.386  2.6072 -0.4842 -3.2498
  183SLPC  H18T20957  -0.679   6.062   4.402  0.6045  0.2134  1.0391
  183SLPC   C3320958  -0.272   5.969   3.297 -0.6140  0.6631 -0.0813
  183SLPC   H3X20959  -0.210   6.049   3.342 -1.1392  1.4092 -0.6551
  183SLPC   H3Y20960  -0.218   5.873   3.283  0.5480  1.4746 -1.4779
  183SLPC   C3420961  -0.398   5.959   3.382  0.0829 -0.5067  0.5109
  183SLPC   H4X20962  -0.423   5.861   3.427  1.4586 -0.8514  0.5500
  183SLPC   H4Y20963  -0.492   5.992   3.332  0.4314 -0.6257 -0.2303
  183SLPC   C3520964  -0.393   6.052   3.506 -0.1953  0.0934 -0.9458
  183SLPC   H5X20965  -0.496   6.065   3.546 -0.3264 -0.5216 -1.0763
  183SLPC   H5Y20966  -0.351   6.152   3.480 -1.4077  1.0000  0.4012
  183SLPC   C3620967  -0.293   5.990   3.610  0.0653 -0.8471  0.5214
  183SLPC   H6X20968  -0.190   5.992   3.571 -1.1927 -0.3966 -3.1543
  183SLPC   H6Y20969  -0.323   5.885   3.633  0.1257 -0.9452  0.1514
  183SLPC   C3720970  -0.290   6.055   3.752  0.1469  0.3953 -0.2148
  183SLPC   H7X20971  -0.396   6.067   3.783  0.6705  3.5955  0.7575
  183SLPC   H7Y20972  -0.274   6.165   3.745 -1.3704  0.9757  3.1213
  183SLPC   C3820973  -0.188   5.982   3.845  0.0242 -0.2513 -0.7440
  183SLPC   H8X20974  -0.108   5.959   3.771 -0.7949  2.2981 -2.5750
  183SLPC   H8Y20975  -0.229   5.884   3.876 -0.5048  0.5278  1.1033
  183SLPC   C3920976  -0.139   6.052   3.976 -0.4878 -0.5527  0.8057
  183SLPC   H9X20977  -0.223   6.109   4.023 -1.3620 -1.1970  0.0708
  183SLPC   H9Y20978  -0.069   6.133   3.947 -1.7352  0.1706 -0.3373
  183SLPC  C31020979  -0.074   5.956   4.076 -0.0728  0.5870 -0.0365
  183SLPC  H10X20980  -0.007   5.886   4.023 -2.0040 -0.3518 -1.3412
  183SLPC  H10Y20981  -0.151   5.891   4.123  1.1045 -0.6034  0.3274
  183SLPC  C31120982   0.010   6.023   4.190 -0.2403  0.0187 -0.4449
  183SLPC  H11X20983   0.050   6.122   4.159 -0.0142 -0.7377 -2.7203
  183SLPC  H11Y20984   0.095   5.958   4.219 -0.1441  0.5300  0.4745
  183SLPC  C31220985  -0.070   6.029   4.322 -0.4501  0.8076  0.2678
  183SLPC  H12X20986  -0.102   5.927   4.353 -2.0083  0.8892 -0.9402
  183SLPC  H12Y20987  -0.159   6.093   4.302  0.2648  1.4100 -1.1645
  183SLPC  C31320988   0.019   6.086   4.440  0.1111  0.0682  0.2015
  183SLPC  H13X20989   0.025   6.194   4.413  0.7489 -0.1245 -0.4388
  183SLPC  H13Y20990   0.114   6.035   4.463  1.4680  2.2701 -0.2726
  183SLPC  C31420991  -0.069   6.088   4.571 -0.4358 -0.9853  0.0505
  183SLPC  H14X20992  -0.024   6.148   4.652 -0.3144 -1.3465  0.2504
  183SLPC  H14Y20993  -0.073   5.984   4.609 -1.6330 -1.6510 -1.7190
  183SLPC  C31520994  -0.219   6.142   4.569 -0.1611 -0.0633 -0.2481
  183SLPC  H15X20995  -0.271   6.082   4.491 -1.8624  0.2271  0.6199
  183SLPC  H15Y20996  -0.217   6.248   4.537 -1.8592 -0.0911 -0.5735
  183SLPC  C31620997  -0.283   6.135   4.711 -0.1577 -0.1710  0.7175
  183SLPC  H16X20998  -0.221   6.191   4.783 -1.5002  0.1251  1.6738
  183SLPC  H16Y20999  -0.266   6.031   4.746  4.5104  0.3290  0.4788
  183SLPC  C31721000  -0.428   6.197   4.710  0.8041 -0.7595 -0.0380
  183SLPC  H17X21001  -0.436   6.261   4.619 -1.7571 -0.6353  0.2069
  183SLPC  H17Y21002  -0.432   6.267   4.796 -0.9726  0.5798 -1.1276
  183SLPC  C31821003  -0.541   6.093   4.709 -0.3312 -0.0271  0.5535
  183SLPC  H18X21004  -0.542   6.035   4.804  1.2764  0.3446  0.8228
  183SLPC  H18Y21005  -0.517   6.015   4.633  0.4070 -0.4777  1.2405
  183SLPC  H18Z21006  -0.639   6.143   4.690 -0.4231 -0.7210 -1.0077
  184SLPC     N21007   0.531   1.022   2.763 -0.5595  0.1290  0.4017
  184SLPC   C1321008   0.617   0.999   2.885  0.2852  0.0069  0.2598
  184SLPC  H13A21009   0.586   1.060   2.968 -0.1223  0.9740 -0.5804
  184SLPC  H13B21010   0.620   0.896   2.919  0.6601  0.7060  2.4541
  184SLPC  H13C21011   0.707   1.037   2.840 -1.7512  3.8135 -1.0959
  184SLPC   C1421012   0.569   0.922   2.658 -0.3640 -0.4753  0.1656
  184SLPC  H14A21013   0.526   0.948   2.562 -1.9550 -0.3696  0.8782
  184SLPC  H14B21014   0.676   0.913   2.651 -0.3419 -0.2872  0.2379
  184SLPC  H14C21015   0.520   0.828   2.679  3.2846 -3.0526 -1.7457
  184SLPC   C1521016   0.572   1.157   2.732 -0.3300  0.6980  0.3444
  184SLPC  H15A21017   0.519   1.182   2.641  0.8930  0.7876 -0.3634
  184SLPC  H15B21018   0.541   1.237   2.797  0.4653  2.1909 -1.0712
  184SLPC  H15C21019   0.676   1.159   2.705 -0.3777  0.7085  0.1580
  184SLPC   C1221020   0.378   1.017   2.799  0.3300 -0.1029 -0.0500
  184SLPC  H12A21021   0.320   1.027   2.708 -0.0414 -0.7280  0.1165
  184SLPC  H12B21022   0.364   1.104   2.860  0.8668 -0.9378  1.3096
  184SLPC   C1121023   0.339   0.907   2.901  0.3156  0.4146 -0.1615
  184SLPC  H11A21024   0.237   0.936   2.935 -0.5914 -2.0929 -0.5183
  184SLPC  H11B21025   0.398   0.908   2.995  0.6267  0.7196 -0.3563
  184SLPC     P21026   0.211   0.705   2.794 -0.0813  0.1503  0.0452
  184SLPC   O1321027   0.125   0.809   2.737  0.4495 -0.2993  0.5193
  184SLPC   O1421028   0.261   0.592   2.708 -0.3345 -0.0438 -0.8285
  184SLPC   O1221029   0.337   0.776   2.844 -0.2850  0.0647  0.6326
  184SLPC   O1121030   0.155   0.634   2.925 -0.4234  0.4776 -0.1102
  184SLPC    C121031   0.238   0.600   3.034  0.1800  0.1278 -0.5855
  184SLPC    HA21032   0.218   0.492   3.053 -1.2625 -0.0889 -2.8765
  184SLPC    HB21033   0.347   0.612   3.021  0.2051  0.3579 -0.1666
  184SLPC    C221034   0.185   0.670   3.159  0.0091 -0.0544  0.6305
  184SLPC    HS21035   0.201   0.779   3.147 -0.3913 -0.1578 -1.0828
  184SLPC   O2121036   0.259   0.610   3.277 -0.0366  0.3385  0.0582
  184SLPC   C2121037   0.395   0.616   3.276 -0.1026 -0.0050  0.0339
  184SLPC   O2221038   0.461   0.689   3.202 -0.3938  0.2132 -0.3658
  184SLPC   C2221039   0.441   0.532   3.398  0.6311 -0.2867  0.1304
  184SLPC   H2R21040   0.393   0.433   3.387  1.5377 -0.8413  0.9525
  184SLPC   H2S21041   0.551   0.520   3.397  0.9733  2.2738 -0.2078
  184SLPC    C321042   0.037   0.642   3.164 -0.0435 -0.0298  0.3754
  184SLPC    HX21043   0.024   0.536   3.132  0.6977  0.0690 -0.2608
  184SLPC    HY21044  -0.028   0.702   3.097  0.7523  0.0436 -0.3358
  184SLPC   O3121045  -0.012   0.639   3.295 -0.3091 -0.3957 -0.6960
  184SLPC   C3121046  -0.009   0.748   3.370  0.0381 -0.8817  0.3430
  184SLPC   O3221047   0.016   0.860   3.319 -0.1945  0.1249  0.1397
  184SLPC   C3221048  -0.013   0.718   3.518 -0.2682 -0.6752 -0.4700
  184SLPC   H2X21049   0.041   0.623   3.531  0.1515 -0.2578  1.0625
  184SLPC   H2Y21050  -0.119   0.694   3.539 -0.4730  0.2218 -0.4004
  184SLPC   C2321051   0.411   0.607   3.534  0.2102 -0.3563 -0.1359
  184SLPC   H3R21052   0.305   0.635   3.549  0.0851 -0.7489 -0.2762
  184SLPC   H3S21053   0.473   0.699   3.528  0.3679 -0.4744 -0.3339
  184SLPC   C2421054   0.451   0.526   3.655  0.6131 -0.0733 -0.7633
  184SLPC   H4R21055   0.549   0.474   3.644 -0.0666 -1.3057 -1.2556
  184SLPC   H4S21056   0.372   0.450   3.669 -0.6106  0.8508 -2.3062
  184SLPC   C2521057   0.467   0.599   3.793  0.1985 -1.1641  0.5883
  184SLPC   H5R21058   0.382   0.668   3.810  0.6587 -0.4327 -0.0341
  184SLPC   H5S21059   0.562   0.655   3.791 -0.1362 -0.5933  0.6059
  184SLPC   C2621060   0.451   0.498   3.907 -0.9082  0.0361 -0.2630
  184SLPC   H6R21061   0.525   0.416   3.893 -1.0624 -0.2271  0.4157
  184SLPC   H6S21062   0.350   0.453   3.896  0.0136 -1.3807 -5.3183
  184SLPC   C2721063   0.480   0.562   4.043  0.3773 -0.8491  0.4865
  184SLPC   H7R21064   0.425   0.657   4.056  1.7714 -0.0142  0.4582
  184SLPC   H7S21065   0.586   0.594   4.041  0.3514 -0.5831 -2.7577
  184SLPC   C2821066   0.462   0.459   4.156  0.6246  0.5211  0.6763
  184SLPC   H8R21067   0.530   0.374   4.133 -0.4846 -0.3022  0.3699
  184SLPC   H8S21068   0.361   0.416   4.137  0.9250  0.1200 -0.0510
  184SLPC   C2921069   0.492   0.522   4.283  0.5099  0.0862 -0.4498
  184SLPC   H9R21070   0.462   0.627   4.296 -1.5290 -0.3335 -1.3354
  184SLPC  C21021071   0.530   0.458   4.396 -0.2075 -0.7727  0.3190
  184SLPC  H10R21072   0.555   0.504   4.493  2.6790 -0.8348 -0.3142
  184SLPC  C21121073   0.566   0.311   4.397 -0.4809  0.6331 -0.5367
  184SLPC  H11R21074   0.663   0.288   4.446 -2.6626 -2.9833  2.5972
  184SLPC  H11S21075   0.570   0.272   4.293  1.0472  0.9388 -0.6207
  184SLPC  C21221076   0.454   0.238   4.467 -0.1184  0.9598  0.7235
  184SLPC  H12R21077   0.364   0.212   4.409 -1.1637  1.2193  2.1492
  184SLPC  C21321078   0.464   0.178   4.589  0.4890 -0.4204 -0.1918
  184SLPC  H13R21079   0.373   0.122   4.614  0.1920  0.6158  1.1687
  184SLPC  C21421080   0.571   0.181   4.697 -0.0947  0.0292  0.2475
  184SLPC  H14R21081   0.598   0.287   4.718  2.1089 -0.0358 -1.8224
  184SLPC  H14S21082   0.665   0.133   4.661  1.0012  0.7369  2.0205
  184SLPC  C21521083   0.532   0.114   4.830 -0.2757  1.2202 -0.0850
  184SLPC  H15R21084   0.519   0.007   4.802 -2.0942  1.5482 -0.6223
  184SLPC  H15S21085   0.434   0.143   4.872 -0.9164 -0.5674 -0.2669
  184SLPC  C21621086   0.636   0.133   4.941  0.2000 -0.3623  0.2283
  184SLPC  H16R21087   0.633   0.243   4.954 -2.2405 -0.4671  1.1049
  184SLPC  H16S21088   0.735   0.104   4.902 -0.6445 -0.6546 -1.7912
  184SLPC  C21721089   0.592   0.052   5.064  0.3691  0.7238 -0.3973
  184SLPC  H17R21090   0.671   0.078   5.138 -2.5121 -0.9768  3.6795
  184SLPC  H17S21091   0.598  -0.056   5.037  2.2033  0.6178  0.2581
  184SLPC  C21821092   0.463   0.086   5.134  0.1072 -0.0131  0.4674
  184SLPC  H18R21093   0.460   0.036   5.233  2.2500  0.0495  0.6039
  184SLPC  H18S21094   0.386   0.050   5.062  2.2245 -0.8258 -1.5558
  184SLPC  H18T21095   0.443   0.194   5.151 -1.9251 -0.3690  0.5825
  184SLPC   C3321096   0.040   0.817   3.627 -0.2454 -0.3397 -0.7105
  184SLPC   H3X21097  -0.017   0.910   3.609 -1.9518 -1.1122  0.4392
  184SLPC   H3Y21098   0.147   0.841   3.607  0.1612 -0.3899  1.1750
  184SLPC   C3421099   0.020   0.757   3.766 -0.0803  0.1207 -0.2978
  184SLPC   H4X21100   0.053   0.652   3.765 -3.2637 -1.0003 -0.7391
  184SLPC   H4Y21101  -0.083   0.753   3.809  0.2997  0.4390  0.6765
  184SLPC   C3521102   0.094   0.844   3.869 -0.1548  0.3837  0.6032
  184SLPC   H5X21103   0.083   0.952   3.848  1.6975  0.1579 -2.0510
  184SLPC   H5Y21104   0.201   0.823   3.848 -0.9981 -2.3156 -1.5577
  184SLPC   C3621105   0.057   0.801   4.009  0.2129 -0.3134 -0.2907
  184SLPC   H6X21106  -0.046   0.840   4.016 -0.4763 -1.8772 -1.2106
  184SLPC   H6Y21107   0.118   0.858   4.083  1.9391 -0.8976 -1.1887
  184SLPC   C3721108   0.065   0.650   4.038  0.2084 -0.2388 -0.2766
  184SLPC   H7X21109   0.161   0.611   3.998  1.2226 -1.0467  2.6910
  184SLPC   H7Y21110  -0.021   0.605   3.984  0.9511 -0.2496 -1.4803
  184SLPC   C3821111   0.059   0.606   4.186  0.2760 -0.0727 -0.2768
  184SLPC   H8X21112  -0.024   0.653   4.242 -0.7629 -0.6765 -1.2548
  184SLPC   H8Y21113   0.148   0.639   4.243 -0.0814  0.9654 -0.3041
  184SLPC   C3921114   0.058   0.450   4.210  0.1425  0.9472 -0.3747
  184SLPC   H9X21115   0.144   0.407   4.155  0.6862  0.9867  0.4353
  184SLPC   H9Y21116  -0.031   0.408   4.158 -0.9046  1.6415  0.7907
  184SLPC  C31021117   0.062   0.406   4.358 -0.3210  0.3545 -0.9110
  184SLPC  H10X21118  -0.003   0.473   4.418  1.5364  2.1584 -0.8055
  184SLPC  H10Y21119   0.169   0.411   4.386  0.2162 -1.0132 -2.5125
  184SLPC  C31121120   0.020   0.253   4.365 -0.6651 -1.2826 -0.3519
  184SLPC  H11X21121   0.078   0.209   4.448  4.1799 -0.2278 -2.8312
  184SLPC  H11Y21122   0.048   0.196   4.275 -0.4762  1.1317 -1.9239
  184SLPC  C31221123  -0.135   0.244   4.385  0.1571  0.5325  0.8314
  184SLPC  H12X21124  -0.178   0.288   4.292 -0.7051 -1.0640  0.4435
  184SLPC  H12Y21125  -0.160   0.291   4.482 -2.0095 -3.0269  2.1896
  184SLPC  C31321126  -0.198   0.104   4.393  0.2598  0.8558 -0.1007
  184SLPC  H13X21127  -0.186   0.028   4.313  1.3053  0.8357  0.0684
  184SLPC  H13Y21128  -0.305   0.123   4.370  0.6230  1.1020 -1.6879
  184SLPC  C31421129  -0.183   0.039   4.534 -0.2558 -0.1900 -0.3458
  184SLPC  H14X21130  -0.208   0.112   4.615 -0.8441 -0.1709 -0.5373
  184SLPC  H14Y21131  -0.081   0.002   4.557 -0.8147 -1.7470 -0.2511
  184SLPC  C31521132  -0.286  -0.071   4.568  1.0850  1.0084 -0.6888
  184SLPC  H15X21133  -0.258  -0.170   4.525 -0.8038  0.5363 -0.9326
  184SLPC  H15Y21134  -0.382  -0.035   4.526 -0.4552 -1.5739  0.3409
  184SLPC  C31621135  -0.331  -0.088   4.720  0.0609  0.1362 -0.1556
  184SLPC  H16X21136  -0.241  -0.067   4.782 -0.0114 -0.6601  0.2307
  184SLPC  H16Y21137  -0.362  -0.193   4.742  0.7923 -0.2237 -0.7977
  184SLPC  C31721138  -0.452   0.004   4.753 -0.5768  0.6689  0.1075
  184SLPC  H17X21139  -0.536  -0.010   4.681 -0.5214  1.1045 -0.0447
  184SLPC  H17Y21140  -0.418   0.109   4.739  2.4411 -0.1939  0.2799
  184SLPC  C31821141  -0.510  -0.027   4.895 -0.3403  0.1247 -0.3603
  184SLPC  H18X21142  -0.548  -0.131   4.894 -0.2354  0.0868 -0.5112
  184SLPC  H18Y21143  -0.588   0.044   4.928 -0.0401 -0.0890  0.8559
  184SLPC  H18Z21144  -0.422  -0.023   4.964 -0.6630  1.1973  0.0012
  185POPC     N21145   0.516   6.754   7.541 -0.0895 -0.6907  0.2086
  185POPC   C1221146   0.597   6.810   7.423 -0.1131  0.8746 -0.7275
  185POPC  H12A21147   0.698   6.773   7.434  0.5493  2.1775 -2.1103
  185POPC  H12B21148   0.608   6.918   7.431 -0.6914  0.9736 -1.2198
  185POPC   C1321149   0.373   6.786   7.531 -0.9558  0.1088  0.2544
  185POPC  H13A21150   0.326   6.717   7.462 -0.6458 -1.0967  1.2264
  185POPC  H13B21151   0.326   6.761   7.624 -1.8262  1.7881  0.3056
  185POPC  H13C21152   0.354   6.886   7.493  0.0533  0.9921  1.9081
  185POPC   C1421153   0.519   6.603   7.547  0.3267  0.2636  0.1087
  185POPC  H14A21154   0.461   6.555   7.470 -0.8800  1.2988  0.3397
  185POPC  H14B21155   0.621   6.568   7.548 -0.2090 -1.4987 -1.1702
  185POPC  H14C21156   0.477   6.566   7.640  1.2564  1.0973  0.8856
  185POPC   C1521157   0.563   6.801   7.671 -0.6276  0.7332  0.3793
  185POPC  H15A21158   0.559   6.909   7.670 -0.7147  0.7258 -0.6508
  185POPC  H15B21159   0.666   6.774   7.690 -0.2999  2.1001  0.6794
  185POPC  H15C21160   0.505   6.756   7.750  0.4315  1.3947  1.5683
  185POPC   C1121161   0.547   6.770   7.285  0.6194  0.0317  0.3903
  185POPC  H11A21162   0.615   6.820   7.213  0.9946  1.0857  1.4341
  185POPC  H11B21163   0.444   6.809   7.270 -0.0635 -1.2733  1.4470
  185POPC     P21164   0.425   6.569   7.173  0.5854 -0.4193 -0.2254
  185POPC   O1321165   0.310   6.590   7.262  0.5019 -0.1397 -0.4056
  185POPC   O1421166   0.460   6.433   7.139  0.4931  0.0040 -0.0558
  185POPC   O1221167   0.554   6.627   7.257  0.5558 -0.1502  0.1975
  185POPC   O1121168   0.421   6.663   7.040  0.4190 -0.0528 -0.0211
  185POPC    C121169   0.532   6.729   6.980 -0.5462  0.0879  0.5597
  185POPC    HA21170   0.623   6.689   7.030 -1.4333 -2.3350  0.3343
  185POPC    HB21171   0.512   6.838   6.989  0.0101  0.5257 -2.4211
  185POPC    C221172   0.539   6.708   6.827 -0.4295  0.6852 -0.2845
  185POPC    HS21173   0.619   6.770   6.781 -1.4357  1.2827 -1.2605
  185POPC   O2121174   0.409   6.739   6.777  0.0370  0.1755  0.3058
  185POPC   C2121175   0.388   6.870   6.728  0.1139  0.8973  0.3114
  185POPC   O2221176   0.470   6.959   6.733 -0.5222 -0.6725 -0.3041
  185POPC   C2221177   0.255   6.880   6.659 -0.0859 -0.2471  0.4613
  185POPC   H2R21178   0.272   6.961   6.585  3.1672 -1.7302 -0.5827
  185POPC   H2S21179   0.192   6.924   6.739  1.0828  1.3303  0.5534
  185POPC    C321180   0.565   6.559   6.782 -0.1438  0.0452  0.8034
  185POPC    HX21181   0.567   6.554   6.671 -1.3694 -0.1758  0.7776
  185POPC    HY21182   0.481   6.500   6.824  0.8988 -2.8775 -0.9545
  185POPC   O3121183   0.691   6.509   6.840 -0.4153  0.6638  0.2034
  185POPC   C3121184   0.798   6.533   6.763 -0.0714 -0.1790  0.5820
  185POPC   O3221185   0.800   6.610   6.667  0.2756 -0.3016  0.4577
  185POPC   C3221186   0.914   6.450   6.807  0.5652  0.2686  0.0365
  185POPC   H2X21187   0.861   6.357   6.839 -0.1632  0.1586 -1.4245
  185POPC   H2Y21188   0.965   6.494   6.896 -0.5275  0.2526  0.6852
  185POPC   C2321189   0.181   6.746   6.606  0.6362  0.5063 -0.4563
  185POPC   H3R21190   0.162   6.690   6.700 -2.2805  2.5061  0.2784
  185POPC   H3S21191   0.243   6.682   6.540  0.4804  0.6520 -0.7409
  185POPC   C2421192   0.045   6.774   6.548 -0.1297  0.5674 -0.5294
  185POPC   H4R21193   0.044   6.860   6.478 -1.0009  1.2361  0.2781
  185POPC   H4S21194  -0.020   6.813   6.629 -0.4951 -2.4876  0.8055
  185POPC   C2521195  -0.026   6.659   6.489 -0.4943 -0.0817 -0.1615
  185POPC   H5R21196  -0.136   6.664   6.505 -0.9717 -0.7762 -2.7250
  185POPC   H5S21197   0.007   6.569   6.546  1.1467  1.4696  1.4539
  185POPC   C2621198   0.003   6.637   6.341 -0.6776  0.0414  0.2241
  185POPC   H6R21199   0.111   6.623   6.320 -0.6287 -0.6522  0.9029
  185POPC   H6S21200  -0.029   6.730   6.290 -0.4654 -0.3541 -0.6646
  185POPC   C2721201  -0.058   6.515   6.277  0.4335  0.3686  0.6005
  185POPC   H7R21202  -0.165   6.540   6.267  0.2483 -0.3433  0.7409
  185POPC   H7S21203  -0.054   6.423   6.340 -2.6531  0.7051  1.4224
  185POPC   C2821204   0.020   6.465   6.145 -0.1072 -1.3027 -0.3197
  185POPC   H8R21205  -0.026   6.373   6.105  1.6119 -2.8079  0.9448
  185POPC   H8S21206   0.123   6.433   6.172  1.8411  0.8545 -4.3217
  185POPC   C2921207   0.005   6.568   6.036 -0.3593 -0.5931  0.3759
  185POPC   H9121208  -0.090   6.623   6.027 -0.9099 -1.0156  2.8462
  185POPC  C21021209   0.101   6.589   5.943 -0.5901  0.0321  0.6845
  185POPC  H10121210   0.072   6.656   5.861 -2.1552  1.0557  2.0175
  185POPC  C21121211   0.239   6.522   5.937  0.5865 -0.5040 -0.1853
  185POPC  H11R21212   0.236   6.437   5.866  0.9735 -2.0985  1.6236
  185POPC  H11S21213   0.268   6.490   6.039 -1.2086  0.1126  0.5507
  185POPC  C21221214   0.349   6.623   5.893  0.8472  1.3623 -0.1436
  185POPC  H12R21215   0.335   6.652   5.786 -0.2440  0.2602 -0.3228
  185POPC  H12S21216   0.446   6.569   5.897  0.3221  0.4889  2.0058
  185POPC  C21321217   0.356   6.749   5.978  0.0900  0.4546 -0.0236
  185POPC  H13R21218   0.279   6.826   5.957 -0.0254 -0.2169 -2.3478
  185POPC  H13S21219   0.453   6.788   5.940  0.5389  0.1596  0.7913
  185POPC  C21421220   0.378   6.721   6.121  0.2539  0.3829 -1.0576
  185POPC  H14R21221   0.425   6.621   6.128 -0.7111 -0.0839 -0.9872
  185POPC  H14S21222   0.278   6.716   6.171  1.2974  0.0495  1.1042
  185POPC  C21521223   0.468   6.821   6.188  0.2038 -0.4275 -0.4033
  185POPC  H15R21224   0.418   6.920   6.179 -0.7619 -0.9622 -1.0179
  185POPC  H15S21225   0.566   6.818   6.137 -0.5498 -4.4274 -2.0016
  185POPC  C21621226   0.495   6.821   6.336 -0.4673  0.0112  0.2978
  185POPC  H16R21227   0.409   6.783   6.394  0.3136 -0.2401  1.3232
  185POPC  H16S21228   0.521   6.923   6.370  0.8708 -0.4543  0.7458
  185POPC  C21721229   0.618   6.733   6.370  0.3136  0.6609  0.0258
  185POPC  H17R21230   0.603   6.637   6.315 -2.7315  1.3539 -0.5360
  185POPC  H17S21231   0.616   6.718   6.480  3.3689  2.2817  0.4052
  185POPC  C21821232   0.758   6.787   6.350  0.3906  0.7172 -0.4277
  185POPC  H18R21233   0.839   6.725   6.392 -1.0593 -0.8017  0.2533
  185POPC  H18S21234   0.752   6.878   6.414  1.1202 -0.4713  1.4007
  185POPC  H18T21235   0.779   6.811   6.243  1.5291  3.8773  0.3988
  185POPC   C3321236   1.016   6.434   6.688  0.9772 -1.4557 -0.2790
  185POPC   H3X21237   1.117   6.399   6.719  1.6208  1.4386  1.2990
  185POPC   H3Y21238   1.039   6.531   6.640 -1.6147 -0.4603  0.3362
  185POPC   C3421239   0.957   6.342   6.584 -0.8994  0.4114 -0.2770
  185POPC   H4X21240   0.850   6.356   6.557 -1.5206  0.8918  2.1391
  185POPC   H4Y21241   0.965   6.236   6.619  1.2500 -0.0393 -1.9625
  185POPC   C3521242   1.044   6.341   6.453 -0.0936 -0.5033 -0.3257
  185POPC   H5X21243   1.039   6.249   6.391 -0.4953 -1.0091  0.4430
  185POPC   H5Y21244   1.149   6.354   6.487 -0.4966  2.4118  0.0445
  185POPC   C3621245   1.031   6.468   6.360 -0.0401 -0.1567 -0.6076
  185POPC   H6X21246   1.077   6.558   6.405  0.5996  0.3452 -2.1783
  185POPC   H6Y21247   0.926   6.497   6.340 -0.3942 -1.0615 -0.1256
  185POPC   C3721248   1.098   6.458   6.224  0.1200 -0.2473  0.2913
  185POPC   H7X21249   1.085   6.357   6.178  0.1988  0.2820 -0.9401
  185POPC   H7Y21250   1.206   6.475   6.243  0.1760 -0.2850  0.0073
  185POPC   C3821251   1.038   6.569   6.133  0.2584 -0.2161  0.0250
  185POPC   H8X21252   1.046   6.669   6.180 -0.7088  0.4691 -1.2050
  185POPC   H8Y21253   0.927   6.564   6.126  0.2255  1.9417 -2.1699
  185POPC   C3921254   1.102   6.585   5.993 -0.2752 -0.2626 -0.5784
  185POPC   H9X21255   1.114   6.498   5.925  1.7204  0.9545 -1.8806
  185POPC   H9Y21256   1.211   6.603   6.000  0.1751 -1.9836 -2.3930
  185POPC  C31021257   1.040   6.704   5.919  0.0202 -0.0036  0.2148
  185POPC  H10X21258   1.108   6.758   5.849 -0.7156 -1.7398 -1.9611
  185POPC  H10Y21259   1.015   6.786   5.989 -1.2470  0.6048 -0.9191
  185POPC  C31121260   0.915   6.663   5.843  0.5095 -0.3417  0.1480
  185POPC  H11X21261   0.881   6.570   5.894  0.6101  0.8444  2.4945
  185POPC  H11Y21262   0.940   6.639   5.737  1.3049  2.1472 -0.3005
  185POPC  C31221263   0.808   6.769   5.852 -0.7173 -0.0799 -0.1990
  185POPC  H12X21264   0.852   6.855   5.798  0.2325  0.0321  0.7108
  185POPC  H12Y21265   0.785   6.794   5.958 -2.5895  0.7385 -0.7589
  185POPC  C31321266   0.676   6.727   5.791  0.0837  0.0599 -0.2479
  185POPC  H13X21267   0.603   6.810   5.790 -0.1889 -0.1265 -2.7735
  185POPC  H13Y21268   0.638   6.635   5.841  1.2120  0.7267  2.0090
  185POPC  C31421269   0.695   6.681   5.643  0.4046 -0.0475 -0.8209
  185POPC  H14X21270   0.753   6.587   5.649  1.3102  0.5346 -0.2240
  185POPC  H14Y21271   0.756   6.757   5.591  0.7050  2.2482  2.5466
  185POPC  C31521272   0.563   6.660   5.573  0.4910 -0.8129 -0.2341
  185POPC  H15X21273   0.518   6.761   5.591 -0.5372 -1.4868  1.1547
  185POPC  H15Y21274   0.486   6.591   5.613 -0.4991 -0.4603 -1.4489
  185POPC  C31621275   0.584   6.626   5.418  0.1655 -0.9368 -0.8897
  185POPC  H16X21276   0.643   6.533   5.411  0.4964 -1.0471  2.1387
  185POPC  H16Y21277   0.648   6.708   5.378  0.1733  0.8393  2.4049
  185POPC  H16Z21278   0.487   6.629   5.365  0.3374  1.9421 -1.2420
  186POPC     N21279   2.765   0.550   7.942 -0.3025 -0.2847  0.5003
  186POPC   C1221280   2.833   0.519   7.811  0.6075 -0.1373 -0.2511
  186POPC  H12A21281   2.913   0.448   7.825  0.6181 -0.4825 -1.8916
  186POPC  H12B21282   2.883   0.611   7.784 -1.6982  1.2293 -0.1201
  186POPC   C1321283   2.672   0.674   7.932  0.1509 -0.5866 -0.0272
  186POPC  H13A21284   2.584   0.650   7.875  0.2582  0.2110 -0.5474
  186POPC  H13B21285   2.651   0.713   8.030 -1.6967  2.0172 -1.3354
  186POPC  H13C21286   2.718   0.754   7.876 -0.3573 -0.0306  0.3316
  186POPC   C1421287   2.688   0.430   7.984 -0.2103  0.4016  0.8939
  186POPC  H14A21288   2.639   0.449   8.079  0.4676  0.1252  1.3057
  186POPC  H14B21289   2.619   0.408   7.904  1.0429  0.5039 -0.2444
  186POPC  H14C21290   2.757   0.350   8.006 -2.5750 -2.1118 -0.3722
  186POPC   C1521291   2.870   0.593   8.038 -0.0052 -0.1711 -0.2489
  186POPC  H15A21292   2.919   0.684   8.006 -1.3618  0.2647 -1.1748
  186POPC  H15B21293   2.942   0.515   8.053  0.5642  0.4243  0.1837
  186POPC  H15C21294   2.818   0.597   8.133 -0.1921 -2.6158 -0.1950
  186POPC   C1121295   2.748   0.460   7.692  0.3932  0.4081  0.1881
  186POPC  H11A21296   2.705   0.362   7.721 -1.3555  0.8703 -0.6794
  186POPC  H11B21297   2.818   0.437   7.609 -0.1376  0.9807 -0.4300
  186POPC     P21298   2.647   0.638   7.532 -0.2194 -0.1993  0.2332
  186POPC   O1321299   2.737   0.744   7.568  0.2830 -0.2468  0.7888
  186POPC   O1421300   2.505   0.669   7.502 -0.1012  0.2718  0.7896
  186POPC   O1221301   2.643   0.538   7.651  0.2826 -0.1766  0.4031
  186POPC   O1121302   2.715   0.557   7.413  0.0056  0.0149  0.5903
  186POPC    C121303   2.685   0.420   7.380  0.3904 -0.5621 -0.1068
  186POPC    HA21304   2.588   0.392   7.427 -0.9485  4.4403  0.6561
  186POPC    HB21305   2.768   0.360   7.423  0.5823 -1.0285 -1.1147
  186POPC    C221306   2.666   0.396   7.226  0.0384  0.5449  0.3124
  186POPC    HS21307   2.647   0.288   7.210  1.6574  0.3069 -0.1898
  186POPC   O2121308   2.778   0.432   7.142 -0.1576 -0.2236  0.5968
  186POPC   C2121309   2.883   0.356   7.161  0.3630  0.0888 -0.3152
  186POPC   O2221310   2.885   0.246   7.212 -0.5451 -0.4737 -0.2228
  186POPC   C2221311   3.000   0.416   7.085 -0.2323  0.2197 -0.2894
  186POPC   H2R21312   3.047   0.505   7.132  1.7247 -0.8314 -0.1407
  186POPC   H2S21313   2.947   0.439   6.990 -0.9521  0.3722  0.1388
  186POPC    C321314   2.538   0.458   7.175 -0.2772  0.0663 -0.4521
  186POPC    HX21315   2.564   0.566   7.166 -1.7193  0.2715 -2.8977
  186POPC    HY21316   2.460   0.450   7.254 -1.1075  3.3543 -0.7620
  186POPC   O3121317   2.506   0.402   7.050 -0.6893 -0.2329  0.2454
  186POPC   C3121318   2.388   0.339   7.039 -0.4406  0.3472  0.2320
  186POPC   O3221319   2.293   0.347   7.116  0.3200 -0.3544  0.4700
  186POPC   C3221320   2.395   0.265   6.910 -0.2193 -0.1233 -0.2036
  186POPC   H2X21321   2.494   0.217   6.900 -0.6060 -1.1080  0.5454
  186POPC   H2Y21322   2.388   0.335   6.824  1.6802 -2.9474 -2.8492
  186POPC   C2321323   3.101   0.306   7.046 -0.2655 -1.1054  0.4550
  186POPC   H3R21324   3.043   0.230   6.989 -2.1379  0.3660  0.3267
  186POPC   H3S21325   3.150   0.258   7.134 -0.1442  0.1634  1.0957
  186POPC   C2421326   3.220   0.350   6.959 -0.0302 -0.2616 -0.0153
  186POPC   H4R21327   3.282   0.265   6.925 -0.2085  0.2707 -1.7838
  186POPC   H4S21328   3.275   0.421   7.025  0.3221 -0.3554 -0.2071
  186POPC   C2521329   3.172   0.432   6.837  1.0532 -0.5803 -0.3555
  186POPC   H5R21330   3.161   0.538   6.871  1.1281 -0.9824  0.9815
  186POPC   H5S21331   3.074   0.390   6.806 -0.3224  2.6308 -0.7859
  186POPC   C2621332   3.266   0.422   6.717  0.2360 -1.3276  0.1912
  186POPC   H6R21333   3.274   0.322   6.669  2.8207 -0.8294 -0.5880
  186POPC   H6S21334   3.370   0.445   6.748  0.0084  1.6103 -0.9014
  186POPC   C2721335   3.230   0.520   6.603 -0.3859 -0.0245  0.4041
  186POPC   H7R21336   3.316   0.520   6.534 -0.0710  1.1541  0.7593
  186POPC   H7S21337   3.224   0.625   6.639  1.3386  0.4577 -0.6184
  186POPC   C2821338   3.099   0.471   6.534  0.1648 -0.0890 -0.3335
  186POPC   H8R21339   3.011   0.464   6.602 -0.7585  1.2043 -1.3471
  186POPC   H8S21340   3.128   0.375   6.486 -1.7710 -1.5914  1.2865
  186POPC   C2921341   3.059   0.563   6.427  0.2462  0.5117 -0.0412
  186POPC   H9121342   2.984   0.638   6.457 -1.1253 -0.4439 -0.9138
  186POPC  C21021343   3.097   0.564   6.296 -0.4297  0.4392  0.0343
  186POPC  H10121344   3.047   0.634   6.227  0.0293 -1.5038 -2.4371
  186POPC  C21121345   3.195   0.467   6.237 -0.2818 -0.5990 -0.8442
  186POPC  H11R21346   3.173   0.362   6.267  0.1489 -1.3597 -2.9799
  186POPC  H11S21347   3.301   0.494   6.254 -0.7997 -0.0036  1.8588
  186POPC  C21221348   3.185   0.463   6.081  0.1810 -0.1529  0.1114
  186POPC  H12R21349   3.086   0.429   6.044  0.1168  0.1667 -0.0152
  186POPC  H12S21350   3.254   0.379   6.059  0.7909  0.6771 -1.2649
  186POPC  C21321351   3.238   0.585   6.003  0.0585  0.3696 -0.1753
  186POPC  H13R21352   3.333   0.621   6.048  0.4820 -0.8877 -0.0300
  186POPC  H13S21353   3.147   0.648   6.005 -0.1290  0.1420 -1.1617
  186POPC  C21421354   3.265   0.555   5.855 -0.0820 -0.0944  0.1755
  186POPC  H14R21355   3.331   0.465   5.852  1.0922  0.7026  1.0191
  186POPC  H14S21356   3.320   0.644   5.816 -2.1484 -0.0116 -2.8596
  186POPC  C21521357   3.141   0.540   5.767  0.5915 -0.9517 -0.2440
  186POPC  H15R21358   3.080   0.632   5.765 -0.4777 -1.6062 -3.0492
  186POPC  H15S21359   3.071   0.464   5.808 -0.2108 -0.1714 -0.1435
  186POPC  C21621360   3.165   0.487   5.634  0.3181 -0.0177  0.0212
  186POPC  H16R21361   3.198   0.381   5.642 -1.0977 -0.3580  2.4283
  186POPC  H16S21362   3.242   0.553   5.588  0.6792 -0.8147 -0.5398
  186POPC  C21721363   3.037   0.505   5.551  0.7384 -0.1364 -0.6404
  186POPC  H17R21364   3.060   0.518   5.443  1.2674  0.7402 -0.4246
  186POPC  H17S21365   2.989   0.604   5.567  2.0986  0.8264 -2.1836
  186POPC  C21821366   2.929   0.401   5.562  0.6653  0.2832  0.4006
  186POPC  H18R21367   2.894   0.381   5.666  0.6803 -0.1712  0.3169
  186POPC  H18S21368   2.964   0.309   5.511  2.6066  2.3986 -2.3938
  186POPC  H18T21369   2.836   0.435   5.512  0.9982 -0.5137 -0.7825
  186POPC   C3321370   2.282   0.168   6.888  0.7832  0.5419 -0.4694
  186POPC   H3X21371   2.184   0.215   6.909  0.2572 -0.1695 -1.2643
  186POPC   H3Y21372   2.300   0.080   6.954  0.8308  1.2314  0.4552
  186POPC   C3421373   2.275   0.126   6.742 -0.5117 -0.1220  0.3387
  186POPC   H4X21374   2.361   0.066   6.707  0.7199 -0.0258  3.0082
  186POPC   H4Y21375   2.274   0.212   6.670  2.2923 -1.3739 -1.3563
  186POPC   C3521376   2.152   0.031   6.713 -0.7703 -0.4589 -0.2207
  186POPC   H5X21377   2.066   0.095   6.740 -0.1440 -0.2637  1.4095
  186POPC   H5Y21378   2.146  -0.054   6.785 -3.2825 -0.7196 -0.6319
  186POPC   C3621379   2.149  -0.025   6.567 -0.4670  0.8599 -0.3422
  186POPC   H6X21380   2.091  -0.119   6.567 -1.6750  1.5561  1.1456
  186POPC   H6Y21381   2.255  -0.034   6.535 -1.0481 -1.6187 -1.8150
  186POPC   C3721382   2.075   0.064   6.473 -0.0693  0.8107  0.7915
  186POPC   H7X21383   2.124   0.162   6.455 -0.8229  0.9008 -0.8939
  186POPC   H7Y21384   1.969   0.083   6.501 -0.4348  1.8228 -1.1659
  186POPC   C3821385   2.069   0.001   6.332  0.0591  0.0343  0.3486
  186POPC   H8X21386   2.021  -0.099   6.327 -1.1775  0.6664 -2.7289
  186POPC   H8Y21387   2.173   0.000   6.294 -0.7757  0.9175 -2.2045
  186POPC   C3921388   1.993   0.091   6.242  0.0858  0.3163 -0.3962
  186POPC   H9X21389   2.041   0.188   6.218  1.1950 -0.0738  0.1866
  186POPC   H9Y21390   1.889   0.111   6.275 -0.2127  1.7793 -2.0860
  186POPC  C31021391   1.981   0.011   6.105  0.4598  0.4360 -0.4268
  186POPC  H10X21392   1.912  -0.075   6.114  0.5857  0.1905 -1.6241
  186POPC  H10Y21393   2.080  -0.035   6.085 -0.0903 -0.4165 -1.2546
  186POPC  C31121394   1.945   0.107   6.001 -0.3585 -0.5085  0.3864
  186POPC  H11X21395   1.860   0.171   6.033 -2.0701 -1.3669 -2.1276
  186POPC  H11Y21396   1.914   0.049   5.911 -0.7551 -0.4366  0.4753
  186POPC  C31221397   2.050   0.206   5.961  0.0939 -0.2595  0.1672
  186POPC  H12X21398   2.143   0.152   5.933 -1.1099 -2.1766 -0.2498
  186POPC  H12Y21399   2.066   0.287   6.035 -0.3363 -0.8020  0.8658
  186POPC  C31321400   2.012   0.285   5.835  0.1632  0.6085  0.4692
  186POPC  H13X21401   2.061   0.385   5.831  1.0478  0.4167  3.4028
  186POPC  H13Y21402   1.904   0.305   5.828 -0.0910 -1.1384 -1.4079
  186POPC  C31421403   2.052   0.201   5.711 -0.3067 -0.8384 -0.7932
  186POPC  H14X21404   2.072   0.103   5.759 -0.1922 -1.0118 -1.1875
  186POPC  H14Y21405   2.136   0.247   5.654 -1.1445  0.3580 -1.0980
  186POPC  C31521406   1.935   0.182   5.620  0.1537  0.1305 -0.1034
  186POPC  H15X21407   1.840   0.187   5.677  0.4143 -2.1346  0.6037
  186POPC  H15Y21408   1.940   0.077   5.584  2.0762  0.5414 -1.1626
  186POPC  C31621409   1.939   0.278   5.503  0.6626  0.2094  0.3737
  186POPC  H16X21410   1.838   0.290   5.460  1.1929 -1.3388 -1.4264
  186POPC  H16Y21411   1.993   0.233   5.417  1.1449  3.1272 -0.9496
  186POPC  H16Z21412   1.991   0.375   5.520 -0.0836  0.3835  1.8802
  187POPC     N21413   0.091   1.595   2.384  0.5861  0.3967  0.3592
  187POPC   C1221414   0.157   1.628   2.520 -0.2193 -0.9884  0.2228
  187POPC  H12A21415   0.169   1.735   2.527 -1.1778 -0.9098  0.9515
  187POPC  H12B21416   0.256   1.587   2.525 -0.1298 -0.7436  0.4961
  187POPC   C1321417   0.092   1.447   2.360  0.5396  0.1110 -0.9391
  187POPC  H13A21418   0.037   1.422   2.271  0.4206 -1.9136 -0.3495
  187POPC  H13B21419   0.195   1.419   2.341  0.7759  0.1180  0.2379
  187POPC  H13C21420   0.064   1.404   2.455  1.3595  0.9937 -0.2711
  187POPC   C1421421  -0.053   1.644   2.384 -0.0303 -0.2267 -0.3998
  187POPC  H14A21422  -0.109   1.605   2.467  0.8515 -1.1542 -0.2178
  187POPC  H14B21423  -0.053   1.752   2.386 -0.4010 -0.2255  2.4405
  187POPC  H14C21424  -0.106   1.616   2.293 -3.1278  1.3688  0.7715
  187POPC   C1521425   0.168   1.665   2.275 -0.1874 -0.7760  0.0853
  187POPC  H15A21426   0.268   1.627   2.268  1.3650  2.1759  3.3101
  187POPC  H15B21427   0.174   1.771   2.296  1.2607 -0.8204 -0.0550
  187POPC  H15C21428   0.115   1.668   2.181 -0.5054  1.1673  0.2759
  187POPC   C1121429   0.090   1.582   2.650 -0.0917 -0.3691  0.5011
  187POPC  H11A21430  -0.016   1.612   2.662  0.0614 -0.1691  1.4010
  187POPC  H11B21431   0.147   1.633   2.730  0.8259 -1.0499  0.2994
  187POPC     P21432   0.229   1.367   2.711  0.3704  0.1430  0.4407
  187POPC   O1321433   0.331   1.397   2.608 -0.6532 -0.0686 -0.1634
  187POPC   O1421434   0.193   1.225   2.733  0.2822  0.3355 -0.0620
  187POPC   O1221435   0.094   1.438   2.665 -0.4805  0.4200 -0.0444
  187POPC   O1121436   0.258   1.445   2.846  0.8409  0.5124  0.5239
  187POPC    C121437   0.193   1.406   2.968  0.6905 -0.2742 -0.5919
  187POPC    HA21438   0.270   1.401   3.048  1.4343 -1.1419 -1.3423
  187POPC    HB21439   0.145   1.306   2.969  0.0306  0.0329 -0.8492
  187POPC    C221440   0.077   1.495   3.024 -0.3091  0.6146 -0.6017
  187POPC    HS21441  -0.010   1.490   2.956 -0.3353 -0.0460 -0.5219
  187POPC   O2121442   0.135   1.624   3.034 -0.2337 -0.3695  0.1231
  187POPC   C2121443   0.050   1.728   3.025  0.5737 -0.1672 -0.4438
  187POPC   O2221444  -0.072   1.719   3.036  0.6980 -0.1109 -0.0816
  187POPC   C2221445   0.125   1.860   2.998 -0.0458 -0.5586 -0.5919
  187POPC   H2R21446   0.085   1.898   2.902 -0.8444 -0.1986 -0.1231
  187POPC   H2S21447   0.234   1.842   2.990  0.2421  0.5043  0.5563
  187POPC    C321448   0.043   1.440   3.163  0.3435 -0.3965 -0.2382
  187POPC    HX21449   0.138   1.403   3.208  0.0367 -2.4027 -1.1105
  187POPC    HY21450  -0.015   1.348   3.139  0.3637 -0.8506  1.3633
  187POPC   O3121451  -0.039   1.525   3.245  0.2555  0.5018 -0.0645
  187POPC   C3121452   0.016   1.569   3.359 -0.5456  0.0192  0.3483
  187POPC   O3221453   0.125   1.536   3.408 -0.0505  0.0787 -0.4113
  187POPC   C3221454  -0.085   1.654   3.427 -0.8940 -0.1198 -0.4197
  187POPC   H2X21455  -0.182   1.621   3.385 -0.2320 -1.1688 -1.1849
  187POPC   H2Y21456  -0.072   1.761   3.398  0.1053 -0.2645 -0.5443
  187POPC   C2321457   0.098   1.964   3.111  0.2263 -0.4746 -0.3022
  187POPC   H3R21458  -0.009   1.991   3.126  0.8955  3.6757 -1.7673
  187POPC   H3S21459   0.156   2.056   3.088  1.9477 -1.1855  0.9980
  187POPC   C2421460   0.148   1.919   3.246  0.5245  0.2355 -0.6466
  187POPC   H4R21461   0.256   1.893   3.247  0.2207 -1.0956  1.0359
  187POPC   H4S21462   0.104   1.823   3.280  3.7896 -1.7357 -1.5828
  187POPC   C2521463   0.132   2.027   3.357 -0.4139 -0.0203 -0.8526
  187POPC   H5R21464   0.025   2.014   3.385 -0.7358 -1.6914 -2.6474
  187POPC   H5S21465   0.140   2.129   3.314 -1.3576  0.7606  0.7056
  187POPC   C2621466   0.222   2.013   3.481 -0.4782  0.6917 -0.0858
  187POPC   H6R21467   0.322   2.046   3.445  0.7334 -0.9533  1.5725
  187POPC   H6S21468   0.226   1.907   3.513  0.6765  0.9086  0.5182
  187POPC   C2721469   0.177   2.098   3.596  0.4764  0.1788  0.2837
  187POPC   H7R21470   0.103   2.045   3.658  1.1918 -2.2243 -0.8089
  187POPC   H7S21471   0.137   2.189   3.545  0.2475 -0.3132 -0.4358
  187POPC   C2821472   0.292   2.146   3.673 -0.2148 -0.2146  0.1249
  187POPC   H8R21473   0.269   2.231   3.740  1.0473  1.1987 -1.1679
  187POPC   H8S21474   0.368   2.189   3.605  1.6689  1.0466  2.8451
  187POPC   C2921475   0.364   2.030   3.747 -0.0529 -0.4918 -0.4559
  187POPC   H9121476   0.339   1.928   3.713 -1.0110 -0.6092  0.5687
  187POPC  C21021477   0.422   2.040   3.862  0.0414  0.6393 -0.0619
  187POPC  H10121478   0.469   1.953   3.909 -1.6096 -0.5258 -0.4911
  187POPC  C21121479   0.445   2.163   3.943 -0.1733  0.3553 -0.0218
  187POPC  H11R21480   0.422   2.258   3.890 -0.5260  0.3381  0.0957
  187POPC  H11S21481   0.555   2.160   3.955 -0.4258 -0.7676  3.2052
  187POPC  C21221482   0.396   2.151   4.092  0.2012 -0.2081  0.2055
  187POPC  H12R21483   0.425   2.239   4.153 -2.5766  1.0745 -0.1560
  187POPC  H12S21484   0.435   2.059   4.140  0.1060 -0.3195  0.0726
  187POPC  C21321485   0.242   2.151   4.100 -0.4428  0.3709 -0.2931
  187POPC  H13R21486   0.197   2.075   4.034 -1.0437 -0.4649  1.0438
  187POPC  H13S21487   0.204   2.249   4.063  0.7491  0.9843  0.0362
  187POPC  C21421488   0.206   2.112   4.245 -0.1184  0.1505 -0.7184
  187POPC  H14R21489   0.240   2.189   4.318  1.6998 -1.6042  0.4005
  187POPC  H14S21490   0.255   2.017   4.276 -0.7726  0.5942  1.8846
  187POPC  C21521491   0.054   2.092   4.268  0.8309  0.0971  0.2801
  187POPC  H15R21492   0.020   1.993   4.231  2.1286  0.1412 -1.1381
  187POPC  H15S21493   0.007   2.164   4.198 -0.7214 -0.7736  0.3785
  187POPC  C21621494   0.015   2.123   4.409 -0.4678  0.2456  0.1817
  187POPC  H16R21495   0.031   2.230   4.434 -0.2191 -0.0363  1.2877
  187POPC  H16S21496   0.075   2.058   4.478  1.6025  1.9895  0.1356
  187POPC  C21721497  -0.136   2.080   4.426  0.4162  0.2961 -1.0480
  187POPC  H17R21498  -0.142   1.980   4.379  1.3199 -0.5948  0.6046
  187POPC  H17S21499  -0.199   2.152   4.371 -3.5063 -2.5780 -0.7102
  187POPC  C21821500  -0.180   2.067   4.585  0.6278 -0.4980  0.7189
  187POPC  H18R21501  -0.094   2.030   4.644  0.9185 -1.8157 -0.4630
  187POPC  H18S21502  -0.272   2.006   4.598  0.0542  0.2381  0.2371
  187POPC  H18T21503  -0.208   2.169   4.618 -0.0246 -0.7290  0.8878
  187POPC   C3321504  -0.093   1.635   3.577 -0.2272  0.4963 -0.5352
  187POPC   H3X21505  -0.101   1.528   3.605  2.1437  0.3666 -0.0992
  187POPC   H3Y21506  -0.184   1.685   3.616  1.3734  1.2071  2.5530
  187POPC   C3421507   0.028   1.687   3.659 -0.2242  0.0604  0.6156
  187POPC   H4X21508   0.056   1.786   3.618 -1.5760  0.8583  1.5224
  187POPC   H4Y21509   0.109   1.613   3.646 -1.3155 -0.8720 -1.2789
  187POPC   C3521510  -0.003   1.702   3.810  0.0531 -0.9639  0.0114
  187POPC   H5X21511  -0.050   1.603   3.829  0.7179 -1.5604 -1.3521
  187POPC   H5Y21512  -0.077   1.784   3.817  0.6468 -0.1172 -2.6209
  187POPC   C3621513   0.124   1.727   3.896  0.3001 -0.1627  0.0194
  187POPC   H6X21514   0.175   1.812   3.847 -0.7712 -0.8593 -2.4339
  187POPC   H6Y21515   0.194   1.643   3.876  0.0420 -0.1542 -0.9675
  187POPC   C3721516   0.093   1.761   4.046 -0.7755  0.0030 -0.4395
  187POPC   H7X21517  -0.001   1.820   4.053  0.3292  1.8716 -0.4883
  187POPC   H7Y21518   0.173   1.826   4.090 -1.4923 -1.0183  2.6128
  187POPC   C3821519   0.087   1.636   4.131 -0.2747 -0.3620  0.1404
  187POPC   H8X21520   0.184   1.585   4.118  0.3803  0.2019  2.4925
  187POPC   H8Y21521   0.008   1.569   4.091  1.0389 -1.8207 -0.1169
  187POPC   C3921522   0.070   1.668   4.284  0.4640 -0.5569  0.2585
  187POPC   H9X21523  -0.035   1.702   4.299  0.3529 -1.0298  0.5960
  187POPC   H9Y21524   0.138   1.752   4.310  0.0301 -0.1138 -0.0233
  187POPC  C31021525   0.084   1.548   4.377 -0.7263  0.2597 -0.4611
  187POPC  H10X21526   0.168   1.477   4.361 -1.7473 -0.7760 -1.3667
  187POPC  H10Y21527  -0.009   1.488   4.387 -0.2350 -0.4138  0.1471
  187POPC  C31121528   0.102   1.591   4.528  0.0613  0.2359  0.2629
  187POPC  H11X21529   0.026   1.669   4.548 -0.1829 -0.2475  1.2841
  187POPC  H11Y21530   0.207   1.621   4.546 -0.1113  0.5665  0.7287
  187POPC  C31221531   0.069   1.470   4.613 -0.1072  0.7304  0.6314
  187POPC  H12X21532  -0.029   1.424   4.591  0.5471 -0.2872 -0.2619
  187POPC  H12Y21533   0.051   1.505   4.717 -0.5857  1.8757  0.1828
  187POPC  C31321534   0.178   1.361   4.631 -0.4817 -0.4221  0.2839
  187POPC  H13X21535   0.256   1.414   4.690  0.4581 -1.5234  0.0656
  187POPC  H13Y21536   0.215   1.343   4.528  0.8850 -2.3765  1.0733
  187POPC  C31421537   0.135   1.225   4.702  0.2400 -1.3361  0.7396
  187POPC  H14X21538   0.208   1.145   4.677  0.7025 -0.3209 -1.4020
  187POPC  H14Y21539   0.043   1.181   4.658 -1.2771  0.5121  1.9125
  187POPC  C31521540   0.120   1.233   4.852  0.4233 -0.1454 -0.4467
  187POPC  H15X21541   0.053   1.319   4.872  0.4246 -0.3424  0.4777
  187POPC  H15Y21542   0.220   1.255   4.894 -0.4334  0.2625  1.4801
  187POPC  C31621543   0.058   1.110   4.919  0.2213  0.0369 -0.2127
  187POPC  H16X21544   0.066   1.116   5.030 -0.4373  1.2941 -0.2221
  187POPC  H16Y21545   0.099   1.013   4.884  1.1254  0.5008 -0.4920
  187POPC  H16Z21546  -0.051   1.100   4.903 -0.0137  0.3502  1.0640
  188POPC     N21547   6.280   0.875   2.539  0.2224 -0.2781 -0.1935
  188POPC   C1221548   6.137   0.867   2.554  0.4147 -0.4587 -0.4996
  188POPC  H12A21549   6.101   0.940   2.624  2.4435  0.1159  0.0077
  188POPC  H12B21550   6.123   0.767   2.592 -1.3504 -0.6372 -1.5328
  188POPC   C1321551   6.316   0.994   2.453  0.6714  0.8609 -0.1150
  188POPC  H13A21552   6.423   1.011   2.458  0.3750  2.5321  2.4398
  188POPC  H13B21553   6.278   0.976   2.353  1.3486 -1.4034 -0.0280
  188POPC  H13C21554   6.266   1.079   2.497 -1.9599  0.9404 -2.9293
  188POPC   C1421555   6.344   0.913   2.672 -0.1682 -0.4211 -0.5846
  188POPC  H14A21556   6.314   0.837   2.743 -0.7867  1.7245  1.6255
  188POPC  H14B21557   6.450   0.899   2.659 -0.3218 -1.2425 -0.9569
  188POPC  H14C21558   6.327   1.011   2.714 -0.5129 -0.8455  0.2934
  188POPC   C1521559   6.337   0.752   2.486 -0.0519  0.2726 -0.4408
  188POPC  H15A21560   6.443   0.760   2.463 -0.3518  0.1942 -1.9801
  188POPC  H15B21561   6.289   0.703   2.402  0.5441 -0.6609 -0.2619
  188POPC  H15C21562   6.340   0.672   2.559  0.0571  1.0488  0.4212
  188POPC   C1121563   6.050   0.872   2.419 -0.0953 -0.8812 -0.6132
  188POPC  H11A21564   6.062   0.968   2.366 -3.4448 -2.2856 -4.4598
  188POPC  H11B21565   5.950   0.876   2.468  0.3815 -0.8927  0.3815
  188POPC     P21566   5.996   0.618   2.357 -0.5716 -0.3821 -0.2368
  188POPC   O1321567   6.069   0.525   2.265  0.0315  0.4935 -0.3572
  188POPC   O1421568   5.846   0.632   2.349 -0.4684 -0.5498 -0.5880
  188POPC   O1221569   6.073   0.759   2.336  0.3812  0.4474 -0.0863
  188POPC   O1121570   6.035   0.572   2.503  0.1988  0.3574  0.9088
  188POPC    C121571   5.947   0.482   2.571 -0.0913 -0.1134 -0.6092
  188POPC    HA21572   5.980   0.377   2.565  0.5493  0.1281 -1.4317
  188POPC    HB21573   5.839   0.501   2.554 -0.7072  1.1307  3.5347
  188POPC    C221574   5.966   0.515   2.723 -0.5681  0.2988 -0.4712
  188POPC    HS21575   5.907   0.438   2.778  0.4667 -0.8228 -0.8976
  188POPC   O2121576   5.925   0.648   2.750  0.7670 -0.4035  0.5073
  188POPC   C2121577   5.793   0.657   2.784  0.5703  0.3216 -0.2728
  188POPC   O2221578   5.721   0.559   2.800  0.4443  0.1606  0.6931
  188POPC   C2221579   5.750   0.798   2.816  0.8441 -0.5641  0.3871
  188POPC   H2R21580   5.640   0.803   2.804  0.6657 -1.5557  1.4279
  188POPC   H2S21581   5.798   0.866   2.743 -0.1671 -1.4954 -1.1937
  188POPC    C321582   6.116   0.492   2.768 -0.4725  1.0574  0.6283
  188POPC    HX21583   6.175   0.561   2.704 -0.1979 -0.1169 -0.4276
  188POPC    HY21584   6.143   0.390   2.732 -0.4604  0.5227  2.0793
  188POPC   O3121585   6.140   0.514   2.906 -0.4385 -0.2997  0.1266
  188POPC   C3121586   6.188   0.628   2.943 -0.1805  0.1796  0.5124
  188POPC   O3221587   6.220   0.722   2.873 -0.2483  0.3235 -0.3941
  188POPC   C3221588   6.196   0.626   3.088  0.5598  0.0763  0.0279
  188POPC   H2X21589   6.306   0.615   3.098  0.7262 -0.1273 -1.6924
  188POPC   H2Y21590   6.150   0.536   3.134  0.1723  0.3884  0.2624
  188POPC   C2321591   5.790   0.839   2.965 -0.2020 -0.7377 -0.3898
  188POPC   H3R21592   5.746   0.941   2.967 -0.6914 -0.8921 -2.0118
  188POPC   H3S21593   5.901   0.834   2.977 -0.2917  0.5834  1.4133
  188POPC   C2421594   5.716   0.771   3.079 -0.0421  1.1601  0.0566
  188POPC   H4R21595   5.608   0.749   3.061  0.2786 -1.7514  1.0754
  188POPC   H4S21596   5.709   0.835   3.170 -0.6907 -1.5985  2.1264
  188POPC   C2521597   5.770   0.641   3.130 -0.3216 -0.4464  0.2501
  188POPC   H5R21598   5.881   0.647   3.132 -0.2585 -1.5546  0.3974
  188POPC   H5S21599   5.751   0.559   3.057  0.7254  0.9518 -1.7060
  188POPC   C2621600   5.729   0.602   3.274  0.5025  0.2853  0.0451
  188POPC   H6R21601   5.768   0.676   3.347  1.2608  0.4957 -0.5580
  188POPC   H6S21602   5.761   0.496   3.287 -2.2969 -0.4139  2.0595
  188POPC   C2721603   5.578   0.589   3.293 -0.3468  0.0188 -0.0260
  188POPC   H7R21604   5.539   0.517   3.218  0.3276 -1.3926  0.9140
  188POPC   H7S21605   5.533   0.687   3.267  1.1091  0.1140 -2.5185
  188POPC   C2821606   5.527   0.536   3.424 -0.1819 -0.1069 -0.2906
  188POPC   H8R21607   5.417   0.549   3.428 -0.2292 -0.7287  1.6416
  188POPC   H8S21608   5.568   0.607   3.499  2.7044 -2.3919  0.4563
  188POPC   C2921609   5.573   0.399   3.451  0.7974  0.1694 -0.0644
  188POPC   H9121610   5.558   0.322   3.374 -1.4729 -0.0885  0.5504
  188POPC  C21021611   5.629   0.363   3.574 -0.1571  0.4414  0.5043
  188POPC  H10121612   5.688   0.271   3.590 -0.9914  0.0416  1.3656
  188POPC  C21121613   5.645   0.459   3.687  0.0317 -0.7449  0.3093
  188POPC  H11R21614   5.544   0.494   3.718  0.5129  0.9505  0.0575
  188POPC  H11S21615   5.709   0.549   3.676  1.1900 -1.4327  1.2208
  188POPC  C21221616   5.705   0.386   3.809 -0.7115  1.1203  0.3872
  188POPC  H12R21617   5.715   0.456   3.895  2.2255  0.7407  0.4349
  188POPC  H12S21618   5.812   0.359   3.797 -1.5818 -2.7278 -0.0790
  188POPC  C21321619   5.634   0.259   3.868 -0.4399  0.7576 -0.3599
  188POPC  H13R21620   5.629   0.173   3.798 -0.0170  0.0556  0.4516
  188POPC  H13S21621   5.533   0.290   3.902  0.7684  1.0095  3.4824
  188POPC  C21421622   5.705   0.209   3.999  0.3760  0.8055  0.1293
  188POPC  H14R21623   5.704   0.296   4.068 -1.4349  1.4258 -0.6378
  188POPC  H14S21624   5.810   0.183   3.973 -0.4934 -2.0255 -0.8216
  188POPC  C21521625   5.640   0.095   4.080 -0.6223  0.7282 -0.1991
  188POPC  H15R21626   5.618   0.003   4.023 -1.2263  0.6814  0.0949
  188POPC  H15S21627   5.540   0.136   4.107 -1.6182 -2.0140  0.6235
  188POPC  C21621628   5.707   0.060   4.211  0.4186 -0.2357  0.1799
  188POPC  H16R21629   5.643  -0.003   4.276 -0.0625  0.0918  0.0271
  188POPC  H16S21630   5.726   0.155   4.265  0.8682 -0.0715 -0.2615
  188POPC  C21721631   5.839  -0.028   4.202  0.0995 -0.4031 -0.5695
  188POPC  H17R21632   5.886  -0.017   4.302 -0.2828 -0.0500 -0.4242
  188POPC  H17S21633   5.903   0.003   4.117 -1.1765  0.4650 -1.2584
  188POPC  C21821634   5.803  -0.176   4.191 -0.3000  0.0185 -0.0261
  188POPC  H18R21635   5.736  -0.189   4.103 -0.1134  2.8195 -0.6589
  188POPC  H18S21636   5.756  -0.213   4.285 -1.2601 -2.0187 -1.2203
  188POPC  H18T21637   5.901  -0.228   4.188 -0.5611 -0.6492  1.6975
  188POPC   C3321638   6.154   0.758   3.158  0.0240 -0.0933  0.7672
  188POPC   H3X21639   6.060   0.805   3.123  0.1573 -0.4165 -0.0284
  188POPC   H3Y21640   6.219   0.843   3.132 -0.6749  1.0901  2.6548
  188POPC   C3421641   6.142   0.747   3.314  0.0110 -0.9741  0.2668
  188POPC   H4X21642   6.241   0.721   3.356 -0.4956 -1.7143  1.0193
  188POPC   H4Y21643   6.074   0.660   3.330 -0.6058 -0.3613  1.0690
  188POPC   C3521644   6.099   0.884   3.382  0.3778  0.0379 -0.5206
  188POPC   H5X21645   5.998   0.912   3.345  0.0447 -0.5658 -0.0897
  188POPC   H5Y21646   6.167   0.964   3.347 -0.2791  1.6464  1.6446
  188POPC   C3621647   6.111   0.870   3.536 -0.3209 -0.1144  0.2275
  188POPC   H6X21648   6.083   0.962   3.591  2.8787  1.1525 -0.0679
  188POPC   H6Y21649   6.220   0.861   3.552 -0.2880 -0.0820  0.0202
  188POPC   C3721650   6.050   0.745   3.598 -0.0528 -0.5033 -0.2143
  188POPC   H7X21651   6.127   0.666   3.581  0.2191  0.0470 -1.7325
  188POPC   H7Y21652   5.953   0.724   3.548 -0.6677 -0.1974  0.8369
  188POPC   C3821653   6.027   0.760   3.747 -0.6186  0.7391 -0.0396
  188POPC   H8X21654   5.945   0.834   3.757 -0.7878  0.6303 -0.5677
  188POPC   H8Y21655   6.119   0.794   3.799  2.4681 -1.8876 -3.2701
  188POPC   C3921656   5.989   0.629   3.817  0.0073  0.2837 -0.2083
  188POPC   H9X21657   6.068   0.551   3.817 -2.3597 -2.3947  2.8201
  188POPC   H9Y21658   5.906   0.584   3.759 -0.2875  1.4524 -0.7273
  188POPC  C31021659   5.968   0.654   3.965 -0.1737 -0.3004 -0.3162
  188POPC  H10X21660   5.871   0.704   3.985  0.9282  0.5208  3.7397
  188POPC  H10Y21661   6.043   0.729   3.996  1.0482 -0.7383 -2.0171
  188POPC  C31121662   5.977   0.529   4.045  0.3431 -0.6622 -0.3940
  188POPC  H11X21663   6.082   0.501   4.021  0.3684  0.4541 -1.6969
  188POPC  H11Y21664   5.906   0.446   4.023 -0.2210 -0.1347 -0.6089
  188POPC  C31221665   5.955   0.561   4.194 -1.0310  0.1838 -0.3104
  188POPC  H12X21666   5.860   0.617   4.204 -0.1971  1.2946  2.6231
  188POPC  H12Y21667   6.024   0.640   4.231  0.7426 -1.5064  0.1645
  188POPC  C31321668   5.960   0.441   4.281  0.2971  1.0139 -0.4540
  188POPC  H13X21669   5.900   0.359   4.237  0.4956  0.4570  0.2857
  188POPC  H13Y21670   5.902   0.461   4.374 -0.6963 -0.8198 -0.6347
  188POPC  C31421671   6.099   0.386   4.308 -0.3486 -0.8125 -0.4273
  188POPC  H14X21672   6.162   0.463   4.358 -3.4093  1.8071 -0.2745
  188POPC  H14Y21673   6.151   0.365   4.212  3.4621  0.9333  1.0422
  188POPC  C31521674   6.099   0.260   4.387  0.3923  0.0511  0.2107
  188POPC  H15X21675   6.199   0.214   4.372 -0.5505 -1.6356 -1.1965
  188POPC  H15Y21676   6.034   0.192   4.328  0.9118  1.7311 -2.4819
  188POPC  C31621677   6.069   0.267   4.531 -0.2258 -0.1978 -0.2261
  188POPC  H16X21678   6.128   0.340   4.591 -1.9062 -0.3378  1.7317
  188POPC  H16Y21679   6.093   0.169   4.577  0.0670 -1.2976 -2.5857
  188POPC  H16Z21680   5.961   0.288   4.548  0.3168  2.7999  0.2138
  189SAPI   C1221681   2.368   0.335   7.687  0.2469  0.1648  0.3784
  189SAPI    H221682   2.391   0.340   7.579  0.7381 -1.1280  0.4025
  189SAPI    O221683   2.424   0.453   7.747  0.5905  0.3895 -0.1356
  189SAPI   HO221684   2.508   0.458   7.702 -0.7357 -0.5331 -2.9300
  189SAPI   C1321685   2.216   0.340   7.703 -0.4308 -0.5661 -0.2882
  189SAPI    H321686   2.179   0.241   7.668  0.0004 -0.5042 -0.9468
  189SAPI    O321687   2.154   0.440   7.620  0.6301  0.1123 -0.1018
  189SAPI   HO321688   2.133   0.397   7.537  3.1008  0.8251 -1.2002
  189SAPI   C1421689   2.170   0.343   7.853  0.2059 -0.1552  0.4636
  189SAPI    H421690   2.195   0.444   7.891  0.1716 -0.7344  2.0977
  189SAPI    O421691   2.029   0.331   7.871 -0.2826  0.8507 -0.3397
  189SAPI   HO421692   2.029   0.306   7.964 -0.7204  3.4160  0.4167
  189SAPI   C1521693   2.244   0.240   7.938 -0.1904  0.2835 -1.1585
  189SAPI    H521694   2.188   0.145   7.923  0.3717 -0.2140 -0.2477
  189SAPI    O521695   2.235   0.284   8.078 -0.3992  0.1089  0.5981
  189SAPI   HO521696   2.235   0.205   8.132 -0.2801 -1.1859 -1.2119
  189SAPI   C1621697   2.391   0.207   7.897  0.2175  0.0799  0.5582
  189SAPI    H621698   2.451   0.288   7.944  0.3064  0.1047  0.4026
  189SAPI    O621699   2.428   0.076   7.952  0.3013 -0.4268  0.0548
  189SAPI   HO621700   2.413   0.008   7.887 -0.5329 -0.6317  0.4523
  189SAPI   C1121701   2.425   0.204   7.749 -0.2966 -0.7289  0.0183
  189SAPI    H121702   2.366   0.125   7.698  0.4083 -0.8942 -0.5461
  189SAPI     P21703   2.601   0.065   7.606 -0.0329  0.0295 -0.6575
  189SAPI   O1321704   2.523  -0.056   7.644  0.1664 -0.6887  0.1915
  189SAPI   O1421705   2.749   0.055   7.583  0.1876 -0.0547 -0.1557
  189SAPI   O1221706   2.566   0.179   7.720  0.0887  0.3418 -0.1988
  189SAPI   O1121707   2.544   0.122   7.473  0.4022 -0.4092  0.2580
  189SAPI    C121708   2.434   0.061   7.396 -0.2195 -0.1027 -1.0557
  189SAPI    HA21709   2.369   0.006   7.468  2.0338 -0.5156  0.7946
  189SAPI    HB21710   2.375   0.144   7.352 -1.0381 -0.1815 -0.1339
  189SAPI    C221711   2.484  -0.034   7.286  0.6358  0.2139 -0.3200
  189SAPI    HS21712   2.543  -0.114   7.337 -1.0731  0.3014  1.9332
  189SAPI   O2121713   2.559   0.042   7.197 -0.2909  0.3136  0.5198
  189SAPI   C2121714   2.637  -0.022   7.116 -0.3972  0.0901  0.3636
  189SAPI   O2221715   2.654  -0.143   7.121 -0.0100 -0.1809  0.2692
  189SAPI   C2221716   2.703   0.078   7.024  0.5419  0.1956  0.3696
  189SAPI   H2R21717   2.656   0.178   7.026 -1.8208 -0.7800 -1.0799
  189SAPI   H2S21718   2.805   0.085   7.066  1.9689 -0.0703 -2.7317
  189SAPI    C321719   2.354  -0.094   7.212  0.3762 -0.0250  0.2121
  189SAPI    HX21720   2.281  -0.011   7.205  0.6980  0.5044  2.3860
  189SAPI    HY21721   2.297  -0.164   7.276 -1.2883 -0.5595 -1.7598
  189SAPI   O3121722   2.366  -0.132   7.079 -0.1386 -0.4087  0.3249
  189SAPI   C3121723   2.357  -0.257   7.046  0.0947 -0.4457  1.1375
  189SAPI   O3221724   2.313  -0.346   7.120 -0.3757  0.1429 -0.2980
  189SAPI   C3221725   2.400  -0.270   6.899 -0.7142  0.0135  0.3745
  189SAPI   H2X21726   2.501  -0.226   6.885 -0.5357 -0.7026 -0.7008
  189SAPI   H2Y21727   2.334  -0.207   6.835  0.0471  2.3255  1.7546
  189SAPI   C2321728   2.712   0.036   6.876 -0.0949  0.9947 -0.5315
  189SAPI   H3R21729   2.616   0.053   6.823 -1.1372  2.2126  1.6478
  189SAPI   H3S21730   2.733  -0.074   6.876 -1.4515  0.7069 -1.2093
  189SAPI   C2421731   2.823   0.098   6.796 -0.1436  0.2907  0.5781
  189SAPI   H4R21732   2.841   0.044   6.701 -1.8611 -1.2075  1.0295
  189SAPI   H4S21733   2.915   0.084   6.856 -0.5322 -1.6354  0.8117
  189SAPI   C2521734   2.789   0.243   6.767 -0.4437  0.2754 -0.5008
  189SAPI   H5R21735   2.822   0.311   6.847  1.3892 -3.0116  1.7703
  189SAPI   C2621736   2.721   0.286   6.660  0.7021 -0.6451 -0.1013
  189SAPI   H6R21737   2.694   0.393   6.659 -2.1931 -1.2739  0.8250
  189SAPI   C2721738   2.665   0.205   6.551 -0.2763  0.6381  0.4054
  189SAPI   H7R21739   2.648   0.098   6.574 -0.4228  0.5274 -0.1961
  189SAPI   H7S21740   2.738   0.197   6.467 -1.3070 -3.0100 -0.3170
  189SAPI   C2821741   2.534   0.258   6.497  0.1792 -0.7929 -0.2035
  189SAPI   H8R21742   2.481   0.327   6.564  0.2141 -1.0982  0.1402
  189SAPI   C2921743   2.472   0.227   6.377 -0.4542  0.2782  0.1157
  189SAPI   H9R21744   2.376   0.273   6.351 -0.0961  0.0872 -1.6985
  189SAPI  C21021745   2.534   0.131   6.271  0.2670  0.3727  0.8101
  189SAPI  H10R21746   2.449   0.082   6.219  2.3047 -2.9274  0.2332
  189SAPI  H10S21747   2.573   0.039   6.320  0.8650  0.4445  0.4779
  189SAPI  C21121748   2.637   0.182   6.178 -0.0024 -0.1518  0.2387
  189SAPI  H11R21749   2.730   0.219   6.223 -0.2863 -0.5234  1.1597
  189SAPI  C21221750   2.627   0.192   6.047 -0.7418  0.1914 -0.6351
  189SAPI  H12R21751   2.704   0.253   5.996  1.2425  1.7259  3.7542
  189SAPI  C21321752   2.508   0.141   5.973  0.0110  0.3016  0.2894
  189SAPI  H13R21753   2.416   0.149   6.034 -0.4032 -1.4340 -0.0536
  189SAPI  H13S21754   2.522   0.031   5.963  0.2722 -0.0079  3.1378
  189SAPI  C21421755   2.489   0.192   5.827  0.3202 -0.0615  0.0772
  189SAPI  H14R21756   2.520   0.114   5.755  1.1398  0.6430 -0.3447
  189SAPI  C21521757   2.442   0.308   5.788  0.2173 -0.1014 -0.3231
  189SAPI  H15R21758   2.426   0.321   5.680  1.4404 -2.3303 -0.8178
  189SAPI  C21621759   2.386   0.413   5.885  0.2996  0.2924  0.4042
  189SAPI  H16R21760   2.359   0.367   5.983 -0.8530 -2.0034 -0.9007
  189SAPI  H16S21761   2.304   0.468   5.835  1.8718  3.1607  0.7513
  189SAPI  C21721762   2.501   0.517   5.913  0.5663  0.4228 -0.3668
  189SAPI  H17R21763   2.587   0.467   5.960 -0.3047 -1.3549 -0.5804
  189SAPI  H17S21764   2.467   0.584   5.995  0.5137 -2.7828  2.4225
  189SAPI  C21821765   2.555   0.580   5.780  0.2193  0.1868  1.0528
  189SAPI  H18R21766   2.476   0.639   5.730 -0.4847 -2.8915 -1.7877
  189SAPI  H18S21767   2.592   0.497   5.717 -1.8857 -0.8497  1.1123
  189SAPI  C21921768   2.671   0.674   5.811  0.0023  0.5684 -0.1608
  189SAPI  H19R21769   2.757   0.614   5.848 -0.8933 -0.7701 -0.1815
  189SAPI  H19S21770   2.641   0.754   5.882 -0.9112 -0.4753  0.6651
  189SAPI  C22021771   2.734   0.755   5.696  0.3538 -0.0175  0.1382
  189SAPI  H20R21772   2.821   0.812   5.733  1.9129 -0.9518 -1.9042
  189SAPI  H20S21773   2.656   0.817   5.645 -1.4029  0.0775  2.7588
  189SAPI  H20T21774   2.790   0.692   5.623  3.2026  2.9133 -0.4343
  189SAPI   C3321775   2.425  -0.425   6.861 -0.1250  0.2227  0.0133
  189SAPI   H3X21776   2.332  -0.481   6.882  0.4799 -0.9401 -0.3683
  189SAPI   H3Y21777   2.501  -0.463   6.932 -0.3678  0.2119  0.2667
  189SAPI   C3421778   2.467  -0.446   6.716 -0.6394  0.3090 -0.4110
  189SAPI   H4X21779   2.470  -0.552   6.683  0.4926  0.7362 -1.7619
  189SAPI   H4Y21780   2.574  -0.421   6.699 -1.0168  2.5308  0.2453
  189SAPI   C3521781   2.379  -0.365   6.626 -0.0615 -0.7996 -0.0180
  189SAPI   H5X21782   2.377  -0.254   6.635 -0.4039 -0.9119  1.5639
  189SAPI   H5Y21783   2.280  -0.410   6.647  0.3298 -1.3858  0.6182
  189SAPI   C3621784   2.403  -0.402   6.473 -0.2298  0.5027 -0.5468
  189SAPI   H6X21785   2.390  -0.510   6.450 -0.9150  0.5459 -0.3739
  189SAPI   H6Y21786   2.507  -0.376   6.443 -0.1523  1.9369  0.8353
  189SAPI   C3721787   2.318  -0.319   6.380  0.1008  0.1933  0.8918
  189SAPI   H7X21788   2.322  -0.210   6.401 -2.0744  0.3248  0.8053
  189SAPI   H7Y21789   2.210  -0.345   6.381 -0.6854  3.0216 -0.5005
  189SAPI   C3821790   2.352  -0.345   6.231  0.0398  0.2040 -0.0566
  189SAPI   H8X21791   2.316  -0.449   6.217  0.4658 -0.1934  1.6558
  189SAPI   H8Y21792   2.462  -0.342   6.217  0.3647 -1.3704  1.8271
  189SAPI   C3921793   2.297  -0.245   6.130 -1.1653  0.7672  0.3689
  189SAPI   H9X21794   2.326  -0.145   6.170  1.9560 -0.3809  1.2530
  189SAPI   H9Y21795   2.187  -0.245   6.115 -1.0216  2.4205 -1.0374
  189SAPI  C31021796   2.367  -0.271   5.996  0.2229 -0.0073  0.3046
  189SAPI  H10X21797   2.355  -0.380   5.976 -3.0997  0.6430 -2.1453
  189SAPI  H10Y21798   2.472  -0.237   5.988 -0.5823  2.4902 -0.6079
  189SAPI  C31121799   2.282  -0.205   5.883  0.0016 -0.1036 -0.0587
  189SAPI  H11X21800   2.280  -0.094   5.887 -1.5342 -0.0908 -0.5018
  189SAPI  H11Y21801   2.182  -0.253   5.887  1.6745 -3.9016  0.9215
  189SAPI  C31221802   2.353  -0.221   5.748  0.1034 -0.1457  0.3070
  189SAPI  H12X21803   2.346  -0.331   5.737 -0.1739  0.0486 -2.0948
  189SAPI  H12Y21804   2.461  -0.199   5.737 -0.1722  0.6318 -1.0796
  189SAPI  C31321805   2.280  -0.153   5.631 -0.0387  0.0786 -0.5319
  189SAPI  H13X21806   2.312  -0.047   5.634  0.4215 -0.0703  0.0077
  189SAPI  H13Y21807   2.171  -0.150   5.655 -0.0862  0.5826 -0.7971
  189SAPI  C31421808   2.299  -0.210   5.486  0.8483  0.2189  0.8009
  189SAPI  H14X21809   2.273  -0.316   5.467  0.9483  0.3534 -0.1092
  189SAPI  H14Y21810   2.407  -0.202   5.463  0.5395  1.7168 -0.2553
  189SAPI  C31521811   2.209  -0.130   5.389  0.0645 -0.2777  0.2432
  189SAPI  H15X21812   2.242  -0.023   5.391 -2.0045  0.3961  2.3116
  189SAPI  H15Y21813   2.106  -0.130   5.431 -0.6292 -0.4141 -1.3802
  189SAPI  C31621814   2.196  -0.183   5.242  0.5440 -0.4751  0.1743
  189SAPI  H16X21815   2.155  -0.286   5.247  1.6959 -0.9088  0.9062
  189SAPI  H16Y21816   2.299  -0.185   5.201  0.5270  3.4445 -0.4290
  189SAPI  C31721817   2.122  -0.087   5.145 -0.1614  0.3973 -0.3827
  189SAPI  H17X21818   2.189  -0.003   5.116  1.9573 -0.7676  0.8836
  189SAPI  H17Y21819   2.037  -0.046   5.203  0.1140 -1.3678  1.3554
  189SAPI  C31821820   2.080  -0.145   5.012  0.5327 -0.1603 -0.2606
  189SAPI  H18X21821   2.026  -0.242   5.017 -1.7635  0.9398 -1.7463
  189SAPI  H18Y21822   2.173  -0.166   4.956  1.6949 -1.0559  1.8592
  189SAPI  H18Z21823   2.023  -0.061   4.967  1.1995  0.1247 -0.5792
  190SAPI   C1221824   1.932   4.140   6.935 -0.2033 -0.1412  0.1992
  190SAPI    H221825   1.835   4.085   6.930 -0.6851  0.2792  3.1740
  190SAPI    O221826   1.930   4.283   6.901  0.1433  0.2181 -0.0129
  190SAPI   HO221827   1.903   4.285   6.809  2.0125 -0.3441 -0.6156
  190SAPI   C1321828   1.976   4.130   7.081 -0.0347  0.6814 -0.8624
  190SAPI    H321829   1.982   4.022   7.106 -2.0508  0.4160 -1.3575
  190SAPI    O321830   1.872   4.178   7.163  0.5767  0.1996 -0.0702
  190SAPI   HO321831   1.860   4.273   7.149 -2.5112  0.0741  0.9653
  190SAPI   C1421832   2.113   4.196   7.119 -0.0128  0.3102  0.0624
  190SAPI    H421833   2.101   4.306   7.109  1.1249  0.4269 -0.1079
  190SAPI    O421834   2.152   4.180   7.261 -0.4067 -0.5725 -0.2639
  190SAPI   HO421835   2.094   4.229   7.320  0.2470 -1.6921  1.4083
  190SAPI   C1521836   2.218   4.155   7.017 -0.0950 -0.1877  0.3383
  190SAPI    H521837   2.263   4.065   7.064  1.4216  1.1690  1.6175
  190SAPI    O521838   2.326   4.246   7.017  0.4127 -0.4664 -0.5174
  190SAPI   HO521839   2.405   4.194   6.999  0.0302 -0.1478 -3.7484
  190SAPI   C1621840   2.175   4.124   6.875  0.7786  0.3807  0.1405
  190SAPI    H621841   2.175   4.221   6.821 -0.1678  1.1899  1.5212
  190SAPI    O621842   2.275   4.044   6.816 -0.1221  0.6742 -0.1554
  190SAPI   HO621843   2.277   3.953   6.847  1.9254  0.3421 -1.1264
  190SAPI   C1121844   2.035   4.059   6.851 -0.3363  0.1912 -0.7207
  190SAPI    H121845   2.033   3.956   6.894  1.0629 -0.2931 -1.7558
  190SAPI     P21846   1.902   3.951   6.641  0.0186 -0.2490 -0.0694
  190SAPI   O1321847   1.835   4.010   6.526  0.1426  0.3112 -0.1851
  190SAPI   O1421848   1.816   3.889   6.748 -0.0199  0.4996  0.1386
  190SAPI   O1221849   1.986   4.071   6.719 -0.0326  0.2057 -0.1237
  190SAPI   O1121850   2.015   3.845   6.598  0.2107 -0.2202 -0.3985
  190SAPI    C121851   2.131   3.888   6.534 -0.0780  0.3306 -0.1759
  190SAPI    HA21852   2.100   3.922   6.433  1.3793  0.3565 -0.6415
  190SAPI    HB21853   2.187   3.963   6.594 -0.4546 -0.0463  0.6641
  190SAPI    C221854   2.238   3.777   6.525  0.0530  0.2754  0.5036
  190SAPI    HS21855   2.333   3.819   6.486  1.1168 -2.2011  0.1750
  190SAPI   O2121856   2.205   3.666   6.432 -0.6526  0.9251  0.1537
  190SAPI   C2121857   2.210   3.702   6.306 -0.1107  0.3864  0.7807
  190SAPI   O2221858   2.237   3.811   6.259 -0.2525 -0.2987  0.0430
  190SAPI   C2221859   2.165   3.578   6.223 -0.1686 -0.2688 -0.6417
  190SAPI   H2R21860   2.256   3.516   6.208  0.6556  0.6841  0.2088
  190SAPI   H2S21861   2.094   3.515   6.281  0.7253 -1.3065 -0.6349
  190SAPI    C321862   2.271   3.715   6.661 -0.2726  0.7712 -0.4109
  190SAPI    HX21863   2.186   3.651   6.693 -1.8611  1.7335 -2.4697
  190SAPI    HY21864   2.287   3.793   6.739 -0.2738  0.8994 -0.5401
  190SAPI   O3121865   2.387   3.629   6.643  0.0038 -0.3704 -0.4678
  190SAPI   C3121866   2.502   3.685   6.650  0.1852  0.1750 -0.1012
  190SAPI   O3221867   2.519   3.799   6.681 -0.5645 -0.6160  0.1432
  190SAPI   C3221868   2.604   3.578   6.627  0.2786 -0.7106  0.4499
  190SAPI   H2X21869   2.566   3.477   6.654  0.9994 -1.3937 -1.0074
  190SAPI   H2Y21870   2.682   3.610   6.699  0.9111  1.4244 -1.0887
  190SAPI   C2321871   2.097   3.607   6.087  0.2968 -0.2450  0.2899
  190SAPI   H3R21872   2.044   3.705   6.096  1.9279  0.6787  0.2186
  190SAPI   H3S21873   2.021   3.531   6.061 -0.3511  0.3344  0.4443
  190SAPI   C2421874   2.197   3.638   5.973 -0.5507 -0.1193 -0.7066
  190SAPI   H4R21875   2.291   3.585   5.999 -1.3845 -0.9130  0.8158
  190SAPI   H4S21876   2.216   3.747   5.984 -0.2421 -0.3347  1.1922
  190SAPI   C2521877   2.146   3.617   5.834 -0.1314  0.4171 -0.0505
  190SAPI   H5R21878   2.086   3.705   5.807  1.4229  0.7622 -2.6867
  190SAPI   C2621879   2.167   3.512   5.759 -0.1137  0.1090 -0.7313
  190SAPI   H6R21880   2.133   3.518   5.655  0.1261 -1.1638 -0.9000
  190SAPI   C2721881   2.261   3.401   5.792  0.9654  0.1622 -0.7152
  190SAPI   H7R21882   2.329   3.439   5.871 -0.3978 -0.6699  0.9135
  190SAPI   H7S21883   2.321   3.364   5.705  1.5369  0.6965 -0.5562
  190SAPI   C2821884   2.169   3.291   5.846  0.0501 -1.0218 -0.6539
  190SAPI   H8R21885   2.129   3.311   5.947 -0.1305  0.1412 -0.9344
  190SAPI   C2921886   2.133   3.175   5.793  0.0179  0.3852  0.5131
  190SAPI   H9R21887   2.054   3.115   5.839 -0.4714 -2.0885 -3.1537
  190SAPI  C21021888   2.168   3.141   5.649  0.4902  0.5338  0.2230
  190SAPI  H10R21889   2.237   3.054   5.640 -0.2109  0.0590 -0.7309
  190SAPI  H10S21890   2.225   3.223   5.599  0.0373  1.4281  1.1355
  190SAPI  C21121891   2.035   3.116   5.584  0.4043  0.5405 -0.5051
  190SAPI  H11R21892   1.960   3.195   5.603 -0.0192  0.1076 -0.3744
  190SAPI  C21221893   2.001   2.997   5.521 -0.1747  0.0434 -0.1899
  190SAPI  H12R21894   1.897   2.985   5.490 -0.1033 -1.2066 -0.0021
  190SAPI  C21321895   2.087   2.873   5.487  0.9399  0.0875  0.5804
  190SAPI  H13R21896   2.183   2.890   5.540  1.4560 -1.4529  0.1812
  190SAPI  H13S21897   2.101   2.880   5.377 -1.7685  0.7490  0.1971
  190SAPI  C21421898   2.030   2.733   5.523 -0.6210  0.1148  0.6555
  190SAPI  H14R21899   1.964   2.687   5.448 -1.2484 -0.8426  1.7652
  190SAPI  C21521900   2.041   2.685   5.648  0.0095 -0.0873 -0.1688
  190SAPI  H15R21901   2.011   2.581   5.668 -0.8179  0.5951  2.5892
  190SAPI  C21621902   2.120   2.744   5.768 -0.0091 -0.3497  0.5287
  190SAPI  H16R21903   2.123   2.855   5.767 -2.0547 -0.2513  0.5416
  190SAPI  H16S21904   2.223   2.704   5.758  0.6058  1.4929 -1.2314
  190SAPI  C21721905   2.042   2.726   5.896  0.1345  0.8506 -0.7688
  190SAPI  H17R21906   2.022   2.619   5.917  1.0707  0.4893 -1.6362
  190SAPI  H17S21907   1.942   2.773   5.882 -0.6140 -0.7014 -0.8387
  190SAPI  C21821908   2.102   2.796   6.017 -0.6562 -0.0908  0.6931
  190SAPI  H18R21909   2.133   2.901   5.998  1.5820 -1.1932 -2.8150
  190SAPI  H18S21910   2.202   2.752   6.036 -2.2353 -3.9860  0.8724
  190SAPI  C21921911   2.013   2.784   6.141 -0.2572  0.3992 -0.0783
  190SAPI  H19R21912   1.917   2.834   6.116  0.1436  0.8032 -0.8791
  190SAPI  H19S21913   2.065   2.839   6.223  1.1165  0.1018 -0.7201
  190SAPI  C22021914   2.004   2.629   6.181 -0.2567 -0.5852 -1.0432
  190SAPI  H20R21915   2.104   2.583   6.193  1.3521  2.8487  0.1138
  190SAPI  H20S21916   1.934   2.581   6.109 -0.1363 -2.4943  0.0518
  190SAPI  H20T21917   1.948   2.613   6.275  1.2613  1.8781  0.3896
  190SAPI   C3321918   2.654   3.571   6.482  0.1430  0.3746  0.4747
  190SAPI   H3X21919   2.754   3.525   6.472 -0.3331 -0.1728 -3.0424
  190SAPI   H3Y21920   2.662   3.677   6.449  0.5765  0.3244  0.4182
  190SAPI   C3421921   2.551   3.501   6.379 -0.0469  0.0378 -0.5463
  190SAPI   H4X21922   2.462   3.568   6.375  0.1869  0.2981 -2.1715
  190SAPI   H4Y21923   2.518   3.407   6.428  1.9414 -0.0385  0.7865
  190SAPI   C3521924   2.617   3.488   6.242  0.3688 -0.2241 -0.4254
  190SAPI   H5X21925   2.565   3.408   6.185 -1.7350  0.6073  0.2250
  190SAPI   H5Y21926   2.726   3.470   6.257 -0.2349 -1.9383  2.6076
  190SAPI   C3621927   2.601   3.622   6.169  0.1730 -0.2446 -0.3888
  190SAPI   H6X21928   2.694   3.680   6.187  0.4239 -0.7767  0.0571
  190SAPI   H6Y21929   2.522   3.682   6.219 -0.1366 -2.6531  2.3454
  190SAPI   C3721930   2.567   3.611   6.023 -0.1829 -0.4808  0.3698
  190SAPI   H7X21931   2.523   3.703   5.979 -0.8797 -0.6808  0.6311
  190SAPI   H7Y21932   2.499   3.524   6.011  1.0515 -1.1616 -2.2111
  190SAPI   C3821933   2.688   3.582   5.927 -0.1355 -0.5841 -0.3580
  190SAPI   H8X21934   2.737   3.492   5.968  0.0841 -0.4013 -0.2180
  190SAPI   H8Y21935   2.752   3.673   5.923 -2.2559  1.0467  0.4271
  190SAPI   C3921936   2.641   3.550   5.783  0.3983  0.2011 -1.2815
  190SAPI   H9X21937   2.584   3.456   5.791 -0.0447  0.5695  0.2681
  190SAPI   H9Y21938   2.733   3.530   5.724  0.8442  0.7660 -0.7942
  190SAPI  C31021939   2.552   3.655   5.710 -0.1429 -0.2101 -0.3514
  190SAPI  H10X21940   2.615   3.746   5.721 -1.4977  0.6520  0.6190
  190SAPI  H10Y21941   2.453   3.667   5.759  0.3402  0.5233  0.4737
  190SAPI  C31121942   2.526   3.612   5.566 -0.4183  0.2849 -0.3947
  190SAPI  H11X21943   2.466   3.691   5.516  0.2540 -0.5744 -2.6669
  190SAPI  H11Y21944   2.469   3.519   5.547 -0.1740  0.1103 -0.2746
  190SAPI  C31221945   2.659   3.621   5.489 -0.2056  0.6491  0.0248
  190SAPI  H12X21946   2.715   3.527   5.502  0.0429  0.9892  1.5298
  190SAPI  H12Y21947   2.713   3.709   5.528  0.4533  0.4516 -0.4256
  190SAPI  C31321948   2.646   3.653   5.339  0.2592  0.5178 -0.6054
  190SAPI  H13X21949   2.575   3.737   5.320 -0.4995 -0.3581 -1.8187
  190SAPI  H13Y21950   2.616   3.554   5.297  2.7650 -0.3207 -0.5820
  190SAPI  C31421951   2.775   3.677   5.270  0.0511  0.1801 -0.0766
  190SAPI  H14X21952   2.854   3.604   5.298 -1.7312 -1.4051  0.9942
  190SAPI  H14Y21953   2.812   3.778   5.298 -0.3605  0.4687 -0.5426
  190SAPI  C31521954   2.759   3.660   5.111  0.2296  0.3309 -0.5780
  190SAPI  H15X21955   2.680   3.733   5.084  0.9697  1.1900 -0.4689
  190SAPI  H15Y21956   2.718   3.557   5.105 -2.4631  1.0036  2.9397
  190SAPI  C31621957   2.892   3.680   5.035  0.1761 -0.8130 -0.4467
  190SAPI  H16X21958   2.973   3.618   5.078  0.8424 -0.3415 -0.9907
  190SAPI  H16Y21959   2.928   3.784   5.048 -0.5075 -0.7958  1.6973
  190SAPI  C31721960   2.890   3.645   4.885  0.1435 -1.1836  0.1728
  190SAPI  H17X21961   2.824   3.711   4.824  2.3904  2.3433  1.2484
  190SAPI  H17Y21962   2.849   3.543   4.867  1.1504 -1.1826 -2.6287
  190SAPI  C31821963   3.032   3.653   4.832  0.4402 -0.3652 -0.1152
  190SAPI  H18X21964   3.071   3.757   4.841 -2.7401  1.0651 -1.2950
  190SAPI  H18Y21965   3.049   3.618   4.729 -0.3512  1.2259 -0.8329
  190SAPI  H18Z21966   3.101   3.586   4.888  0.2551 -0.7112 -0.3032
  191SAPI   C1221967   4.396   5.212   2.422 -0.2087 -0.6332 -0.3722
  191SAPI    H221968   4.454   5.301   2.452 -1.0738 -0.8586  2.3094
  191SAPI    O221969   4.369   5.219   2.283  0.8292 -0.2284  0.5415
  191SAPI   HO221970   4.458   5.215   2.246  0.3167 -1.3537 -0.6684
  191SAPI   C1321971   4.486   5.099   2.465 -1.1132  0.5873  0.6329
  191SAPI    H321972   4.487   5.088   2.575 -0.0921 -1.8485  0.4373
  191SAPI    O321973   4.617   5.109   2.410  0.2007  0.1690 -0.8466
  191SAPI   HO321974   4.676   5.098   2.485 -2.9605 -1.8277  1.5988
  191SAPI   C1421975   4.430   4.967   2.423 -0.0254 -0.9976  0.1477
  191SAPI    H421976   4.440   4.969   2.312 -2.0730 -1.7211 -0.1038
  191SAPI    O421977   4.506   4.854   2.458 -0.0203 -0.4425  0.1400
  191SAPI   HO421978   4.516   4.814   2.372  2.9283  1.9499 -0.8102
  191SAPI   C1521979   4.280   4.949   2.439  0.2095 -0.2347  0.3182
  191SAPI    H521980   4.278   4.890   2.533 -0.4027 -0.1990  0.3313
  191SAPI    O521981   4.228   4.862   2.338 -0.2750 -1.2683 -0.5601
  191SAPI   HO521982   4.188   4.784   2.377  0.5223 -0.5179  1.9078
  191SAPI   C1621983   4.190   5.073   2.457 -0.2690  0.3776  0.7631
  191SAPI    H621984   4.151   5.103   2.357  0.6629  0.1745  0.3252
  191SAPI    O621985   4.080   5.047   2.549 -0.0146 -0.2883 -0.4392
  191SAPI   HO621986   4.055   5.128   2.595  2.3175 -0.9176  2.2313
  191SAPI   C1121987   4.266   5.192   2.507 -0.0144 -0.3206 -0.0165
  191SAPI    H121988   4.294   5.179   2.614  1.1153  1.7580 -0.0176
  191SAPI     P21989   4.129   5.391   2.625 -0.3277 -0.3013  0.2889
  191SAPI   O1321990   4.068   5.287   2.711 -0.5184  0.5227  0.0581
  191SAPI   O1421991   4.044   5.506   2.569  0.0621  0.3645  0.3805
  191SAPI   O1221992   4.192   5.316   2.491 -0.3410  0.0425  0.6987
  191SAPI   O1121993   4.263   5.447   2.699  0.1388 -0.4660 -0.4034
  191SAPI    C121994   4.330   5.560   2.643 -0.0256 -0.1906  0.0692
  191SAPI    HA21995   4.401   5.524   2.565  0.7499 -0.1163  0.7261
  191SAPI    HB21996   4.268   5.638   2.594  0.6143  0.4089  0.1975
  191SAPI    C221997   4.426   5.640   2.743  0.5772  0.3878  0.5121
  191SAPI    HS21998   4.463   5.736   2.702  2.6260  0.4828  2.4210
  191SAPI   O2121999   4.545   5.566   2.775  0.4093  0.0784  0.2298
  191SAPI   C2122000   4.634   5.569   2.687 -0.3191 -0.5298 -0.2288
  191SAPI   O2222001   4.641   5.642   2.584 -0.0291  0.5845 -0.0099
  191SAPI   C2222002   4.743   5.476   2.736  0.1928 -0.6695  0.7574
  191SAPI   H2R22003   4.706   5.401   2.810  2.3978 -1.3192  1.2689
  191SAPI   H2S22004   4.773   5.428   2.641  0.4731 -0.7886  0.9053
  191SAPI    C322005   4.344   5.670   2.873  0.1870  0.3187 -0.6252
  191SAPI    HX22006   4.274   5.583   2.878  1.6654 -1.0352 -2.2575
  191SAPI    HY22007   4.280   5.757   2.847  0.0918  0.6705  0.7162
  191SAPI   O3122008   4.427   5.674   2.989 -0.1855 -0.3652 -0.3263
  191SAPI   C3122009   4.467   5.798   3.011  0.7562  0.1018 -0.1164
  191SAPI   O3222010   4.436   5.898   2.944  0.3219 -0.1570 -0.1100
  191SAPI   C3222011   4.527   5.809   3.146 -0.3176 -0.0911  0.3684
  191SAPI   H2X22012   4.633   5.838   3.129 -0.7929  3.7958  2.7848
  191SAPI   H2Y22013   4.511   5.713   3.200  0.7532  0.4652  1.7394
  191SAPI   C2322014   4.852   5.574   2.793  0.1874  0.1292 -0.3401
  191SAPI   H3R22015   4.888   5.637   2.709  1.6347 -0.2207 -0.0063
  191SAPI   H3S22016   4.943   5.516   2.821 -1.0717 -0.9726  1.7195
  191SAPI   C2422017   4.808   5.646   2.922 -0.6118  0.1197  0.2762
  191SAPI   H4R22018   4.724   5.714   2.894 -0.3968 -0.3450 -1.6323
  191SAPI   H4S22019   4.889   5.716   2.953  0.5873 -0.8157 -0.6869
  191SAPI   C2522020   4.758   5.559   3.039 -0.0097 -0.5515  0.0231
  191SAPI   H5R22021   4.686   5.479   3.018  0.4019 -0.7577 -0.6231
  191SAPI   C2622022   4.790   5.565   3.166 -0.7703 -0.4663  0.2483
  191SAPI   H6R22023   4.739   5.488   3.226 -1.9427 -0.5856 -0.8539
  191SAPI   C2722024   4.880   5.666   3.231  0.4816  0.1693  0.5195
  191SAPI   H7R22025   4.832   5.706   3.322  0.8922  0.2500  0.7048
  191SAPI   H7S22026   4.898   5.754   3.166 -0.8984  1.2154  1.5061
  191SAPI   C2822027   5.007   5.606   3.276 -0.3570 -0.8794  0.4204
  191SAPI   H8R22028   5.061   5.543   3.203 -0.5321  0.6000 -1.0472
  191SAPI   C2922029   5.060   5.615   3.400 -0.1416  0.1212  0.1173
  191SAPI   H9R22030   5.150   5.556   3.423 -0.0433 -0.9030 -2.5458
  191SAPI  C21022031   5.013   5.675   3.524  0.1255 -0.3267 -0.5282
  191SAPI  H10R22032   4.936   5.751   3.499  0.8936  0.9505  0.8715
  191SAPI  H10S22033   5.098   5.736   3.561  1.3151 -0.4537 -2.8675
  191SAPI  C21122034   4.966   5.586   3.636  0.6101 -0.1135 -0.3058
  191SAPI  H11R22035   4.874   5.529   3.616  0.4948 -0.0036 -0.0937
  191SAPI  C21222036   5.021   5.576   3.758  0.1119 -0.4256  0.1247
  191SAPI  H12R22037   4.977   5.496   3.819  0.2515  0.5443  1.5421
  191SAPI  C21322038   5.137   5.653   3.816  0.2573 -0.1486 -0.4878
  191SAPI  H13R22039   5.092   5.744   3.859  0.3167 -0.7828  0.9777
  191SAPI  H13S22040   5.194   5.699   3.733 -1.7874  1.7880 -0.8923
  191SAPI  C21422041   5.224   5.570   3.905  0.3627  0.1955  0.5051
  191SAPI  H14R22042   5.251   5.472   3.863  0.2465  0.0867  0.6801
  191SAPI  C21522043   5.260   5.595   4.035 -0.0650  0.3075  0.0759
  191SAPI  H15R22044   5.320   5.526   4.097 -0.4088  0.5420  0.6745
  191SAPI  C21622045   5.204   5.710   4.112 -0.5461  0.2138  0.0762
  191SAPI  H16R22046   5.099   5.732   4.083 -0.5315  0.5341  0.2646
  191SAPI  H16S22047   5.268   5.795   4.082 -0.2177  0.2950  0.9709
  191SAPI  C21722048   5.202   5.677   4.267 -1.1596  0.3067  0.1218
  191SAPI  H17R22049   5.127   5.596   4.281 -2.7693  1.4583 -1.3290
  191SAPI  H17S22050   5.161   5.768   4.316  1.0398  2.2028 -1.3442
  191SAPI  C21822051   5.345   5.655   4.328  0.5216 -0.5737  0.5526
  191SAPI  H18R22052   5.379   5.756   4.360 -1.2118  0.6190 -1.1319
  191SAPI  H18S22053   5.419   5.620   4.254  1.9312 -2.9125  2.8871
  191SAPI  C21922054   5.344   5.559   4.448 -0.0281 -0.0874 -0.7584
  191SAPI  H19R22055   5.340   5.451   4.422  1.0202 -0.5199  0.7350
  191SAPI  H19S22056   5.245   5.572   4.496 -0.2187 -1.4105 -0.7538
  191SAPI  C22022057   5.465   5.569   4.536 -0.1388  0.6015 -0.0407
  191SAPI  H20R22058   5.552   5.608   4.477  0.8588 -0.1040  0.9328
  191SAPI  H20S22059   5.489   5.474   4.587 -1.4193 -0.2860 -1.0315
  191SAPI  H20T22060   5.422   5.641   4.609  2.0569  1.4617  0.4827
  191SAPI   C3322061   4.457   5.928   3.215 -0.5510  0.1753  0.1886
  191SAPI   H3X22062   4.348   5.908   3.218 -0.6062  0.5732  0.9645
  191SAPI   H3Y22063   4.481   6.027   3.171  2.9664 -0.2382  0.8917
  191SAPI   C3422064   4.485   5.931   3.366  0.7389  0.0270 -0.0885
  191SAPI   H4X22065   4.448   5.837   3.412 -4.2876  1.4964 -0.4828
  191SAPI   H4Y22066   4.414   6.006   3.406  0.3637 -0.1607 -0.3863
  191SAPI   C3522067   4.629   5.966   3.404  0.3603 -0.1010  0.0479
  191SAPI   H5X22068   4.630   6.074   3.431 -1.4983 -0.5436  2.2738
  191SAPI   H5Y22069   4.697   5.943   3.320  1.1523  0.2466  0.5796
  191SAPI   C3622070   4.676   5.890   3.525 -0.3231 -0.4776  0.1929
  191SAPI   H6X22071   4.787   5.889   3.520 -0.2115  2.4626  0.5544
  191SAPI   H6Y22072   4.641   5.785   3.515  1.6818 -1.3463  1.7532
  191SAPI   C3722073   4.611   5.928   3.664 -0.1792  0.4824  0.3884
  191SAPI   H7X22074   4.500   5.915   3.666 -0.6663  3.4863 -0.8902
  191SAPI   H7Y22075   4.620   6.034   3.697  0.0476  0.4938  0.2907
  191SAPI   C3822076   4.672   5.844   3.782  0.9424  0.3411 -0.0093
  191SAPI   H8X22077   4.780   5.870   3.784  0.7171  1.4835 -1.1621
  191SAPI   H8Y22078   4.671   5.737   3.755 -1.2125  0.3879 -0.2374
  191SAPI   C3922079   4.608   5.860   3.918  0.0217 -0.7063 -0.1580
  191SAPI   H9X22080   4.513   5.804   3.929 -0.7948  0.8015  0.7112
  191SAPI   H9Y22081   4.585   5.968   3.922  0.7402 -0.5577  0.2304
  191SAPI  C31022082   4.696   5.829   4.039  0.0873  0.1571 -0.0937
  191SAPI  H10X22083   4.627   5.851   4.123  0.7091 -1.0284  0.7591
  191SAPI  H10Y22084   4.781   5.901   4.033 -0.1664  0.3989 -0.8168
  191SAPI  C31122085   4.738   5.680   4.047 -0.4104  0.5373  0.3900
  191SAPI  H11X22086   4.805   5.654   3.962 -0.6879  0.6120  0.1469
  191SAPI  H11Y22087   4.657   5.604   4.044  1.3739 -1.5263  1.3165
  191SAPI  C31222088   4.823   5.664   4.171  0.1977 -0.0584 -0.2323
  191SAPI  H12X22089   4.899   5.744   4.179  0.6048 -0.3434 -1.1101
  191SAPI  H12Y22090   4.872   5.565   4.157 -0.8652 -0.5876 -0.2943
  191SAPI  C31322091   4.743   5.639   4.298  0.0248 -0.4501  0.4859
  191SAPI  H13X22092   4.685   5.544   4.296 -0.9880  0.1635  0.5592
  191SAPI  H13Y22093   4.664   5.713   4.322  0.3526 -0.2944  1.1300
  191SAPI  C31422094   4.841   5.632   4.414 -0.1263  0.1613 -0.3284
  191SAPI  H14X22095   4.908   5.721   4.420 -0.1518  0.1239  0.6965
  191SAPI  H14Y22096   4.913   5.550   4.397  1.4621  1.3205  0.4591
  191SAPI  C31522097   4.786   5.608   4.554 -0.6832  0.2098 -0.7223
  191SAPI  H15X22098   4.722   5.517   4.551  0.7133 -0.7886 -1.4715
  191SAPI  H15Y22099   4.716   5.691   4.579  2.1467  2.6285 -0.2531
  191SAPI  C31622100   4.892   5.586   4.667  0.2949  0.3324  0.3101
  191SAPI  H16X22101   4.939   5.684   4.689  2.8259 -0.8511  0.5396
  191SAPI  H16Y22102   4.975   5.518   4.636  0.7455  1.1173 -0.2388
  191SAPI  C31722103   4.823   5.536   4.794 -0.3272  0.2734 -0.0238
  191SAPI  H17X22104   4.792   5.429   4.785  0.0588  0.2883 -2.0515
  191SAPI  H17Y22105   4.729   5.591   4.816 -0.9304 -0.8211  0.2394
  191SAPI  C31822106   4.924   5.560   4.911 -0.0160  0.4914  0.0293
  191SAPI  H18X22107   5.027   5.535   4.880 -0.1256 -0.9762  0.7086
  191SAPI  H18Y22108   4.896   5.500   5.001  0.2647 -0.0576 -0.2426
  191SAPI  H18Z22109   4.915   5.668   4.936  1.5270  0.0387  3.0649
  192SAPI   C1222110   1.099   4.617   2.556 -0.0349 -0.4112  0.6479
  192SAPI    H222111   1.045   4.681   2.629  0.8196 -0.2230  1.1288
  192SAPI    O222112   1.230   4.658   2.532  0.0533  0.3743  0.0672
  192SAPI   HO222113   1.284   4.625   2.604  1.4143 -2.5202 -2.0913
  192SAPI   C1322114   1.106   4.478   2.612 -0.7095  0.1815 -0.4455
  192SAPI    H322115   1.002   4.441   2.620 -0.3399 -0.7477  0.2011
  192SAPI    O322116   1.149   4.483   2.750  0.0872 -0.6609  0.3394
  192SAPI   HO322117   1.071   4.494   2.805 -0.4538  0.0337 -0.5320
  192SAPI   C1422118   1.167   4.369   2.524  0.1509 -0.4472  0.5653
  192SAPI    H422119   1.275   4.394   2.521 -0.0617  0.5579  0.8144
  192SAPI    O422120   1.149   4.245   2.580  0.7681 -1.1226  0.0097
  192SAPI   HO422121   1.059   4.213   2.577 -0.5065  1.8852  1.6822
  192SAPI   C1522122   1.131   4.382   2.378 -0.2771 -0.8809 -0.2940
  192SAPI    H522123   1.041   4.321   2.354  0.7351 -2.6518  0.1771
  192SAPI    O522124   1.213   4.318   2.288 -0.7579  0.4609 -0.0465
  192SAPI   HO522125   1.193   4.224   2.285  0.7950  0.0886  0.4793
  192SAPI   C1622126   1.082   4.520   2.318 -0.5460  0.1277 -0.1162
  192SAPI    H622127   1.173   4.573   2.282  0.5927 -2.1460 -0.8078
  192SAPI    O622128   1.000   4.494   2.198  0.4980 -0.3728  0.0803
  192SAPI   HO622129   0.957   4.577   2.179  0.9932 -0.2197 -0.3696
  192SAPI   C1122130   1.021   4.614   2.425  0.2285  0.2917  0.4775
  192SAPI    H122131   0.920   4.572   2.447 -0.8223  2.3691 -0.1168
  192SAPI     P22132   0.885   4.841   2.403 -0.0792 -0.1223  0.3704
  192SAPI   O1322133   0.763   4.758   2.424 -0.0901 -0.0324 -0.7975
  192SAPI   O1422134   0.866   4.938   2.294  0.0590  0.0727  0.2758
  192SAPI   O1222135   1.010   4.741   2.360 -0.1540  0.4277  0.3323
  192SAPI   O1122136   0.940   4.917   2.531 -0.1035  0.4488 -0.9767
  192SAPI    C122137   1.077   4.961   2.530  0.3982 -0.4111 -0.5818
  192SAPI    HA22138   1.151   4.878   2.518  1.1050  0.4635 -2.8194
  192SAPI    HB22139   1.099   5.021   2.439 -0.6377  0.2189 -0.4253
  192SAPI    C222140   1.113   5.037   2.665  0.8350 -0.1092 -0.1939
  192SAPI    HS22141   1.209   5.091   2.650  0.7281  0.3192  0.6119
  192SAPI   O2122142   1.121   4.946   2.779 -0.4285  0.0555  0.0195
  192SAPI   C2122143   1.236   4.876   2.794 -0.0032  0.4777 -0.1029
  192SAPI   O2222144   1.331   4.887   2.719  0.4901  0.2388  0.4942
  192SAPI   C2222145   1.232   4.774   2.899 -0.2429  0.3827 -0.1084
  192SAPI   H2R22146   1.133   4.724   2.900  0.2298 -0.6286 -1.3447
  192SAPI   H2S22147   1.293   4.686   2.869  0.0948 -0.0828  1.8097
  192SAPI    C322148   1.005   5.141   2.707  0.7184 -0.4144  0.6550
  192SAPI    HX22149   0.913   5.086   2.737  0.0192  0.2642 -0.2031
  192SAPI    HY22150   0.983   5.199   2.614  0.9346 -0.5301  0.5310
  192SAPI   O3122151   1.050   5.233   2.807 -0.3991  0.3690  0.0563
  192SAPI   C3122152   1.118   5.335   2.767  0.1678  0.2526  0.1533
  192SAPI   O3222153   1.173   5.350   2.661 -0.2211  0.5766  0.9292
  192SAPI   C3222154   1.135   5.426   2.885  0.0247  0.8465 -0.1231
  192SAPI   H2X22155   1.177   5.367   2.970 -3.3398 -0.8399  0.5636
  192SAPI   H2Y22156   1.038   5.434   2.937  0.5542 -3.8196  2.1525
  192SAPI   C2322157   1.284   4.823   3.037 -0.0539 -1.2637  0.4923
  192SAPI   H3R22158   1.381   4.875   3.021  1.2944 -3.4691  1.0355
  192SAPI   H3S22159   1.309   4.729   3.090 -0.3437 -2.3817 -1.2438
  192SAPI   C2422160   1.165   4.904   3.095 -1.3801  0.4166 -0.1969
  192SAPI   H4R22161   1.070   4.849   3.109  0.0249 -1.9768  0.4725
  192SAPI   H4S22162   1.137   4.992   3.033  1.0265  1.6169  0.2903
  192SAPI   C2522163   1.214   4.948   3.231  0.0288  0.7666  0.0605
  192SAPI   H5R22164   1.248   4.859   3.287  0.1373 -0.1128 -1.3388
  192SAPI   C2622165   1.189   5.067   3.288  0.3184  1.2987 -0.3797
  192SAPI   H6R22166   1.220   5.087   3.392 -0.1416 -0.5600  0.1486
  192SAPI   C2722167   1.130   5.194   3.229  0.3728  0.3419 -0.1498
  192SAPI   H7R22168   1.036   5.211   3.286  1.5901  0.4025  1.9710
  192SAPI   H7S22169   1.095   5.195   3.124 -1.9144 -0.4524  0.5410
  192SAPI   C2822170   1.234   5.308   3.237  0.6470 -0.1973 -0.1122
  192SAPI   H8R22171   1.330   5.287   3.188  1.2267 -0.5139  1.1112
  192SAPI   C2922172   1.214   5.420   3.309 -0.3869  0.3837  0.1659
  192SAPI   H9R22173   1.285   5.503   3.301 -0.5057  0.3545 -1.4407
  192SAPI  C21022174   1.088   5.453   3.389  0.4102 -0.1010  0.1573
  192SAPI  H10R22175   1.038   5.369   3.441 -0.9227 -0.2523 -1.2986
  192SAPI  H10S22176   0.998   5.484   3.331 -1.3731 -2.4273  1.5311
  192SAPI  C21122177   1.105   5.566   3.494 -0.2712 -0.2541 -0.0127
  192SAPI  H11R22178   1.094   5.664   3.445  0.9517 -0.4419 -0.7264
  192SAPI  C21222179   1.127   5.565   3.626 -0.6725 -0.4827 -0.3504
  192SAPI  H12R22180   1.127   5.654   3.690  0.1251 -1.7229  1.4676
  192SAPI  C21322181   1.162   5.440   3.706  0.4007  0.3188 -0.6259
  192SAPI  H13R22182   1.252   5.468   3.765  0.1237 -0.9295  0.4416
  192SAPI  H13S22183   1.193   5.354   3.643  1.0616  0.4019 -0.4173
  192SAPI  C21422184   1.042   5.404   3.791  0.3802 -0.0079 -0.1152
  192SAPI  H14R22185   0.947   5.413   3.736 -0.5656 -1.4487  1.1905
  192SAPI  C21522186   1.035   5.368   3.924 -0.4008  0.4324  0.3465
  192SAPI  H15R22187   0.945   5.315   3.958 -0.1719  1.3044  2.4856
  192SAPI  C21622188   1.152   5.336   4.006 -0.5805  0.0190  0.0844
  192SAPI  H16R22189   1.254   5.332   3.960  0.7879  0.9240  2.7926
  192SAPI  H16S22190   1.126   5.238   4.051 -1.5440 -0.1260 -0.7677
  192SAPI  C21722191   1.158   5.429   4.133 -0.1794  0.2650  1.0157
  192SAPI  H17R22192   1.129   5.534   4.110 -0.6382 -0.1875 -0.6564
  192SAPI  H17S22193   1.258   5.431   4.181 -0.8658 -3.9175  3.0254
  192SAPI  C21822194   1.069   5.384   4.246  0.2839 -0.2041  1.2014
  192SAPI  H18R22195   1.097   5.278   4.269  1.1746 -0.5863 -1.2588
  192SAPI  H18S22196   0.965   5.386   4.208  0.2303 -0.1921  1.3502
  192SAPI  C21922197   1.079   5.469   4.368  0.5585 -0.3349 -0.8308
  192SAPI  H19R22198   1.071   5.578   4.345 -3.5616 -0.4516 -0.7535
  192SAPI  H19S22199   1.179   5.459   4.415 -0.4539 -2.1157  1.0875
  192SAPI  C22022200   0.972   5.429   4.472  0.2638 -0.1370 -0.4463
  192SAPI  H20R22201   0.874   5.443   4.422 -0.5400 -4.0812 -0.2766
  192SAPI  H20S22202   0.972   5.486   4.567 -0.3139 -0.5417 -0.1959
  192SAPI  H20T22203   0.970   5.320   4.495 -1.6253  0.2069  1.3339
  192SAPI   C3322204   1.218   5.551   2.843 -0.2245  0.2791  0.9624
  192SAPI   H3X22205   1.165   5.609   2.764 -1.2510 -1.0018  0.6746
  192SAPI   H3Y22206   1.315   5.508   2.809  0.6625  1.1503  2.3139
  192SAPI   C3422207   1.243   5.638   2.964 -0.0792 -0.9892 -0.3500
  192SAPI   H4X22208   1.322   5.706   2.923 -2.1877  1.2141 -1.0142
  192SAPI   H4Y22209   1.283   5.583   3.052  0.3578 -0.0055  0.0923
  192SAPI   C3522210   1.111   5.708   2.994 -0.0200  0.3726 -0.0378
  192SAPI   H5X22211   1.038   5.628   3.020 -3.0085  1.1553 -4.7353
  192SAPI   H5Y22212   1.077   5.757   2.900  1.2433  1.6260  0.1203
  192SAPI   C3622213   1.126   5.796   3.122 -0.1838 -0.0357  0.1108
  192SAPI   H6X22214   1.160   5.720   3.195  0.8148 -0.6600 -0.9662
  192SAPI   H6Y22215   1.028   5.839   3.154  0.1380  1.4341 -0.7937
  192SAPI   C3722216   1.230   5.911   3.098  0.1256 -0.2957 -0.1036
  192SAPI   H7X22217   1.190   5.977   3.018  2.2486  0.2025 -0.8355
  192SAPI   H7Y22218   1.321   5.868   3.051 -2.2580 -2.1825 -3.4056
  192SAPI   C3822219   1.257   6.007   3.216  0.0770  0.2403 -0.4780
  192SAPI   H8X22220   1.340   6.074   3.188 -0.9406  1.4146 -0.7513
  192SAPI   H8Y22221   1.296   5.957   3.308  0.1015 -0.5888 -0.9314
  192SAPI   C3922222   1.138   6.097   3.238 -0.2042  0.1237 -0.3473
  192SAPI   H9X22223   1.060   6.028   3.277  0.4679 -0.8105 -0.6089
  192SAPI   H9Y22224   1.104   6.143   3.143 -2.0753 -0.4350  0.0002
  192SAPI  C31022225   1.160   6.208   3.339  0.1714 -0.4330  0.1825
  192SAPI  H10X22226   1.225   6.289   3.302 -0.4136  1.5054  3.0982
  192SAPI  H10Y22227   1.205   6.172   3.434  3.9953  1.7625 -0.6092
  192SAPI  C31122228   1.032   6.283   3.386 -0.2509  0.2045  0.4227
  192SAPI  H11X22229   0.951   6.214   3.420  0.6587 -2.2401 -1.9495
  192SAPI  H11Y22230   0.985   6.333   3.298  1.3756  2.8287  0.9410
  192SAPI  C31222231   1.064   6.405   3.479 -0.8892  0.4002 -0.0767
  192SAPI  H12X22232   0.987   6.485   3.479 -0.5114  0.7606  0.0460
  192SAPI  H12Y22233   1.159   6.453   3.448 -1.0069  2.7785  2.7425
  192SAPI  C31322234   1.064   6.348   3.620 -0.2725  0.3696 -0.2883
  192SAPI  H13X22235   1.142   6.270   3.631  0.7433  1.4169  0.1764
  192SAPI  H13Y22236   0.971   6.293   3.648 -0.2010 -1.2134 -2.8116
  192SAPI  C31422237   1.089   6.460   3.724  0.2364 -0.5534 -0.4970
  192SAPI  H14X22238   1.005   6.533   3.729  1.3886  0.8528 -1.0250
  192SAPI  H14Y22239   1.173   6.524   3.689 -0.2403 -0.7234 -2.0599
  192SAPI  C31522240   1.113   6.411   3.866  0.1361  0.5866 -0.2619
  192SAPI  H15X22241   1.201   6.343   3.860  0.6877  1.1287  1.2293
  192SAPI  H15Y22242   1.029   6.345   3.895  1.3956 -1.6050 -1.3038
  192SAPI  C31622243   1.145   6.524   3.966 -0.3335  0.0475  0.7476
  192SAPI  H16X22244   1.051   6.584   3.969 -1.2462 -0.8229 -3.6340
  192SAPI  H16Y22245   1.226   6.586   3.923 -1.1283  1.1453  0.7794
  192SAPI  C31722246   1.188   6.479   4.110  0.0051 -0.3737 -0.2845
  192SAPI  H17X22247   1.287   6.429   4.100 -0.3217 -1.3052  0.9439
  192SAPI  H17Y22248   1.123   6.399   4.150  1.8220 -2.7841 -1.8492
  192SAPI  C31822249   1.191   6.585   4.220 -0.3488 -0.0893 -0.2434
  192SAPI  H18X22250   1.195   6.544   4.323  2.4936 -0.4166 -0.3985
  192SAPI  H18Y22251   1.109   6.660   4.221  1.8738  2.5588  2.3076
  192SAPI  H18Z22252   1.283   6.646   4.212 -0.1598 -0.1749  1.0372
  193SOD    SOD22253   3.331   2.110   7.518 -0.0339  0.0220 -0.0036
  194SOD    SOD22254   3.677   5.016   1.825  0.2439  0.2410 -0.0870
  195SOD    SOD22255   1.440   5.961   7.476 -0.0941 -0.5028 -0.0047
  196SOD    SOD22256   4.891   2.500   7.151 -0.3399 -0.2383  0.1726
  197SOD    SOD22257   2.103   2.322   8.310 -0.2632 -0.0245 -0.2427
  198SOD    SOD22258   1.968   3.691   7.048  0.2834 -0.1585  0.0680
  199SOD    SOD22259   2.167   6.643   2.002  0.0691 -0.0136  0.4260
  200SOD    SOD22260   4.556   2.338   8.228  0.2116  0.2775 -0.3432
  201SOD    SOD22261   2.712   6.607   0.749 -0.2426  0.4784  0.2106
  202SOD    SOD22262   2.768   0.488   2.919 -0.2286 -0.7597 -0.5160
  203SOD    SOD22263   4.524   5.816   7.816 -0.1777  0.0642  0.5904
  204SOD    SOD22264   1.832   4.794   7.682  0.1226 -0.2998  0.0401
  205SOD    SOD22265   3.840   2.217   0.582 -0.1080  0.0391  0.1205
  206SOD    SOD22266   1.374   0.213   8.773  0.0036  0.1636 -0.2021
  207SOD    SOD22267   3.797   0.319   7.993  0.6546 -0.7334  0.5001
  208SOD    SOD22268   5.787   0.527   1.912  0.2570  0.2704  0.3292
  209SOD    SOD22269   4.583   4.530   8.223 -0.3104  0.2837  0.4559
  210SOD    SOD22270   6.500   4.390   1.317 -0.3066 -0.0477  0.3366
  211SOD    SOD22271   3.694   5.991   2.229  0.2039  0.3397  0.0844
  212SOD    SOD22272   3.239   4.240   8.323  0.0371 -0.3164  0.3102
  213SOD    SOD22273   6.622   3.986   2.428  0.2956  0.7068  0.0857
  214SOD    SOD22274   6.387   1.369   2.991 -0.2531 -0.4247  0.2117
  215SOD    SOD22275   5.254   2.783   7.646  0.3108  0.3353  0.1190
  216SOD    SOD22276   2.875   2.459   2.027 -0.2509 -0.1400  0.3600
  217SOD    SOD22277   0.290   3.462   1.744 -0.0677  0.2527 -0.1642
  218SOD    SOD22278   3.713   4.315   2.698 -0.3779  0.3099 -0.3437
  219SOD    SOD22279   4.748   5.477   1.786  0.5869 -0.0377 -0.5062
  220SOD    SOD22280   2.665   5.822   7.940  0.3858 -0.1354 -0.2161
  221SOD    SOD22281   4.462   5.321   0.879 -0.0753 -0.6060  0.4427
  222SOD    SOD22282   2.554   2.789   8.857  0.1031  0.2409 -0.0410
  223SOD    SOD22283   5.242   5.097   0.718 -0.4482 -0.0572 -0.0569
  224SOD    SOD22284   0.868   0.537   2.096 -0.0076 -0.3863 -0.2612
  225SOD    SOD22285   3.520   1.172   1.089  0.3312 -0.0110  0.0993
  226SOD    SOD22286   3.356   5.566   0.113 -0.9338 -0.1708  0.1560
  227SOD    SOD22287   5.097   2.667   2.845  0.0063 -0.2286  0.4388
  228SOD    SOD22288   3.254   6.208   8.618 -0.9063 -0.2107  0.2460
  229SOD    SOD22289   1.795   1.188   0.778  0.0950  0.0350  0.1472
  230SOD    SOD22290   0.688   4.642   1.638 -0.0381  0.1645  0.7739
  231SOD    SOD22291   1.098   1.030   7.250 -0.0441  0.1524  0.1054
  232SOD    SOD22292   6.312   2.244   7.222 -0.2352 -0.2332  0.1388
  233SOD    SOD22293   3.534   2.799   7.316  0.1400 -0.3850 -0.0717
  234CLA    CLA22294   5.261   2.502   7.981 -0.2084 -0.0655 -0.1913
  235CLA    CLA22295   2.052   5.652   1.094  0.5362  0.8031 -0.3070
  236CLA    CLA22296   5.334   4.972   7.795  0.1493  0.0100 -0.0508
  237CLA    CLA22297   6.302   3.988   7.851  0.1278 -0.1623 -0.5290
  238CLA    CLA22298   4.883   1.845   8.010 -0.1035  0.3151  0.3647
  239CLA    CLA22299   6.385   1.943   0.493 -0.2365 -0.0566 -0.1316
  240CLA    CLA22300   2.262   1.938   1.903  0.0910 -0.1281 -0.0871
  241CLA    CLA22301   0.027   5.904   8.771 -0.1942  0.4636  0.0497
  242CLA    CLA22302   3.772   6.058   8.684 -0.1429  0.0371 -0.1407
  243CLA    CLA22303   6.424   2.081   7.933  0.2082  0.1520  0.3553
  244CLA    CLA22304   5.292   3.944   0.975 -0.2528  0.4197 -0.2931
  245CLA    CLA22305   1.325   5.264   8.276 -0.4892 -0.0037 -0.1334
  246CLA    CLA22306   5.212   5.397   1.745 -0.1582 -0.0310  0.1534
  247CLA    CLA22307   1.358   1.798   2.148  0.2725 -0.2401  0.5452
  248CLA    CLA22308   4.081   4.884   1.244  0.4086 -0.2241 -0.0344
  249CLA    CLA22309   2.054   2.932   8.773 -0.0390  0.0241  0.1749
  250CLA    CLA22310   2.552   6.622   8.930  0.3690  0.0264 -0.1437
  251TIP3   OH222311   5.340   5.649   1.015  0.1278 -0.0005 -0.3008
  251TIP3    H122312   5.369   5.591   1.085 -3.3073 -1.3909  0.1562
  251TIP3    H222313   5.342   5.594   0.936 -1.2364 -0.2113 -0.2209
  252TIP3   OH222314   6.691   3.488   1.635 -0.3154 -0.0490 -0.4335
  252TIP3    H122315   6.706   3.395   1.622  3.4084  0.5181 -1.4819
  252TIP3    H222316   6.645   3.516   1.555 -0.0387 -0.7462 -0.8463
  253TIP3   OH222317   0.842   6.095   8.845 -0.1736 -0.7589 -0.1872
  253TIP3    H122318   0.836   6.059   8.934 -0.9207  3.7504  1.8615
  253TIP3    H222319   0.753   6.091   8.811 -0.3636 -0.4162  0.2533
  254TIP3   OH222320   4.038   0.672   0.600  0.0425 -0.2504  0.1781
  254TIP3    H122321   3.952   0.630   0.604  0.4628 -1.0496  1.4656
  254TIP3    H222322   4.029   0.752   0.651  0.9341 -2.1066  3.5625
  255TIP3   OH222323   0.130   2.243   8.712  0.1193  0.5404 -0.3602
  255TIP3    H122324   0.165   2.154   8.704  1.9605  0.9410  2.0972
  255TIP3    H222325   0.045   2.239   8.668  0.0328 -2.4973 -0.1315
  256TIP3   OH222326   1.146   4.906   8.247 -0.7248  0.0081 -0.4828
  256TIP3    H122327   1.190   4.929   8.329 -2.0293  0.9723 -0.0245
  256TIP3    H222328   1.180   4.968   8.183 -1.6038  0.9716 -0.0541
  257TIP3   OH222329   4.934   4.203   8.889 -0.0345 -0.5429  0.0037
  257TIP3    H122330   4.970   4.291   8.876  2.6952 -1.6522 -0.7135
  257TIP3    H222331   4.983   4.148   8.827 -0.4374 -2.8400  1.6041
  258TIP3   OH222332   0.395   5.568   8.495  0.0403 -0.1354 -0.1389
  258TIP3    H122333   0.327   5.501   8.501 -2.1811  1.8354 -1.1045
  258TIP3    H222334   0.359   5.642   8.545  3.2584 -0.1963  2.5731
  259TIP3   OH222335   6.643   5.278   0.085  0.3912 -0.3386 -0.0727
  259TIP3    H122336   6.647   5.363   0.128 -0.4438  0.0541 -0.7328
  259TIP3    H222337   6.710   5.282   0.017  0.7615 -0.4399  0.2818
  260TIP3   OH222338   6.355   4.223   7.623  0.8137  0.3927 -0.1094
  260TIP3    H122339   6.326   4.150   7.678 -0.6128  1.9068  1.2636
  260TIP3    H222340   6.418   4.184   7.563  1.7290 -1.5649  1.9522
  261TIP3   OH222341   3.178   3.379   8.343  0.4724 -0.2002 -0.1021
  261TIP3    H122342   3.254   3.422   8.383 -0.8371  2.8557 -0.6038
  261TIP3    H222343   3.212   3.342   8.262  1.2842  2.3736 -1.0492
  262TIP3   OH222344   1.081   6.404   2.661 -0.2074  0.8450  0.2258
  262TIP3    H122345   1.106   6.490   2.695 -1.5058  2.2849 -2.1321
  262TIP3    H222346   1.024   6.367   2.729  1.4346  1.1897  1.8722
  263TIP3   OH222347   4.255   4.084   1.563  0.0273 -0.0072 -0.1979
  263TIP3    H122348   4.329   4.033   1.532 -1.3705 -1.1275 -1.8495
  263TIP3    H222349   4.214   4.119   1.484 -1.5861  0.0426  0.6202
  264TIP3   OH222350   4.307   1.933   7.610 -0.3328  0.1812 -0.1728
  264TIP3    H122351   4.389   1.910   7.567 -0.2164  0.1380  0.0673
  264TIP3    H222352   4.291   2.024   7.585 -0.7670 -0.1353 -1.0765
  265TIP3   OH222353   4.911   2.415   7.380  0.1600  0.0071  0.3612
  265TIP3    H122354   4.957   2.426   7.463 -2.3506  1.3153  1.7134
  265TIP3    H222355   4.824   2.383   7.405 -0.8590  0.9620 -1.6982
  266TIP3   OH222356   4.458   0.861   7.507 -0.5766 -0.1477 -0.7106
  266TIP3    H122357   4.496   0.894   7.425 -0.8919 -0.1806 -0.8716
  266TIP3    H222358   4.534   0.840   7.562 -0.3610  0.8927 -0.5829
  267TIP3   OH222359   5.940   4.849   0.224  0.4777  0.1108 -0.0731
  267TIP3    H122360   6.030   4.879   0.229  0.3527  0.5991 -0.6533
  267TIP3    H222361   5.916   4.831   0.315  1.4016 -0.7892  0.0017
  268TIP3   OH222362   2.441   0.949   8.414 -0.5164 -0.0163 -0.1875
  268TIP3    H122363   2.359   0.988   8.444 -0.3398 -0.4638  0.9443
  268TIP3    H222364   2.416   0.863   8.381 -0.7891  0.6845 -1.9155
  269TIP3   OH222365   5.032   5.140   7.776  0.0191 -0.2736  0.7136
  269TIP3    H122366   5.023   5.045   7.766 -2.4164  0.0965 -1.9823
  269TIP3    H222367   5.086   5.167   7.702  0.1006  0.5096  1.0464
  270TIP3   OH222368   2.385   4.822   7.282 -0.1025  0.2543 -0.7115
  270TIP3    H122369   2.290   4.827   7.290 -0.2625  0.0920 -2.1691
  270TIP3    H222370   2.410   4.903   7.238  0.7147  1.2840  1.5209
  271TIP3   OH222371   0.566   3.187   7.330  0.4654 -0.3216 -0.2186
  271TIP3    H122372   0.572   3.093   7.344  2.1313 -0.1196  0.5967
  271TIP3    H222373   0.647   3.222   7.366 -0.4961  1.5209  0.2724
  272TIP3   OH222374   5.980   1.744   0.616 -0.4831 -0.0025 -0.2599
  272TIP3    H122375   5.980   1.679   0.546  0.4558 -1.3888  0.9694
  272TIP3    H222376   6.071   1.749   0.645 -0.7313  1.0514  0.4159
  273TIP3   OH222377   1.241   0.790   1.683 -0.4936 -0.1160 -0.3524
  273TIP3    H122378   1.335   0.783   1.700 -0.6523  0.3625  0.7971
  273TIP3    H222379   1.235   0.844   1.603  0.2319 -1.2120 -1.1761
  274TIP3   OH222380   1.752   4.453   0.798 -0.4646 -0.0999  0.0015
  274TIP3    H122381   1.710   4.537   0.815  2.3253  1.4913 -0.3995
  274TIP3    H222382   1.770   4.417   0.885  0.5900  0.9870  0.2615
  275TIP3   OH222383   1.874   2.644   7.729 -0.2193  0.3978 -0.2889
  275TIP3    H122384   1.805   2.669   7.669  0.0696  0.5967 -0.5375
  275TIP3    H222385   1.953   2.642   7.676 -0.4946 -2.9319 -0.7761
  276TIP3   OH222386   1.524   3.164   7.158  0.1190 -0.3054  0.0450
  276TIP3    H122387   1.609   3.202   7.138 -0.0772 -0.1325 -0.4811
  276TIP3    H222388   1.469   3.240   7.180 -0.2756 -0.2693 -1.0109
  277TIP3   OH222389   0.166   4.519   2.039 -0.0754 -0.3173 -0.1460
  277TIP3    H122390   0.168   4.612   2.061 -1.7808 -0.2046 -0.3820
  277TIP3    H222391   0.258   4.492   2.041  0.5819  1.6431 -1.2579
  278TIP3   OH222392   3.920   2.742   0.388  0.0143 -0.1584  0.0925
  278TIP3    H122393   3.983   2.711   0.452 -0.4373  0.7761  1.0126
  278TIP3    H222394   3.966   2.736   0.304  0.4647 -1.7673  0.4327
  279TIP3   OH222395   3.459   2.692   7.126 -0.1545 -0.4095 -1.2856
  279TIP3    H122396   3.451   2.603   7.091  1.8865 -0.9479 -0.5145
  279TIP3    H222397   3.428   2.748   7.055 -2.5041 -1.7276 -1.4166
  280TIP3   OH222398   2.331   1.860   0.634  0.3608  0.3898  0.3511
  280TIP3    H122399   2.362   1.814   0.556 -1.5117 -3.4744  1.6289
  280TIP3    H222400   2.254   1.908   0.604 -1.1234 -2.0740 -0.1375
  281TIP3   OH222401   3.835   0.387   0.662 -0.6322  0.2693  0.2267
  281TIP3    H122402   3.768   0.320   0.672  0.6118 -0.8777  1.2882
  281TIP3    H222403   3.856   0.386   0.569 -0.3134 -1.1628  0.2989
  282TIP3   OH222404   4.281   5.545   7.022 -0.1751 -0.0697  0.6705
  282TIP3    H122405   4.252   5.630   7.056  0.5855  0.5766 -0.2508
  282TIP3    H222406   4.205   5.488   7.034 -0.8473  0.8461  0.9101
  283TIP3   OH222407   0.850   4.043   8.789  0.2486  0.5120  0.8277
  283TIP3    H122408   0.859   4.095   8.869  0.0907  0.5669  0.8093
  283TIP3    H222409   0.778   4.083   8.741 -0.8946 -0.6148  1.5248
  284TIP3   OH222410   3.804   5.362   0.380 -0.3194 -0.3400  0.3379
  284TIP3    H122411   3.857   5.438   0.404  0.3353 -0.9241  0.7699
  284TIP3    H222412   3.798   5.366   0.285  1.4294 -0.8666  0.1758
  285TIP3   OH222413   5.059   4.018   8.709  0.3788  0.4679  0.3371
  285TIP3    H122414   4.995   3.969   8.762 -0.1443  1.4413  0.6289
  285TIP3    H222415   5.035   3.998   8.619  0.5516 -0.2866  0.4476
  286TIP3   OH222416   0.238   0.548   8.466 -0.0423 -0.3429  0.2397
  286TIP3    H122417   0.270   0.635   8.444 -0.5400 -0.0328  0.7132
  286TIP3    H222418   0.169   0.531   8.401 -0.5673  0.0026  0.6913
  287TIP3   OH222419   1.490   6.651   2.673  0.4149 -0.2847 -0.4477
  287TIP3    H122420   1.489   6.624   2.765  1.6935  0.0650 -0.3163
  287TIP3    H222421   1.567   6.608   2.636 -0.9446 -1.7456 -1.8009
  288TIP3   OH222422   1.849   3.958   1.864  0.0748 -0.0334 -0.3514
  288TIP3    H122423   1.834   3.939   1.957 -0.2193  1.2144 -0.1262
  288TIP3    H222424   1.769   3.928   1.820  0.1192 -0.4194 -0.1688
  289TIP3   OH222425   0.705   2.862   3.135  0.4105  0.5656  0.2215
  289TIP3    H122426   0.634   2.867   3.071  0.9560  1.5660 -0.3216
  289TIP3    H222427   0.766   2.797   3.098 -0.7439 -1.2204  1.2693
  290TIP3   OH222428   2.919   1.843   2.161 -0.1954 -0.0727  0.4332
  290TIP3    H122429   2.927   1.749   2.145  0.4910  0.1966 -0.9738
  290TIP3    H222430   2.830   1.864   2.135  0.0521 -0.1318 -0.5253
  291TIP3   OH222431   1.824   4.684   0.081  0.6065  0.3993  0.1589
  291TIP3    H122432   1.862   4.765   0.049  1.4154  0.1350  0.4337
  291TIP3    H222433   1.861   4.616   0.025  2.6457 -0.1620  2.0585
  292TIP3   OH222434   3.568   4.647   7.725 -0.1631 -0.0664  0.1650
  292TIP3    H122435   3.562   4.650   7.820  0.2042 -1.6464  0.2746
  292TIP3    H222436   3.488   4.602   7.698 -0.2663  0.3744 -0.2840
  293TIP3   OH222437   2.968   0.568   8.902  0.3037 -0.6510  0.0683
  293TIP3    H122438   2.919   0.638   8.945 -1.0130 -1.8672  0.6206
  293TIP3    H222439   3.026   0.534   8.970  0.5906 -0.4228 -0.0610
  294TIP3   OH222440   0.997   6.577   2.373 -0.0532 -0.5321 -0.1433
  294TIP3    H122441   0.923   6.549   2.426 -1.7222  0.6944 -1.6936
  294TIP3    H222442   1.034   6.496   2.338  0.4490 -1.2800  1.9826
  295TIP3   OH222443   2.205   3.133   1.340  0.4258 -0.1439 -0.1490
  295TIP3    H122444   2.293   3.146   1.375  0.4347 -0.0373 -0.2099
  295TIP3    H222445   2.183   3.216   1.299 -0.1540  0.2091  0.8511
  296TIP3   OH222446   0.746   0.072   8.191 -0.0537  0.1558  0.1887
  296TIP3    H122447   0.841   0.070   8.203  0.1825 -0.8366 -1.5642
  296TIP3    H222448   0.711   0.057   8.279  1.4487 -1.4378  0.5851
  297TIP3   OH222449   0.446   3.678   1.808 -0.7635 -0.0362  0.0815
  297TIP3    H122450   0.456   3.704   1.717  1.6879  0.3928  0.3819
  297TIP3    H222451   0.519   3.617   1.823 -1.4141 -0.4887  1.6098
  298TIP3   OH222452   4.957   2.128   1.923 -0.1865  0.1319  0.1698
  298TIP3    H122453   4.960   2.052   1.865 -4.3040 -0.4771  0.4725
  298TIP3    H222454   4.996   2.098   2.005  1.5376 -0.4312 -0.8108
  299TIP3   OH222455   0.732   6.242   8.094 -0.3310  0.6618 -0.0435
  299TIP3    H122456   0.664   6.308   8.108  0.0983  1.3793 -1.1667
  299TIP3    H222457   0.689   6.173   8.043 -1.0276 -0.4069  1.9081
  300TIP3   OH222458   6.725   0.457   2.819  0.9404  0.0308 -0.5007
  300TIP3    H122459   6.778   0.525   2.860 -2.8844  2.7118  0.5445
  300TIP3    H222460   6.679   0.415   2.892 -0.0608 -0.6444 -1.4798
  301TIP3   OH222461   3.106   4.000   0.081 -0.1376 -0.0311 -0.0763
  301TIP3    H122462   3.137   4.083   0.045 -0.0078  1.5081  3.2685
  301TIP3    H222463   3.010   4.006   0.077 -0.1317 -0.1905 -0.6918
  302TIP3   OH222464   6.403   1.548   7.975 -0.0564  0.2022 -0.2781
  302TIP3    H122465   6.465   1.618   7.956  0.8958 -0.5599 -0.0470
  302TIP3    H222466   6.329   1.592   8.017  0.7248  1.0138  0.2910
  303TIP3   OH222467   5.455   2.365   7.297 -0.4443 -0.2507  0.2247
  303TIP3    H122468   5.526   2.332   7.351 -1.0581 -0.6831  0.7700
  303TIP3    H222469   5.377   2.318   7.327 -0.8387 -0.3050 -0.8531
  304TIP3   OH222470   3.377   1.764   7.714  0.0732  0.5712 -0.4619
  304TIP3    H122471   3.396   1.680   7.671 -0.4809  0.6650 -0.9108
  304TIP3    H222472   3.284   1.779   7.697  0.5448  2.1483 -1.9592
  305TIP3   OH222473   2.825   1.479   0.105 -0.0272 -0.2820 -0.7361
  305TIP3    H122474   2.795   1.503   0.017  1.1656  1.3760 -0.7425
  305TIP3    H222475   2.744   1.467   0.155 -0.7407  0.8956 -1.5444
  306TIP3   OH222476   2.944   3.087   1.536  0.0631  0.4277 -0.3472
  306TIP3    H122477   2.909   3.114   1.621 -0.3491  0.9640 -0.6768
  306TIP3    H222478   3.034   3.061   1.553 -0.4425 -0.8372  0.5024
  307TIP3   OH222479   5.504   2.257   8.566 -0.3043  0.6878  0.4527
  307TIP3    H122480   5.413   2.276   8.544 -0.1183  0.4567 -0.5811
  307TIP3    H222481   5.522   2.311   8.643 -1.2212  0.9671  0.4855
  308TIP3   OH222482   5.747   0.531   2.125 -0.0217 -0.5459 -0.4220
  308TIP3    H122483   5.687   0.470   2.166 -1.2545  1.0735  0.2701
  308TIP3    H222484   5.785   0.581   2.197  2.5715 -1.8225 -0.7900
  309TIP3   OH222485   4.288   1.595   1.187  0.2552 -0.1173 -0.0106
  309TIP3    H122486   4.346   1.663   1.222 -1.2465  0.3837  1.6357
  309TIP3    H222487   4.290   1.608   1.092  1.0286  1.3720  0.1853
  310TIP3   OH222488   4.345   4.164   2.552 -0.3895  0.4835  0.1174
  310TIP3    H122489   4.342   4.233   2.619 -0.7981 -0.4108  1.0578
  310TIP3    H222490   4.429   4.120   2.567 -0.4750  0.2926  0.0481
  311TIP3   OH222491   2.114   6.706   1.224  0.3108 -0.6001 -0.5347
  311TIP3    H122492   2.091   6.635   1.163 -1.0964 -1.1015  0.5349
  311TIP3    H222493   2.158   6.662   1.297  0.9906 -0.1360 -0.6501
  312TIP3   OH222494   5.996   2.359   1.575 -0.5707  0.1726  0.0815
  312TIP3    H122495   5.963   2.272   1.599  2.0757 -1.1504 -0.7146
  312TIP3    H222496   5.998   2.408   1.657 -1.8447 -0.5766  0.5869
  313TIP3   OH222497   6.201   5.223   7.319 -0.2728  0.4944 -0.0191
  313TIP3    H122498   6.202   5.226   7.223  0.5259 -0.1827 -0.0466
  313TIP3    H222499   6.110   5.241   7.343 -0.4429  0.8516 -0.8927
  314TIP3   OH222500   2.839   6.449   0.863  0.0156 -0.5929  0.3009
  314TIP3    H122501   2.880   6.514   0.919  0.5945 -0.8581  0.1898
  314TIP3    H222502   2.796   6.388   0.923 -0.8476  0.0891  0.3950
  315TIP3   OH222503   4.414   4.262   0.683  0.3040 -0.1956  0.2038
  315TIP3    H122504   4.470   4.332   0.650  0.0538  0.4957  1.2143
  315TIP3    H222505   4.356   4.241   0.609 -0.6346  1.7176  0.3372
  316TIP3   OH222506   2.016   4.347   8.608 -0.3602 -0.0671 -0.5155
  316TIP3    H122507   1.946   4.357   8.543 -1.4212  1.0002  0.7471
  316TIP3    H222508   2.093   4.384   8.565 -0.5739 -1.1113 -1.8713
  317TIP3   OH222509   5.444   3.049   0.495  0.0500  0.5184 -0.1485
  317TIP3    H122510   5.375   3.074   0.434  0.8941 -1.1869 -1.9208
  317TIP3    H222511   5.515   3.111   0.476  0.3153 -0.0166 -0.9347
  318TIP3   OH222512   0.177   2.629   0.815 -0.1513  0.1490 -0.2205
  318TIP3    H122513   0.232   2.692   0.862  0.9858 -0.8197 -0.1982
  318TIP3    H222514   0.240   2.568   0.775 -1.1962 -2.4526  1.8039
  319TIP3   OH222515   2.586   4.684   0.463 -0.5055  0.0194 -0.0123
  319TIP3    H122516   2.548   4.710   0.547 -0.4997 -1.1707  0.3858
  319TIP3    H222517   2.654   4.621   0.487  0.6007  0.8582 -0.8238
  320TIP3   OH222518   5.572   3.358   0.516 -0.0701  0.5041 -0.2487
  320TIP3    H122519   5.500   3.386   0.460  0.4856  0.0145 -1.2251
  320TIP3    H222520   5.644   3.339   0.456  0.5265 -0.0852  0.6256
  321TIP3   OH222521   1.218   6.329   3.002  0.6778 -0.2393  0.2819
  321TIP3    H122522   1.288   6.268   2.981  0.9529 -0.5724  2.0137
  321TIP3    H222523   1.140   6.290   2.964  0.5700 -2.5354  2.6189
  322TIP3   OH222524   1.521   5.446   1.438 -0.2950 -0.2434 -0.3839
  322TIP3    H122525   1.521   5.439   1.342  1.5182 -0.5721 -0.3824
  322TIP3    H222526   1.605   5.484   1.460 -0.2959 -1.0511  1.1427
  323TIP3   OH222527   2.614   2.703   0.311 -0.5815 -0.2346 -0.2814
  323TIP3    H122528   2.679   2.773   0.311 -0.8985  0.0736 -1.3076
  323TIP3    H222529   2.651   2.637   0.370  0.6885 -0.0934 -0.8735
  324TIP3   OH222530   1.834   5.340   0.188  0.0877 -0.3169  0.3008
  324TIP3    H122531   1.764   5.276   0.173  0.6325 -0.9995  0.6074
  324TIP3    H222532   1.905   5.311   0.131  0.3913 -0.0540  0.5434
  325TIP3   OH222533   6.217   3.643   0.224  0.2022  0.1689 -0.2599
  325TIP3    H122534   6.171   3.719   0.187 -0.4118 -0.5213 -0.9413
  325TIP3    H222535   6.257   3.601   0.148  0.5544 -0.1813  0.1197
  326TIP3   OH222536   6.333   0.265   0.222 -0.2611  0.0576  0.1365
  326TIP3    H122537   6.307   0.262   0.314 -0.1104 -0.3424  0.1728
  326TIP3    H222538   6.260   0.225   0.175 -0.3179  0.2191  0.0901
  327TIP3   OH222539   1.590   0.742   7.714 -0.0991 -0.1611  0.2250
  327TIP3    H122540   1.618   0.796   7.789  0.0120  0.1847 -0.0625
  327TIP3    H222541   1.541   0.803   7.658  1.0820 -0.0449 -0.7187
  328TIP3   OH222542   3.569   2.108   0.551 -0.2332  0.0771  0.1882
  328TIP3    H122543   3.501   2.080   0.611 -1.7394  2.0648 -0.4877
  328TIP3    H222544   3.560   2.050   0.475 -0.4773 -0.3366  0.5334
  329TIP3   OH222545   4.069   6.758   2.771 -0.1594 -0.2485 -0.2276
  329TIP3    H122546   4.142   6.771   2.832 -0.6650 -0.8176  0.5222
  329TIP3    H222547   4.070   6.837   2.716  1.5767 -0.6526 -0.8549
  330TIP3   OH222548   1.448   6.167   2.939  0.9150 -0.2283  0.0924
  330TIP3    H122549   1.499   6.157   2.859  0.1065 -0.0094 -0.4697
  330TIP3    H222550   1.489   6.109   3.002  1.2342 -0.8255 -0.6511
  331TIP3   OH222551   1.340   2.149   7.946 -0.0686 -0.5474 -0.2622
  331TIP3    H122552   1.329   2.240   7.974 -2.3685 -1.1670  1.1471
  331TIP3    H222553   1.276   2.138   7.875 -0.2291 -1.2059 -0.0234
  332TIP3   OH222554   2.098   4.873   0.113  0.1132  0.0835 -0.5703
  332TIP3    H122555   2.012   4.906   0.089  0.0875 -0.3870 -1.1293
  332TIP3    H222556   2.158   4.916   0.053  0.5340  1.9216  1.0422
  333TIP3   OH222557   0.004   3.612   2.877 -0.4777  0.4243  0.1128
  333TIP3    H122558  -0.089   3.628   2.863 -0.7096 -1.3791 -0.6266
  333TIP3    H222559   0.043   3.622   2.790 -0.4033 -1.3213 -0.0747
  334TIP3   OH222560   4.985   2.110   0.726  0.5109  0.4484 -0.6066
  334TIP3    H122561   5.022   2.188   0.684 -0.1989  1.5099  0.6465
  334TIP3    H222562   5.061   2.064   0.762  0.9819  0.3043 -1.7373
  335TIP3   OH222563   0.340   2.576   7.533  0.6485 -0.0833  0.3473
  335TIP3    H122564   0.338   2.545   7.443  0.2624 -0.2095  0.3972
  335TIP3    H222565   0.271   2.526   7.577  0.2194  0.6285  0.4963
  336TIP3   OH222566   1.662   2.410   0.793 -0.2284  0.0967  0.0732
  336TIP3    H122567   1.659   2.317   0.816  0.1773  0.4069  1.4768
  336TIP3    H222568   1.640   2.456   0.875 -2.1882  1.2271 -1.0109
  337TIP3   OH222569   5.098   3.256   0.182  0.5190  0.1082 -0.6768
  337TIP3    H122570   5.003   3.262   0.184  0.4054 -1.2050 -0.9896
  337TIP3    H222571   5.124   3.307   0.105  0.1536  1.2073 -0.0884
  338TIP3   OH222572   0.613   4.112   0.894 -0.4210  0.2092  0.1897
  338TIP3    H122573   0.616   4.020   0.868 -1.4862 -0.2693  1.6648
  338TIP3    H222574   0.698   4.147   0.867  0.6878 -1.6368  1.1183
  339TIP3   OH222575   2.527   1.568   7.410 -0.3396 -0.3756  0.0341
  339TIP3    H122576   2.609   1.616   7.404  0.5825 -2.0419 -2.6279
  339TIP3    H222577   2.552   1.476   7.396 -2.5183 -1.1106  0.5634
  340TIP3   OH222578   6.697   1.175   1.419 -0.6103  0.1153 -0.2934
  340TIP3    H122579   6.730   1.218   1.498 -1.2569 -0.5992  0.3927
  340TIP3    H222580   6.716   1.236   1.348  0.7227  0.4074  0.2958
  341TIP3   OH222581   2.341   4.578   7.734 -0.3939 -0.0636  0.1595
  341TIP3    H122582   2.380   4.633   7.666 -1.4130  0.6797  0.1504
  341TIP3    H222583   2.272   4.529   7.688 -1.7922  1.2117  0.8296
  342TIP3   OH222584   6.114   3.709   7.064 -0.0423  0.1667  0.2474
  342TIP3    H122585   6.204   3.692   7.093  0.5301 -0.4270 -1.7107
  342TIP3    H222586   6.115   3.799   7.033 -0.2301  0.2874  0.5917
  343TIP3   OH222587   2.506   3.565   7.952  0.4887  0.4815 -0.6972
  343TIP3    H122588   2.540   3.654   7.964 -0.2792  0.5789  1.0125
  343TIP3    H222589   2.469   3.542   8.037  1.3890 -1.8022 -0.8595
  344TIP3   OH222590   5.561   4.520   2.545 -0.4749 -0.5005  0.0529
  344TIP3    H122591   5.587   4.482   2.462  1.7746  1.2240 -0.1374
  344TIP3    H222592   5.559   4.446   2.606 -2.1032 -1.7692 -1.4710
  345TIP3   OH222593   3.311   2.653   1.509 -0.3587 -0.4260 -0.1435
  345TIP3    H122594   3.334   2.560   1.497  1.4612  0.1678 -1.6578
  345TIP3    H222595   3.221   2.660   1.475 -0.0334 -1.3904 -1.2680
  346TIP3   OH222596   5.266   0.860   8.378 -0.1053  0.2262  0.3500
  346TIP3    H122597   5.252   0.850   8.284  0.5288 -0.3191  0.3036
  346TIP3    H222598   5.215   0.937   8.402 -2.5109 -1.1738  0.0647
  347TIP3   OH222599   5.903   4.532   8.674  0.0287 -0.3299 -0.4941
  347TIP3    H122600   5.925   4.556   8.764  0.6683  2.4037 -1.2760
  347TIP3    H222601   5.866   4.444   8.681 -1.8175  0.5198  2.6911
  348TIP3   OH222602   3.923   0.723   8.168  0.2054 -0.6866  0.0514
  348TIP3    H122603   4.005   0.682   8.141  0.8216 -1.0058  2.2212
  348TIP3    H222604   3.950   0.802   8.216 -0.7372 -0.6837  0.6065
  349TIP3   OH222605   4.087   3.996   1.999  0.4115  0.7421 -0.3734
  349TIP3    H122606   4.029   3.957   2.064  2.7236  0.1299  1.4228
  349TIP3    H222607   4.031   4.008   1.922 -1.8546 -0.5899  0.9559
  350TIP3   OH222608   0.128   3.201   1.275 -0.2968  0.2261  0.0675
  350TIP3    H122609   0.164   3.266   1.215 -0.4041  0.1801 -0.0458
  350TIP3    H222610   0.068   3.149   1.222  0.0927 -0.2254  0.0690
  351TIP3   OH222611   4.528   2.662   8.096  0.4221  0.0170  0.0796
  351TIP3    H122612   4.537   2.646   8.002 -0.4641  0.1699 -0.0383
  351TIP3    H222613   4.616   2.648   8.131  0.1731 -3.3290 -0.2612
  352TIP3   OH222614   1.425   4.075   2.557  0.3769 -0.1395 -0.5771
  352TIP3    H122615   1.348   4.132   2.565 -0.4302 -1.4760  2.0401
  352TIP3    H222616   1.472   4.086   2.639  1.6757 -1.2015 -1.1428
  353TIP3   OH222617   5.485   1.572   8.214 -0.1289  0.2427  0.0040
  353TIP3    H122618   5.551   1.505   8.230  1.1742  1.9638  2.6420
  353TIP3    H222619   5.412   1.550   8.273 -0.2633  0.4157 -0.0935
  354TIP3   OH222620   2.061   3.852   8.862 -0.6008  0.1457  0.1895
  354TIP3    H122621   2.103   3.819   8.783 -1.7069 -0.0099 -0.3532
  354TIP3    H222622   1.986   3.903   8.830 -2.0962 -1.3383  1.1576
  355TIP3   OH222623   4.979   5.424   0.656 -0.5947  0.4772 -0.4565
  355TIP3    H122624   4.989   5.345   0.602  2.5453 -1.2693  2.3030
  355TIP3    H222625   5.047   5.483   0.625 -0.3693  0.4736  0.0340
  356TIP3   OH222626   1.236   6.759   7.538 -0.4596  0.1000  1.0802
  356TIP3    H122627   1.261   6.845   7.504 -2.3572  0.9371  1.6206
  356TIP3    H222628   1.149   6.744   7.502 -0.2351 -1.5214  1.1684
  357TIP3   OH222629   5.569   3.836   0.568 -0.2567  0.4870 -0.0260
  357TIP3    H122630   5.586   3.757   0.620  3.0999 -0.4585 -2.2477
  357TIP3    H222631   5.502   3.809   0.505 -1.3915  0.4227  1.1646
  358TIP3   OH222632   5.536   5.722   0.167 -0.0924  0.2633 -0.3155
  358TIP3    H122633   5.483   5.801   0.157 -0.9820  0.1058  2.5167
  358TIP3    H222634   5.517   5.670   0.088 -1.8426  1.5252 -0.7698
  359TIP3   OH222635   2.058   3.552   8.179 -0.1145 -0.5515  0.6753
  359TIP3    H122636   2.109   3.487   8.131 -1.0261 -1.6644  1.1645
  359TIP3    H222637   1.983   3.503   8.213 -1.0777  0.8530  0.6729
  360TIP3   OH222638   1.029   6.516   7.583  0.4728  0.2004  0.1781
  360TIP3    H122639   1.092   6.561   7.638  4.2219 -2.0051 -1.8467
  360TIP3    H222640   1.053   6.423   7.589 -0.6728 -0.4491 -2.8975
  361TIP3   OH222641   0.665   3.435   2.595  0.2717 -0.5309 -0.1968
  361TIP3    H122642   0.584   3.422   2.547  1.1015  0.4528 -1.9956
  361TIP3    H222643   0.705   3.348   2.599  0.0452 -0.6878 -1.0670
  362TIP3   OH222644   5.709   1.879   0.458  0.5192 -0.2107 -0.0920
  362TIP3    H122645   5.796   1.873   0.418  0.7843 -0.2146  0.4795
  362TIP3    H222646   5.720   1.841   0.545 -0.1740 -0.6792 -0.2040
  363TIP3   OH222647   2.558   3.339   1.771  0.6049 -0.3796 -0.1501
  363TIP3    H122648   2.630   3.288   1.734 -1.3035 -1.8022 -2.1759
  363TIP3    H222649   2.549   3.414   1.712 -2.0227 -2.3084 -2.4697
  364TIP3   OH222650   3.092   4.258   7.509 -0.1647 -0.6602 -0.0926
  364TIP3    H122651   3.179   4.274   7.471 -0.4383 -0.4474 -0.6448
  364TIP3    H222652   3.094   4.303   7.593 -0.0032  0.0296 -0.4510
  365TIP3   OH222653   4.571   3.260   7.638 -0.3062  0.1159 -0.1817
  365TIP3    H122654   4.655   3.271   7.593 -0.5076  0.4505 -0.4809
  365TIP3    H222655   4.589   3.195   7.706  0.7089  1.6623  1.1001
  366TIP3   OH222656   5.066   6.160   8.884 -0.9332 -0.0724 -0.5042
  366TIP3    H122657   5.015   6.169   8.965  0.2300  1.2951  0.1256
  366TIP3    H222658   5.111   6.244   8.875  1.1301 -1.1766 -1.0905
  367TIP3   OH222659   3.780   2.950   8.151 -0.6803  0.3909 -0.3967
  367TIP3    H122660   3.778   2.855   8.167 -1.0187  0.2031 -1.4963
  367TIP3    H222661   3.765   2.959   8.057 -0.4225  1.5341 -0.3397
  368TIP3   OH222662   3.261   2.126   1.768 -0.3544  0.3743 -0.0764
  368TIP3    H122663   3.195   2.088   1.826 -0.9843  0.6009 -0.6373
  368TIP3    H222664   3.251   2.221   1.778 -0.3352  0.4128 -0.4113
  369TIP3   OH222665   3.955   1.696   0.380 -0.4799  0.0410 -0.5656
  369TIP3    H122666   4.036   1.733   0.414 -0.0805 -2.1677  1.1275
  369TIP3    H222667   3.981   1.611   0.344 -1.8254 -0.0326 -1.4335
  370TIP3   OH222668   2.031   5.070   8.205 -0.0344  0.3329  0.0122
  370TIP3    H122669   2.057   5.033   8.121  0.6997  1.0442 -0.0814
  370TIP3    H222670   1.942   5.036   8.219  0.3738 -0.9506 -0.3521
  371TIP3   OH222671   1.384   2.826   0.705 -0.8153 -0.2000  0.2097
  371TIP3    H122672   1.478   2.838   0.715 -0.5881 -1.8115  0.4177
  371TIP3    H222673   1.348   2.914   0.693  0.3591  0.7610  3.0770
  372TIP3   OH222674   3.071   0.210   8.574 -0.0553 -0.4128 -0.4968
  372TIP3    H122675   3.165   0.230   8.581  0.0662 -1.2300  0.4420
  372TIP3    H222676   3.057   0.195   8.481  0.3980  1.3022 -0.8768
  373TIP3   OH222677   5.239   0.943   0.172 -0.0219 -0.1133  0.5076
  373TIP3    H122678   5.244   1.025   0.220  0.5556 -0.4670  1.0805
  373TIP3    H222679   5.330   0.913   0.167  0.0149  0.1524 -1.2569
  374TIP3   OH222680   5.100   5.086   8.331 -0.5749 -0.2301 -0.1528
  374TIP3    H122681   5.124   5.177   8.343 -1.8672  0.2338 -0.8950
  374TIP3    H222682   5.121   5.067   8.240 -1.8853 -0.1300 -0.5058
  375TIP3   OH222683   0.397   4.349   0.445 -0.3974  0.0121  0.0595
  375TIP3    H122684   0.406   4.258   0.473  0.7945  0.1754  0.2228
  375TIP3    H222685   0.308   4.373   0.471 -0.6424 -1.0264  0.2239
  376TIP3   OH222686   1.737   2.092   8.825  0.8903 -0.3815  0.3897
  376TIP3    H122687   1.809   2.098   8.887  0.8129 -0.7080  0.5138
  376TIP3    H222688   1.658   2.107   8.878  0.8252 -0.6408  0.3669
  377TIP3   OH222689   2.829   6.729   0.917 -0.2907  0.2733 -0.6929
  377TIP3    H122690   2.917   6.767   0.919 -0.1567 -0.0581 -0.1066
  377TIP3    H222691   2.771   6.805   0.914  0.0126  0.4954 -1.1553
  378TIP3   OH222692   0.807   3.078   6.829 -0.0600  0.0156  0.5689
  378TIP3    H122693   0.780   3.109   6.916 -0.7520  1.9402 -0.2840
  378TIP3    H222694   0.827   3.158   6.781 -0.8131 -0.9426 -1.4254
  379TIP3   OH222695   6.363   3.738   1.267 -0.0246  0.1271 -0.3670
  379TIP3    H122696   6.267   3.735   1.262 -0.2569  0.6714  2.2251
  379TIP3    H222697   6.385   3.831   1.262  0.3795  0.0066 -0.9386
  380TIP3   OH222698   2.549   2.134   2.522 -0.3704 -0.7504 -0.1223
  380TIP3    H122699   2.637   2.144   2.557 -0.6401 -2.4249  1.1301
  380TIP3    H222700   2.491   2.137   2.598 -1.3507 -0.3489 -0.8530
  381TIP3   OH222701   4.039   6.445   7.971  0.2571  0.5785 -0.5392
  381TIP3    H122702   3.976   6.387   7.928  0.5481  1.5343 -2.3381
  381TIP3    H222703   4.031   6.528   7.925  2.1546  1.0069 -0.1738
  382TIP3   OH222704   5.009   4.286   7.161  0.7284  0.1567 -0.3866
  382TIP3    H122705   4.997   4.210   7.218  0.8986 -1.2629 -2.1498
  382TIP3    H222706   5.103   4.288   7.143  0.5007 -0.3482 -1.7767
  383TIP3   OH222707   5.857   0.409   8.672  0.1018 -0.2402 -0.0800
  383TIP3    H122708   5.782   0.435   8.619 -0.4508  0.6062  1.0640
  383TIP3    H222709   5.921   0.377   8.609 -0.2767  1.3213 -1.3208
  384TIP3   OH222710   2.187   4.891   0.658 -0.2697 -0.0364  0.6058
  384TIP3    H122711   2.238   4.885   0.577  0.2383 -1.6846  1.0122
  384TIP3    H222712   2.108   4.939   0.633 -0.6006 -1.3971 -1.1425
  385TIP3   OH222713   6.640   6.002   2.059 -0.4919  0.5138 -0.4302
  385TIP3    H122714   6.657   6.079   2.113  3.0705  0.4144 -1.1243
  385TIP3    H222715   6.575   6.031   1.995 -2.1661  1.6673  1.6811
  386TIP3   OH222716   0.330   5.531   0.591 -0.4084  0.2841 -0.3511
  386TIP3    H122717   0.266   5.567   0.530 -1.1593  2.2885  1.4678
  386TIP3    H222718   0.306   5.439   0.600 -1.1105  0.2716 -1.9823
  387TIP3   OH222719   4.226   0.175   8.024  0.0747 -0.2183 -0.1639
  387TIP3    H122720   4.286   0.149   7.954 -0.2796  0.9870 -0.9402
  387TIP3    H222721   4.189   0.093   8.056  0.7929 -0.8369 -0.8894
  388TIP3   OH222722   2.098   6.612   8.804  0.1861  0.3199  0.2145
  388TIP3    H122723   2.173   6.551   8.807  0.7316  1.0019  2.2205
  388TIP3    H222724   2.128   6.688   8.853 -0.4322  2.3323 -2.3369
  389TIP3   OH222725   6.505   1.891   7.424 -0.2843 -0.1012 -0.1693
  389TIP3    H122726   6.482   1.956   7.491  0.7209 -1.2252  1.3483
  389TIP3    H222727   6.428   1.886   7.367 -1.1689  0.9203  0.8882
  390TIP3   OH222728   1.012   4.784   8.033 -0.6677  0.1666 -0.0370
  390TIP3    H122729   1.000   4.824   8.120  0.9878  0.2005  0.2013
  390TIP3    H222730   0.949   4.829   7.977 -2.3369 -0.3985  1.2891
  391TIP3   OH222731   1.861   5.863   2.484 -0.3820  0.1388  0.5208
  391TIP3    H122732   1.803   5.788   2.471  0.1425 -0.0520 -0.8298
  391TIP3    H222733   1.801   5.938   2.493 -0.9066  0.1336 -2.0456
  392TIP3   OH222734   1.193   2.665   1.096  0.2803 -0.1272  0.1630
  392TIP3    H122735   1.285   2.692   1.090  0.7891 -1.9618 -1.5573
  392TIP3    H222736   1.167   2.651   1.005 -2.2384  1.8599  0.4821
  393TIP3   OH222737   0.070   1.034   3.095 -0.1639  0.1641  0.4741
  393TIP3    H122738   0.046   0.994   3.178  0.0000 -0.5693  0.1723
  393TIP3    H222739   0.143   1.093   3.116 -0.5676  0.5009  0.9581
  394TIP3   OH222740   1.719   6.315   1.332 -0.2898  0.6322  0.1605
  394TIP3    H122741   1.673   6.236   1.361 -0.7769  0.3744 -1.2162
  394TIP3    H222742   1.812   6.292   1.334 -0.2472  0.7865  1.8860
  395TIP3   OH222743   6.771   5.391   7.827 -0.1683  0.4626  0.1813
  395TIP3    H122744   6.741   5.380   7.917 -0.9191  1.1583  0.0320
  395TIP3    H222745   6.841   5.456   7.832  0.4183 -0.1653  0.3618
  396TIP3   OH222746   5.629   6.456   1.083  0.1763 -0.1238  0.1020
  396TIP3    H122747   5.596   6.532   1.131 -1.6254 -1.1139  0.4918
  396TIP3    H222748   5.659   6.396   1.150  0.2406 -0.3592 -0.1377
  397TIP3   OH222749   1.144   1.863   8.333 -0.2747  0.3202  0.0526
  397TIP3    H122750   1.215   1.885   8.272 -1.3876  1.1517 -0.9931
  397TIP3    H222751   1.086   1.939   8.330  0.1294  0.8349  2.9725
  398TIP3   OH222752   5.880   1.734   8.856  0.1839  0.2305  0.1620
  398TIP3    H122753   5.915   1.661   8.804  1.4355  1.3137 -0.5749
  398TIP3    H222754   5.894   1.707   8.947  1.5022 -0.0793 -0.1050
  399TIP3   OH222755   2.164   1.136   2.857  0.0187  0.7765  0.3855
  399TIP3    H122756   2.235   1.104   2.913 -1.9727  0.5987  3.0025
  399TIP3    H222757   2.084   1.111   2.903 -1.7811  1.3784 -2.1995
  400TIP3   OH222758   2.001   3.654   0.695  0.0353 -0.3590 -0.3770
  400TIP3    H122759   2.065   3.583   0.684  1.1531  0.3753  1.0585
  400TIP3    H222760   2.039   3.728   0.648 -0.7849 -0.4811 -1.2637
  401TIP3   OH222761   3.718   4.662   0.994  0.2114 -0.1211  0.2274
  401TIP3    H122762   3.779   4.596   0.961  0.2736 -0.9188  1.8417
  401TIP3    H222763   3.742   4.674   1.086 -2.6843 -1.2631  1.2448
  402TIP3   OH222764   4.342   5.165   1.469 -0.5688 -0.8530 -0.1394
  402TIP3    H122765   4.330   5.139   1.560  1.0824 -1.9110 -0.1771
  402TIP3    H222766   4.333   5.084   1.419 -0.0650 -0.5337 -0.7739
  403TIP3   OH222767   4.966   6.758   2.258  0.4031 -0.1948 -0.3604
  403TIP3    H122768   5.026   6.753   2.332 -1.0347  1.4442  0.9985
  403TIP3    H222769   4.880   6.743   2.296 -0.2016 -1.6196 -2.1254
  404TIP3   OH222770   3.162   3.168   0.537  0.2476  0.2797  0.2882
  404TIP3    H122771   3.179   3.231   0.607  2.3858  0.2835 -0.1534
  404TIP3    H222772   3.142   3.086   0.582  0.3070  0.5861  0.8857
  405TIP3   OH222773   2.872   1.472   0.680  0.0526 -0.4962 -0.6857
  405TIP3    H122774   2.806   1.407   0.706  0.5998 -1.3556 -1.3750
  405TIP3    H222775   2.846   1.497   0.591  0.3137 -0.3928 -0.7333
  406TIP3   OH222776   0.440   3.087   0.767 -0.2134  0.0385 -0.1360
  406TIP3    H122777   0.401   3.000   0.774 -0.4048  0.0072 -1.3100
  406TIP3    H222778   0.404   3.136   0.841 -1.5382 -0.3485 -0.5039
  407TIP3   OH222779   6.596   6.233   2.215  0.5123 -0.5194 -0.0090
  407TIP3    H122780   6.654   6.236   2.291  2.0256 -0.1611 -1.1470
  407TIP3    H222781   6.510   6.212   2.252  0.7284  1.8643  2.0576
  408TIP3   OH222782   1.183   4.747   1.589  0.2903 -0.3323 -0.0051
  408TIP3    H122783   1.217   4.825   1.633  0.0966 -0.6119  0.6579
  408TIP3    H222784   1.240   4.734   1.514 -0.0587  0.8271 -0.4995
  409TIP3   OH222785   4.919   4.290   1.698 -0.5316 -0.1643  0.4314
  409TIP3    H122786   4.915   4.213   1.754 -1.8915  0.6207  1.4973
  409TIP3    H222787   4.831   4.299   1.663 -0.0394  0.1385 -0.7719
  410TIP3   OH222788   3.050   2.049   1.908  0.3216 -0.1900  0.1525
  410TIP3    H122789   2.974   2.051   1.850  0.0365  1.1827  0.5212
  410TIP3    H222790   3.015   2.073   1.994  1.3385  2.0264  0.0318
  411TIP3   OH222791   4.629   3.797   1.275 -0.0495  0.5747 -0.8053
  411TIP3    H122792   4.637   3.703   1.262 -2.1458  0.2535 -0.2482
  411TIP3    H222793   4.578   3.827   1.200  0.5517  1.2582 -0.9453
  412TIP3   OH222794   2.531   4.322   1.267  0.1339  0.4685 -0.3984
  412TIP3    H122795   2.591   4.256   1.233 -1.3212 -0.4435 -1.3046
  412TIP3    H222796   2.521   4.385   1.196 -0.9339 -0.0634 -0.7356
  413TIP3   OH222797   4.649   2.346   7.362 -0.4881  0.0102 -0.3576
  413TIP3    H122798   4.639   2.326   7.269 -1.7126  0.5562 -0.3548
  413TIP3    H222799   4.568   2.389   7.387 -0.5369 -0.8946  1.1797
  414TIP3   OH222800   5.200   1.963   7.491  0.1620 -0.9285  0.6569
  414TIP3    H122801   5.200   1.892   7.555  1.2430 -1.4564  0.1059
  414TIP3    H222802   5.247   1.927   7.415 -2.5106 -0.9152 -1.1279
  415TIP3   OH222803   1.011   2.850   0.899  0.0583 -0.1010  0.1737
  415TIP3    H122804   0.939   2.882   0.953 -0.0171 -1.3081  0.8348
  415TIP3    H222805   0.984   2.869   0.809  0.2118  1.9984  0.5277
  416TIP3   OH222806   3.701   2.130   2.008 -0.7561 -0.8905  0.1861
  416TIP3    H122807   3.779   2.177   1.977 -0.6737 -0.0237  1.6208
  416TIP3    H222808   3.698   2.052   1.954  0.8259 -0.6827 -0.2671
  417TIP3   OH222809   0.980   6.293   0.895  0.8179  0.3445  0.0763
  417TIP3    H122810   0.928   6.214   0.881  1.6541  0.0044 -1.3868
  417TIP3    H222811   0.982   6.304   0.990 -2.1823  0.5992  0.2146
  418TIP3   OH222812   5.847   0.302   8.007 -0.2567  0.0411 -0.0123
  418TIP3    H122813   5.827   0.395   8.004 -0.3621  0.0028 -0.8367
  418TIP3    H222814   5.862   0.278   7.915  1.1634 -0.4513  0.3189
  419TIP3   OH222815   3.340   0.200   2.342  0.1015  0.1803  0.6003
  419TIP3    H122816   3.398   0.150   2.285  0.8065  0.2645  1.2234
  419TIP3    H222817   3.344   0.154   2.426 -0.3974  0.4389  0.7706
  420TIP3   OH222818   3.802   3.562   1.187 -0.6288 -0.3382  0.2766
  420TIP3    H122819   3.871   3.595   1.129 -0.7243  0.7038  0.7320
  420TIP3    H222820   3.736   3.526   1.127  0.3876 -1.5326 -0.1537
  421TIP3   OH222821   5.878   0.547   6.928 -0.2819  0.6719  0.0823
  421TIP3    H122822   5.971   0.530   6.945 -0.2376  0.6220 -0.2177
  421TIP3    H222823   5.833   0.478   6.977 -0.0554 -1.6671 -2.7469
  422TIP3   OH222824   5.977   1.604   0.143  0.0459 -0.0922  0.4294
  422TIP3    H122825   5.958   1.616   0.236  0.9647 -0.7579  0.7172
  422TIP3    H222826   6.064   1.563   0.142 -0.1584 -0.5151 -0.7048
  423TIP3   OH222827   3.042   0.269   1.797  0.6872  0.1252 -0.3097
  423TIP3    H122828   3.062   0.191   1.850 -0.1720 -0.4377 -0.7935
  423TIP3    H222829   3.058   0.241   1.707  0.7041  0.6246 -0.4645
  424TIP3   OH222830   1.079   0.497   2.784  0.8770 -0.2324 -0.5576
  424TIP3    H122831   1.159   0.515   2.733  0.8714 -0.2663 -0.5780
  424TIP3    H222832   1.024   0.575   2.769  0.7989 -0.3237 -0.7521
  425TIP3   OH222833   4.381   4.551   0.418 -0.3915  0.1355 -0.1127
  425TIP3    H122834   4.412   4.622   0.473 -1.9317  0.8507 -0.1092
  425TIP3    H222835   4.356   4.594   0.336 -2.0728 -0.2420  0.1634
  426TIP3   OH222836   1.941   3.703   7.979 -0.0165  0.1811 -0.0836
  426TIP3    H122837   1.880   3.629   7.981 -0.7388  0.7576  1.4725
  426TIP3    H222838   2.002   3.685   8.051  0.6812  0.4055 -0.6078
  427TIP3   OH222839   1.298   1.505   6.517 -0.2617 -0.0135 -0.2357
  427TIP3    H122840   1.253   1.526   6.435 -0.6810  0.2957  0.0750
  427TIP3    H222841   1.251   1.553   6.584  0.9928  0.9457  0.0016
  428TIP3   OH222842   2.715   2.517   1.612 -0.2864 -0.2368 -0.2173
  428TIP3    H122843   2.750   2.605   1.629  1.3772 -0.5327 -1.7633
  428TIP3    H222844   2.640   2.509   1.671 -1.5289  2.8314 -1.1633
  429TIP3   OH222845   5.900   0.878   0.760  0.8183 -0.1590 -0.0954
  429TIP3    H122846   5.914   0.807   0.822 -0.8102 -0.6646 -0.2587
  429TIP3    H222847   5.958   0.948   0.790  1.2185 -0.9565  1.0535
  430TIP3   OH222848   2.370   1.065   2.262  0.1998  0.1063 -0.1741
  430TIP3    H122849   2.369   1.096   2.352 -2.1480 -1.0789  0.2795
  430TIP3    H222850   2.329   1.135   2.212  0.0847  0.1027 -0.0828
  431TIP3   OH222851   5.688   3.673   8.131 -0.5958  0.3214  0.3171
  431TIP3    H122852   5.736   3.605   8.178  0.6415  1.3833  0.6460
  431TIP3    H222853   5.647   3.628   8.058 -1.9652 -1.2619  1.9480
  432TIP3   OH222854   1.199   5.682   8.855 -0.2048 -0.8043  0.8002
  432TIP3    H122855   1.150   5.738   8.915 -1.7073 -2.0305  0.7831
  432TIP3    H222856   1.144   5.605   8.843 -0.2994 -0.3457 -2.7189
  433TIP3   OH222857   5.538   1.153   1.855 -0.2147  0.4467  0.0418
  433TIP3    H122858   5.492   1.197   1.784 -1.7354  0.7660  1.1676
  433TIP3    H222859   5.613   1.210   1.874 -0.3070  0.8244 -0.6871
  434TIP3   OH222860   4.012   6.240   7.462 -0.3549  0.1511 -0.2890
  434TIP3    H122861   3.962   6.175   7.412  1.3997 -1.1940 -0.4171
  434TIP3    H222862   4.073   6.277   7.398  0.8456 -0.4608  0.4488
  435TIP3   OH222863   0.901   2.403   2.930  0.0577  0.1209  0.3628
  435TIP3    H122864   0.896   2.332   2.866  0.1602  0.5366 -0.1129
  435TIP3    H222865   0.941   2.363   3.008  1.1323 -0.0919 -0.2767
  436TIP3   OH222866   2.523   4.634   2.216  0.4741  0.4266 -0.0631
  436TIP3    H122867   2.551   4.660   2.304  0.7245  0.1923 -0.0738
  436TIP3    H222868   2.556   4.545   2.205 -1.7428 -0.5587  0.5903
  437TIP3   OH222869   4.098   4.470   7.558 -0.1423  0.0505 -0.0076
  437TIP3    H122870   4.151   4.406   7.512  1.2762  0.4775  0.9876
  437TIP3    H222871   4.012   4.427   7.568  1.0478 -2.1545  1.5553
  438TIP3   OH222872   0.750   4.720   6.800 -0.0610  0.0068 -0.0323
  438TIP3    H122873   0.724   4.809   6.775 -1.7427  0.3710  2.6292
  438TIP3    H222874   0.669   4.668   6.793  0.6640 -1.1011 -0.5500
  439TIP3   OH222875   5.025   0.462   1.562  0.9315 -0.0706 -0.1724
  439TIP3    H122876   5.054   0.442   1.651  1.0647  2.3824  0.4193
  439TIP3    H222877   5.104   0.453   1.508  0.8976 -1.3565 -0.0305
  440TIP3   OH222878   2.901   2.865   7.068 -0.0778  0.1641 -0.0709
  440TIP3    H122879   2.953   2.945   7.068  0.2260 -0.0293  0.6147
  440TIP3    H222880   2.869   2.858   6.978 -0.8612  1.5355  0.0680
  441TIP3   OH222881   5.663   4.484   1.939 -0.8051 -0.1796 -0.5209
  441TIP3    H122882   5.652   4.402   1.891 -0.5293 -1.1551  1.0263
  441TIP3    H222883   5.666   4.551   1.870 -2.5305 -1.2752 -1.7479
  442TIP3   OH222884   2.030   0.036   1.900 -0.0529  0.4257  0.5125
  442TIP3    H122885   1.940   0.014   1.926 -0.2155  0.4124 -0.0306
  442TIP3    H222886   2.051   0.116   1.948 -1.3022  1.9023 -1.2240
  443TIP3   OH222887   1.091   4.312   0.551 -0.1906 -0.3274  0.4343
  443TIP3    H122888   1.022   4.373   0.526 -0.1851 -0.5507 -0.1271
  443TIP3    H222889   1.171   4.365   0.555 -0.4327 -0.0069  1.3719
  444TIP3   OH222890   3.651   2.701   2.161 -0.3498 -0.1806  0.3369
  444TIP3    H122891   3.704   2.690   2.240 -1.7587  0.1116  1.3625
  444TIP3    H222892   3.563   2.722   2.193 -0.1685  4.2042 -1.2434
  445TIP3   OH222893   1.158   2.820   6.722 -0.4107 -0.2210  0.3924
  445TIP3    H122894   1.196   2.732   6.717 -0.0224 -0.0626  0.5033
  445TIP3    H222895   1.211   2.865   6.788  0.1832  0.4853 -0.5475
  446TIP3   OH222896   2.603   1.575   2.117 -0.4102 -0.0228  0.1714
  446TIP3    H122897   2.517   1.608   2.146  0.1306  0.0161  1.8035
  446TIP3    H222898   2.582   1.494   2.071 -1.2464 -0.9172  1.9918
  447TIP3   OH222899   2.397   0.122   2.460 -0.4323 -0.0030 -0.0692
  447TIP3    H122900   2.316   0.135   2.510 -0.7058 -1.7695  0.0177
  447TIP3    H222901   2.378   0.161   2.374 -2.3485 -2.4876 -0.8974
  448TIP3   OH222902   2.629   0.123   8.769 -0.1678  0.0298  0.0606
  448TIP3    H122903   2.563   0.187   8.743 -0.0413 -0.2969 -1.1243
  448TIP3    H222904   2.584   0.066   8.832 -1.5754 -1.1620 -1.8988
  449TIP3   OH222905   0.497   1.918   7.599 -0.3465  0.0167 -0.4802
  449TIP3    H122906   0.562   1.974   7.556  0.5442  0.4877  1.3443
  449TIP3    H222907   0.541   1.890   7.680 -1.0200 -2.7908 -0.9890
  450TIP3   OH222908   6.141   6.285   8.867 -0.1938 -0.3893  0.5795
  450TIP3    H122909   6.085   6.273   8.943  0.2670  2.3337  1.4577
  450TIP3    H222910   6.141   6.379   8.851  2.4368 -0.4968 -0.6990
  451TIP3   OH222911   3.830   2.403   7.095  0.3043 -0.2578 -0.4382
  451TIP3    H122912   3.875   2.325   7.129 -1.0507 -0.5201  0.8488
  451TIP3    H222913   3.870   2.476   7.141 -0.4821 -0.4867  0.6605
  452TIP3   OH222914   1.434   0.099   0.703 -0.0452 -0.3102  0.2234
  452TIP3    H122915   1.348   0.080   0.665 -0.3037 -0.6952  0.9830
  452TIP3    H222916   1.438   0.194   0.707  0.8485 -0.1150 -2.7067
  453TIP3   OH222917   3.276   1.020   1.503  0.4506 -0.4143  0.8021
  453TIP3    H122918   3.333   0.973   1.442  1.0188 -0.3610  1.2807
  453TIP3    H222919   3.269   0.963   1.579 -2.0331 -1.4895 -0.1240
  454TIP3   OH222920   4.470   0.167   1.473  0.1512 -0.8438 -0.7457
  454TIP3    H122921   4.520   0.184   1.392  0.7612 -1.3817 -0.4904
  454TIP3    H222922   4.379   0.181   1.448  0.4852  1.2363 -0.9571
  455TIP3   OH222923   2.663   2.796   0.913  0.6059  0.6724 -0.0331
  455TIP3    H122924   2.636   2.784   1.004  0.9034 -0.5851 -0.0949
  455TIP3    H222925   2.751   2.759   0.909  0.9332  1.4876 -0.6485
  456TIP3   OH222926   0.877   3.129   1.995  0.4143 -0.0573  0.0012
  456TIP3    H122927   0.967   3.155   2.017  0.2371 -0.3429  1.1457
  456TIP3    H222928   0.884   3.036   1.971  0.4908  0.0456 -0.3817
  457TIP3   OH222929   0.674   5.766   8.527 -0.4811 -0.1867  0.2611
  457TIP3    H122930   0.716   5.849   8.505  1.7051 -1.2733  0.0899
  457TIP3    H222931   0.691   5.710   8.451 -3.0283 -0.4804 -0.1916
  458TIP3   OH222932   0.928   1.594   0.592  0.0779  0.4379  0.5407
  458TIP3    H122933   0.848   1.646   0.590 -0.0579  0.2161  0.0892
  458TIP3    H222934   0.904   1.513   0.636 -0.1475  0.0538 -0.2646
  459TIP3   OH222935   0.176   1.138   0.336 -0.9538 -0.0161 -0.1622
  459TIP3    H122936   0.253   1.182   0.301 -0.3177  0.5411  1.8112
  459TIP3    H222937   0.116   1.132   0.262  1.0534 -0.6959 -1.8400
  460TIP3   OH222938   3.144   1.964   7.494  0.4619  0.3719 -0.0550
  460TIP3    H122939   3.126   1.891   7.553  1.1190  0.8726  0.7953
  460TIP3    H222940   3.068   1.967   7.435  1.1368 -1.9448 -1.1158
  461TIP3   OH222941   4.265   6.012   8.821  0.1127 -0.0758 -0.1345
  461TIP3    H122942   4.332   5.964   8.870  0.1173  0.3454  0.2759
  461TIP3    H222943   4.311   6.090   8.789  0.2971 -0.6744 -1.4011
  462TIP3   OH222944   1.737   5.337   2.318  0.3177  0.0314 -0.7254
  462TIP3    H122945   1.663   5.388   2.349  2.0300  1.0257  2.0858
  462TIP3    H222946   1.720   5.248   2.348 -0.6533 -0.2101 -1.9133
  463TIP3   OH222947   6.146   4.406   0.564  0.0000  0.1094  0.1790
  463TIP3    H122948   6.222   4.354   0.537  0.8513  0.8493  1.0853
  463TIP3    H222949   6.150   4.486   0.513  1.0575  1.0773  1.6893
  464TIP3   OH222950   3.005   0.880   1.675  0.1780  0.4517  0.1407
  464TIP3    H122951   3.081   0.932   1.652  0.1846  1.2294  1.7383
  464TIP3    H222952   2.987   0.827   1.598  1.9685  0.6807 -0.4712
  465TIP3   OH222953   0.514   2.581   0.901  0.5966 -0.2873 -0.4030
  465TIP3    H122954   0.578   2.557   0.967 -0.4419 -1.4492  0.2312
  465TIP3    H222955   0.430   2.549   0.936 -0.3798  1.3756 -1.0799
  466TIP3   OH222956   5.838   4.359   7.496  0.0869 -0.3192  0.3053
  466TIP3    H122957   5.768   4.342   7.559 -0.2218  0.5217  0.1908
  466TIP3    H222958   5.867   4.448   7.514  0.5625 -0.3624 -0.2009
  467TIP3   OH222959   2.547   1.099   1.552 -0.1946  0.1874  0.6181
  467TIP3    H122960   2.628   1.149   1.547  0.4296 -0.4805  2.7027
  467TIP3    H222961   2.549   1.041   1.476  0.9119  0.7295  0.2204
  468TIP3   OH222962   2.200   1.241   1.469  0.4387  0.8177 -0.1132
  468TIP3    H122963   2.149   1.200   1.539 -0.8579  1.3043 -0.7225
  468TIP3    H222964   2.250   1.169   1.430 -0.4593  0.1359 -0.0476
  469TIP3   OH222965   5.724   2.189   1.727 -0.4156 -0.0367  0.5540
  469TIP3    H122966   5.770   2.223   1.804  0.7312  1.2619 -0.6340
  469TIP3    H222967   5.654   2.252   1.711 -0.1345  0.1642  0.0781
  470TIP3   OH222968   1.251   5.200   7.450  0.8428  0.0768 -0.1537
  470TIP3    H122969   1.295   5.266   7.396  1.9366  1.7870  2.6333
  470TIP3    H222970   1.159   5.205   7.423  1.0139  2.2639 -0.5041
  471TIP3   OH222971   0.588   6.658   1.164  0.7763 -0.2578 -0.4534
  471TIP3    H122972   0.508   6.619   1.199 -0.3785  0.3046 -2.3260
  471TIP3    H222973   0.627   6.589   1.111  0.9943 -0.1957 -0.3762
  472TIP3   OH222974   5.523   5.853   8.131  0.1483  0.0725  0.4231
  472TIP3    H122975   5.455   5.914   8.101 -0.8838 -1.1533  0.1623
  472TIP3    H222976   5.574   5.834   8.052 -0.2826 -0.3276  0.2382
  473TIP3   OH222977   4.484   3.911   0.265  0.5062  0.0807 -0.6150
  473TIP3    H122978   4.574   3.926   0.234  0.1128  2.3191 -0.8199
  473TIP3    H222979   4.495   3.869   0.350  1.7559  0.5268 -0.5392
  474TIP3   OH222980   3.062   3.695   1.692 -0.3440  0.3517 -0.4957
  474TIP3    H122981   3.124   3.740   1.635  0.4094 -0.1981 -0.1273
  474TIP3    H222982   3.041   3.614   1.645 -1.1526  0.7518 -0.8347
  475TIP3   OH222983   1.886   2.333   0.008 -0.4243  0.0288  0.2704
  475TIP3    H122984   1.851   2.420  -0.015 -1.2301 -0.0776  1.0180
  475TIP3    H222985   1.962   2.322  -0.048  0.0758  1.5044  0.6139
  476TIP3   OH222986   6.212   3.429   2.714 -0.0037  0.6685  0.3814
  476TIP3    H122987   6.155   3.480   2.656 -1.3834  0.3609  1.3993
  476TIP3    H222988   6.285   3.487   2.732 -0.5791  1.5521 -0.0301
  477TIP3   OH222989   6.341   1.559   0.372  0.1804  0.3155  0.0568
  477TIP3    H122990   6.249   1.581   0.356 -0.3857 -1.2798  0.9039
  477TIP3    H222991   6.355   1.478   0.323  1.5941  1.3186 -1.2850
  478TIP3   OH222992   4.856   1.320   0.953  0.3855  0.0065 -0.4101
  478TIP3    H122993   4.786   1.371   0.994  0.3253 -0.0195 -0.4804
  478TIP3    H222994   4.850   1.234   0.995  1.2549  0.4028  0.5842
  479TIP3   OH222995   4.779   1.793   1.070 -0.1703 -0.3532 -0.1523
  479TIP3    H122996   4.865   1.835   1.078  0.2817 -1.2516 -0.1480
  479TIP3    H222997   4.748   1.785   1.160  0.3092 -1.1542 -0.0489
  480TIP3   OH222998   1.379   3.425   0.797 -0.3806 -0.0644 -0.9014
  480TIP3    H122999   1.407   3.333   0.800  0.6372  0.2306 -0.9020
  480TIP3    H223000   1.303   3.425   0.739 -1.5758 -1.1889  0.5625
  481TIP3   OH223001   6.510   2.936   1.010  0.5476 -0.3568  0.0350
  481TIP3    H123002   6.488   2.963   0.921 -0.3542 -1.0870  0.0253
  481TIP3    H223003   6.497   2.841   1.010  0.5063 -0.3595  0.9577
  482TIP3   OH223004   2.539   1.869   7.576 -0.5076 -0.0921 -0.1169
  482TIP3    H123005   2.480   1.915   7.516 -1.3925  0.4807  1.1499
  482TIP3    H223006   2.618   1.853   7.524 -1.3372  0.1475 -1.4998
  483TIP3   OH223007   2.986   4.632   8.296 -0.0873 -0.9004 -0.3914
  483TIP3    H123008   2.959   4.697   8.361  0.9375 -2.1482  1.3994
  483TIP3    H223009   2.932   4.649   8.220 -1.2581  0.7405  0.7463
  484TIP3   OH223010   5.496   3.056   8.090  0.5823 -0.3682 -0.2686
  484TIP3    H123011   5.417   3.072   8.039  0.9015  0.1250 -0.6223
  484TIP3    H223012   5.467   3.005   8.165 -0.1711  0.3348 -0.0746
  485TIP3   OH223013   4.311   5.050   2.000  0.2867 -0.3830 -0.2341
  485TIP3    H123014   4.237   4.999   2.033 -0.5056 -1.2744 -3.1284
  485TIP3    H223015   4.386   4.991   2.012  0.0528 -0.6237  0.0873
  486TIP3   OH223016   1.835   0.834   2.312 -0.5789 -0.9018  0.3808
  486TIP3    H123017   1.865   0.908   2.259  1.2271 -1.4589  0.5472
  486TIP3    H223018   1.785   0.779   2.252 -0.8135 -0.2163 -0.0646
  487TIP3   OH223019   1.379   2.004   0.463 -0.9223  0.8221  0.2071
  487TIP3    H123020   1.472   2.017   0.445 -0.7738  0.1509  0.4633
  487TIP3    H223021   1.357   1.922   0.420 -1.1501  0.4661  0.9797
  488TIP3   OH223022   3.217   4.603   1.325 -0.4860 -0.2575 -0.2471
  488TIP3    H123023   3.261   4.603   1.240 -0.1638 -0.4054 -0.0825
  488TIP3    H223024   3.286   4.621   1.388 -0.9979  1.5757 -0.1469
  489TIP3   OH223025   4.375   5.627   8.734  0.0879  0.2693 -0.1882
  489TIP3    H123026   4.411   5.639   8.822 -0.0032  0.0226 -0.1169
  489TIP3    H223027   4.286   5.662   8.740  0.4018  1.1196 -0.4344
  490TIP3   OH223028   3.719   0.231   1.137  0.2724  0.5110 -0.0764
  490TIP3    H123029   3.753   0.299   1.079 -1.0762  1.4008  0.1209
  490TIP3    H223030   3.772   0.237   1.216  0.2208  1.2744 -0.0977
  491TIP3   OH223031   4.668   5.173   0.450 -0.1676  0.2974 -0.4488
  491TIP3    H123032   4.654   5.252   0.398 -0.6804 -0.4244 -1.4509
  491TIP3    H223033   4.694   5.107   0.386 -2.0515 -0.9508 -0.0290
  492TIP3   OH223034   1.673   0.725   2.097  0.1198 -0.2988  1.0147
  492TIP3    H123035   1.684   0.645   2.046 -0.0846 -1.3332  2.5319
  492TIP3    H223036   1.682   0.795   2.033  0.4998 -1.5166 -0.3263
  493TIP3   OH223037   4.443   5.467   0.456 -0.0112 -0.6795  0.4114
  493TIP3    H123038   4.500   5.440   0.384  1.8802 -0.1649  1.6697
  493TIP3    H223039   4.387   5.535   0.417  0.3937 -0.9964 -0.7804
  494TIP3   OH223040   2.279   1.977   1.270  0.0733 -0.2074  0.7025
  494TIP3    H123041   2.227   1.987   1.190 -0.7389 -0.2629  1.2236
  494TIP3    H223042   2.238   1.905   1.317  1.0668 -0.7410  0.7816
  495TIP3   OH223043   5.761   3.065   1.304 -0.1202  0.4244  0.0587
  495TIP3    H123044   5.779   2.976   1.273 -1.3146  0.0133  0.4801
  495TIP3    H223045   5.671   3.061   1.335  0.6775  1.0289  2.7431
  496TIP3   OH223046   3.669   4.296   1.367 -0.1730  0.5996 -0.3237
  496TIP3    H123047   3.662   4.203   1.349 -0.9788  0.7056 -0.5701
  496TIP3    H223048   3.757   4.306   1.405  0.1726 -0.1546 -0.8969
  497TIP3   OH223049   5.773   6.009   1.409  0.3777  0.7534  0.3484
  497TIP3    H123050   5.717   6.034   1.482  0.6966 -2.7365  2.0152
  497TIP3    H223051   5.845   5.960   1.450  0.7061 -1.1605 -2.2485
  498TIP3   OH223052   1.867   6.140   0.452  0.8723  0.3355  0.6001
  498TIP3    H123053   1.895   6.084   0.379  0.7259  0.8909  0.0999
  498TIP3    H223054   1.863   6.082   0.527 -1.2807 -0.8183 -0.3075
  499TIP3   OH223055   5.372   0.190   8.635  0.4451 -0.9866 -0.5230
  499TIP3    H123056   5.278   0.207   8.638  0.4178 -1.2412  0.1947
  499TIP3    H223057   5.412   0.276   8.646  0.3020 -0.9360 -0.3983
  500TIP3   OH223058   5.926   0.685   8.162  0.2508  0.0072 -0.0664
  500TIP3    H123059   5.964   0.643   8.239  0.6595  2.2135  1.0041
  500TIP3    H223060   5.999   0.732   8.122 -0.2913  0.1194 -0.9590
  501TIP3   OH223061   5.287   1.551   0.752  0.3696 -0.5902  0.2731
  501TIP3    H123062   5.340   1.567   0.830  0.6746  1.6135 -0.3202
  501TIP3    H223063   5.200   1.585   0.775  0.4924  0.1802 -0.3595
  502TIP3   OH223064   1.532   3.796   1.911  0.1445 -0.4311  0.0626
  502TIP3    H123065   1.482   3.793   1.993 -0.9306  0.1018 -0.5531
  502TIP3    H223066   1.490   3.865   1.860  1.8325  0.3678 -0.2908
  503TIP3   OH223067   0.703   5.367   0.721 -0.4616 -0.1146  0.6841
  503TIP3    H123068   0.686   5.303   0.790 -0.4241 -1.1959 -0.2711
  503TIP3    H223069   0.641   5.438   0.738 -1.5880 -1.1139  0.8869
  504TIP3   OH223070   3.051   0.129   8.301  0.4565 -0.1856  0.6022
  504TIP3    H123071   2.989   0.061   8.275 -0.5573  0.4005  1.4005
  504TIP3    H223072   3.112   0.135   8.228 -0.6322 -0.5528 -0.3675
  505TIP3   OH223073   5.693   1.926   1.963 -0.5311 -0.0279  0.3553
  505TIP3    H123074   5.679   1.999   2.023 -1.5047 -0.2919  0.4750
  505TIP3    H223075   5.778   1.891   1.987  0.7648  2.0780 -0.7953
  506TIP3   OH223076   0.060   2.111   7.775  0.2746  0.4709 -0.4723
  506TIP3    H123077   0.056   2.079   7.865 -1.7745  0.8827 -0.3631
  506TIP3    H223078   0.150   2.140   7.763  0.7456 -0.1978  1.2290
  507TIP3   OH223079   3.465   6.450   1.198 -0.6283  0.2099  0.0631
  507TIP3    H123080   3.496   6.388   1.133  0.4599 -2.0180  2.5077
  507TIP3    H223081   3.370   6.451   1.188 -0.4763  0.0080 -1.5691
  508TIP3   OH223082   5.706   3.148   7.738  0.3764 -0.1287  0.4058
  508TIP3    H123083   5.730   3.098   7.660  0.2748 -1.1644  1.0169
  508TIP3    H223084   5.679   3.082   7.801 -0.0911  0.7360  1.1328
  509TIP3   OH223085   1.725   2.213   0.463  0.1124 -0.3561  0.4625
  509TIP3    H123086   1.714   2.192   0.370 -1.0257  0.1271  0.4809
  509TIP3    H223087   1.803   2.268   0.466  1.4943 -2.1763  0.0811
  510TIP3   OH223088   3.211   2.400   0.047  0.7960 -0.1000 -0.3627
  510TIP3    H123089   3.243   2.358   0.126  2.3896  2.9521  0.7909
  510TIP3    H223090   3.284   2.455   0.018 -1.2095  2.2220 -1.3994
  511TIP3   OH223091   1.755   6.681   0.652 -0.1058  0.5356  0.1194
  511TIP3    H123092   1.823   6.729   0.699  1.0663 -1.0257  0.0876
  511TIP3    H223093   1.795   6.656   0.569 -0.4117 -1.0843  0.4198
  512TIP3   OH223094   2.971   5.231   1.046 -0.2847 -0.5952  0.2543
  512TIP3    H123095   2.992   5.265   1.133  0.8757 -0.0394 -0.2176
  512TIP3    H223096   3.023   5.151   1.037  2.3608  1.1069 -1.1522
  513TIP3   OH223097   0.923   2.459   1.710  0.5883  0.0436 -0.3281
  513TIP3    H123098   0.983   2.396   1.750  0.8617  0.4439 -0.1043
  513TIP3    H223099   0.847   2.459   1.769  1.0923  0.8146  0.3464
  514TIP3   OH223100   3.117   6.388   7.457 -0.2222 -0.2863 -0.7791
  514TIP3    H123101   3.070   6.432   7.386 -1.5088  1.2359  0.8944
  514TIP3    H223102   3.190   6.446   7.478  0.6099 -1.1128 -1.3407
  515TIP3   OH223103   5.367   4.080   7.687 -0.1267 -0.4988 -0.1447
  515TIP3    H123104   5.291   4.038   7.648 -0.6514 -0.0540  0.3652
  515TIP3    H223105   5.441   4.028   7.659 -0.4271  0.0440 -2.0760
  516TIP3   OH223106   0.668   0.032   1.965 -0.4992  0.2658 -0.6059
  516TIP3    H123107   0.598   0.093   1.991  1.1414  3.1955 -2.5593
  516TIP3    H223108   0.665   0.030   1.869  1.4936 -0.3012 -0.7039
  517TIP3   OH223109   3.182   1.027   0.372 -0.1665  0.3308 -0.2282
  517TIP3    H123110   3.255   1.021   0.311  0.1728 -1.0184  0.2856
  517TIP3    H223111   3.223   1.048   0.456 -0.3757 -0.2624  0.0286
  518TIP3   OH223112   1.617   0.776   0.816  0.1344 -0.1490  0.1958
  518TIP3    H123113   1.525   0.790   0.835 -0.0130 -0.7709 -0.0432
  518TIP3    H223114   1.656   0.753   0.900  0.0885  0.2019  0.3120
  519TIP3   OH223115   6.762   1.848   0.067 -0.5121  0.5606 -0.1934
  519TIP3    H123116   6.773   1.790   0.143  0.0781  1.1692  0.1936
  519TIP3    H223117   6.792   1.796  -0.007 -0.5937  0.1409  0.0634
  520TIP3   OH223118   1.988   6.071   1.667  0.2421 -0.3916  0.1555
  520TIP3    H123119   1.954   6.068   1.757 -1.0574  4.6426  0.1625
  520TIP3    H223120   2.081   6.093   1.677  0.3803 -0.9985  0.2340
  521TIP3   OH223121   4.729   2.187   8.283  0.2282  0.1916 -0.1396
  521TIP3    H123122   4.800   2.158   8.226 -1.7298 -3.1834 -1.1008
  521TIP3    H223123   4.773   2.215   8.364  2.7984  1.4682 -1.8337
  522TIP3   OH223124   0.261   1.933   0.074  0.0325  0.0141  0.1398
  522TIP3    H123125   0.280   2.014   0.123  0.7804 -0.0256 -0.0691
  522TIP3    H223126   0.176   1.904   0.107 -0.0349  0.6473  0.5385
  523TIP3   OH223127   4.571   5.203   0.717 -0.1888  0.4243 -0.4451
  523TIP3    H123128   4.592   5.183   0.626 -3.0069 -1.6668 -0.7415
  523TIP3    H223129   4.628   5.146   0.768 -1.6840 -1.7593 -1.0909
  524TIP3   OH223130   3.008   5.046   8.754 -0.3878  0.1595  0.1178
  524TIP3    H123131   2.917   5.056   8.725 -1.5542 -2.3799  2.3623
  524TIP3    H223132   3.017   5.108   8.827 -0.0353  0.9432 -0.5773
  525TIP3   OH223133   1.132   3.992   7.927 -0.1077  0.0501 -0.5373
  525TIP3    H123134   1.069   4.063   7.910  0.3832  0.0427 -2.7931
  525TIP3    H223135   1.081   3.912   7.917 -0.4734  0.0385  1.1647
  526TIP3   OH223136   4.709   6.391   8.777 -0.5037  0.0863  0.2091
  526TIP3    H123137   4.631   6.412   8.829  0.7044  0.5292  1.9206
  526TIP3    H223138   4.726   6.299   8.796  0.3512  0.4305  1.2335
  527TIP3   OH223139   2.152   3.923   0.394 -0.3615  0.5332  0.2483
  527TIP3    H123140   2.111   3.961   0.471 -1.8985 -0.8744  0.1679
  527TIP3    H223141   2.143   3.829   0.405  0.5803  0.2578 -1.0299
  528TIP3   OH223142   2.735   1.437   1.398 -0.7383 -0.3009 -0.1310
  528TIP3    H123143   2.795   1.388   1.454  0.2382  2.0266  0.9906
  528TIP3    H223144   2.788   1.508   1.362 -2.3815  0.7570 -0.5677
  529TIP3   OH223145   0.307   3.910   1.916  0.4164  0.1792 -0.0582
  529TIP3    H123146   0.372   3.977   1.892 -0.0214  0.6490  0.0561
  529TIP3    H223147   0.345   3.828   1.885  1.1572  0.4266  0.1776
  530TIP3   OH223148   6.249   2.231   0.179  0.1058  0.5600 -0.0929
  530TIP3    H123149   6.159   2.248   0.152 -0.1743 -0.5892  0.0520
  530TIP3    H223150   6.275   2.155   0.127  0.5892  0.1740  0.6981
  531TIP3   OH223151   4.363   2.189   2.729  0.2144  0.1807 -0.0931
  531TIP3    H123152   4.439   2.178   2.672 -1.0970 -0.4061 -1.7969
  531TIP3    H223153   4.347   2.284   2.730  0.9191  0.3056  0.2529
  532TIP3   OH223154   1.256   6.720   7.039 -0.3714 -0.5133 -0.5580
  532TIP3    H123155   1.320   6.682   7.099 -0.4587  0.0818 -0.0833
  532TIP3    H223156   1.250   6.812   7.065  0.1627 -0.0410 -1.9675
  533TIP3   OH223157   1.789   5.279   8.822 -0.3874  0.1196 -0.3934
  533TIP3    H123158   1.719   5.221   8.790 -0.7400 -0.4693  1.3708
  533TIP3    H223159   1.750   5.366   8.821 -1.1318 -0.1918  0.4737
  534TIP3   OH223160   2.748   5.022   0.811  0.1781  0.1983 -0.1115
  534TIP3    H123161   2.770   4.948   0.755  1.2845 -0.4629  1.1197
  534TIP3    H223162   2.830   5.070   0.821 -0.1963  0.7807  0.2431
  535TIP3   OH223163   2.062   0.736   0.740  0.6262 -0.5197  0.1884
  535TIP3    H123164   2.147   0.779   0.752  0.4619  0.2111 -1.1191
  535TIP3    H223165   2.084   0.652   0.700  0.7207 -0.2241 -0.3851
  536TIP3   OH223166   0.107   0.927   0.514 -0.2213 -0.1579 -0.3255
  536TIP3    H123167   0.167   0.993   0.478  1.1087 -1.0692  0.1200
  536TIP3    H223168   0.124   0.929   0.608 -0.9279 -0.4219 -0.1871
  537TIP3   OH223169   4.925   4.556   1.870  0.2883 -0.1850  0.1716
  537TIP3    H123170   4.891   4.482   1.820 -1.1568  0.4824  0.1102
  537TIP3    H223171   5.018   4.558   1.850  0.1582 -1.3533 -0.6374
  538TIP3   OH223172   4.843   4.622   0.732  0.3576  0.1491 -0.0259
  538TIP3    H123173   4.904   4.550   0.719 -0.1511  0.0084 -1.9449
  538TIP3    H223174   4.839   4.634   0.827  1.7374 -1.2170  0.2314
  539TIP3   OH223175   6.222   6.444   8.052  0.4613  0.3223  0.2395
  539TIP3    H123176   6.219   6.348   8.045 -0.5208  0.1053  2.5578
  539TIP3    H223177   6.172   6.475   7.978 -0.3111 -1.0239  0.1576
  540TIP3   OH223178   6.532   4.383   2.290  0.4713 -0.2473 -0.2469
  540TIP3    H123179   6.454   4.371   2.236  1.7977 -1.8687 -1.9230
  540TIP3    H223180   6.581   4.452   2.247 -0.5065  1.6897  1.5114
  541TIP3   OH223181   0.249   5.040   8.927  0.6090 -0.1042 -0.0927
  541TIP3    H123182   0.165   4.995   8.923  0.0839  0.8387 -0.0325
  541TIP3    H223183   0.297   4.997   8.998 -0.5497  0.5256  1.1234
  542TIP3   OH223184   0.498   3.464   8.835 -0.4841 -0.0836  0.6223
  542TIP3    H123185   0.439   3.438   8.765 -1.6919 -0.6142  1.7945
  542TIP3    H223186   0.462   3.546   8.868  0.2438  0.3190  0.4481
  543TIP3   OH223187   2.538   0.481   0.059  0.4309 -0.1359  0.1689
  543TIP3    H123188   2.534   0.574   0.080  0.2362 -0.3392  1.0786
  543TIP3    H223189   2.607   0.474  -0.006  1.5819  0.4505  1.2800
  544TIP3   OH223190   5.576   1.110   8.477 -0.1137 -0.3063  0.4459
  544TIP3    H123191   5.536   1.071   8.555  1.0301  0.0756  1.2412
  544TIP3    H223192   5.638   1.174   8.511 -0.1062  0.3834 -0.8017
  545TIP3   OH223193   3.284   2.260   0.295 -0.7440 -0.8031 -0.4364
  545TIP3    H123194   3.195   2.293   0.311 -1.0753 -1.5056 -0.7702
  545TIP3    H223195   3.272   2.167   0.279  0.0090 -0.8204 -0.9468
  546TIP3   OH223196   4.756   2.476   0.947  0.1950  0.1608 -0.1602
  546TIP3    H123197   4.683   2.473   1.009 -0.4598 -0.5980 -0.9508
  546TIP3    H223198   4.825   2.425   0.988  0.3096  0.9110  0.6094
  547TIP3   OH223199   1.075   2.412   0.912  0.3697 -0.3924  0.0005
  547TIP3    H123200   1.011   2.369   0.855  0.0012  1.5785 -1.1978
  547TIP3    H223201   1.135   2.457   0.851  1.5858 -0.4192  1.1463
  548TIP3   OH223202   5.075   2.834   2.075 -0.1703  0.0236  0.1982
  548TIP3    H123203   5.053   2.783   2.153 -2.0250 -0.3512 -0.4979
  548TIP3    H223204   5.153   2.883   2.099  1.6134 -2.9522  0.9809
  549TIP3   OH223205   6.436   5.253   0.276  0.0240  0.2128 -0.3480
  549TIP3    H123206   6.521   5.276   0.239  0.8032 -1.5917  0.1762
  549TIP3    H223207   6.440   5.284   0.366 -0.5591  1.6197 -0.7850
  550TIP3   OH223208   1.615   4.988   1.768 -0.3668 -0.0229 -0.3964
  550TIP3    H123209   1.658   4.923   1.824  1.6002  0.0211 -1.7224
  550TIP3    H223210   1.672   4.994   1.691 -1.5266  1.8746 -1.1839
  551TIP3   OH223211   1.997   0.059   0.769 -0.1173  0.2537  0.8181
  551TIP3    H123212   2.037   0.075   0.683  1.2708  0.3973  1.4588
  551TIP3    H223213   1.980   0.146   0.804 -2.3793  0.2067 -0.0235
  552TIP3   OH223214   5.830   1.062   7.584 -0.3753  0.1978 -0.0454
  552TIP3    H123215   5.865   1.025   7.503 -0.3238  0.5440 -0.1821
  552TIP3    H223216   5.790   1.144   7.558  0.3011  0.6784  0.3964
  553TIP3   OH223217   2.237   5.281   0.454  0.8117  0.2424  0.0874
  553TIP3    H123218   2.278   5.338   0.518  1.0650  0.4907 -0.2932
  553TIP3    H223219   2.304   5.267   0.387  1.5495 -2.2782  1.2201
  554TIP3   OH223220   3.995   6.496   8.248 -0.3094  0.6364  0.0420
  554TIP3    H123221   4.019   6.479   8.156  1.9320  0.0613  0.6629
  554TIP3    H223222   3.903   6.469   8.254  0.2849 -2.1401 -1.3826
  555TIP3   OH223223   2.474   3.714   0.273  0.0152  0.2790  0.6813
  555TIP3    H123224   2.405   3.703   0.208  0.9375 -0.5746 -0.2024
  555TIP3    H223225   2.502   3.624   0.294  2.7684  0.5967 -1.1586
  556TIP3   OH223226   0.667   5.598   1.907  0.6220  0.0978 -0.2105
  556TIP3    H123227   0.590   5.629   1.955  1.4522  1.4758  0.2766
  556TIP3    H223228   0.738   5.599   1.971  0.7671 -2.7616 -0.1890
  557TIP3   OH223229   0.948   1.427   6.744  0.1125  0.0528  0.5906
  557TIP3    H123230   0.893   1.367   6.793  1.9317  0.0689  2.8460
  557TIP3    H223231   1.034   1.385   6.743  0.5686  0.9275 -1.0773
  558TIP3   OH223232   3.512   5.930   8.826  0.1531 -0.0030  0.2696
  558TIP3    H123233   3.595   5.977   8.825 -0.4991  1.1841 -1.4747
  558TIP3    H223234   3.449   5.991   8.789 -0.5381 -2.4863 -3.1375
  559TIP3   OH223235   6.672   2.194   1.052  0.7813  0.0580 -0.3279
  559TIP3    H123236   6.642   2.159   1.136  0.4486  0.2974 -0.3467
  559TIP3    H223237   6.596   2.185   0.994  0.1058  2.3494  0.0963
  560TIP3   OH223238   2.517   3.010   8.758 -0.5816 -0.1917 -0.0059
  560TIP3    H123239   2.563   3.051   8.684 -2.9104 -2.2810 -2.8295
  560TIP3    H223240   2.428   3.044   8.752 -0.4120  1.2633  3.3512
  561TIP3   OH223241   5.285   4.156   8.819 -0.0002  0.5778 -0.1055
  561TIP3    H123242   5.243   4.241   8.833  0.3605  1.0499 -1.6571
  561TIP3    H223243   5.223   4.107   8.764 -0.4160 -0.3633  1.1514
  562TIP3   OH223244   1.472   0.812   7.299 -0.1631  0.1041 -0.6466
  562TIP3    H123245   1.542   0.838   7.239  1.8144  0.3781  1.6273
  562TIP3    H223246   1.476   0.717   7.301  3.1567  0.0956  2.5479
  563TIP3   OH223247   1.110   2.351   7.145 -0.0124  0.1380 -0.0514
  563TIP3    H123248   1.145   2.312   7.066  0.7899  0.7284 -0.0041
  563TIP3    H223249   1.015   2.358   7.129  0.2088  0.8068 -1.2122
  564TIP3   OH223250   6.216   2.585   8.592  0.1078  0.2012  0.0012
  564TIP3    H123251   6.296   2.555   8.549  0.5879  0.3276  0.7733
  564TIP3    H223252   6.242   2.600   8.683  0.5866  5.1111 -0.6401
  565TIP3   OH223253   6.684   3.523   7.377  0.2253  0.0463 -0.4199
  565TIP3    H123254   6.607   3.470   7.356  0.5954 -0.3195 -0.8730
  565TIP3    H223255   6.712   3.559   7.293  0.2855  0.5378 -0.1889
  566TIP3   OH223256   3.508   5.734   0.142  0.3281  0.6828 -0.0713
  566TIP3    H123257   3.520   5.808   0.202  1.1915  0.9032 -0.4950
  566TIP3    H223258   3.525   5.770   0.055  1.4910 -0.1602 -0.2233
  567TIP3   OH223259   5.587   3.897   8.778 -0.0244 -0.1562  0.3928
  567TIP3    H123260   5.571   3.991   8.769 -0.5093 -0.0461  2.0958
  567TIP3    H223261   5.513   3.856   8.734 -0.6528  0.2969  0.9950
  568TIP3   OH223262   5.979   0.498   1.182 -0.4431  0.2333  0.0620
  568TIP3    H123263   5.896   0.545   1.173 -0.8618 -0.5429 -0.1978
  568TIP3    H223264   6.035   0.559   1.231 -1.3989  0.4802  0.8888
  569TIP3   OH223265   0.649   2.297   0.962 -0.0680 -0.0987  0.4490
  569TIP3    H123266   0.570   2.281   1.014 -0.3678 -0.6381 -0.1547
  569TIP3    H223267   0.721   2.272   1.020 -0.3897 -0.4663  0.6948
  570TIP3   OH223268   2.069   0.315   1.979 -0.8596  0.1591 -0.2247
  570TIP3    H123269   2.074   0.337   2.072 -1.8655 -1.0276  0.1328
  570TIP3    H223270   2.048   0.398   1.936 -0.8558  0.6247  0.6558
  571TIP3   OH223271   2.765   2.821   8.806  0.0007 -0.5996 -0.0492
  571TIP3    H123272   2.744   2.802   8.714  1.8484  1.6965 -1.0543
  571TIP3    H223273   2.857   2.796   8.815  0.0805  0.0014  0.9309
  572TIP3   OH223274   3.659   2.656   0.590  0.3378  0.1309  0.0613
  572TIP3    H123275   3.624   2.632   0.504  0.6053 -0.3868  0.0953
  572TIP3    H223276   3.751   2.674   0.574  0.0396  1.7106 -0.0666
  573TIP3   OH223277   2.261   6.166   7.086  0.4211 -0.2639  0.3735
  573TIP3    H123278   2.283   6.258   7.106 -0.3971 -0.1372  0.7066
  573TIP3    H223279   2.346   6.122   7.085  0.9736  0.7620 -1.2262
  574TIP3   OH223280   0.101   3.224   0.662  0.5824 -0.5714  0.2301
  574TIP3    H123281   0.081   3.250   0.752 -0.2728  0.0192 -0.1129
  574TIP3    H223282   0.063   3.136   0.654 -1.5987  0.3562 -0.2735
  575TIP3   OH223283   3.043   3.052   8.855 -0.2846  0.3954 -0.2393
  575TIP3    H123284   3.095   2.996   8.912 -0.1764 -0.0156 -0.7331
  575TIP3    H223285   3.096   3.132   8.845  0.0106  0.1892 -0.3269
  576TIP3   OH223286   4.905   5.881   7.246  0.3404  0.4125  0.9166
  576TIP3    H123287   4.995   5.902   7.220 -0.3972  0.4201 -2.0237
  576TIP3    H223288   4.853   5.955   7.214 -1.0595 -1.1072 -0.5687
  577TIP3   OH223289   6.048   2.417   7.648 -0.3965  0.4714 -0.0847
  577TIP3    H123290   6.092   2.489   7.693  0.6777 -0.4515  0.3896
  577TIP3    H223291   5.989   2.460   7.586 -0.0340  1.7511  0.4240
  578TIP3   OH223292   2.990   4.122   8.557  0.1325 -0.3790 -0.0131
  578TIP3    H123293   3.046   4.057   8.600 -0.6284 -0.8104  0.3412
  578TIP3    H223294   2.911   4.074   8.532  0.1321  0.1055 -0.9892
  579TIP3   OH223295   3.116   5.818   0.299  0.2331  0.4083 -0.0574
  579TIP3    H123296   3.030   5.809   0.340 -0.3046  1.0606 -0.9912
  579TIP3    H223297   3.153   5.730   0.301  0.4775  0.4835  2.2813
  580TIP3   OH223298   0.945   4.419   1.323  0.1210 -0.3814  0.5319
  580TIP3    H123299   0.934   4.478   1.398  0.4811 -0.6951  0.8425
  580TIP3    H223300   0.984   4.473   1.255  1.6849 -0.5426  1.2488
  581TIP3   OH223301   0.875   1.824   8.683  0.7194  0.1785 -0.8531
  581TIP3    H123302   0.865   1.832   8.588 -1.4424  0.8066 -0.6229
  581TIP3    H223303   0.957   1.870   8.703  0.0384  2.0966 -2.1788
  582TIP3   OH223304   4.404   5.821   1.653 -0.0792 -0.3631  0.8621
  582TIP3    H123305   4.386   5.857   1.739 -0.5518  3.5629 -0.6536
  582TIP3    H223306   4.473   5.878   1.617  0.0083 -1.7518 -1.3672
  583TIP3   OH223307   1.912   4.106   2.510  0.1000  0.1682 -0.3775
  583TIP3    H123308   2.000   4.069   2.514 -0.4921 -1.5461 -1.6797
  583TIP3    H223309   1.896   4.118   2.416 -0.9410  0.7545 -0.1374
  584TIP3   OH223310   2.817   5.199   0.360 -0.5727 -0.2772  0.4108
  584TIP3    H123311   2.765   5.268   0.400  1.3605  2.0790 -0.8943
  584TIP3    H223312   2.901   5.202   0.405  0.2877 -0.2267 -1.1110
  585TIP3   OH223313   4.933   5.832   1.993  0.0041 -0.1011 -0.0973
  585TIP3    H123314   4.884   5.783   2.059 -0.8804  0.7555 -0.0883
  585TIP3    H223315   5.020   5.792   1.993 -0.8924 -2.1742 -0.6523
  586TIP3   OH223316   1.539   0.045   0.357 -0.2188  1.0290 -0.3864
  586TIP3    H123317   1.462   0.102   0.346 -0.6228  0.5900  0.1075
  586TIP3    H223318   1.572   0.066   0.444 -0.4515  0.4144 -0.1482
  587TIP3   OH223319   5.508   4.699   0.972  0.2502  0.0630  0.2163
  587TIP3    H123320   5.545   4.611   0.961  1.0783  0.3664  0.4823
  587TIP3    H223321   5.532   4.745   0.892 -1.4702 -0.3674 -0.6011
  588TIP3   OH223322   4.192   1.888   1.323 -0.1431 -0.5201  0.1797
  588TIP3    H123323   4.180   1.905   1.230  0.0176  0.2762  0.3043
  588TIP3    H223324   4.156   1.800   1.335 -0.6940 -0.4002 -0.5194
  589TIP3   OH223325   2.938   3.374   0.065 -0.3673  0.4198 -0.0053
  589TIP3    H123326   2.855   3.333   0.092 -0.5693 -0.9884 -2.4622
  589TIP3    H223327   2.943   3.454   0.118 -3.9012  1.1745 -0.5417
  590TIP3   OH223328   6.498   2.875   7.699  0.3466 -0.5217 -0.1641
  590TIP3    H123329   6.441   2.799   7.714 -0.6545  0.4022  0.8733
  590TIP3    H223330   6.491   2.892   7.605 -2.1694  0.3685  0.1216
  591TIP3   OH223331   2.718   0.346   2.111 -0.1397  0.3913  0.3383
  591TIP3    H123332   2.793   0.405   2.110  0.1599  0.0036 -0.7979
  591TIP3    H223333   2.694   0.339   2.204 -0.4629  2.6127  0.4692
  592TIP3   OH223334   2.871   1.585   2.097 -0.3979  0.8370 -0.2547
  592TIP3    H123335   2.888   1.493   2.116  1.1328  0.9480 -0.9318
  592TIP3    H223336   2.778   1.589   2.078  0.0640 -1.3152 -3.9462
  593TIP3   OH223337   5.978   1.108   8.848  0.0277 -0.0301  0.2226
  593TIP3    H123338   6.060   1.066   8.872  0.2287  0.2082 -0.0445
  593TIP3    H223339   5.927   1.109   8.929  0.7196  0.8047  0.6629
  594TIP3   OH223340   4.165   3.506   0.458  0.7109 -0.1279  0.7248
  594TIP3    H123341   4.190   3.544   0.542 -0.0600  2.8575 -0.2712
  594TIP3    H223342   4.069   3.509   0.459  0.6166 -1.8507  0.4269
  595TIP3   OH223343   0.127   3.617   1.759  0.2465  0.1701  0.2904
  595TIP3    H123344   0.121   3.635   1.852 -0.5492  0.2991  0.2245
  595TIP3    H223345   0.056   3.554   1.742  1.1037 -0.7439 -0.0198
  596TIP3   OH223346   0.456   1.931   8.053  0.1585  0.5145  0.0350
  596TIP3    H123347   0.411   1.865   8.107 -1.4129  0.5066 -1.1922
  596TIP3    H223348   0.490   1.881   7.979 -1.5016  1.0940 -1.1744
  597TIP3   OH223349   1.471   1.501   6.901 -0.3215  0.3604  0.4306
  597TIP3    H123350   1.523   1.535   6.974 -0.4948  0.8219  0.3395
  597TIP3    H223351   1.531   1.501   6.827 -0.1937  0.0468  0.5298
  598TIP3   OH223352   5.588   0.588   0.331  0.1127  0.4620  0.6463
  598TIP3    H123353   5.573   0.495   0.348  0.5277  0.2591 -0.0729
  598TIP3    H223354   5.629   0.591   0.245 -3.4335  1.5458 -1.1841
  599TIP3   OH223355   1.680   2.391   8.165  0.4380 -0.2845  0.3080
  599TIP3    H123356   1.661   2.305   8.202 -1.8640  0.2596  0.5184
  599TIP3    H223357   1.687   2.377   8.071  1.4033 -0.8873  0.4574
  600TIP3   OH223358   0.218   0.722   0.143  0.0455  0.7225 -0.0959
  600TIP3    H123359   0.267   0.681   0.071 -1.2594 -3.2991  1.0785
  600TIP3    H223360   0.276   0.714   0.219 -1.1515 -1.4279  0.6736
  601TIP3   OH223361   3.441   5.063   0.208  0.2512 -0.0136  0.0540
  601TIP3    H123362   3.410   4.984   0.164 -1.1770  0.6262 -0.1655
  601TIP3    H223363   3.486   5.031   0.287  1.3766 -1.0979 -0.9812
  602TIP3   OH223364   4.569   0.446   8.251 -0.2537  0.2135  0.5178
  602TIP3    H123365   4.586   0.539   8.236 -0.5063  0.1577 -0.1419
  602TIP3    H223366   4.540   0.442   8.342 -2.8853  1.1622 -0.2010
  603TIP3   OH223367   2.616   4.817   1.976 -0.4863  0.0824 -0.0107
  603TIP3    H123368   2.616   4.770   2.059 -0.4971 -0.5649 -0.3786
  603TIP3    H223369   2.574   4.901   1.997 -0.1743  0.0729  0.7159
  604TIP3   OH223370   5.181   3.662   2.659 -0.1905  0.4041  0.2829
  604TIP3    H123371   5.096   3.628   2.632  1.0485 -0.6900 -2.6503
  604TIP3    H223372   5.166   3.756   2.672 -1.3832  0.7906 -2.9506
  605TIP3   OH223373   4.266   4.905   7.052 -0.3363  0.1711  0.2414
  605TIP3    H123374   4.245   4.878   6.963  0.5799 -0.1982  0.1274
  605TIP3    H223375   4.192   4.960   7.078 -0.7081  0.1247 -0.6693
  606TIP3   OH223376   0.411   0.730   0.355 -0.0402  0.4538  0.3698
  606TIP3    H123377   0.493   0.748   0.309 -0.7452  2.3424 -0.2507
  606TIP3    H223378   0.426   0.761   0.444 -0.2899  1.4459  0.0745
  607TIP3   OH223379   3.404   5.316   0.506  0.3934  0.2973 -0.1996
  607TIP3    H123380   3.341   5.385   0.527 -1.2099 -0.9444 -0.6971
  607TIP3    H223381   3.356   5.258   0.446  2.0134 -0.7209 -0.5564
  608TIP3   OH223382   4.822   6.406   2.238  0.1529 -0.6484 -0.2931
  608TIP3    H123383   4.806   6.313   2.252  0.4054 -0.3898  2.2086
  608TIP3    H223384   4.911   6.420   2.269  0.3390  0.3376 -1.2102
  609TIP3   OH223385   2.298   3.700   8.122 -0.3269  0.0161  0.1339
  609TIP3    H123386   2.363   3.695   8.193  1.0730 -0.5344 -1.1343
  609TIP3    H223387   2.216   3.674   8.163  0.1690  1.0176  1.8662
  610TIP3   OH223388   3.652   5.824   8.115 -0.6376  0.3555 -0.3980
  610TIP3    H123389   3.746   5.803   8.113 -0.6716 -1.9295  5.0210
  610TIP3    H223390   3.617   5.780   8.038  2.2650 -2.5317 -0.3080
  611TIP3   OH223391   1.944   2.759   8.287  0.0857  0.0621 -0.0639
  611TIP3    H123392   1.924   2.795   8.374  0.8721 -2.5799  1.3156
  611TIP3    H223393   2.037   2.775   8.275  0.4607 -1.4224  0.5968
  612TIP3   OH223394   5.420   5.410   8.691  0.4744  0.2427 -0.5554
  612TIP3    H123395   5.375   5.329   8.670 -0.6260  0.4563  0.8069
  612TIP3    H223396   5.433   5.453   8.607 -0.3302 -0.6256 -1.1401
  613TIP3   OH223397   0.161   3.696   2.116 -0.1694 -0.0053  0.7433
  613TIP3    H123398   0.131   3.613   2.154 -1.3327  0.8339  1.7121
  613TIP3    H223399   0.154   3.759   2.188  0.1904  1.0524 -0.1295
  614TIP3   OH223400   6.642   0.707   8.697  0.1212  0.3606 -0.1003
  614TIP3    H123401   6.699   0.746   8.763 -0.2989  0.1114  0.4222
  614TIP3    H223402   6.684   0.624   8.674  0.4032  0.5698 -0.3373
  615TIP3   OH223403   2.507   0.872   0.943  0.1768  0.0106  0.1446
  615TIP3    H123404   2.436   0.904   0.998  0.7916  1.9740 -0.1273
  615TIP3    H223405   2.543   0.797   0.991 -0.7488  0.2695  1.2718
  616TIP3   OH223406   2.097   1.444   3.311 -0.0702  0.1317  0.1267
  616TIP3    H123407   2.052   1.521   3.275 -0.6147 -0.0405  0.4293
  616TIP3    H223408   2.063   1.371   3.260  1.1768  0.1771 -0.8344
  617TIP3   OH223409   4.759   6.015   1.033 -0.1635  0.5307 -0.7598
  617TIP3    H123410   4.758   6.066   1.114  1.6744  0.0443 -0.3949
  617TIP3    H223411   4.673   5.974   1.029 -0.8334  1.7859  0.1443
  618TIP3   OH223412   5.575   2.711   0.747 -0.4735  0.2412 -0.5838
  618TIP3    H123413   5.617   2.633   0.784 -0.5607  0.9824  1.1767
  618TIP3    H223414   5.636   2.782   0.766 -1.0749  0.8335 -0.8369
  619TIP3   OH223415   6.214   5.935   1.635  0.1555 -0.3010 -0.5622
  619TIP3    H123416   6.271   5.858   1.639  2.0186  0.9940 -0.6475
  619TIP3    H223417   6.174   5.939   1.721  0.3342 -1.1490 -0.4269
  620TIP3   OH223418   1.995   3.437   8.739  0.0042 -0.3517 -0.4169
  620TIP3    H123419   1.921   3.488   8.772  0.5597 -0.2859  0.7573
  620TIP3    H223420   2.071   3.472   8.785  0.7184 -0.7342 -1.2625
  621TIP3   OH223421   2.853   3.645   7.921  0.0361 -0.2658 -0.0015
  621TIP3    H123422   2.792   3.694   7.866  1.4718  0.5632 -0.9147
  621TIP3    H223423   2.835   3.676   8.010 -0.3930  0.4675 -0.3325
  622TIP3   OH223424   3.165   1.679   2.880 -0.0912 -0.4158 -0.3427
  622TIP3    H123425   3.232   1.696   2.815  0.8122 -0.2962  0.5982
  622TIP3    H223426   3.139   1.766   2.911  0.9924 -0.5095  0.9322
  623TIP3   OH223427   2.065   5.709   8.293 -0.1817 -0.1456  0.3246
  623TIP3    H123428   2.007   5.711   8.217 -0.7405 -0.1911  0.7410
  623TIP3    H223429   2.070   5.616   8.316  0.2273 -0.1648  0.1669
  624TIP3   OH223430   0.704   2.014   0.493 -0.0688 -0.5865  0.0458
  624TIP3    H123431   0.747   2.086   0.447  1.1416 -1.7062 -0.6472
  624TIP3    H223432   0.612   2.039   0.495  0.3263  0.9952 -0.1223
  625TIP3   OH223433   4.025   2.027   1.505 -0.0046 -0.0878 -0.2779
  625TIP3    H123434   4.062   2.012   1.418  0.3176 -2.2410  0.1772
  625TIP3    H223435   3.961   1.957   1.516  0.1212  0.0185  1.3007
  626TIP3   OH223436   3.629   5.141   8.547 -0.3727 -0.2721  0.1282
  626TIP3    H123437   3.676   5.219   8.518 -1.7888  0.5261 -0.1462
  626TIP3    H223438   3.631   5.083   8.471 -0.5592  0.1219 -0.1849
  627TIP3   OH223439   6.200   5.794   0.378 -0.6538  0.3067  0.1679
  627TIP3    H123440   6.172   5.810   0.288  0.2175  1.6641  0.1081
  627TIP3    H223441   6.121   5.809   0.430 -1.4420 -1.5413 -0.4152
  628TIP3   OH223442   5.162   5.178   0.055  0.0443 -0.3767 -0.4348
  628TIP3    H123443   5.207   5.248   0.102 -0.0636 -0.8690  0.4315
  628TIP3    H223444   5.231   5.116   0.032 -0.1161 -0.9445  0.5559
  629TIP3   OH223445   2.303   5.931   1.238 -0.0169 -0.1602  0.0496
  629TIP3    H123446   2.214   5.952   1.267  0.1049  1.2612 -0.4984
  629TIP3    H223447   2.297   5.841   1.205 -1.6624  0.4331 -1.4962
  630TIP3   OH223448   2.387   3.307   1.494 -0.3167 -0.3952  0.2303
  630TIP3    H123449   2.459   3.254   1.527  1.7180  0.9854 -1.6323
  630TIP3    H223450   2.329   3.319   1.569  2.5680  0.3119  2.5622
  631TIP3   OH223451   2.889   2.866   2.182  0.3665 -0.5062  0.2161
  631TIP3    H123452   2.856   2.784   2.220 -0.2990  0.1834  1.1617
  631TIP3    H223453   2.916   2.918   2.257  0.0846  0.4407 -0.3224
  632TIP3   OH223454   1.052   5.035   0.451  0.2066  0.3514 -0.2327
  632TIP3    H123455   1.056   5.130   0.462 -1.5575  0.4897 -0.4029
  632TIP3    H223456   1.129   5.002   0.497  0.8191  1.8573 -0.1268
  633TIP3   OH223457   3.070   0.196   8.918  0.7427 -0.1000  0.5335
  633TIP3    H123458   3.137   0.263   8.926  0.9210 -0.1236 -0.7088
  633TIP3    H223459   3.062   0.179   8.825 -0.4703 -0.6342  0.7046
  634TIP3   OH223460   2.403   4.475   0.643 -0.1802 -0.3082 -0.2788
  634TIP3    H123461   2.413   4.566   0.672 -0.6010  0.0037 -1.0679
  634TIP3    H223462   2.335   4.479   0.576 -2.1838 -1.6178  1.5671
  635TIP3   OH223463   1.550   3.219   0.736  0.6219 -0.0720 -0.0680
  635TIP3    H123464   1.587   3.205   0.823 -0.3344  1.8524  0.7201
  635TIP3    H223465   1.575   3.309   0.713 -1.3119  0.3863 -0.6166
  636TIP3   OH223466   0.472   0.506   2.025 -0.0527 -0.9165  0.5801
  636TIP3    H123467   0.473   0.530   1.933  0.0001 -0.3387  0.7287
  636TIP3    H223468   0.535   0.566   2.066  1.2419 -2.2918  0.7179
  637TIP3   OH223469   1.355   0.362   2.764 -0.0560 -0.2087  0.3654
  637TIP3    H123470   1.365   0.277   2.722  0.8326 -0.7700  1.6494
  637TIP3    H223471   1.340   0.342   2.857  1.9920  1.0174  1.0366
  638TIP3   OH223472   5.906   6.535   1.638  0.4534  0.4066 -0.8140
  638TIP3    H123473   5.994   6.500   1.655  0.8138  1.1255 -1.1962
  638TIP3    H223474   5.921   6.620   1.598 -0.4242  0.6828 -0.5687
  639TIP3   OH223475   5.108   1.097   8.138 -0.2792 -0.3850 -0.1200
  639TIP3    H123476   5.163   1.149   8.079 -0.5420  0.1885  0.1274
  639TIP3    H223477   5.023   1.094   8.094  0.0240 -1.5782 -0.6782
  640TIP3   OH223478   0.338   4.818   0.826 -0.3727 -0.6164 -0.2289
  640TIP3    H123479   0.369   4.858   0.744  1.3130 -0.4486  0.4520
  640TIP3    H223480   0.270   4.878   0.857 -0.4481 -0.2392 -1.0959
  641TIP3   OH223481   4.324   4.985   8.798 -0.3439  0.0140  0.0701
  641TIP3    H123482   4.416   4.964   8.809 -0.4557 -1.2505 -1.1716
  641TIP3    H223483   4.314   5.008   8.706 -1.5556 -1.6779 -0.2836
  642TIP3   OH223484   4.125   0.095   2.040 -0.2034 -0.8256 -0.3986
  642TIP3    H123485   4.185   0.087   2.114 -0.3366 -2.8825 -0.4329
  642TIP3    H223486   4.043   0.128   2.077 -0.0247 -1.0959  0.2362
  643TIP3   OH223487   0.173   5.339   8.078  0.0525 -0.2227 -0.4165
  643TIP3    H123488   0.222   5.311   8.155 -0.7124  1.4246  0.7492
  643TIP3    H223489   0.081   5.326   8.102 -0.1777 -0.1931 -1.2635
  644TIP3   OH223490   3.012   3.684   7.210 -0.0294  0.3876  0.3682
  644TIP3    H123491   2.950   3.671   7.138  0.3199 -1.9583  0.4028
  644TIP3    H223492   3.097   3.695   7.167  0.5596 -3.2637  0.3014
  645TIP3   OH223493   0.566   0.968   8.340  0.1534 -0.7741 -0.3657
  645TIP3    H123494   0.620   0.932   8.270 -0.7887 -3.9123  0.3711
  645TIP3    H223495   0.628   1.003   8.403  1.1467 -0.9049 -1.2467
  646TIP3   OH223496   3.885   0.078   7.977  1.0258  0.1572 -0.1257
  646TIP3    H123497   3.838   0.004   8.016 -1.9602  1.1688 -1.5240
  646TIP3    H223498   3.939   0.038   7.909 -1.9291 -0.7429 -2.1228
  647TIP3   OH223499   3.455   5.098   1.828  0.3803 -0.0027  0.2663
  647TIP3    H123500   3.414   5.129   1.909 -1.7751 -2.5673  0.3048
  647TIP3    H223501   3.394   5.125   1.759 -0.1195 -1.6203  0.0348
  648TIP3   OH223502   5.389   0.619   6.709  0.3165 -0.0910  0.1161
  648TIP3    H123503   5.371   0.543   6.653  0.9525 -0.3352  0.2311
  648TIP3    H223504   5.324   0.613   6.779 -1.2066  0.8339 -1.1625
  649TIP3   OH223505   1.433   5.110   2.933 -0.4869  0.0771 -0.7037
  649TIP3    H123506   1.342   5.139   2.927 -0.6511  0.0735  1.2383
  649TIP3    H223507   1.481   5.188   2.959 -0.1417 -0.2370 -0.3929
  650TIP3   OH223508   2.414   6.316   2.305 -0.6372 -0.5128  0.0038
  650TIP3    H123509   2.331   6.291   2.266 -2.0861  0.9689  1.9435
  650TIP3    H223510   2.417   6.412   2.295  1.1125 -0.5829 -0.4853
  651TIP3   OH223511   1.904   5.005   1.740  0.6406  0.4297  0.1017
  651TIP3    H123512   1.888   4.923   1.693 -0.0180  0.9112 -0.5392
  651TIP3    H223513   1.955   4.979   1.817  0.1960 -0.6152  0.0620
  652TIP3   OH223514   1.706   6.296   8.366 -0.0332  0.0319 -0.0225
  652TIP3    H123515   1.695   6.281   8.460  0.8185 -0.7877 -0.0305
  652TIP3    H223516   1.651   6.229   8.325  1.5660 -1.3536 -0.0662
  653TIP3   OH223517   2.183   2.884   1.227 -0.3235 -0.0546 -0.0486
  653TIP3    H123518   2.131   2.838   1.292  2.2943 -2.6207  0.4194
  653TIP3    H223519   2.184   2.975   1.258 -0.7151 -0.8200  2.4678
  654TIP3   OH223520   4.418   2.796   2.394 -0.1855 -0.1550  0.0777
  654TIP3    H123521   4.413   2.863   2.462 -1.1022  0.9137 -1.0177
  654TIP3    H223522   4.510   2.797   2.367 -0.0605  0.2195  0.5028
  655TIP3   OH223523   1.225   5.896   7.533 -0.0334  0.5945  0.6669
  655TIP3    H123524   1.208   5.814   7.487  1.0536  0.3460  0.6795
  655TIP3    H223525   1.160   5.897   7.603  1.1982 -1.2923  1.9506
  656TIP3   OH223526   1.195   2.993   2.743 -0.3957 -0.1561  0.0766
  656TIP3    H123527   1.133   3.039   2.687  0.5408 -1.0411 -1.7655
  656TIP3    H223528   1.164   3.011   2.832 -2.6318  0.3321 -0.7207
  657TIP3   OH223529   3.418   6.433   8.705 -1.1002  0.6513 -0.1900
  657TIP3    H123530   3.374   6.517   8.694 -0.4630  0.8606 -1.2766
  657TIP3    H223531   3.417   6.418   8.800  0.0568  2.6022  0.2037
  658TIP3   OH223532   0.528   2.647   8.077  0.2578  0.4012  0.7114
  658TIP3    H123533   0.496   2.722   8.027 -1.4419  1.4137  3.1023
  658TIP3    H223534   0.460   2.581   8.066  0.5086  0.1619  0.6200
  659TIP3   OH223535   1.128   4.442   1.585  0.3578 -0.5970 -0.4491
  659TIP3    H123536   1.176   4.525   1.583 -2.8009  1.3739 -0.3874
  659TIP3    H223537   1.178   4.384   1.527  2.7017  1.2645 -0.4589
  660TIP3   OH223538   0.279   2.687   1.904 -0.3329  0.1105 -0.2294
  660TIP3    H123539   0.301   2.600   1.938  0.3650  0.4250  0.1592
  660TIP3    H223540   0.324   2.692   1.820 -1.8068 -0.5495 -1.0993
  661TIP3   OH223541   1.567   5.688   1.005  0.0666  0.5725 -0.0383
  661TIP3    H123542   1.503   5.759   1.017  0.2528  0.7870 -0.2903
  661TIP3    H223543   1.602   5.703   0.917 -0.1276 -0.0239 -0.2181
  662TIP3   OH223544   4.159   3.032   6.945 -0.1332 -0.0062 -0.0891
  662TIP3    H123545   4.194   3.090   7.013  1.4668 -1.0443  0.0212
  662TIP3    H223546   4.235   3.012   6.890 -0.5615 -2.2050  0.0307
  663TIP3   OH223547   5.225   3.500   8.343  0.0360 -0.3264  0.0315
  663TIP3    H123548   5.318   3.526   8.340 -0.0386  0.5252  2.5954
  663TIP3    H223549   5.226   3.411   8.378 -0.1076 -0.8031 -1.1127
  664TIP3   OH223550   2.066   4.263   0.745 -0.6054  0.2668 -0.0461
  664TIP3    H123551   2.088   4.183   0.698 -0.4736  1.5137 -2.2081
  664TIP3    H223552   2.034   4.323   0.678  1.1704  2.7263  1.1564
  665TIP3   OH223553   0.157   4.079   6.879 -0.0497  0.1318  0.0814
  665TIP3    H123554   0.064   4.080   6.857 -0.1872 -2.5727  0.2975
  665TIP3    H223555   0.171   3.996   6.924  2.4656  0.4958  0.1299
  666TIP3   OH223556   4.922   2.149   1.434  0.0817  0.2757 -0.2442
  666TIP3    H123557   4.868   2.195   1.498  1.2742  0.2500  0.8278
  666TIP3    H223558   4.860   2.092   1.387 -0.6344 -0.9744  2.0366
  667TIP3   OH223559   2.306   4.320   8.840 -0.2710 -0.3291 -0.4195
  667TIP3    H123560   2.282   4.400   8.794  2.5782  0.6131 -0.5039
  667TIP3    H223561   2.226   4.292   8.883 -1.5325  2.2318 -0.8989
  668TIP3   OH223562   4.587   0.400   0.041 -0.3818  0.1411 -0.1177
  668TIP3    H123563   4.522   0.432   0.103 -2.0439  1.5072 -2.4269
  668TIP3    H223564   4.546   0.324   0.000 -0.5686  0.9836 -1.5606
  669TIP3   OH223565   0.221   0.580   2.088 -0.4825  0.0996 -0.8369
  669TIP3    H123566   0.314   0.559   2.084 -0.1976  1.2477 -0.3512
  669TIP3    H223567   0.210   0.627   2.170 -0.9653  2.4908 -2.1984
  670TIP3   OH223568   2.289   0.049   8.226  0.1108 -0.1734  0.1745
  670TIP3    H123569   2.334   0.039   8.142 -1.0627 -1.2353 -0.3657
  670TIP3    H223570   2.358   0.068   8.289  1.1724 -0.6486 -0.8197
  671TIP3   OH223571   0.150   6.115   8.158 -0.1306 -0.1924 -0.2328
  671TIP3    H123572   0.085   6.090   8.091 -0.2280 -1.0622  0.1721
  671TIP3    H223573   0.104   6.179   8.212 -0.0866  0.4439 -0.9233
  672TIP3   OH223574   3.537   1.169   1.323  0.6647  0.1397 -0.1812
  672TIP3    H123575   3.488   1.128   1.393 -0.2265  2.7229  0.8371
  672TIP3    H223576   3.629   1.149   1.342  0.3283 -0.4794  0.8245
  673TIP3   OH223577   1.411   1.768   0.625  0.1057  0.0108  0.4242
  673TIP3    H123578   1.335   1.749   0.680 -1.2772 -1.1349 -1.7638
  673TIP3    H223579   1.401   1.860   0.601  0.6334  0.4786  1.8617
  674TIP3   OH223580   0.431   0.028   2.523  0.4806  0.1351  0.5455
  674TIP3    H123581   0.414   0.122   2.529  0.4147  0.1479  0.1536
  674TIP3    H223582   0.455   0.013   2.432 -2.0530 -0.6451 -0.0673
  675TIP3   OH223583   0.118   3.952   0.169 -0.4651  0.3163  0.3163
  675TIP3    H123584   0.167   3.886   0.218 -0.6504 -0.6159 -0.7171
  675TIP3    H223585   0.060   3.993   0.234  1.7072  1.5364  1.6049
  676TIP3   OH223586   0.160   3.741   0.849 -0.1620  0.6085 -0.4909
  676TIP3    H123587   0.166   3.645   0.843  1.6598  0.5389  1.4613
  676TIP3    H223588   0.069   3.758   0.872 -0.4149 -0.6866 -0.4437
  677TIP3   OH223589   2.136   4.649   1.437  0.4580 -0.0588  0.2144
  677TIP3    H123590   2.228   4.660   1.460 -0.1480  4.0501  1.6066
  677TIP3    H223591   2.136   4.613   1.349  3.1569 -4.6188  1.7126
  678TIP3   OH223592   1.210   1.691   0.790 -0.6398 -0.0683  0.0437
  678TIP3    H123593   1.129   1.681   0.741 -0.3150  0.0300 -0.5224
  678TIP3    H223594   1.182   1.700   0.881 -1.3189  0.8537 -0.2420
  679TIP3   OH223595   2.165   6.198   2.220 -0.0329  0.3703  0.1637
  679TIP3    H123596   2.131   6.139   2.287  1.8131 -0.2686  0.6002
  679TIP3    H223597   2.092   6.210   2.159 -1.5222  0.3655  1.8547
  680TIP3   OH223598   2.641   3.093   6.901  0.5688 -0.1171  0.3511
  680TIP3    H123599   2.553   3.078   6.935  1.6007 -1.2902  2.6887
  680TIP3    H223600   2.668   3.008   6.864  1.8780 -0.7775  2.6275
  681TIP3   OH223601   1.385   2.048   7.216 -0.1479 -0.1807 -0.3884
  681TIP3    H123602   1.479   2.057   7.200 -0.1434  4.2959  0.7937
  681TIP3    H223603   1.344   2.085   7.138 -0.7923  0.7711  0.3803
  682TIP3   OH223604   2.161   4.522   0.873 -0.6565  0.1951  0.4429
  682TIP3    H123605   2.099   4.451   0.856 -0.1131 -0.1986  0.0821
  682TIP3    H223606   2.238   4.499   0.821 -0.7389  1.4127 -0.2418
  683TIP3   OH223607   2.093   2.948   0.158 -0.2013  0.6812 -0.0343
  683TIP3    H123608   2.157   2.879   0.176  1.2652  2.3878  1.8270
  683TIP3    H223609   2.075   2.940   0.065  2.5985 -0.0422 -0.6077
  684TIP3   OH223610   4.182   6.146   7.720 -0.4549  0.1642  0.3596
  684TIP3    H123611   4.146   6.059   7.703  1.3851 -0.5726  0.0434
  684TIP3    H223612   4.122   6.205   7.675 -0.7742 -1.0647 -0.9104
  685TIP3   OH223613   1.282   2.543   8.282 -0.4886 -0.5370 -0.2552
  685TIP3    H123614   1.187   2.547   8.270 -0.5247  0.3667  0.2880
  685TIP3    H223615   1.309   2.634   8.290  0.2119 -0.8522  1.1734
  686TIP3   OH223616   6.333   4.961   0.967  0.2541  0.1633 -0.5573
  686TIP3    H123617   6.413   4.995   1.007  0.0873 -1.1119  0.9648
  686TIP3    H223618   6.361   4.881   0.922 -0.4336 -1.5540  1.8593
  687TIP3   OH223619   3.971   0.454   2.156 -0.3232  0.3993  0.8098
  687TIP3    H123620   3.880   0.475   2.177 -0.4641 -0.1787  0.7772
  687TIP3    H223621   3.985   0.366   2.191 -0.5400 -0.5697 -1.3917
  688TIP3   OH223622   1.085   1.840   1.980 -0.0643  0.4945 -0.2170
  688TIP3    H123623   1.039   1.881   2.053 -1.1424  0.4634 -0.8513
  688TIP3    H223624   1.161   1.798   2.019 -1.3576 -0.7087  1.1126
  689TIP3   OH223625   2.644   4.790   7.285  0.6115  0.2703 -0.1272
  689TIP3    H123626   2.658   4.879   7.252  0.5760  0.7903  1.1881
  689TIP3    H223627   2.550   4.785   7.301  0.7786  0.5074  1.0986
  690TIP3   OH223628   0.253   2.896   8.719 -0.3603 -0.5860  0.2726
  690TIP3    H123629   0.158   2.890   8.733 -0.6641  0.9990 -0.9009
  690TIP3    H223630   0.291   2.870   8.803 -1.9161  1.2660  1.6404
  691TIP3   OH223631   4.318   5.718   7.753 -0.1595 -0.2208  0.1078
  691TIP3    H123632   4.317   5.629   7.789  1.3576 -0.6781 -0.9144
  691TIP3    H223633   4.294   5.707   7.661 -1.3474  0.6214  0.2934
  692TIP3   OH223634   4.262   5.997   1.097  0.2403  0.0634  0.5838
  692TIP3    H123635   4.267   5.958   1.184  1.5668  0.3567  0.6557
  692TIP3    H223636   4.270   6.091   1.113 -0.2235  0.1696  0.1992
  693TIP3   OH223637   6.561   4.980   1.510  0.6494 -0.0799 -0.0634
  693TIP3    H123638   6.585   4.887   1.519 -2.3377 -0.7940  1.9511
  693TIP3    H223639   6.637   5.027   1.544  1.7726 -1.8290  0.0095
  694TIP3   OH223640   0.722   1.912   1.125  0.4164 -0.0092  0.4283
  694TIP3    H123641   0.774   1.886   1.201  0.2780 -0.2140  0.4555
  694TIP3    H223642   0.718   1.833   1.071  0.3507  0.0801  0.3021
  695TIP3   OH223643   3.597   1.407   1.459 -0.2836 -0.7556  0.0549
  695TIP3    H123644   3.568   1.346   1.392  1.2243 -0.7194 -0.6632
  695TIP3    H223645   3.605   1.353   1.538  0.5565 -1.3931 -0.4524
  696TIP3   OH223646   1.696   5.457   1.126  0.8186 -0.2491  0.4015
  696TIP3    H123647   1.679   5.527   1.063  1.7879 -0.3554  0.0017
  696TIP3    H223648   1.623   5.397   1.116  0.6738  0.0273 -0.2246
  697TIP3   OH223649   5.116   0.529   0.877  0.5502 -0.3290 -0.0168
  697TIP3    H123650   5.186   0.564   0.820 -0.4736  1.7900 -0.0552
  697TIP3    H223651   5.059   0.480   0.817  0.9965 -0.5307 -0.2886
  698TIP3   OH223652   3.451   4.008   0.738 -0.1859  0.4263  0.5201
  698TIP3    H123653   3.390   4.074   0.705 -2.0752 -1.5574 -0.1928
  698TIP3    H223654   3.505   3.985   0.662  0.1860  0.8507  0.6563
  699TIP3   OH223655   4.072   3.880   7.777  0.4089 -0.4138 -0.4994
  699TIP3    H123656   4.126   3.958   7.793 -1.1572  0.2414  2.2450
  699TIP3    H223657   4.009   3.908   7.711 -0.5551  0.9354  0.9278
  700TIP3   OH223658   6.649   3.878   8.467  0.6043  0.3336  0.8872
  700TIP3    H123659   6.708   3.901   8.396 -1.2908  0.4534 -0.7255
  700TIP3    H223660   6.706   3.843   8.536  2.4539 -0.1795 -0.8325
  701TIP3   OH223661   1.664   2.861   0.891  0.0063  0.4430 -0.1379
  701TIP3    H123662   1.713   2.792   0.846 -2.6086 -0.5831 -1.6313
  701TIP3    H223663   1.721   2.937   0.888  1.7673 -0.8490 -1.1742
  702TIP3   OH223664   6.393   4.318   0.466  0.0718 -0.5211 -0.6713
  702TIP3    H123665   6.416   4.233   0.505 -0.8475  0.0340  1.1718
  702TIP3    H223666   6.475   4.368   0.470  0.0560 -0.5508  0.3920
  703TIP3   OH223667   6.751   4.539   0.216  0.3797  0.1339 -0.2667
  703TIP3    H123668   6.744   4.549   0.121 -0.8153 -0.4287 -0.2602
  703TIP3    H223669   6.766   4.445   0.229 -0.7854 -0.0110  0.1402
  704TIP3   OH223670   4.732   0.605   1.863 -0.0803 -0.1746 -0.7633
  704TIP3    H123671   4.757   0.582   1.953 -0.0907  1.0249 -0.4309
  704TIP3    H223672   4.815   0.615   1.817 -0.0199  0.7856 -0.4606
  705TIP3   OH223673   2.188   3.256   0.956  0.4446  0.0629  0.1268
  705TIP3    H123674   2.235   3.325   0.909 -0.4770  1.1241  0.6904
  705TIP3    H223675   2.096   3.282   0.950  0.0691 -1.1702  0.3048
  706TIP3   OH223676   5.101   5.982   7.495 -0.7783  0.0530  0.0495
  706TIP3    H123677   5.027   6.040   7.476 -0.3961  0.5833  0.1591
  706TIP3    H223678   5.177   6.040   7.494 -0.1490 -0.7377 -1.6216
  707TIP3   OH223679   2.871   5.562   0.203  0.0612  0.1227  0.0724
  707TIP3    H123680   2.854   5.634   0.263 -0.9329 -1.2551  1.5323
  707TIP3    H223681   2.800   5.500   0.219  0.6631 -1.0208 -1.4073
  708TIP3   OH223682   5.768   2.771   7.627  0.6259  0.1272  0.2527
  708TIP3    H123683   5.734   2.750   7.714  0.5994 -0.4734  0.0972
  708TIP3    H223684   5.834   2.704   7.611 -0.7126 -0.9382 -1.0068
  709TIP3   OH223685   4.710   1.764   2.737  0.0736 -0.6143  0.0934
  709TIP3    H123686   4.720   1.760   2.832  0.5003  1.4933  0.1818
  709TIP3    H223687   4.616   1.773   2.723  0.1394  1.0788  0.4738
  710TIP3   OH223688   3.995   2.836   8.481 -0.0018 -0.4229  0.0262
  710TIP3    H123689   4.079   2.831   8.527 -0.5623  0.1257  1.1627
  710TIP3    H223690   4.019   2.846   8.389  1.3677  4.3079  0.6194
  711TIP3   OH223691   0.798   4.779   8.780  0.1566  0.5651  0.3501
  711TIP3    H123692   0.814   4.863   8.737  1.2293  0.7081  0.9784
  711TIP3    H223693   0.810   4.798   8.873 -1.7427  0.1909  0.7248
  712TIP3   OH223694   6.116   1.943   1.140  0.0764 -0.1517 -0.0503
  712TIP3    H123695   6.029   1.906   1.146 -0.2621  0.5986 -0.2097
  712TIP3    H223696   6.133   1.980   1.227  0.4959 -0.8449  0.1720
  713TIP3   OH223697   3.492   0.585   1.368 -0.2667  0.6685 -0.1224
  713TIP3    H123698   3.482   0.491   1.385 -2.1662  0.7912 -0.3494
  713TIP3    H223699   3.521   0.590   1.277 -1.2621  0.3106 -0.4731
  714TIP3   OH223700   6.318   0.324   0.838 -0.4837 -0.1365 -0.1169
  714TIP3    H123701   6.379   0.332   0.911 -0.1760  0.8009 -0.4674
  714TIP3    H223702   6.286   0.234   0.843 -1.3244  0.2106  1.8541
  715TIP3   OH223703   2.486   2.235   8.545 -0.5124  0.2545 -0.0401
  715TIP3    H123704   2.429   2.312   8.535  0.1933  0.7424 -0.4033
  715TIP3    H223705   2.547   2.259   8.615 -0.2699  0.0347 -0.1759
  716TIP3   OH223706   2.204   4.917   1.169 -0.3180 -0.6415 -0.3038
  716TIP3    H123707   2.151   4.954   1.098  1.3441  2.2196 -0.2393
  716TIP3    H223708   2.169   4.957   1.249  0.7506 -0.1457 -0.0681
  717TIP3   OH223709   2.044   2.404   1.477 -0.0090 -0.2207 -0.2546
  717TIP3    H123710   2.018   2.384   1.567 -1.6436  1.2845 -0.3366
  717TIP3    H223711   2.073   2.320   1.441 -0.7134 -1.1333  1.2249
  718TIP3   OH223712   2.357   2.975   8.100  0.6288  0.7781 -0.2816
  718TIP3    H123713   2.444   3.006   8.124  0.3167  0.6594  1.0752
  718TIP3    H223714   2.301   3.053   8.106  0.3625  0.5421  0.3623
  719TIP3   OH223715   0.641   5.880   2.937 -0.3189 -0.3127  0.5648
  719TIP3    H123716   0.704   5.917   3.000  1.7595 -0.7519 -1.1549
  719TIP3    H223717   0.694   5.852   2.863 -2.5420 -1.0238 -0.8661
  720TIP3   OH223718   4.081   5.161   6.909 -0.4963 -0.2943 -0.2603
  720TIP3    H123719   4.028   5.082   6.898 -1.5414  0.4800 -1.1123
  720TIP3    H223720   4.152   5.151   6.845 -1.3621  0.0101 -1.3111
  721TIP3   OH223721   1.660   4.589   1.890  0.1450 -0.1044  0.3264
  721TIP3    H123722   1.706   4.672   1.901  2.0739 -1.0152 -0.4115
  721TIP3    H223723   1.718   4.524   1.931 -0.5499 -1.2909 -0.5015
  722TIP3   OH223724   0.569   4.679   0.935 -0.0416  0.3331  0.0451
  722TIP3    H123725   0.525   4.606   0.891  0.2369 -0.5335  1.1371
  722TIP3    H223726   0.499   4.724   0.983 -0.3123  1.1608 -1.1039
  723TIP3   OH223727   3.196   2.596   7.800  0.0740 -0.2529 -0.2207
  723TIP3    H123728   3.182   2.533   7.730 -0.5187 -1.5900  1.0483
  723TIP3    H223729   3.146   2.673   7.773 -0.0507 -0.6914 -1.3048
  724TIP3   OH223730   1.033   0.706   2.076  0.0939 -0.1099 -0.5487
  724TIP3    H123731   1.126   0.712   2.056  0.6279 -2.2992  0.9213
  724TIP3    H223732   0.998   0.793   2.055  2.3003  0.5430 -1.8128
  725TIP3   OH223733   0.943   4.640   7.307 -0.1089 -0.0840 -0.2289
  725TIP3    H123734   1.033   4.610   7.321 -0.4289 -1.0341 -0.1575
  725TIP3    H223735   0.932   4.641   7.212 -0.0692 -0.1093 -0.2340
  726TIP3   OH223736   0.570   3.902   1.212 -0.4491 -0.3048 -0.0180
  726TIP3    H123737   0.492   3.903   1.268 -0.8950 -0.8334 -0.6165
  726TIP3    H223738   0.643   3.904   1.274 -0.9130  1.2155  0.5274
  727TIP3   OH223739   6.456   5.338   7.410  0.0082 -0.3202  0.2078
  727TIP3    H123740   6.449   5.353   7.504  2.4111 -0.4378  0.4632
  727TIP3    H223741   6.372   5.298   7.385 -0.6024 -0.4305  2.3056
  728TIP3   OH223742   4.261   2.862   0.376  0.0213  0.2380  0.2450
  728TIP3    H123743   4.275   2.939   0.432  0.2244  1.6657 -1.6793
  728TIP3    H223744   4.336   2.805   0.396  0.0871  0.6919  1.3971
  729TIP3   OH223745   2.360   2.085   0.325  0.4980 -0.7228 -0.0032
  729TIP3    H123746   2.442   2.118   0.362  1.3895 -1.7526 -1.0012
  729TIP3    H223747   2.318   2.162   0.286  0.3244  0.0652  1.6483
  730TIP3   OH223748   6.626   0.202   0.304 -0.0995  0.0423 -0.1676
  730TIP3    H123749   6.558   0.259   0.268 -0.1201  1.4260  1.8770
  730TIP3    H223750   6.586   0.164   0.382  0.4846 -1.5435 -0.6055
  731TIP3   OH223751   0.008   4.485   7.776 -0.5141  0.1416  0.0284
  731TIP3    H123752  -0.048   4.439   7.714  1.0901  1.6077 -2.7417
  731TIP3    H223753  -0.049   4.551   7.815 -1.2893  0.0947 -0.9730
  732TIP3   OH223754   6.154   1.624   0.900 -0.9836  0.1778  0.1011
  732TIP3    H123755   6.116   1.597   0.816  1.9075 -0.0762 -1.2249
  732TIP3    H223756   6.170   1.718   0.888  1.5214 -0.2786 -0.5895
  733TIP3   OH223757   6.751   4.600   0.766 -0.0831 -0.1395 -0.1081
  733TIP3    H123758   6.828   4.585   0.822 -0.1797  0.2713  0.1452
  733TIP3    H223759   6.750   4.695   0.753 -1.8615  0.1869  1.8218
  734TIP3   OH223760   5.742   2.382   0.212 -1.0441 -0.1117 -0.2151
  734TIP3    H123761   5.763   2.409   0.301  0.0944  0.5888 -0.6777
  734TIP3    H223762   5.692   2.455   0.175  0.6866  0.7466 -0.9560
  735TIP3   OH223763   0.250   3.138   7.216  0.4440 -0.0975 -0.3736
  735TIP3    H123764   0.156   3.140   7.200  0.0843 -1.3314  1.2853
  735TIP3    H223765   0.288   3.113   7.132 -0.7661 -0.1298 -0.9284
  736TIP3   OH223766   5.426   6.583   2.339 -0.0030 -0.5494  0.1125
  736TIP3    H123767   5.464   6.667   2.364 -2.9790  0.6026  1.1993
  736TIP3    H223768   5.432   6.529   2.418 -1.1925 -0.1071  0.5237
  737TIP3   OH223769   6.341   0.629   7.989 -0.3972  0.4154  0.6240
  737TIP3    H123770   6.283   0.668   7.923 -0.1426 -0.8853 -0.4081
  737TIP3    H223771   6.388   0.704   8.026  0.2770  1.1113 -1.4697
  738TIP3   OH223772   1.934   5.900   1.992 -0.4590 -0.4336 -0.0407
  738TIP3    H123773   1.923   5.846   1.913  0.3720 -1.1805  0.3330
  738TIP3    H223774   1.980   5.843   2.053 -0.0462  0.5281  0.5696
  739TIP3   OH223775   1.226   1.340   0.450  0.0680 -0.4391  0.0728
  739TIP3    H123776   1.278   1.277   0.500 -0.6558 -0.8772  0.2788
  739TIP3    H223777   1.235   1.311   0.359 -0.0957 -0.7146  0.1446
  740TIP3   OH223778   0.971   6.060   7.751  0.0086 -0.6255 -0.5446
  740TIP3    H123779   0.983   5.968   7.726 -1.4814 -1.2512  0.8855
  740TIP3    H223780   0.986   6.062   7.845  0.6043  0.7393 -0.6400
  741TIP3   OH223781   4.196   0.377   6.992 -0.1458 -0.3799  0.2233
  741TIP3    H123782   4.119   0.351   7.043  0.1695  0.8543  1.4064
  741TIP3    H223783   4.267   0.324   7.028  0.1608  0.7832  1.4507
  742TIP3   OH223784   5.658   1.665   7.073  0.4846  0.3692  0.0657
  742TIP3    H123785   5.681   1.757   7.082 -1.7903  0.8562  1.4828
  742TIP3    H223786   5.563   1.664   7.061 -0.0303 -1.8668  3.1351
  743TIP3   OH223787   2.894   5.959   1.925 -0.5508 -0.0373 -0.0778
  743TIP3    H123788   2.842   5.880   1.915  0.5795 -1.1396  1.9559
  743TIP3    H223789   2.981   5.927   1.950  0.0158  1.8223  0.4909
  744TIP3   OH223790   0.461   5.789   0.260 -0.5944 -0.3818 -0.5981
  744TIP3    H123791   0.382   5.761   0.306 -1.7902 -1.5383 -3.1333
  744TIP3    H223792   0.429   5.848   0.191  0.9436  0.2439 -0.8246
  745TIP3   OH223793   3.824   5.633   0.977 -0.5843 -0.0733 -0.0531
  745TIP3    H123794   3.877   5.559   0.949  0.0749  0.8878 -1.4726
  745TIP3    H223795   3.770   5.655   0.901 -0.0820  1.4795 -0.0034
  746TIP3   OH223796   0.286   5.993   0.420  0.1650  0.2051 -0.1522
  746TIP3    H123797   0.227   6.061   0.387 -0.6952  0.6711  2.1158
  746TIP3    H223798   0.372   6.034   0.425  0.1371  0.3707 -0.9844
  747TIP3   OH223799   2.347   2.663   1.276 -0.0137 -0.0463  0.1759
  747TIP3    H123800   2.313   2.735   1.224  0.2937  0.9792  1.3380
  747TIP3    H223801   2.271   2.630   1.325  0.0630  0.2582  0.5062
  748TIP3   OH223802   6.094   5.361   8.833 -0.2764  0.3293 -0.2809
  748TIP3    H123803   6.110   5.394   8.921 -0.3929 -1.7872  0.5811
  748TIP3    H223804   5.999   5.355   8.826 -0.2305 -1.4937  0.2679
  749TIP3   OH223805   1.011   3.758   2.183 -0.2349 -0.3501  0.2257
  749TIP3    H123806   1.041   3.720   2.266 -2.3172 -2.2656  0.2199
  749TIP3    H223807   1.055   3.706   2.115  2.1225  1.7591  0.0171
  750TIP3   OH223808   0.495   2.348   7.065  0.0380  0.1126  0.2092
  750TIP3    H123809   0.428   2.412   7.038 -0.5781  0.2175  1.9008
  750TIP3    H223810   0.561   2.353   6.995 -0.8327  1.3336 -0.5808
  751TIP3   OH223811   0.730   5.158   7.432  0.9763  0.6427 -0.5479
  751TIP3    H123812   0.700   5.164   7.342  0.2854  0.4190 -0.3393
  751TIP3    H223813   0.664   5.105   7.476  2.1976 -0.7126 -0.2921
  752TIP3   OH223814   5.912   6.433   1.263  0.0996  0.9038  0.0466
  752TIP3    H123815   5.915   6.338   1.252  1.4498  0.9946 -0.6147
  752TIP3    H223816   5.867   6.446   1.346 -0.5776 -0.2891 -0.1074
  753TIP3   OH223817   1.664   6.310   0.682 -0.6706 -0.5660  0.3130
  753TIP3    H123818   1.579   6.311   0.726 -0.6359  1.6362  0.4234
  753TIP3    H223819   1.722   6.359   0.740  0.1340 -0.1863 -0.7829
  754TIP3   OH223820   1.739   1.837   7.520 -0.0116 -0.3476  0.1485
  754TIP3    H123821   1.782   1.789   7.591 -0.1251  0.9496  1.1336
  754TIP3    H223822   1.648   1.845   7.548 -0.5272 -1.5204 -1.0898
  755TIP3   OH223823   0.069   1.585   7.177 -0.5465  0.1015 -0.1393
  755TIP3    H123824   0.085   1.634   7.257  0.6349 -0.5395  0.0361
  755TIP3    H223825   0.154   1.547   7.154 -0.9046  0.1163 -1.5912
  756TIP3   OH223826   1.136   0.026   2.479  0.2013  0.4209 -0.2611
  756TIP3    H123827   1.114  -0.056   2.434  3.7556 -0.7269 -0.2026
  756TIP3    H223828   1.131   0.093   2.411  0.8660 -0.4861 -1.2245
  757TIP3   OH223829   4.938   4.890   7.729 -0.0999 -0.6172  0.3107
  757TIP3    H123830   4.844   4.874   7.728 -0.1099 -0.5480  0.1387
  757TIP3    H223831   4.976   4.806   7.756 -0.0903 -1.2689 -1.5569
  758TIP3   OH223832   2.745   2.989   1.096 -0.3801 -0.0422 -0.0103
  758TIP3    H123833   2.663   2.987   1.144 -1.0581 -1.4893 -1.1308
  758TIP3    H223834   2.727   3.043   1.019  0.3612  1.3166  0.7207
  759TIP3   OH223835   0.196   6.706   7.779  0.7496  0.6695  0.2415
  759TIP3    H123836   0.218   6.617   7.807 -0.8036 -0.9931 -3.1574
  759TIP3    H223837   0.121   6.730   7.833 -0.0982 -1.0031 -0.1252
  760TIP3   OH223838   5.887   3.955   7.673  0.1355 -0.0741  0.1513
  760TIP3    H123839   5.919   3.978   7.586 -1.2501 -2.2104 -1.0160
  760TIP3    H223840   5.933   4.014   7.733  2.0036  0.6613 -1.9019
  761TIP3   OH223841   3.539   2.828   0.165 -0.3957 -0.2535  0.2703
  761TIP3    H123842   3.571   2.884   0.236 -1.5326 -0.4950  0.9942
  761TIP3    H223843   3.606   2.835   0.097 -0.2864  1.6324  0.5256
  762TIP3   OH223844   2.089   1.705   2.013 -0.9461  0.0622 -0.1577
  762TIP3    H123845   2.137   1.777   1.973 -1.5612  0.0190 -1.0011
  762TIP3    H223846   2.156   1.653   2.058 -0.1383 -0.2132 -1.6144
  763TIP3   OH223847   6.675   4.718   7.855  0.1950 -0.2889  0.4485
  763TIP3    H123848   6.700   4.775   7.928 -0.1773 -1.6013  1.6390
  763TIP3    H223849   6.580   4.723   7.852  0.2824  1.9153 -1.7892
  764TIP3   OH223850   1.033   4.107   7.042  0.4763  0.3176 -0.1489
  764TIP3    H123851   0.960   4.067   6.995 -0.1578 -0.0817  1.1289
  764TIP3    H223852   1.102   4.041   7.038  0.5508  0.4243 -0.7888
  765TIP3   OH223853   5.674   4.104   0.621 -0.2957  0.2738 -0.0160
  765TIP3    H123854   5.645   4.034   0.562  0.5752 -0.2523  0.1657
  765TIP3    H223855   5.698   4.060   0.702 -2.2114  1.0711  1.0504
  766TIP3   OH223856   3.904   4.089   8.428 -0.0821 -0.0029 -0.6013
  766TIP3    H123857   3.891   4.011   8.373  0.3991 -1.1238  0.8038
  766TIP3    H223858   3.928   4.054   8.514  1.6464  1.7218 -0.3066
  767TIP3   OH223859   6.099   6.710   0.191  0.1835  0.6020 -0.2279
  767TIP3    H123860   6.110   6.800   0.159  0.1718  0.4853 -0.5639
  767TIP3    H223861   6.113   6.655   0.114 -2.2755  0.4041 -0.5952
  768TIP3   OH223862   3.148   6.533   8.193  0.2983 -0.1470 -0.4022
  768TIP3    H123863   3.118   6.555   8.105 -1.1657 -1.7051 -0.3437
  768TIP3    H223864   3.236   6.497   8.180  0.2110 -0.0935 -1.1904
  769TIP3   OH223865   6.028   2.624   1.516 -0.3183 -0.0225  0.4487
  769TIP3    H123866   6.019   2.640   1.421  1.3497 -0.7704  0.1389
  769TIP3    H223867   6.017   2.530   1.526  1.1927 -0.1906  0.7535
  770TIP3   OH223868   0.714   3.190   0.841  0.2203  0.2787  0.0295
  770TIP3    H123869   0.698   3.096   0.832  0.6490  0.2995 -1.0983
  770TIP3    H223870   0.634   3.231   0.807  0.1009  0.3372  0.3694
  771TIP3   OH223871   3.672   4.270   8.311  0.3637 -0.2226  0.5164
  771TIP3    H123872   3.719   4.345   8.346 -0.2351 -0.7744  2.6824
  771TIP3    H223873   3.719   4.194   8.346 -0.3303 -0.8071  0.2071
  772TIP3   OH223874   2.153   5.448   2.334  0.6460 -0.0937 -0.0543
  772TIP3    H123875   2.223   5.496   2.379  1.2850 -0.1649 -0.9543
  772TIP3    H223876   2.198   5.378   2.287 -0.0491 -0.2318 -0.5321
  773TIP3   OH223877   2.470   4.670   0.196 -0.2704  0.7890  0.7276
  773TIP3    H123878   2.557   4.634   0.178 -0.2795  0.2668  1.6597
  773TIP3    H223879   2.464   4.672   0.292 -1.0645  1.3683  0.6760
  774TIP3   OH223880   3.891   5.934   2.358  0.2157  0.3775  0.1437
  774TIP3    H123881   3.878   5.993   2.432 -0.5108  0.7056 -0.2399
  774TIP3    H223882   3.932   5.856   2.397 -0.1869  0.5327  0.8907
  775TIP3   OH223883   4.298   3.256   8.246  0.0811 -0.1805 -0.3340
  775TIP3    H123884   4.260   3.268   8.158  0.9690 -0.1049 -0.7159
  775TIP3    H223885   4.222   3.243   8.303 -0.6851  2.2149 -0.6977
  776TIP3   OH223886   0.873   4.017   8.399  0.0680 -0.5095 -0.2144
  776TIP3    H123887   0.905   3.961   8.470 -1.1635  1.0687  1.6828
  776TIP3    H223888   0.933   4.092   8.399 -1.6949  1.0208  1.3729
  777TIP3   OH223889   3.590   1.580   7.802  0.3705  0.1412  0.0848
  777TIP3    H123890   3.634   1.590   7.718 -0.0201 -0.9927 -0.2717
  777TIP3    H223891   3.654   1.610   7.867  1.1252 -0.1374 -0.5262
  778TIP3   OH223892   1.277   5.084   8.040  0.0506  0.1597  0.4903
  778TIP3    H123893   1.192   5.115   8.008  0.8444  1.1978 -0.7328
  778TIP3    H223894   1.309   5.154   8.097  0.4092  0.1268  0.3370
  779TIP3   OH223895   4.806   0.631   8.732  0.5189  0.1635  0.0216
  779TIP3    H123896   4.846   0.706   8.776  1.0359 -0.8457  1.3283
  779TIP3    H223897   4.712   0.648   8.738  0.6305  0.7329  0.2734
  780TIP3   OH223898   5.018   4.880   1.270  0.5177 -0.1517 -0.3693
  780TIP3    H123899   5.056   4.795   1.246  0.3893 -0.5652  0.8001
  780TIP3    H223900   5.070   4.908   1.345  0.6198  0.8645 -0.8134
  781TIP3   OH223901   4.216   5.035   1.007  0.0888 -0.5674 -0.5305
  781TIP3    H123902   4.170   4.968   1.058  0.9321 -1.1990 -0.5856
  781TIP3    H223903   4.148   5.071   0.949  0.0340 -2.7778 -1.9294
  782TIP3   OH223904   5.869   2.648   8.874 -0.1421 -0.1566  0.3136
  782TIP3    H123905   5.861   2.741   8.893 -1.5871  0.0076 -1.0181
  782TIP3    H223906   5.779   2.616   8.868  0.3291 -1.5961  0.4785
  783TIP3   OH223907   6.593   0.740   0.043 -0.2083 -0.3673 -0.3974
  783TIP3    H123908   6.643   0.817   0.071  1.0419 -0.9267 -0.9960
  783TIP3    H223909   6.565   0.699   0.124  0.0669  0.1087 -0.0559
  784TIP3   OH223910   1.592   3.711   2.185 -0.2180  0.0460 -0.5220
  784TIP3    H123911   1.595   3.674   2.273 -1.0994 -0.8824 -0.8693
  784TIP3    H223912   1.511   3.761   2.183 -1.4976 -1.9481 -1.5523
  785TIP3   OH223913   2.622   3.062   0.842 -0.2268 -0.0326  0.6135
  785TIP3    H123914   2.609   2.976   0.882  0.6282  0.4195  1.9185
  785TIP3    H223915   2.582   3.054   0.755 -0.2535 -1.7091  0.7449
  786TIP3   OH223916   0.707   2.815   0.899  0.3017  0.4589  0.3927
  786TIP3    H123917   0.694   2.778   0.812  1.1875 -0.4837  0.6388
  786TIP3    H223918   0.741   2.742   0.951 -0.3757  0.9582  1.5739
  787TIP3   OH223919   5.452   4.412   2.781 -0.1585 -0.4771 -0.3005
  787TIP3    H123920   5.516   4.342   2.764 -0.4923 -0.3547 -2.3124
  787TIP3    H223921   5.370   4.379   2.744 -0.4468  0.7348 -0.7977
  788TIP3   OH223922   6.491   3.961   1.608 -0.3395  0.5443  0.3461
  788TIP3    H123923   6.417   3.901   1.597 -0.1672  0.0437  1.6673
  788TIP3    H223924   6.560   3.907   1.645  0.0368  1.4151  0.9594
  789TIP3   OH223925   3.779   2.905   1.037  0.4805 -0.0114 -0.2790
  789TIP3    H123926   3.767   2.992   1.076  0.1200 -0.5643  0.9209
  789TIP3    H223927   3.857   2.871   1.079 -0.1818 -0.8094  0.3361
  790TIP3   OH223928   0.541   5.647   2.141  0.4770  0.0495  0.3237
  790TIP3    H123929   0.578   5.564   2.170 -0.0088 -0.5918 -0.8223
  790TIP3    H223930   0.543   5.703   2.219  0.1604 -1.2630  1.3094
  791TIP3   OH223931   2.145   0.791   8.830  0.0780 -0.4198 -0.4420
  791TIP3    H123932   2.188   0.875   8.814 -0.2510 -0.1532  0.0356
  791TIP3    H223933   2.105   0.768   8.746  1.8082 -1.0745 -1.1218
  792TIP3   OH223934   1.051   4.630   8.836 -0.4966 -0.2932 -0.0675
  792TIP3    H123935   1.034   4.566   8.906  0.5628  1.6091  2.0425
  792TIP3    H223936   0.965   4.668   8.818 -0.4654  0.9450  2.0601
  793TIP3   OH223937   6.382   6.535   7.761 -0.3970  0.3136 -0.5518
  793TIP3    H123938   6.342   6.569   7.681  0.4477  1.4612 -0.5160
  793TIP3    H223939   6.331   6.457   7.783 -2.4695  1.5744 -0.6298
  794TIP3   OH223940   2.756   4.400   7.581  0.4891 -0.5127 -0.1621
  794TIP3    H123941   2.783   4.466   7.518  1.8076 -0.5744  0.2973
  794TIP3    H223942   2.685   4.441   7.630  0.7254  0.2435 -0.4361
  795TIP3   OH223943   4.381   1.862   8.691  0.1038  0.3371  0.1939
  795TIP3    H123944   4.437   1.916   8.635  2.1725 -1.0563  0.8272
  795TIP3    H223945   4.409   1.772   8.674 -0.7149 -0.2778  1.8471
  796TIP3   OH223946   3.165   1.542   8.035  0.0683 -0.3583  0.3315
  796TIP3    H123947   3.132   1.539   7.945  1.2148  0.6878 -0.1494
  796TIP3    H223948   3.143   1.631   8.065  0.8517 -0.2596  0.6218
  797TIP3   OH223949   5.475   6.132   8.462  0.2095 -0.1303  0.1164
  797TIP3    H123950   5.507   6.208   8.414  0.5025 -0.5025 -0.2788
  797TIP3    H223951   5.379   6.138   8.455  0.2531 -0.3694 -0.8094
  798TIP3   OH223952   5.183   0.149   8.212 -0.5698 -0.9175  0.1519
  798TIP3    H123953   5.235   0.216   8.166 -1.6004 -0.2985 -0.1546
  798TIP3    H223954   5.105   0.138   8.157 -1.1067 -1.2956  0.9720
  799TIP3   OH223955   3.463   4.886   8.915  0.3296 -0.3271  0.2126
  799TIP3    H123956   3.481   4.794   8.934  1.0824 -0.8465 -2.5328
  799TIP3    H223957   3.376   4.886   8.874  0.6207  0.0543 -0.4353
  800TIP3   OH223958   5.563   5.259   2.421 -0.2873 -0.1489 -0.1197
  800TIP3    H123959   5.630   5.308   2.373  0.2609 -0.0574  0.7072
  800TIP3    H223960   5.605   5.177   2.445 -0.1417  0.2849  1.1961
  801TIP3   OH223961   1.092   4.393   7.540  0.2945  0.0185 -0.1084
  801TIP3    H123962   1.027   4.352   7.483  0.7467 -1.2905  0.2868
  801TIP3    H223963   1.137   4.456   7.484 -1.0546  0.6868 -0.4840
  802TIP3   OH223964   2.933   3.349   1.812 -0.2658  0.6391 -0.0215
  802TIP3    H123965   2.951   3.396   1.731 -0.5788  0.6525 -0.0863
  802TIP3    H223966   2.896   3.266   1.783 -0.5300  0.7097  0.1084
  803TIP3   OH223967   6.633   2.094   1.351 -0.0262 -0.2389 -0.0684
  803TIP3    H123968   6.689   2.024   1.317  1.9964  0.9813  0.6145
  803TIP3    H223969   6.688   2.142   1.412 -2.4500 -0.1402  2.2211
  804TIP3   OH223970   4.661   1.521   1.048 -0.1559  0.0235 -0.2617
  804TIP3    H123971   4.683   1.506   1.140 -1.9752  0.5391  0.2968
  804TIP3    H223972   4.708   1.601   1.025  0.3585 -0.1389  0.2052
  805TIP3   OH223973   3.034   5.006   0.735  0.6260  0.3988  0.5135
  805TIP3    H123974   3.109   5.027   0.791  0.0737 -1.2634  1.9818
  805TIP3    H223975   3.036   4.911   0.727  0.2527  0.5388 -1.7643
  806TIP3   OH223976   3.965   5.652   2.133  0.3939  0.1266  0.0117
  806TIP3    H123977   4.049   5.609   2.114  0.9070  0.4093  1.4918
  806TIP3    H223978   3.937   5.613   2.216 -2.2010 -1.7708 -1.5849
  807TIP3   OH223979   1.692   2.612   8.862  0.4326 -0.3161  1.5323
  807TIP3    H123980   1.630   2.685   8.857  0.8403  0.0182  1.2873
  807TIP3    H223981   1.677   2.562   8.782  2.1930  1.1757  0.1697
  808TIP3   OH223982   4.125   5.788   0.110 -0.3026 -0.1551  0.1391
  808TIP3    H123983   4.159   5.803   0.198  0.7256 -1.2066 -0.0560
  808TIP3    H223984   4.084   5.871   0.085  2.1704  1.2201  0.3639
  809TIP3   OH223985   0.327   4.094   1.616 -0.3437  0.1579 -0.3495
  809TIP3    H123986   0.294   4.129   1.698 -0.4897 -0.0751 -0.3071
  809TIP3    H223987   0.263   4.122   1.550 -1.1816 -1.1155 -0.1267
  810TIP3   OH223988   2.017   4.778   7.543 -0.0533 -0.1040  0.1107
  810TIP3    H123989   2.082   4.716   7.511  0.1676  0.0858  0.1868
  810TIP3    H223990   1.968   4.804   7.464 -0.2283 -0.4677  0.0998
  811TIP3   OH223991   0.233   0.069   7.018  0.6548  0.3568 -0.0035
  811TIP3    H123992   0.269   0.115   7.093 -0.6127 -0.3742  1.0863
  811TIP3    H223993   0.302   0.008   6.991  1.6275  1.5533 -0.3031
  812TIP3   OH223994   5.445   2.297   0.655 -0.3163 -0.5909 -0.3703
  812TIP3    H123995   5.407   2.365   0.711  0.6857  0.9230 -1.4504
  812TIP3    H223996   5.450   2.219   0.711 -0.5500  0.4938  1.2169
  813TIP3   OH223997   4.717   3.874   1.018  0.0754 -0.1578 -0.0902
  813TIP3    H123998   4.744   3.792   0.977  0.2910  1.3554 -3.2190
  813TIP3    H223999   4.796   3.928   1.018 -0.0415  0.0866  2.0062
  814TIP3   OH224000   5.082   2.160   1.110  0.1142 -0.1840  0.0066
  814TIP3    H124001   5.012   2.137   1.171  1.0561  0.4399  1.3849
  814TIP3    H224002   5.129   2.231   1.154  2.7102 -1.7847  0.0243
  815TIP3   OH224003   0.266   6.402   7.531 -0.2599  0.3382  0.7018
  815TIP3    H124004   0.208   6.415   7.456 -0.1080  2.6544  0.8962
  815TIP3    H224005   0.341   6.355   7.495 -1.6910 -1.6881  0.2070
  816TIP3   OH224006   0.335   3.088   7.630  0.6118  0.1602  0.2324
  816TIP3    H124007   0.260   3.107   7.574  1.0841  2.5667  0.3026
  816TIP3    H224008   0.405   3.062   7.569  0.5287  0.7037 -0.0940
  817TIP3   OH224009   0.784   6.449   0.161  0.2023  0.1699  0.2865
  817TIP3    H124010   0.874   6.438   0.192  1.1280  0.2770 -2.1340
  817TIP3    H224011   0.740   6.498   0.230  2.6076  1.9995  0.6320
  818TIP3   OH224012   3.126   1.804   8.108  0.5607 -0.0753 -0.1334
  818TIP3    H124013   3.117   1.878   8.048 -1.1568 -0.4029 -0.3346
  818TIP3    H224014   3.198   1.829   8.167  1.7329  0.6087 -1.7750
  819TIP3   OH224015   4.226   1.622   8.365  0.2298  0.2915 -0.1132
  819TIP3    H124016   4.137   1.657   8.360  0.7175  1.8184  1.1926
  819TIP3    H224017   4.267   1.650   8.283 -0.9199 -1.8648 -1.5179
  820TIP3   OH224018   5.490   6.529   0.848  0.0886 -0.0921  0.8877
  820TIP3    H124019   5.524   6.455   0.799 -0.5043 -1.5949  2.6118
  820TIP3    H224020   5.533   6.524   0.933 -1.1220  0.5875  1.5788
  821TIP3   OH224021   4.129   4.807   7.574 -0.2545 -0.2228 -0.2081
  821TIP3    H124022   4.085   4.892   7.584 -0.5408 -0.3940  0.0152
  821TIP3    H224023   4.116   4.784   7.482  1.1292  0.6779 -0.6659
  822TIP3   OH224024   0.593   1.158   7.842 -0.1627  0.0136 -0.4840
  822TIP3    H124025   0.532   1.111   7.785  1.7242 -1.2213 -1.5674
  822TIP3    H224026   0.643   1.214   7.783  0.0550  0.7053  0.3294
  823TIP3   OH224027   5.101   2.900   2.434  0.6793 -0.3452 -0.3289
  823TIP3    H124028   5.095   2.887   2.528  0.6499  0.0049 -0.2820
  823TIP3    H224029   5.180   2.953   2.421  0.7812 -0.5391 -0.5150
  824TIP3   OH224030   2.883   5.340   1.910 -0.5691  0.3560 -0.1223
  824TIP3    H124031   2.976   5.358   1.927 -1.2489  2.4314  1.9226
  824TIP3    H224032   2.858   5.402   1.842 -0.2697 -0.9434 -1.4758
  825TIP3   OH224033   4.767   0.934   8.103  0.5397 -0.2907  0.0389
  825TIP3    H124034   4.826   0.916   8.176  0.7594 -0.8404 -0.2754
  825TIP3    H224035   4.767   1.030   8.095  0.8619 -0.2567  0.4700
  826TIP3   OH224036   1.584   1.040   8.492  0.0627 -0.6040  0.3175
  826TIP3    H124037   1.622   1.067   8.408  0.6854  2.9794  1.5607
  826TIP3    H224038   1.650   1.065   8.557 -1.3463 -1.1804  2.0405
  827TIP3   OH224039   0.338   3.307   7.867  0.4012  0.0766  0.5401
  827TIP3    H124040   0.287   3.240   7.821  0.5917 -0.5552  1.2415
  827TIP3    H224041   0.282   3.385   7.865 -1.1321 -0.8980  2.2782
  828TIP3   OH224042   1.258   5.957   1.739  0.5802  0.1719  0.0540
  828TIP3    H124043   1.171   5.997   1.744  1.6525  2.6009  2.0974
  828TIP3    H224044   1.305   6.010   1.675  1.2678  0.6247  0.8985
  829TIP3   OH224045   6.148   1.059   0.733  0.0259 -0.2120 -0.0393
  829TIP3    H124046   6.142   1.095   0.645  2.2804  1.1251  0.2617
  829TIP3    H224047   6.193   0.975   0.722 -1.3404 -0.9343 -0.3066
  830TIP3   OH224048   3.003   1.824   0.290 -0.6695  0.0723  0.2168
  830TIP3    H124049   3.005   1.829   0.385  2.6551  0.9390  0.2173
  830TIP3    H224050   3.050   1.743   0.269 -1.9137 -0.4400 -0.7364
  831TIP3   OH224051   2.266   0.757   8.111  0.6543 -0.0078  0.8597
  831TIP3    H124052   2.337   0.735   8.171  0.4654 -2.4036  0.3295
  831TIP3    H224053   2.297   0.727   8.025 -1.3855 -2.3072  0.8131
  832TIP3   OH224054   4.044   4.790   2.730 -0.2054 -0.0335 -0.0232
  832TIP3    H124055   4.118   4.747   2.773  0.7883  0.5813 -1.0533
  832TIP3    H224056   4.072   4.881   2.719 -1.8170  0.6253  1.0997
  833TIP3   OH224057   5.667   6.332   0.772  0.1298  0.1179 -0.2324
  833TIP3    H124058   5.738   6.356   0.712 -0.1020  2.5029  0.3204
  833TIP3    H224059   5.711   6.307   0.853  0.3990  1.0698 -0.0662
  834TIP3   OH224060   0.665   4.096   7.874 -0.4984  0.7546  0.3436
  834TIP3    H124061   0.654   4.149   7.952  1.4402  0.4607  0.8717
  834TIP3    H224062   0.757   4.107   7.850 -0.7987  0.0450 -1.3209
  835TIP3   OH224063   5.640   1.662   8.606  0.5783  0.2508  0.2890
  835TIP3    H124064   5.685   1.701   8.681 -0.2592  2.2988 -0.2170
  835TIP3    H224065   5.552   1.698   8.608 -0.6588 -2.5278  0.3914
  836TIP3   OH224066   4.597   5.385   1.213 -0.0547 -0.0135  0.0354
  836TIP3    H124067   4.508   5.398   1.180  0.8439  2.3824 -1.7154
  836TIP3    H224068   4.653   5.397   1.136  1.8956  0.6306  1.4828
  837TIP3   OH224069   1.568   1.473   2.413  0.8235  0.3865  0.2017
  837TIP3    H124070   1.650   1.519   2.397  1.3925 -1.1561 -1.6301
  837TIP3    H224071   1.520   1.481   2.330 -1.3901  2.1123  1.5310
  838TIP3   OH224072   0.365   6.285   8.057 -0.1526  0.3005 -0.3911
  838TIP3    H124073   0.396   6.223   7.991  0.0383 -0.1464  0.1091
  838TIP3    H224074   0.299   6.236   8.107  0.9394  0.0418  0.8515
  839TIP3   OH224075   6.290   6.003   0.638 -0.2510 -0.5096 -0.6139
  839TIP3    H124076   6.298   6.069   0.569  0.5539 -0.2023 -0.2526
  839TIP3    H224077   6.197   5.983   0.643 -0.2563 -0.9468 -2.1503
  840TIP3   OH224078   2.895   3.455   6.804  0.8099 -0.2704  0.0931
  840TIP3    H124079   2.959   3.384   6.817 -0.2542 -1.8995 -2.7693
  840TIP3    H224080   2.810   3.414   6.821  0.2757  0.8842  0.2923
  841TIP3   OH224081   1.462   6.749   1.387 -0.5243  0.2471 -0.5460
  841TIP3    H124082   1.516   6.693   1.331 -1.1732  0.0044 -0.9327
  841TIP3    H224083   1.386   6.770   1.334 -0.3701  1.3671 -0.3392
  842TIP3   OH224084   0.670   1.656   0.581  0.5586  0.1390 -0.4992
  842TIP3    H124085   0.608   1.724   0.607  1.7100  0.6502  1.0160
  842TIP3    H224086   0.616   1.577   0.571 -0.6244  1.0049 -1.2181
  843TIP3   OH224087   1.980   1.102   8.366  0.2131  0.4338  0.3667
  843TIP3    H124088   2.042   1.084   8.296  0.9398 -0.4441  1.2109
  843TIP3    H224089   1.966   1.197   8.361  1.9456  0.7297  0.3968
  844TIP3   OH224090   5.278   5.252   0.554 -1.2548  0.0855 -0.2851
  844TIP3    H124091   5.211   5.320   0.554 -0.6669  0.7834 -3.4588
  844TIP3    H224092   5.296   5.235   0.462  2.9449 -0.0691  0.3880
  845TIP3   OH224093   0.279   0.064   0.706  0.1337 -0.6258 -0.2795
  845TIP3    H124094   0.321   0.045   0.789  0.3770 -0.1961 -0.2993
  845TIP3    H224095   0.214   0.131   0.727  0.4432 -0.2530 -0.4917
  846TIP3   OH224096   0.008   1.862   8.579  0.2509 -0.3611  0.3079
  846TIP3    H124097   0.058   1.943   8.594  0.5894 -0.7023  1.0629
  846TIP3    H224098  -0.002   1.824   8.666  1.1683 -1.7625 -0.1719
  847TIP3   OH224099   6.534   6.577   0.425  0.3228 -0.4024  0.4616
  847TIP3    H124100   6.561   6.606   0.512 -0.3916 -0.3729  0.6842
  847TIP3    H224101   6.463   6.637   0.401 -1.0186 -1.7847  0.8244
  848TIP3   OH224102   2.740   6.510   7.690 -0.3091  0.1507 -0.2803
  848TIP3    H124103   2.667   6.570   7.674 -1.4212 -0.2613  2.6316
  848TIP3    H224104   2.803   6.563   7.740  0.4239 -0.1060 -0.9156
  849TIP3   OH224105   6.320   4.248   1.344  0.3630  0.2719 -0.3081
  849TIP3    H124106   6.243   4.248   1.287  0.0633 -1.3182  0.0379
  849TIP3    H224107   6.332   4.156   1.367  2.4400  0.4742 -0.4290
  850TIP3   OH224108   1.611   5.531   7.975  0.2714  0.3748 -0.1005
  850TIP3    H124109   1.653   5.502   8.056 -0.2456  0.3569  0.1695
  850TIP3    H224110   1.518   5.513   7.989  0.2565 -0.2887 -0.9821
  851TIP3   OH224111   0.125   4.978   0.909 -0.2461  0.1282  0.2738
  851TIP3    H124112   0.039   4.999   0.947  0.4283  2.7377  0.5633
  851TIP3    H224113   0.178   5.056   0.926  1.5749 -0.5811 -1.7372
  852TIP3   OH224114   0.211   5.370   0.842 -0.1203  0.0013  0.3107
  852TIP3    H124115   0.178   5.459   0.851  0.1571  0.0194  1.2886
  852TIP3    H224116   0.133   5.315   0.839 -0.3469  0.3599 -1.6977
  853TIP3   OH224117   6.302   5.738   8.690 -0.0479  0.6162 -0.5906
  853TIP3    H124118   6.297   5.701   8.778  1.8820  1.7733  0.0664
  853TIP3    H224119   6.221   5.787   8.679 -0.3161  0.4355  0.5487
  854TIP3   OH224120   1.477   3.260   1.365  0.7907 -0.4611  0.0916
  854TIP3    H124121   1.522   3.259   1.280  0.5263  1.6684 -0.1313
  854TIP3    H224122   1.544   3.288   1.427  0.6602 -0.7782  0.3774
  855TIP3   OH224123   3.326   6.235   3.042 -0.2294 -0.1864 -0.3802
  855TIP3    H124124   3.287   6.262   3.126  0.5744 -1.8175  0.5806
  855TIP3    H224125   3.336   6.316   2.993  0.0579  0.9578  1.4614
  856TIP3   OH224126   6.199   2.008   8.879  0.5664 -0.1687  1.0763
  856TIP3    H124127   6.232   1.965   8.800 -0.1042 -0.7870  1.1149
  856TIP3    H224128   6.257   1.979   8.949  0.9897  0.1516  0.8618
  857TIP3   OH224129   2.334   4.831   1.867 -0.0275  0.2426  0.2821
  857TIP3    H124130   2.321   4.821   1.961  0.3500 -0.6105  0.2538
  857TIP3    H224131   2.427   4.851   1.857 -0.0533  0.2728  0.0882
  858TIP3   OH224132   1.472   0.480   8.290  0.2818  0.2002 -0.0297
  858TIP3    H124133   1.534   0.537   8.336 -1.2722 -1.4376  4.6130
  858TIP3    H224134   1.399   0.537   8.266  0.6738  0.9344  0.4983
  859TIP3   OH224135   3.367   5.533   1.687  0.6230  0.2616 -0.3656
  859TIP3    H124136   3.342   5.586   1.763 -0.2912 -0.6614  0.0003
  859TIP3    H224137   3.354   5.442   1.716 -1.5559 -0.0912 -2.1922
  860TIP3   OH224138   1.127   5.714   2.238  0.4828  0.6633 -0.2702
  860TIP3    H124139   1.142   5.698   2.331  3.3746 -1.2202 -0.9290
  860TIP3    H224140   1.204   5.762   2.209 -0.4786  1.4185 -1.6953
  861TIP3   OH224141   2.004   0.625   3.059  0.2073 -0.4743 -0.0431
  861TIP3    H124142   1.981   0.701   3.004 -1.2074 -0.3014  0.7384
  861TIP3    H224143   1.993   0.550   3.002 -0.0938 -0.2094 -0.3387
  862TIP3   OH224144   3.759   4.799   1.216  0.1731 -0.2753  0.3100
  862TIP3    H124145   3.851   4.814   1.195  0.5134 -1.8133  0.5464
  862TIP3    H224146   3.742   4.856   1.291  0.7923  0.3667 -0.0277
  863TIP3   OH224147   5.476   6.141   2.020  0.7109 -0.1916 -0.3847
  863TIP3    H124148   5.398   6.174   1.975  0.2973  1.1127  1.2025
  863TIP3    H224149   5.444   6.072   2.078  0.6966  0.4586  0.3905
  864TIP3   OH224150   4.403   1.749   2.711  1.0508  0.0287 -0.0089
  864TIP3    H124151   4.419   1.834   2.753 -0.6906  0.5306 -0.3012
  864TIP3    H224152   4.312   1.729   2.731  0.6918 -0.5598 -2.0254
  865TIP3   OH224153   1.142   2.833   0.129 -0.0218 -0.1849  0.2069
  865TIP3    H124154   1.218   2.854   0.184  0.0706  2.1403 -0.7028
  865TIP3    H224155   1.067   2.855   0.184  0.0640  1.5637 -0.3196
  866TIP3   OH224156   4.998   2.166   2.289 -0.0069  0.2183  0.7052
  866TIP3    H124157   4.977   2.255   2.264 -3.5654 -0.4366  0.8242
  866TIP3    H224158   4.981   2.163   2.384  0.8697 -0.4094  0.8596
  867TIP3   OH224159   0.262   6.220   7.107 -0.1000 -0.1702  0.2739
  867TIP3    H124160   0.328   6.278   7.069  0.2550 -1.6881 -1.5753
  867TIP3    H224161   0.179   6.253   7.071  0.2239 -1.5393 -1.9066
  868TIP3   OH224162   4.420   6.009   7.700  0.1783 -0.2950  0.9171
  868TIP3    H124163   4.466   6.041   7.622  0.4241  0.7466  1.4653
  868TIP3    H224164   4.331   6.043   7.691 -1.0100 -3.4921 -0.8571
  869TIP3   OH224165   3.424   5.477   8.168 -0.0510  0.0700 -0.5725
  869TIP3    H124166   3.399   5.387   8.190  0.1528  0.1700  0.0898
  869TIP3    H224167   3.366   5.531   8.221  0.9085  0.3130  0.2450
  870TIP3   OH224168   4.021   5.586   1.801 -0.4276  0.4153 -0.2907
  870TIP3    H124169   4.019   5.650   1.872 -0.0148  0.2213 -0.0995
  870TIP3    H224170   4.106   5.600   1.759 -0.3953  0.0978 -0.3372
  871TIP3   OH224171   6.182   6.621   2.430  0.3949 -0.3539 -0.1115
  871TIP3    H124172   6.244   6.553   2.403  1.7129 -1.0811  4.0030
  871TIP3    H224173   6.236   6.686   2.476 -1.5901 -0.2873  2.3890
  872TIP3   OH224174   5.488   5.239   1.765 -0.3968  0.1132  0.0909
  872TIP3    H124175   5.526   5.230   1.853  0.9542 -2.6464 -0.6681
  872TIP3    H224176   5.417   5.303   1.776  1.7578  2.3293  2.4642
  873TIP3   OH224177   3.801   2.342   0.781 -0.1530  0.2254 -0.1573
  873TIP3    H124178   3.781   2.435   0.790  0.8126  0.4154  0.1730
  873TIP3    H224179   3.896   2.337   0.792 -0.3311 -0.9432  1.0463
  874TIP3   OH224180   2.796   3.871   6.777  0.2238 -0.0621 -0.2459
  874TIP3    H124181   2.700   3.871   6.771  0.2618  0.1096 -0.8861
  874TIP3    H224182   2.815   3.915   6.860 -0.2511 -0.0805 -0.1259
  875TIP3   OH224183   1.775   3.798   6.973  0.0736 -0.9402  0.1238
  875TIP3    H124184   1.783   3.815   6.879 -0.9025 -1.4342 -0.0486
  875TIP3    H224185   1.726   3.873   7.006  0.8982 -0.4794  0.3522
  876TIP3   OH224186   1.849   2.180   7.515  0.1226 -0.0808 -0.4917
  876TIP3    H124187   1.763   2.141   7.506  1.1369 -2.4606 -0.6050
  876TIP3    H224188   1.850   2.216   7.604 -0.4264 -1.5516  0.1362
  877TIP3   OH224189   4.686   4.072   3.003  0.1155  0.1713  0.0207
  877TIP3    H124190   4.624   4.120   2.948  1.9107  1.4321 -1.0095
  877TIP3    H224191   4.691   3.985   2.963 -0.9462  0.0629  0.1034
  878TIP3   OH224192   4.506   5.684   1.337  0.2302 -0.3858 -0.1215
  878TIP3    H124193   4.532   5.670   1.246  2.5750 -0.6698  0.5248
  878TIP3    H224194   4.498   5.596   1.374  1.6359 -0.2944  0.4954
  879TIP3   OH224195   6.676   4.852   1.857  0.0782 -0.2149  0.9201
  879TIP3    H124196   6.661   4.771   1.807  3.5750  0.4945 -1.6628
  879TIP3    H224197   6.770   4.853   1.872  0.1278  3.2295  1.1241
  880TIP3   OH224198   1.561   3.011   2.121 -0.0803  0.1327 -0.5326
  880TIP3    H124199   1.513   2.944   2.073 -1.1341  0.2038  0.3775
  880TIP3    H224200   1.644   3.019   2.075 -0.1872 -1.3498 -1.0317
  881TIP3   OH224201   2.489   1.365   2.342 -0.7186  0.4249 -0.6613
  881TIP3    H124202   2.554   1.404   2.400 -1.3345 -1.3673  1.3564
  881TIP3    H224203   2.539   1.305   2.287 -0.6387 -1.4834  1.3612
  882TIP3   OH224204   2.895   2.776   7.518  0.0742 -0.1689  0.0177
  882TIP3    H124205   2.833   2.714   7.555  0.7508 -0.9624 -0.1596
  882TIP3    H224206   2.945   2.808   7.593 -0.1050 -0.0106  0.0738
  883TIP3   OH224207   2.442   6.535   1.639 -0.1940  0.3841  0.1283
  883TIP3    H124208   2.526   6.579   1.626 -0.2240  0.8343  1.3372
  883TIP3    H224209   2.461   6.463   1.699 -0.8287  1.1248  1.2682
  884TIP3   OH224210   6.105   1.916   8.215  0.0775  0.4182  0.0484
  884TIP3    H124211   6.030   1.957   8.259  0.0391 -0.7166  1.1033
  884TIP3    H224212   6.067   1.873   8.139 -0.7313 -1.7090  1.5518
  885TIP3   OH224213   5.229   3.389   0.941 -0.5718  0.9781 -0.4415
  885TIP3    H124214   5.283   3.325   0.986 -1.8678  0.3867  0.3220
  885TIP3    H224215   5.284   3.468   0.937  2.2140 -0.8498 -3.9712
  886TIP3   OH224216   5.302   3.206   1.250  0.3985 -0.1191  0.0808
  886TIP3    H124217   5.236   3.275   1.245 -0.4740 -0.9797 -0.5731
  886TIP3    H224218   5.343   3.205   1.164 -0.7926 -1.5463 -0.5115
  887TIP3   OH224219   3.096   6.036   0.106  0.4643  0.2156 -0.2727
  887TIP3    H124220   3.144   5.966   0.150  0.1058  0.1646  0.0367
  887TIP3    H224221   3.068   6.095   0.176  0.5962  0.5687 -0.5119
  888TIP3   OH224222   1.327   3.702   7.349  0.2647 -0.0003 -0.2866
  888TIP3    H124223   1.422   3.711   7.356  0.1295  0.7857  0.8669
  888TIP3    H224224   1.299   3.675   7.436 -0.6830  0.9914 -0.2546
  889TIP3   OH224225   5.182   6.460   7.187  0.2151  0.2392  0.1391
  889TIP3    H124226   5.180   6.537   7.244 -0.2425  0.0069  0.4416
  889TIP3    H224227   5.251   6.479   7.124 -0.0060  0.9733  0.1085
  890TIP3   OH224228   0.838   2.004   6.586 -0.2594  0.1944  0.0669
  890TIP3    H124229   0.751   2.042   6.576 -0.6792 -0.0913  2.2603
  890TIP3    H224230   0.871   2.039   6.669  1.1431 -0.8066 -0.0243
  891TIP3   OH224231   1.387   6.345   8.471  0.2103 -0.3393  0.4055
  891TIP3    H124232   1.393   6.274   8.408  0.5945 -0.7234  0.8687
  891TIP3    H224233   1.368   6.422   8.418  0.1541 -0.7196 -0.1394
  892TIP3   OH224234   0.980   5.043   0.780  0.3373  0.1301  0.0061
  892TIP3    H124235   0.957   4.982   0.710 -0.8899  1.4641 -0.7990
  892TIP3    H224236   1.067   5.075   0.756  0.0646  0.3269 -0.7512
  893TIP3   OH224237   4.164   1.875   2.983 -0.5206 -0.3255  0.1139
  893TIP3    H124238   4.223   1.937   2.940 -1.5890  0.7134  0.0888
  893TIP3    H224239   4.215   1.794   2.990  1.5258  0.9662  1.5748
  894TIP3   OH224240   3.976   5.374   7.654 -0.4470 -0.3371 -0.6095
  894TIP3    H124241   3.919   5.435   7.701 -0.9202 -0.1887 -1.3545
  894TIP3    H224242   3.927   5.351   7.575  0.8565  0.4508 -1.6974
  895TIP3   OH224243   5.735   3.969   1.939  0.0583  0.1033 -0.0170
  895TIP3    H124244   5.658   4.025   1.927 -0.7246 -0.7803  0.7171
  895TIP3    H224245   5.706   3.903   2.002  2.2406  1.4016  2.5746
  896TIP3   OH224246   5.214   4.894   1.459  0.0452 -0.1039 -0.0988
  896TIP3    H124247   5.229   4.972   1.512 -0.8528  0.0983 -0.1370
  896TIP3    H224248   5.300   4.852   1.454  0.9154  1.6820 -1.3795
  897TIP3   OH224249   3.789   4.249   7.806 -0.1044  0.2805 -0.6554
  897TIP3    H124250   3.711   4.283   7.850  0.4605 -1.2062  1.6950
  897TIP3    H224251   3.861   4.301   7.840  0.1184  0.6810 -1.6963
  898TIP3   OH224252   4.746   4.797   1.848  0.1938  0.0502 -0.3768
  898TIP3    H124253   4.763   4.709   1.879 -0.9299  0.2551  0.8896
  898TIP3    H224254   4.736   4.787   1.753 -0.8143 -1.3441 -0.1565
  899TIP3   OH224255   5.605   4.034   2.255 -0.0002  0.5418  0.3880
  899TIP3    H124256   5.578   4.051   2.345  0.1988  1.7541  0.2381
  899TIP3    H224257   5.682   4.089   2.242  0.0443  0.2871 -0.4832
  900TIP3   OH224258   2.807   1.217   0.193 -0.1338 -0.5013  0.2676
  900TIP3    H124259   2.886   1.259   0.160 -0.1797  0.7084  1.6292
  900TIP3    H224260   2.741   1.235   0.126  0.5111 -0.7948 -0.4690
  901TIP3   OH224261   4.480   6.339   8.319  0.0768 -0.0140 -0.7976
  901TIP3    H124262   4.527   6.373   8.243  0.0704  0.2619 -0.6775
  901TIP3    H224263   4.444   6.416   8.363  0.2355 -0.1528 -0.4131
  902TIP3   OH224264   0.883   0.892   1.952 -0.1540 -0.5846 -0.1749
  902TIP3    H124265   0.820   0.965   1.948 -1.3007 -1.6124 -2.3390
  902TIP3    H224266   0.908   0.877   1.861  0.8905 -2.2020  0.3505
  903TIP3   OH224267   2.782   0.659   1.656  0.3511 -0.1606 -0.0407
  903TIP3    H124268   2.800   0.565   1.658  0.2073 -0.1827  0.3646
  903TIP3    H224269   2.700   0.668   1.704 -0.7390 -0.0549 -1.8767
  904TIP3   OH224270   6.278   0.358   7.808 -0.3795 -0.3687  0.2235
  904TIP3    H124271   6.340   0.381   7.739 -1.9069  1.5005 -0.6032
  904TIP3    H224272   6.333   0.340   7.884  1.1859  1.7331 -0.3279
  905TIP3   OH224273   5.500   5.172   0.709  0.8563  0.3596  0.1829
  905TIP3    H124274   5.509   5.255   0.662 -2.7700  0.2691 -0.9663
  905TIP3    H224275   5.489   5.107   0.640 -0.1129 -0.4670  1.0946
  906TIP3   OH224276   2.355   0.123   1.146  0.5694  0.1624 -0.0061
  906TIP3    H124277   2.276   0.081   1.114  1.9008 -1.5322 -1.2806
  906TIP3    H224278   2.363   0.092   1.237  0.4571 -0.7394 -0.2928
  907TIP3   OH224279   3.817   6.592   0.144  0.3510 -0.1201 -0.1852
  907TIP3    H124280   3.903   6.626   0.120 -0.1082  0.5240 -0.9688
  907TIP3    H224281   3.756   6.659   0.114 -0.3280  0.2930  1.9374
  908TIP3   OH224282   4.433   3.190   8.796 -0.1196  0.0379 -0.0616
  908TIP3    H124283   4.490   3.184   8.873 -1.8419  1.2611  1.3972
  908TIP3    H224284   4.492   3.207   8.723  1.4352  0.6996  1.2904
  909TIP3   OH224285   3.895   3.568   0.779 -0.4222  0.1772 -0.1256
  909TIP3    H124286   3.879   3.654   0.741  0.5832  0.0119 -0.9549
  909TIP3    H224287   3.829   3.511   0.738  0.9219 -0.0937 -2.0528
  910TIP3   OH224288   0.240   1.749   1.326 -0.2876 -0.0539 -0.1321
  910TIP3    H124289   0.285   1.816   1.377  1.9169 -1.2696 -0.3800
  910TIP3    H224290   0.255   1.668   1.375 -1.5563 -0.6416 -0.6625
  911TIP3   OH224291   2.017   4.783   7.836 -0.4105  0.3598  0.4994
  911TIP3    H124292   2.051   4.862   7.879  1.4798 -0.2395  0.1646
  911TIP3    H224293   2.057   4.711   7.883  0.3726 -0.3421 -1.1580
  912TIP3   OH224294   6.556   4.073   0.151 -0.0810  0.4568  0.3924
  912TIP3    H124295   6.525   3.985   0.129 -0.2720  0.7514 -0.6010
  912TIP3    H224296   6.519   4.129   0.082 -0.1033  1.3431  1.1037
  913TIP3   OH224297   6.390   5.283   2.388 -0.1108 -0.2293  0.3487
  913TIP3    H124298   6.378   5.202   2.438 -1.1286  0.3455  1.0802
  913TIP3    H224299   6.478   5.312   2.410 -0.2800 -0.3673  1.2576
  914TIP3   OH224300   3.788   1.356   0.408 -0.2904  0.1536 -0.0399
  914TIP3    H124301   3.796   1.404   0.491  0.5961  0.0828 -0.0759
  914TIP3    H224302   3.697   1.327   0.406  0.6188 -3.6762  3.0289
  915TIP3   OH224303   6.408   6.507   1.211 -0.1171 -0.2186  0.0328
  915TIP3    H124304   6.447   6.486   1.126  0.7423 -0.5368  0.4908
  915TIP3    H224305   6.426   6.431   1.266 -0.9330 -0.1477  0.4195
  916TIP3   OH224306   3.630   6.399   0.526  0.4388  0.7096  0.0189
  916TIP3    H124307   3.651   6.452   0.449  0.7962  0.1561 -0.2701
  916TIP3    H224308   3.556   6.344   0.498  0.0307  1.0850  0.3355
  917TIP3   OH224309   2.766   2.154   1.791 -0.4196  0.0543 -0.4449
  917TIP3    H124310   2.718   2.072   1.778 -0.5896  0.3964 -2.1915
  917TIP3    H224311   2.792   2.181   1.703  2.2361  0.3593  0.3519
  918TIP3   OH224312   3.555   3.405   7.403  0.2517 -0.8963  0.2400
  918TIP3    H124313   3.597   3.382   7.486  1.0682  0.3011  0.1841
  918TIP3    H224314   3.567   3.500   7.396  1.0330 -1.1055 -1.7159
  919TIP3   OH224315   6.410   0.650   1.598  0.4839  0.2779  0.2653
  919TIP3    H124316   6.347   0.625   1.666 -0.0389  0.3854 -0.1667
  919TIP3    H224317   6.433   0.740   1.619  0.8592  0.0837  0.6976
  920TIP3   OH224318   1.690   3.351   8.933  0.6618 -0.3647  0.8760
  920TIP3    H124319   1.736   3.267   8.935  0.4456 -0.7166 -2.7574
  920TIP3    H224320   1.620   3.339   8.869 -2.7954  1.0750  4.0142
  921TIP3   OH224321   0.081   3.242   7.509  0.1023  0.4479  0.0448
  921TIP3    H124322   0.047   3.246   7.598 -0.5084  0.0109 -0.1656
  921TIP3    H224323   0.009   3.208   7.457  1.0877 -1.2522 -0.2719
  922TIP3   OH224324   4.000   5.426   0.871 -0.1878  0.2001 -0.2963
  922TIP3    H124325   3.995   5.493   0.803  0.9629 -0.5148 -1.1175
  922TIP3    H224326   3.945   5.355   0.838  0.8545 -0.3937 -0.7966
  923TIP3   OH224327   0.922   4.093   0.337  0.4369 -0.0517 -0.1594
  923TIP3    H124328   0.904   4.118   0.427  0.2313  0.1931 -0.2660
  923TIP3    H224329   0.946   4.001   0.342  3.1624  0.6082  0.4927
  924TIP3   OH224330   1.715   0.798   2.556 -0.0419  0.4140 -0.1971
  924TIP3    H124331   1.775   0.840   2.617  0.6888 -1.4410  0.4605
  924TIP3    H224332   1.754   0.811   2.470 -0.4752  2.0618 -0.1642
  925TIP3   OH224333   5.567   0.753   0.573 -0.4899 -0.9185 -0.3698
  925TIP3    H124334   5.607   0.703   0.502 -0.5823  0.7638 -1.6858
  925TIP3    H224335   5.492   0.797   0.532  0.3267  1.2808  0.3625
  926TIP3   OH224336   4.059   4.714   1.835 -0.5551 -0.4767  0.1103
  926TIP3    H124337   3.989   4.652   1.857  0.1277 -0.7132  1.7411
  926TIP3    H224338   4.140   4.667   1.854  0.0262  0.1447 -0.7928
  927TIP3   OH224339   6.281   0.941   7.836 -0.2685 -0.3110  0.4488
  927TIP3    H124340   6.325   1.020   7.868 -2.4584  0.4254  1.8741
  927TIP3    H224341   6.235   0.970   7.758  1.8515 -1.1493 -1.2081
  928TIP3   OH224342   2.677   4.619   6.620 -0.8463 -0.2985  0.4343
  928TIP3    H124343   2.759   4.637   6.574  0.6961 -1.1713  2.6876
  928TIP3    H224344   2.652   4.703   6.658  0.9711 -0.6827  2.6602
  929TIP3   OH224345   5.046   3.492   1.932  0.0873 -0.4223 -0.1736
  929TIP3    H124346   5.011   3.414   1.975  1.4370 -0.7118  0.4249
  929TIP3    H224347   5.050   3.469   1.839 -0.7033 -0.6011 -0.1696
  930TIP3   OH224348   4.181   3.218   7.414 -0.4620  0.0701 -0.1144
  930TIP3    H124349   4.157   3.272   7.338 -0.7846 -0.2109 -0.2149
  930TIP3    H224350   4.229   3.277   7.471 -0.3405  0.3230 -0.4735
  931TIP3   OH224351   3.800   1.010   2.347 -0.2242  0.6060 -0.4172
  931TIP3    H124352   3.805   0.983   2.439 -0.9114  0.4743 -0.4138
  931TIP3    H224353   3.708   0.997   2.323  0.2558 -1.0056 -1.6238
  932TIP3   OH224354   2.835   1.950   7.599  0.3758 -0.3642  0.3517
  932TIP3    H124355   2.844   1.856   7.613 -0.1583 -0.3667  0.7032
  932TIP3    H224356   2.869   1.965   7.511  1.4806 -0.7192  0.7013
  933TIP3   OH224357   2.885   4.880   7.790 -0.2655  0.9768 -0.1456
  933TIP3    H124358   2.810   4.822   7.796 -0.8833  1.8762  1.2339
  933TIP3    H224359   2.958   4.828   7.824 -0.1997  0.0844 -1.5401
  934TIP3   OH224360   2.421   2.558   8.064 -0.2043  0.0863  0.1834
  934TIP3    H124361   2.349   2.596   8.015 -0.1841  0.0042  0.0897
  934TIP3    H224362   2.464   2.498   8.003  1.3672  1.8283 -0.5227
  935TIP3   OH224363   4.988   1.652   6.837  0.0252  0.5098 -0.4641
  935TIP3    H124364   5.046   1.633   6.762  1.4914  0.4740  0.6417
  935TIP3    H224365   4.982   1.747   6.839  0.4643  0.5356 -0.2840
  936TIP3   OH224366   4.032   6.672   7.790  0.1475  0.3762 -0.2093
  936TIP3    H124367   3.989   6.600   7.746  1.0462 -0.5443  0.3753
  936TIP3    H224368   4.108   6.692   7.735  0.2965  0.3949  0.0003
  937TIP3   OH224369   1.442   6.462   1.976  0.0626 -0.0916  0.0512
  937TIP3    H124370   1.435   6.378   2.021  0.0299  1.7111  3.7922
  937TIP3    H224371   1.355   6.501   1.984  0.6738  1.2310  0.5563
  938TIP3   OH224372   5.093   6.571   1.598  0.3333 -0.2604  0.0865
  938TIP3    H124373   5.034   6.503   1.630 -0.9883  0.2327 -1.1889
  938TIP3    H224374   5.040   6.651   1.599  1.0070  0.2218 -0.9560
  939TIP3   OH224375   5.681   1.321   2.157 -0.3786  0.5670 -0.6513
  939TIP3    H124376   5.699   1.328   2.251  1.0187  0.6929 -0.8963
  939TIP3    H224377   5.676   1.411   2.126  0.2224  0.5303 -0.8683
  940TIP3   OH224378   0.084   1.644   0.601  0.2665 -0.3066 -1.2016
  940TIP3    H124379   0.020   1.686   0.543  1.7290  1.9499 -1.3353
  940TIP3    H224380   0.045   1.650   0.688 -0.4038 -0.4279 -1.4898
  941TIP3   OH224381   1.706   6.059   1.962 -0.0098  0.2387  0.0960
  941TIP3    H124382   1.615   6.031   1.955  0.2618 -0.5125 -0.6863
  941TIP3    H224383   1.755   5.978   1.981  0.6092  0.4369 -0.5796
  942TIP3   OH224384   4.659   1.680   8.116  0.3499  0.4196 -0.4793
  942TIP3    H124385   4.722   1.735   8.070  0.2152 -1.1063 -2.6660
  942TIP3    H224386   4.627   1.619   8.049 -2.2570  0.0971  0.9347
  943TIP3   OH224387   2.301   6.435   8.908 -0.0519  0.5061 -0.0345
  943TIP3    H124388   2.382   6.485   8.904 -0.2360  0.7332 -1.6524
  943TIP3    H224389   2.296   6.404   8.999  1.0778  1.7267  0.4799
  944TIP3   OH224390   1.409   1.329   1.816  0.1522  0.2009 -0.2127
  944TIP3    H124391   1.382   1.403   1.872  3.0230  0.6881  0.6979
  944TIP3    H224392   1.371   1.252   1.859 -0.0043  0.8348  0.8360
  945TIP3   OH224393   0.540   1.535   1.071  0.8914  0.2706 -0.3177
  945TIP3    H124394   0.609   1.595   1.043  1.5568 -0.7488 -0.8802
  945TIP3    H224395   0.564   1.512   1.161  0.6990  0.7267 -0.1413
  946TIP3   OH224396   2.762   4.135   8.367 -0.0620 -0.0298  0.1989
  946TIP3    H124397   2.788   4.222   8.395 -1.1564  0.6168 -0.6893
  946TIP3    H224398   2.681   4.118   8.415  0.7295 -1.0621  1.2305
  947TIP3   OH224399   4.756   0.264   1.959 -0.8648 -0.0239 -0.3597
  947TIP3    H124400   4.700   0.273   1.881 -0.5829 -1.9927 -0.8438
  947TIP3    H224401   4.814   0.340   1.956 -1.2884  0.2782 -1.7240
  948TIP3   OH224402   0.055   4.839   0.675 -0.1941  0.1197  0.5171
  948TIP3    H124403   0.089   4.841   0.586  0.9351 -1.9606  0.8454
  948TIP3    H224404   0.085   4.922   0.714 -0.3933  0.8784 -0.8836
  949TIP3   OH224405   0.869   6.052   3.087 -0.0284 -0.3951 -0.3502
  949TIP3    H124406   0.936   6.048   3.018  0.2482 -0.8408 -0.0632
  949TIP3    H224407   0.852   6.145   3.098  1.1493 -0.2235  0.1471
  950TIP3   OH224408   1.094   5.483   1.345 -0.6839 -0.1315  0.2594
  950TIP3    H124409   1.012   5.528   1.365  0.0545  1.3008  0.2466
  950TIP3    H224410   1.157   5.520   1.407 -0.0723 -1.2833  0.3425
  951TIP3   OH224411   0.692   0.298   8.043 -0.0098 -0.0281 -0.0375
  951TIP3    H124412   0.681   0.213   8.086 -0.4959  0.0970  0.0895
  951TIP3    H224413   0.695   0.361   8.115  0.0129  0.0945 -0.1447
  952TIP3   OH224414   5.311   0.420   7.717  0.5616  0.1369 -0.0599
  952TIP3    H124415   5.233   0.384   7.759  0.7935 -0.5140 -0.1773
  952TIP3    H224416   5.377   0.351   7.724  1.5157  1.1136  1.1253
  953TIP3   OH224417   0.624   5.612   0.386  0.3140 -0.6015  0.7506
  953TIP3    H124418   0.583   5.674   0.327  1.3256 -1.0570 -0.4739
  953TIP3    H224419   0.576   5.621   0.468 -1.4021 -0.2431 -0.2463
  954TIP3   OH224420   0.318   2.505   1.099 -0.6847  0.2814  0.2608
  954TIP3    H124421   0.226   2.479   1.104 -1.0908  1.6816  0.4615
  954TIP3    H224422   0.333   2.556   1.178  0.3125 -0.0249  0.2837
  955TIP3   OH224423   2.992   2.811   7.770  0.4759 -0.4859  0.5878
  955TIP3    H124424   2.914   2.772   7.809 -0.0204  0.0012  0.1006
  955TIP3    H224425   3.012   2.886   7.827  1.4036 -1.3901  1.4986
  956TIP3   OH224426   3.994   6.694   1.708 -0.3365  0.1363 -0.1330
  956TIP3    H124427   3.923   6.704   1.770 -1.3419 -0.4910 -1.1395
  956TIP3    H224428   4.045   6.620   1.741 -0.8467 -0.1741 -0.0266
  957TIP3   OH224429   0.691   1.344   7.220 -0.4460 -0.3257  0.0223
  957TIP3    H124430   0.708   1.253   7.195  0.9698  0.4513 -2.1787
  957TIP3    H224431   0.644   1.381   7.146  1.5446  1.4302 -0.4591
  958TIP3   OH224432   0.238   3.869   1.089  0.4578 -0.2872 -0.4168
  958TIP3    H124433   0.196   3.826   1.015  0.9792 -0.5888 -0.5458
  958TIP3    H224434   0.328   3.885   1.059  0.6829 -0.4501  0.1634
  959TIP3   OH224435   2.077   6.707   2.200  0.1343 -0.1012 -0.3555
  959TIP3    H124436   2.116   6.786   2.238 -0.0379 -0.6859  1.1334
  959TIP3    H224437   1.985   6.710   2.228  0.5850 -1.8448  1.5785
  960TIP3   OH224438   0.001   3.982   8.261 -0.0695 -0.3947 -0.3021
  960TIP3    H124439   0.076   3.960   8.205 -0.4631 -0.0707 -0.9686
  960TIP3    H224440  -0.073   3.988   8.200 -0.7638 -1.3138  0.4261
  961TIP3   OH224441   6.773   1.911   1.613 -0.0515 -0.1346  0.1258
  961TIP3    H124442   6.818   1.830   1.638 -2.1498 -1.5323 -0.4031
  961TIP3    H224443   6.818   1.940   1.534  0.8913 -0.6305  0.4611
  962TIP3   OH224444   0.463   4.776   6.537 -0.0403 -0.3799 -0.3373
  962TIP3    H124445   0.510   4.726   6.604 -1.2123 -0.8137  0.1896
  962TIP3    H224446   0.373   4.742   6.540 -0.3987  0.4161 -1.3191
  963TIP3   OH224447   5.384   2.125   7.856 -0.0777 -0.2332  0.1803
  963TIP3    H124448   5.318   2.119   7.925  0.2502  1.6114  0.7012
  963TIP3    H224449   5.434   2.043   7.863 -1.2499 -0.9145  0.8470
  964TIP3   OH224450   6.143   5.232   0.460  0.3211 -0.0720 -0.0215
  964TIP3    H124451   6.163   5.320   0.491  0.6518 -0.3480  0.5614
  964TIP3    H224452   6.188   5.225   0.376  2.7922 -0.6987  1.2675
  965TIP3   OH224453   2.968   2.975   2.708  0.5226 -0.0640 -0.0679
  965TIP3    H124454   3.000   2.888   2.733  0.3321 -0.4025 -0.9416
  965TIP3    H224455   3.047   3.023   2.685  0.4859 -1.0684 -2.7452
  966TIP3   OH224456   3.936   6.228   1.832 -0.1088 -0.7561  0.2500
  966TIP3    H124457   3.936   6.286   1.756  2.3455  0.3483  1.0035
  966TIP3    H224458   4.026   6.229   1.863 -0.7620 -2.2362  2.3898
  967TIP3   OH224459   4.705   1.327   1.735  0.3607  0.9228  0.7039
  967TIP3    H124460   4.754   1.409   1.726  1.3376  0.4539  1.5972
  967TIP3    H224461   4.721   1.299   1.825  1.7856 -1.3103 -0.1515
  968TIP3   OH224462   6.537   0.204   8.149 -0.3855 -0.0194  0.2420
  968TIP3    H124463   6.547   0.275   8.085 -1.2234  0.2271  0.3680
  968TIP3    H224464   6.503   0.131   8.098  0.6716 -0.4054  0.0741
  969TIP3   OH224465   6.031   6.485   7.861  0.1466 -0.7045  0.0347
  969TIP3    H124466   5.986   6.404   7.884  2.7887 -1.9883  1.1717
  969TIP3    H224467   6.096   6.458   7.796  1.1582  0.4473  0.5246
  970TIP3   OH224468   5.142   3.973   1.447  0.2241 -0.6759 -0.0372
  970TIP3    H124469   5.107   3.950   1.361 -0.5384 -0.2828  0.1616
  970TIP3    H224470   5.223   4.021   1.428  0.3429 -1.0656 -0.5192
  971TIP3   OH224471   6.648   5.843   8.279  0.8016  0.0742 -0.2490
  971TIP3    H124472   6.684   5.879   8.360  1.7064 -0.1781 -0.5296
  971TIP3    H224473   6.680   5.902   8.211 -1.3973  1.3250 -0.2768
  972TIP3   OH224474   3.558   4.076   7.120  0.3129 -0.7386  0.3541
  972TIP3    H124475   3.549   4.171   7.116  1.1853 -0.6475  0.2737
  972TIP3    H224476   3.469   4.042   7.107  0.5504 -0.1061 -4.5960
  973TIP3   OH224477   1.608   1.201   2.000  0.1817 -0.5684 -0.0088
  973TIP3    H124478   1.572   1.288   1.985  0.7318 -0.6197 -1.8632
  973TIP3    H224479   1.701   1.215   2.017  0.2101 -0.7781  0.0180
  974TIP3   OH224480   3.222   6.703   0.073 -0.0441  0.4008  0.3923
  974TIP3    H124481   3.289   6.763   0.106  0.6402  1.2841 -2.3501
  974TIP3    H224482   3.153   6.759   0.039  0.0857 -0.3690 -1.2214
  975TIP3   OH224483   0.702   1.147   1.953  0.4859 -0.0137  0.2674
  975TIP3    H124484   0.749   1.222   1.915 -0.3759  0.5360  0.2529
  975TIP3    H224485   0.734   1.142   2.043  0.7366  0.2192  0.1924
  976TIP3   OH224486   3.991   0.837   7.575 -0.2076 -0.3313 -0.6414
  976TIP3    H124487   4.012   0.807   7.664 -1.5990  0.5912  0.0397
  976TIP3    H224488   3.993   0.758   7.521  0.0403 -1.0072  0.3340
  977TIP3   OH224489   5.840   3.822   8.848 -0.1534  0.0506 -0.2045
  977TIP3    H124490   5.890   3.867   8.780 -0.7914  0.1216 -0.6320
  977TIP3    H224491   5.751   3.854   8.838  0.0647  1.6072  1.9607
  978TIP3   OH224492   4.023   6.754   2.326  0.3678  0.2054  0.4376
  978TIP3    H124493   4.077   6.687   2.284  0.3306  0.3725  0.1225
  978TIP3    H224494   4.006   6.719   2.413 -0.0287 -0.4018  0.1268
  979TIP3   OH224495   6.160   3.854   0.516  0.4122  0.2541 -0.1521
  979TIP3    H124496   6.233   3.875   0.458 -0.8695  2.0377 -1.2137
  979TIP3    H224497   6.088   3.910   0.486 -1.0375 -0.5466  1.6235
  980TIP3   OH224498   6.584   6.622   0.038  0.2768 -0.1674 -0.2195
  980TIP3    H124499   6.494   6.653   0.044 -0.3169 -1.9000  0.4323
  980TIP3    H224500   6.577   6.536  -0.003  1.6449 -0.3171 -0.1876
  981TIP3   OH224501   0.567   2.385   6.793 -0.0754 -0.1491 -0.0843
  981TIP3    H124502   0.587   2.292   6.784 -0.2461 -0.0262 -2.2369
  981TIP3    H224503   0.637   2.430   6.745 -1.0749  0.6983 -0.8245
  982TIP3   OH224504   1.691   3.547   0.477  0.0982  0.4050 -0.2847
  982TIP3    H124505   1.722   3.531   0.566 -0.2583  0.1161 -0.2105
  982TIP3    H224506   1.597   3.531   0.481  0.0643  0.4971 -0.6899
  983TIP3   OH224507   6.344   3.226   0.080 -0.0688 -0.3916 -0.0802
  983TIP3    H124508   6.288   3.176   0.020 -0.0727  0.0498 -0.4485
  983TIP3    H224509   6.348   3.172   0.159 -1.5532 -0.1416  0.2062
  984TIP3   OH224510   0.779   1.218   6.923  0.4221 -0.2476 -0.3451
  984TIP3    H124511   0.758   1.128   6.948  1.7445  0.0061  1.9858
  984TIP3    H224512   0.694   1.262   6.918 -0.1348 -1.2202  0.2678
  985TIP3   OH224513   6.188   2.368   0.410 -0.4494 -0.6752 -0.2988
  985TIP3    H124514   6.207   2.318   0.489 -0.4939 -1.4882 -0.7878
  985TIP3    H224515   6.191   2.303   0.339 -0.5987 -0.0003 -0.9385
  986TIP3   OH224516   3.180   6.640   2.600  0.0108  0.2487 -0.4272
  986TIP3    H124517   3.271   6.669   2.598  0.4253 -0.8857  0.4592
  986TIP3    H224518   3.159   6.632   2.693 -0.7631 -0.2014 -0.6240
  987TIP3   OH224519   0.674   2.976   0.627 -0.0734  0.0100 -0.1580
  987TIP3    H124520   0.662   2.886   0.659  2.1885 -0.2582  0.0594
  987TIP3    H224521   0.604   3.026   0.669 -0.4164 -1.3558  0.9590
  988TIP3   OH224522   0.551   0.033   1.696  0.2378 -0.2934 -0.1225
  988TIP3    H124523   0.508   0.015   1.612  0.3069 -3.8342  0.4317
  988TIP3    H224524   0.483   0.071   1.751 -0.9482 -1.6342 -0.6254
  989TIP3   OH224525   6.366   6.023   7.756 -0.3744  0.8178 -0.2591
  989TIP3    H124526   6.283   6.036   7.802 -0.3321  1.7723 -0.4200
  989TIP3    H224527   6.357   6.075   7.675  0.7421  1.7688  0.1931
  990TIP3   OH224528   0.924   3.571   1.304 -0.1844  0.5210  0.4875
  990TIP3    H124529   0.989   3.623   1.255 -0.2722  0.4319  0.2758
  990TIP3    H224530   0.975   3.500   1.344 -0.5719 -1.5713 -2.4086
  991TIP3   OH224531   5.604   2.423   2.076  0.2754 -0.4043  0.2000
  991TIP3    H124532   5.676   2.408   2.016 -0.1376  0.4786 -0.5417
  991TIP3    H224533   5.641   2.476   2.146  0.1756  0.7424 -0.5938
  992TIP3   OH224534   3.106   0.767   0.274  0.2015 -0.1321 -0.1277
  992TIP3    H124535   3.189   0.729   0.245  0.8736  0.8512  0.4332
  992TIP3    H224536   3.115   0.860   0.255 -1.6158 -0.2531 -1.9694
  993TIP3   OH224537   5.371   4.752   1.198  0.4319  0.0639  0.3501
  993TIP3    H124538   5.388   4.721   1.109 -1.9622 -2.2592  0.5687
  993TIP3    H224539   5.332   4.838   1.186 -1.3947 -0.8733 -1.0744
  994TIP3   OH224540   6.243   0.040   0.812  1.1652 -0.0589  0.2136
  994TIP3    H124541   6.206   0.040   0.901 -1.6859  0.2930 -0.8782
  994TIP3    H224542   6.182  -0.011   0.760  2.5305  0.1198 -1.6706
  995TIP3   OH224543   2.448   2.178   6.932 -0.1520 -0.3598 -0.0505
  995TIP3    H124544   2.467   2.085   6.940 -0.8079 -0.3622  1.9872
  995TIP3    H224545   2.354   2.182   6.914 -0.7076 -0.0947  2.5296
  996TIP3   OH224546   1.317   2.884   7.277 -0.7188 -0.3701 -0.3166
  996TIP3    H124547   1.345   2.794   7.264  1.2131  0.1379  0.0291
  996TIP3    H224548   1.236   2.892   7.226 -0.0752 -1.8595 -1.6447
  997TIP3   OH224549   2.377   0.386   1.970 -0.1465 -0.5158 -0.6299
  997TIP3    H124550   2.300   0.381   1.912 -1.3007  0.0532  0.8010
  997TIP3    H224551   2.402   0.478   1.967  0.6665 -0.7487 -1.2922
  998TIP3   OH224552   1.481   5.393   0.284 -1.0472  0.4166  0.0550
  998TIP3    H124553   1.448   5.431   0.203  0.9391  0.7322 -0.6567
  998TIP3    H224554   1.524   5.466   0.329 -0.6352 -0.1316  0.5666
  999TIP3   OH224555   4.494   4.253   2.028  0.1287 -0.0749  0.2172
  999TIP3    H124556   4.506   4.295   2.113  1.3051  1.6252 -0.7292
  999TIP3    H224557   4.403   4.223   2.028  0.3677 -0.9784  2.4025
 1000TIP3   OH224558   6.324   1.032   8.514 -0.0566 -0.0201  0.3403
 1000TIP3    H124559   6.408   1.009   8.473  0.4915  0.7870  0.9640
 1000TIP3    H224560   6.259   1.016   8.446  0.8191  1.1597 -0.8210
 1001TIP3   OH224561   0.600   0.956   0.526 -0.5279 -0.5708  0.6564
 1001TIP3    H124562   0.600   1.050   0.513  0.4070 -0.3723  1.8790
 1001TIP3    H224563   0.535   0.940   0.594 -0.5110 -0.7673  0.6291
 1002TIP3   OH224564   0.996   0.727   1.014 -0.1211 -0.0230  0.1914
 1002TIP3    H124565   0.901   0.715   1.017 -0.3035  0.7007 -1.3397
 1002TIP3    H224566   1.023   0.730   1.105 -1.5875 -0.1672  0.6554
 1003TIP3   OH224567   5.757   3.987   0.345 -0.2978 -0.7722  0.0836
 1003TIP3    H124568   5.665   4.004   0.361 -0.1946 -0.7161  0.6213
 1003TIP3    H224569   5.770   4.011   0.253 -1.0025 -1.5973 -0.2461
 1004TIP3   OH224570   6.313   5.694   0.919  0.2119  0.4859 -0.1962
 1004TIP3    H124571   6.338   5.722   1.007  1.9083  1.1471 -0.8323
 1004TIP3    H224572   6.380   5.733   0.862 -1.0715  0.4240 -1.8265
 1005TIP3   OH224573   5.750   3.617   1.983 -0.0280  0.2385  0.1575
 1005TIP3    H124574   5.808   3.650   1.914  0.1549  0.9737  0.6632
 1005TIP3    H224575   5.809   3.585   2.051 -0.0464 -3.7886 -1.4157
 1006TIP3   OH224576   3.110   0.523   7.699  0.0605  0.1864  0.3852
 1006TIP3    H124577   3.112   0.618   7.714 -1.1218 -0.1473  3.2903
 1006TIP3    H224578   3.120   0.514   7.605  1.2053  3.1439  0.1054
 1007TIP3   OH224579   6.352   5.075   2.556 -0.5906 -0.1047  0.1522
 1007TIP3    H124580   6.295   5.024   2.614 -1.6655  0.3154 -0.4993
 1007TIP3    H224581   6.437   5.032   2.561 -1.3103 -1.5668  0.1151
 1008TIP3   OH224582   1.122   3.673   8.767 -0.2069  0.2866  0.0364
 1008TIP3    H124583   1.165   3.632   8.691  2.2473 -1.2994  2.0738
 1008TIP3    H224584   1.180   3.746   8.790 -1.6355  1.5706 -0.3372
 1009TIP3   OH224585   2.077   3.439   6.517 -0.3164  0.5895  0.2917
 1009TIP3    H124586   2.117   3.524   6.501 -0.9334  0.5473 -1.8685
 1009TIP3    H224587   2.115   3.381   6.451 -2.0663 -0.0505 -0.2311
 1010TIP3   OH224588   0.287   1.191   8.591 -0.2895 -0.2072  0.3847
 1010TIP3    H124589   0.244   1.111   8.622  1.3707 -1.1812  0.2916
 1010TIP3    H224590   0.373   1.189   8.632 -0.3887  1.8271  0.7966
 1011TIP3   OH224591   4.220   3.675   1.862 -0.4744 -0.3116  0.0615
 1011TIP3    H124592   4.205   3.617   1.936 -0.3910  1.1420  1.2530
 1011TIP3    H224593   4.309   3.707   1.873 -0.8441  0.7911 -0.0251
 1012TIP3   OH224594   0.165   2.244   0.818 -0.2848 -0.5369 -0.2163
 1012TIP3    H124595   0.200   2.332   0.803 -0.9549 -0.0125  1.2065
 1012TIP3    H224596   0.072   2.252   0.799 -0.2760 -1.0682 -0.5080
 1013TIP3   OH224597   4.719   0.518   6.993  0.6235 -0.2675  0.4384
 1013TIP3    H124598   4.808   0.542   6.965  0.7104 -0.3812  0.6096
 1013TIP3    H224599   4.706   0.431   6.956  0.9849 -0.6884  1.2756
 1014TIP3   OH224600   6.714   1.819   7.684 -0.0636 -0.3637  0.2949
 1014TIP3    H124601   6.787   1.799   7.743  0.7532  0.1450 -0.5145
 1014TIP3    H224602   6.709   1.915   7.685 -2.1932 -0.4063  2.0626
 1015TIP3   OH224603   5.022   1.982   2.903 -0.1473  0.0013  0.6531
 1015TIP3    H124604   5.105   1.958   2.943  0.2371  0.5548  0.2013
 1015TIP3    H224605   5.032   2.074   2.878 -0.4663 -0.2380 -0.4465
 1016TIP3   OH224606   0.542   2.431   8.384 -0.1925 -0.3527 -0.1042
 1016TIP3    H124607   0.559   2.369   8.314 -3.2637  0.6625 -1.9372
 1016TIP3    H224608   0.491   2.382   8.448 -0.4042 -0.4070 -0.3114
 1017TIP3   OH224609   4.318   1.378   2.842  0.3338  0.0792  0.5515
 1017TIP3    H124610   4.381   1.309   2.822  0.0175 -0.7288  2.1161
 1017TIP3    H224611   4.242   1.358   2.787 -0.3415 -1.7777  2.0501
 1018TIP3   OH224612   6.052   4.631   7.554 -0.2223  0.0899  0.0277
 1018TIP3    H124613   5.974   4.647   7.606  1.0970  1.1975  1.7948
 1018TIP3    H224614   6.125   4.659   7.610  1.5489 -2.0142 -1.0421
 1019TIP3   OH224615   2.418   1.215   1.257 -0.4080  0.0540 -0.3552
 1019TIP3    H124616   2.431   1.287   1.319  1.2041 -0.6510  0.1761
 1019TIP3    H224617   2.422   1.256   1.171 -2.0482  0.9515 -0.0595
 1020TIP3   OH224618   3.905   2.048   0.729 -0.0749  0.2067  0.2148
 1020TIP3    H124619   3.985   2.080   0.771 -0.8409 -0.6079  2.4514
 1020TIP3    H224620   3.930   1.962   0.693 -0.0057 -0.1999  1.2107
 1021TIP3   OH224621   0.550   5.883   0.520  0.1866 -0.1615 -0.3271
 1021TIP3    H124622   0.539   5.976   0.540 -1.9338 -0.1415 -1.2423
 1021TIP3    H224623   0.503   5.871   0.437  1.1553 -1.8881 -0.6637
 1022TIP3   OH224624   4.876   3.887   7.135  0.9179 -0.3355 -0.4373
 1022TIP3    H124625   4.956   3.932   7.161  1.9597 -1.2525 -1.8671
 1022TIP3    H224626   4.887   3.873   7.041 -1.1603 -0.0615 -0.7667
 1023TIP3   OH224627   0.185   1.328   0.039 -0.5424 -0.4517 -0.1661
 1023TIP3    H124628   0.221   1.339   0.126 -1.1396 -0.0394  0.0337
 1023TIP3    H224629   0.220   1.401  -0.012 -4.0762  2.3620  1.0196
 1024TIP3   OH224630   2.341   0.686   7.862  0.3777  0.5765 -0.0151
 1024TIP3    H124631   2.338   0.738   7.782  0.1783  0.2528 -0.2194
 1024TIP3    H224632   2.356   0.597   7.832  0.4085  0.4703  0.3144
 1025TIP3   OH224633   5.344   6.482   7.771  0.4541  0.6993 -0.3425
 1025TIP3    H124634   5.428   6.485   7.725  0.0247 -1.9016 -1.4804
 1025TIP3    H224635   5.323   6.573   7.790  2.1956  1.6252 -2.5303
 1026TIP3   OH224636   2.064   4.610   0.241  0.2477 -0.6460  0.5970
 1026TIP3    H124637   1.991   4.571   0.193  0.0254 -0.9636  1.1764
 1026TIP3    H224638   2.079   4.694   0.199 -0.8065 -0.3418  0.8145
 1027TIP3   OH224639   5.869   0.878   1.359 -0.3319 -0.0649 -0.7871
 1027TIP3    H124640   5.826   0.859   1.275 -1.4367 -2.5752  0.2207
 1027TIP3    H224641   5.960   0.852   1.346 -0.3945 -0.0313 -1.3198
 1028TIP3   OH224642   2.769   6.276   1.906  0.1258 -0.5216  0.6624
 1028TIP3    H124643   2.757   6.225   1.986 -0.0402  1.2669  1.8447
 1028TIP3    H224644   2.855   6.317   1.917  0.3037 -0.6119 -0.3051
 1029TIP3   OH224645   6.057   2.893   6.788 -0.1001 -0.1715  0.2041
 1029TIP3    H124646   6.117   2.874   6.715 -0.7180 -0.4876 -0.2367
 1029TIP3    H224647   6.103   2.958   6.841  0.0122  0.7103 -0.9311
 1030TIP3   OH224648   5.212   0.709   2.647  0.2376 -0.1975 -0.0452
 1030TIP3    H124649   5.307   0.714   2.644  0.2583 -0.8847 -1.4974
 1030TIP3    H224650   5.183   0.799   2.654  0.9969  0.0383  0.1360
 1031TIP3   OH224651   4.837   5.684   2.219  0.6098  0.3518 -0.3095
 1031TIP3    H124652   4.856   5.612   2.279  0.3884  0.6031  0.0692
 1031TIP3    H224653   4.742   5.692   2.221  0.6478  0.7788 -0.2053
 1032TIP3   OH224654   4.285   6.076   7.025  0.4500  0.1053 -0.3023
 1032TIP3    H124655   4.211   6.095   7.082 -1.1311 -1.6042 -1.6573
 1032TIP3    H224656   4.267   6.124   6.944  0.4721 -0.8275 -0.8727
 1033TIP3   OH224657   3.551   4.464   1.839  0.7135 -0.3248 -0.0139
 1033TIP3    H124658   3.495   4.387   1.831  1.5387 -0.8002 -1.4812
 1033TIP3    H224659   3.559   4.478   1.933 -3.4922  1.0037  0.3538
 1034TIP3   OH224660   6.117   5.878   0.130 -0.1247 -0.6995  0.1737
 1034TIP3    H124661   6.034   5.841   0.101 -0.4552 -0.0943  0.3360
 1034TIP3    H224662   6.149   5.927   0.055 -0.3114 -0.2672  0.3733
 1035TIP3   OH224663   0.476   0.408   2.789 -0.3982 -0.2015 -0.2205
 1035TIP3    H124664   0.395   0.358   2.799 -1.0529  0.9509  0.4594
 1035TIP3    H224665   0.448   0.495   2.763  0.6532  0.1304 -0.2933
 1036TIP3   OH224666   4.893   3.767   0.605  0.1796  0.3880  0.0769
 1036TIP3    H124667   4.970   3.760   0.661  1.0405 -0.8691 -1.2126
 1036TIP3    H224668   4.886   3.682   0.562  0.1317  1.5763 -2.4678
 1037TIP3   OH224669   5.249   2.786   1.484 -0.1049 -0.3863 -0.1904
 1037TIP3    H124670   5.185   2.816   1.419 -2.2869 -3.2630  0.4115
 1037TIP3    H224671   5.221   2.827   1.566 -0.6622 -0.9197 -0.1043
 1038TIP3   OH224672   2.665   3.922   2.143  0.3809 -0.3287 -0.0055
 1038TIP3    H124673   2.667   4.015   2.120 -0.2913  0.0468  1.3333
 1038TIP3    H224674   2.617   3.919   2.226 -2.0425 -2.1589 -1.3669
 1039TIP3   OH224675   1.650   2.683   8.159  0.1618  0.0766 -0.2193
 1039TIP3    H124676   1.566   2.648   8.129 -0.0761  0.5146 -0.0824
 1039TIP3    H224677   1.704   2.606   8.176  0.4584 -0.2005 -2.1766
 1040TIP3   OH224678   5.984   2.251   0.103 -0.3122 -0.1275  0.0709
 1040TIP3    H124679   5.967   2.163   0.070 -0.1503  0.1804 -0.8826
 1040TIP3    H224680   5.908   2.273   0.156 -0.4096 -0.7897  0.2078
 1041TIP3   OH224681   6.238   0.737   8.683  0.3651  0.3692 -0.5949
 1041TIP3    H124682   6.151   0.729   8.644  0.4650 -1.6208 -0.5111
 1041TIP3    H224683   6.298   0.711   8.613  0.8712  1.1876 -0.4786
 1042TIP3   OH224684   4.617   0.850   6.952  0.5166 -0.4653 -0.4747
 1042TIP3    H124685   4.691   0.870   6.895  1.8299 -1.1254  0.9228
 1042TIP3    H224686   4.571   0.779   6.909  0.9674 -0.3631 -1.1290
 1043TIP3   OH224687   4.568   5.750   8.267 -0.0078  0.1629 -0.9374
 1043TIP3    H124688   4.567   5.685   8.337 -1.3268  1.1355 -0.0036
 1043TIP3    H224689   4.652   5.796   8.279 -0.3800  0.5704  0.2738
 1044TIP3   OH224690   1.987   1.238   3.143 -0.4873  0.7038  0.5291
 1044TIP3    H124691   1.964   1.197   3.226  0.4173 -1.7780 -0.3457
 1044TIP3    H224692   1.972   1.170   3.078 -1.0989  2.5570 -1.3607
 1045TIP3   OH224693   0.015   3.927   1.864 -0.0908 -0.3414  0.3947
 1045TIP3    H124694   0.080   3.932   1.934 -0.7711  1.0460  0.9618
 1045TIP3    H224695  -0.069   3.940   1.908 -0.6249 -0.5043 -0.5447
 1046TIP3   OH224696   3.991   0.446   2.808  0.1459 -0.1018  0.1295
 1046TIP3    H124697   3.911   0.437   2.756 -0.3321  0.7621  0.6967
 1046TIP3    H224698   3.993   0.538   2.834  1.2917 -0.1258  0.1911
 1047TIP3   OH224699   6.360   5.119   1.350  0.7618  0.2812  0.2133
 1047TIP3    H124700   6.402   5.050   1.402 -0.0266  0.5680  1.2682
 1047TIP3    H224701   6.424   5.190   1.350  0.6010  0.4400  1.1812
 1048TIP3   OH224702   1.870   2.997   0.607 -0.3840 -0.3962  0.3760
 1048TIP3    H124703   1.859   3.007   0.702  0.7388 -0.2274  0.4921
 1048TIP3    H224704   1.780   2.997   0.574 -0.7937 -0.3743  1.4279
 1049TIP3   OH224705   4.845   0.054   6.958  0.6339  0.0436 -0.2034
 1049TIP3    H124706   4.785   0.000   7.009  0.0682 -0.5328 -1.4270
 1049TIP3    H224707   4.931   0.014   6.971  0.6359  0.3724  0.8900
 1050TIP3   OH224708   3.842   1.357   8.777 -0.2253 -0.1477 -0.3236
 1050TIP3    H124709   3.900   1.345   8.701 -1.4030  0.2505 -1.3232
 1050TIP3    H224710   3.846   1.274   8.823  1.3816 -0.0226 -0.1800
 1051TIP3   OH224711   3.710   4.089   2.716 -0.0220  0.0797 -0.4428
 1051TIP3    H124712   3.675   4.019   2.771 -0.1288 -0.4829 -1.2164
 1051TIP3    H224713   3.772   4.046   2.658  0.0336  0.6514 -0.8198
 1052TIP3   OH224714   0.916   5.460   0.573  0.1285  0.2476 -0.2947
 1052TIP3    H124715   0.953   5.481   0.659 -0.0729  3.4689 -0.8718
 1052TIP3    H224716   0.823   5.444   0.591  0.3064 -0.2684  0.2144
 1053TIP3   OH224717   3.872   4.071   1.408 -0.4086  0.1917  0.0262
 1053TIP3    H124718   3.908   4.160   1.412 -0.2808  0.1091  0.8459
 1053TIP3    H224719   3.949   4.015   1.417 -0.6923  0.0095  1.4830
 1054TIP3   OH224720   1.541   3.831   0.248 -0.1926  0.0763 -0.4591
 1054TIP3    H124721   1.516   3.768   0.180 -0.1170 -0.4033 -0.0499
 1054TIP3    H224722   1.458   3.874   0.271 -0.1238  0.6867 -1.2777
 1055TIP3   OH224723   0.306   1.570   7.966  0.2511  0.1457 -0.6289
 1055TIP3    H124724   0.223   1.523   7.960  0.3620 -0.8164  3.1153
 1055TIP3    H224725   0.369   1.505   7.998  1.8030  1.4974 -0.7798
 1056TIP3   OH224726   2.032   2.516   6.783  0.1304  0.3868 -0.2600
 1056TIP3    H124727   1.970   2.560   6.724 -1.0709 -0.7684  0.0859
 1056TIP3    H224728   2.004   2.425   6.782  0.7524  0.1587  1.2829
 1057TIP3   OH224729   3.590   2.331   7.999 -0.6689  0.1663  0.6450
 1057TIP3    H124730   3.639   2.386   7.938 -1.0381 -1.3103 -1.0830
 1057TIP3    H224731   3.512   2.383   8.020 -0.5203  0.7312 -0.1325
 1058TIP3   OH224732   1.639   5.773   1.488 -0.0961  0.0368 -0.6397
 1058TIP3    H124733   1.657   5.693   1.438  0.3715  0.1419 -0.6442
 1058TIP3    H224734   1.725   5.800   1.521 -0.2952  0.3803 -0.4003
 1059TIP3   OH224735   6.710   2.399   8.459 -0.6009 -0.5252  0.4247
 1059TIP3    H124736   6.693   2.331   8.523 -1.5094 -0.5839  0.1387
 1059TIP3    H224737   6.784   2.366   8.407  0.1026 -0.4968  1.3880
 1060TIP3   OH224738   6.411   2.016   2.839  0.5429 -0.1139 -0.0261
 1060TIP3    H124739   6.348   2.086   2.857 -1.1007 -1.3616 -0.6664
 1060TIP3    H224740   6.396   1.994   2.747  1.3434 -1.0109  0.0441
 1061TIP3   OH224741   3.849   3.010   0.321 -0.4656 -0.2841 -0.1225
 1061TIP3    H124742   3.814   3.010   0.232 -1.1424 -3.6693 -0.0135
 1061TIP3    H224743   3.884   2.921   0.333  0.6144  0.3931  2.6276
 1062TIP3   OH224744   4.179   0.183   1.337  0.7246  0.5935  0.3186
 1062TIP3    H124745   4.225   0.147   1.261 -0.0325  0.9694 -0.3194
 1062TIP3    H224746   4.145   0.106   1.383 -2.4914  0.4277 -2.0327
 1063TIP3   OH224747   1.894   1.406   0.818 -0.4161 -0.0533  0.1221
 1063TIP3    H124748   1.967   1.412   0.879 -0.0104  0.0760 -0.3708
 1063TIP3    H224749   1.925   1.451   0.739 -0.4336 -1.3666 -0.6528
 1064TIP3   OH224750   0.791   1.028   8.586 -0.4995 -0.2404 -0.7449
 1064TIP3    H124751   0.854   0.956   8.590 -1.8458 -1.3832  1.2520
 1064TIP3    H224752   0.845   1.107   8.598  0.4946 -1.2611  2.3164
 1065TIP3   OH224753   1.814   5.688   8.463  0.2863 -0.2471 -0.2088
 1065TIP3    H124754   1.815   5.600   8.500  0.9565  0.6178  1.9854
 1065TIP3    H224755   1.904   5.703   8.433 -0.3377 -1.0909 -2.7393
 1066TIP3   OH224756   2.735   2.813   6.835  0.4616  0.1167  0.3456
 1066TIP3    H124757   2.720   2.737   6.891 -0.8840  0.4022  0.4053
 1066TIP3    H224758   2.757   2.776   6.750  0.3210 -0.3367  0.5046
 1067TIP3   OH224759   2.585   0.470   2.605  0.4981 -0.1945  0.5000
 1067TIP3    H124760   2.658   0.528   2.626  1.4556 -0.9143 -0.7142
 1067TIP3    H224761   2.593   0.398   2.668  2.5528 -1.6694 -1.2911
 1068TIP3   OH224762   6.131   4.104   0.924  0.8348 -0.5572  0.3832
 1068TIP3    H124763   6.183   4.176   0.890  0.1818  0.1635  0.8481
 1068TIP3    H224764   6.184   4.026   0.910  0.4669 -0.3614 -2.5398
 1069TIP3   OH224765   4.507   2.255   8.505  0.0474  0.3513  0.1039
 1069TIP3    H124766   4.499   2.160   8.492  0.4822 -0.1161  2.5992
 1069TIP3    H224767   4.593   2.267   8.544  0.3312  1.9148 -0.9079
 1070TIP3   OH224768   4.223   3.205   0.113  0.7706 -0.1110  0.0967
 1070TIP3    H124769   4.262   3.153   0.183 -0.6767  0.6209  1.4916
 1070TIP3    H224770   4.293   3.263   0.084  1.6092 -0.9613  0.3673
 1071TIP3   OH224771   0.608   6.260   1.943  0.0909  0.1242 -0.1815
 1071TIP3    H124772   0.620   6.347   1.905  0.8742  0.1240  0.0436
 1071TIP3    H224773   0.696   6.222   1.944 -0.4401 -1.2996 -1.7411
 1072TIP3   OH224774   4.021   6.076   0.348  0.5811 -0.3241 -0.1368
 1072TIP3    H124775   4.054   6.097   0.261 -0.8959 -3.1381 -1.5137
 1072TIP3    H224776   3.945   6.132   0.359  0.0262 -0.8251 -1.2596
 1073TIP3   OH224777   4.634   4.199   1.585  0.2394 -0.2803 -0.0871
 1073TIP3    H124778   4.597   4.111   1.593 -1.0251  0.3044  0.7066
 1073TIP3    H224779   4.611   4.227   1.497  0.2713 -0.5657 -0.1878
 1074TIP3   OH224780   2.486   0.443   0.810  0.2808 -0.3769 -0.0841
 1074TIP3    H124781   2.549   0.503   0.849 -0.1360 -0.4478  0.7258
 1074TIP3    H224782   2.527   0.357   0.818 -0.3835 -0.5838  1.5203
 1075TIP3   OH224783   2.099   5.740   2.162  0.1853  0.6352  0.2416
 1075TIP3    H124784   2.055   5.672   2.213 -1.3755  1.1766 -0.3106
 1075TIP3    H224785   2.184   5.751   2.204 -0.4005 -0.1029  1.6906
 1076TIP3   OH224786   3.579   5.044   7.411 -0.1090 -0.1987  0.1648
 1076TIP3    H124787   3.590   5.061   7.318  0.5968 -1.0591  0.0724
 1076TIP3    H224788   3.516   5.109   7.441 -1.9928 -1.2389 -1.3380
 1077TIP3   OH224789   4.131   4.487   0.623  0.7688  0.4233  0.1351
 1077TIP3    H124790   4.186   4.454   0.552 -0.9315 -1.4713 -0.4091
 1077TIP3    H224791   4.131   4.417   0.688 -1.2524  0.1722 -0.0639
 1078TIP3   OH224792   3.909   0.733   0.311 -0.7689 -0.3414 -0.4018
 1078TIP3    H124793   3.879   0.824   0.306 -0.9045 -0.1683  2.3811
 1078TIP3    H224794   3.889   0.705   0.400  1.3706 -2.3786 -0.4602
 1079TIP3   OH224795   1.687   0.911   0.394  0.5606  0.3445 -0.1899
 1079TIP3    H124796   1.734   0.845   0.446 -0.2108  0.0809  0.1854
 1079TIP3    H224797   1.596   0.881   0.393  0.3873  0.8582 -0.8930
 1080TIP3   OH224798   4.261   0.348   8.243 -0.4530 -0.1899 -0.4383
 1080TIP3    H124799   4.350   0.357   8.279 -0.4940  0.1866 -0.4207
 1080TIP3    H224800   4.271   0.288   8.170 -0.3863 -1.0722  0.2769
 1081TIP3   OH224801   0.846   2.174   6.916 -0.1098 -0.6881  0.5741
 1081TIP3    H124802   0.776   2.164   6.852  1.4122  3.6629 -2.1550
 1081TIP3    H224803   0.900   2.095   6.905 -0.6677 -0.7431 -2.5594
 1082TIP3   OH224804   6.596   6.450   2.456  0.0479  0.0830 -0.9110
 1082TIP3    H124805   6.507   6.426   2.480 -0.0047  0.4978 -0.6927
 1082TIP3    H224806   6.648   6.371   2.473  0.5398  1.0954  3.2359
 1083TIP3   OH224807   4.931   5.515   0.332 -0.1874 -0.0850 -0.1115
 1083TIP3    H124808   4.972   5.493   0.248  1.4814  1.5046  0.2230
 1083TIP3    H224809   4.942   5.610   0.339 -3.8234  0.4606  0.1298
 1084TIP3   OH224810   4.881   2.607   0.672  0.2339  0.3791 -0.3134
 1084TIP3    H124811   4.818   2.574   0.608  1.1257 -0.5934 -0.7171
 1084TIP3    H224812   4.855   2.566   0.755 -1.1296  1.9034  0.0697
 1085TIP3   OH224813   6.554   0.686   8.336  0.4949 -0.3858 -0.0749
 1085TIP3    H124814   6.625   0.623   8.348  0.9644 -0.2067 -1.6544
 1085TIP3    H224815   6.587   0.766   8.377  1.4618 -0.1615 -1.2227
 1086TIP3   OH224816   0.128   6.215   8.887  0.0362  0.1299  0.2216
 1086TIP3    H124817   0.112   6.183   8.798 -0.6331  1.1849 -0.0522
 1086TIP3    H224818   0.059   6.174   8.940 -1.4408  1.8244 -0.3057
 1087TIP3   OH224819   5.086   0.186   7.379 -0.3351 -0.0108  0.0076
 1087TIP3    H124820   5.024   0.234   7.324  0.2208  0.2798 -0.3602
 1087TIP3    H224821   5.139   0.253   7.422  0.7845 -0.2881 -0.9035
 1088TIP3   OH224822   1.805   1.438   3.061 -0.0782  0.3326  1.0020
 1088TIP3    H124823   1.846   1.367   3.111 -0.7075 -0.3118  0.6306
 1088TIP3    H224824   1.873   1.504   3.052  1.1079 -0.9897 -0.1653
 1089TIP3   OH224825   2.279   2.880   0.737  0.1198 -0.4376 -0.8367
 1089TIP3    H124826   2.359   2.834   0.712  1.4762  2.4543 -2.4082
 1089TIP3    H224827   2.221   2.872   0.661 -0.8506 -1.9154  0.0186
 1090TIP3   OH224828   1.968   5.974   0.206 -0.1774 -0.4148  0.2372
 1090TIP3    H124829   2.061   5.968   0.184 -0.2760  0.3018 -0.4034
 1090TIP3    H224830   1.938   6.054   0.164 -1.1745 -0.8313  0.1220
 1091TIP3   OH224831   6.269   1.838   1.929 -0.0637 -0.2027 -0.7596
 1091TIP3    H124832   6.196   1.823   1.869  0.2129 -2.4675 -0.6110
 1091TIP3    H224833   6.244   1.791   2.009  0.2161  1.5593  0.4105
 1092TIP3   OH224834   1.776   6.394   8.047  0.1689  0.1394  0.1470
 1092TIP3    H124835   1.747   6.305   8.030 -1.4714  0.7638 -0.5113
 1092TIP3    H224836   1.863   6.384   8.087  0.8104 -1.6741 -1.5629
 1093TIP3   OH224837   4.361   4.662   7.515 -0.5112 -0.3241  0.2446
 1093TIP3    H124838   4.286   4.687   7.569 -1.4170  0.1616 -1.1860
 1093TIP3    H224839   4.355   4.718   7.438  1.9195  0.4554  0.5295
 1094TIP3   OH224840   0.073   3.479   2.231 -0.2033  0.3074 -0.1561
 1094TIP3    H124841   0.017   3.402   2.244  1.4919 -0.8848  0.5255
 1094TIP3    H224842   0.117   3.491   2.315  1.6922  0.2136 -1.0721
 1095TIP3   OH224843   5.751   4.477   1.267  0.1003 -1.3514 -0.4320
 1095TIP3    H124844   5.665   4.438   1.254 -1.0546  0.2006  1.8102
 1095TIP3    H224845   5.779   4.445   1.352  1.1592 -0.8343 -0.5764
 1096TIP3   OH224846   3.994   1.634   8.812 -0.5384  0.2278  0.2707
 1096TIP3    H124847   3.941   1.556   8.796  1.2404 -1.0911  0.4387
 1096TIP3    H224848   4.074   1.619   8.762 -0.6221  2.5477 -0.6807
 1097TIP3   OH224849   5.002   2.719   7.222 -0.8829  0.3279  0.5945
 1097TIP3    H124850   4.995   2.814   7.224 -2.2989  0.3102 -1.1755
 1097TIP3    H224851   5.096   2.701   7.230 -0.5200  1.8896  0.0643
 1098TIP3   OH224852   1.120   1.403   2.378  0.1339  0.4114 -0.0569
 1098TIP3    H124853   1.030   1.391   2.408  0.2444 -0.3958 -0.0134
 1098TIP3    H224854   1.174   1.389   2.456  0.2724  1.6303  0.0814
 1099TIP3   OH224855   3.535   1.709   1.003 -0.0442  0.4940 -0.0987
 1099TIP3    H124856   3.499   1.693   1.090 -0.0833 -1.4221 -0.4258
 1099TIP3    H224857   3.588   1.788   1.014 -0.2999  0.4803  1.5905
 1100TIP3   OH224858   4.204   4.005   0.895  0.4503  0.1403 -0.2836
 1100TIP3    H124859   4.212   4.024   0.989 -1.1083 -0.0932 -0.0781
 1100TIP3    H224860   4.110   4.009   0.878  0.6572 -0.5305 -1.6934
 1101TIP3   OH224861   2.881   1.136   8.817 -0.4132 -0.0891  0.4361
 1101TIP3    H124862   2.947   1.193   8.856 -0.5141 -0.6128  1.4033
 1101TIP3    H224863   2.863   1.175   8.731  1.1688  0.0276  0.1384
 1102TIP3   OH224864   5.501   3.163   6.890  0.4728 -0.3977  0.8954
 1102TIP3    H124865   5.580   3.216   6.881  0.9628 -0.9640  1.7169
 1102TIP3    H224866   5.533   3.072   6.893 -0.2507 -0.6642  0.6876
 1103TIP3   OH224867   1.582   5.161   8.140  0.4110 -0.1577  0.1488
 1103TIP3    H124868   1.515   5.209   8.188  0.5868 -2.0588  2.4678
 1103TIP3    H224869   1.534   5.109   8.076 -0.2210 -0.5092  0.8982
 1104TIP3   OH224870   2.060   4.263   2.784  0.8079 -0.3422  0.1975
 1104TIP3    H124871   2.041   4.355   2.763 -0.4866 -0.6310  0.0273
 1104TIP3    H224872   2.140   4.243   2.735  0.3075  0.2826 -0.9143
 1105TIP3   OH224873   5.104   4.384   1.012 -0.0271 -0.5195  0.3366
 1105TIP3    H124874   5.193   4.354   0.992  0.4505  0.0138  1.5967
 1105TIP3    H224875   5.109   4.420   1.100 -1.3171  0.2979  0.1102
 1106TIP3   OH224876   3.430   2.855   0.770  0.2019  0.0505 -0.1126
 1106TIP3    H124877   3.523   2.868   0.754 -0.0001  2.9228  0.4321
 1106TIP3    H224878   3.409   2.771   0.729  2.5844  0.3233 -2.1040
 1107TIP3   OH224879   5.670   4.703   1.701 -0.1537 -0.2106  0.0695
 1107TIP3    H124880   5.660   4.773   1.637  0.3335  0.6812  0.9346
 1107TIP3    H224881   5.655   4.745   1.786  0.6744 -1.0169  0.6450
 1108TIP3   OH224882   1.608   2.951   0.288 -0.0022 -0.0577  0.2171
 1108TIP3    H124883   1.608   2.981   0.379 -1.3777  0.2964  0.1239
 1108TIP3    H224884   1.672   3.006   0.244 -1.2635  1.6285  0.4066
 1109TIP3   OH224885   5.990   1.825   7.045  0.1671 -0.2894 -0.5528
 1109TIP3    H124886   5.896   1.807   7.039  0.2433 -2.0606  2.0554
 1109TIP3    H224887   6.005   1.845   7.138  2.4299 -0.4509 -0.8240
 1110TIP3   OH224888   1.133   0.114   1.539  0.4592  0.2906 -0.0864
 1110TIP3    H124889   1.119   0.058   1.462 -0.2621  0.6584 -0.2261
 1110TIP3    H224890   1.053   0.165   1.546  1.3592  1.7899 -0.3401
 1111TIP3   OH224891   1.484   0.526   1.395  0.7545  0.3582  0.6883
 1111TIP3    H124892   1.474   0.451   1.335  0.3037  0.2912  0.8433
 1111TIP3    H224893   1.557   0.501   1.452 -0.7733 -0.9710  2.1925
 1112TIP3   OH224894   5.083   3.663   7.249  0.2266  0.0043  0.0048
 1112TIP3    H124895   5.107   3.741   7.299  0.0365 -0.2897  0.5647
 1112TIP3    H224896   5.140   3.665   7.173  2.0279 -0.6497  1.2550
 1113TIP3   OH224897   6.359   2.591   7.458  0.4424 -0.1254 -0.3160
 1113TIP3    H124898   6.378   2.592   7.551  1.2719  1.8835 -0.4526
 1113TIP3    H224899   6.419   2.525   7.422 -0.7653 -1.8437  0.6649
 1114TIP3   OH224900   2.807   3.879   8.567  0.0240  0.3030  0.1063
 1114TIP3    H124901   2.785   3.924   8.648 -1.5971  0.0255 -0.1441
 1114TIP3    H224902   2.723   3.864   8.524  0.3698 -3.3167  0.3805
 1115TIP3   OH224903   5.107   4.065   0.147  0.0235 -0.2581  0.4256
 1115TIP3    H124904   5.058   4.141   0.115  3.2957  1.5517 -0.7938
 1115TIP3    H224905   5.042   3.995   0.151 -2.5042  1.7545 -1.5110
 1116TIP3   OH224906   2.079   2.659   1.384 -0.4632 -0.1046  0.4325
 1116TIP3    H124907   2.067   2.574   1.427 -2.4598 -0.4927 -0.7609
 1116TIP3    H224908   2.053   2.644   1.293  0.1912  1.5510 -0.0679
 1117TIP3   OH224909   4.484   4.329   1.368 -0.2497  0.0658 -0.0593
 1117TIP3    H124910   4.488   4.400   1.304  0.9472  1.1290  1.1377
 1117TIP3    H224911   4.524   4.254   1.324 -2.7565 -0.3628 -1.8480
 1118TIP3   OH224912   5.719   1.385   7.862  0.4326  0.8954  0.3295
 1118TIP3    H124913   5.626   1.368   7.850  0.6668  0.5949 -1.3578
 1118TIP3    H224914   5.727   1.411   7.953 -1.1261 -0.2063  0.8276
 1119TIP3   OH224915   0.841   5.641   8.166  0.1977  0.3918  0.1161
 1119TIP3    H124916   0.826   5.734   8.182  0.8296  0.8438 -1.6951
 1119TIP3    H224917   0.786   5.596   8.230 -0.3092  2.0111  0.8460
 1120TIP3   OH224918   0.961   5.821   7.616  0.3625  0.3596 -0.0388
 1120TIP3    H124919   0.924   5.813   7.528  2.6383 -0.3526 -0.9917
 1120TIP3    H224920   0.904   5.767   7.671  0.6502 -1.6858 -1.6614
 1121TIP3   OH224921   5.287   3.243   8.470 -0.1755  0.0894 -0.2265
 1121TIP3    H124922   5.379   3.217   8.471 -0.1276  0.2449  0.6034
 1121TIP3    H224923   5.239   3.162   8.453  0.1367  0.1404 -1.4528
 1122TIP3   OH224924   0.218   1.960   1.930  0.2456  0.2337 -0.7905
 1122TIP3    H124925   0.180   2.001   2.007  1.4510 -0.6482  0.3217
 1122TIP3    H224926   0.193   2.017   1.857 -1.9954  0.4032  0.0510
 1123TIP3   OH224927   2.068   1.630   0.912  0.1530  0.4960  0.5019
 1123TIP3    H124928   2.061   1.650   0.819  1.0373 -0.6971  0.1594
 1123TIP3    H224929   2.157   1.654   0.935  0.6163 -1.1178  0.5309
 1124TIP3   OH224930   6.446   2.854   1.277  0.2602 -0.2411  0.3750
 1124TIP3    H124931   6.438   2.851   1.182  0.3860  2.1288  0.2348
 1124TIP3    H224932   6.356   2.860   1.309  0.2290 -0.8252  0.4083
 1125TIP3   OH224933   1.373   4.398   0.378  0.1283  0.3682  0.5037
 1125TIP3    H124934   1.443   4.336   0.401  1.1972  1.7934  1.2912
 1125TIP3    H224935   1.401   4.436   0.295 -1.3800 -1.3623 -0.8806
 1126TIP3   OH224936   2.045   1.536   0.623 -0.2287  0.4615 -0.4143
 1126TIP3    H124937   2.065   1.613   0.570 -1.1640 -0.6026 -2.4333
 1126TIP3    H224938   2.069   1.462   0.567 -0.7895 -0.7308  0.8719
 1127TIP3   OH224939   1.361   6.638   0.179  0.3004 -0.4638 -0.0215
 1127TIP3    H124940   1.347   6.564   0.119 -1.1956 -0.3763  0.1795
 1127TIP3    H224941   1.456   6.646   0.185  0.4947 -0.8079 -1.9691
 1128TIP3   OH224942   5.220   0.983   8.790  0.2751 -0.3991 -0.7163
 1128TIP3    H124943   5.225   1.072   8.825 -0.3359  0.1936 -2.0829
 1128TIP3    H224944   5.165   0.936   8.852  0.8936  0.0588  0.2124
 1129TIP3   OH224945   5.537   1.407   0.124  0.0820 -0.6773 -0.0663
 1129TIP3    H124946   5.632   1.408   0.112  0.1057  0.3256  0.1678
 1129TIP3    H224947   5.506   1.339   0.063  1.1912 -2.9618  1.7685
 1130TIP3   OH224948   2.017   0.180   1.242 -0.2928  0.0121 -0.0792
 1130TIP3    H124949   1.931   0.144   1.264 -0.1825 -0.4999 -0.4748
 1130TIP3    H224950   2.076   0.105   1.244 -0.0267  0.1971 -0.7329
 1131TIP3   OH224951   6.733   2.971   0.683  0.0993 -0.3814  0.3407
 1131TIP3    H124952   6.737   2.928   0.768 -1.4699 -1.9864 -0.3232
 1131TIP3    H224953   6.644   3.008   0.679  0.7776  1.3231  0.1201
 1132TIP3   OH224954   4.875   1.046   2.504  0.1859 -0.2422 -0.0424
 1132TIP3    H124955   4.780   1.041   2.513 -0.3468  3.0672 -2.0374
 1132TIP3    H224956   4.895   1.138   2.521  2.6868 -0.3180 -2.0390
 1133TIP3   OH224957   5.178   3.390   8.052 -0.6344  0.6923  0.4029
 1133TIP3    H124958   5.205   3.408   8.142 -0.7751 -0.1117  0.6138
 1133TIP3    H224959   5.256   3.408   8.000  0.6147 -2.2484  1.0694
 1134TIP3   OH224960   4.272   1.639   0.634 -0.3333  0.4494 -0.1273
 1134TIP3    H124961   4.248   1.655   0.543 -0.3452  2.1179  0.1236
 1134TIP3    H224962   4.358   1.597   0.629 -1.4297 -1.8170 -0.9314
 1135TIP3   OH224963   5.457   4.892   8.622 -0.0284 -0.0458 -0.2956
 1135TIP3    H124964   5.488   4.919   8.536  0.6495  1.5304  0.3928
 1135TIP3    H224965   5.475   4.798   8.626  3.0782  0.4082 -0.6578
 1136TIP3   OH224966   4.292   0.551   0.720  0.0509 -0.2328 -0.0233
 1136TIP3    H124967   4.221   0.490   0.701  0.6508 -0.8210 -0.4251
 1136TIP3    H224968   4.252   0.638   0.713 -0.7462 -0.5710  0.2758
 1137TIP3   OH224969   5.294   6.640   1.446 -0.6410 -0.2050 -0.5744
 1137TIP3    H124970   5.244   6.616   1.368  1.1892 -1.3766 -1.4642
 1137TIP3    H224971   5.231   6.633   1.518 -2.7818  2.3343 -2.0155
 1138TIP3   OH224972   0.145   4.130   7.573 -0.0125  0.0262  0.1314
 1138TIP3    H124973   0.116   4.138   7.482 -0.0602 -0.1464  0.1306
 1138TIP3    H224974   0.231   4.170   7.574 -0.3304  0.7173  0.1715
 1139TIP3   OH224975   6.668   6.704   1.121  0.1245 -0.0053 -0.5355
 1139TIP3    H124976   6.628   6.623   1.154  0.8789 -0.5134 -0.8567
 1139TIP3    H224977   6.603   6.739   1.059  0.8203 -1.7055 -2.3354
 1140TIP3   OH224978   6.671   5.418   8.090  0.1494 -0.1447  0.2280
 1140TIP3    H124979   6.627   5.422   8.175  1.1950 -1.6905  0.8816
 1140TIP3    H224980   6.674   5.509   8.061 -0.0635  0.4482  1.9352
 1141TIP3   OH224981   6.242   0.690   0.347 -0.0185 -0.3813  0.5309
 1141TIP3    H124982   6.154   0.652   0.347 -0.7878  1.3422  0.0024
 1141TIP3    H224983   6.296   0.623   0.304 -1.7626 -0.0414 -2.4888
 1142TIP3   OH224984   4.161   1.056   0.828  0.1047  0.1613  0.0520
 1142TIP3    H124985   4.220   0.982   0.814 -1.3127 -0.8321 -1.0435
 1142TIP3    H224986   4.214   1.121   0.873  1.7217 -1.0781  0.0402
 1143TIP3   OH224987   3.759   2.641   6.858 -0.8054  0.2298  0.1380
 1143TIP3    H124988   3.791   2.559   6.820  0.2103  1.2119 -1.2570
 1143TIP3    H224989   3.780   2.635   6.951 -0.2611 -0.8792 -0.0386
 1144TIP3   OH224990   6.119   2.892   8.125 -0.4996 -0.2364  0.6042
 1144TIP3    H124991   6.176   2.969   8.125 -0.4874 -0.2402  1.1962
 1144TIP3    H224992   6.120   2.862   8.216 -1.0022 -0.5651  0.5038
 1145TIP3   OH224993   1.818   4.997   0.326 -0.4368  0.1641 -0.3634
 1145TIP3    H124994   1.775   5.066   0.376 -1.2042  0.3866 -1.2949
 1145TIP3    H224995   1.889   5.042   0.279 -1.4094  0.5058 -1.5669
 1146TIP3   OH224996   6.668   3.063   7.930  0.2849 -0.1033  0.2744
 1146TIP3    H124997   6.738   3.004   7.903  0.4094 -0.2885  0.9609
 1146TIP3    H224998   6.588   3.012   7.922  0.6156 -1.3244  3.3103
 1147TIP3   OH224999   6.691   1.248   0.842  0.0198  0.2718  0.2282
 1147TIP3    H125000   6.623   1.236   0.908  1.1828 -1.5765  1.1938
 1147TIP3    H225001   6.754   1.308   0.883  0.5816 -0.6237  0.7141
 1148TIP3   OH225002   1.128   1.181   0.223 -0.1461  0.3963 -1.1008
 1148TIP3    H125003   1.079   1.100   0.214 -2.2167  1.2958  0.9677
 1148TIP3    H225004   1.061   1.250   0.226  1.0740  1.6759  2.2132
 1149TIP3   OH225005   3.615   0.182   8.049  0.0724  0.1889 -0.0461
 1149TIP3    H125006   3.645   0.144   8.132  0.1911  0.1771 -0.0945
 1149TIP3    H225007   3.550   0.120   8.017  0.0090  0.2050  0.0509
 1150TIP3   OH225008   4.288   2.692   0.711  0.1148  0.5300 -0.4741
 1150TIP3    H125009   4.282   2.615   0.768  1.1371  0.9865  0.2814
 1150TIP3    H225010   4.196   2.714   0.692 -0.2032 -1.4963 -1.6292
 1151TIP3   OH225011   3.528   2.524   0.791 -0.0451 -0.4022 -0.7274
 1151TIP3    H125012   3.565   2.550   0.706  0.6643 -0.6654 -0.5096
 1151TIP3    H225013   3.584   2.569   0.855 -0.4662 -0.3494 -0.3991
 1152TIP3   OH225014   0.587   4.268   7.333  0.1995 -0.2011 -0.0055
 1152TIP3    H125015   0.519   4.230   7.277 -0.8867 -0.2597  1.2958
 1152TIP3    H225016   0.557   4.356   7.352  0.5516 -0.1774  0.4786
 1153TIP3   OH225017   2.834   1.631   0.466  0.2114 -0.1785  0.0225
 1153TIP3    H125018   2.898   1.580   0.416  0.9056 -0.1402  0.8421
 1153TIP3    H225019   2.884   1.708   0.495 -0.4734  0.3292 -0.1223
 1154TIP3   OH225020   5.749   4.690   0.643 -0.0018 -1.1767 -0.5253
 1154TIP3    H125021   5.733   4.745   0.720 -1.3549 -0.9638 -0.9236
 1154TIP3    H225022   5.839   4.710   0.617  0.5745 -1.4738  1.1605
 1155TIP3   OH225023   3.424   3.534   0.371  0.5963  0.5112 -0.2294
 1155TIP3    H125024   3.365   3.502   0.303  2.2295 -0.3895 -1.3002
 1155TIP3    H225025   3.378   3.518   0.453 -1.3937  1.5455 -1.0755
 1156TIP3   OH225026   0.271   5.161   7.615  0.0063 -0.5380 -0.3948
 1156TIP3    H125027   0.277   5.257   7.618 -1.0659 -0.4596 -0.2269
 1156TIP3    H225028   0.333   5.130   7.680  1.9024 -0.0394 -1.8859
 1157TIP3   OH225029   4.548   3.966   2.301  0.1987 -0.4376 -0.3564
 1157TIP3    H125030   4.594   3.935   2.379  0.2082  0.3912 -0.0155
 1157TIP3    H225031   4.618   3.997   2.243  0.2109 -1.3357 -0.8290
 1158TIP3   OH225032   4.590   3.543   8.406 -0.0043  0.8960  0.0725
 1158TIP3    H125033   4.541   3.582   8.334 -2.0405 -0.0643  0.8604
 1158TIP3    H225034   4.618   3.458   8.373  0.4714  1.1237 -0.1167
 1159TIP3   OH225035   4.213   1.310   1.001 -0.3054 -0.1734  0.2381
 1159TIP3    H125036   4.294   1.362   0.998 -0.6551  0.5781  2.4985
 1159TIP3    H225037   4.221   1.258   1.081 -2.3400  0.4049  0.8583
 1160TIP3   OH225038   5.510   1.896   0.954 -0.0475 -0.3252  0.0800
 1160TIP3    H125039   5.464   1.979   0.944 -1.8243 -0.9387  2.3644
 1160TIP3    H225040   5.581   1.914   1.015  1.3514  0.0717 -1.5834
 1161TIP3   OH225041   1.297   4.961   1.725  0.1994 -0.2019  0.4154
 1161TIP3    H125042   1.246   5.002   1.795  0.2833  0.0335  0.3393
 1161TIP3    H225043   1.379   5.011   1.723  0.2901 -0.3566  0.3050
 1162TIP3   OH225044   3.228   6.183   8.050 -0.8291  0.0798  0.5750
 1162TIP3    H125045   3.249   6.133   7.971 -1.3643 -1.6520  1.4793
 1162TIP3    H225046   3.311   6.221   8.077 -0.3328 -0.5819  0.0231
 1163TIP3   OH225047   0.442   4.913   8.543  0.0191 -0.1838  0.2445
 1163TIP3    H125048   0.417   4.840   8.599 -0.0604 -0.2263  0.1533
 1163TIP3    H225049   0.468   4.873   8.461 -0.1674 -0.1001  0.1437
 1164TIP3   OH225050   6.764   0.895   2.300  0.3880  0.2150 -0.5942
 1164TIP3    H125051   6.721   0.848   2.229 -0.1596  0.3842 -0.3744
 1164TIP3    H225052   6.841   0.842   2.320  0.5071  0.1238 -1.2582
 1165TIP3   OH225053   0.224   2.074   1.383  0.3539 -0.0761  0.6982
 1165TIP3    H125054   0.159   2.143   1.394 -1.1490 -0.7516 -2.7961
 1165TIP3    H225055   0.193   2.023   1.309  3.1816 -2.5094  0.9961
 1166TIP3   OH225056   5.470   3.596   1.937 -0.3085 -0.2631 -0.2934
 1166TIP3    H125057   5.558   3.616   1.969 -1.2664  3.3544  0.6081
 1166TIP3    H225058   5.414   3.606   2.015 -1.6987 -1.0476 -1.1493
 1167TIP3   OH225059   0.391   4.204   0.687 -0.4576 -0.0142 -0.0738
 1167TIP3    H125060   0.473   4.188   0.734 -0.5816 -0.6224 -0.0631
 1167TIP3    H225061   0.335   4.129   0.708 -1.4695  0.9609  0.8774
 1168TIP3   OH225062   4.454   3.273   7.195  0.7384  0.1832  0.5789
 1168TIP3    H125063   4.462   3.364   7.167  0.1800  0.2445  0.6002
 1168TIP3    H225064   4.425   3.278   7.286  1.7167 -0.0170  0.9115
 1169TIP3   OH225065   0.830   5.271   8.169 -0.0932 -0.1319 -0.4791
 1169TIP3    H125066   0.833   5.338   8.237  1.8408 -0.1340 -0.4943
 1169TIP3    H225067   0.848   5.189   8.216  0.7165 -0.2031 -0.9015
 1170TIP3   OH225068   1.624   3.288   1.137 -0.1329 -0.1463  0.0851
 1170TIP3    H125069   1.549   3.260   1.084  0.8865 -1.0420 -0.9390
 1170TIP3    H225070   1.672   3.349   1.080  1.9689 -2.4955 -0.8234
 1171TIP3   OH225071   0.372   5.437   1.994 -0.1179 -0.2829 -0.3153
 1171TIP3    H125072   0.369   5.532   2.008 -0.8467 -0.3532  0.0314
 1171TIP3    H225073   0.295   5.404   2.039 -0.4032 -0.9404 -1.2638
 1172TIP3   OH225074   2.977   3.647   0.040  0.6182 -0.4986 -0.1977
 1172TIP3    H125075   2.900   3.692   0.075 -0.0114 -0.2337 -1.8173
 1172TIP3    H225076   3.047   3.667   0.102 -0.5093 -0.3959  1.0887
 1173TIP3   OH225077   4.532   1.965   1.897 -0.4774 -0.2114  0.2330
 1173TIP3    H125078   4.578   1.884   1.921  1.0382  0.4427 -0.3330
 1173TIP3    H225079   4.601   2.032   1.896 -1.3652  0.7198 -1.1182
 1174TIP3   OH225080   3.516   5.842   8.389  0.3673  0.3495 -0.1921
 1174TIP3    H125081   3.555   5.787   8.321 -0.0056 -0.2987  0.1089
 1174TIP3    H225082   3.589   5.890   8.426  0.4213  1.6689 -1.8971
 1175TIP3   OH225083   4.712   0.424   2.701 -0.0894 -0.0272  0.9561
 1175TIP3    H125084   4.777   0.356   2.680 -0.6557  0.1795 -1.8934
 1175TIP3    H225085   4.638   0.376   2.737  0.6324 -0.5645  1.7557
 1176TIP3   OH225086   2.690   2.633   7.254  0.2256  0.0438  0.0300
 1176TIP3    H125087   2.633   2.584   7.314 -1.5397 -1.4367 -2.6401
 1176TIP3    H225088   2.656   2.722   7.255 -1.2510 -0.4946 -0.4308
 1177TIP3   OH225089   3.313   0.722   7.639  0.4954 -0.0725 -0.0655
 1177TIP3    H125090   3.319   0.814   7.666  1.4147 -0.4203  1.0405
 1177TIP3    H225091   3.386   0.710   7.579  2.0183 -0.6541  1.7753
 1178TIP3   OH225092   0.380   1.345   1.661  0.6679  0.2997  0.2452
 1178TIP3    H125093   0.337   1.300   1.733  1.8643 -1.5006 -0.0895
 1178TIP3    H225094   0.449   1.397   1.702  1.7710 -1.2274  0.4116
 1179TIP3   OH225095   1.063   5.785   1.385 -0.7451 -0.6049 -0.0162
 1179TIP3    H125096   0.996   5.752   1.325 -1.0782  0.9455 -0.5209
 1179TIP3    H225097   1.129   5.716   1.386 -2.6615 -2.5477  1.1078
 1180TIP3   OH225098   0.328   3.843   8.315  0.3726  0.4127 -0.1774
 1180TIP3    H125099   0.361   3.925   8.350  0.1705  0.7497 -0.7734
 1180TIP3    H225100   0.405   3.799   8.278  0.1497  1.2646 -1.7021
 1181TIP3   OH225101   4.743   4.230   7.793  0.1532 -0.0367 -0.0843
 1181TIP3    H125102   4.673   4.169   7.815  1.1188 -0.3433  2.4150
 1181TIP3    H225103   4.771   4.204   7.705 -0.4997 -2.2044  0.3085
 1182TIP3   OH225104   6.420   6.399   8.914 -0.2955  0.0313  0.5624
 1182TIP3    H125105   6.330   6.421   8.937 -0.5555  0.3849 -0.7280
 1182TIP3    H225106   6.413   6.324   8.855  0.2636  0.0532  0.4588
 1183TIP3   OH225107   4.288   6.563   0.834  0.6695 -0.0412 -0.1569
 1183TIP3    H125108   4.220   6.594   0.893 -0.2405  1.6111 -1.9307
 1183TIP3    H225109   4.347   6.512   0.889  1.3017  3.4148  2.7394
 1184TIP3   OH225110   4.365   3.978   8.631  0.6700 -0.1287  0.5554
 1184TIP3    H125111   4.355   4.053   8.572 -0.4487  0.2609  1.2013
 1184TIP3    H225112   4.402   3.909   8.576 -2.4925 -0.5416 -1.3178
 1185TIP3   OH225113   4.916   2.558   2.738  0.5834 -0.0848  0.5604
 1185TIP3    H125114   4.942   2.473   2.703  0.7101 -0.1438  0.7973
 1185TIP3    H225115   4.825   2.569   2.712  0.4980 -0.3955  0.7341
 1186TIP3   OH225116   1.397   1.882   6.933 -0.3669  0.4494 -0.2198
 1186TIP3    H125117   1.424   1.970   6.904 -0.3077 -0.2217 -2.3860
 1186TIP3    H225118   1.469   1.853   6.989  1.5899  0.2968 -2.6266
 1187TIP3   OH225119   2.173   2.072   0.555 -0.2451  0.0761  0.3204
 1187TIP3    H125120   2.089   2.043   0.519 -1.0437  2.2242  0.3231
 1187TIP3    H225121   2.229   2.086   0.478 -0.5449  0.5654  0.1927
 1188TIP3   OH225122   6.054   3.124   0.764 -0.0521 -0.2980 -0.1653
 1188TIP3    H125123   6.026   3.059   0.829 -0.0175 -0.0862  0.0602
 1188TIP3    H225124   6.139   3.154   0.795 -1.1459  1.7217  1.1459
 1189TIP3   OH225125   0.548   6.472   7.865 -0.2021 -0.2708 -0.7541
 1189TIP3    H125126   0.613   6.411   7.830  1.1160  0.8228 -0.3073
 1189TIP3    H225127   0.579   6.491   7.954 -0.8285  0.7128 -0.7397
 1190TIP3   OH225128   3.387   1.703   7.975  0.2415  0.0008  0.4481
 1190TIP3    H125129   3.328   1.630   7.957  1.1141 -0.8943  1.1495
 1190TIP3    H225130   3.441   1.709   7.896  1.1344 -1.0742  0.9529
 1191TIP3   OH225131   4.190   5.857   0.381  0.3740 -0.3617  0.0608
 1191TIP3    H125132   4.267   5.902   0.415  1.5379 -1.0477 -1.5377
 1191TIP3    H225133   4.119   5.920   0.389  0.9584  0.1193  2.0280
 1192TIP3   OH225134   3.040   3.822   8.413 -0.5255  0.3028 -0.6206
 1192TIP3    H125135   2.960   3.854   8.454  0.3265  1.4656  0.2095
 1192TIP3    H225136   3.059   3.740   8.460 -1.3158 -0.0728 -0.9507
 1193TIP3   OH225137   1.184   6.288   1.322 -0.2971  0.1139  0.3557
 1193TIP3    H125138   1.145   6.375   1.317 -2.7919 -0.9745 -0.9050
 1193TIP3    H225139   1.137   6.245   1.394 -0.2837 -0.7172 -0.1219
 1194TIP3   OH225140   2.093   6.143   1.123 -0.2846  0.3595  0.1184
 1194TIP3    H125141   2.109   6.159   1.030  1.3436 -1.4253  0.0412
 1194TIP3    H225142   2.179   6.151   1.163 -0.2140 -2.8749  0.8157
 1195TIP3   OH225143   1.569   3.843   7.644 -0.9032  0.0840 -0.6921
 1195TIP3    H125144   1.500   3.870   7.704 -1.7087 -1.0463 -1.0796
 1195TIP3    H225145   1.628   3.918   7.640 -2.1133  1.0903 -0.3553
 1196TIP3   OH225146   2.450   5.414   8.596  0.4879 -0.5766  0.5529
 1196TIP3    H125147   2.431   5.508   8.588 -0.2934 -0.8163 -0.7490
 1196TIP3    H225148   2.535   5.410   8.639  0.9356  0.7621 -0.1481
 1197TIP3   OH225149   4.076   2.986   7.996 -0.5354  0.2034 -0.0169
 1197TIP3    H125150   4.063   2.893   7.976  0.2220  0.4964 -2.1138
 1197TIP3    H225151   4.104   2.987   8.088  0.2394 -1.7191 -0.1785
 1198TIP3   OH225152   5.428   4.294   2.291  0.6035  0.0964 -0.3431
 1198TIP3    H125153   5.511   4.290   2.337  0.7117  0.4185 -0.5049
 1198TIP3    H225154   5.384   4.372   2.327 -0.9099 -1.6490  1.8740
 1199TIP3   OH225155   1.096   3.736   1.733  0.1463 -0.3306 -0.1534
 1199TIP3    H125156   1.106   3.645   1.705  1.6927  0.0912 -1.0839
 1199TIP3    H225157   1.066   3.782   1.655  0.1219  0.1033  0.1066
 1200TIP3   OH225158   2.547   0.819   1.417  0.0772  0.4565  0.3032
 1200TIP3    H125159   2.546   0.751   1.484  0.1982 -0.1596 -0.3021
 1200TIP3    H225160   2.467   0.869   1.431  0.6203  1.0264  1.5763
 1201TIP3   OH225161   4.689   6.600   0.077 -0.1773 -0.7800 -0.3936
 1201TIP3    H125162   4.666   6.624  -0.013 -1.1104 -1.4342 -0.3518
 1201TIP3    H225163   4.706   6.683   0.120  0.7687 -0.4866 -1.2967
 1202TIP3   OH225164   4.345   6.543   8.502 -0.5833 -0.4758  0.4894
 1202TIP3    H125165   4.335   6.635   8.480 -1.1590 -0.8380 -0.9504
 1202TIP3    H225166   4.378   6.542   8.592 -0.4897  1.1174  0.4974
 1203TIP3   OH225167   0.580   6.652   0.717  0.1452  0.3529 -0.3817
 1203TIP3    H125168   0.485   6.658   0.721  0.2288  1.0670  1.1619
 1203TIP3    H225169   0.598   6.558   0.722 -0.4682  0.2159 -0.6906
 1204TIP3   OH225170   1.912   1.370   2.004 -0.0810  0.2984 -0.0686
 1204TIP3    H125171   1.836   1.389   1.950 -0.9450 -2.4285  0.0600
 1204TIP3    H225172   1.979   1.341   1.942 -0.8553 -2.1826  0.1708
 1205TIP3   OH225173   0.842   4.616   0.844  0.5110  0.9787 -0.2749
 1205TIP3    H125174   0.895   4.694   0.862  0.1573  0.9556  1.0033
 1205TIP3    H225175   0.752   4.644   0.861  0.3979  0.2659  0.3726
 1206TIP3   OH225176   1.543   0.993   7.535  0.7197 -0.1163  0.6187
 1206TIP3    H125177   1.505   0.975   7.449  1.9656  0.1711 -0.0206
 1206TIP3    H225178   1.638   0.992   7.520  0.9448  2.2932  1.4745
 1207TIP3   OH225179   2.546   4.048   6.986 -0.4988 -0.0344  0.2411
 1207TIP3    H125180   2.542   4.094   6.902  0.6378 -0.2626  0.0529
 1207TIP3    H225181   2.639   4.045   7.007 -0.3755 -3.3327 -0.3470
 1208TIP3   OH225182   5.682   6.395   8.378 -0.4104  0.9650  0.3523
 1208TIP3    H125183   5.732   6.378   8.458 -2.2358  1.7727  1.7363
 1208TIP3    H225184   5.726   6.470   8.338  1.0945 -0.0435  0.0404
 1209TIP3   OH225185   3.846   6.583   1.119  0.5211 -0.0428 -0.1936
 1209TIP3    H125186   3.879   6.526   1.188 -1.5629 -0.2083  0.7622
 1209TIP3    H225187   3.802   6.654   1.167 -1.3699 -0.4072 -1.3092
 1210TIP3   OH225188   2.189   6.558   1.770 -0.0463  0.3153 -0.1388
 1210TIP3    H125189   2.275   6.555   1.727  1.5336  1.5562  2.6307
 1210TIP3    H225190   2.162   6.466   1.774  0.4217  0.0260 -2.3109
 1211TIP3   OH225191   0.710   1.545   7.940 -0.0322 -0.2196  0.6431
 1211TIP3    H125192   0.787   1.568   7.992 -1.3869  1.0580  2.2067
 1211TIP3    H225193   0.660   1.485   7.996 -1.2249  0.6892  0.5946
 1212TIP3   OH225194   6.689   0.467   1.665 -0.0107  0.4005  0.0168
 1212TIP3    H125195   6.675   0.404   1.736 -0.0655  2.0970  1.6138
 1212TIP3    H225196   6.621   0.533   1.678 -2.1673 -0.7959 -3.6672
 1213TIP3   OH225197   4.427   6.114   0.774  0.1939  0.2008  0.0935
 1213TIP3    H125198   4.504   6.169   0.788 -0.2882  0.9592 -0.1203
 1213TIP3    H225199   4.355   6.177   0.765 -0.3771 -0.4767 -0.1540
 1214TIP3   OH225200   3.017   5.595   1.257 -0.1652  0.2474  0.1330
 1214TIP3    H125201   3.080   5.565   1.322 -0.6756  1.1342  1.0550
 1214TIP3    H225202   2.952   5.525   1.252  0.5561 -0.4104 -0.4040
 1215TIP3   OH225203   0.128   2.510   7.740 -0.2632 -0.3102 -0.0466
 1215TIP3    H125204   0.059   2.561   7.783 -0.5008  0.1316 -0.9351
 1215TIP3    H225205   0.082   2.436   7.702 -0.2787  0.0559 -0.7556
 1216TIP3   OH225206   0.565   1.450   0.176 -0.1368 -0.4818 -0.3389
 1216TIP3    H125207   0.584   1.358   0.158 -0.1400 -0.3237 -1.2123
 1216TIP3    H225208   0.620   1.498   0.114  1.5516  0.1953  1.5827
 1217TIP3   OH225209   2.264   2.470   2.014  0.2322  0.5716  0.1600
 1217TIP3    H125210   2.212   2.470   1.934  0.6361  0.5370 -0.1027
 1217TIP3    H225211   2.315   2.389   2.011  0.1898  0.5279  0.4911
 1218TIP3   OH225212   0.204   5.411   2.380  0.1090  0.1634 -0.5212
 1218TIP3    H125213   0.184   5.411   2.474 -0.1410  1.1535 -0.5591
 1218TIP3    H225214   0.286   5.362   2.373 -0.2003 -0.4542  0.1386
 1219TIP3   OH225215   1.298   5.408   0.841  0.7940  0.4095  0.3218
 1219TIP3    H125216   1.274   5.398   0.933 -1.3180  1.7740  0.0058
 1219TIP3    H225217   1.214   5.409   0.795  1.7298  1.0612 -1.4601
 1220TIP3   OH225218   0.491   2.530   8.745 -0.5425 -0.1063  0.0998
 1220TIP3    H125219   0.480   2.498   8.834 -0.4318  0.0805  0.1821
 1220TIP3    H225220   0.586   2.535   8.733 -0.5460  1.1182  0.4357
 1221TIP3   OH225221   1.939   3.902   8.506 -0.4294 -0.1825 -0.1792
 1221TIP3    H125222   1.972   3.975   8.559  0.3220  0.6004 -1.6586
 1221TIP3    H225223   1.999   3.830   8.524 -0.4503 -0.0703  0.3604
 1222TIP3   OH225224   5.976   5.974   8.404 -0.0036 -0.0926  0.2586
 1222TIP3    H125225   5.997   5.907   8.470 -0.4594  0.2461  0.7638
 1222TIP3    H225226   5.885   5.997   8.422  0.1262  0.6129  0.0441
 1223TIP3   OH225227   5.524   1.086   7.984  0.2465  0.1654 -0.0772
 1223TIP3    H125228   5.593   1.057   7.926 -1.7874 -2.4527 -1.3962
 1223TIP3    H225229   5.537   1.035   8.064 -1.1197 -1.7370 -1.0015
 1224TIP3   OH225230   1.345   2.473   8.540 -0.2146 -0.4982  0.3710
 1224TIP3    H125231   1.324   2.453   8.449 -1.7173 -1.0686  0.8259
 1224TIP3    H225232   1.262   2.501   8.579  0.3421 -0.5600  1.6514
 1225TIP3   OH225233   1.936   6.435   7.372  0.1871 -0.0522 -0.1081
 1225TIP3    H125234   1.989   6.419   7.294  1.4965 -0.6878  0.8557
 1225TIP3    H225235   1.900   6.349   7.395 -1.4177  0.3937 -0.8188
 1226TIP3   OH225236   4.773   4.770   8.315  0.3251  0.1614 -0.1106
 1226TIP3    H125237   4.841   4.765   8.247  1.5893  1.3961  0.9936
 1226TIP3    H225238   4.722   4.848   8.291  0.5749  0.4116  0.1511
 1227TIP3   OH225239   4.610   2.515   6.899  0.2970  0.1258  0.3245
 1227TIP3    H125240   4.637   2.604   6.921 -1.1837  0.3729  1.3718
 1227TIP3    H225241   4.522   2.508   6.936 -1.1673 -0.5394 -2.9207
 1228TIP3   OH225242   6.110   5.195   7.043 -0.6408  0.3270  0.7028
 1228TIP3    H125243   6.134   5.118   6.991 -2.7647  0.6817 -0.9221
 1228TIP3    H225244   6.161   5.266   7.004 -1.0856  0.3157  0.0987
 1229TIP3   OH225245   3.731   0.880   8.572 -0.4568 -0.1169 -0.3577
 1229TIP3    H125246   3.681   0.835   8.504 -0.6484 -0.3769 -0.0487
 1229TIP3    H225247   3.747   0.813   8.639  0.9233 -0.2332 -0.7660
 1230TIP3   OH225248   3.447   4.074   1.013 -0.1623 -0.2297  0.0640
 1230TIP3    H125249   3.536   4.056   1.044  0.2675  1.3309 -0.1589
 1230TIP3    H225250   3.431   4.007   0.946  1.4303  0.3042 -0.9179
 1231TIP3   OH225251   4.927   3.852   0.149 -0.2078 -0.1107 -0.1952
 1231TIP3    H125252   4.839   3.825   0.177  0.1869 -0.4846  0.6950
 1231TIP3    H225253   4.975   3.770   0.137  0.2445  0.1147  0.0610
 1232TIP3   OH225254   1.290   3.090   8.391 -0.0936  0.7068 -0.2838
 1232TIP3    H125255   1.337   3.100   8.474  0.3200 -0.2909 -0.3796
 1232TIP3    H225256   1.199   3.077   8.417 -0.0163  0.7274  0.0038
 1233TIP3   OH225257   5.094   2.486   1.927  0.1160 -0.2108  0.3602
 1233TIP3    H125258   5.178   2.521   1.899 -1.4335  1.7190 -2.4079
 1233TIP3    H225259   5.064   2.433   1.852 -1.5428 -0.0362  0.8609
 1234TIP3   OH225260   2.924   4.835   0.146  1.2038  0.5811 -0.0706
 1234TIP3    H125261   2.873   4.854   0.225  0.7036  1.4241 -0.5871
 1234TIP3    H225262   2.983   4.910   0.137  1.3656  0.4136 -0.4184
 1235TIP3   OH225263   2.877   2.163   1.183 -0.3161 -0.6353  0.3873
 1235TIP3    H125264   2.833   2.082   1.209  0.5160 -1.3289 -0.3248
 1235TIP3    H225265   2.813   2.208   1.128 -0.8918 -0.6631  1.0266
 1236TIP3   OH225266   1.765   6.292   2.328 -0.5718  0.1667 -0.0163
 1236TIP3    H125267   1.847   6.339   2.343  0.3251 -1.2676 -0.2868
 1236TIP3    H225268   1.758   6.231   2.401 -1.7187  0.6795  0.3249
 1237TIP3   OH225269   3.094   0.050   2.418  0.0748 -0.7253 -0.3019
 1237TIP3    H125270   3.123   0.062   2.509  1.1572  1.2383 -0.8522
 1237TIP3    H225271   3.155   0.102   2.366 -1.8307 -0.0034 -1.9648
 1238TIP3   OH225272   0.903   5.994   2.292 -0.1286  0.4054  0.0043
 1238TIP3    H125273   0.937   5.966   2.377 -0.7894  0.3022  0.2358
 1238TIP3    H225274   0.829   6.051   2.313 -0.2603  0.4304 -0.5023
 1239TIP3   OH225275   1.053   3.435   7.388  0.1570 -0.2913 -0.5873
 1239TIP3    H125276   1.144   3.425   7.415 -0.4919  2.4356  3.5552
 1239TIP3    H225277   1.046   3.525   7.356 -1.0159 -0.6771 -1.5301
 1240TIP3   OH225278   0.693   5.415   7.621  0.6129 -0.0237  0.0613
 1240TIP3    H125279   0.713   5.330   7.581  1.4730 -0.4602  1.3717
 1240TIP3    H225280   0.728   5.479   7.559  1.6796 -0.6785 -0.0363
 1241TIP3   OH225281   4.439   6.394   7.145  0.3857  0.4535 -0.7739
 1241TIP3    H125282   4.531   6.403   7.172  0.3071 -1.7386  0.5551
 1241TIP3    H225283   4.444   6.365   7.054  1.0213  0.4917 -0.7583
 1242TIP3   OH225284   5.390   3.663   0.834 -0.2561 -0.1115  0.1201
 1242TIP3    H125285   5.365   3.744   0.877  0.8771 -0.7700  2.1619
 1242TIP3    H225286   5.476   3.641   0.871  0.1620 -1.4595 -1.4975
 1243TIP3   OH225287   2.555   0.163   1.962 -0.0317 -0.2956  0.3039
 1243TIP3    H125288   2.490   0.224   1.927 -0.0518 -0.3424  0.2584
 1243TIP3    H225289   2.614   0.217   2.013  0.0100 -0.2228  0.1788
 1244TIP3   OH225290   1.324   2.280   6.391 -0.1409  0.0334  0.1522
 1244TIP3    H125291   1.245   2.232   6.417  1.0162 -1.4842  1.0497
 1244TIP3    H225292   1.324   2.357   6.448 -2.3480  1.5461 -1.7299
 1245TIP3   OH225293   3.922   0.661   0.047 -0.3750 -0.0555  0.0120
 1245TIP3    H125294   3.917   0.706   0.131 -0.9429  0.0687 -0.0826
 1245TIP3    H225295   3.903   0.569   0.067 -0.3178 -0.0590  0.0491
 1246TIP3   OH225296   2.061   0.388   2.939 -0.0682 -0.5231  0.0721
 1246TIP3    H125297   1.988   0.416   2.884  2.0078  1.4687 -1.8590
 1246TIP3    H225298   2.137   0.391   2.882  1.7466 -1.4616  2.2775
 1247TIP3   OH225299   0.992   3.902   1.533  0.3173  0.0144  0.2550
 1247TIP3    H125300   1.004   3.961   1.458 -0.3512 -1.1986 -0.8496
 1247TIP3    H225301   0.898   3.883   1.533  0.3299 -0.0896  1.3603
 1248TIP3   OH225302   5.630   3.624   7.834  0.1356 -0.1536 -0.3594
 1248TIP3    H125303   5.659   3.533   7.831 -0.9189 -0.6495  2.1427
 1248TIP3    H225304   5.553   3.627   7.778  0.8820 -0.4776 -1.4313
 1249TIP3   OH225305   1.496   2.346   1.357  0.6295  0.4921 -0.1397
 1249TIP3    H125306   1.498   2.291   1.278  1.0552  1.6522 -0.9714
 1249TIP3    H225307   1.465   2.431   1.326  0.0914  0.7655  1.0943
 1250TIP3   OH225308   5.738   6.111   7.739  0.0338  0.1208  0.4932
 1250TIP3    H125309   5.726   6.175   7.810 -0.1817 -0.4906  1.0152
 1250TIP3    H225310   5.782   6.161   7.670  1.0936  0.4994  1.4008
 1251TIP3   OH225311   2.599   3.694   8.202 -0.0098  0.7376  0.5836
 1251TIP3    H125312   2.620   3.784   8.177  0.5371  0.4299 -0.0989
 1251TIP3    H225313   2.677   3.644   8.179 -0.7769 -0.1258 -0.2308
 1252TIP3   OH225314   3.570   6.542   8.495  0.5443  0.0122 -0.0604
 1252TIP3    H125315   3.536   6.490   8.568 -2.2341  1.0716 -0.4921
 1252TIP3    H225316   3.576   6.632   8.530  1.1211  0.1900 -0.5845
 1253TIP3   OH225317   1.463   4.271   1.109  0.2681  0.2288  0.2074
 1253TIP3    H125318   1.461   4.301   1.019  1.9827  0.5806  0.2487
 1253TIP3    H225319   1.405   4.331   1.156  0.1871  0.7003 -0.4779
 1254TIP3   OH225320   1.107   0.426   6.916  0.0876 -0.3864 -0.1461
 1254TIP3    H125321   1.064   0.414   6.831 -0.0353 -3.9946  0.2752
 1254TIP3    H225322   1.037   0.415   6.980  0.6037 -0.1949  0.4564
 1255TIP3   OH225323   4.287   3.234   1.277 -0.8111  0.6537  0.0432
 1255TIP3    H125324   4.225   3.181   1.326 -0.5250 -0.8874 -1.1844
 1255TIP3    H225325   4.373   3.209   1.310 -0.6953  0.6743 -0.2329
 1256TIP3   OH225326   5.339   2.642   1.812 -0.4773  0.1287 -0.9491
 1256TIP3    H125327   5.363   2.626   1.720 -3.0581 -1.2106 -1.5009
 1256TIP3    H225328   5.377   2.568   1.859 -0.9859 -0.3781 -1.3174
 1257TIP3   OH225329   1.312   4.379   7.952 -0.1970  0.0221  0.0232
 1257TIP3    H125330   1.255   4.336   8.016 -2.4910 -0.7099 -2.3438
 1257TIP3    H225331   1.307   4.324   7.874  0.9099  1.8585 -1.4383
 1258TIP3   OH225332   2.884   0.832   0.805 -0.3402 -0.0579  0.0261
 1258TIP3    H125333   2.944   0.762   0.781  0.5347  0.5115  0.5015
 1258TIP3    H225334   2.913   0.860   0.892 -1.0855  0.4501  0.1196
 1259TIP3   OH225335   4.233   4.128   8.816  0.3309 -0.0657  0.0017
 1259TIP3    H125336   4.301   4.187   8.850 -1.0608  1.2205  0.6509
 1259TIP3    H225337   4.282   4.055   8.777  2.0729  0.7795  0.5137
 1260TIP3   OH225338   3.202   2.744   1.790 -0.8144 -0.3513 -0.1390
 1260TIP3    H125339   3.255   2.690   1.731  0.1198  2.1616 -1.7999
 1260TIP3    H225340   3.146   2.682   1.836  1.6647 -2.9024 -0.2987
 1261TIP3   OH225341   0.445   2.045   2.542 -0.2519  0.0290 -0.5244
 1261TIP3    H125342   0.405   1.997   2.615  0.5321  0.0386 -0.0804
 1261TIP3    H225343   0.518   2.092   2.581 -0.2278  0.5644 -1.1992
 1262TIP3   OH225344   3.238   3.976   1.726 -0.7949  0.7893  0.7651
 1262TIP3    H125345   3.230   3.980   1.821 -0.1658  1.2632  0.8097
 1262TIP3    H225346   3.183   4.047   1.694 -1.5588  0.1916  0.7313
 1263TIP3   OH225347   1.610   3.725   7.402 -0.2857  0.1769  0.2003
 1263TIP3    H125348   1.680   3.665   7.430  0.2692  0.6506 -0.1423
 1263TIP3    H225349   1.592   3.777   7.480 -0.6623 -0.3183  0.4545
 1264TIP3   OH225350   3.603   1.298   7.954  0.7626 -0.2376  0.2976
 1264TIP3    H125351   3.550   1.252   7.888  1.5999  1.6756 -1.8713
 1264TIP3    H225352   3.598   1.390   7.928  5.4618  0.0573 -0.4016
 1265TIP3   OH225353   5.856   4.229   1.375 -0.1311 -0.0649 -0.0681
 1265TIP3    H125354   5.888   4.160   1.432  1.7556 -0.3328 -1.3277
 1265TIP3    H225355   5.928   4.243   1.313 -1.5268  1.1636 -1.4914
 1266TIP3   OH225356   4.522   1.248   1.959 -0.1003  0.5789  0.3470
 1266TIP3    H125357   4.568   1.257   1.876 -1.2785 -1.3179 -0.5724
 1266TIP3    H225358   4.475   1.330   1.970  0.1803  0.9013 -0.7915
 1267TIP3   OH225359   1.167   4.327   8.730 -0.5617  0.3799  0.1758
 1267TIP3    H125360   1.166   4.400   8.793  2.5894  1.1416 -0.4626
 1267TIP3    H225361   1.260   4.302   8.725 -1.2356 -2.0783 -1.4790
 1268TIP3   OH225362   3.904   4.301   0.976 -0.3071 -0.5057  0.3473
 1268TIP3    H125363   3.826   4.336   0.932 -0.9287  0.4752  2.1235
 1268TIP3    H225364   3.976   4.323   0.917 -0.7928  2.9900  0.8018
 1269TIP3   OH225365   4.834   5.888   8.766  0.2806 -0.1395  0.2104
 1269TIP3    H125366   4.751   5.869   8.724  1.3192 -0.7375 -1.6547
 1269TIP3    H225367   4.845   5.983   8.757 -0.1306 -0.0754  0.3713
 1270TIP3   OH225368   1.341   0.305   2.243 -0.4592 -0.1273  0.1912
 1270TIP3    H125369   1.265   0.342   2.197 -0.7540  1.2043  1.6529
 1270TIP3    H225370   1.416   0.355   2.210 -0.4274 -0.3718 -0.1100
 1271TIP3   OH225371   2.470   1.717   1.494 -0.7753 -0.0771 -0.1246
 1271TIP3    H125372   2.558   1.711   1.531 -1.4826 -1.8155  1.4704
 1271TIP3    H225373   2.482   1.757   1.408  1.3561  1.2185  0.7030
 1272TIP3   OH225374   5.816   2.680   1.281 -0.2131 -0.1196 -0.1629
 1272TIP3    H125375   5.774   2.704   1.199 -2.4532  0.0343  0.9600
 1272TIP3    H225376   5.761   2.719   1.349  1.2718 -0.6697  1.4434
 1273TIP3   OH225377   4.691   0.876   1.920  0.1664 -0.7868  0.1652
 1273TIP3    H125378   4.680   0.918   1.835  0.4033  0.6275  0.8103
 1273TIP3    H225379   4.668   0.784   1.904 -1.6050 -0.2001 -1.0206
 1274TIP3   OH225380   0.806   0.583   0.558  0.6125  1.1735  0.2909
 1274TIP3    H125381   0.782   0.623   0.641 -3.0365  0.0234 -0.0485
 1274TIP3    H225382   0.808   0.656   0.496  0.6498  1.6795  0.8801
 1275TIP3   OH225383   1.214   3.438   1.038  0.2296  0.3585 -0.0825
 1275TIP3    H125384   1.286   3.470   0.984 -0.0099  1.3274  0.1588
 1275TIP3    H225385   1.145   3.503   1.027 -0.1091  0.1480  0.7563
 1276TIP3   OH225386   2.162   0.208   2.242  0.0525  0.1247 -0.3539
 1276TIP3    H125387   2.106   0.284   2.257 -0.3183 -0.0873 -0.6383
 1276TIP3    H225388   2.251   0.242   2.245 -0.0082  0.1850  1.8216
 1277TIP3   OH225389   3.183   4.742   7.792 -0.4328 -0.1948 -0.0258
 1277TIP3    H125390   3.255   4.686   7.823 -0.4242 -1.1236 -1.6154
 1277TIP3    H225391   3.179   4.725   7.698 -1.1254  1.7217 -0.3726
 1278TIP3   OH225392   2.042   6.344   8.563 -0.1574 -0.2469  0.2075
 1278TIP3    H125393   1.989   6.277   8.607 -1.3906 -0.0553 -0.9235
 1278TIP3    H225394   1.985   6.420   8.558  0.6645  0.3651  0.0485
 1279TIP3   OH225395   1.500   1.882   7.665 -0.8260 -0.2488  0.2728
 1279TIP3    H125396   1.551   1.946   7.715  0.7371 -0.9604 -0.3290
 1279TIP3    H225397   1.420   1.929   7.640  0.1017  1.3541  0.1809
 1280TIP3   OH225398   6.288   6.104   0.261  0.2483 -0.0177  0.0203
 1280TIP3    H125399   6.306   6.120   0.168  1.6474 -1.7661 -0.0808
 1280TIP3    H225400   6.238   6.022   0.261  0.6760 -0.2845  0.8062
 1281TIP3   OH225401   1.275   4.238   7.699 -0.1983 -0.0884 -0.1196
 1281TIP3    H125402   1.276   4.161   7.642 -1.1482 -1.4708  1.6357
 1281TIP3    H225403   1.207   4.294   7.662  0.9501  0.2883 -1.8019
 1282TIP3   OH225404   2.002   3.234   1.520 -0.1012 -0.1249  0.6066
 1282TIP3    H125405   1.923   3.182   1.534 -0.9202  1.2651  1.3725
 1282TIP3    H225406   2.029   3.214   1.431 -0.1501 -2.1423  1.0060
 1283TIP3   OH225407   5.414   0.165   1.141  0.1205  0.0071 -0.2988
 1283TIP3    H125408   5.434   0.144   1.050  0.4157 -0.7550 -0.0696
 1283TIP3    H225409   5.438   0.257   1.151  2.0339 -0.4305 -0.4697
 1284TIP3   OH225410   3.973   4.707   0.528  0.6489  0.8247  0.2117
 1284TIP3    H125411   4.018   4.753   0.457  0.9759  0.3818  0.1226
 1284TIP3    H225412   4.044   4.673   0.583  0.4294  0.1396  0.0858
 1285TIP3   OH225413   5.686   5.326   8.323 -0.1103  0.1606  0.0430
 1285TIP3    H125414   5.649   5.255   8.271 -0.3469 -0.2420  0.7437
 1285TIP3    H225415   5.732   5.283   8.395  1.3257  0.6704 -0.5274
 1286TIP3   OH225416   3.172   3.297   2.105 -0.3347 -0.8648  0.2925
 1286TIP3    H125417   3.246   3.346   2.070  0.7753 -2.2990  0.5402
 1286TIP3    H225418   3.135   3.355   2.172  0.4010 -0.0245 -0.0014
 1287TIP3   OH225419   2.303   4.621   8.859 -0.3522  0.2921 -0.2674
 1287TIP3    H125420   2.322   4.626   8.953 -1.1426 -0.6351 -0.0394
 1287TIP3    H225421   2.302   4.712   8.830 -2.0793  0.7338  1.0393
 1288TIP3   OH225422   1.320   3.549   1.535 -0.2802  0.3763 -0.1407
 1288TIP3    H125423   1.382   3.580   1.469  0.8199 -1.3433  0.0361
 1288TIP3    H225424   1.287   3.466   1.501 -1.8949  0.8560  0.1593
 1289TIP3   OH225425   6.034   2.668   2.234  0.0923  0.3542 -0.8429
 1289TIP3    H125426   5.956   2.645   2.286 -0.8045  1.8593 -1.4533
 1289TIP3    H225427   6.092   2.712   2.297  0.7986 -1.3770 -0.2242
 1290TIP3   OH225428   0.423   5.893   3.178 -0.0932 -0.3294 -0.2312
 1290TIP3    H125429   0.506   5.918   3.219  0.3907  0.5105 -1.6379
 1290TIP3    H225430   0.365   5.969   3.192 -0.0535 -0.2033 -0.7290
 1291TIP3   OH225431   3.085   4.175   1.623  0.2593  0.9255 -0.5399
 1291TIP3    H125432   3.018   4.134   1.570  1.1167 -0.2164 -0.7722
 1291TIP3    H225433   3.137   4.227   1.562  1.2898 -0.4458 -0.8674
 1292TIP3   OH225434   2.737   3.866   7.776 -0.1808 -0.1805 -0.2088
 1292TIP3    H125435   2.643   3.860   7.792 -0.2666  0.6264 -0.3374
 1292TIP3    H225436   2.749   3.954   7.741  0.8378  0.4046  1.4869
 1293TIP3   OH225437   4.522   6.715   1.620 -0.2828  0.3491  0.2671
 1293TIP3    H125438   4.597   6.734   1.677  0.7238  1.7727 -1.4200
 1293TIP3    H225439   4.471   6.795   1.620 -0.2313  0.3947 -0.8397
 1294TIP3   OH225440   4.545   0.510   7.895 -0.1849 -0.4583 -0.2677
 1294TIP3    H125441   4.489   0.584   7.918  0.8069 -0.3059  1.8601
 1294TIP3    H225442   4.554   0.517   7.800 -0.1711  2.1579 -0.1635
 1295TIP3   OH225443   4.160   1.049   2.005 -0.2573  0.4536 -0.0102
 1295TIP3    H125444   4.096   1.113   2.036 -0.7208  0.2239 -0.4916
 1295TIP3    H225445   4.111   0.969   1.992 -0.0568  0.4929 -1.1747
 1296TIP3   OH225446   1.830   1.110   8.709 -0.1741 -0.0218 -0.3676
 1296TIP3    H125447   1.879   1.036   8.675 -0.0671 -0.8813  1.4944
 1296TIP3    H225448   1.763   1.070   8.765 -0.8789  1.2556 -0.2609
 1297TIP3   OH225449   0.104   0.282   8.071 -0.5121 -0.3045 -0.1449
 1297TIP3    H125450   0.036   0.217   8.051 -0.4113 -0.7805  1.0101
 1297TIP3    H225451   0.122   0.324   7.987 -3.1327  0.7230 -0.2665
 1298TIP3   OH225452   3.344   2.062   0.704 -0.0821  0.4087  0.7741
 1298TIP3    H125453   3.298   2.144   0.720 -1.9310 -0.0515 -1.5286
 1298TIP3    H225454   3.366   2.029   0.791 -4.4109  0.5561  2.1746
 1299TIP3   OH225455   5.741   5.921   7.481  0.4014 -0.5333  0.1155
 1299TIP3    H125456   5.689   5.994   7.448  2.2330  1.0344  0.5802
 1299TIP3    H225457   5.739   5.857   7.409  0.1867  0.6914 -1.0064
 1300TIP3   OH225458   4.415   4.929   0.862 -0.0621 -0.8846 -0.3326
 1300TIP3    H125459   4.423   4.995   0.794  2.2776  0.3303  0.9871
 1300TIP3    H225460   4.324   4.935   0.891 -0.0724  1.3123 -0.7079
 1301TIP3   OH225461   2.994   0.242   2.178  0.8215 -0.4590  0.5107
 1301TIP3    H125462   2.924   0.178   2.194  0.8521 -0.7912 -0.5845
 1301TIP3    H225463   3.057   0.195   2.124  2.0213 -0.2279  1.6649
 1302TIP3   OH225464   1.714   6.523   2.116  0.3242 -0.4524 -0.2179
 1302TIP3    H125465   1.727   6.478   2.200  0.1026 -1.1848 -0.5690
 1302TIP3    H225466   1.619   6.538   2.111  0.4733  0.8044  0.2652
 1303TIP3   OH225467   2.018   2.420   8.516 -0.3163 -0.1232  0.0870
 1303TIP3    H125468   1.941   2.363   8.524 -1.4274  0.7982 -2.6591
 1303TIP3    H225469   1.994   2.499   8.564 -0.6636 -0.2224  0.0791
 1304TIP3   OH225470   2.062   5.329   1.866  0.1874  0.0709 -0.7146
 1304TIP3    H125471   2.023   5.321   1.953 -0.6379  0.8866 -0.9825
 1304TIP3    H225472   1.991   5.305   1.806  0.9181 -1.0605 -1.1692
 1305TIP3   OH225473   5.635   6.482   0.358  0.4228 -0.0673 -0.4489
 1305TIP3    H125474   5.566   6.514   0.417  0.2729 -0.9582 -0.1383
 1305TIP3    H225475   5.704   6.549   0.364  0.7832 -0.5458  1.3881
 1306TIP3   OH225476   4.196   0.454   7.270 -0.2315 -0.3109 -0.1124
 1306TIP3    H125477   4.289   0.463   7.250 -0.0331 -0.5004  0.6836
 1306TIP3    H225478   4.194   0.403   7.351 -1.0713 -1.4531 -0.8273
 1307TIP3   OH225479   6.660   2.108   0.044  0.1488  0.1875  0.0729
 1307TIP3    H125480   6.724   2.036   0.040 -0.8588 -0.8063  0.9746
 1307TIP3    H225481   6.681   2.163  -0.032  0.0397 -1.8595 -1.5401
 1308TIP3   OH225482   3.639   3.818   1.897 -0.2893  0.2414 -0.1520
 1308TIP3    H125483   3.683   3.812   1.982  1.5848  4.9410 -0.5236
 1308TIP3    H225484   3.689   3.759   1.841  1.5596  0.6532  0.9623
 1309TIP3   OH225485   2.886   6.611   8.270  0.2570  0.2193 -0.3016
 1309TIP3    H125486   2.979   6.606   8.246  0.4924 -1.7803  0.7836
 1309TIP3    H225487   2.886   6.604   8.366 -0.8865  3.4596  0.0473
 1310TIP3   OH225488   2.876   6.283   7.613 -0.3726 -0.0028  0.5280
 1310TIP3    H125489   2.931   6.309   7.539 -1.3780  0.4390 -0.0677
 1310TIP3    H225490   2.816   6.356   7.626 -1.1873 -0.7121  0.8242
 1311TIP3   OH225491   1.750   0.964   1.616 -0.4072  0.6969 -0.3708
 1311TIP3    H125492   1.736   0.960   1.522  0.3184  0.7750 -0.4905
 1311TIP3    H225493   1.690   1.032   1.647 -2.8996 -1.3511 -0.3188
 1312TIP3   OH225494   0.707   0.317   7.523 -0.0246 -0.3873 -0.1964
 1312TIP3    H125495   0.744   0.293   7.608  0.9900  1.5164 -0.0589
 1312TIP3    H225496   0.780   0.358   7.476 -0.4468 -1.7524 -2.1679
 1313TIP3   OH225497   1.454   5.728   8.737 -0.0165 -0.2304  0.3465
 1313TIP3    H125498   1.445   5.821   8.718  1.9442 -0.2603 -0.9994
 1313TIP3    H225499   1.372   5.705   8.781 -0.9534  1.8998 -0.1396
 1314TIP3   OH225500   4.247   3.244   1.601  0.2843  0.8124 -0.2313
 1314TIP3    H125501   4.278   3.322   1.646  2.8608  0.8280 -1.8174
 1314TIP3    H225502   4.188   3.277   1.532 -1.6532  0.9652  1.4016
 1315TIP3   OH225503   3.468   0.502   2.493 -0.6196 -0.2115  0.0375
 1315TIP3    H125504   3.403   0.515   2.562 -0.8653  0.1651 -0.2658
 1315TIP3    H225505   3.417   0.499   2.412 -0.5188 -2.2515 -0.0134
 1316TIP3   OH225506   3.199   3.270   0.096 -0.1501  0.1490 -0.2840
 1316TIP3    H125507   3.109   3.301   0.106  0.7270  2.2091  2.4755
 1316TIP3    H225508   3.245   3.343   0.057  0.4566 -0.7250 -1.2510
 1317TIP3   OH225509   3.989   2.141   8.348 -0.0420  0.3110 -0.7955
 1317TIP3    H125510   3.927   2.074   8.378  0.0185  0.4109 -0.4474
 1317TIP3    H225511   4.074   2.097   8.352  0.0102  0.4359 -0.4715
 1318TIP3   OH225512   0.115   5.976   1.901  0.3307  0.1684  0.5686
 1318TIP3    H125513   0.027   5.945   1.924 -0.0791  0.5163 -0.4427
 1318TIP3    H225514   0.149   5.907   1.843 -0.2285  1.1402 -0.9626
 1319TIP3   OH225515   0.151   1.334   8.115 -0.4156  0.2663  0.3859
 1319TIP3    H125516   0.144   1.336   8.211 -1.4707 -2.8133  0.4933
 1319TIP3    H225517   0.061   1.349   8.084 -0.3094 -0.0205 -0.0710
 1320TIP3   OH225518   2.030   1.124   0.743  0.3579  0.5035  0.3162
 1320TIP3    H125519   2.110   1.102   0.694  0.3597  1.1110  0.0377
 1320TIP3    H225520   2.061   1.182   0.813  0.3265 -0.2021  0.9167
 1321TIP3   OH225521   3.547   1.785   7.300  0.2405  0.0511 -0.2128
 1321TIP3    H125522   3.625   1.730   7.308 -0.2542 -0.5010  0.9618
 1321TIP3    H225523   3.476   1.723   7.285 -0.1450  0.4638 -0.0958
 1322TIP3   OH225524   5.752   1.014   7.840  0.0378 -0.1075  0.1080
 1322TIP3    H125525   5.767   0.920   7.846  2.6836  0.2384  0.2761
 1322TIP3    H225526   5.768   1.035   7.748 -0.2100  0.2136  0.1381
 1323TIP3   OH225527   1.875   6.469   1.716 -0.0898 -0.0969  0.2375
 1323TIP3    H125528   1.791   6.424   1.707  0.5028 -0.8738 -2.0056
 1323TIP3    H225529   1.891   6.508   1.630  1.2559  1.1229  0.9963
 1324TIP3   OH225530   2.037   3.124   2.099  0.8247  0.3683  0.3700
 1324TIP3    H125531   2.112   3.134   2.040 -1.0928  3.4620 -1.8135
 1324TIP3    H225532   1.977   3.066   2.052 -0.1615  1.8157 -0.2257
 1325TIP3   OH225533   5.677   1.669   0.672  0.8791  0.0970  0.2715
 1325TIP3    H125534   5.644   1.621   0.748  1.0044 -0.4344 -0.0040
 1325TIP3    H225535   5.734   1.607   0.627  0.9845  0.4809 -0.1344
 1326TIP3   OH225536   2.379   0.771   7.280 -0.0071 -0.0392 -0.0582
 1326TIP3    H125537   2.376   0.859   7.319  0.3820 -0.6941  1.5349
 1326TIP3    H225538   2.431   0.720   7.342 -1.9718 -1.9249  0.1540
 1327TIP3   OH225539   0.069   5.521   1.763 -0.5235 -0.4221  0.4054
 1327TIP3    H125540  -0.014   5.476   1.774  0.1629 -1.7616  0.3015
 1327TIP3    H225541   0.133   5.451   1.753  0.3247  0.5762 -1.6966
 1328TIP3   OH225542   4.616   1.951   8.528  0.6063  0.2090  0.2887
 1328TIP3    H125543   4.666   1.939   8.447  0.2847  1.2587 -0.0747
 1328TIP3    H225544   4.680   1.936   8.598  0.7782 -1.1897 -0.1309
 1329TIP3   OH225545   2.766   5.088   8.603 -0.4864 -0.4600 -0.1744
 1329TIP3    H125546   2.795   5.131   8.522 -1.4406 -1.6143 -1.1653
 1329TIP3    H225547   2.718   5.157   8.651  1.2505  0.6175  0.0956
 1330TIP3   OH225548   5.318   4.182   2.075 -0.0072  0.4157  0.3422
 1330TIP3    H125549   5.363   4.233   2.142  0.8494 -0.1568  0.2231
 1330TIP3    H225550   5.225   4.197   2.092  0.1784  0.0492  1.8533
 1331TIP3   OH225551   3.986   6.151   1.466  0.2147 -0.2272  0.0280
 1331TIP3    H125552   3.956   6.061   1.467  1.5789 -0.7005  0.3951
 1331TIP3    H225553   4.063   6.152   1.523  0.6909  0.9981 -0.5871
 1332TIP3   OH225554   6.506   5.623   1.833 -0.4377  0.5714  0.0787
 1332TIP3    H125555   6.426   5.644   1.881 -1.0273  0.3532 -0.7928
 1332TIP3    H225556   6.525   5.532   1.856 -0.1945  0.7556  0.6199
 1333TIP3   OH225557   2.745   4.558   1.793 -0.3325  0.1329  0.1021
 1333TIP3    H125558   2.772   4.467   1.783 -0.5261  0.0794  0.0588
 1333TIP3    H225559   2.649   4.553   1.802 -0.1044 -0.1818  5.1719
 1334TIP3   OH225560   6.221   4.922   2.735 -0.7556  0.0343  0.4503
 1334TIP3    H125561   6.139   4.949   2.776 -0.2319  0.3996  1.2842
 1334TIP3    H225562   6.261   4.862   2.799 -0.4390 -0.2586 -0.0113
 1335TIP3   OH225563   1.872   0.368   0.618 -0.6225  0.0546  0.3279
 1335TIP3    H125564   1.811   0.396   0.686 -0.1312 -0.2349  0.8914
 1335TIP3    H225565   1.819   0.366   0.538 -1.1419  0.6382  0.6510
 1336TIP3   OH225566   5.827   6.680   1.267 -0.2007 -0.2693  0.5165
 1336TIP3    H125567   5.735   6.661   1.249  0.0474 -0.6202 -0.4438
 1336TIP3    H225568   5.873   6.600   1.242  0.8787  1.3795 -3.5664
 1337TIP3   OH225569   0.988   2.291   8.829  0.4374 -0.9490 -0.3793
 1337TIP3    H125570   1.051   2.342   8.878  0.3739  0.6502 -1.8587
 1337TIP3    H225571   1.041   2.239   8.768  0.3768 -0.2184 -1.0644
 1338TIP3   OH225572   0.558   6.404   0.573 -0.2240  0.3398 -0.0224
 1338TIP3    H125573   0.597   6.469   0.516 -0.5124  0.2743 -0.2975
 1338TIP3    H225574   0.480   6.373   0.526  0.5609 -1.0739 -0.4552
 1339TIP3   OH225575   3.284   3.710   7.419 -0.5399  0.0504  0.1946
 1339TIP3    H125576   3.236   3.771   7.362  0.8789  1.7784  0.7640
 1339TIP3    H225577   3.371   3.749   7.429 -0.4137 -0.6884  2.7624
 1340TIP3   OH225578   1.210   0.164   7.801  0.2509 -0.1235 -0.2712
 1340TIP3    H125579   1.154   0.087   7.812  1.0401 -0.7216 -0.4362
 1340TIP3    H225580   1.294   0.139   7.840  1.3787 -0.3164 -2.6699
 1341TIP3   OH225581   1.169   0.012   3.001 -0.3365  0.3457 -0.3741
 1341TIP3    H125582   1.105  -0.059   3.004 -0.6764  0.4820 -2.6337
 1341TIP3    H225583   1.248  -0.028   2.965 -0.2650  0.9000 -0.8553
 1342TIP3   OH225584   0.475   6.128   2.147  0.2612 -0.3970 -0.1160
 1342TIP3    H125585   0.507   6.182   2.075 -1.2964  1.2264  0.3171
 1342TIP3    H225586   0.536   6.144   2.219  0.5146 -0.1968 -0.3750
 1343TIP3   OH225587   6.593   3.205   1.094  0.6673  0.0089  0.3429
 1343TIP3    H125588   6.600   3.162   1.179  0.2580  1.1620  0.9800
 1343TIP3    H225589   6.524   3.156   1.049 -0.2231  0.3597  1.2898
 1344TIP3   OH225590   2.137   5.045   7.957  0.1989 -0.1453  0.0753
 1344TIP3    H125591   2.081   5.106   7.909  0.2897 -0.0261  0.1190
 1344TIP3    H225592   2.218   5.041   7.905  0.9921  1.3411  1.1108
 1345TIP3   OH225593   1.459   2.746   8.600 -0.1919 -0.0527 -0.2168
 1345TIP3    H125594   1.369   2.776   8.583 -0.6811 -0.7583  0.9891
 1345TIP3    H225595   1.454   2.651   8.595  0.5065 -0.0942 -0.2068
 1346TIP3   OH225596   6.401   2.095   1.931 -0.0015 -0.2535  0.2660
 1346TIP3    H125597   6.493   2.070   1.922 -0.0612  0.0558 -1.5889
 1346TIP3    H225598   6.354   2.012   1.927  0.1654 -0.3597  0.5176
 1347TIP3   OH225599   1.832   1.741   2.426 -0.4065 -0.8670 -0.1582
 1347TIP3    H125600   1.918   1.756   2.464  0.0618 -2.3328 -0.5874
 1347TIP3    H225601   1.834   1.789   2.343  0.7883 -2.4930 -1.1477
 1348TIP3   OH225602   4.267   0.902   0.135 -0.2802  0.6029 -0.7298
 1348TIP3    H125603   4.225   0.874   0.217  0.4961  1.6100  0.0386
 1348TIP3    H225604   4.358   0.877   0.146 -0.3455 -0.1014 -1.7038
 1349TIP3   OH225605   5.984   4.639   7.843 -0.3544  0.3168  0.6054
 1349TIP3    H125606   5.894   4.620   7.819 -0.6724 -0.3074  2.2468
 1349TIP3    H225607   6.034   4.564   7.811 -0.4320  0.5611 -0.1084
 1350TIP3   OH225608   6.210   0.599   1.787 -0.1702 -0.3718  0.4421
 1350TIP3    H125609   6.204   0.575   1.880 -1.7012 -0.1529  0.4287
 1350TIP3    H225610   6.188   0.693   1.786  2.0991  0.2044  0.0867
 1351TIP3   OH225611   4.645   2.988   2.712 -0.5555 -0.1058 -0.7159
 1351TIP3    H125612   4.558   3.026   2.697 -1.1174  0.0748  2.3043
 1351TIP3    H225613   4.705   3.046   2.667 -1.7424  2.0414  0.3281
 1352TIP3   OH225614   3.911   3.114   8.766 -0.1592 -0.1374 -0.9634
 1352TIP3    H125615   3.993   3.068   8.751 -0.9495 -2.3191  0.8337
 1352TIP3    H225616   3.936   3.193   8.814  1.1502  1.1532 -3.5026
 1353TIP3   OH225617   3.513   3.035   7.333  0.5612 -0.2428 -0.6856
 1353TIP3    H125618   3.523   3.108   7.271  0.1391  0.4773  0.0799
 1353TIP3    H225619   3.421   3.011   7.327  1.0229 -1.8488 -2.1551
 1354TIP3   OH225620   4.409   5.903   0.575 -0.4861 -0.5347  0.1271
 1354TIP3    H125621   4.353   5.845   0.625  1.0536 -1.0803  1.2926
 1354TIP3    H225622   4.415   5.982   0.628 -1.3755  0.1521 -0.7478
 1355TIP3   OH225623   6.453   1.582   3.092  0.2093 -0.6751  0.1559
 1355TIP3    H125624   6.395   1.650   3.058 -1.0371 -0.5158  2.3834
 1355TIP3    H225625   6.540   1.623   3.093 -0.3503  0.5781  0.5317
 1356TIP3   OH225626   4.825   1.748   8.605 -0.2380 -0.0700 -0.0787
 1356TIP3    H125627   4.876   1.717   8.530  0.8432 -0.2886  0.7224
 1356TIP3    H225628   4.830   1.676   8.669  1.5325  1.3109  1.4445
 1357TIP3   OH225629   4.782   2.004   8.776 -0.6203 -0.6552 -0.1754
 1357TIP3    H125630   4.800   2.058   8.699 -1.6135  0.1073  0.0936
 1357TIP3    H225631   4.863   1.958   8.794  0.3716  0.9919 -0.2486
 1358TIP3   OH225632   3.447   0.338   8.222 -0.0936  0.6044  0.1631
 1358TIP3    H125633   3.474   0.417   8.268 -0.7531  1.4904 -0.9275
 1358TIP3    H225634   3.529   0.296   8.195  0.3015  2.5516 -1.9385
 1359TIP3   OH225635   2.596   3.466   6.957  0.1359 -0.9206 -0.1674
 1359TIP3    H125636   2.644   3.384   6.967 -0.7847 -1.4368  0.1876
 1359TIP3    H225637   2.508   3.439   6.932 -0.3528 -0.0669  0.5566
 1360TIP3   OH225638   1.637   2.674   2.497  0.6441  0.5974 -0.1515
 1360TIP3    H125639   1.626   2.741   2.429 -0.9591  0.9946  0.4539
 1360TIP3    H225640   1.658   2.724   2.576  2.0180  0.1733 -0.2363
 1361TIP3   OH225641   1.342   5.050   7.700 -0.4825  0.1177  0.1495
 1361TIP3    H125642   1.308   5.082   7.617 -0.5480 -1.8284 -0.6237
 1361TIP3    H225643   1.361   4.958   7.685 -0.1723 -0.2169  2.2097
 1362TIP3   OH225644   4.690   1.522   8.364  0.4965 -0.1640 -0.0244
 1362TIP3    H125645   4.719   1.552   8.279  1.6615 -1.7538 -0.2484
 1362TIP3    H225646   4.769   1.526   8.419 -0.2662  0.9725  1.0400
 1363TIP3   OH225647   1.223   4.047   1.533 -0.1572 -0.2746  0.4190
 1363TIP3    H125648   1.147   3.990   1.545  0.7261 -1.4796  0.4580
 1363TIP3    H225649   1.186   4.133   1.515 -1.5357 -1.0741 -0.7465
 1364TIP3   OH225650   3.802   4.760   6.716  0.9911  0.1316 -0.9115
 1364TIP3    H125651   3.819   4.666   6.728 -0.6919 -0.0698  0.1775
 1364TIP3    H225652   3.847   4.802   6.789  0.9922  0.0865 -0.8857
 1365TIP3   OH225653   2.534   6.046   8.842 -0.4192 -0.1424 -0.4404
 1365TIP3    H125654   2.618   6.001   8.836 -1.2408 -1.5536 -2.6726
 1365TIP3    H225655   2.548   6.129   8.796  0.1353  0.3775  0.6109
 1366TIP3   OH225656   3.187   6.177   8.850  0.2227 -0.3369 -0.4534
 1366TIP3    H125657   3.146   6.115   8.911  1.4274 -0.0149  0.7398
 1366TIP3    H225658   3.184   6.261   8.896  2.9993 -0.4702  0.1174
 1367TIP3   OH225659   0.266   6.719   0.446 -0.1409  0.2334 -0.2752
 1367TIP3    H125660   0.283   6.751   0.535 -0.5859 -4.2763  1.7036
 1367TIP3    H225661   0.172   6.732   0.433 -0.3717 -0.5033  0.6019
 1368TIP3   OH225662   2.063   2.242   8.761 -0.5376 -0.2176 -0.7290
 1368TIP3    H125663   2.064   2.147   8.772 -0.2865 -0.3311 -1.6045
 1368TIP3    H225664   1.997   2.257   8.693 -2.1369  0.4292  0.9002
 1369TIP3   OH225665   1.448   4.525   1.738  0.2360 -0.0016  0.1022
 1369TIP3    H125666   1.529   4.549   1.784 -0.3095 -1.5629  2.0138
 1369TIP3    H225667   1.477   4.488   1.655  1.3747  0.9939  0.0315
 1370TIP3   OH225668   4.761   4.066   2.160  0.1306 -0.1751 -0.0232
 1370TIP3    H125669   4.784   4.142   2.106 -0.3625  0.8064  1.1128
 1370TIP3    H225670   4.843   4.042   2.203 -0.3879  1.9588  2.3367
 1371TIP3   OH225671   6.611   4.661   1.635 -0.3180  0.3634 -0.3990
 1371TIP3    H125672   6.679   4.621   1.688 -1.1819  0.1514  0.5875
 1371TIP3    H225673   6.556   4.587   1.607 -2.2616  0.7751  1.9134
 1372TIP3   OH225674   3.578   0.217   8.616 -0.3035  0.5984  0.5049
 1372TIP3    H125675   3.629   0.293   8.646 -2.5935  1.7128  1.8303
 1372TIP3    H225676   3.635   0.142   8.633  1.9452  1.9079 -0.5946
 1373TIP3   OH225677   3.684   5.276   0.609  0.8057 -0.3772 -0.3127
 1373TIP3    H125678   3.593   5.282   0.578  0.3782 -0.8972  0.7900
 1373TIP3    H225679   3.737   5.299   0.533 -0.2901  1.7262 -0.5183
 1374TIP3   OH225680   3.156   4.245   1.205  0.0838  0.0500  0.8240
 1374TIP3    H125681   3.200   4.275   1.126 -0.5957 -1.3666 -0.1377
 1374TIP3    H225682   3.063   4.259   1.188  0.0086  1.0510  1.9690
 1375TIP3   OH225683   5.501   3.012   1.395  0.5175  0.1300 -0.2472
 1375TIP3    H125684   5.419   3.046   1.360  1.4600  0.4211 -2.3511
 1375TIP3    H225685   5.481   2.923   1.422 -0.7108  0.5205  0.1621
 1376TIP3   OH225686   6.482   5.890   1.440  0.5350 -0.0008  0.2715
 1376TIP3    H125687   6.547   5.918   1.375  1.2383 -1.7724  0.1547
 1376TIP3    H225688   6.530   5.894   1.523  0.9240 -1.5569  0.1546
 1377TIP3   OH225689   3.214   3.500   1.274 -0.1045 -0.1774 -0.0336
 1377TIP3    H125690   3.159   3.422   1.288 -1.2128  0.9689  2.5513
 1377TIP3    H225691   3.303   3.469   1.285 -0.5088 -1.1729  0.5803
 1378TIP3   OH225692   1.981   3.203   8.925 -0.0062  0.3951 -0.1487
 1378TIP3    H125693   1.991   3.127   8.868  1.0952  0.3472  0.0899
 1378TIP3    H225694   1.997   3.278   8.867 -1.8421  0.5069 -0.5568
 1379TIP3   OH225695   6.238   1.568   1.303 -0.3404  0.1105  0.2190
 1379TIP3    H125696   6.282   1.561   1.219  0.3649  0.0811  0.5795
 1379TIP3    H225697   6.268   1.651   1.340 -1.5001  0.6631 -0.0203
 1380TIP3   OH225698   0.957   0.556   7.950 -0.7857  0.4330 -0.0720
 1380TIP3    H125699   0.973   0.463   7.933 -0.8588  0.2648  0.7329
 1380TIP3    H225700   1.034   0.586   7.999 -0.6791  0.8446 -0.4841
 1381TIP3   OH225701   1.533   6.528   7.991 -0.2384  0.3920  0.2474
 1381TIP3    H125702   1.445   6.513   8.026 -0.4589  0.2723 -0.3492
 1381TIP3    H225703   1.589   6.470   8.042 -0.5267  0.3655  0.5352
 1382TIP3   OH225704   0.696   0.185   0.216 -0.2137 -0.4149 -0.7004
 1382TIP3    H125705   0.698   0.253   0.284  0.3834  0.0838 -1.2020
 1382TIP3    H225706   0.648   0.113   0.256  0.6087 -0.3535  0.4650
 1383TIP3   OH225707   5.580   0.173   1.419 -0.0798  1.1732 -0.1003
 1383TIP3    H125708   5.541   0.136   1.340 -1.7719  1.4206  0.5731
 1383TIP3    H225709   5.584   0.100   1.480  1.1002  1.0119 -0.3620
 1384TIP3   OH225710   3.132   4.670   0.276 -0.8492 -0.3372  0.8044
 1384TIP3    H125711   3.047   4.701   0.247  0.2477 -0.4780 -3.2527
 1384TIP3    H225712   3.191   4.744   0.264  0.7503 -1.9521 -3.6503
 1385TIP3   OH225713   2.999   3.448   1.541 -0.1021 -0.3573  0.0337
 1385TIP3    H125714   3.088   3.410   1.542 -0.3734 -1.0060  0.2411
 1385TIP3    H225715   2.969   3.434   1.451 -0.7013 -1.8522  0.4454
 1386TIP3   OH225716   0.932   3.600   0.446  0.2540 -0.4051  0.5944
 1386TIP3    H125717   0.895   3.622   0.531 -2.4357 -1.7026 -0.1272
 1386TIP3    H225718   0.929   3.504   0.443 -0.0399 -0.3669 -1.0769
 1387TIP3   OH225719   2.531   2.002   1.387  0.2980  0.2755  0.2312
 1387TIP3    H125720   2.443   1.986   1.353  0.6962  0.4684 -0.9362
 1387TIP3    H225721   2.590   1.968   1.319  1.1258  0.5355  0.7984
 1388TIP3   OH225722   5.931   0.009   1.510 -0.1511 -0.2528  0.2275
 1388TIP3    H125723   6.006   0.065   1.491  2.8336 -3.8314  0.2486
 1388TIP3    H225724   5.895  -0.011   1.424  0.4153 -0.3309  0.0014
 1389TIP3   OH225725   4.897   5.382   8.586  0.3106  0.2509 -0.1902
 1389TIP3    H125726   4.982   5.403   8.625  0.6383 -0.1482 -0.6775
 1389TIP3    H225727   4.893   5.437   8.508 -0.7209  1.7058  0.8278
 1390TIP3   OH225728   3.414   1.874   1.743 -0.1362  0.3137 -0.1582
 1390TIP3    H125729   3.381   1.963   1.726  0.1175  0.1893 -1.3639
 1390TIP3    H225730   3.335   1.819   1.742 -0.0151 -0.0010 -3.1533
 1391TIP3   OH225731   0.797   0.257   7.772  0.2773  0.0473  0.1374
 1391TIP3    H125732   0.732   0.292   7.832  1.4754  0.4541  1.2234
 1391TIP3    H225733   0.842   0.190   7.822  0.7839 -0.1421 -0.5640
 1392TIP3   OH225734   2.573   5.642   2.700 -0.6953 -0.7168  0.1210
 1392TIP3    H125735   2.482   5.670   2.712 -0.3842 -0.2595  1.6432
 1392TIP3    H225736   2.623   5.723   2.696 -0.1368 -0.9674  1.4363
 1393TIP3   OH225737   4.535   5.695   1.052  0.6340  0.2688 -0.2738
 1393TIP3    H125738   4.519   5.789   1.051  2.8692  0.7262 -2.2448
 1393TIP3    H225739   4.609   5.682   0.993  0.1857 -2.7913 -0.3562
 1394TIP3   OH225740   0.916   2.754   1.993 -0.4435 -0.3299  0.4016
 1394TIP3    H125741   0.982   2.800   2.044  0.2613 -0.3822 -0.4302
 1394TIP3    H225742   0.927   2.788   1.904 -0.0987 -1.8536 -0.1780
 1395TIP3   OH225743   3.678   2.439   2.552  0.1732 -0.3657 -0.0992
 1395TIP3    H125744   3.613   2.465   2.617 -0.9017 -0.1578 -1.2197
 1395TIP3    H225745   3.659   2.347   2.534  0.8612 -0.5988  0.2954
 1396TIP3   OH225746   3.483   3.205   0.782  0.3311 -0.3508 -0.6176
 1396TIP3    H125747   3.562   3.153   0.771  0.5274 -0.2275  0.0946
 1396TIP3    H225748   3.461   3.235   0.694  0.6914 -0.9382 -0.9150
 1397TIP3   OH225749   3.662   1.237   1.666 -0.5128  0.7322  0.1097
 1397TIP3    H125750   3.669   1.142   1.664 -0.4539  0.7352 -1.4116
 1397TIP3    H225751   3.682   1.262   1.756 -2.5018 -0.8367  1.0749
 1398TIP3   OH225752   0.826   6.771   7.891  0.3445 -0.2620  0.2841
 1398TIP3    H125753   0.895   6.705   7.883  1.9349  1.1254  1.7576
 1398TIP3    H225754   0.825   6.793   7.984 -0.5816  1.3263 -0.0796
 1399TIP3   OH225755   0.150   5.137   0.325 -0.0266 -0.2633  0.2488
 1399TIP3    H125756   0.082   5.100   0.268  0.4650 -1.8496  0.6362
 1399TIP3    H225757   0.231   5.096   0.295  0.6082  0.7827  0.4963
 1400TIP3   OH225758   6.024   6.235   8.024 -0.2057  0.1303 -0.1456
 1400TIP3    H125759   5.954   6.277   8.072 -0.5807 -0.3918 -0.2272
 1400TIP3    H225760   5.981   6.164   7.975  0.4555 -0.5709  0.2650
 1401TIP3   OH225761   1.952   6.342   2.791 -0.5888  0.5805 -0.6610
 1401TIP3    H125762   1.957   6.432   2.760  2.1031  0.6087 -0.4461
 1401TIP3    H225763   1.869   6.309   2.758 -1.4369  2.9762 -1.1286
 1402TIP3   OH225764   4.892   1.544   1.680  0.2467  0.1253 -0.3637
 1402TIP3    H125765   4.893   1.635   1.710 -0.4266  0.0982 -0.2501
 1402TIP3    H225766   4.977   1.533   1.637  0.7041  0.5390  0.4035
 1403TIP3   OH225767   3.106   1.288   7.693 -0.0139  0.4332  0.1548
 1403TIP3    H125768   3.158   1.366   7.714 -1.9108  1.4948  1.2503
 1403TIP3    H225769   3.070   1.305   7.606 -0.2082  0.6637  0.2794
 1404TIP3   OH225770   0.552   3.558   6.624  0.2946 -0.1875 -0.2971
 1404TIP3    H125771   0.536   3.652   6.640  1.4986 -0.0068 -0.0734
 1404TIP3    H225772   0.464   3.519   6.623 -0.3813  1.2134 -2.2907
 1405TIP3   OH225773   5.910   5.558   8.383  0.0204  0.2987 -0.3254
 1405TIP3    H125774   5.877   5.485   8.330 -1.2365 -0.0277  0.8481
 1405TIP3    H225775   6.001   5.569   8.356 -1.0090  1.4091 -3.9455
 1406TIP3   OH225776   3.765   3.096   8.531 -0.0521 -0.1941 -0.2609
 1406TIP3    H125777   3.798   3.107   8.620  1.1372  0.6056 -0.7682
 1406TIP3    H225778   3.736   3.005   8.527  0.4417 -0.4160  0.7713
 1407TIP3   OH225779   5.150   1.381   7.768 -0.3611  0.3691  0.2478
 1407TIP3    H125780   5.088   1.420   7.705 -1.8691 -1.5398  0.4501
 1407TIP3    H225781   5.235   1.417   7.743 -1.2348  1.3981 -1.4677
 1408TIP3   OH225782   1.026   3.137   7.457 -0.4941  0.4552 -0.0011
 1408TIP3    H125783   1.053   3.224   7.428  1.8763  0.4016  1.7453
 1408TIP3    H225784   1.046   3.080   7.383  3.1738  0.6618  0.6461
 1409TIP3   OH225785   1.726   4.503   3.172 -0.7458 -0.1433  0.1786
 1409TIP3    H125786   1.754   4.542   3.089  1.1633 -0.4656  0.6219
 1409TIP3    H225787   1.632   4.489   3.162 -0.5604 -0.1306 -1.9079
 1410TIP3   OH225788   1.593   4.142   2.371  0.2491 -0.1100  0.1649
 1410TIP3    H125789   1.531   4.114   2.439  0.2031  0.4573  0.3635
 1410TIP3    H225790   1.540   4.148   2.291 -0.2892  1.7162  0.6133
 1411TIP3   OH225791   4.374   5.944   1.912 -0.7403 -0.0150 -0.0106
 1411TIP3    H125792   4.406   6.030   1.941  1.9530 -0.8639 -0.2290
 1411TIP3    H225793   4.379   5.889   1.990 -2.5792 -0.0089  0.1616
 1412TIP3   OH225794   1.543   6.223   8.906  0.5181  0.4811 -0.4095
 1412TIP3    H125795   1.548   6.292   8.839 -0.4310  1.9474  0.9378
 1412TIP3    H225796   1.458   6.237   8.948 -0.8418 -3.0824 -1.6271
 1413TIP3   OH225797   5.436   3.736   1.144  0.2623 -0.5780  0.2481
 1413TIP3    H125798   5.387   3.784   1.078 -0.0030 -1.0532  0.0957
 1413TIP3    H225799   5.440   3.795   1.219  0.5016 -0.0677 -0.1632
 1414TIP3   OH225800   2.864   2.755   1.663  0.1771  0.0219 -0.3851
 1414TIP3    H125801   2.844   2.808   1.586 -0.7922 -0.3612 -0.4207
 1414TIP3    H225802   2.888   2.818   1.731 -1.2072  0.5459 -0.3484
 1415TIP3   OH225803   1.864   6.175   8.658 -0.0670  0.1369  0.1917
 1415TIP3    H125804   1.813   6.128   8.593 -1.0011  0.2096  0.8412
 1415TIP3    H225805   1.809   6.174   8.737  1.3112 -0.5494  1.1928
 1416TIP3   OH225806   4.961   0.934   1.736 -0.5374  0.1765  0.5064
 1416TIP3    H125807   4.870   0.961   1.725 -0.5287 -0.4306 -1.3512
 1416TIP3    H225808   5.005   0.964   1.656 -0.1874 -3.7696 -0.9682
 1417TIP3   OH225809   6.666   6.568   7.195 -0.4939 -0.3576 -0.2471
 1417TIP3    H125810   6.703   6.648   7.234  0.1197 -0.5623 -0.3948
 1417TIP3    H225811   6.701   6.567   7.105  1.0098 -1.7186  0.2936
 1418TIP3   OH225812   5.659   2.176   0.901  0.4762  0.0260 -0.7882
 1418TIP3    H125813   5.716   2.144   0.830  0.4283 -2.9991  0.4061
 1418TIP3    H225814   5.660   2.107   0.966 -2.1235  1.2581  0.7335
 1419TIP3   OH225815   0.385   5.595   8.870  0.1647 -0.4257 -0.2339
 1419TIP3    H125816   0.338   5.588   8.787  1.8780 -1.2178 -1.1980
 1419TIP3    H225817   0.395   5.504   8.900  0.8616 -0.2509  0.0775
 1420TIP3   OH225818   3.967   4.316   1.475 -0.0388 -0.5518  0.1495
 1420TIP3    H125819   4.018   4.316   1.395 -0.7006 -3.0842 -0.3492
 1420TIP3    H225820   3.961   4.409   1.499 -0.9334  0.4844 -3.4250
 1421TIP3   OH225821   0.591   1.748   7.837  0.8138 -0.1880  0.6241
 1421TIP3    H125822   0.628   1.674   7.884  0.2625 -0.6106  0.4030
 1421TIP3    H225823   0.664   1.780   7.783  0.8134 -1.1380  0.0316
 1422TIP3   OH225824   5.407   0.834   1.716  0.3323  0.0491  0.1383
 1422TIP3    H125825   5.398   0.755   1.662 -4.1827  1.0683 -1.0248
 1422TIP3    H225826   5.419   0.905   1.652 -1.2228  0.8466  0.6790
 1423TIP3   OH225827   4.273   6.259   1.785 -0.3125  0.2332 -0.0891
 1423TIP3    H125828   4.281   6.341   1.736 -1.6827  0.2292 -0.3676
 1423TIP3    H225829   4.229   6.284   1.867 -2.5777 -0.4597 -1.0126
 1424TIP3   OH225830   2.111   6.101   7.406  0.2616  0.3160 -0.4385
 1424TIP3    H125831   2.173   6.170   7.382 -0.4289  0.0575 -3.3457
 1424TIP3    H225832   2.028   6.129   7.369 -0.3363 -1.4404 -0.5290
 1425TIP3   OH225833   0.129   5.363   2.121 -0.2392  0.6528  0.0048
 1425TIP3    H125834   0.065   5.433   2.115  1.4243  2.2551  0.1115
 1425TIP3    H225835   0.147   5.353   2.214 -0.2207  0.3129 -0.0323
 1426TIP3   OH225836   0.269   2.688   8.242  0.7632 -0.4028 -0.0214
 1426TIP3    H125837   0.301   2.682   8.332  1.4995 -0.9937 -0.3185
 1426TIP3    H225838   0.190   2.633   8.241 -0.2369  0.9454  0.6735
 1427TIP3   OH225839   1.937   2.166   0.756 -0.0203 -0.2959 -0.4537
 1427TIP3    H125840   1.942   2.255   0.723 -1.1973  0.5197  1.3845
 1427TIP3    H225841   1.953   2.174   0.850  4.5243 -2.6310 -0.7225
 1428TIP3   OH225842   2.129   2.903   0.486 -0.8382  0.3967  0.1603
 1428TIP3    H125843   2.042   2.901   0.527 -0.9062 -0.7461 -0.0089
 1428TIP3    H225844   2.111   2.900   0.392 -0.6291 -2.1777  0.1222
 1429TIP3   OH225845   5.047   4.393   7.629 -0.0852 -0.0487 -0.3352
 1429TIP3    H125846   4.964   4.427   7.662 -1.4756 -1.1043 -2.5450
 1429TIP3    H225847   5.055   4.307   7.669 -1.0699 -0.7457 -1.5669
 1430TIP3   OH225848   2.744   0.584   8.605  0.5792  0.0245  0.2426
 1430TIP3    H125849   2.739   0.676   8.631  1.5369 -0.1629  1.1894
 1430TIP3    H225850   2.747   0.536   8.688 -1.0013 -0.9503 -0.2338
 1431TIP3   OH225851   1.681   3.398   2.374 -0.4910 -0.5525 -0.6533
 1431TIP3    H125852   1.766   3.438   2.390 -0.2765  0.0980 -3.0571
 1431TIP3    H225853   1.684   3.314   2.420  0.1132  0.8775  2.1286
 1432TIP3   OH225854   2.596   2.428   8.294  0.4159  0.3931 -0.0374
 1432TIP3    H125855   2.558   2.440   8.381 -0.2417  1.9432 -0.5063
 1432TIP3    H225856   2.546   2.486   8.237  0.1641 -1.3130 -1.6726
 1433TIP3   OH225857   4.697   2.081   7.980  0.1916  0.4740 -0.0435
 1433TIP3    H125858   4.756   2.010   8.005  0.1667  0.5300  0.1772
 1433TIP3    H225859   4.707   2.146   8.050 -0.2125  0.4365  0.0494
 1434TIP3   OH225860   0.228   6.439   2.148 -0.4556 -0.4879 -0.3098
 1434TIP3    H125861   0.249   6.372   2.082 -1.8036 -0.1256 -1.1464
 1434TIP3    H225862   0.137   6.462   2.130 -0.0436  1.5235 -0.0032
 1435TIP3   OH225863   1.624   1.633   7.755 -0.6778 -0.3307  0.0334
 1435TIP3    H125864   1.666   1.689   7.820  0.6521  0.5103 -1.4681
 1435TIP3    H225865   1.571   1.692   7.702 -2.2223 -1.0931  0.6602
 1436TIP3   OH225866   2.803   4.509   0.235  0.1739  0.2215 -0.3786
 1436TIP3    H125867   2.826   4.600   0.251  2.5584 -0.2580 -0.7164
 1436TIP3    H225868   2.798   4.470   0.323  0.2315  0.4321 -0.2812
 1437TIP3   OH225869   1.315   3.352   7.488  0.7169 -0.4900 -0.1810
 1437TIP3    H125870   1.362   3.269   7.496  1.5795  0.0915  1.0111
 1437TIP3    H225871   1.312   3.387   7.577  1.0864  1.1477 -0.7683
 1438TIP3   OH225872   3.303   0.183   0.502  0.4005  0.1766  0.1954
 1438TIP3    H125873   3.216   0.220   0.485  0.8757  0.9535 -0.6716
 1438TIP3    H225874   3.310   0.181   0.597  0.0454  1.6128  0.2700
 1439TIP3   OH225875   5.981   2.054   7.960  0.1761  0.0727  0.3021
 1439TIP3    H125876   6.072   2.079   7.947 -0.0802  0.9896  0.2300
 1439TIP3    H225877   5.931   2.115   7.906 -0.5402  0.2419  1.1399
 1440TIP3   OH225878   6.086   5.567   0.818  0.0401 -0.2191 -0.1111
 1440TIP3    H125879   6.081   5.494   0.880  2.1136 -0.4906 -0.1933
 1440TIP3    H225880   6.155   5.624   0.854 -0.9060  1.2423 -0.5372
 1441TIP3   OH225881   2.988   1.593   0.906 -0.4182 -0.5247 -0.6641
 1441TIP3    H125882   3.067   1.647   0.905  0.0429 -1.1612  0.2277
 1441TIP3    H225883   2.979   1.562   0.815  1.6881 -2.3089 -0.3337
 1442TIP3   OH225884   4.030   4.382   0.064  0.4351  0.2129  0.4580
 1442TIP3    H125885   4.083   4.399  -0.015  0.0340  0.6544  0.2791
 1442TIP3    H225886   4.036   4.463   0.115  1.9389 -0.5909  1.6317
 1443TIP3   OH225887   1.188   6.378   2.301  0.2027 -0.2353  0.2307
 1443TIP3    H125888   1.248   6.439   2.344 -1.7208  1.2972  0.9040
 1443TIP3    H225889   1.144   6.333   2.373 -1.1181  0.3857 -0.1607
 1444TIP3   OH225890   3.675   2.888   7.628  0.2037 -0.3673 -0.2615
 1444TIP3    H125891   3.760   2.899   7.584 -0.6397  1.5279 -1.5615
 1444TIP3    H225892   3.648   2.799   7.606 -0.1340  0.4503 -3.7130
 1445TIP3   OH225893   3.919   5.360   2.351  0.0568 -0.5759  0.1793
 1445TIP3    H125894   3.841   5.400   2.388  0.3882 -0.6452  0.9826
 1445TIP3    H225895   3.990   5.386   2.410  0.7551  0.0042 -0.8843
 1446TIP3   OH225896   1.222   3.136   2.083  0.1597 -0.5837 -0.0165
 1446TIP3    H125897   1.168   3.161   2.159 -2.1723 -0.6417 -1.5443
 1446TIP3    H225898   1.275   3.213   2.065 -0.5535  0.0801  0.6230
 1447TIP3   OH225899   1.328   2.442   1.967  0.4497  1.0670  0.5535
 1447TIP3    H125900   1.398   2.469   2.026  0.2711  1.3965  0.6143
 1447TIP3    H225901   1.283   2.523   1.944 -0.3728  0.7686  1.1013
 1448TIP3   OH225902   1.132   0.747   3.282  0.0466  0.1909  0.1572
 1448TIP3    H125903   1.228   0.746   3.286  0.0194  0.1586  1.2038
 1448TIP3    H225904   1.111   0.710   3.196  0.9545 -1.4855  0.6152
 1449TIP3   OH225905   5.082   0.193   2.129 -0.3176 -0.3381 -0.5461
 1449TIP3    H125906   5.034   0.121   2.170 -1.4088  1.2655  1.1254
 1449TIP3    H225907   5.041   0.272   2.164  1.4435  1.1129 -1.6153
 1450TIP3   OH225908   6.490   5.731   0.275 -0.1475 -0.1543 -0.3167
 1450TIP3    H125909   6.423   5.779   0.324  1.1594  1.9941 -0.4691
 1450TIP3    H225910   6.553   5.799   0.249  1.3949 -1.8767 -1.3102
 1451TIP3   OH225911   2.257   2.502   8.259  0.0591  0.2311  0.0761
 1451TIP3    H125912   2.239   2.596   8.266 -3.1916 -0.3180  0.4528
 1451TIP3    H225913   2.315   2.495   8.183 -0.0919  2.4870 -0.3346
 1452TIP3   OH225914   5.175   1.996   8.270  0.6727  0.1397 -0.2582
 1452TIP3    H125915   5.120   2.056   8.220  1.3986 -1.6186 -3.4533
 1452TIP3    H225916   5.265   2.021   8.247  1.1777  0.7634  2.1452
 1453TIP3   OH225917   3.684   0.371   0.288 -0.3975  0.0529  0.2377
 1453TIP3    H125918   3.677   0.276   0.301  0.2756 -0.3159 -1.7384
 1453TIP3    H225919   3.765   0.395   0.334  0.5765 -0.7435 -0.9781
 1454TIP3   OH225920   0.963   4.432   7.764 -0.0286 -0.0657  0.3718
 1454TIP3    H125921   1.026   4.407   7.696  2.3234  0.6242  2.1973
 1454TIP3    H225922   0.883   4.452   7.715  0.8889 -1.6395 -1.9905
 1455TIP3   OH225923   5.086   1.725   8.225 -0.1607 -0.4512  0.1966
 1455TIP3    H125924   5.014   1.754   8.169  1.5243  1.1715 -1.2113
 1455TIP3    H225925   5.133   1.804   8.248  0.8697 -1.4165  1.5905
 1456TIP3   OH225926   6.127   1.116   7.668  0.4740  0.2840  0.4298
 1456TIP3    H125927   6.077   1.143   7.591 -0.0980  0.2453  0.7819
 1456TIP3    H225928   6.100   1.178   7.737  1.4075  0.6808  0.4543
 1457TIP3   OH225929   2.702   4.927   7.604  0.5473  0.5237 -0.0175
 1457TIP3    H125930   2.620   4.973   7.587  0.4489  0.0273 -0.9586
 1457TIP3    H225931   2.694   4.896   7.694 -0.1270  0.8279  0.0318
 1458TIP3   OH225932   5.843   4.534   1.560  0.0739  0.3309 -0.2064
 1458TIP3    H125933   5.778   4.600   1.579  0.0433  0.4743 -0.7844
 1458TIP3    H225934   5.817   4.459   1.614 -0.3463  0.5151 -0.1458
 1459TIP3   OH225935   0.875   4.438   0.294 -0.5415  0.2829 -0.0537
 1459TIP3    H125936   0.800   4.380   0.284 -0.2978 -0.1283  0.4418
 1459TIP3    H225937   0.862   4.481   0.378 -1.1647  1.6230 -0.8132
 1460TIP3   OH225938   1.371   6.509   1.469  0.1214  0.3809  0.3045
 1460TIP3    H125939   1.403   6.599   1.475 -0.4797  0.4922  3.3911
 1460TIP3    H225940   1.275   6.518   1.469  0.0589 -0.2588  0.8134
 1461TIP3   OH225941   3.952   0.986   0.985  0.1467  0.3027  0.2920
 1461TIP3    H125942   4.018   1.003   0.918 -0.2384 -1.1311 -0.4807
 1461TIP3    H225943   4.002   0.963   1.063  0.6168  2.4638  0.7137
 1462TIP3   OH225944   5.165   5.014   8.064  0.0513  0.7760  0.1638
 1462TIP3    H125945   5.147   5.100   8.025 -1.1028 -0.0109 -1.1237
 1462TIP3    H225946   5.242   4.982   8.017  0.8920  1.3420  1.0988
 1463TIP3   OH225947   5.936   0.515   0.565  0.1869 -0.5912  0.2498
 1463TIP3    H125948   5.865   0.451   0.566  0.7984 -1.3129 -1.1690
 1463TIP3    H225949   5.963   0.522   0.657 -0.1438 -2.0671  0.4776
 1464TIP3   OH225950   4.871   5.663   1.167 -0.4815 -0.0210  0.3833
 1464TIP3    H125951   4.945   5.606   1.186 -1.0164 -0.9761 -0.3236
 1464TIP3    H225952   4.853   5.650   1.074  0.1905  2.2960 -0.1295
 1465TIP3   OH225953   0.467   4.449   7.731 -0.4031 -0.1094 -0.2045
 1465TIP3    H125954   0.423   4.520   7.684  2.7623  1.7295 -0.6273
 1465TIP3    H225955   0.487   4.486   7.817  1.5452 -0.3052 -0.5273
 1466TIP3   OH225956   2.295   0.693   1.635 -0.5852 -0.2568  0.3050
 1466TIP3    H125957   2.238   0.617   1.641 -1.0310  0.0240 -0.3284
 1466TIP3    H225958   2.334   0.688   1.548  0.9853 -0.8732  0.9997
 1467TIP3   OH225959   3.926   1.502   1.859 -0.3431  0.7807  0.2456
 1467TIP3    H125960   3.967   1.531   1.941  0.9403  0.7345 -0.3522
 1467TIP3    H225961   3.848   1.556   1.851  0.8188  2.5527  0.2775
 1468TIP3   OH225962   2.593   6.079   1.198  0.6618 -0.7821 -0.8251
 1468TIP3    H125963   2.596   6.029   1.279  0.9861 -1.1645 -1.0658
 1468TIP3    H225964   2.622   6.017   1.131  0.5315 -0.4306 -1.2096
 1469TIP3   OH225965   4.547   4.597   1.570 -0.8015 -0.0058 -0.0426
 1469TIP3    H125966   4.458   4.562   1.581 -0.7769  0.5728  3.0990
 1469TIP3    H225967   4.600   4.546   1.632  0.8485  0.4345 -1.0295
 1470TIP3   OH225968   5.862   4.942   1.285  0.0768  0.1457 -0.1398
 1470TIP3    H125969   5.868   4.961   1.191  1.3687 -0.4136 -0.1824
 1470TIP3    H225970   5.807   4.864   1.289  0.8666 -0.4337 -0.5091
 1471TIP3   OH225971   4.374   0.012   0.683 -0.0149  0.2291 -0.1858
 1471TIP3    H125972   4.345  -0.039   0.759 -1.1462 -1.8732 -1.9242
 1471TIP3    H225973   4.461  -0.022   0.663  0.8353  1.6604  0.8268
 1472TIP3   OH225974   0.680   1.799   7.384  0.4871 -0.0229 -0.6159
 1472TIP3    H125975   0.719   1.813   7.470  0.1673  0.4524 -0.5490
 1472TIP3    H225976   0.664   1.704   7.380 -0.5631  0.1100  0.2992
 1473TIP3   OH225977   1.411   0.735   1.151 -0.2839 -1.0524 -0.0034
 1473TIP3    H125978   1.506   0.728   1.153  0.2372  3.2777  2.6284
 1473TIP3    H225979   1.382   0.699   1.234 -0.6708 -0.3753  0.1638
 1474TIP3   OH225980   5.747   1.189   0.771  0.1540  0.3740 -0.1109
 1474TIP3    H125981   5.794   1.247   0.711  0.8600  0.8673  0.8967
 1474TIP3    H225982   5.661   1.177   0.731 -0.1022  2.3306 -0.2098
 1475TIP3   OH225983   4.423   1.887   1.616 -0.5931 -0.4187  0.3268
 1475TIP3    H125984   4.391   1.797   1.625  1.7910 -1.3436  0.2458
 1475TIP3    H225985   4.465   1.905   1.700  0.3554 -0.0037 -0.2261
 1476TIP3   OH225986   1.616   2.146   8.346 -0.2229  0.7634  0.4142
 1476TIP3    H125987   1.523   2.151   8.365 -0.3952  0.7410 -0.3832
 1476TIP3    H225988   1.647   2.071   8.397 -1.4699 -1.8463 -2.3697
 1477TIP3   OH225989   3.772   4.783   2.698  0.4306  0.0302  0.2054
 1477TIP3    H125990   3.737   4.803   2.785  2.1156 -0.7216  1.0972
 1477TIP3    H225991   3.867   4.780   2.710  0.7294  0.2500 -1.7456
 1478TIP3   OH225992   1.697   4.029   3.016  0.1219  0.1769  0.4477
 1478TIP3    H125993   1.771   3.991   2.969 -0.8416  1.4811 -2.3877
 1478TIP3    H225994   1.723   4.120   3.033 -0.3943  0.3303  0.4473
 1479TIP3   OH225995   2.198   3.332   1.681 -0.2032 -0.2330  0.4765
 1479TIP3    H125996   2.145   3.272   1.628 -1.6300  0.6360  0.8731
 1479TIP3    H225997   2.161   3.418   1.664 -0.3243  0.1387  2.4319
 1480TIP3   OH225998   2.735   0.312   0.206  0.0169  0.4645  0.3642
 1480TIP3    H125999   2.678   0.270   0.270  0.2241  0.0021  0.2457
 1480TIP3    H226000   2.680   0.381   0.168 -1.0498 -1.0102 -0.9227
 1481TIP3   OH226001   1.291   6.338   0.628 -0.1889 -0.0939 -0.0252
 1481TIP3    H126002   1.306   6.277   0.700 -2.0090 -0.7102 -0.1091
 1481TIP3    H226003   1.229   6.402   0.663  0.8256  1.0784 -0.2970
 1482TIP3   OH226004   4.710   4.490   1.178 -0.5919  0.1485 -0.0370
 1482TIP3    H126005   4.625   4.520   1.144 -1.0355 -0.1437  0.7980
 1482TIP3    H226006   4.724   4.543   1.257  0.3313  0.6685 -0.5264
 1483TIP3   OH226007   1.320   4.093   8.516  0.5054 -0.0655 -0.2783
 1483TIP3    H126008   1.362   4.175   8.540  0.5036 -0.3574  0.7678
 1483TIP3    H226009   1.387   4.045   8.468  0.8159  0.1630 -0.0793
 1484TIP3   OH226010   2.937   5.769   8.693 -0.3777 -0.1921  0.8414
 1484TIP3    H126011   2.882   5.838   8.656 -0.8630 -0.0624  1.7681
 1484TIP3    H226012   2.886   5.734   8.766  0.9512  0.2614  2.0383
 1485TIP3   OH226013   3.788   3.053   7.874  0.1759 -0.3296 -0.0627
 1485TIP3    H126014   3.741   3.017   7.799 -1.1743  0.9918  0.1151
 1485TIP3    H226015   3.877   3.069   7.840 -0.2798 -0.1796 -1.2633
 1486TIP3   OH226016   1.600   3.818   1.163 -0.0767 -0.0015  0.1298
 1486TIP3    H126017   1.523   3.804   1.109 -0.1555  1.5471 -0.2067
 1486TIP3    H226018   1.663   3.860   1.104  0.5678 -0.1071  0.7306
 1487TIP3   OH226019   3.080   4.063   7.145  0.0643  0.7102 -0.6222
 1487TIP3    H126020   3.162   4.022   7.172 -0.2434 -1.3247 -2.4564
 1487TIP3    H226021   3.106   4.141   7.096  1.1025 -0.9367 -2.8605
 1488TIP3   OH226022   2.924   0.749   1.900  0.5243  0.1213 -0.2556
 1488TIP3    H126023   2.902   0.668   1.853 -1.2847  0.4594 -0.0614
 1488TIP3    H226024   2.943   0.812   1.831  0.5573 -0.0998 -0.4516
 1489TIP3   OH226025   2.815   6.383   2.248  0.2215 -0.0349  0.2019
 1489TIP3    H126026   2.881   6.447   2.220  0.9874 -1.1083 -0.5074
 1489TIP3    H226027   2.844   6.300   2.210 -1.5332 -0.5466 -0.0945
 1490TIP3   OH226028   2.387   3.851   0.930 -0.4740  0.1824 -0.3352
 1490TIP3    H126029   2.389   3.814   0.842 -0.3360 -1.3273  0.2679
 1490TIP3    H226030   2.477   3.880   0.946 -0.7135  1.3765 -1.0322
 1491TIP3   OH226031   6.582   1.340   8.083 -0.3439  1.0453  0.3261
 1491TIP3    H126032   6.491   1.342   8.055 -0.2819  0.6436  0.0979
 1491TIP3    H226033   6.620   1.420   8.046 -0.3643  0.7282 -0.3849
 1492TIP3   OH226034   3.838   2.754   7.841 -0.1253  0.6969  0.3918
 1492TIP3    H126035   3.808   2.845   7.841  1.2671  1.1859  0.8231
 1492TIP3    H226036   3.930   2.759   7.868  0.3705 -0.7086 -0.8745
 1493TIP3   OH226037   6.733   3.249   1.510  0.3243  0.7430 -0.1026
 1493TIP3    H126038   6.800   3.198   1.464  0.7068 -0.0077  1.2349
 1493TIP3    H226039   6.650   3.208   1.484  0.6720 -1.2706  1.6826
 1494TIP3   OH226040   5.278   3.184   2.046  0.1419 -0.1463  0.1742
 1494TIP3    H126041   5.299   3.252   1.981  0.5229 -0.2858  0.1461
 1494TIP3    H226042   5.269   3.104   1.994 -0.1676 -0.1449  0.2235
 1495TIP3   OH226043   2.660   5.523   0.428 -0.1052  0.1576  0.0108
 1495TIP3    H126044   2.601   5.598   0.431 -0.7516 -0.2784 -0.9271
 1495TIP3    H226045   2.601   5.447   0.422  0.5378 -0.3286 -0.3148
 1496TIP3   OH226046   6.076   1.919   8.582 -0.2151 -0.3783  0.5192
 1496TIP3    H126047   6.172   1.924   8.584 -0.1252 -1.7802  0.1863
 1496TIP3    H226048   6.048   2.010   8.593  1.1251 -0.1050  2.1404
 1497TIP3   OH226049   2.847   4.071   0.147  0.5485 -0.2293  0.1665
 1497TIP3    H126050   2.760   4.031   0.145  1.2420 -1.8071 -0.7082
 1497TIP3    H226051   2.837   4.153   0.100 -0.3928 -0.5737 -0.2601
 1498TIP3   OH226052   4.777   4.377   0.501 -0.5256  0.0556  0.7531
 1498TIP3    H126053   4.757   4.341   0.587  0.5104  1.2929  1.5407
 1498TIP3    H226054   4.772   4.302   0.442  1.6945 -1.4566  2.3472
 1499TIP3   OH226055   5.702   3.575   0.677 -0.0346 -0.3772  0.1378
 1499TIP3    H126056   5.746   3.620   0.605 -0.2984  0.9871  0.7844
 1499TIP3    H226057   5.664   3.497   0.637 -3.3566  2.1259 -2.1133
 1500TIP3   OH226058   4.744   1.550   2.074  0.1659  0.6792  0.4108
 1500TIP3    H126059   4.763   1.464   2.035 -1.6752  0.3709  0.1013
 1500TIP3    H226060   4.746   1.534   2.168  1.9238  0.8127  0.4323
 1501TIP3   OH226061   6.701   2.561   7.086  0.5031  0.4617 -0.0415
 1501TIP3    H126062   6.762   2.626   7.051 -0.5366  1.1301 -0.6607
 1501TIP3    H226063   6.717   2.482   7.034  0.8342  0.6260 -0.1928
 1502TIP3   OH226064   3.965   2.154   8.888 -0.1161  0.2861  0.8847
 1502TIP3    H126065   4.043   2.099   8.894 -0.3795 -0.6726 -2.6046
 1502TIP3    H226066   3.895   2.094   8.863 -1.6083  1.4678  1.9952
 1503TIP3   OH226067   2.950   3.978   1.500  0.0405 -0.2542 -0.1237
 1503TIP3    H126068   2.942   4.010   1.410  0.0390 -0.1611 -0.0910
 1503TIP3    H226069   2.987   3.890   1.491 -0.7735 -0.5868 -0.2612
 1504TIP3   OH226070   4.963   4.792   8.099  0.1256  0.1454  0.0883
 1504TIP3    H126071   4.993   4.883   8.095  0.9836 -0.1600 -1.6076
 1504TIP3    H226072   5.016   4.747   8.033 -1.1420 -1.3257  0.0224
 1505TIP3   OH226073   0.854   5.223   2.112  0.5193 -0.0669 -0.1877
 1505TIP3    H126074   0.889   5.135   2.098  0.3433 -0.1775  0.0790
 1505TIP3    H226075   0.865   5.238   2.206  2.8023  1.1337 -0.5632
 1506TIP3   OH226076   6.163   4.974   8.271  0.1625  0.6146  0.4742
 1506TIP3    H126077   6.101   4.903   8.259  2.1115 -0.7092 -3.9854
 1506TIP3    H226078   6.117   5.052   8.240 -0.1315  0.1286 -0.3346
 1507TIP3   OH226079   4.447   4.777   1.819 -0.4796  0.3684 -0.0913
 1507TIP3    H126080   4.510   4.705   1.813 -1.2269 -0.2052 -1.2998
 1507TIP3    H226081   4.451   4.804   1.911  1.5080  0.3498 -0.1358
 1508TIP3   OH226082   1.842   0.977   7.688  0.2358  0.4630  0.0398
 1508TIP3    H126083   1.905   1.040   7.652 -0.4870  0.8512 -0.5581
 1508TIP3    H226084   1.886   0.892   7.680  0.7047  0.7354 -0.3180
 1509TIP3   OH226085   1.067   3.022   6.407  0.1169  0.1692  0.1646
 1509TIP3    H126086   1.132   2.954   6.389 -0.7740 -0.6714  0.0006
 1509TIP3    H226087   1.116   3.093   6.448  0.9756 -0.8163  0.8790
 1510TIP3   OH226088   2.023   0.424   2.257 -0.4041  0.1069 -0.0577
 1510TIP3    H126089   2.062   0.512   2.261 -0.7811  0.2565  0.4348
 1510TIP3    H226090   1.929   0.439   2.265 -0.3378 -0.4998  2.7545
 1511TIP3   OH226091   1.626   2.219   7.230  0.0818  0.0920 -0.3300
 1511TIP3    H126092   1.606   2.306   7.197  2.0263  1.5020  1.8906
 1511TIP3    H226093   1.701   2.190   7.177  1.6632  1.3298  1.1236
 1512TIP3   OH226094   2.910   1.340   8.622  0.0346 -0.8342 -0.8507
 1512TIP3    H126095   2.895   1.351   8.529 -0.3811 -0.8078 -0.7822
 1512TIP3    H226096   2.859   1.410   8.664  0.4886 -0.6339 -0.6217
 1513TIP3   OH226097   5.389   0.436   1.146  0.2086 -1.0709  0.0328
 1513TIP3    H126098   5.328   0.437   1.073  1.1260 -0.9533 -0.7530
 1513TIP3    H226099   5.421   0.526   1.152  0.6128 -1.2199  0.1643
 1514TIP3   OH226100   6.638   0.249   1.474  0.5877 -0.6770 -0.2270
 1514TIP3    H126101   6.651   0.343   1.474  1.7004 -0.7970  0.8934
 1514TIP3    H226102   6.722   0.213   1.501  0.3969 -2.0370 -1.3322
 1515TIP3   OH226103   4.216   5.550   2.085  0.2594 -0.3357  0.2565
 1515TIP3    H126104   4.193   5.471   2.037 -0.4286  0.2255 -0.3647
 1515TIP3    H226105   4.275   5.598   2.027  1.1478 -0.6423  0.8676
 1516TIP3   OH226106   2.740   3.419   8.377 -0.0907  0.5702  0.2565
 1516TIP3    H126107   2.720   3.455   8.463  0.0415 -0.1297  0.5944
 1516TIP3    H226108   2.787   3.488   8.332 -0.0589  0.9037  0.7907
 1517TIP3   OH226109   3.462   2.896   1.523 -0.6623 -0.2574  0.2885
 1517TIP3    H126110   3.457   2.923   1.431 -1.9132 -1.0015  0.1160
 1517TIP3    H226111   3.451   2.801   1.520 -0.0271 -0.3602  1.1609
 1518TIP3   OH226112   2.522   6.289   0.927  0.7792 -0.8580  0.5291
 1518TIP3    H126113   2.561   6.351   0.865  0.8283 -1.6588 -0.2616
 1518TIP3    H226114   2.499   6.213   0.874  0.2885 -1.3379  1.4015
 1519TIP3   OH226115   0.265   1.446   7.385 -0.2401  0.4552 -0.1516
 1519TIP3    H126116   0.341   1.432   7.328 -0.9669  1.6962 -1.5229
 1519TIP3    H226117   0.301   1.490   7.462  1.3311 -4.1783  2.1518
 1520TIP3   OH226118   1.797   5.155   1.204  0.3289 -0.0002 -0.0174
 1520TIP3    H126119   1.880   5.118   1.234  0.5120 -0.0989 -0.6213
 1520TIP3    H226120   1.816   5.187   1.116 -0.5390 -0.9786 -0.5794
 1521TIP3   OH226121   5.250   0.479   1.790  0.0695  0.3245 -0.3208
 1521TIP3    H126122   5.301   0.525   1.857  0.6145  0.8275 -1.0615
 1521TIP3    H226123   5.308   0.410   1.758 -0.0372  0.3464 -0.5620
 1522TIP3   OH226124   3.916   1.778   0.667  0.9388 -0.2452  0.1920
 1522TIP3    H126125   3.976   1.773   0.593  1.3505 -0.8487  0.5559
 1522TIP3    H226126   3.965   1.739   0.740  0.7194  0.7689  0.8989
 1523TIP3   OH226127   5.497   0.215   7.713 -0.6144 -0.0726 -0.7472
 1523TIP3    H126128   5.557   0.142   7.729  0.7354  0.9383 -0.9891
 1523TIP3    H226129   5.535   0.261   7.638 -0.6456  1.6816  0.2696
 1524TIP3   OH226130   1.063   2.935   0.615 -0.0126 -0.4047 -0.0431
 1524TIP3    H126131   0.999   3.005   0.599  0.1850 -0.4144 -0.9511
 1524TIP3    H226132   1.144   2.981   0.634  0.1743 -0.3705 -0.8761
 1525TIP3   OH226133   2.401   5.699   8.279 -0.2120 -0.0627  0.1245
 1525TIP3    H126134   2.491   5.721   8.303 -0.6968  0.3925  1.6484
 1525TIP3    H226135   2.347   5.761   8.328 -1.2986  1.8998 -3.2911
 1526TIP3   OH226136   5.905   4.231   1.975  0.0075  0.2231 -0.0169
 1526TIP3    H126137   5.940   4.154   2.021 -1.1416 -0.3556 -0.0734
 1526TIP3    H226138   5.838   4.266   2.035 -0.1709  0.5879 -0.4231
 1527TIP3   OH226139   4.614   3.998   8.832  0.0255 -0.8156 -0.3022
 1527TIP3    H126140   4.525   3.965   8.846  0.2140 -0.7192  1.3285
 1527TIP3    H226141   4.647   4.014   8.920  1.1711  0.4669 -0.9309
 1528TIP3   OH226142   3.507   3.693   8.635 -0.3724  0.3458 -0.6430
 1528TIP3    H126143   3.597   3.727   8.633 -0.1330 -0.3208 -1.4194
 1528TIP3    H226144   3.466   3.740   8.708  1.5787 -1.7897  2.0336
 1529TIP3   OH226145   6.353   6.366   2.563  0.0281  0.0713 -0.4249
 1529TIP3    H126146   6.264   6.330   2.569 -0.2802  0.6427 -1.2829
 1529TIP3    H226147   6.346   6.452   2.605 -0.6947  1.5665 -3.3599
 1530TIP3   OH226148   4.062   3.796   1.684 -0.1608  0.0570  0.1214
 1530TIP3    H126149   4.118   3.766   1.756  0.5693  1.0723  0.0079
 1530TIP3    H226150   4.007   3.864   1.724 -0.3605  0.0127 -0.0798
 1531TIP3   OH226151   2.998   1.804   0.589  0.0117  0.4831 -0.2952
 1531TIP3    H126152   3.032   1.734   0.645 -1.1318 -0.6108 -0.9324
 1531TIP3    H226153   2.950   1.861   0.649  0.0703  0.1555  0.0660
 1532TIP3   OH226154   3.495   2.770   8.070  0.2062  0.1527  0.2954
 1532TIP3    H126155   3.461   2.816   7.993 -1.7277 -0.6740  0.5927
 1532TIP3    H226156   3.454   2.813   8.144  0.9004 -0.0070  0.7819
 1533TIP3   OH226157   0.346   5.708   1.916 -0.2344 -0.5690  0.3170
 1533TIP3    H126158   0.408   5.780   1.906  0.2342 -0.9951  0.1201
 1533TIP3    H226159   0.267   5.738   1.871 -0.0624 -0.1563  0.2868
 1534TIP3   OH226160   4.440   4.511   1.118 -0.2071  0.4167  0.5779
 1534TIP3    H126161   4.424   4.427   1.075  0.6118 -1.1179  3.0570
 1534TIP3    H226162   4.362   4.563   1.099  0.1154 -0.0376 -2.7190
 1535TIP3   OH226163   4.855   3.437   0.350  0.5379  0.3848 -0.1417
 1535TIP3    H126164   4.916   3.478   0.412  0.3367  1.1713 -0.4430
 1535TIP3    H226165   4.777   3.419   0.401  1.9509 -3.3865  1.0301
 1536TIP3   OH226166   4.083   3.761   1.412 -0.0741 -0.2172 -0.4417
 1536TIP3    H126167   4.149   3.813   1.364  3.1174 -1.9490  1.7033
 1536TIP3    H226168   4.085   3.797   1.501 -1.6228 -0.7557 -0.1650
 1537TIP3   OH226169   5.369   6.300   8.050 -0.1842 -0.0805  0.0722
 1537TIP3    H126170   5.353   6.210   8.020 -0.8402 -0.0182  0.2326
 1537TIP3    H226171   5.387   6.349   7.970 -0.4833 -0.2169 -0.0803
 1538TIP3   OH226172   3.083   1.011   7.726 -0.3279  0.5663 -0.2601
 1538TIP3    H126173   3.097   1.105   7.738 -1.6740  0.6221  1.2147
 1538TIP3    H226174   3.171   0.975   7.716  0.2303  1.9374 -0.5621
 1539TIP3   OH226175   1.104   1.831   1.037 -0.1565  0.4665 -0.6114
 1539TIP3    H126176   1.044   1.798   1.104  1.6147  1.4763  1.5981
 1539TIP3    H226177   1.189   1.835   1.080  1.1659  0.8441 -3.0610
 1540TIP3   OH226178   1.424   6.560   7.199 -0.1559  0.3119 -0.3818
 1540TIP3    H126179   1.460   6.485   7.247 -1.6722 -0.7134 -0.7481
 1540TIP3    H226180   1.406   6.625   7.267  1.7719  0.6329 -0.1314
 1541TIP3   OH226181   4.936   4.215   1.343 -0.5193  0.3600  0.0727
 1541TIP3    H126182   4.942   4.303   1.379 -0.5984  0.3584  0.0895
 1541TIP3    H226183   5.026   4.193   1.319 -0.7505  1.1497 -1.6303
 1542TIP3   OH226184   1.098   5.742   1.911  0.1117  0.6496  0.2242
 1542TIP3    H126185   1.048   5.769   1.988  0.5161  1.0245  0.3601
 1542TIP3    H226186   1.134   5.824   1.876  0.4638  0.4061  0.0118
 1543TIP3   OH226187   5.662   3.554   8.846 -0.2555  0.1856 -0.4664
 1543TIP3    H126188   5.612   3.619   8.797 -0.2042 -0.1232 -0.9299
 1543TIP3    H226189   5.642   3.471   8.804 -0.7553 -0.1822  0.4741
 1544TIP3   OH226190   0.956   5.742   1.018 -0.0782  0.3904 -0.0451
 1544TIP3    H126191   1.013   5.803   0.971 -3.6504  2.6702 -1.9023
 1544TIP3    H226192   0.930   5.790   1.097  1.5039 -1.2068  1.5584
 1545TIP3   OH226193   3.319   1.685   1.208 -0.1526 -0.0252  0.2529
 1545TIP3    H126194   3.292   1.722   1.292 -1.0864  0.6261 -0.3072
 1545TIP3    H226195   3.296   1.593   1.214  0.1517 -0.0664  0.8536
 1546TIP3   OH226196   2.904   6.609   0.611 -0.0630  0.1323 -0.4119
 1546TIP3    H126197   2.981   6.603   0.667  0.0476 -0.2116 -0.5973
 1546TIP3    H226198   2.936   6.584   0.524 -0.7240 -1.6746 -0.1845
 1547TIP3   OH226199   1.362   1.747   1.181 -0.2685  0.2415 -0.1881
 1547TIP3    H126200   1.369   1.776   1.272  0.1919  1.8790 -0.7234
 1547TIP3    H226201   1.426   1.801   1.134 -0.4033 -0.6887 -1.4662
 1548TIP3   OH226202   0.695   4.998   6.751  0.0596 -0.0491 -0.6730
 1548TIP3    H126203   0.748   5.075   6.771 -0.7608  0.6207 -1.0563
 1548TIP3    H226204   0.719   4.975   6.661  1.1632 -0.9658 -0.1770
 1549TIP3   OH226205   6.399   4.488   8.801 -0.1559  0.5190  0.5715
 1549TIP3    H126206   6.383   4.451   8.714  1.3652 -2.4540  1.4214
 1549TIP3    H226207   6.365   4.422   8.861  2.4350  0.5456  2.2113
 1550TIP3   OH226208   5.340   2.144   1.975 -0.0312  0.4227 -0.1367
 1550TIP3    H126209   5.425   2.115   2.008 -0.3301  1.1824  1.3625
 1550TIP3    H226210   5.277   2.085   2.017 -0.3833  1.0987  0.2905
 1551TIP3   OH226211   1.477   1.300   8.676 -0.0357 -0.0255 -0.1716
 1551TIP3    H126212   1.419   1.365   8.636 -1.6757 -0.8661  0.7207
 1551TIP3    H226213   1.468   1.222   8.621 -0.7435 -0.5490  0.6543
 1552TIP3   OH226214   4.188   4.131   7.811 -0.1802  0.3678  0.0490
 1552TIP3    H126215   4.247   4.154   7.883 -0.8796 -0.1965  0.8185
 1552TIP3    H226216   4.127   4.204   7.805  0.0821  0.5678 -0.1936
 1553TIP3   OH226217   3.457   6.381   2.343  0.0222 -0.0498 -0.3987
 1553TIP3    H126218   3.484   6.349   2.257  1.7794  0.0785  0.0663
 1553TIP3    H226219   3.443   6.302   2.395  1.0917 -0.1354 -0.2080
 1554TIP3   OH226220   5.323   0.780   7.627 -0.2721  0.0627  0.1328
 1554TIP3    H126221   5.343   0.737   7.710  0.5361  0.7238  0.2938
 1554TIP3    H226222   5.396   0.756   7.570  0.0611  1.0105  0.1503
 1555TIP3   OH226223   0.147   5.092   2.316 -0.3518 -0.3282 -0.4895
 1555TIP3    H126224   0.173   5.024   2.254  3.5959  1.7253 -1.3870
 1555TIP3    H226225   0.225   5.145   2.328 -2.5417  2.7081  1.9945
 1556TIP3   OH226226   2.646   4.915   0.028  0.1707  0.2492 -0.3639
 1556TIP3    H126227   2.733   4.877   0.035 -0.4600 -2.3735 -3.8145
 1556TIP3    H226228   2.586   4.844   0.050 -1.0177  0.0743 -3.5121
 1557TIP3   OH226229   2.944   0.623   7.316 -0.5762  0.0202 -0.3436
 1557TIP3    H126230   2.856   0.597   7.342 -0.3098 -0.7596 -0.1698
 1557TIP3    H226231   2.949   0.716   7.336 -0.6720 -0.3586  1.6676
 1558TIP3   OH226232   6.210   3.087   8.581 -0.0509  0.1351 -0.5572
 1558TIP3    H126233   6.124   3.047   8.567  0.5492 -0.5051 -2.6978
 1558TIP3    H226234   6.265   3.052   8.512  2.0300  0.3796  0.8710
 1559TIP3   OH226235   5.601   2.174   8.184 -0.1188 -0.1114  0.3161
 1559TIP3    H126236   5.678   2.210   8.228  1.1288  1.0848 -2.5652
 1559TIP3    H226237   5.619   2.081   8.175  0.6509  0.0316  0.3273
 1560TIP3   OH226238   1.949   5.010   0.603 -0.4245 -0.3336 -0.5248
 1560TIP3    H126239   1.895   5.027   0.525  0.8878  0.3008 -1.3364
 1560TIP3    H226240   1.893   4.957   0.660 -1.7957  0.0651 -1.4400
 1561TIP3   OH226241   5.462   2.857   7.591  0.3660  0.7274  0.4731
 1561TIP3    H126242   5.471   2.927   7.525  0.8425  0.0627 -0.1905
 1561TIP3    H226243   5.552   2.826   7.604  0.3034  0.9846  1.6052
 1562TIP3   OH226244   1.888   1.296   1.725 -0.4629  0.0020  0.5646
 1562TIP3    H126245   1.848   1.379   1.697  1.9228  0.6837 -1.1439
 1562TIP3    H226246   1.865   1.234   1.655 -0.2318 -0.1411  0.6155
 1563TIP3   OH226247   0.780   0.389   8.496 -0.5268  0.0999  0.0241
 1563TIP3    H126248   0.699   0.346   8.520 -1.5931  1.5421 -0.8221
 1563TIP3    H226249   0.761   0.432   8.412  1.0219  0.6899 -0.0709
 1564TIP3   OH226250   2.982   5.805   2.330 -0.1436  0.2355  0.4547
 1564TIP3    H126251   3.067   5.830   2.294 -1.1036  0.3523 -1.8968
 1564TIP3    H226252   2.952   5.884   2.376  0.0935  0.9466 -0.5726
 1565TIP3   OH226253   3.539   3.270   8.646  0.0838  0.6416 -0.1066
 1565TIP3    H126254   3.626   3.244   8.614  0.7227 -0.2476  2.1290
 1565TIP3    H226255   3.494   3.187   8.662 -0.3445  1.0433  0.8222
 1566TIP3   OH226256   5.474   4.946   7.381  0.0865  0.3911 -0.1244
 1566TIP3    H126257   5.470   5.041   7.370  0.7274  0.2103 -2.4374
 1566TIP3    H226258   5.386   4.915   7.360  0.0938  0.3999 -0.1669
 1567TIP3   OH226259   5.220   2.549   6.894  0.2990 -0.3729 -0.2908
 1567TIP3    H126260   5.295   2.593   6.934  0.3795 -0.8286  0.0651
 1567TIP3    H226261   5.186   2.612   6.831  0.9794 -0.1625 -0.4498
 1568TIP3   OH226262   3.788   1.664   8.001 -0.2607  0.5334  0.0109
 1568TIP3    H126263   3.772   1.623   8.086 -0.8277 -1.2112 -0.8904
 1568TIP3    H226264   3.879   1.644   7.981 -0.4633 -0.0987 -0.3102
 1569TIP3   OH226265   6.571   6.278   7.024  0.5787 -0.8069  0.1329
 1569TIP3    H126266   6.572   6.182   7.028 -0.5652 -0.7981  1.7848
 1569TIP3    H226267   6.479   6.301   7.040  0.5373  0.5428 -1.8311
 1570TIP3   OH226268   1.218   2.088   0.675  0.1442 -0.2200 -0.4394
 1570TIP3    H126269   1.137   2.055   0.635  0.2928 -0.8426 -0.2362
 1570TIP3    H226270   1.283   2.082   0.606 -0.0070  0.4108 -0.6453
 1571TIP3   OH226271   1.695   3.170   2.576 -0.2818  0.0087  0.5360
 1571TIP3    H126272   1.600   3.161   2.568 -0.6070  0.6312  2.8608
 1571TIP3    H226273   1.731   3.091   2.536 -1.5117  1.1487 -3.3303
 1572TIP3   OH226274   4.036   0.343   7.920 -0.0047  0.1725 -0.4573
 1572TIP3    H126275   4.113   0.294   7.949 -0.1384 -1.2705 -2.4184
 1572TIP3    H226276   4.021   0.316   7.830 -1.1386  2.5530 -1.0894
 1573TIP3   OH226277   1.915   0.359   0.084  0.1580 -0.0391  0.1109
 1573TIP3    H126278   1.861   0.333   0.009  0.0216 -1.2840  0.6237
 1573TIP3    H226279   1.993   0.305   0.078  1.8640  2.3537 -1.1201
 1574TIP3   OH226280   0.570   2.396   0.702 -0.1896  0.9861  0.0722
 1574TIP3    H126281   0.647   2.441   0.667 -0.1376  1.8200  1.2159
 1574TIP3    H226282   0.587   2.389   0.796 -0.6563 -0.5406  0.0754
 1575TIP3   OH226283   1.960   1.556   0.233 -0.2083  0.0018  0.4146
 1575TIP3    H126284   1.998   1.576   0.318  0.6301 -2.1376  0.6062
 1575TIP3    H226285   1.970   1.461   0.224 -0.0855  0.1954 -2.1633
 1576TIP3   OH226286   5.931   3.566   8.295  0.1968 -0.2639  0.3160
 1576TIP3    H126287   6.002   3.605   8.245  0.9398 -0.8294  0.9089
 1576TIP3    H226288   5.938   3.605   8.382  0.0787 -0.6648  0.5093
 1577TIP3   OH226289   3.762   5.816   2.085 -0.0580 -0.0984 -0.3262
 1577TIP3    H126290   3.693   5.754   2.061 -2.1337  0.7442  2.7981
 1577TIP3    H226291   3.841   5.762   2.095 -0.7353 -1.4654 -1.8790
 1578TIP3   OH226292   4.094   4.258   0.790  0.2801  0.4699 -0.7593
 1578TIP3    H126293   4.059   4.186   0.738  0.4087  1.2824 -2.0178
 1578TIP3    H226294   4.157   4.217   0.849 -1.1488 -0.7156  0.0141
 1579TIP3   OH226295   0.831   5.843   1.562 -0.7030 -0.7300  0.1781
 1579TIP3    H126296   0.843   5.918   1.619  0.0213 -1.0775  0.4886
 1579TIP3    H226297   0.899   5.851   1.496 -1.3689 -0.4752 -0.4940
 1580TIP3   OH226298   3.236   2.830   8.661 -0.4052 -0.0904  0.6056
 1580TIP3    H126299   3.263   2.739   8.662 -2.7340 -0.8812  3.3059
 1580TIP3    H226300   3.181   2.838   8.583  0.5625 -0.6725 -0.1699
 1581TIP3   OH226301   0.666   0.847   3.167 -0.0966 -0.9820 -0.0351
 1581TIP3    H126302   0.736   0.817   3.225 -1.8255  0.4910  3.1028
 1581TIP3    H226303   0.598   0.780   3.174 -0.1019 -1.0730 -0.8649
 1582TIP3   OH226304   2.968   1.175   8.144  0.4000 -0.3103 -0.4597
 1582TIP3    H126305   2.912   1.121   8.088  1.1952 -1.7940  0.1411
 1582TIP3    H226306   3.043   1.198   8.088  0.6555 -0.8592 -0.3429
 1583TIP3   OH226307   6.627   3.381   7.064 -0.1400  0.1294  0.1727
 1583TIP3    H126308   6.678   3.460   7.077 -0.1396  0.0146  0.8718
 1583TIP3    H226309   6.550   3.392   7.120 -0.6814  0.1080 -0.5347
 1584TIP3   OH226310   6.489   3.521   2.739  0.5034 -0.6478  0.0842
 1584TIP3    H126311   6.565   3.463   2.740  0.9125 -0.1217  0.4568
 1584TIP3    H226312   6.503   3.580   2.814  0.8966  0.9344 -1.1729
 1585TIP3   OH226313   2.091   4.790   0.894 -0.5171 -0.2933 -0.2342
 1585TIP3    H126314   2.143   4.830   0.825 -0.1780  0.2397  0.3272
 1585TIP3    H226315   2.136   4.708   0.915 -0.4906 -0.3398 -0.4740
 1586TIP3   OH226316   4.939   4.071   0.499 -0.2411 -0.2065  0.0210
 1586TIP3    H126317   4.985   4.007   0.553  1.1969  0.3391 -0.4986
 1586TIP3    H226318   4.879   4.115   0.559 -0.5512 -1.3691  0.5825
 1587TIP3   OH226319   3.252   4.326   2.199  0.1314  0.7049  0.2317
 1587TIP3    H126320   3.233   4.419   2.214 -0.9518  0.5457 -0.0066
 1587TIP3    H226321   3.203   4.280   2.267 -0.8614  0.2388 -0.7419
 1588TIP3   OH226322   1.716   2.873   6.606 -0.3315 -0.2511 -0.1722
 1588TIP3    H126323   1.709   2.902   6.515  0.2373 -0.8678 -0.4182
 1588TIP3    H226324   1.696   2.951   6.658 -1.2853 -0.0530 -0.8211
 1589TIP3   OH226325   5.435   3.470   1.193 -0.2011 -0.5606 -0.4533
 1589TIP3    H126326   5.504   3.470   1.260 -0.1362  0.5268 -0.4904
 1589TIP3    H226327   5.428   3.562   1.167 -1.3035 -0.7370 -0.8289
 1590TIP3   OH226328   2.627   4.414   7.186  0.2289 -0.6410 -0.2259
 1590TIP3    H126329   2.621   4.327   7.224 -2.3288 -0.2927  0.3345
 1590TIP3    H226330   2.627   4.399   7.091 -0.1354 -1.2660 -0.1324
 1591TIP3   OH226331   6.219   0.102   8.126  0.1056  0.2656  0.3751
 1591TIP3    H126332   6.280   0.030   8.144  0.6992  0.4448 -0.8097
 1591TIP3    H226333   6.224   0.115   8.031 -1.3365  0.6942  0.3291
 1592TIP3   OH226334   3.976   0.173   8.683  0.1285  0.1363  0.4282
 1592TIP3    H126335   3.996   0.249   8.629  0.7214 -1.0104 -0.9971
 1592TIP3    H226336   3.880   0.167   8.681  0.1480  0.1129 -0.4695
 1593TIP3   OH226337   1.629   4.718   0.677 -0.8509 -0.3476  0.1515
 1593TIP3    H126338   1.637   4.805   0.716 -0.2134 -0.7901  1.0346
 1593TIP3    H226339   1.710   4.706   0.627 -0.8664 -0.5029  0.1624
 1594TIP3   OH226340   5.253   3.938   2.426  0.1302 -0.4767 -0.2457
 1594TIP3    H126341   5.187   3.950   2.494 -2.3579 -3.6254 -1.8530
 1594TIP3    H226342   5.255   4.022   2.380 -1.0480  0.4240  1.2345
 1595TIP3   OH226343   4.081   2.346   1.042 -0.3106  0.1945  0.1652
 1595TIP3    H126344   4.137   2.315   1.113 -0.8975  0.2718  0.6613
 1595TIP3    H226345   4.006   2.386   1.085 -0.7429  0.1160 -0.4965
 1596TIP3   OH226346   4.781   0.215   7.777  0.0498  0.4104 -0.6411
 1596TIP3    H126347   4.748   0.126   7.766  0.3933  0.0613  0.9500
 1596TIP3    H226348   4.781   0.251   7.688 -1.7527 -0.5623 -1.0778
 1597TIP3   OH226349   4.286   4.223   0.453 -0.4432 -0.0525 -0.2735
 1597TIP3    H126350   4.345   4.264   0.390  0.2100 -0.9625 -0.2692
 1597TIP3    H226351   4.198   4.243   0.420 -0.1458  1.1554 -0.3743
 1598TIP3   OH226352   4.500   3.636   8.688 -0.1851  0.0122  0.2822
 1598TIP3    H126353   4.459   3.709   8.734  0.5268  0.7518 -0.2369
 1598TIP3    H226354   4.483   3.653   8.595 -1.2071 -1.2188  0.2113
 1599TIP3   OH226355   0.436   3.074   6.697  0.5623 -0.1574  0.3951
 1599TIP3    H126356   0.394   3.058   6.612 -0.4614 -0.3119  0.9159
 1599TIP3    H226357   0.490   3.151   6.683  1.0296 -0.6535 -0.6092
 1600TIP3   OH226358   1.699   0.812   8.717  0.2605  0.0764  0.3020
 1600TIP3    H126359   1.770   0.827   8.654 -0.9815 -3.2692 -2.1830
 1600TIP3    H226360   1.740   0.765   8.789  0.8246 -0.5971 -0.4445
 1601TIP3   OH226361   6.400   0.542   0.209  0.3388 -0.3330  0.4561
 1601TIP3    H126362   6.366   0.576   0.126 -1.0044  2.8513  2.1472
 1601TIP3    H226363   6.386   0.447   0.203  1.8193 -0.4769 -3.5229
 1602TIP3   OH226364   2.589   1.635   7.065 -0.0019 -0.0896  0.0120
 1602TIP3    H126365   2.503   1.594   7.050  0.2648 -0.2652 -1.0912
 1602TIP3    H226366   2.572   1.728   7.055 -0.0297 -0.1379 -0.4320
 1603TIP3   OH226367   6.571   6.346   1.429 -0.1579 -0.5173  0.7044
 1603TIP3    H126368   6.633   6.405   1.473  0.0363 -0.8357  0.8571
 1603TIP3    H226369   6.492   6.350   1.484 -0.7827  0.9550 -0.2243
 1604TIP3   OH226370   2.707   3.614   2.082  0.2749 -0.4626  0.1832
 1604TIP3    H126371   2.761   3.625   2.004  0.6015  1.8742  0.6821
 1604TIP3    H226372   2.752   3.664   2.150 -1.9623  0.6959  0.8851
 1605TIP3   OH226373   2.247   6.291   7.610 -0.5859  0.3742 -0.1582
 1605TIP3    H126374   2.313   6.236   7.653 -0.8191  0.9834  0.9911
 1605TIP3    H226375   2.287   6.312   7.525 -0.1187 -0.8283 -0.2607
 1606TIP3   OH226376   4.277   3.496   2.420 -0.5403  0.4913 -0.4093
 1606TIP3    H126377   4.269   3.548   2.500 -0.9371  1.3126 -0.9641
 1606TIP3    H226378   4.212   3.533   2.361 -0.7900 -0.6107 -0.8502
 1607TIP3   OH226379   5.836   6.475   8.860  0.4077 -0.0500  0.5633
 1607TIP3    H126380   5.766   6.509   8.805  1.4582 -0.0399 -0.8078
 1607TIP3    H226381   5.791   6.427   8.930 -0.9578  0.0215 -0.2444
 1608TIP3   OH226382   2.753   3.544   7.330 -0.1666 -0.4373  0.3931
 1608TIP3    H126383   2.727   3.591   7.410  1.3135 -0.8793  1.1659
 1608TIP3    H226384   2.748   3.610   7.261  1.0799  0.6892  1.3185
 1609TIP3   OH226385   6.665   5.125   2.393  0.0910 -0.1270 -0.5495
 1609TIP3    H126386   6.658   5.220   2.381 -0.8660  0.4146  3.1084
 1609TIP3    H226387   6.757   5.106   2.375  0.6691  1.8024  0.0898
 1610TIP3   OH226388   3.075   6.078   0.481  0.9529  0.4014 -0.2256
 1610TIP3    H126389   3.110   6.162   0.450  2.2447  0.4885  1.3401
 1610TIP3    H226390   3.130   6.012   0.439 -0.0684  0.3031 -1.4635
 1611TIP3   OH226391   2.913   5.953   0.685  0.5048  0.0137 -0.0275
 1611TIP3    H126392   2.950   6.006   0.614  2.1827 -0.9588  0.0853
 1611TIP3    H226393   2.979   5.886   0.702 -1.5116 -2.1035 -0.1060
 1612TIP3   OH226394   5.240   4.483   1.974  0.2370 -0.3845 -0.0131
 1612TIP3    H126395   5.241   4.424   1.898 -0.9849  0.7119 -0.9234
 1612TIP3    H226396   5.299   4.554   1.949  1.7663 -1.2026  1.1127
 1613TIP3   OH226397   1.672   2.059   2.334 -0.3615 -0.3160 -0.0339
 1613TIP3    H126398   1.627   2.137   2.303  1.3866  1.2248  1.1113
 1613TIP3    H226399   1.701   2.014   2.255 -2.1230 -0.3018 -0.7295
 1614TIP3   OH226400   6.022   0.766   7.753 -0.4379 -0.1485 -0.0428
 1614TIP3    H126401   6.034   0.761   7.848 -1.5024 -0.5772  0.0841
 1614TIP3    H226402   5.927   0.762   7.740 -0.2906 -0.5530 -1.1503
 1615TIP3   OH226403   0.378   5.924   6.870 -0.0132  0.0378 -0.5867
 1615TIP3    H126404   0.314   5.980   6.827 -0.1845  1.3923  1.3215
 1615TIP3    H226405   0.327   5.866   6.925  0.3526  1.1963  1.0276
 1616TIP3   OH226406   0.519   0.085   1.401 -0.0743  0.3003  0.0975
 1616TIP3    H126407   0.430   0.120   1.406 -0.9507 -1.9067  1.6517
 1616TIP3    H226408   0.520   0.035   1.318  0.2617  1.5749 -0.6919
 1617TIP3   OH226409   5.860   6.351   8.592 -0.4130  0.4737  0.0727
 1617TIP3    H126410   5.932   6.413   8.603 -1.2178  1.5165 -0.4024
 1617TIP3    H226411   5.834   6.327   8.681 -0.3773  1.1362  0.2608
 1618TIP3   OH226412   5.632   0.532   0.052  0.3302  0.7066 -0.1107
 1618TIP3    H126413   5.542   0.528   0.087  0.4547 -1.2560  0.0884
 1618TIP3    H226414   5.643   0.624   0.027 -0.3365  1.9674  3.5188
 1619TIP3   OH226415   4.300   2.966   1.484 -0.2848 -0.3825 -0.0887
 1619TIP3    H126416   4.212   2.930   1.499 -1.5012  1.1703 -2.7879
 1619TIP3    H226417   4.296   3.054   1.521 -0.7304  0.5458 -2.1734
 1620TIP3   OH226418   5.484   4.263   0.697  0.0631  0.0443  0.1723
 1620TIP3    H126419   5.547   4.216   0.642  0.8113  0.6042  0.5249
 1620TIP3    H226420   5.501   4.355   0.679 -0.7089  0.2008  0.2282
 1621TIP3   OH226421   2.790   2.561   0.468  0.1095  0.3854  0.1802
 1621TIP3    H126422   2.814   2.605   0.550  1.0144 -1.0450  0.7167
 1621TIP3    H226423   2.788   2.468   0.490 -0.4197  0.0279 -1.2534
 1622TIP3   OH226424   6.539   2.410   1.509  0.2931 -0.7208 -0.0911
 1622TIP3    H126425   6.628   2.377   1.502  0.8677  0.5992  0.6709
 1622TIP3    H226426   6.502   2.365   1.585  1.0210  0.2256  0.8494
 1623TIP3   OH226427   4.010   3.150   7.623  0.5844  0.4110  0.1047
 1623TIP3    H126428   3.993   3.056   7.610  0.3292  0.5121 -0.3205
 1623TIP3    H226429   4.083   3.169   7.564  1.0484  0.3502  0.6500
 1624TIP3   OH226430   3.490   1.282   3.261  0.1201 -0.0775 -0.0161
 1624TIP3    H126431   3.507   1.199   3.306 -1.2145 -1.1902 -1.4512
 1624TIP3    H226432   3.397   1.299   3.277  0.1462  0.6204 -0.5706
 1625TIP3   OH226433   3.669   6.634   3.351 -0.1993 -0.3146 -0.9624
 1625TIP3    H126434   3.717   6.696   3.407 -1.2480 -0.1829 -0.1741
 1625TIP3    H226435   3.665   6.678   3.266  0.9198 -0.2597 -1.0015
 1626TIP3   OH226436   3.801   1.592   1.370  0.2732 -0.3018 -0.0756
 1626TIP3    H126437   3.729   1.545   1.411  2.0156 -2.1745  0.9903
 1626TIP3    H226438   3.870   1.593   1.436  1.8267 -0.0526 -1.6316
 1627TIP3   OH226439   0.457   2.578   2.299 -0.9950 -0.4366 -0.4549
 1627TIP3    H126440   0.430   2.628   2.376  1.8112 -1.3907  1.2738
 1627TIP3    H226441   0.379   2.530   2.273 -1.6217 -1.6045  3.0425
 1628TIP3   OH226442   5.151   1.771   7.670 -0.1744 -0.2881 -0.1918
 1628TIP3    H126443   5.148   1.832   7.743 -1.1883  0.9793 -1.2188
 1628TIP3    H226444   5.059   1.759   7.646  0.1779  0.3054 -1.9970
 1629TIP3   OH226445   3.417   5.705   1.932  0.4893  0.9107  0.2288
 1629TIP3    H126446   3.490   5.675   1.877 -0.1565  0.6239 -0.4869
 1629TIP3    H226447   3.432   5.663   2.017  1.2103  0.9358  0.1211
 1630TIP3   OH226448   6.387   1.901   1.033 -1.0540 -0.2625 -0.5111
 1630TIP3    H126449   6.310   1.921   1.087 -0.1049  3.3162 -0.2142
 1630TIP3    H226450   6.370   1.944   0.950 -0.6059 -2.0454 -1.5802
 1631TIP3   OH226451   4.171   5.186   7.749  0.2213  0.2547  0.0817
 1631TIP3    H126452   4.260   5.191   7.716  0.1213  1.3696 -0.0589
 1631TIP3    H226453   4.129   5.267   7.719 -1.2486 -0.8528 -1.0495
 1632TIP3   OH226454   3.473   6.171   8.669  0.3156  0.2741  0.4304
 1632TIP3    H126455   3.490   6.264   8.684  0.6172  0.0752  1.3852
 1632TIP3    H226456   3.560   6.131   8.669  0.2389  0.0678 -0.6138
 1633TIP3   OH226457   2.550   6.575   0.914  0.7378  0.3125  0.4528
 1633TIP3    H126458   2.461   6.593   0.884 -0.0351 -1.9079  1.2147
 1633TIP3    H226459   2.557   6.620   0.998  1.0812  2.1445 -0.5025
 1634TIP3   OH226460   0.031   2.728   0.253  0.3678  0.1928 -0.2371
 1634TIP3    H126461  -0.051   2.718   0.301  0.3351 -1.4458 -0.5804
 1634TIP3    H226462   0.014   2.799   0.190 -0.6569  0.1016 -0.0719
 1635TIP3   OH226463   1.520   0.772   1.605 -0.2967  0.6672 -0.1320
 1635TIP3    H126464   1.514   0.720   1.525 -4.0340  0.5411  0.0579
 1635TIP3    H226465   1.556   0.712   1.671  1.5289  0.3710 -1.3461
 1636TIP3   OH226466   6.359   6.023   1.994 -0.3501  0.1684 -0.3459
 1636TIP3    H126467   6.323   6.046   2.079 -2.0448  2.3293 -1.5553
 1636TIP3    H226468   6.297   5.961   1.957  0.5162 -0.9680  0.0258
 1637TIP3   OH226469   0.638   3.954   2.037  0.2611  0.3346  0.8521
 1637TIP3    H126470   0.553   3.910   2.030 -0.0811  1.2184 -2.5606
 1637TIP3    H226471   0.700   3.892   1.997  0.6595  0.9054  0.5721
 1638TIP3   OH226472   3.021   4.164   8.228  0.0887 -0.3826 -0.7647
 1638TIP3    H126473   2.940   4.139   8.272 -0.0574  0.7807 -0.3192
 1638TIP3    H226474   3.012   4.130   8.139 -1.7084  1.2320 -1.2709
 1639TIP3   OH226475   2.243   2.174   8.392  0.0326 -0.1050 -0.2921
 1639TIP3    H126476   2.243   2.078   8.387  0.9854 -0.0624 -1.6328
 1639TIP3    H226477   2.329   2.196   8.429 -0.8608  0.2142  1.7378
 1640TIP3   OH226478   0.771   2.577   1.509  0.5901 -0.3762 -0.4454
 1640TIP3    H126479   0.800   2.507   1.568 -1.7844 -1.3397 -0.2892
 1640TIP3    H226480   0.774   2.537   1.422  0.4642 -0.2372 -0.5128
 1641TIP3   OH226481   6.316   3.910   0.026  0.4631 -0.1849  0.5689
 1641TIP3    H126482   6.302   3.816   0.021 -0.2047 -0.1586  1.5820
 1641TIP3    H226483   6.342   3.935  -0.062 -1.1398 -1.0457 -0.1992
 1642TIP3   OH226484   2.851   4.281   6.877 -0.8307 -0.2658 -0.0315
 1642TIP3    H126485   2.780   4.341   6.855 -0.0859  0.7689  0.2800
 1642TIP3    H226486   2.930   4.334   6.866 -0.0651 -1.5784 -0.9854
 1643TIP3   OH226487   1.759   3.948   0.968 -0.1771 -0.2633  0.0146
 1643TIP3    H126488   1.745   4.039   0.995 -0.9432 -0.5117  0.4883
 1643TIP3    H226489   1.822   3.954   0.896  1.0072  0.5062  1.0861
 1644TIP3   OH226490   2.822   4.660   7.454  0.1215 -0.0773  0.3576
 1644TIP3    H126491   2.754   4.695   7.397  0.1186  0.8283  0.8922
 1644TIP3    H226492   2.843   4.732   7.513  1.3635 -0.4154  0.3711
 1645TIP3   OH226493   1.970   2.641   8.677 -0.4869 -0.9521  0.1764
 1645TIP3    H126494   1.878   2.664   8.664 -0.0120 -0.1168 -2.1019
 1645TIP3    H226495   2.014   2.725   8.690 -0.0210 -1.3565  1.3795
 1646TIP3   OH226496   2.802   1.013   1.814 -0.4149  0.1251 -0.4287
 1646TIP3    H126497   2.844   0.961   1.746 -0.1708 -2.0004  1.2476
 1646TIP3    H226498   2.731   0.957   1.847 -1.8057  1.8994 -0.2447
 1647TIP3   OH226499   0.601   3.334   8.490  0.0112 -0.0314 -0.0658
 1647TIP3    H126500   0.651   3.335   8.572 -1.1110  0.6246  0.6244
 1647TIP3    H226501   0.631   3.254   8.446  0.2416 -0.6903  1.2273
 1648TIP3   OH226502   5.685   0.841   2.340 -0.4171  0.0089 -0.2630
 1648TIP3    H126503   5.744   0.916   2.347 -1.2601  0.5845  1.0622
 1648TIP3    H226504   5.743   0.766   2.324  0.2995  1.1881 -4.3717
 1649TIP3   OH226505   6.264   3.994   2.603  0.0687 -0.2232 -0.2547
 1649TIP3    H126506   6.300   4.013   2.690 -1.2151 -1.6276  0.6232
 1649TIP3    H226507   6.337   3.957   2.555  0.4577 -0.7231  0.6892
 1650TIP3   OH226508   4.985   2.340   1.680 -0.0416 -0.4868 -0.2206
 1650TIP3    H126509   5.067   2.293   1.662  0.0743  0.0546 -1.1556
 1650TIP3    H226510   4.944   2.289   1.750  1.1421 -0.7065  0.3469
 1651TIP3   OH226511   0.756   1.600   6.585  0.6297  0.8772 -0.2372
 1651TIP3    H126512   0.820   1.551   6.637  0.0952  1.8406  1.4325
 1651TIP3    H226513   0.808   1.648   6.521  1.5259  1.0055  0.5543
 1652TIP3   OH226514   2.131   6.717   8.433  0.2367  0.0410 -0.1651
 1652TIP3    H126515   2.043   6.739   8.402  0.6028 -1.1655 -2.2277
 1652TIP3    H226516   2.188   6.735   8.358  1.3898 -1.6753  0.2470
 1653TIP3   OH226517   4.233   1.566   8.674  0.0062  0.5424  0.1698
 1653TIP3    H126518   4.204   1.477   8.653  0.3192  0.7449 -1.2541
 1653TIP3    H226519   4.250   1.606   8.589  0.5933  1.7296  0.8195
 1654TIP3   OH226520   5.810   1.892   0.762 -0.0971  0.1625  0.0679
 1654TIP3    H126521   5.728   1.843   0.755  0.7235 -1.5176  1.4513
 1654TIP3    H226522   5.876   1.832   0.726  0.7516  0.7949  0.5486
 1655TIP3   OH226523   4.421   2.221   0.956  0.3400 -0.1736 -0.2913
 1655TIP3    H126524   4.386   2.220   1.045 -2.0361 -2.0891 -1.1372
 1655TIP3    H226525   4.514   2.203   0.967 -0.1857 -2.1107  1.7725
 1656TIP3   OH226526   5.354   0.925   1.963  0.0048 -0.2800  0.2608
 1656TIP3    H126527   5.389   0.905   1.877 -0.0977 -3.2414  0.8059
 1656TIP3    H226528   5.401   0.866   2.023 -1.5884 -0.0216  1.8550
 1657TIP3   OH226529   5.364   3.599   7.698 -0.4403  0.4591  0.2030
 1657TIP3    H126530   5.357   3.691   7.672 -2.2748 -0.2766 -2.2676
 1657TIP3    H226531   5.331   3.550   7.623  2.5304 -2.3831  0.5184
 1658TIP3   OH226532   2.650   5.861   1.038 -0.4170  0.3357 -0.0508
 1658TIP3    H126533   2.582   5.904   0.986 -1.5238 -0.8262  0.4155
 1658TIP3    H226534   2.612   5.778   1.066  0.6786  0.2740  1.4019
 1659TIP3   OH226535   5.397   3.891   2.143 -0.1033  0.0830  0.0969
 1659TIP3    H126536   5.391   3.966   2.085 -0.0617  0.3313  0.4111
 1659TIP3    H226537   5.483   3.899   2.184  1.3315 -1.8853 -2.2534
 1660TIP3   OH226538   3.801   0.482   8.397  0.1043 -0.3476 -0.1774
 1660TIP3    H126539   3.801   0.464   8.303  2.4261  0.1273 -0.3393
 1660TIP3    H226540   3.739   0.554   8.408 -0.2225 -0.4308 -1.3324
 1661TIP3   OH226541   3.797   4.674   8.911 -0.2171 -0.0223 -0.0376
 1661TIP3    H126542   3.710   4.696   8.945 -0.4223 -0.9786  0.0848
 1661TIP3    H226543   3.794   4.699   8.819  0.1056  1.9364  0.4426
 1662TIP3   OH226544   3.730   0.884   0.825 -0.4908 -0.3868 -0.3674
 1662TIP3    H126545   3.809   0.925   0.861 -0.6991 -0.3048  0.0033
 1662TIP3    H226546   3.679   0.859   0.902 -0.4109 -1.2677 -0.5827
 1663TIP3   OH226547   1.960   6.532   1.961  0.0928 -0.2087 -0.7940
 1663TIP3    H126548   1.882   6.536   2.017  0.2868 -3.5419 -0.0365
 1663TIP3    H226549   1.926   6.513   1.874  0.0003 -0.0086 -0.8024
 1664TIP3   OH226550   5.052   2.857   1.330  0.3048  0.2504  0.3825
 1664TIP3    H126551   5.026   2.910   1.254  0.3233  0.3731  0.4615
 1664TIP3    H226552   5.028   2.768   1.306  1.2126  0.1389 -0.1890
 1665TIP3   OH226553   2.404   1.573   0.095 -0.2315 -0.3409 -0.2814
 1665TIP3    H126554   2.420   1.656   0.142  1.4006 -0.8920  0.2224
 1665TIP3    H226555   2.462   1.510   0.139 -1.6696 -1.8406 -0.4499
 1666TIP3   OH226556   4.706   2.345   7.105 -0.1246  0.0241  0.7474
 1666TIP3    H126557   4.697   2.252   7.085 -0.6911  0.1974  0.1359
 1666TIP3    H226558   4.646   2.388   7.043  0.1414  0.7905  1.0153
 1667TIP3   OH226559   6.312   3.880   0.862  0.4092 -0.0599  0.2241
 1667TIP3    H126560   6.389   3.846   0.908  0.3537  0.5362  0.7636
 1667TIP3    H226561   6.244   3.814   0.878  0.6894 -0.3901  0.0797
 1668TIP3   OH226562   0.030   1.821   7.038 -0.5666 -0.3872  0.3002
 1668TIP3    H126563  -0.043   1.871   7.076 -1.1931  0.6117 -2.0498
 1668TIP3    H226564   0.017   1.732   7.071 -2.1125  0.0340  0.9310
 1669TIP3   OH226565   3.640   3.271   1.442  0.1091 -0.1976 -0.2173
 1669TIP3    H126566   3.567   3.318   1.402 -0.5976  1.6942  2.8602
 1669TIP3    H226567   3.603   3.233   1.522  1.6919 -2.4922 -0.4734
 1670TIP3   OH226568   0.797   6.055   0.789 -1.1083  0.3314  0.2246
 1670TIP3    H126569   0.877   6.035   0.740 -0.3775 -1.4580  2.0335
 1670TIP3    H226570   0.743   5.976   0.780 -1.8671  0.7989  0.5883
 1671TIP3   OH226571   5.668   2.942   6.898 -0.0997 -0.2500  0.5408
 1671TIP3    H126572   5.739   2.974   6.954  0.3197 -1.0692  0.4869
 1671TIP3    H226573   5.705   2.865   6.854 -0.3339  0.5007 -1.0484
 1672TIP3   OH226574   4.957   3.695   8.325 -0.1875  0.0893 -0.1200
 1672TIP3    H126575   4.984   3.641   8.399 -0.6146 -1.5174 -1.0949
 1672TIP3    H226576   5.020   3.674   8.256 -0.7893  0.2851 -0.7410
 1673TIP3   OH226577   3.895   2.409   1.919  0.1888  0.0297 -0.4720
 1673TIP3    H126578   3.925   2.495   1.949  1.3479  0.5089 -2.7553
 1673TIP3    H226579   3.800   2.411   1.932  0.0164  2.2033 -1.6641
 1674TIP3   OH226580   0.172   0.910   8.662 -0.7963 -0.3238 -0.5143
 1674TIP3    H126581   0.086   0.946   8.684 -0.1620  0.0236  1.6455
 1674TIP3    H226582   0.153   0.836   8.605 -2.4388  0.4838 -1.0875
 1675TIP3   OH226583   0.869   3.004   1.607  0.6966 -0.0414 -0.5813
 1675TIP3    H126584   0.942   3.065   1.605  1.1092 -0.5538 -1.6228
 1675TIP3    H226585   0.869   2.962   1.521 -2.1403  1.5074 -1.4711
 1676TIP3   OH226586   5.231   4.115   8.230  0.1007 -0.1440 -0.3619
 1676TIP3    H126587   5.217   4.052   8.301  0.6085 -1.1996 -1.1632
 1676TIP3    H226588   5.309   4.083   8.184  0.7793  1.4501 -0.4053
 1677TIP3   OH226589   6.493   0.695   2.225  0.3410  0.3878 -0.1820
 1677TIP3    H126590   6.484   0.615   2.173 -0.9557 -0.4905  1.3041
 1677TIP3    H226591   6.416   0.747   2.201 -0.5537 -0.2505  1.1535
 1678TIP3   OH226592   3.061   6.212   1.782 -0.2746 -0.3015  0.4739
 1678TIP3    H126593   3.034   6.135   1.832 -4.0718  0.5411  0.0695
 1678TIP3    H226594   3.050   6.186   1.691 -1.9844  0.7084  0.3366
 1679TIP3   OH226595   4.580   3.558   1.148  0.0144  0.7401  0.0113
 1679TIP3    H126596   4.489   3.547   1.177 -0.1599 -3.2825 -1.4521
 1679TIP3    H226597   4.573   3.579   1.055  0.5081 -1.1333 -0.4855
 1680TIP3   OH226598   4.026   2.037   1.813 -0.1328 -0.0151  0.4323
 1680TIP3    H126599   4.117   2.007   1.816 -0.0664  0.1478  0.0966
 1680TIP3    H226600   4.024   2.101   1.742 -0.6173 -0.3713  0.1190
 1681TIP3   OH226601   4.789   3.436   6.490 -0.0086 -0.1422 -0.0371
 1681TIP3    H126602   4.746   3.493   6.555 -1.2559  0.3098 -1.1969
 1681TIP3    H226603   4.829   3.367   6.542 -0.2187  0.6739  1.2795
 1682TIP3   OH226604   4.921   3.331   7.969  0.6298 -0.1208 -0.1314
 1682TIP3    H126605   4.860   3.360   8.036 -0.2936  0.6723 -1.2907
 1682TIP3    H226606   5.008   3.346   8.007  0.1294  1.1537  0.5416
 1683TIP3   OH226607   4.558   2.551   0.198  0.1694  0.0940  0.0606
 1683TIP3    H126608   4.583   2.597   0.118 -0.3754 -0.9410 -0.7334
 1683TIP3    H226609   4.614   2.474   0.200 -0.5466 -0.4390  0.0963
 1684TIP3   OH226610   3.917   2.934   6.823 -0.7567 -0.0479  0.6081
 1684TIP3    H126611   3.913   2.865   6.890  0.7443 -0.2239  0.5493
 1684TIP3    H226612   3.974   3.001   6.862  0.5829 -0.3961 -0.6696
 1685TIP3   OH226613   4.899   0.519   0.614  1.1279  0.0381 -0.5595
 1685TIP3    H126614   4.953   0.595   0.630  0.3297  0.0781  2.5599
 1685TIP3    H226615   4.822   0.553   0.567  0.8506  1.1657  0.6619
 1686TIP3   OH226616   2.021   5.233   7.778  0.6605 -0.0763  0.2313
 1686TIP3    H126617   2.072   5.297   7.728 -0.5090 -0.5609 -1.6777
 1686TIP3    H226618   1.967   5.287   7.836  0.0730  0.6804 -0.9788
 1687TIP3   OH226619   4.563   2.681   7.758  0.1041  0.1986 -0.1140
 1687TIP3    H126620   4.602   2.637   7.683 -2.0592 -0.5966 -0.8408
 1687TIP3    H226621   4.620   2.757   7.774  2.9894 -1.8693  0.1395
 1688TIP3   OH226622   3.956   3.690   6.826  0.3341  0.3035 -0.4290
 1688TIP3    H126623   3.945   3.602   6.791  1.0846 -1.2562  2.9007
 1688TIP3    H226624   3.888   3.742   6.782 -4.3676 -3.3197  1.6528
 1689TIP3   OH226625   0.541   0.447   7.310 -0.7410  0.0724  0.1073
 1689TIP3    H126626   0.590   0.387   7.366 -0.3900 -2.0093 -2.2657
 1689TIP3    H226627   0.609   0.494   7.261 -1.0057 -1.0601 -1.4236
 1690TIP3   OH226628   4.350   4.710   0.194 -0.0504 -0.2851  0.1925
 1690TIP3    H126629   4.396   4.788   0.226  1.9735 -1.4732  0.3619
 1690TIP3    H226630   4.262   4.741   0.172 -0.2879  1.4548  3.0310
 1691TIP3   OH226631   0.388   3.201   2.170  0.1220 -0.8105 -0.0624
 1691TIP3    H126632   0.326   3.168   2.234 -0.8207 -0.4680 -0.7822
 1691TIP3    H226633   0.460   3.236   2.222 -0.7856 -0.2173  0.8286
 1692TIP3   OH226634   6.327   3.668   2.364  0.3713 -0.3022  0.0606
 1692TIP3    H126635   6.265   3.675   2.437 -0.3216 -1.8861 -0.3247
 1692TIP3    H226636   6.384   3.595   2.389  0.2038 -0.7745 -0.8989
 1693TIP3   OH226637   1.537   3.894   8.819  0.3384  0.1884  0.1940
 1693TIP3    H126638   1.554   3.836   8.893 -1.8051 -0.9274 -0.0973
 1693TIP3    H226639   1.593   3.861   8.749 -0.6763 -1.4748  0.1000
 1694TIP3   OH226640   5.267   3.295   6.902  0.3343 -0.1479 -0.6248
 1694TIP3    H126641   5.296   3.321   6.815  0.3334  0.8062 -0.3471
 1694TIP3    H226642   5.340   3.244   6.938  1.0938  0.9946 -0.4902
 1695TIP3   OH226643   4.686   0.271   6.883  0.6167  0.1018  0.3895
 1695TIP3    H126644   4.766   0.219   6.887 -0.6698 -2.0561 -0.4130
 1695TIP3    H226645   4.672   0.287   6.790 -0.0108  0.2943  0.5144
 1696TIP3   OH226646   5.710   5.454   7.752  0.0900  0.0115 -0.0637
 1696TIP3    H126647   5.793   5.496   7.727 -0.8790  2.4187  0.4464
 1696TIP3    H226648   5.715   5.448   7.848  0.0285 -0.6766 -0.0998
 1697TIP3   OH226649   1.862   0.709   1.584  0.4531  0.0424 -0.2473
 1697TIP3    H126650   1.916   0.707   1.505  2.7875  1.5455  1.1956
 1697TIP3    H226651   1.829   0.799   1.589  1.2483  0.2961  1.0084
 1698TIP3   OH226652   0.768   1.219   0.640 -0.1561 -0.3738  0.2846
 1698TIP3    H126653   0.854   1.200   0.604 -0.3119  0.9039 -0.8740
 1698TIP3    H226654   0.713   1.237   0.563 -0.7770  1.3886  1.0720
 1699TIP3   OH226655   5.054   3.860   1.153 -0.2861  0.3741  0.0897
 1699TIP3    H126656   5.122   3.839   1.089  0.2979 -0.7612  1.0425
 1699TIP3    H226657   5.004   3.930   1.112  0.5541  0.2268 -1.2669
 1700TIP3   OH226658   0.623   5.175   7.147  0.3095 -0.4512  0.6808
 1700TIP3    H126659   0.532   5.178   7.120  0.1861 -2.0344  0.8033
 1700TIP3    H226660   0.653   5.088   7.121  2.2808  0.5920 -0.8521
 1701TIP3   OH226661   6.111   5.503   7.752 -0.0772 -0.0661  0.8317
 1701TIP3    H126662   6.092   5.572   7.688 -1.4544  1.3081  2.6303
 1701TIP3    H226663   6.070   5.425   7.716  1.6487 -0.0846 -1.3244
 1702TIP3   OH226664   6.543   3.976   1.985 -0.3598  0.4321 -0.5564
 1702TIP3    H126665   6.513   3.906   2.043 -0.3312  0.3348 -0.6583
 1702TIP3    H226666   6.464   4.025   1.962 -0.1279  1.7531  1.2303
 1703TIP3   OH226667   5.734   1.127   2.360 -0.3760  0.5540  0.1587
 1703TIP3    H126668   5.640   1.135   2.340 -0.5807 -0.0783  0.8166
 1703TIP3    H226669   5.736   1.108   2.454  0.4805  1.8725  0.4292
 1704TIP3   OH226670   5.600   0.839   0.898  0.1216 -0.1228 -0.7471
 1704TIP3    H126671   5.625   0.797   0.816 -0.1764 -0.5135 -0.6433
 1704TIP3    H226672   5.666   0.906   0.912  0.3353 -0.2432 -1.1629
 1705TIP3   OH226673   4.679   1.739   1.623 -0.2865 -0.8605 -0.3076
 1705TIP3    H126674   4.598   1.736   1.675  0.2328 -0.9149  0.5295
 1705TIP3    H226675   4.736   1.674   1.664  0.5121 -0.1837 -0.3082
 1706TIP3   OH226676   5.101   1.132   7.559 -1.0167 -0.0129 -0.2181
 1706TIP3    H126677   5.035   1.158   7.624 -0.7946 -0.5370  0.2234
 1706TIP3    H226678   5.065   1.163   7.475 -0.2134  2.7556  0.3796
 1707TIP3   OH226679   2.396   2.732   1.942  0.1254  0.2541 -0.4717
 1707TIP3    H126680   2.351   2.767   1.865  1.2164  1.8214 -0.4380
 1707TIP3    H226681   2.337   2.664   1.975 -1.1744  0.7388 -1.6726
 1708TIP3   OH226682   1.688   6.506   2.547 -0.6176 -0.2680 -0.2982
 1708TIP3    H126683   1.747   6.481   2.476 -2.0300  0.0891 -1.6934
 1708TIP3    H226684   1.691   6.433   2.609  3.0363  0.7512  0.9760
 1709TIP3   OH226685   5.545   2.483   0.503  0.3225  0.0781  0.0624
 1709TIP3    H126686   5.482   2.555   0.502 -0.4396 -0.5836 -0.8233
 1709TIP3    H226687   5.512   2.424   0.570 -0.5923 -0.7612 -1.0966
 1710TIP3   OH226688   2.830   4.042   7.009 -0.3990 -0.5200 -0.2184
 1710TIP3    H126689   2.845   4.128   6.969 -1.9658 -1.1892 -2.3832
 1710TIP3    H226690   2.911   4.024   7.057  0.1459  1.9381 -0.0618
 1711TIP3   OH226691   1.227   6.314   0.335 -0.5883 -0.3881  1.0198
 1711TIP3    H126692   1.136   6.300   0.362 -0.6149  1.2961  1.9092
 1711TIP3    H226693   1.276   6.319   0.417  0.5907 -2.7110  0.5423
 1712TIP3   OH226694   0.013   4.030   1.028  0.6532 -0.1842  0.2408
 1712TIP3    H126695   0.077   3.995   1.090  1.7031 -0.2942 -0.8570
 1712TIP3    H226696   0.065   4.084   0.968 -0.1323 -0.8956 -1.1393
 1713TIP3   OH226697   3.711   2.878   7.175 -0.0105  0.3502 -0.2338
 1713TIP3    H126698   3.767   2.819   7.125 -1.4407  0.9874 -2.7443
 1713TIP3    H226699   3.762   2.958   7.185  0.3836  0.1284 -0.4644
 1714TIP3   OH226700   5.645   2.488   0.933 -0.2557  0.1444  0.2525
 1714TIP3    H126701   5.572   2.451   0.983 -0.6507  1.7373  0.9027
 1714TIP3    H226702   5.708   2.416   0.926 -0.4673 -0.3557  2.5037
 1715TIP3   OH226703   1.880   6.455   0.770 -0.0556 -0.5009 -0.3074
 1715TIP3    H126704   1.864   6.512   0.845 -1.1420 -1.7689  0.4719
 1715TIP3    H226705   1.892   6.515   0.696  0.0876  0.7430  0.7027
 1716TIP3   OH226706   4.073   0.574   1.626  0.2697  0.0998 -0.0334
 1716TIP3    H126707   4.148   0.620   1.664 -0.6624  0.1395  1.8601
 1716TIP3    H226708   4.107   0.488   1.603  1.1392  0.4706 -0.1716
 1717TIP3   OH226709   6.003   5.010   2.841  0.0764 -0.0974  0.4624
 1717TIP3    H126710   5.949   4.992   2.918 -0.7575 -0.0149 -0.0916
 1717TIP3    H226711   5.940   5.023   2.770  0.7723  1.2199  0.0466
 1718TIP3   OH226712   6.496   1.615   7.540 -0.1777  0.1677  0.2757
 1718TIP3    H126713   6.541   1.673   7.601  0.5215 -0.6560  0.5623
 1718TIP3    H226714   6.563   1.552   7.512 -1.0121 -0.7708  0.3178
 1719TIP3   OH226715   5.441   5.452   8.389 -0.3765 -0.1492 -0.1779
 1719TIP3    H126716   5.521   5.410   8.358 -0.0696  0.2181  0.1042
 1719TIP3    H226717   5.468   5.541   8.412 -0.1122 -0.9462  3.0807
 1720TIP3   OH226718   5.708   0.938   8.672 -0.0390  0.3068 -0.0696
 1720TIP3    H126719   5.623   0.893   8.666  0.2382 -0.3456  0.6574
 1720TIP3    H226720   5.716   0.986   8.590 -1.0245  0.2170 -0.2330
 1721TIP3   OH226721   5.034   1.899   8.802 -0.5889  0.0772 -0.0914
 1721TIP3    H126722   5.048   1.818   8.851  0.8568 -0.2338 -0.9651
 1721TIP3    H226723   5.070   1.968   8.857  2.3461 -0.4265 -1.2066
 1722TIP3   OH226724   5.388   3.102   1.005  0.0073 -0.4086 -0.4316
 1722TIP3    H126725   5.306   3.059   0.979 -1.3462  1.7601  0.0100
 1722TIP3    H226726   5.434   3.116   0.923 -0.6572 -0.5077 -0.8342
 1723TIP3   OH226727   3.501   4.916   8.052 -0.8196  0.1223  0.6295
 1723TIP3    H126728   3.581   4.926   7.999 -0.6150  0.6634  1.0364
 1723TIP3    H226729   3.528   4.858   8.123 -0.9615 -0.2013  0.4221
 1724TIP3   OH226730   1.011   6.210   8.629 -0.1566  0.4925  0.3364
 1724TIP3    H126731   1.078   6.146   8.608 -1.4001 -0.7090 -0.0941
 1724TIP3    H226732   0.964   6.172   8.704 -1.0649  0.7726 -0.0792
 1725TIP3   OH226733   4.632   5.134   0.125 -0.2945  0.5277 -0.3917
 1725TIP3    H126734   4.617   5.085   0.043  2.0849 -1.4348  0.2316
 1725TIP3    H226735   4.722   5.165   0.118  0.0469  0.1077  1.5541
 1726TIP3   OH226736   6.434   6.182   8.722  0.1775  0.3070 -0.0612
 1726TIP3    H126737   6.468   6.098   8.692  1.3174  0.6894  0.1296
 1726TIP3    H226738   6.371   6.208   8.654 -0.4978 -0.8789  0.0816
 1727TIP3   OH226739   0.908   1.189   1.301 -0.0440 -0.2621  0.1262
 1727TIP3    H126740   0.857   1.201   1.221 -2.0201 -1.6973  1.0911
 1727TIP3    H226741   0.893   1.269   1.351  0.3998  0.2235 -0.5096
 1728TIP3   OH226742   1.292   1.806   0.106 -0.2604  0.0811 -0.0127
 1728TIP3    H126743   1.336   1.762   0.179  0.4775 -0.4292 -0.7519
 1728TIP3    H226744   1.234   1.869   0.148  1.1737  0.7781  1.0036
 1729TIP3   OH226745   3.051   3.553   8.534 -0.1278  0.2209  0.3600
 1729TIP3    H126746   3.079   3.513   8.451 -0.6725 -0.1712  0.3582
 1729TIP3    H226747   2.986   3.492   8.569  0.5871  0.0423  1.4158
 1730TIP3   OH226748   1.353   4.462   0.645  0.1542  0.1510  0.4046
 1730TIP3    H126749   1.350   4.447   0.551 -1.5373 -2.2037  0.7343
 1730TIP3    H226750   1.339   4.556   0.655  3.3994  1.0184 -1.7189
 1731TIP3   OH226751   1.028   5.387   0.815 -0.5016 -0.2369  0.1388
 1731TIP3    H126752   1.032   5.441   0.894  1.2006 -1.0906  0.6845
 1731TIP3    H226753   1.009   5.299   0.847 -1.8013 -0.2492 -0.6108
 1732TIP3   OH226754   1.163   2.356   1.379  0.1147 -0.1503  0.7590
 1732TIP3    H126755   1.195   2.321   1.296 -2.1994 -0.8777  0.1006
 1732TIP3    H226756   1.218   2.314   1.446  1.2807 -0.4090 -0.3333
 1733TIP3   OH226757   0.419   6.518   2.337  0.0025 -0.4737 -0.1625
 1733TIP3    H126758   0.472   6.443   2.364  1.1701  0.2879 -0.2753
 1733TIP3    H226759   0.354   6.481   2.277  2.0079 -1.1028 -2.0754
 1734TIP3   OH226760   6.519   5.179   0.559  0.4127 -0.5106  0.1404
 1734TIP3    H126761   6.510   5.105   0.500  2.7618  1.0650 -2.4683
 1734TIP3    H226762   6.447   5.170   0.621 -0.6572 -3.7294 -1.3702
 1735TIP3   OH226763   4.283   5.567   1.589  0.5118  0.1335  0.5596
 1735TIP3    H126764   4.344   5.636   1.616  1.1530 -0.3061  0.2550
 1735TIP3    H226765   4.337   5.504   1.543 -0.3935  0.3807 -0.9143
 1736TIP3   OH226766   2.911   1.149   0.606  0.7342 -0.4103 -0.1810
 1736TIP3    H126767   2.925   1.103   0.523  2.2895 -2.3702  1.0534
 1736TIP3    H226768   2.816   1.156   0.614  0.4962  2.2796 -3.2837
 1737TIP3   OH226769   0.930   6.379   1.191  0.5074 -0.8564  0.7113
 1737TIP3    H126770   0.975   6.302   1.226  2.0840  0.6716  2.2698
 1737TIP3    H226771   0.891   6.421   1.268 -0.5798 -0.2423 -0.1486
 1738TIP3   OH226772   1.487   5.282   1.147 -0.0223  0.1084  0.4781
 1738TIP3    H126773   1.433   5.245   1.078  1.8580 -0.2269 -0.8710
 1738TIP3    H226774   1.512   5.207   1.201  0.8183 -0.0837 -0.1538
 1739TIP3   OH226775   2.084   1.222   8.699 -0.4677 -0.3351  0.5706
 1739TIP3    H126776   1.999   1.178   8.707  0.1023 -1.1132  5.2946
 1739TIP3    H226777   2.079   1.295   8.761  2.4195 -0.7319  1.4314
 1740TIP3   OH226778   6.404   2.523   2.118  0.3065 -0.4313  0.0233
 1740TIP3    H126779   6.452   2.558   2.043 -0.7260 -1.1732 -1.0230
 1740TIP3    H226780   6.441   2.436   2.132  0.2864 -0.4162  0.1698
 1741TIP3   OH226781   1.469   1.011   6.599 -0.1334  0.2738  0.6151
 1741TIP3    H126782   1.458   1.037   6.691 -1.9432 -0.6347  0.6862
 1741TIP3    H226783   1.437   1.086   6.549  1.3736  0.9969  0.6816
 1742TIP3   OH226784   5.683   3.839   1.571  0.2244  0.2380 -0.7315
 1742TIP3    H126785   5.594   3.804   1.566 -0.5279  1.9032 -0.0653
 1742TIP3    H226786   5.671   3.930   1.600  2.2394  0.0941  0.7660
 1743TIP3   OH226787   1.993   5.033   2.444 -0.2719  0.5307 -0.1945
 1743TIP3    H126788   1.929   5.026   2.373 -2.1248 -1.8397  1.5581
 1743TIP3    H226789   1.993   5.126   2.466 -3.3096  0.6322 -0.1837
 1744TIP3   OH226790   2.878   0.887   7.398 -0.4110 -0.1096  0.2871
 1744TIP3    H126791   2.829   0.831   7.457 -1.1753  0.3658  0.1194
 1744TIP3    H226792   2.878   0.973   7.441  0.4388 -0.1415  0.3710
 1745TIP3   OH226793   1.048   6.476   0.199 -0.4135 -0.1680 -0.2930
 1745TIP3    H126794   1.121   6.444   0.252 -0.6510  1.6689  1.2642
 1745TIP3    H226795   1.089   6.534   0.135 -0.5154  2.4583  1.8259
 1746TIP3   OH226796   3.625   4.081   2.019 -0.1832 -1.0319  0.4839
 1746TIP3    H126797   3.565   4.011   1.993 -0.0241 -0.9412 -0.1406
 1746TIP3    H226798   3.616   4.147   1.951 -1.1433  0.0668  1.6285
 1747TIP3   OH226799   3.218   4.441   8.213  0.8008 -0.2807  0.2996
 1747TIP3    H126800   3.270   4.473   8.139 -0.8622 -1.3270 -1.4238
 1747TIP3    H226801   3.162   4.516   8.236 -0.4383 -0.6812 -1.2278
 1748TIP3   OH226802   4.751   5.720   0.854 -0.4865  0.1066 -0.1053
 1748TIP3    H126803   4.719   5.758   0.772  1.5500  2.2533 -0.0136
 1748TIP3    H226804   4.813   5.784   0.888 -1.2511 -0.6796  3.1742
 1749TIP3   OH226805   0.503   3.973   2.779  0.2130  0.0392  0.1352
 1749TIP3    H126806   0.561   4.028   2.726  0.8791 -0.1652  0.6440
 1749TIP3    H226807   0.449   4.036   2.827  1.6774  0.3309  1.5088
 1750TIP3   OH226808   1.358   0.129   2.637 -0.3534  0.4897 -0.2920
 1750TIP3    H126809   1.405   0.046   2.635 -0.5540  0.3372  0.6673
 1750TIP3    H226810   1.281   0.114   2.581  0.6132  0.6891 -1.7201
 1751TIP3   OH226811   4.613   3.637   2.197 -0.1846  0.1497  0.1052
 1751TIP3    H126812   4.680   3.584   2.155  0.1913  0.8895 -0.2492
 1751TIP3    H226813   4.580   3.694   2.128  0.4770  1.4245  0.8020
 1752TIP3   OH226814   0.810   3.536   1.653  0.0529  0.0583 -0.1290
 1752TIP3    H126815   0.842   3.526   1.743  0.6595 -1.8415 -0.5133
 1752TIP3    H226816   0.824   3.629   1.633 -0.7342  0.6962  1.9509
 1753TIP3   OH226817   2.587   5.391   2.798  0.4231 -0.5251 -0.3684
 1753TIP3    H126818   2.532   5.347   2.732  0.5880 -1.2125 -0.0582
 1753TIP3    H226819   2.590   5.482   2.769 -1.7669 -0.2192  0.1943
 1754TIP3   OH226820   6.331   1.202   7.922  0.3430  0.3634  0.4795
 1754TIP3    H126821   6.290   1.202   8.009  0.0748  0.6807  0.3569
 1754TIP3    H226822   6.335   1.294   7.898 -0.5899  0.2090 -0.3071
 1755TIP3   OH226823   5.604   6.528   8.728  0.1617  0.7933  0.6262
 1755TIP3    H126824   5.537   6.579   8.773  1.5993 -0.0222  4.0585
 1755TIP3    H226825   5.624   6.578   8.649 -2.5235  2.4251  0.8622
 1756TIP3   OH226826   0.946   3.296   7.147  0.4100 -0.0444  0.1300
 1756TIP3    H126827   0.898   3.359   7.094  0.7271  0.1939  0.1217
 1756TIP3    H226828   1.003   3.350   7.202 -0.2143 -0.2547  1.0184
 1757TIP3   OH226829   4.263   2.202   1.294  0.5005 -0.0286 -0.0575
 1757TIP3    H126830   4.287   2.193   1.387  0.5199  1.4936  0.1197
 1757TIP3    H226831   4.294   2.121   1.253 -2.8857 -2.5452  1.8736
 1758TIP3   OH226832   4.486   1.423   2.497 -0.4420 -0.6583 -0.4959
 1758TIP3    H126833   4.411   1.432   2.438 -0.7633  0.4213  0.0504
 1758TIP3    H226834   4.455   1.456   2.581  1.0590  1.2731 -0.6104
 1759TIP3   OH226835   1.961   0.183   8.122 -0.0553 -0.2529  0.0449
 1759TIP3    H126836   1.942   0.176   8.216  0.7465  0.8429  0.2978
 1759TIP3    H226837   1.987   0.094   8.096 -0.7872 -0.6847  0.7272
 1760TIP3   OH226838   1.139   2.774   7.885  0.7782  0.3275  0.1130
 1760TIP3    H126839   1.229   2.790   7.855  0.6800 -0.7080 -0.8081
 1760TIP3    H226840   1.096   2.733   7.810 -0.6354  1.3129  0.3632
 1761TIP3   OH226841   4.841   0.534   8.359 -0.1399 -0.2240  0.2006
 1761TIP3    H126842   4.888   0.510   8.280 -0.8631  0.3493 -0.4162
 1761TIP3    H226843   4.776   0.465   8.371 -1.0332  0.4592 -0.5698
 1762TIP3   OH226844   2.755   6.514   8.028 -0.5453 -0.6395  0.3385
 1762TIP3    H126845   2.799   6.553   8.103  2.4952 -1.4951 -0.8431
 1762TIP3    H226846   2.762   6.580   7.959 -1.2042 -0.7803  0.1241
 1763TIP3   OH226847   3.339   4.385   2.474  0.0680 -0.1176  0.6923
 1763TIP3    H126848   3.333   4.452   2.406  0.3301 -0.9839 -0.2166
 1763TIP3    H226849   3.250   4.349   2.480  0.2730 -0.7686  0.0212
 1764TIP3   OH226850   1.725   0.275   1.900  0.8532 -0.5487  0.1055
 1764TIP3    H126851   1.746   0.189   1.935  1.1613 -0.6814 -0.4030
 1764TIP3    H226852   1.669   0.258   1.825  1.7097 -0.3697 -0.5985
 1765TIP3   OH226853   1.975   1.083   0.400  0.4887  0.0757 -0.3395
 1765TIP3    H126854   2.029   1.052   0.473 -0.5712 -0.4180  0.2612
 1765TIP3    H226855   1.935   1.003   0.365 -0.0492  0.4622 -0.6071
 1766TIP3   OH226856   6.501   5.442   1.400 -0.0337 -0.3442 -0.3593
 1766TIP3    H126857   6.588   5.403   1.411 -0.6523 -1.1085  2.5929
 1766TIP3    H226858   6.518   5.535   1.386  1.2753 -0.7840 -2.0145
 1767TIP3   OH226859   0.946   1.440   2.824  0.1202 -0.3136 -0.1020
 1767TIP3    H126860   0.889   1.501   2.871 -2.1153  0.2530 -3.2068
 1767TIP3    H226861   1.014   1.496   2.786  0.4436 -0.3738  0.3927
 1768TIP3   OH226862   6.415   3.690   7.927 -0.0620  0.1266  0.1777
 1768TIP3    H126863   6.366   3.765   7.892 -0.8304 -0.7420 -0.6400
 1768TIP3    H226864   6.471   3.729   7.994  0.0277  1.5516 -0.6530
 1769TIP3   OH226865   1.855   1.887   7.285  0.0478 -0.3550  0.5969
 1769TIP3    H126866   1.816   1.897   7.372  0.2333  0.4443  0.5897
 1769TIP3    H226867   1.874   1.793   7.278  0.7194 -0.3112  1.7133
 1770TIP3   OH226868   5.331   3.584   1.486  0.3738  0.1236 -0.4668
 1770TIP3    H126869   5.250   3.572   1.436 -0.4474  0.5225  0.7155
 1770TIP3    H226870   5.331   3.676   1.510  1.0432  0.0604 -0.2144
 1771TIP3   OH226871   6.640   3.259   2.340 -0.5229  0.7699 -0.0599
 1771TIP3    H126872   6.684   3.197   2.283 -0.5257  1.3388 -0.6989
 1771TIP3    H226873   6.615   3.208   2.418 -0.8976 -0.1167 -0.7460
 1772TIP3   OH226874   1.951   5.310   2.122 -0.0099  0.1689  0.0759
 1772TIP3    H126875   1.993   5.380   2.171  1.6280 -0.8873  0.2435
 1772TIP3    H226876   1.869   5.294   2.169  0.9564  0.0002  1.7914
 1773TIP3   OH226877   1.782   3.995   7.379  0.2236 -0.0148 -0.0429
 1773TIP3    H126878   1.823   4.059   7.319 -0.4104 -0.3974 -0.8971
 1773TIP3    H226879   1.778   4.041   7.463  2.8307 -0.1078  0.2316
 1774TIP3   OH226880   4.710   3.862   6.904 -0.0802  0.3110  0.2571
 1774TIP3    H126881   4.649   3.902   6.841  0.9890  0.1455 -0.9025
 1774TIP3    H226882   4.653   3.817   6.966 -1.2492  1.9947  0.4865
 1775TIP3   OH226883   4.274   0.283   8.738 -0.0589  0.0641  0.1048
 1775TIP3    H126884   4.310   0.210   8.688 -1.3168  0.0035 -0.7398
 1775TIP3    H226885   4.202   0.316   8.684 -0.8086  0.6348  1.4234
 1776TIP3   OH226886   2.029   5.510   0.808 -0.0084  0.4612 -0.1100
 1776TIP3    H126887   2.029   5.555   0.893  0.9985  1.8867 -0.8142
 1776TIP3    H226888   1.940   5.477   0.798 -0.1462  0.2584  1.4932
 1777TIP3   OH226889   2.135   2.344   1.187 -0.6238  0.4898 -0.2770
 1777TIP3    H126890   2.178   2.339   1.272  1.5150  1.9680 -1.1642
 1777TIP3    H226891   2.090   2.428   1.188 -2.5366 -0.4933  0.1733
 1778TIP3   OH226892   1.843   2.185   7.062  0.4537 -0.2212 -0.1163
 1778TIP3    H126893   1.931   2.155   7.085 -0.4482 -1.6068  1.8529
 1778TIP3    H226894   1.833   2.163   6.969  2.0710 -0.3125 -0.2841
 1779TIP3   OH226895   5.580   1.175   1.203  0.0788 -0.2071 -0.7023
 1779TIP3    H126896   5.628   1.122   1.139  2.4534 -0.5214  1.1835
 1779TIP3    H226897   5.488   1.164   1.179  0.6833 -2.6124 -2.3048
 1780TIP3   OH226898   5.577   5.136   7.644  0.0209 -0.3100 -0.3423
 1780TIP3    H126899   5.650   5.075   7.655 -0.6120 -1.5924 -2.6746
 1780TIP3    H226900   5.503   5.093   7.688  0.5743  1.0421  2.1236
 1781TIP3   OH226901   1.688   2.279   0.185  0.1052 -0.0943  0.2918
 1781TIP3    H126902   1.764   2.309   0.134 -0.6009  1.0573 -0.1201
 1781TIP3    H226903   1.628   2.243   0.119  0.0721 -0.5204  0.5545
 1782TIP3   OH226904   1.995   1.996   8.654 -0.1186  0.3061 -0.1651
 1782TIP3    H126905   2.019   1.905   8.637 -2.2620 -0.5620  0.9823
 1782TIP3    H226906   1.902   2.000   8.632 -0.1121  2.1720  0.0075
 1783TIP3   OH226907   0.431   4.577   1.549  0.3064 -0.0284 -0.0553
 1783TIP3    H126908   0.373   4.652   1.560 -0.7147 -0.4882 -1.8888
 1783TIP3    H226909   0.383   4.504   1.587 -0.6812 -0.5301 -2.1339
 1784TIP3   OH226910   2.730   1.548   8.767 -0.1445  0.3532  0.5531
 1784TIP3    H126911   2.766   1.635   8.783  0.0852  0.3397  0.1285
 1784TIP3    H226912   2.635   1.560   8.769 -0.1401  0.8867 -0.8433
 1785TIP3   OH226913   3.835   6.626   1.951 -0.2726 -0.3036 -0.4223
 1785TIP3    H126914   3.814   6.532   1.946  0.0078 -0.4296  0.5717
 1785TIP3    H226915   3.885   6.635   2.032 -0.1650  0.6875 -0.5899
 1786TIP3   OH226916   1.344   4.986   1.447  0.1050 -0.6773  0.0185
 1786TIP3    H126917   1.414   5.050   1.438  1.0157 -1.7630 -0.8933
 1786TIP3    H226918   1.324   4.984   1.541  0.4571  0.5032  0.1297
 1787TIP3   OH226919   0.028   3.302   0.951 -0.1366 -0.1461 -0.1827
 1787TIP3    H126920  -0.053   3.277   0.995  1.7187 -2.2789  2.3491
 1787TIP3    H226921   0.073   3.357   1.015  1.0304 -0.1674 -0.9679
 1788TIP3   OH226922   6.734   4.303   0.767  0.2921  0.3920 -0.1346
 1788TIP3    H126923   6.724   4.396   0.788 -0.9437 -0.1464  1.9465
 1788TIP3    H226924   6.812   4.276   0.815  0.2552  0.2201 -0.1712
 1789TIP3   OH226925   0.016   5.124   0.569 -0.2746 -0.1184 -0.0486
 1789TIP3    H126926   0.059   5.098   0.487 -1.8458  1.3902 -1.4271
 1789TIP3    H226927  -0.071   5.087   0.563 -0.6265  0.5778  0.6157
 1790TIP3   OH226928   4.383   2.672   8.775  0.2019 -0.3354  0.0155
 1790TIP3    H126929   4.452   2.735   8.794  0.4997 -0.2378 -1.2486
 1790TIP3    H226930   4.418   2.588   8.804  0.2304 -0.0794  0.7441
 1791TIP3   OH226931   5.314   4.283   7.875 -0.1204 -0.4592 -0.2451
 1791TIP3    H126932   5.328   4.219   7.805 -0.5581  0.0729 -0.8323
 1791TIP3    H226933   5.373   4.256   7.945 -0.1125 -1.3518 -0.5871
 1792TIP3   OH226934   4.856   3.658   0.934 -0.1502 -0.3674 -0.3056
 1792TIP3    H126935   4.806   3.616   0.864 -0.6240  1.3617 -1.0515
 1792TIP3    H226936   4.946   3.661   0.900 -0.2844  0.0175 -0.6323
 1793TIP3   OH226937   1.036   3.452   1.835 -0.0854  0.1854  0.2191
 1793TIP3    H126938   1.039   3.453   1.931 -0.8649  0.1924  0.2517
 1793TIP3    H226939   1.073   3.367   1.811  2.1554  1.0538  0.4136
 1794TIP3   OH226940   2.185   2.490   8.784 -0.4018 -0.4944  0.9407
 1794TIP3    H126941   2.185   2.405   8.740 -0.0071  0.4740 -1.0366
 1794TIP3    H226942   2.095   2.522   8.775 -0.3224 -0.2949  0.8450
 1795TIP3   OH226943   0.475   5.341   8.928 -0.3251  0.1682 -0.4526
 1795TIP3    H126944   0.497   5.254   8.958 -0.8948  0.0372 -0.3889
 1795TIP3    H226945   0.559   5.384   8.911 -0.0483 -0.3938 -0.4967
 1796TIP3   OH226946   2.233   5.995   0.159 -0.2483  0.0125  0.2049
 1796TIP3    H126947   2.285   5.934   0.108  0.0847 -0.7810  1.4695
 1796TIP3    H226948   2.290   6.023   0.231 -0.5130  1.5439 -0.1428
 1797TIP3   OH226949   4.481   0.516   0.911  0.6631 -0.2014 -0.2057
 1797TIP3    H126950   4.414   0.522   0.843 -0.1109  1.1853  0.6363
 1797TIP3    H226951   4.520   0.430   0.898 -0.9417 -0.8474 -1.0385
 1798TIP3   OH226952   4.737   2.567   0.439 -0.1724 -0.4206 -1.0923
 1798TIP3    H126953   4.729   2.542   0.346  0.7098  0.3880 -1.3996
 1798TIP3    H226954   4.728   2.662   0.439 -2.3490 -0.5508 -0.0648
 1799TIP3   OH226955   3.196   1.319   1.612  0.3926 -0.1031  0.2094
 1799TIP3    H126956   3.138   1.266   1.557 -1.4576 -0.1779  2.1357
 1799TIP3    H226957   3.237   1.256   1.671 -0.4209  0.3487  1.2906
 1800TIP3   OH226958   2.234   6.556   1.422 -0.1664  0.0742  0.5179
 1800TIP3    H126959   2.241   6.493   1.493  0.2472  1.0784  1.3987
 1800TIP3    H226960   2.319   6.551   1.377 -0.8992 -1.5418 -0.8074
 1801TIP3   OH226961   4.894   2.891   8.386 -0.1898  0.4286 -0.5444
 1801TIP3    H126962   4.947   2.826   8.432  0.5775  0.3876 -1.4694
 1801TIP3    H226963   4.891   2.966   8.446 -1.2104 -0.4929  0.5958
 1802TIP3   OH226964   2.732   0.686   8.331  0.1886  0.5161 -0.8464
 1802TIP3    H126965   2.780   0.666   8.411  2.2261  0.3093 -2.0457
 1802TIP3    H226966   2.640   0.683   8.356  0.7647  0.0806  1.3780
 1803TIP3   OH226967   3.516   4.550   1.352 -0.2546  0.4251 -0.7533
 1803TIP3    H126968   3.543   4.459   1.360 -1.9342 -0.1070 -0.5893
 1803TIP3    H226969   3.554   4.594   1.428 -1.4793 -0.7194  0.5921
 1804TIP3   OH226970   5.844   1.601   6.590 -0.4065 -0.2934  0.2663
 1804TIP3    H126971   5.796   1.594   6.508 -0.4154  0.7594  0.1674
 1804TIP3    H226972   5.789   1.658   6.645  0.4973  0.5570  0.3095
 1805TIP3   OH226973   5.707   5.909   0.820  0.1321  0.1339  0.1559
 1805TIP3    H126974   5.771   5.839   0.834 -1.2005 -1.1136  0.3213
 1805TIP3    H226975   5.743   5.984   0.867  0.5587 -1.0745  1.8776
 1806TIP3   OH226976   6.281   4.889   1.251 -0.0150 -0.6877 -0.3382
 1806TIP3    H126977   6.188   4.890   1.227 -0.6866  1.8949  1.8757
 1806TIP3    H226978   6.305   4.981   1.258  2.3930 -1.2903  0.3513
 1807TIP3   OH226979   3.650   2.305   2.270  0.2891  0.3092  0.3562
 1807TIP3    H126980   3.618   2.246   2.338  0.2221 -1.4183 -1.0908
 1807TIP3    H226981   3.739   2.329   2.298  0.5028 -0.8904  0.7427
 1808TIP3   OH226982   0.660   3.804   0.237 -0.4343 -0.2623 -0.2151
 1808TIP3    H126983   0.625   3.715   0.241  0.9655 -0.8111  0.6921
 1808TIP3    H226984   0.703   3.810   0.152  0.6765 -0.9454  0.2880
 1809TIP3   OH226985   2.295   0.426   2.488  0.2967 -0.4824 -0.2556
 1809TIP3    H126986   2.350   0.505   2.480  1.8217 -1.2313  1.7939
 1809TIP3    H226987   2.295   0.388   2.400  0.9947  0.8898 -0.8815
 1810TIP3   OH226988   0.015   3.837   1.589 -0.3471 -0.6151  0.0376
 1810TIP3    H126989   0.004   3.900   1.661  0.3927 -1.5312  0.9921
 1810TIP3    H226990   0.069   3.768   1.627  1.4497 -0.3539 -1.8851
 1811TIP3   OH226991   0.857   4.320   7.408  0.0979  0.2310 -0.3818
 1811TIP3    H126992   0.767   4.296   7.389 -0.0582  1.4069 -1.2376
 1811TIP3    H226993   0.899   4.328   7.322  0.6049  1.1461 -0.0662
 1812TIP3   OH226994   4.541   1.659   8.570 -0.3362 -0.2213  0.2158
 1812TIP3    H126995   4.625   1.695   8.543  0.1525 -0.1365  1.7197
 1812TIP3    H226996   4.544   1.567   8.544 -0.5934  0.2212 -1.4698
 1813TIP3   OH226997   3.039   0.522   8.539  0.4538 -0.4484 -0.1216
 1813TIP3    H126998   3.066   0.448   8.594  0.1099 -0.7971 -0.4094
 1813TIP3    H226999   2.967   0.487   8.487  0.0328  0.2072  0.0132
 1814TIP3   OH227000   3.316   2.036   2.737 -0.0505  0.0233 -0.4036
 1814TIP3    H127001   3.327   1.991   2.653  0.8620 -1.3090  0.4077
 1814TIP3    H227002   3.387   2.101   2.738 -0.5605  0.6008 -1.0033
 1815TIP3   OH227003   5.932   0.598   0.322  0.3647 -0.5142 -0.0891
 1815TIP3    H127004   5.930   0.586   0.417 -0.1247 -0.2207 -0.0599
 1815TIP3    H227005   5.932   0.509   0.287 -1.9367 -0.6750  0.1527
 1816TIP3   OH227006   5.271   1.370   8.025  0.0073  0.4779 -0.1608
 1816TIP3    H127007   5.212   1.393   7.953 -0.9955 -0.7798  0.2193
 1816TIP3    H227008   5.352   1.342   7.982 -1.3691 -2.6171 -1.0285
 1817TIP3   OH227009   4.311   5.438   7.591 -0.0639  0.3231 -0.0165
 1817TIP3    H127010   4.303   5.437   7.687  1.4927 -2.4214  0.2038
 1817TIP3    H227011   4.364   5.361   7.571 -2.5298 -0.7418 -3.3104
 1818TIP3   OH227012   0.417   2.243   1.155 -0.0575  0.0697 -0.3038
 1818TIP3    H127013   0.379   2.330   1.147 -0.0052 -0.0169 -1.7165
 1818TIP3    H227014   0.351   2.192   1.202 -1.5026  0.0585 -2.2487
 1819TIP3   OH227015   2.951   0.411   3.047  0.5526  0.2387  0.2063
 1819TIP3    H127016   3.004   0.458   3.112  1.2547 -1.2391  0.7359
 1819TIP3    H227017   2.974   0.319   3.059  2.6555  0.0206 -3.8135
 1820TIP3   OH227018   2.411   4.733   1.207  0.2358  0.0823  0.0035
 1820TIP3    H127019   2.461   4.737   1.289 -0.6569  0.1731  0.5580
 1820TIP3    H227020   2.342   4.798   1.218 -0.6801 -0.8155 -0.2792
 1821TIP3   OH227021   1.284   3.503   7.797 -0.4611  0.2836  0.0359
 1821TIP3    H127022   1.340   3.493   7.874 -0.7492  2.7902  0.6758
 1821TIP3    H227023   1.195   3.487   7.829 -0.4276 -0.4370 -0.2146
 1822TIP3   OH227024   3.991   5.354   8.255 -0.3679 -0.3294 -0.7666
 1822TIP3    H127025   3.954   5.282   8.204  2.2479 -0.5888 -2.4617
 1822TIP3    H227026   3.973   5.432   8.202 -1.5822  0.0728  0.1834
 1823TIP3   OH227027   5.000   2.809   0.518  0.8158  0.2624  0.0651
 1823TIP3    H127028   4.915   2.780   0.484  1.0143  0.8122 -0.9214
 1823TIP3    H227029   5.015   2.754   0.595 -0.9184  0.8385  0.8750
 1824TIP3   OH227030   5.100   6.697   0.200  0.4566 -0.3324 -0.0055
 1824TIP3    H127031   5.029   6.759   0.213 -1.9086 -2.6271 -1.1269
 1824TIP3    H227032   5.163   6.744   0.144 -1.9269  0.6485 -2.0584
 1825TIP3   OH227033   6.378   4.579   6.857 -0.3298  0.3642 -0.8297
 1825TIP3    H127034   6.315   4.509   6.876 -0.5784  0.5196 -1.0686
 1825TIP3    H227035   6.341   4.657   6.900  0.6688  0.0493  0.6645
 1826TIP3   OH227036   2.657   0.887   0.708 -0.2867  0.2853 -0.0445
 1826TIP3    H127037   2.598   0.891   0.783  0.5907 -1.0799  0.7615
 1826TIP3    H227038   2.745   0.881   0.746  0.3346  1.4574 -1.2081
 1827TIP3   OH227039   4.688   6.155   8.435  0.2915 -0.1429 -0.0746
 1827TIP3    H127040   4.780   6.179   8.435  0.1433  0.6227 -1.8659
 1827TIP3    H227041   4.645   6.224   8.384 -1.0774 -1.1415 -0.3425
 1828TIP3   OH227042   1.962   1.726   7.684  0.1860 -0.0760  0.1335
 1828TIP3    H127043   2.027   1.749   7.750  0.3654 -0.0843 -0.0395
 1828TIP3    H227044   2.012   1.714   7.604 -0.0670  0.2213 -0.0714
 1829TIP3   OH227045   4.368   1.783   7.884  0.0964  0.2123 -0.0245
 1829TIP3    H127046   4.412   1.698   7.876 -1.8920 -0.6985 -2.5225
 1829TIP3    H227047   4.425   1.844   7.837 -0.4779 -0.6496 -1.9242
 1830TIP3   OH227048   0.780   0.050   1.535 -0.4025  0.1879 -0.3734
 1830TIP3    H127049   0.726   0.038   1.613 -0.2996  1.5915 -0.0469
 1830TIP3    H227050   0.727   0.106   1.478  0.7176  1.7276  0.0221
 1831TIP3   OH227051   0.389   2.161   0.681  0.0821 -0.1070 -0.2669
 1831TIP3    H127052   0.448   2.214   0.734  0.2540 -0.8368  0.2937
 1831TIP3    H227053   0.304   2.168   0.724  0.4008 -1.3877  0.6531
 1832TIP3   OH227054   3.793   5.341   7.436  0.0821  0.3483 -0.3129
 1832TIP3    H127055   3.700   5.323   7.424  0.4750 -1.7144 -0.8051
 1832TIP3    H227056   3.832   5.320   7.351  1.0266  0.9491 -0.0416
 1833TIP3   OH227057   1.266   4.178   1.992 -0.1318  0.6931 -0.5202
 1833TIP3    H127058   1.236   4.257   1.946  0.8528  2.1803  1.2452
 1833TIP3    H227059   1.187   4.145   2.036 -0.6771  0.3268 -1.7279
 1834TIP3   OH227060   0.642   5.856   7.474 -0.2329 -0.6070  0.3891
 1834TIP3    H127061   0.714   5.858   7.411 -0.6204 -0.4682 -0.0585
 1834TIP3    H227062   0.580   5.920   7.440  0.0575  0.3023  1.5298
 1835TIP3   OH227063   5.217   6.098   8.351  0.3743 -0.4019 -0.0207
 1835TIP3    H127064   5.213   6.182   8.304  1.5673 -1.2930 -1.8634
 1835TIP3    H227065   5.203   6.032   8.283  1.4297 -1.7526  1.0173
 1836TIP3   OH227066   1.802   0.493   8.162  0.5550 -0.0330  0.2879
 1836TIP3    H127067   1.726   0.435   8.155  0.4765  0.0644  0.3353
 1836TIP3    H227068   1.849   0.461   8.239  0.1644  0.3738  0.6987
 1837TIP3   OH227069   3.570   0.221   0.011  0.2239 -0.2009 -0.0006
 1837TIP3    H127070   3.663   0.207   0.029  0.0796 -1.6785 -0.2822
 1837TIP3    H227071   3.544   0.146  -0.041 -1.2133  0.0281  0.3387
 1838TIP3   OH227072   5.415   0.316   8.133 -0.6784 -0.2510  0.2641
 1838TIP3    H127073   5.418   0.379   8.061  3.0226  0.4376  0.8311
 1838TIP3    H227074   5.473   0.245   8.105 -0.3018 -0.6557  1.9623
 1839TIP3   OH227075   2.702   2.497   2.562  0.5150  0.6007 -0.4462
 1839TIP3    H127076   2.721   2.480   2.655  1.4560 -1.1508 -0.9110
 1839TIP3    H227077   2.627   2.556   2.563 -1.1943 -1.3995  1.4693
 1840TIP3   OH227078   4.955   3.029   8.924 -0.1424  0.4516 -0.2600
 1840TIP3    H127079   4.937   3.091   8.995 -1.5940  0.2346 -0.4049
 1840TIP3    H227080   5.042   3.054   8.892  1.1334 -0.2740  2.4111
 1841TIP3   OH227081   0.581   4.708   1.835 -0.2571  0.2746 -0.5116
 1841TIP3    H127082   0.512   4.724   1.899 -1.0297  0.3277 -1.3328
 1841TIP3    H227083   0.622   4.794   1.822  1.4640 -0.1409  1.5951
 1842TIP3   OH227084   2.915   1.368   7.927  0.2882  0.2066  0.4712
 1842TIP3    H127085   2.944   1.442   7.874  0.5613 -0.6469 -0.6175
 1842TIP3    H227086   2.989   1.307   7.927 -0.1863 -0.3840  0.7178
 1843TIP3   OH227087   2.178   4.982   7.596  0.0494 -0.0837 -0.3135
 1843TIP3    H127088   2.162   4.991   7.502 -0.3327  0.7222 -0.1742
 1843TIP3    H227089   2.131   4.902   7.620 -0.3687  0.0405 -0.6953
 1844TIP3   OH227090   0.153   4.850   1.454 -0.1585  0.8834  0.9782
 1844TIP3    H127091   0.099   4.926   1.475  1.3068  2.0215  0.7569
 1844TIP3    H227092   0.193   4.871   1.370  1.6410  0.6662  1.7336
 1845TIP3   OH227093   1.605   3.226   7.639  0.1205  0.2847 -0.2778
 1845TIP3    H127094   1.586   3.134   7.654 -0.1378  0.5649  1.3885
 1845TIP3    H227095   1.582   3.242   7.548 -1.8929 -0.8120 -0.0032
 1846TIP3   OH227096   0.642   0.942   6.968  0.0235  0.3277  0.3995
 1846TIP3    H127097   0.553   0.972   6.946  0.1942 -0.2080 -1.1358
 1846TIP3    H227098   0.631   0.851   6.993  0.1061  0.3259  0.4288
 1847TIP3   OH227099   3.625   6.698   0.651  0.8353 -0.0337 -0.0284
 1847TIP3    H127100   3.686   6.686   0.578  1.8314  2.2699  0.3379
 1847TIP3    H227101   3.680   6.691   0.730  0.4588  0.9637  0.3457
 1848TIP3   OH227102   4.907   3.361   8.324  0.6046 -0.0699  0.2271
 1848TIP3    H127103   4.866   3.438   8.286 -2.9307 -0.4154  2.8701
 1848TIP3    H227104   4.962   3.394   8.394 -0.0431  0.1212  0.6487
 1849TIP3   OH227105   4.430   1.426   1.496  0.0372 -0.7589 -0.7625
 1849TIP3    H127106   4.368   1.427   1.423  1.1335 -2.9153 -1.8078
 1849TIP3    H227107   4.449   1.334   1.510 -0.5194 -0.4885  2.6557
 1850TIP3   OH227108   3.336   6.541   0.439 -0.5215  0.3386 -0.1893
 1850TIP3    H127109   3.317   6.449   0.455  1.5433  0.0025  0.6152
 1850TIP3    H227110   3.373   6.573   0.521  0.4540  1.3967 -1.0032
 1851TIP3   OH227111   1.661   4.195   0.686  0.5071 -0.1328 -0.2143
 1851TIP3    H127112   1.604   4.191   0.609  0.5889 -0.0453 -0.2805
 1851TIP3    H227113   1.678   4.288   0.698  0.2240 -0.1242  0.1151
 1852TIP3   OH227114   6.473   2.678   1.665 -0.5451  0.7475 -0.5057
 1852TIP3    H127115   6.544   2.632   1.620 -1.1433 -0.2278 -0.4716
 1852TIP3    H227116   6.488   2.770   1.645  1.2793  0.6563  0.2797
 1853TIP3   OH227117   2.146   3.277   7.565 -0.0239 -0.2068 -0.2340
 1853TIP3    H127118   2.143   3.209   7.633  0.6085  0.4926  0.5096
 1853TIP3    H227119   2.065   3.327   7.578 -1.0739 -1.5027 -1.5352
 1854TIP3   OH227120   1.755   0.098   7.774  0.3891  0.0495 -0.5244
 1854TIP3    H127121   1.847   0.079   7.760  0.8931  0.9258  1.3084
 1854TIP3    H227122   1.728   0.037   7.843 -0.8436 -1.2307 -2.0494
 1855TIP3   OH227123   4.134   6.265   2.018  0.9365 -0.5591 -0.5966
 1855TIP3    H127124   4.219   6.298   2.049  1.1086 -1.3102 -0.2362
 1855TIP3    H227125   4.119   6.187   2.071  0.2059 -0.6558 -0.9440
 1856TIP3   OH227126   1.893   4.698   1.605  0.0571 -0.3413  0.0513
 1856TIP3    H127127   1.893   4.617   1.657 -1.9710 -1.9929 -2.3073
 1856TIP3    H227128   1.977   4.695   1.558  1.4553  0.6681  2.2790
 1857TIP3   OH227129   5.027   3.228   7.696  0.0991 -0.1115  0.0442
 1857TIP3    H127130   4.937   3.251   7.720 -0.0898  1.3076 -1.7812
 1857TIP3    H227131   5.050   3.289   7.626  2.6067 -0.2735  0.6242
 1858TIP3   OH227132   4.227   1.897   1.029  0.9855  0.1492  0.3812
 1858TIP3    H127133   4.251   1.843   0.953  1.3001  1.8468 -0.7695
 1858TIP3    H227134   4.135   1.918   1.016  0.8511 -0.1275  0.8505
 1859TIP3   OH227135   0.961   4.061   1.292  0.1641  0.2883 -0.4831
 1859TIP3    H127136   1.011   4.107   1.224  1.1838 -0.8466 -0.5346
 1859TIP3    H227137   0.944   3.974   1.254  1.6815 -0.7531  1.0748
 1860TIP3   OH227138   4.421   6.170   2.951  0.2345  0.1590  0.2001
 1860TIP3    H127139   4.514   6.173   2.931  0.1502 -0.7211 -0.3955
 1860TIP3    H227140   4.396   6.078   2.936 -0.8178  0.4764 -0.0982
 1861TIP3   OH227141   3.721   1.146   0.144  0.4173 -0.5612 -0.6838
 1861TIP3    H127142   3.751   1.123   0.056 -0.1406 -1.9083 -0.5304
 1861TIP3    H227143   3.787   1.108   0.203  0.3469 -0.3806 -0.4854
 1862TIP3   OH227144   6.347   6.729   1.814  0.2333 -0.4709 -0.1315
 1862TIP3    H127145   6.337   6.680   1.896 -1.3472 -0.1096 -0.0608
 1862TIP3    H227146   6.405   6.802   1.836  1.0774 -1.2393  0.2484
 1863TIP3   OH227147   0.148   2.565   2.480  0.1091  0.2500  0.3932
 1863TIP3    H127148   0.078   2.500   2.477 -1.3726  1.8083 -0.1943
 1863TIP3    H227149   0.103   2.647   2.500  1.7832  1.3019 -0.0160
 1864TIP3   OH227150   6.693   3.161   0.305 -0.2745  0.5179 -0.1410
 1864TIP3    H127151   6.615   3.105   0.312  0.0858 -0.0007 -0.2614
 1864TIP3    H227152   6.767   3.102   0.319  0.0616  1.2146  1.1624
 1865TIP3   OH227153   5.836   1.078   8.313 -0.4943 -0.0042 -0.4373
 1865TIP3    H127154   5.855   1.147   8.250 -0.1778 -0.0694 -0.4142
 1865TIP3    H227155   5.748   1.048   8.290 -0.0989 -0.5203 -1.3056
 1866TIP3   OH227156   0.898   5.534   8.476  0.3739  0.1149  0.1903
 1866TIP3    H127157   0.961   5.474   8.436  0.2228 -0.7449  1.2109
 1866TIP3    H227158   0.820   5.480   8.493 -0.3045  0.9405 -0.1819
 1867TIP3   OH227159   0.703   3.058   0.338  1.0826 -0.3640 -0.4648
 1867TIP3    H127160   0.699   3.031   0.430  0.4032 -1.2069 -0.7316
 1867TIP3    H227161   0.686   3.153   0.340 -1.4576 -0.7773  0.0902
 1868TIP3   OH227162   0.775   2.104   1.954  0.6026  0.2663  0.4341
 1868TIP3    H127163   0.687   2.115   1.917  0.6183 -0.1979  0.2516
 1868TIP3    H227164   0.820   2.047   1.891  1.4084  1.4371 -0.0759
 1869TIP3   OH227165   6.155   3.393   2.319 -0.1842 -0.0424  0.0342
 1869TIP3    H127166   6.146   3.476   2.367  0.7095  0.4047 -0.5507
 1869TIP3    H227167   6.249   3.382   2.307 -0.3729 -0.0016 -1.8276
 1870TIP3   OH227168   6.229   3.904   7.430 -0.3528 -0.4846 -0.5826
 1870TIP3    H127169   6.304   3.944   7.474  0.8234 -2.2140 -0.9196
 1870TIP3    H227170   6.176   3.978   7.400 -0.9914  0.8496  3.1801
 1871TIP3   OH227171   6.742   5.376   1.257  0.2575  0.0347 -0.4067
 1871TIP3    H127172   6.837   5.385   1.259  0.1402  1.3159  0.5058
 1871TIP3    H227173   6.716   5.421   1.177  0.2238  2.2659  0.7912
 1872TIP3   OH227174   2.618   6.140   0.690  0.2710 -0.0730  0.4586
 1872TIP3    H127175   2.526   6.117   0.682  0.2111 -0.2027  1.3542
 1872TIP3    H227176   2.651   6.140   0.601 -0.3191 -1.2155  0.2219
 1873TIP3   OH227177   1.540   4.170   0.421 -0.6792 -0.1388  0.2693
 1873TIP3    H127178   1.552   4.185   0.327 -1.2708 -1.1262  0.0228
 1873TIP3    H227179   1.493   4.087   0.426  0.4057 -0.7098  1.4854
 1874TIP3   OH227180   0.554   1.419   1.921 -0.8455  0.6749  1.0364
 1874TIP3    H127181   0.641   1.413   1.884 -2.1383 -0.2812 -2.1480
 1874TIP3    H227182   0.544   1.338   1.972  0.4790  1.3710  2.4991
 1875TIP3   OH227183   5.250   0.200   1.359  0.2918 -0.0267  0.0870
 1875TIP3    H127184   5.193   0.123   1.353 -0.4500  0.6024 -1.1440
 1875TIP3    H227185   5.314   0.188   1.289 -0.4577  0.9564 -0.8000
 1876TIP3   OH227186   3.381   1.206   8.833  0.0622  0.2614  0.2992
 1876TIP3    H127187   3.312   1.261   8.797  0.6023  0.2970 -0.7333
 1876TIP3    H227188   3.401   1.144   8.762  1.2896  0.4439  0.4665
 1877TIP3   OH227189   1.172   2.185   8.308 -0.4087  0.3786 -0.5094
 1877TIP3    H127190   1.193   2.217   8.220 -0.8102  2.0118 -0.0571
 1877TIP3    H227191   1.253   2.144   8.338  0.4884  1.8327 -0.8033
 1878TIP3   OH227192   0.508   2.951   1.449  0.0666 -0.1142  0.1935
 1878TIP3    H127193   0.602   2.947   1.432  0.2179 -1.0812  1.1560
 1878TIP3    H227194   0.483   3.041   1.425  1.1849  0.0859 -0.2723
 1879TIP3   OH227195   0.870   4.355   8.342  0.3473 -0.6252  0.4795
 1879TIP3    H127196   0.919   4.293   8.396 -1.1619 -1.7912  0.5652
 1879TIP3    H227197   0.927   4.372   8.267  1.1738 -1.3682  0.9289
 1880TIP3   OH227198   3.849   3.841   8.297  0.1513 -0.4262  0.7128
 1880TIP3    H127199   3.794   3.793   8.358  0.5465  0.4929  1.8211
 1880TIP3    H227200   3.907   3.775   8.259  0.6979 -0.8511  2.2233
 1881TIP3   OH227201   0.869   4.995   0.059  0.2832  0.2460 -0.1614
 1881TIP3    H127202   0.934   4.945   0.108  0.5251  2.2788  1.7733
 1881TIP3    H227203   0.920   5.068   0.021 -0.7673  1.9418  1.4871
 1882TIP3   OH227204   3.492   6.547   0.142 -0.0529 -0.0668  0.3116
 1882TIP3    H127205   3.436   6.529   0.217 -0.5845  1.8365  0.4288
 1882TIP3    H227206   3.562   6.482   0.147 -2.2578 -2.6506  0.0808
 1883TIP3   OH227207   0.459   4.533   2.098  0.1334  0.1503  0.3754
 1883TIP3    H127208   0.468   4.626   2.081  0.3343  0.6242  2.6428
 1883TIP3    H227209   0.513   4.518   2.176 -3.3015 -0.8970  2.7933
 1884TIP3   OH227210   2.446   5.705   8.619  0.2146  0.0576  1.2389
 1884TIP3    H127211   2.523   5.740   8.575  0.4057 -1.7995 -0.0168
 1884TIP3    H227212   2.413   5.777   8.672  2.0777  1.2711  0.8140
 1885TIP3   OH227213   4.406   0.948   1.838 -0.1848 -0.1693 -0.0282
 1885TIP3    H127214   4.491   0.927   1.875 -0.3485  0.0203  0.4622
 1885TIP3    H227215   4.356   0.985   1.911 -1.1991 -1.6500  0.0812
 1886TIP3   OH227216   1.552   1.201   0.779  0.3751  0.1573  0.7218
 1886TIP3    H127217   1.531   1.285   0.738 -1.0028 -0.7715 -0.5960
 1886TIP3    H227218   1.481   1.187   0.842  1.3643  0.6146  1.9615
 1887TIP3   OH227219   6.326   4.705   7.622  0.8816  0.6725  0.0725
 1887TIP3    H127220   6.360   4.709   7.712 -0.5280 -0.1139  0.6639
 1887TIP3    H227221   6.398   4.669   7.571  0.5769 -2.2818  1.5255
 1888TIP3   OH227222   5.667   4.343   8.217 -0.4429 -0.1179  0.6411
 1888TIP3    H127223   5.688   4.430   8.183 -1.0590 -0.8421 -1.7822
 1888TIP3    H227224   5.580   4.353   8.255 -1.1900  0.0195 -1.0304
 1889TIP3   OH227225   6.287   5.730   2.266 -0.2970 -0.5607  0.3417
 1889TIP3    H127226   6.286   5.811   2.316  1.4961 -1.7023  2.4079
 1889TIP3    H227227   6.371   5.732   2.219 -1.6472  0.1780 -2.2282
 1890TIP3   OH227228   3.576   1.395   1.069 -0.0568  0.1722  0.4165
 1890TIP3    H127229   3.671   1.405   1.079  0.2333 -0.3692 -1.5146
 1890TIP3    H227230   3.547   1.479   1.032  0.0507 -0.4533 -1.1649
 1891TIP3   OH227231   6.585   1.282   2.917 -0.0517  0.1259 -0.3170
 1891TIP3    H127232   6.624   1.293   2.830 -1.3470 -3.8947 -1.6460
 1891TIP3    H227233   6.628   1.204   2.953 -1.6190 -0.0260  1.3853
 1892TIP3   OH227234   2.163   5.779   7.298  0.6389  0.2675 -0.3651
 1892TIP3    H127235   2.252   5.778   7.262  0.4115 -0.9077 -0.9717
 1892TIP3    H227236   2.163   5.850   7.362  2.6421 -1.0399  1.2138
 1893TIP3   OH227237   5.901   0.108   1.083  0.2739  0.3424 -0.1841
 1893TIP3    H127238   5.859   0.040   1.136 -0.0682  1.2967  0.7936
 1893TIP3    H227239   5.994   0.100   1.104  0.1711  0.5303  0.3598
 1894TIP3   OH227240   4.448   5.519   6.798 -0.4162 -0.1259 -0.6692
 1894TIP3    H127241   4.442   5.426   6.775  1.3570 -0.6828  0.9372
 1894TIP3    H227242   4.364   5.538   6.841 -1.6758 -0.3635 -2.8676
 1895TIP3   OH227243   5.414   6.232   0.716 -0.2411  0.3637  0.4217
 1895TIP3    H127244   5.507   6.253   0.723  0.0781 -0.8469 -0.0245
 1895TIP3    H227245   5.372   6.289   0.781  1.2055 -1.5321  3.2429
 1896TIP3   OH227246   2.482   4.563   1.884 -0.0917  0.7710  0.4848
 1896TIP3    H127247   2.442   4.498   1.941  0.9675  0.8075  1.2939
 1896TIP3    H227248   2.426   4.640   1.891  0.4915  1.0689  2.1699
 1897TIP3   OH227249   4.201   0.989   2.720  0.1826  0.1543  0.8234
 1897TIP3    H127250   4.289   0.969   2.689 -0.4661 -1.4086 -0.1435
 1897TIP3    H227251   4.199   0.954   2.810  0.0406 -1.4411  0.2365
 1898TIP3   OH227252   4.325   5.800   7.112 -0.0361 -0.2592  0.4123
 1898TIP3    H127253   4.373   5.833   7.188 -0.0337 -0.2950  0.4264
 1898TIP3    H227254   4.322   5.874   7.052 -0.7885  0.0502  0.8074
 1899TIP3   OH227255   2.840   6.649   0.127 -0.2609 -0.3710 -0.4863
 1899TIP3    H127256   2.761   6.661   0.074 -1.5067 -1.2872  1.1027
 1899TIP3    H227257   2.872   6.738   0.141 -1.9025  0.1585  0.1343
 1900TIP3   OH227258   1.217   6.151   0.825  0.1124 -0.4267  0.1744
 1900TIP3    H127259   1.293   6.154   0.884  0.9024 -0.3230 -0.8172
 1900TIP3    H227260   1.166   6.228   0.848  0.6118 -0.1735  0.4624
 1901TIP3   OH227261   1.247   4.290   1.411  0.3364 -0.1504 -0.1796
 1901TIP3    H127262   1.178   4.261   1.351  1.7646 -1.8780 -1.0875
 1901TIP3    H227263   1.300   4.351   1.359 -0.8078  1.6929  0.7189
 1902TIP3   OH227264   0.031   0.240   0.710 -0.1883  0.3134 -0.6688
 1902TIP3    H127265  -0.064   0.242   0.713 -0.2304  1.1684 -1.8069
 1902TIP3    H227266   0.059   0.301   0.778 -0.5686  2.8872 -2.6850
 1903TIP3   OH227267   6.648   3.828   7.462  0.1138 -0.3258 -0.1385
 1903TIP3    H127268   6.593   3.784   7.527  0.2930 -1.2694 -0.6169
 1903TIP3    H227269   6.655   3.766   7.390  1.9621 -0.3155 -0.0192
 1904TIP3   OH227270   6.288   6.079   0.910  0.0079 -0.1867  0.2108
 1904TIP3    H127271   6.279   6.061   0.816 -0.0678  0.4573  0.0871
 1904TIP3    H227272   6.202   6.059   0.947 -0.3302  0.7045 -0.0641
 1905TIP3   OH227273   5.125   0.049   7.617  0.5766 -0.9801 -0.1505
 1905TIP3    H127274   5.112   0.085   7.529 -1.4800  0.6520  0.7549
 1905TIP3    H227275   5.043   0.005   7.637  0.3794  0.1421  1.6078
 1906TIP3   OH227276   4.743   2.654   0.008  0.2698  0.1439 -0.1140
 1906TIP3    H127277   4.819   2.653   0.065 -0.5591 -1.4425  1.0189
 1906TIP3    H227278   4.762   2.587  -0.058  0.3500  0.5776 -0.5404
 1907TIP3   OH227279   5.855   2.893   0.039 -0.0300  0.4073  0.2286
 1907TIP3    H127280   5.816   2.880   0.126  0.8609 -0.3225  0.5323
 1907TIP3    H227281   5.847   2.987   0.023  1.2652  0.8341  1.8229
 1908TIP3   OH227282   6.615   5.065   8.626  0.4166 -0.2557  0.3696
 1908TIP3    H127283   6.636   5.158   8.620 -0.8123 -0.0512 -2.2076
 1908TIP3    H227284   6.523   5.059   8.599  0.9650 -2.3616 -1.3541
 1909TIP3   OH227285   5.879   5.759   1.829 -0.0766  0.2408  0.1788
 1909TIP3    H127286   5.881   5.666   1.802 -0.0739 -0.1735  1.5533
 1909TIP3    H227287   5.830   5.759   1.911  0.4291  1.3838  0.4977
 1910TIP3   OH227288   1.655   4.752   7.859  0.3818  0.6232 -0.1430
 1910TIP3    H127289   1.601   4.825   7.888  0.8333 -0.0352  2.6772
 1910TIP3    H227290   1.592   4.680   7.846  0.2285  0.7494 -0.1041
 1911TIP3   OH227291   5.605   3.196   0.111  0.2266  0.1682  0.2824
 1911TIP3    H127292   5.667   3.247   0.165  0.9423 -0.6215  0.2329
 1911TIP3    H227293   5.606   3.240   0.026  1.1919 -0.1736  0.0998
 1912TIP3   OH227294   0.390   4.229   7.579 -0.2157  0.6934 -0.6890
 1912TIP3    H127295   0.462   4.186   7.533 -0.4676  2.6797 -3.1609
 1912TIP3    H227296   0.428   4.310   7.612 -0.2739 -0.2871  2.0292
 1913TIP3   OH227297   5.190   4.794   8.509  0.3138  0.5039 -0.2675
 1913TIP3    H127298   5.159   4.825   8.423 -0.2801  1.0458  0.1302
 1913TIP3    H227299   5.154   4.857   8.571  0.1584 -0.2723  0.4453
 1914TIP3   OH227300   0.720   3.267   6.545  0.2945 -0.1318  0.2858
 1914TIP3    H127301   0.660   3.300   6.612  1.0409  2.7006 -0.2770
 1914TIP3    H227302   0.806   3.269   6.588  0.6131  0.5928 -0.3491
 1915TIP3   OH227303   6.442   1.113   7.657 -0.0667 -0.2262  1.6327
 1915TIP3    H127304   6.406   1.111   7.568 -0.2423  1.1842  1.6488
 1915TIP3    H227305   6.382   1.168   7.706  0.6075 -0.1330  2.3686
 1916TIP3   OH227306   5.488   0.517   8.326 -0.1022  0.1591 -0.0088
 1916TIP3    H127307   5.539   0.549   8.252 -0.9267  0.5754 -0.4044
 1916TIP3    H227308   5.442   0.440   8.292 -1.5060  1.1109 -0.3318
 1917TIP3   OH227309   6.632   1.771   2.789 -0.0575  0.0122  0.3415
 1917TIP3    H127310   6.543   1.772   2.752  0.0980 -2.2458 -0.2196
 1917TIP3    H227311   6.621   1.734   2.877  0.2997 -0.0839  0.3478
 1918TIP3   OH227312   4.517   5.509   0.723 -0.1667 -0.4837 -0.4807
 1918TIP3    H127313   4.471   5.486   0.642  0.0311 -0.1620 -0.6835
 1918TIP3    H227314   4.609   5.511   0.699 -0.2049  0.9039 -0.5565
 1919TIP3   OH227315   3.827   3.415   7.926 -0.3533  0.0522 -0.0558
 1919TIP3    H127316   3.913   3.372   7.927 -0.2088  0.3349 -0.3614
 1919TIP3    H227317   3.847   3.508   7.919 -0.6558  0.2021  0.8580
 1920TIP3   OH227318   1.747   6.708   7.980  0.1953 -0.2002 -0.2219
 1920TIP3    H127319   1.799   6.665   8.048 -1.2001  0.5570  1.4096
 1920TIP3    H227320   1.659   6.671   7.989  0.0448 -0.3051 -1.8537
 1921TIP3   OH227321   5.894   0.578   1.528 -0.2120  0.0545  0.8922
 1921TIP3    H127322   5.806   0.542   1.520 -0.0722 -0.2591  0.7542
 1921TIP3    H227323   5.881   0.667   1.560 -0.6759  0.5666 -0.6440
 1922TIP3   OH227324   4.779   1.312   0.695 -0.1741  0.0266  0.1804
 1922TIP3    H127325   4.829   1.297   0.775  1.1461 -0.3122 -0.6749
 1922TIP3    H227326   4.725   1.233   0.686 -1.6685  0.8326  1.6445
 1923TIP3   OH227327   2.088   3.363   6.792 -0.6973 -0.1349  0.4431
 1923TIP3    H127328   2.103   3.353   6.698 -0.6952  1.2689  0.2790
 1923TIP3    H227329   1.993   3.350   6.802 -1.0482  1.7287 -0.0722
 1924TIP3   OH227330   6.713   0.673   7.874 -0.1537  0.3304  0.0088
 1924TIP3    H127331   6.762   0.752   7.895  1.7161 -0.3343 -1.5548
 1924TIP3    H227332   6.628   0.705   7.844  0.2534  1.6871  0.2193
 1925TIP3   OH227333   2.835   1.331   8.374  0.2809 -0.7206  0.3441
 1925TIP3    H127334   2.834   1.243   8.338  0.4679 -0.8718  0.6996
 1925TIP3    H227335   2.875   1.385   8.306 -1.6640 -0.5217 -0.7268
 1926TIP3   OH227336   5.082   4.154   7.734  0.8894  0.3616 -0.4604
 1926TIP3    H127337   5.105   4.148   7.827  1.6052  2.2535 -0.4752
 1926TIP3    H227338   5.093   4.065   7.701  0.8817 -0.2921  1.2013
 1927TIP3   OH227339   2.277   5.181   8.715  0.4142 -0.0743 -0.3682
 1927TIP3    H127340   2.198   5.225   8.748  0.5609 -0.7129  0.9018
 1927TIP3    H227341   2.331   5.252   8.680  0.4848  0.7484  1.2923
 1928TIP3   OH227342   1.743   6.660   0.259  0.5927  0.0305  0.0261
 1928TIP3    H127343   1.721   6.576   0.299  0.9285  0.7722  1.9060
 1928TIP3    H227344   1.677   6.721   0.292  0.6293  0.6166 -0.9330
 1929TIP3   OH227345   4.496   4.604   2.159 -0.2751 -0.0969 -0.1681
 1929TIP3    H127346   4.557   4.531   2.168 -1.5430 -1.1349  0.3744
 1929TIP3    H227347   4.410   4.563   2.161 -1.0518  1.4794  1.0092
 1930TIP3   OH227348   3.162   6.617   1.794  0.1694  0.0764 -0.0588
 1930TIP3    H127349   3.165   6.653   1.705 -0.4438 -0.4485 -0.2936
 1930TIP3    H227350   3.074   6.581   1.802  0.5079 -0.6477  0.4628
 1931TIP3   OH227351   3.865   1.133   2.105 -0.7660 -0.1571 -0.9738
 1931TIP3    H127352   3.850   1.139   2.199  0.0553 -0.4551 -0.8153
 1931TIP3    H227353   3.818   1.055   2.077  2.2050 -2.4124 -0.0902
 1932TIP3   OH227354   5.912   0.719   1.903  0.1484  0.0021  0.0729
 1932TIP3    H127355   5.987   0.744   1.850  1.2802 -0.1294  1.5433
 1932TIP3    H227356   5.922   0.768   1.984  1.1922 -3.3401  2.1529
 1933TIP3   OH227357   5.096   0.762   0.323 -0.0378 -0.3071 -0.0468
 1933TIP3    H127358   5.004   0.786   0.313 -0.2297 -0.0426  1.8595
 1933TIP3    H227359   5.143   0.819   0.262 -1.0486  0.3520 -0.2220
 1934TIP3   OH227360   3.039   1.591   1.828  0.0882 -0.2507 -0.0905
 1934TIP3    H127361   3.114   1.533   1.840  0.3863 -0.0809 -1.1003
 1934TIP3    H227362   2.983   1.572   1.903  1.8057  0.6672  1.5342
 1935TIP3   OH227363   6.083   0.445   7.647  0.0770 -0.1568  0.4873
 1935TIP3    H127364   6.138   0.499   7.589  0.9038 -0.0726  1.3198
 1935TIP3    H227365   6.146   0.400   7.703 -0.6968 -0.5475  1.0460
 1936TIP3   OH227366   4.869   0.697   1.184  0.3842 -0.6225 -0.0231
 1936TIP3    H127367   4.836   0.610   1.165  0.5065 -0.9581  1.2117
 1936TIP3    H227368   4.873   0.741   1.099  1.2150 -2.1228 -0.7846
 1937TIP3   OH227369   5.431   0.268   1.929  0.0337  0.0891  0.2314
 1937TIP3    H127370   5.416   0.179   1.958 -0.7245  0.2544  0.3752
 1937TIP3    H227371   5.377   0.322   1.987  1.1068  0.7173  0.6758
 1938TIP3   OH227372   1.449   3.729   0.701  0.1820 -0.1277 -0.0744
 1938TIP3    H127373   1.531   3.694   0.737 -0.3172 -0.3662  0.8591
 1938TIP3    H227374   1.412   3.657   0.651  1.5148  0.5996 -2.2371
 1939TIP3   OH227375   3.768   0.351   2.392  0.0759 -0.1259 -1.0447
 1939TIP3    H127376   3.844   0.382   2.441 -0.5425 -0.6281  0.2944
 1939TIP3    H227377   3.723   0.431   2.364  0.5493  0.1736 -0.9553
 1940TIP3   OH227378   1.647   5.514   8.784 -0.1847 -0.0235  0.1561
 1940TIP3    H127379   1.672   5.540   8.872 -2.3303 -1.8360  1.4022
 1940TIP3    H227380   1.603   5.591   8.748  0.9720  0.8316  0.5279
 1941TIP3   OH227381   1.475   3.423   7.992  0.3138  0.4160 -0.1785
 1941TIP3    H127382   1.417   3.420   8.068  0.8557 -0.9609  0.2092
 1941TIP3    H227383   1.518   3.337   7.991 -1.2451 -0.4702 -3.2862
 1942TIP3   OH227384   4.396   4.388   8.189  0.7013  0.1997  0.4414
 1942TIP3    H127385   4.312   4.432   8.185  0.9726  0.6415 -0.7892
 1942TIP3    H227386   4.385   4.308   8.137  0.4138 -0.8846  2.0975
 1943TIP3   OH227387   0.806   1.165   2.219 -0.4131 -0.0945  0.7601
 1943TIP3    H127388   0.860   1.212   2.282  0.2995 -0.3600  0.3553
 1943TIP3    H227389   0.799   1.076   2.254  1.2106 -0.6499 -0.2511
 1944TIP3   OH227390   3.967   6.512   1.352  0.5985 -0.3839 -0.4903
 1944TIP3    H127391   3.918   6.499   1.433 -0.1558 -0.0437 -0.8828
 1944TIP3    H227392   4.021   6.590   1.368  0.0893 -0.0314 -0.4828
 1945TIP3   OH227393   3.818   5.899   1.841  0.0576 -0.1024 -0.0261
 1945TIP3    H127394   3.807   5.891   1.936  0.2863  1.1010  0.1131
 1945TIP3    H227395   3.908   5.868   1.825 -0.5266 -1.9001 -0.0937
 1946TIP3   OH227396   3.052   5.979   8.186  0.4052  0.3640  0.3395
 1946TIP3    H127397   3.053   6.066   8.145  0.3743  0.5282  0.6880
 1946TIP3    H227398   3.144   5.962   8.208  0.4919  0.0712 -0.2200
 1947TIP3   OH227399   4.700   2.182   1.592 -0.3945  0.3926  0.2880
 1947TIP3    H127400   4.696   2.206   1.685 -1.4485  2.8282 -0.2958
 1947TIP3    H227401   4.610   2.155   1.571 -0.2578  0.2465 -0.1107
 1948TIP3   OH227402   1.107   3.151   1.611 -0.7030 -0.8803 -0.1106
 1948TIP3    H127403   1.164   3.105   1.551  0.4556  0.9790 -0.5187
 1948TIP3    H227404   1.166   3.202   1.667 -1.8678  2.2343 -1.4623
 1949TIP3   OH227405   3.707   4.598   0.618 -0.0928  0.4198 -0.1801
 1949TIP3    H127406   3.751   4.665   0.565  1.6859  0.2287  0.9815
 1949TIP3    H227407   3.758   4.519   0.603  0.9150  0.5106  2.2691
 1950TIP3   OH227408   1.136   5.457   0.180  0.5058  0.3045 -0.1107
 1950TIP3    H127409   1.042   5.473   0.175  0.6678  0.8507 -2.6180
 1950TIP3    H227410   1.171   5.532   0.228 -0.3314 -0.0234  1.0523
 1951TIP3   OH227411   6.360   1.194   6.756  0.4184 -0.5774  0.1685
 1951TIP3    H127412   6.422   1.190   6.828  2.8205  1.2758 -1.6033
 1951TIP3    H227413   6.279   1.225   6.795  1.2739 -0.7800  2.2213
 1952TIP3   OH227414   6.100   6.567   8.891 -0.0854  0.1362  0.1948
 1952TIP3    H127415   6.022   6.515   8.874 -1.9032  2.7194  0.1590
 1952TIP3    H227416   6.118   6.612   8.808  1.7977 -0.7718  0.0483
 1953TIP3   OH227417   5.152   0.939   1.033 -0.0331 -0.0086  0.0143
 1953TIP3    H127418   5.121   0.991   1.108 -0.8806  1.1041 -1.0800
 1953TIP3    H227419   5.076   0.886   1.008  0.3670 -0.6626  0.1702
 1954TIP3   OH227420   1.363   3.378   6.948  0.3184 -0.1481  0.0697
 1954TIP3    H127421   1.353   3.364   7.042  1.1014  2.0368  0.5330
 1954TIP3    H227422   1.276   3.361   6.911 -0.6839  1.4711  1.5642
 1955TIP3   OH227423   5.018   4.166   2.813  0.2693 -0.3677  0.4590
 1955TIP3    H127424   4.994   4.190   2.902 -0.2990  1.1090 -0.0516
 1955TIP3    H227425   4.934   4.160   2.766  0.5616 -1.0624  0.0027
 1956TIP3   OH227426   6.183   0.131   1.076  0.5523 -0.1227 -0.4387
 1956TIP3    H127427   6.252   0.098   1.133  0.9565  2.4649  0.7226
 1956TIP3    H227428   6.179   0.225   1.094 -1.5814  0.2577 -2.3076
 1957TIP3   OH227429   5.168   1.658   8.645 -0.2840 -0.1174 -0.2510
 1957TIP3    H127430   5.261   1.676   8.632 -0.1511  0.5862  1.4412
 1957TIP3    H227431   5.145   1.705   8.725 -1.8178 -1.2189  0.0054
 1958TIP3   OH227432   4.437   4.996   0.249  0.7863  0.9166  0.2373
 1958TIP3    H127433   4.426   5.050   0.327 -0.7708  0.5109  0.3340
 1958TIP3    H227434   4.503   5.043   0.197  2.0704  1.0390  1.8931
 1959TIP3   OH227435   3.034   0.650   2.544  0.4126 -0.6284 -0.2263
 1959TIP3    H127436   3.040   0.730   2.491 -0.3654 -0.5930 -0.2819
 1959TIP3    H227437   3.120   0.641   2.585  0.7598 -0.2036 -0.8525
 1960TIP3   OH227438   0.805   3.068   1.105  0.1840 -0.2931  0.5274
 1960TIP3    H127439   0.864   3.096   1.174  0.6748 -0.3880  0.1482
 1960TIP3    H227440   0.785   3.148   1.056 -1.1727  0.0207  1.5191
 1961TIP3   OH227441   6.639   3.178   8.911  0.3666 -0.0824 -0.4028
 1961TIP3    H127442   6.603   3.156   8.825  0.6327  2.6669 -1.2985
 1961TIP3    H227443   6.567   3.220   8.958  1.4820  3.0341 -1.2417
 1962TIP3   OH227444   3.536   1.939   7.568  0.1613 -0.0339  0.8278
 1962TIP3    H127445   3.501   1.874   7.629 -1.0241  0.6632  0.9398
 1962TIP3    H227446   3.556   1.889   7.489 -0.7279 -0.5521  0.9115
 1963TIP3   OH227447   2.120   3.144   3.031  0.1037  0.0560 -0.2297
 1963TIP3    H127448   2.198   3.097   3.062  0.3941  1.5131  1.3934
 1963TIP3    H227449   2.089   3.091   2.958  1.7398 -1.3906  0.0293
 1964TIP3   OH227450   2.224   0.153   0.556 -0.3953  0.3586 -0.0670
 1964TIP3    H127451   2.171   0.157   0.477  0.1220 -0.5730 -0.4783
 1964TIP3    H227452   2.289   0.085   0.538 -1.9375 -1.8777  2.1633
 1965TIP3   OH227453   2.916   2.405   7.673  0.3025  0.2402 -0.3590
 1965TIP3    H127454   2.983   2.459   7.632  0.3459  0.6816  0.2696
 1965TIP3    H227455   2.834   2.436   7.634  0.3285  0.7614 -0.0225
 1966TIP3   OH227456   3.674   3.314   8.374  0.3050  0.2998  0.3650
 1966TIP3    H127457   3.711   3.247   8.431 -0.2364  0.3399  0.7775
 1966TIP3    H227458   3.746   3.342   8.319  0.5426 -0.6206  0.1940
 1967TIP3   OH227459   1.083   0.037   0.266  0.2115  0.7154  0.1816
 1967TIP3    H127460   1.006   0.055   0.320  0.2698 -1.1800  0.9816
 1967TIP3    H227461   1.134  -0.025   0.317  1.2824  0.3959 -1.2106
 1968TIP3   OH227462   0.500   6.537   1.968  0.1840 -0.1863  0.1024
 1968TIP3    H127463   0.519   6.501   2.055  0.0516 -0.0953  0.1678
 1968TIP3    H227464   0.411   6.570   1.974 -0.2414 -1.1877 -0.3962
 1969TIP3   OH227465   1.713   2.683   1.376  0.0654 -0.1547  0.1262
 1969TIP3    H127466   1.730   2.612   1.315  0.4659  0.4028 -0.4335
 1969TIP3    H227467   1.744   2.651   1.460 -2.3346 -1.7171  0.5050
 1970TIP3   OH227468   5.888   0.438   0.088  0.2345  0.0091  0.0277
 1970TIP3    H127469   5.909   0.505   0.022  0.5924  1.5088  1.5990
 1970TIP3    H227470   5.794   0.445   0.101  0.2342  0.0288  0.0157
 1971TIP3   OH227471   3.311   5.617   7.229  0.9642 -0.4683 -0.4521
 1971TIP3    H127472   3.337   5.707   7.210 -1.8570  0.0150 -2.7947
 1971TIP3    H227473   3.268   5.622   7.315 -0.4914  0.8188 -1.2050
 1972TIP3   OH227474   2.014   6.296   0.055  0.3790 -0.4327  0.2634
 1972TIP3    H127475   2.075   6.276  -0.016 -0.2523 -0.7250 -0.1976
 1972TIP3    H227476   1.957   6.220   0.061  0.2706 -0.3100  0.9285
 1973TIP3   OH227477   6.646   3.460   1.224 -0.0508 -0.1049  0.0412
 1973TIP3    H127478   6.614   3.380   1.181 -1.3426  1.0054 -1.1332
 1973TIP3    H227479   6.585   3.475   1.295  0.6036 -0.5243  0.7074
 1974TIP3   OH227480   2.673   2.845   2.900 -0.2043 -0.1188  0.5228
 1974TIP3    H127481   2.712   2.923   2.939  0.2656 -0.0047 -0.1709
 1974TIP3    H227482   2.744   2.781   2.899  0.2786  0.3726 -1.5739
 1975TIP3   OH227483   6.646   6.483   1.825  0.1429 -0.1279 -0.5227
 1975TIP3    H127484   6.683   6.416   1.882 -0.5252 -0.2565 -0.2347
 1975TIP3    H227485   6.552   6.481   1.842 -0.1787 -0.6424 -2.1255
 1976TIP3   OH227486   0.454   5.030   1.444  0.4693  0.5698  0.7539
 1976TIP3    H127487   0.483   5.105   1.392 -0.9672  0.1772 -0.6882
 1976TIP3    H227488   0.397   5.069   1.511 -0.5458  0.7608 -0.2005
 1977TIP3   OH227489   2.106   4.269   0.294 -0.0583 -0.5631 -0.2183
 1977TIP3    H127490   2.077   4.218   0.218 -1.7503  1.6328 -1.1564
 1977TIP3    H227491   2.178   4.322   0.261  1.2372 -1.7272  0.5825
 1978TIP3   OH227492   2.695   1.846   8.630  0.3537 -0.0483 -0.5314
 1978TIP3    H127493   2.739   1.774   8.586  0.1724 -1.0555  0.8704
 1978TIP3    H227494   2.761   1.915   8.636  0.4144  0.0805 -2.2240
 1979TIP3   OH227495   6.688   3.938   1.362 -0.2929 -0.4800 -0.2510
 1979TIP3    H127496   6.761   3.878   1.350  1.1833  1.1756  0.1450
 1979TIP3    H227497   6.660   3.925   1.452  1.1889  0.6216  0.4049
 1980TIP3   OH227498   1.237   0.755   8.639 -0.5338 -0.6159  0.0658
 1980TIP3    H127499   1.252   0.835   8.589 -2.5219 -0.0623  0.2886
 1980TIP3    H227500   1.256   0.684   8.577  2.6026 -0.0934  0.2490
 1981TIP3   OH227501   4.012   5.859   0.937 -0.0738  1.1797 -0.3391
 1981TIP3    H127502   4.092   5.882   0.983  0.6196  2.7188 -2.1922
 1981TIP3    H227503   3.959   5.814   1.003  2.7983 -1.1659  0.5915
 1982TIP3   OH227504   4.584   4.061   1.844 -0.1935 -0.1431 -0.0040
 1982TIP3    H127505   4.502   4.011   1.849 -1.4288  1.3887 -2.7425
 1982TIP3    H227506   4.569   4.138   1.898 -0.9307  0.5362 -1.1415
 1983TIP3   OH227507   1.852   5.461   7.828 -0.0883  0.0321  0.7542
 1983TIP3    H127508   1.937   5.477   7.869  0.1231 -0.8235  0.6662
 1983TIP3    H227509   1.788   5.486   7.894  0.2295  0.4533  0.9090
 1984TIP3   OH227510   4.595   1.089   0.805 -0.0080 -0.5366 -0.2489
 1984TIP3    H127511   4.551   1.091   0.890 -2.7604  0.4162 -1.5864
 1984TIP3    H227512   4.669   1.030   0.818 -1.5291 -2.0712  2.2543
 1985TIP3   OH227513   2.805   1.273   2.605 -0.2785  0.1185  0.1510
 1985TIP3    H127514   2.888   1.320   2.615 -1.0855  1.2912  1.6836
 1985TIP3    H227515   2.741   1.341   2.585 -1.7571  0.0307  3.8103
 1986TIP3   OH227516   4.974   0.359   7.223 -0.0759  0.2757 -0.0977
 1986TIP3    H127517   5.007   0.375   7.135 -0.3489  0.4920 -0.1659
 1986TIP3    H227518   4.988   0.442   7.269 -1.5099  0.7446 -0.4538
 1987TIP3   OH227519   3.359   0.737   2.265  0.5183  0.2285  0.3323
 1987TIP3    H127520   3.269   0.709   2.249 -0.0291  1.3929  1.2346
 1987TIP3    H227521   3.362   0.759   2.358  1.5341  0.9079  0.1585
 1988TIP3   OH227522   1.407   1.157   6.820  0.2314 -0.3214 -1.0130
 1988TIP3    H127523   1.476   1.113   6.870 -0.1201 -2.0420 -1.9293
 1988TIP3    H227524   1.415   1.249   6.843  1.4729 -0.7611  0.5042
 1989TIP3   OH227525   3.803   6.603   0.846 -0.5335 -0.5237  0.0736
 1989TIP3    H127526   3.806   6.574   0.937  2.8669 -0.2812  0.1634
 1989TIP3    H227527   3.826   6.525   0.795 -0.7058 -0.2324 -0.4592
 1990TIP3   OH227528   3.923   4.519   2.383  0.2690  0.0179  0.1074
 1990TIP3    H127529   3.918   4.454   2.453  0.9536 -0.8024 -0.5867
 1990TIP3    H227530   3.890   4.474   2.305 -1.2229  1.1582  0.0240
 1991TIP3   OH227531   4.446   4.624   8.381  0.0131 -0.7139 -1.2542
 1991TIP3    H127532   4.380   4.692   8.398  0.7594 -0.2948  0.1528
 1991TIP3    H227533   4.414   4.547   8.427  0.1051 -0.7355 -1.2252
 1992TIP3   OH227534   4.255   4.784   7.975 -0.0055 -0.2163 -0.3801
 1992TIP3    H127535   4.224   4.718   7.914 -1.4397 -0.6887  0.7957
 1992TIP3    H227536   4.184   4.848   7.980  0.0163 -0.2619  0.8833
 1993TIP3   OH227537   4.341   6.216   0.193 -0.6738  0.0938  0.1954
 1993TIP3    H127538   4.389   6.135   0.181  2.4247  1.8137 -0.0038
 1993TIP3    H227539   4.312   6.214   0.284 -2.0987 -1.8534 -0.2262
 1994TIP3   OH227540   4.693   0.782   7.638 -0.3040  0.0343  0.5755
 1994TIP3    H127541   4.686   0.800   7.732  1.5485  0.3605  0.7010
 1994TIP3    H227542   4.766   0.719   7.632 -1.7968 -1.6986 -0.4843
 1995TIP3   OH227543   6.321   4.373   8.552  0.4086 -0.0637  0.2683
 1995TIP3    H127544   6.296   4.457   8.513 -2.7947 -0.2974  1.4607
 1995TIP3    H227545   6.327   4.312   8.479  3.6835  1.2438 -0.7340
 1996TIP3   OH227546   6.652   1.071   2.497  0.1724 -0.5656 -0.0934
 1996TIP3    H127547   6.665   1.037   2.586  0.4125 -1.8367 -0.5993
 1996TIP3    H227548   6.683   1.001   2.440  1.6303  0.8953 -1.1855
 1997TIP3   OH227549   5.083   6.398   2.346  0.4807  0.1571 -0.0163
 1997TIP3    H127550   5.107   6.338   2.416 -0.7569 -1.1808 -0.6825
 1997TIP3    H227551   5.149   6.384   2.278  0.7265  0.2374  0.2047
 1998TIP3   OH227552   3.261   0.318   1.099  0.3780 -0.1481  0.3078
 1998TIP3    H127553   3.293   0.354   1.182  0.0254  3.1879 -0.8290
 1998TIP3    H227554   3.336   0.272   1.061  1.8065  1.7077  0.7426
 1999TIP3   OH227555   0.715   4.010   1.694 -0.0638  0.4131  0.3800
 1999TIP3    H127556   0.776   4.069   1.652 -0.3356  0.0993 -0.4685
 1999TIP3    H227557   0.649   3.992   1.628 -0.5397 -0.0327  0.9624
 2000TIP3   OH227558   3.982   5.577   8.458  0.0049  0.3026  0.0917
 2000TIP3    H127559   3.904   5.601   8.409 -0.2162  1.0732  0.7935
 2000TIP3    H227560   4.032   5.658   8.465  1.2024 -0.3280 -0.9183
 2001TIP3   OH227561   3.564   0.627   2.828 -0.4253  0.2744 -0.3306
 2001TIP3    H127562   3.546   0.716   2.797  1.0596  0.2436 -1.4092
 2001TIP3    H227563   3.489   0.605   2.884 -0.3425  2.5662  0.7962
 2002TIP3   OH227564   0.603   3.276   0.524 -0.3410 -0.2976  0.1234
 2002TIP3    H127565   0.585   3.367   0.549  0.2088 -0.2247  0.2632
 2002TIP3    H227566   0.516   3.239   0.505 -0.7203 -0.2057  1.6036
 2003TIP3   OH227567   2.644   2.716   2.316 -0.1766  0.2788 -0.3887
 2003TIP3    H127568   2.583   2.773   2.269  0.5866  1.0444 -0.4769
 2003TIP3    H227569   2.655   2.757   2.401  0.7934  0.5641 -0.6462
 2004TIP3   OH227570   6.483   1.118   0.023  1.0538 -0.2653  0.2878
 2004TIP3    H127571   6.485   1.041   0.081  0.0011 -0.2942  0.3045
 2004TIP3    H227572   6.549   1.176   0.060  3.1309 -1.8383 -0.7249
 2005TIP3   OH227573   5.684   5.557   6.896 -0.0436 -0.4144  0.2474
 2005TIP3    H127574   5.702   5.531   6.987 -0.0722 -0.7759  0.1520
 2005TIP3    H227575   5.770   5.582   6.861 -0.3486  1.9541  1.0509
 2006TIP3   OH227576   2.957   0.952   8.559  0.6990  0.3228 -0.2170
 2006TIP3    H127577   3.039   0.936   8.512  1.0226 -2.0093  1.0072
 2006TIP3    H227578   2.983   0.956   8.651 -0.6194 -1.3155  0.2658
 2007TIP3   OH227579   6.249   6.028   8.881  0.3318 -0.0345  0.1386
 2007TIP3    H127580   6.335   6.024   8.839  0.6715 -0.2101  0.8414
 2007TIP3    H227581   6.210   6.109   8.847  0.2591 -0.5825 -1.1460
 2008TIP3   OH227582   1.156   2.478   0.086 -0.5294 -0.0297 -0.6241
 2008TIP3    H127583   1.228   2.459   0.026 -0.6027  3.9266 -2.3264
 2008TIP3    H227584   1.196   2.480   0.173  1.3221  1.1606 -1.4278
 2009TIP3   OH227585   4.119   6.119   8.396 -0.1833 -0.7056  0.2176
 2009TIP3    H127586   4.182   6.146   8.463  0.4312  1.1179 -1.0103
 2009TIP3    H227587   4.063   6.195   8.383 -1.5707 -1.7103  0.0363
 2010TIP3   OH227588   5.645   0.135   2.118  0.6971  0.0404 -0.7117
 2010TIP3    H127589   5.553   0.117   2.137  0.2069 -0.5342 -3.2449
 2010TIP3    H227590   5.659   0.223   2.153 -0.4263 -0.3466  0.8367
 2011TIP3   OH227591   4.834   6.212   8.078  0.1727 -0.3878  0.2431
 2011TIP3    H127592   4.918   6.255   8.095 -0.9840  1.9243  0.3732
 2011TIP3    H227593   4.840   6.183   7.987  0.4067  1.5251 -0.3920
 2012TIP3   OH227594   1.550   3.711   8.017  1.2723  0.1200 -0.1489
 2012TIP3    H127595   1.464   3.751   8.003  1.5904  0.7089 -0.4702
 2012TIP3    H227596   1.531   3.618   8.029  0.5647  0.2830  0.0710
 2013TIP3   OH227597   4.570   3.148   6.969  0.7552 -0.2390  0.1186
 2013TIP3    H127598   4.537   3.215   7.029 -1.1857 -2.0242  1.1703
 2013TIP3    H227599   4.623   3.090   7.024 -0.4961 -1.5262  0.0049
 2014TIP3   OH227600   1.728   1.818   7.983  0.5359  0.2508 -0.4752
 2014TIP3    H127601   1.768   1.732   7.981  0.3609  0.1833 -1.0755
 2014TIP3    H227602   1.742   1.849   8.073  0.4884 -0.4492 -0.2267
 2015TIP3   OH227603   5.824   2.452   7.441 -0.0052  0.2541  0.0616
 2015TIP3    H127604   5.765   2.385   7.475 -0.2924  0.0524 -0.8043
 2015TIP3    H227605   5.847   2.421   7.353  0.4048  0.9452 -0.0807
 2016TIP3   OH227606   4.862   5.546   7.777 -0.4207 -0.2509 -0.2135
 2016TIP3    H127607   4.840   5.540   7.684  0.7490  0.9784 -0.5929
 2016TIP3    H227608   4.899   5.633   7.788 -1.4292  0.0028  1.6264
 2017TIP3   OH227609   4.854   3.949   1.498  0.1969 -0.4002  0.4702
 2017TIP3    H127610   4.921   3.892   1.460 -0.2267 -1.4586  1.2288
 2017TIP3    H227611   4.894   4.035   1.503  1.7771 -1.1491  1.5570
 2018TIP3   OH227612   6.606   1.764   1.028  0.0446  0.1586 -0.2778
 2018TIP3    H127613   6.609   1.699   0.959 -2.2871 -1.3492  0.9128
 2018TIP3    H227614   6.534   1.822   1.004 -2.1152 -1.5228  1.6846
 2019TIP3   OH227615   5.421   0.576   2.359  0.3526 -0.6711 -0.4822
 2019TIP3    H127616   5.337   0.605   2.323 -0.0206 -0.7631  0.2776
 2019TIP3    H227617   5.397   0.506   2.420  0.7582  0.6729  1.2963
 2020TIP3   OH227618   1.573   2.915   8.300  0.6148 -0.1664  0.1108
 2020TIP3    H127619   1.590   2.935   8.392 -2.1781 -0.4809  0.7736
 2020TIP3    H227620   1.622   2.834   8.284  1.3155  0.0165  1.2241
 2021TIP3   OH227621   5.960   5.666   2.080  0.9006 -0.1578 -0.5210
 2021TIP3    H127622   6.012   5.723   2.137 -0.0676  0.0728  0.1476
 2021TIP3    H227623   5.874   5.707   2.076  0.0549 -1.7375  0.2697
 2022TIP3   OH227624   4.126   5.895   2.705  0.3846 -0.1825  0.5568
 2022TIP3    H127625   4.106   5.961   2.770  2.9662  1.9162 -0.5999
 2022TIP3    H227626   4.165   5.943   2.632 -1.1323 -2.5521 -2.0429
 2023TIP3   OH227627   6.038   4.139   7.814 -0.2349  0.6001 -0.1615
 2023TIP3    H127628   6.073   4.228   7.806 -0.3367  0.7069  0.5541
 2023TIP3    H227629   6.116   4.083   7.816 -0.1546  0.7132 -0.0920
 2024TIP3   OH227630   1.573   4.073   2.781  0.3343 -0.1484  0.8150
 2024TIP3    H127631   1.618   4.156   2.766  1.0980 -0.7102 -0.0444
 2024TIP3    H227632   1.603   4.044   2.867 -1.0518  1.1507  1.7944
 2025TIP3   OH227633   3.158   2.917   0.610 -0.1230  0.2358 -0.0026
 2025TIP3    H127634   3.203   2.880   0.534 -0.9284 -1.0328  0.1115
 2025TIP3    H227635   3.196   2.870   0.685  0.4930  1.3055  0.3681
 2026TIP3   OH227636   0.359   4.110   8.386 -0.0420  0.4259 -0.1521
 2026TIP3    H127637   0.370   4.139   8.295 -1.0212  3.0313  0.4847
 2026TIP3    H227638   0.310   4.180   8.428 -1.7754 -1.8147  1.8295
 2027TIP3   OH227639   0.744   0.112   1.160 -0.0354 -0.1403  0.3724
 2027TIP3    H127640   0.733   0.185   1.100 -1.5761  0.3694  1.2131
 2027TIP3    H227641   0.692   0.041   1.122  1.2261 -0.7374 -0.2951
 2028TIP3   OH227642   5.166   4.375   1.631  0.2238 -0.0378 -0.2804
 2028TIP3    H127643   5.081   4.345   1.661 -0.2713  0.6901 -0.9328
 2028TIP3    H227644   5.166   4.359   1.537  0.0155  1.7901 -0.6209
 2029TIP3   OH227645   2.756   5.701   8.894 -1.0227  0.8638  0.2981
 2029TIP3    H127646   2.795   5.641   8.957 -0.5244  2.3244  1.4349
 2029TIP3    H227647   2.681   5.739   8.941 -1.0193  1.5106 -0.2075
 2030TIP3   OH227648   2.872   5.552   1.746  0.4536 -0.1904 -0.3346
 2030TIP3    H127649   2.889   5.591   1.661  1.4391  1.6884  0.6730
 2030TIP3    H227650   2.849   5.625   1.803 -0.6942 -1.4540  0.9257
 2031TIP3   OH227651   3.740   6.704   8.232  0.1420 -0.7093  0.4225
 2031TIP3    H127652   3.736   6.647   8.154 -2.0292 -2.1056  1.4605
 2031TIP3    H227653   3.748   6.643   8.305 -1.7711  0.3221  1.5594
 2032TIP3   OH227654   1.775   3.503   0.723  0.0774 -0.0995 -0.2279
 2032TIP3    H127655   1.850   3.558   0.747 -0.2314  0.3966 -0.3778
 2032TIP3    H227656   1.700   3.547   0.763 -0.3024  0.1285 -1.1528
 2033TIP3   OH227657   2.474   5.315   1.180  0.0604 -0.2652  0.6918
 2033TIP3    H127658   2.410   5.335   1.112 -0.5971 -0.1009  1.3561
 2033TIP3    H227659   2.547   5.275   1.132 -0.2277  0.1911 -0.1610
 2034TIP3   OH227660   6.751   4.476   3.134 -0.6322 -0.3194 -0.0953
 2034TIP3    H127661   6.678   4.532   3.106 -0.5562 -0.0244  0.2926
 2034TIP3    H227662   6.796   4.454   3.053 -1.4383 -0.9117 -0.4010
 2035TIP3   OH227663   1.746   0.034   7.415 -0.0352  0.7239  0.0195
 2035TIP3    H127664   1.801   0.021   7.492 -0.0573 -0.9738 -0.2293
 2035TIP3    H227665   1.706   0.120   7.429  1.1562  1.1270  1.1454
 2036TIP3   OH227666   2.216   2.029   2.192  0.0435 -0.2306 -0.2338
 2036TIP3    H127667   2.123   2.047   2.208  0.5374  2.7536 -0.1740
 2036TIP3    H227668   2.219   1.997   2.102 -0.9458  1.0048 -0.7408
 2037TIP3   OH227669   0.973   0.822   8.600  0.1617  0.0246  0.0422
 2037TIP3    H127670   0.906   0.755   8.617 -0.3604  0.9048  1.6120
 2037TIP3    H227671   1.056   0.776   8.613 -0.0476 -1.1306 -2.1132
 2038TIP3   OH227672   4.840   5.074   2.573  0.3631  0.6770  0.0905
 2038TIP3    H127673   4.850   4.993   2.524 -0.0007  1.1347 -0.7479
 2038TIP3    H227674   4.899   5.063   2.648  1.1505  0.0928 -0.5898
 2039TIP3   OH227675   6.100   4.148   8.844 -0.4163  0.0858  0.0394
 2039TIP3    H127676   6.087   4.099   8.926  1.7021  0.2670  0.5420
 2039TIP3    H227677   6.055   4.096   8.778 -0.1438 -1.3563  0.9355
 2040TIP3   OH227678   3.637   0.204   0.623  0.0974 -0.3482  0.4922
 2040TIP3    H127679   3.604   0.123   0.662  0.1891 -0.5195  0.2169
 2040TIP3    H227680   3.636   0.187   0.529 -0.3408  0.1397  0.4048
 2041TIP3   OH227681   6.520   1.960   8.465  0.3355 -0.0348 -0.4502
 2041TIP3    H127682   6.469   1.938   8.387  1.3179  2.1235 -1.7873
 2041TIP3    H227683   6.600   1.908   8.457 -0.0073 -0.5866 -0.3292
 2042TIP3   OH227684   0.821   1.838   8.414  0.2874  0.4978 -0.7255
 2042TIP3    H127685   0.881   1.899   8.372 -2.3648  3.4567 -0.5821
 2042TIP3    H227686   0.748   1.830   8.352 -0.3966 -0.9074  0.2016
 2043TIP3   OH227687   4.073   6.286   0.989  0.8254 -0.2113 -0.6131
 2043TIP3    H127688   3.987   6.245   0.975  1.3451 -1.3511 -0.5957
 2043TIP3    H227689   4.089   6.274   1.083  0.6739  0.6954 -0.4603
 2044TIP3   OH227690   4.521   6.154   1.711  0.0807  0.5908 -0.0207
 2044TIP3    H127691   4.522   6.072   1.761 -0.5908  0.6732  0.1257
 2044TIP3    H227692   4.449   6.204   1.748  0.4993  1.2632 -0.1005
 2045TIP3   OH227693   2.779   5.976   8.563 -0.5056  0.6909 -0.1194
 2045TIP3    H127694   2.695   6.018   8.544  1.0879  3.7812 -0.9847
 2045TIP3    H227695   2.808   5.941   8.479 -0.3626  0.6831 -0.0660
 2046TIP3   OH227696   6.464   1.583   2.215 -0.8165  0.5984  0.0417
 2046TIP3    H127697   6.477   1.508   2.273  0.2069  0.0829 -0.8180
 2046TIP3    H227698   6.371   1.581   2.194 -0.8354 -0.3449  0.1499
 2047TIP3   OH227699   0.967   5.545   1.772 -0.0797 -0.3910 -0.0343
 2047TIP3    H127700   0.942   5.606   1.703 -2.9790 -1.2281  0.1533
 2047TIP3    H227701   1.006   5.600   1.840  0.0906  0.8344 -1.1018
 2048TIP3   OH227702   3.941   3.158   8.267  0.1899  0.3716 -0.2437
 2048TIP3    H127703   3.949   3.133   8.359  0.1180  1.4095  0.0578
 2048TIP3    H227704   3.896   3.084   8.226  1.1702 -0.5686  0.3228
 2049TIP3   OH227705   4.539   0.238   7.615  0.0663  0.4131 -0.2542
 2049TIP3    H127706   4.479   0.164   7.610  1.8073 -1.0549 -0.5830
 2049TIP3    H227707   4.578   0.232   7.702 -1.5215  2.4734  0.6985
 2050TIP3   OH227708   0.070   3.441   8.521  0.3842 -0.0904  0.0491
 2050TIP3    H127709   0.027   3.479   8.598 -0.4379 -2.3761  0.8067
 2050TIP3    H227710   0.161   3.429   8.548  0.9313  2.1824 -0.5767
 2051TIP3   OH227711   4.827   4.290   2.030  0.5784  0.6001 -0.5232
 2051TIP3    H127712   4.797   4.328   1.948  1.0732  0.6543 -0.6792
 2051TIP3    H227713   4.824   4.362   2.093  1.0731  0.7818 -0.7095
 2052TIP3   OH227714   2.864   6.118   2.141  0.3494 -0.2487  0.4331
 2052TIP3    H127715   2.853   6.090   2.050  0.2666 -0.1149  0.4019
 2052TIP3    H227716   2.910   6.045   2.183  0.6533 -0.1825  0.2148
 2053TIP3   OH227717   0.988   6.353   8.036 -0.0288 -0.4837 -0.5249
 2053TIP3    H127718   0.915   6.293   8.048 -0.6572  0.2998 -0.3006
 2053TIP3    H227719   1.055   6.302   7.991 -0.5261 -1.3539 -0.2888
 2054TIP3   OH227720   2.306   6.631   7.774  0.1862 -0.1952  0.1554
 2054TIP3    H127721   2.386   6.654   7.727  0.0045  0.5093  0.1793
 2054TIP3    H227722   2.238   6.630   7.706 -0.0975  0.9365  0.4160
 2055TIP3   OH227723   3.992   1.448   7.706  0.2339  0.0411 -0.3151
 2055TIP3    H127724   4.004   1.354   7.708  1.3198  0.1843  0.4652
 2055TIP3    H227725   4.080   1.484   7.696 -0.1581  0.9809 -0.5573
 2056TIP3   OH227726   5.486   0.044   7.363  0.0194 -0.1463 -0.2102
 2056TIP3    H127727   5.544  -0.002   7.423 -1.1719 -0.8125  0.4911
 2056TIP3    H227728   5.533   0.123   7.338 -0.2981  1.4279  3.4546
 2057TIP3   OH227729   1.033   1.732   1.282  0.3349  0.2703 -0.3470
 2057TIP3    H127730   0.992   1.650   1.254 -0.0634  0.4609 -0.3257
 2057TIP3    H227731   1.078   1.709   1.363 -1.0333  0.4082  0.4790
 2058TIP3   OH227732   0.735   3.821   1.456  0.9608  0.3940 -0.5257
 2058TIP3    H127733   0.726   3.729   1.434  1.0755 -0.3571  2.2611
 2058TIP3    H227734   0.647   3.849   1.481  1.2453  0.5365  0.3434
 2059TIP3   OH227735   0.774   0.562   2.769 -0.6995 -0.3690 -0.1926
 2059TIP3    H127736   0.691   0.600   2.798 -0.5115  0.9307 -1.2565
 2059TIP3    H227737   0.838   0.633   2.779 -0.0597 -0.8168 -0.9688
 2060TIP3   OH227738   4.645   6.056   0.205 -0.6286 -0.0738  0.5101
 2060TIP3    H127739   4.635   6.148   0.229 -1.2565  0.5893 -2.0178
 2060TIP3    H227740   4.719   6.026   0.258  0.3107  2.1900  0.5973
 2061TIP3   OH227741   6.715   5.026   0.171  0.0246  0.6763  0.5327
 2061TIP3    H127742   6.684   5.103   0.123 -1.6533 -0.1493  0.2279
 2061TIP3    H227743   6.749   4.968   0.103  0.8023  0.9161  0.7100
 2062TIP3   OH227744   3.816   2.409   0.435  0.3828 -0.0850  0.6318
 2062TIP3    H127745   3.758   2.376   0.366  0.0212  1.8644 -0.0595
 2062TIP3    H227746   3.872   2.473   0.391  1.4068 -0.1447  1.7961
 2063TIP3   OH227747   1.961   4.431   8.303 -0.5351 -0.0207  0.2342
 2063TIP3    H127748   1.943   4.504   8.361  0.0222  0.6289 -0.3912
 2063TIP3    H227749   2.045   4.453   8.261 -0.6061 -0.7738 -0.3312
 2064TIP3   OH227750   1.817   6.647   2.895 -0.1012 -0.0675  0.1495
 2064TIP3    H127751   1.808   6.722   2.955 -0.5601  0.4791 -0.5837
 2064TIP3    H227752   1.907   6.652   2.863 -0.4555  0.8604 -0.7630
 2065TIP3   OH227753   2.949   4.079   2.017 -0.1754 -0.2993 -0.9638
 2065TIP3    H127754   2.943   4.002   1.960 -0.6003  0.8670 -2.5940
 2065TIP3    H227755   3.001   4.050   2.092  2.3193 -1.3659 -2.9530
 2066TIP3   OH227756   3.127   1.710   8.462  0.2756 -0.2046  0.1541
 2066TIP3    H127757   3.192   1.694   8.530  0.9211 -1.4957 -0.7157
 2066TIP3    H227758   3.169   1.773   8.403 -0.1881  0.7269  0.7990
 2067TIP3   OH227759   6.352   1.215   8.714  0.1090  0.1222 -0.6013
 2067TIP3    H127760   6.313   1.149   8.656 -1.9785 -1.4084  2.2985
 2067TIP3    H227761   6.398   1.164   8.780  1.6807  1.7761 -0.3480
 2068TIP3   OH227762   5.344   2.254   0.100  0.1746 -0.3868  0.2659
 2068TIP3    H127763   5.354   2.275   0.192  0.4996  2.3412 -0.2933
 2068TIP3    H227764   5.301   2.332   0.063 -0.1369 -1.4936 -1.8397
 2069TIP3   OH227765   4.889   5.761   1.438  0.1886 -0.3489 -0.0412
 2069TIP3    H127766   4.874   5.709   1.359 -1.4459  0.1136 -0.0872
 2069TIP3    H227767   4.926   5.700   1.501 -0.0381 -1.1340 -0.6591
 2070TIP3   OH227768   2.967   5.580   8.226  0.0902  0.2131 -0.3100
 2070TIP3    H127769   2.880   5.544   8.244  0.8573 -0.6503  2.0027
 2070TIP3    H227770   3.005   5.521   8.161 -0.2479 -0.6841  0.3028
 2071TIP3   OH227771   6.691   6.578   0.683 -0.1345 -0.0057  0.3232
 2071TIP3    H127772   6.618   6.576   0.745 -1.0512 -0.3303 -0.7513
 2071TIP3    H227773   6.719   6.669   0.682  0.1214 -0.0504  1.4592
 2072TIP3   OH227774   4.815   5.183   8.849  0.7824 -0.2998  0.0253
 2072TIP3    H127775   4.846   5.143   8.768  0.1893  1.6162 -1.2034
 2072TIP3    H227776   4.892   5.190   8.904  1.2958 -1.1552 -0.5714
 2073TIP3   OH227777   3.119   4.391   7.749  0.6790 -0.7184  0.6217
 2073TIP3    H127778   3.038   4.377   7.798  1.1403  1.4565  2.1416
 2073TIP3    H227779   3.189   4.377   7.812  1.3677  0.1828  0.0906
 2074TIP3   OH227780   6.033   2.981   2.219  0.2520  0.1092 -0.0698
 2074TIP3    H127781   6.091   2.912   2.251  0.6063 -0.6489 -2.2525
 2074TIP3    H227782   5.948   2.960   2.258  0.7559 -0.4834  0.7546
 2075TIP3   OH227783   4.620   5.387   0.242 -0.4454 -0.1412  0.1990
 2075TIP3    H127784   4.710   5.413   0.222 -0.8852  0.0696 -1.6229
 2075TIP3    H227785   4.598   5.321   0.176 -1.9259  0.4613  0.0520
 2076TIP3   OH227786   5.367   1.591   1.388  0.5098  0.6732 -0.5359
 2076TIP3    H127787   5.423   1.637   1.451  0.6376  0.8475 -0.7731
 2076TIP3    H227788   5.424   1.525   1.349  0.4113  0.5192 -0.4168
 2077TIP3   OH227789   4.676   4.553   8.727 -0.3952  0.5871  0.0496
 2077TIP3    H127790   4.766   4.565   8.760 -0.5960  0.9852  0.4641
 2077TIP3    H227791   4.621   4.596   8.792 -0.7737  1.8128 -1.0294
 2078TIP3   OH227792   6.578   2.638   0.372 -0.2473 -0.5301  0.7091
 2078TIP3    H127793   6.595   2.610   0.462  2.0871 -2.3450 -0.2097
 2078TIP3    H227794   6.628   2.578   0.318  0.0539  1.7360 -1.7417
 2079TIP3   OH227795   5.029   3.515   0.545  0.2745  0.3325  0.0332
 2079TIP3    H127796   5.017   3.481   0.634  0.2545  2.1570  0.7765
 2079TIP3    H227797   5.124   3.519   0.534  0.3342 -2.2798 -1.0521
 2080TIP3   OH227798   1.677   5.414   7.000 -0.5122  0.3081  0.4757
 2080TIP3    H127799   1.622   5.451   7.070  0.4860  1.4284  0.7169
 2080TIP3    H227800   1.675   5.481   6.931  1.9068  1.2575  1.2075
 2081TIP3   OH227801   2.873   1.095   7.550 -0.2193 -0.4294 -0.9592
 2081TIP3    H127802   2.861   1.189   7.550 -0.0114 -0.4019 -0.7951
 2081TIP3    H227803   2.944   1.079   7.613 -0.8822 -0.7719 -0.2733
 2082TIP3   OH227804   4.648   3.825   1.693 -0.3040  0.1959  0.2002
 2082TIP3    H127805   4.740   3.854   1.695  0.3573 -1.7789  0.7943
 2082TIP3    H227806   4.613   3.849   1.778  0.0731 -0.2291  0.4811
 2083TIP3   OH227807   5.371   2.891   8.319  0.1132  0.2800 -0.4471
 2083TIP3    H127808   5.302   2.878   8.253 -0.1500  1.5063 -0.4397
 2083TIP3    H227809   5.401   2.803   8.339  0.8345 -0.0993 -2.8677
 2084TIP3   OH227810   2.927   4.861   2.428 -0.1620  0.3998 -0.0325
 2084TIP3    H127811   2.967   4.945   2.450 -2.4905  1.6613 -0.2401
 2084TIP3    H227812   2.926   4.813   2.511  1.0669  0.5964  0.1178
 2085TIP3   OH227813   3.341   2.667   0.564 -0.8681  0.1700 -0.4314
 2085TIP3    H127814   3.334   2.731   0.492 -0.2252  1.3472  0.5238
 2085TIP3    H227815   3.387   2.593   0.525 -0.0899  0.9917 -1.1156
 2086TIP3   OH227816   6.752   2.909   6.932 -0.3628 -0.3116 -0.5172
 2086TIP3    H127817   6.797   2.825   6.934  0.5506  0.1838  0.1317
 2086TIP3    H227818   6.695   2.904   6.855 -0.1310 -1.4201 -0.6264
 2087TIP3   OH227819   5.596   2.733   8.480 -0.0443 -0.5259  0.6460
 2087TIP3    H127820   5.655   2.659   8.466  0.7478  0.2234 -0.1412
 2087TIP3    H227821   5.605   2.786   8.401 -1.5458 -0.2141  0.6489
 2088TIP3   OH227822   3.034   0.240   7.472 -0.0134 -0.1677 -0.2907
 2088TIP3    H127823   3.019   0.201   7.386  1.4466 -0.4259 -0.4433
 2088TIP3    H227824   3.080   0.322   7.453 -0.9183  0.4667  0.1787
 2089TIP3   OH227825   4.808   1.870   8.316  0.1256  0.0821  0.7598
 2089TIP3    H127826   4.849   1.837   8.237 -1.2470 -0.2920  0.1744
 2089TIP3    H227827   4.863   1.944   8.343  1.1190 -0.3560 -0.0186
 2090TIP3   OH227828   3.337   4.784   7.316 -0.1324  0.6342  0.5690
 2090TIP3    H127829   3.303   4.773   7.227  1.3047  1.1303 -0.0747
 2090TIP3    H227830   3.378   4.700   7.337 -0.6541  0.4461  0.8639
 2091TIP3   OH227831   1.990   0.244   3.197 -0.4119  0.1648  1.0158
 2091TIP3    H127832   2.033   0.305   3.258  1.1792  0.1305  0.0016
 2091TIP3    H227833   2.003   0.284   3.110 -1.7079 -0.3047  0.5777
 2092TIP3   OH227834   6.418   6.629   1.571 -0.2904 -0.5022  0.0883
 2092TIP3    H127835   6.386   6.539   1.579  0.2708 -0.5186  3.6985
 2092TIP3    H227836   6.368   6.678   1.636  1.2638  1.2311  0.0590
 2093TIP3   OH227837   4.551   2.457   1.134 -0.0755  0.5358  0.2420
 2093TIP3    H127838   4.583   2.490   1.218 -0.9962  2.7390 -0.2134
 2093TIP3    H227839   4.456   2.466   1.139 -0.1634  0.3631 -0.9080
 2094TIP3   OH227840   2.109   1.455   7.641  0.2449  0.0741  0.3753
 2094TIP3    H127841   2.159   1.391   7.590 -0.4096 -1.4581  1.5757
 2094TIP3    H227842   2.056   1.501   7.576  0.2439 -1.0663 -0.4712
 2095TIP3   OH227843   5.147   4.725   1.003 -0.3101  0.6987  0.1993
 2095TIP3    H127844   5.170   4.645   1.051  1.5298  1.2286  0.3044
 2095TIP3    H227845   5.053   4.718   0.987 -0.2663 -1.2810  0.5671
 2096TIP3   OH227846   2.374   3.692   1.626  0.2612  0.9803  0.0681
 2096TIP3    H127847   2.316   3.687   1.702 -0.3107  1.1497 -0.3505
 2096TIP3    H227848   2.394   3.785   1.617  1.6769  0.7983  0.9970
 2097TIP3   OH227849   5.541   3.209   0.798 -0.0386 -0.2787  0.1510
 2097TIP3    H127850   5.551   3.284   0.857 -1.0689 -0.0259  0.0294
 2097TIP3    H227851   5.552   3.246   0.710 -1.5001 -0.0448  0.0292
 2098TIP3   OH227852   0.419   1.483   0.563 -0.3643 -0.1922 -0.5180
 2098TIP3    H127853   0.389   1.487   0.653  0.6436  1.2060 -0.2050
 2098TIP3    H227854   0.373   1.555   0.519 -0.4043 -0.4883 -0.9644
 2099TIP3   OH227855   5.777   0.013   0.811  0.0259 -0.0420 -0.7087
 2099TIP3    H127856   5.828  -0.057   0.771  0.8208  1.0576 -1.6708
 2099TIP3    H227857   5.842   0.077   0.841 -0.6639  0.1353  0.4798
 2100TIP3   OH227858   2.314   5.261   7.219 -0.0752  0.6154  0.3592
 2100TIP3    H127859   2.276   5.301   7.141  1.5971  0.8315 -0.3858
 2100TIP3    H227860   2.401   5.301   7.227  0.9705 -1.5293  0.6100
 2101TIP3   OH227861   5.350   5.925   1.126 -0.2181 -0.3842  0.2255
 2101TIP3    H127862   5.260   5.957   1.127 -0.3960 -0.6819 -1.7976
 2101TIP3    H227863   5.342   5.835   1.094  0.9676  0.4696 -2.7584
 2102TIP3   OH227864   0.451   3.813   7.487 -0.7942 -0.5395 -0.1988
 2102TIP3    H127865   0.525   3.826   7.546 -0.1454 -0.6904 -0.9518
 2102TIP3    H227866   0.374   3.838   7.538  0.0432  3.8445 -0.6902
 2103TIP3   OH227867   1.612   0.122   8.741 -0.1418  0.5652 -0.0243
 2103TIP3    H127868   1.662   0.202   8.728 -1.7077  1.3908 -1.2872
 2103TIP3    H227869   1.671   0.065   8.791  1.7357  1.7484 -0.7855
 2104TIP3   OH227870   6.389   0.416   1.422  0.7287 -0.2571  0.2784
 2104TIP3    H127871   6.383   0.486   1.487  1.6557 -0.0664  0.1844
 2104TIP3    H227872   6.445   0.453   1.353  1.0944 -1.0279  0.1487
 2105TIP3   OH227873   5.535   1.800   7.569  0.4428 -0.1779  0.2601
 2105TIP3    H127874   5.444   1.791   7.599  0.6195 -1.4867  0.4930
 2105TIP3    H227875   5.544   1.731   7.502  1.2119  0.0689  0.1064
 2106TIP3   OH227876   1.063   3.704   1.106 -0.4767 -0.4028  0.1305
 2106TIP3    H127877   1.028   3.793   1.100 -0.9664 -0.5972  0.0067
 2106TIP3    H227878   1.140   3.704   1.049  0.3978  0.3436  1.2883
 2107TIP3   OH227879   4.797   0.487   1.422 -0.4507  1.0928  0.1483
 2107TIP3    H127880   4.806   0.442   1.338 -2.3272  0.3710  0.2998
 2107TIP3    H227881   4.868   0.452   1.475  0.9091  1.7193 -1.1569
 2108TIP3   OH227882   1.690   4.995   1.000 -0.5778  0.1663 -0.2137
 2108TIP3    H127883   1.689   4.963   1.091 -0.6992 -0.8071 -0.5465
 2108TIP3    H227884   1.746   5.072   1.002 -0.7964  0.3167  0.7430
 2109TIP3   OH227885   3.423   3.831   8.868 -0.3639 -0.6982  0.1411
 2109TIP3    H127886   3.507   3.864   8.899 -0.2924  0.5819 -1.3099
 2109TIP3    H227887   3.383   3.791   8.945  0.4228  1.0215  1.5078
 2110TIP3   OH227888   6.631   6.338   7.638 -0.2015  0.1521 -0.1444
 2110TIP3    H127889   6.698   6.405   7.623 -0.8407  1.2584  1.6163
 2110TIP3    H227890   6.549   6.382   7.617 -0.5855 -0.2994  0.3886
 2111TIP3   OH227891   0.310   2.993   1.722 -0.7465 -0.4825  0.2299
 2111TIP3    H127892   0.294   3.007   1.816 -0.9906 -1.2649  0.3146
 2111TIP3    H227893   0.367   2.915   1.719  1.2445  0.9093 -0.1758
 2112TIP3   OH227894   5.249   5.868   0.221  0.1050  0.1070  0.0086
 2112TIP3    H127895   5.255   5.945   0.278  0.1885 -1.4261  2.2038
 2112TIP3    H227896   5.260   5.903   0.132 -1.6197  2.8486  0.7432
 2113TIP3   OH227897   6.574   0.381   7.009  0.0227  0.4088  0.1830
 2113TIP3    H127898   6.600   0.461   6.964  1.3974  0.5811  1.2265
 2113TIP3    H227899   6.523   0.411   7.084  1.2540  0.3728  1.0503
 2114TIP3   OH227900   2.651   0.290   2.367  0.0703 -0.0650  0.2621
 2114TIP3    H127901   2.628   0.345   2.442 -0.0853  2.0567 -1.2472
 2114TIP3    H227902   2.718   0.230   2.400 -0.7527  0.0794  2.3348
 2115TIP3   OH227903   4.467   5.165   1.045  0.3243  0.0284  0.8494
 2115TIP3    H127904   4.530   5.114   1.095  0.1224 -0.6578  0.4209
 2115TIP3    H227905   4.392   5.107   1.035  1.0478 -0.5707 -1.8012
 2116TIP3   OH227906   3.949   3.502   2.247 -0.4716 -0.3416 -0.0548
 2116TIP3    H127907   3.953   3.406   2.245 -0.1519 -0.3816  1.3693
 2116TIP3    H227908   4.035   3.530   2.215 -0.5730 -0.5230 -0.4978
 2117TIP3   OH227909   6.185   1.265   0.534 -0.1345 -0.1438  0.0308
 2117TIP3    H127910   6.242   1.303   0.601 -0.2916 -1.1280  0.7403
 2117TIP3    H227911   6.244   1.244   0.462  0.1143  0.4712  0.0445
 2118TIP3   OH227912   4.298   0.259   0.953 -0.0942  0.4698  0.4984
 2118TIP3    H127913   4.276   0.183   1.008 -0.4195  0.4020  0.2832
 2118TIP3    H227914   4.225   0.264   0.891  1.0050 -0.4222 -0.9459
 2119TIP3   OH227915   0.514   4.413   1.866 -0.0431 -0.1335 -0.3606
 2119TIP3    H127916   0.502   4.449   1.954 -0.2647  0.8771 -0.7893
 2119TIP3    H227917   0.517   4.489   1.809  1.6266 -0.6823 -1.0812
 2120TIP3   OH227918   0.262   4.377   1.253  0.1761  0.6314 -0.0533
 2120TIP3    H127919   0.357   4.363   1.252  0.1853  0.7030 -0.4979
 2120TIP3    H227920   0.252   4.472   1.253  0.1037  0.6260  0.4450
 2121TIP3   OH227921   4.135   5.993   7.250  0.2146  0.3534 -0.1974
 2121TIP3    H127922   4.048   6.032   7.263  0.0057 -0.0462 -0.3662
 2121TIP3    H227923   4.117   5.901   7.232  0.7730 -0.1415  1.5600
 2122TIP3   OH227924   4.559   3.179   0.108 -0.5966  0.4312 -0.2113
 2122TIP3    H127925   4.526   3.171   0.197 -0.9112 -1.1253 -0.4344
 2122TIP3    H227926   4.594   3.092   0.087  1.4530  1.3440 -0.8608
 2123TIP3   OH227927   3.787   5.349   0.103 -0.8160 -0.4463  0.2583
 2123TIP3    H127928   3.739   5.288   0.047  0.9122 -2.5862  0.9614
 2123TIP3    H227929   3.866   5.370   0.052  0.0160 -1.1820  1.2016
 2124TIP3   OH227930   1.700   6.469   7.529  0.4793  0.6140  0.1484
 2124TIP3    H127931   1.754   6.480   7.607 -0.4878 -1.8022  1.2616
 2124TIP3    H227932   1.761   6.476   7.455  1.9170  0.1510  1.2570
 2125TIP3   OH227933   6.059   6.030   1.057  0.5217 -0.1806 -0.3468
 2125TIP3    H127934   6.096   5.948   1.090  0.0550 -0.0029  0.6704
 2125TIP3    H227935   5.965   6.021   1.071  0.4239  0.3459 -0.6363
 2126TIP3   OH227936   5.494   0.834   0.158  0.2518  0.1726 -0.5280
 2126TIP3    H127937   5.536   0.851   0.242 -0.0725 -2.6985  0.3105
 2126TIP3    H227938   5.553   0.872   0.094  2.3083 -0.5409  0.8342
 2127TIP3   OH227939   3.520   5.915   0.351  0.3522  0.6935 -0.2783
 2127TIP3    H127940   3.491   6.002   0.323 -2.5062 -0.0599 -0.0231
 2127TIP3    H227941   3.532   5.923   0.445  1.6523  1.1606 -0.4664
 2128TIP3   OH227942   5.342   3.385   1.853  0.3027  0.2041  0.3266
 2128TIP3    H127943   5.271   3.431   1.808  3.2504  3.0692 -1.8857
 2128TIP3    H227944   5.393   3.455   1.895  2.4841 -1.5332  0.7630
 2129TIP3   OH227945   0.885   4.656   1.505 -0.1955 -0.5199 -0.4579
 2129TIP3    H127946   0.976   4.670   1.531 -0.2109 -1.8974  0.4780
 2129TIP3    H227947   0.878   4.695   1.418  0.6632  1.6379  0.3844
 2130TIP3   OH227948   2.449   5.778   7.948  0.1188  0.0617  0.0022
 2130TIP3    H127949   2.403   5.825   7.879 -0.3134  0.4605  0.5512
 2130TIP3    H227950   2.399   5.798   8.028  0.5806 -0.4259  0.4221
 2131TIP3   OH227951   3.886   2.757   6.623 -0.6092  0.1676  0.2773
 2131TIP3    H127952   3.843   2.701   6.687  3.4377 -1.6711  1.7449
 2131TIP3    H227953   3.932   2.823   6.676 -1.2967  1.8631 -1.1402
 2132TIP3   OH227954   4.823   2.343   7.797  0.2227 -0.1797  0.0526
 2132TIP3    H127955   4.908   2.308   7.824  1.0748  1.4918 -0.2895
 2132TIP3    H227956   4.789   2.279   7.735  2.4446  0.3048 -1.8129
 2133TIP3   OH227957   6.193   1.502   7.720 -0.2415  0.1712 -0.0532
 2133TIP3    H127958   6.276   1.457   7.736  0.3913  1.2358 -0.2561
 2133TIP3    H227959   6.207   1.554   7.642 -0.3971  1.9760  1.0499
 2134TIP3   OH227960   3.960   2.773   7.094  0.2792 -0.3832  0.3533
 2134TIP3    H127961   3.964   2.694   7.147 -0.8112  0.1945  1.3287
 2134TIP3    H227962   4.052   2.797   7.081  0.5846 -0.6787  1.7662
 2135TIP3   OH227963   5.308   2.579   8.279  0.4968  0.0403 -0.4385
 2135TIP3    H127964   5.276   2.566   8.190 -2.7674 -2.6601  0.8673
 2135TIP3    H227965   5.377   2.514   8.290 -1.7388 -2.4627 -0.0440
 2136TIP3   OH227966   3.423   5.797   1.524 -0.2313 -0.3480 -0.2050
 2136TIP3    H127967   3.350   5.842   1.568  0.6792  0.3355  0.6383
 2136TIP3    H227968   3.493   5.795   1.589  0.4300 -1.2235 -0.9217
 2137TIP3   OH227969   3.983   6.337   2.828 -0.3775  0.1031 -0.4277
 2137TIP3    H127970   3.908   6.342   2.769 -0.1173  1.8349 -0.6782
 2137TIP3    H227971   3.968   6.406   2.892  1.7731  1.7054 -1.4909
 2138TIP3   OH227972   5.183   1.899   7.920  0.1839 -0.0953 -0.2902
 2138TIP3    H127973   5.255   1.861   7.970  1.7022  3.0433  0.1864
 2138TIP3    H227974   5.105   1.852   7.950  1.5534 -1.0311  2.0788
 2139TIP3   OH227975   3.926   0.399   0.380 -0.1827 -0.6956  0.3783
 2139TIP3    H127976   3.939   0.310   0.349 -1.2202 -0.8082  0.2318
 2139TIP3    H227977   3.985   0.453   0.327  0.4456 -1.2877  0.4674
 2140TIP3   OH227978   1.787   5.594   0.074  0.3419  0.1052  0.8100
 2140TIP3    H127979   1.863   5.645   0.050  0.3912 -1.4089 -2.8171
 2140TIP3    H227980   1.821   5.506   0.090 -0.0547  0.4603  4.6521
 2141TIP3   OH227981   5.131   5.951   1.770 -0.3577  0.3877 -0.7104
 2141TIP3    H127982   5.159   6.039   1.797 -0.2293 -0.0071  0.5257
 2141TIP3    H227983   5.132   5.900   1.851 -0.6977 -0.6904 -1.3640
 2142TIP3   OH227984   5.168   4.946   8.716 -0.6250 -0.2876 -0.1365
 2142TIP3    H127985   5.176   5.035   8.681 -0.7496 -0.9578 -2.0376
 2142TIP3    H227986   5.253   4.927   8.754 -0.4090  0.4405 -0.2477
 2143TIP3   OH227987   5.592   5.359   0.169 -0.3218  0.1566 -0.1251
 2143TIP3    H127988   5.640   5.299   0.112 -1.3247  0.0080 -0.8312
 2143TIP3    H227989   5.639   5.355   0.252  0.7413 -0.1607 -0.7225
 2144TIP3   OH227990   1.631   4.382   2.473  0.1885  0.1707 -0.1353
 2144TIP3    H127991   1.637   4.300   2.424  1.0640 -0.6342  1.2529
 2144TIP3    H227992   1.650   4.357   2.563 -1.1983  1.6248  0.6164
 2145TIP3   OH227993   2.286   5.452   1.013  0.6067 -0.2507 -0.7420
 2145TIP3    H127994   2.274   5.416   0.926  1.5369  0.6218 -1.2555
 2145TIP3    H227995   2.210   5.509   1.026  0.9619  0.3945 -1.4081
 2146TIP3   OH227996   4.871   5.938   2.337  0.0346  0.4340  0.3616
 2146TIP3    H127997   4.876   5.848   2.304 -1.6982  0.7877 -0.9880
 2146TIP3    H227998   4.962   5.960   2.357  0.4373 -1.8553  1.5219
 2147TIP3   OH227999   6.105   3.726   2.027 -0.0332  0.1085 -0.1176
 2147TIP3    H128000   6.059   3.808   2.047  0.6417  0.1281  1.5152
 2147TIP3    H228001   6.071   3.663   2.090  0.4967 -0.4903 -0.4213
 2148TIP3   OH228002   3.468   5.497   8.493  0.0070 -0.5687 -0.2353
 2148TIP3    H128003   3.510   5.559   8.552 -1.6872 -0.4115  0.8821
 2148TIP3    H228004   3.444   5.549   8.416  0.4502 -0.3162 -0.2036
 2149TIP3   OH228005   4.811   4.489   7.750  0.4915  0.3178 -0.1390
 2149TIP3    H128006   4.777   4.401   7.761  0.2791 -0.0979 -3.2276
 2149TIP3    H228007   4.742   4.537   7.704  0.4870  2.2451  1.7008
 2150TIP3   OH228008   1.108   6.771   0.608  0.5650  0.2576 -0.5183
 2150TIP3    H128009   1.172   6.726   0.553  1.5485  2.5440 -1.4067
 2150TIP3    H228010   1.034   6.787   0.549  0.3546  0.0389 -0.3085
 2151TIP3   OH228011   0.614   4.512   8.347 -0.1984  0.1271 -0.1947
 2151TIP3    H128012   0.701   4.475   8.364 -0.8755 -1.1187  0.7511
 2151TIP3    H228013   0.567   4.441   8.303 -0.8832  0.6072 -0.2391
 2152TIP3   OH228014   3.393   2.512   8.078 -0.1304 -0.0621  0.7847
 2152TIP3    H128015   3.432   2.599   8.075 -0.3823  0.1312  2.3300
 2152TIP3    H228016   3.339   2.513   8.157  0.1129 -1.7267  0.9974
 2153TIP3   OH228017   2.742   0.408   8.831 -0.0224  0.1507 -0.5171
 2153TIP3    H128018   2.837   0.410   8.840 -0.1739 -0.4225  2.0251
 2153TIP3    H228019   2.721   0.317   8.814 -0.1115  0.2901 -1.1578
 2154TIP3   OH228020   6.060   2.968   1.959 -0.5311 -0.4167  0.4119
 2154TIP3    H128021   6.044   2.966   2.053  0.1888  0.3192  0.5656
 2154TIP3    H228022   6.029   3.055   1.932 -0.2693 -0.4303  0.0622
 2155TIP3   OH228023   3.837   5.228   0.818  0.0986 -0.4631 -0.0947
 2155TIP3    H128024   3.801   5.226   0.729  1.2453  1.2982 -0.6539
 2155TIP3    H228025   3.812   5.144   0.856 -2.5590 -0.2934 -1.2240
 2156TIP3   OH228026   6.631   1.367   2.612 -0.0197 -0.8230 -0.0462
 2156TIP3    H128027   6.646   1.278   2.582 -1.1520 -1.8409  2.1962
 2156TIP3    H228028   6.710   1.391   2.660 -0.7067 -1.6403  1.5501
 2157TIP3   OH228029   5.982   3.761   0.733  0.2485  0.4067  0.0759
 2157TIP3    H128030   5.907   3.771   0.674 -0.1712 -2.5210 -0.0224
 2157TIP3    H228031   6.058   3.785   0.680 -0.3025 -0.2790 -1.0533
 2158TIP3   OH228032   0.200   2.800   2.139  0.1550 -0.2816 -0.0430
 2158TIP3    H128033   0.113   2.767   2.159  0.2057  0.0146  0.6885
 2158TIP3    H228034   0.224   2.756   2.057 -0.6831 -0.3431 -0.2637
 2159TIP3   OH228035   2.281   5.687   2.732 -0.7300 -0.4097  0.0856
 2159TIP3    H128036   2.283   5.777   2.764  1.1679 -0.6696  0.8388
 2159TIP3    H228037   2.192   5.658   2.749 -1.1272  1.0431  0.6722
 2160TIP3   OH228038   3.854   4.368   7.562 -0.1278 -0.1504 -0.4579
 2160TIP3    H128039   3.826   4.308   7.632  1.2506 -0.2598  0.0296
 2160TIP3    H228040   3.802   4.341   7.486  0.4258 -1.9621 -0.2484
 2161TIP3   OH228041   2.119   6.325   1.575 -0.7770  0.1609  0.0343
 2161TIP3    H128042   2.173   6.300   1.650  1.2238  1.5539 -0.8540
 2161TIP3    H228043   2.043   6.368   1.613 -0.5923 -0.5878  1.2941
 2162TIP3   OH228044   1.305   6.250   0.074 -0.0858  0.0151  0.5336
 2162TIP3    H128045   1.282   6.277   0.163  1.0934  2.5465  0.1664
 2162TIP3    H228046   1.306   6.154   0.077 -1.9280 -0.0193  2.7234
 2163TIP3   OH228047   2.757   4.704   1.471 -0.1182  0.8221 -0.3237
 2163TIP3    H128048   2.708   4.621   1.469  0.2200  0.6359 -0.9701
 2163TIP3    H228049   2.847   4.678   1.489 -0.0623  1.0784 -0.2340
 2164TIP3   OH228050   1.402   5.160   0.470 -0.2388 -0.4729 -0.0921
 2164TIP3    H128051   1.402   5.246   0.428  2.8814 -0.6526 -0.7507
 2164TIP3    H228052   1.408   5.098   0.398  0.9627 -1.0072  0.4255
 2165TIP3   OH228053   0.265   6.351   7.792  0.1721  0.0065  0.3054
 2165TIP3    H128054   0.287   6.378   7.703 -0.9480  0.0872  0.0326
 2165TIP3    H228055   0.340   6.379   7.845  1.0237 -0.3725 -0.6589
 2166TIP3   OH228056   4.417   4.838   7.278 -0.1649 -0.0270 -0.0525
 2166TIP3    H128057   4.360   4.861   7.205  1.8160  0.2684 -1.6020
 2166TIP3    H228058   4.458   4.756   7.251 -0.5983 -0.7836  1.4902
 2167TIP3   OH228059   5.004   1.344   1.376  0.5679 -0.2165 -0.2259
 2167TIP3    H128060   5.005   1.366   1.283  0.7146  0.6161 -0.0424
 2167TIP3    H228061   5.025   1.427   1.420  0.7613 -0.6587  0.5352
 2168TIP3   OH228062   5.152   6.045   2.285 -0.6266  0.3956 -0.3929
 2168TIP3    H128063   5.231   6.024   2.235  0.1099 -3.8375  2.0565
 2168TIP3    H228064   5.182   6.108   2.350 -0.1222  1.2878 -1.4506
 2169TIP3   OH228065   0.512   6.142   0.402 -0.1737 -0.0133  0.8209
 2169TIP3    H128066   0.507   6.209   0.334 -1.8248 -2.0409 -1.1991
 2169TIP3    H228067   0.605   6.119   0.405 -0.1704 -0.6232 -1.6177
 2170TIP3   OH228068   0.249   2.026   1.009 -0.2665  0.1528 -0.2551
 2170TIP3    H128069   0.233   2.107   0.962  0.2605 -0.9254 -2.4057
 2170TIP3    H228070   0.166   1.979   1.005 -0.5593  0.5214  0.9497
 2171TIP3   OH228071   2.309   1.928   1.618 -0.4235  0.4392 -0.5047
 2171TIP3    H128072   2.300   1.941   1.713  0.0278 -0.6361 -0.3010
 2171TIP3    H228073   2.369   1.854   1.610 -0.7606  0.2780 -1.6320
 2172TIP3   OH228074   4.030   5.854   8.447  0.7708  0.2182 -0.1052
 2172TIP3    H128075   4.049   5.947   8.454  3.3155 -0.3606  2.1407
 2172TIP3    H228076   4.071   5.815   8.524 -1.1456 -2.6594 -0.3835
 2173TIP3   OH228077   2.912   0.372   8.316  0.2811 -0.2039 -0.4453
 2173TIP3    H128078   2.968   0.396   8.242  0.4083 -1.5859 -0.8359
 2173TIP3    H228079   2.943   0.285   8.343  0.1881  0.2426  1.2005
 2174TIP3   OH228080   1.665   1.878   2.875 -0.8571 -0.0876 -0.3384
 2174TIP3    H128081   1.598   1.845   2.934  0.4548 -0.4634  0.9850
 2174TIP3    H228082   1.693   1.801   2.825 -0.5374 -0.1924 -0.0019
 2175TIP3   OH228083   4.828   2.763   2.552  0.8538 -0.9177 -0.3045
 2175TIP3    H128084   4.764   2.765   2.623 -0.7434 -3.9503 -1.4627
 2175TIP3    H228085   4.912   2.772   2.596 -0.1679 -0.8648  1.7569
 2176TIP3   OH228086   3.674   2.310   8.400  0.1812  0.3555  0.3203
 2176TIP3    H128087   3.753   2.349   8.438  1.4090 -1.1300 -0.5664
 2176TIP3    H228088   3.649   2.370   8.330  1.6433 -0.0299 -0.5873
 2177TIP3   OH228089   0.374   2.824   0.916 -0.1638  0.3066  0.4615
 2177TIP3    H128090   0.369   2.861   1.004 -0.0589 -0.6973  0.9098
 2177TIP3    H228091   0.454   2.771   0.917  0.7104  1.5285 -0.7462
 2178TIP3   OH228092   6.158   1.641   8.108  0.4533 -0.6892 -0.7643
 2178TIP3    H128093   6.128   1.703   8.041  0.2068  1.7803  1.4975
 2178TIP3    H228094   6.077   1.598   8.138  0.2979 -0.2542 -0.5636
 2179TIP3   OH228095   3.613   3.731   0.368 -0.0907  0.6394 -0.0050
 2179TIP3    H128096   3.549   3.665   0.341  0.3470  0.7117 -1.3096
 2179TIP3    H228097   3.632   3.779   0.288 -0.5696  2.5314  0.9601
 2180TIP3   OH228098   2.631   2.657   1.159  0.1956  0.5263  0.3011
 2180TIP3    H128099   2.542   2.622   1.168 -0.1381  1.2566 -0.0978
 2180TIP3    H228100   2.687   2.590   1.199 -0.5917  0.4004  1.2251
 2181TIP3   OH228101   5.303   2.829   7.873  0.8355 -0.5332  0.6426
 2181TIP3    H128102   5.269   2.761   7.931 -0.4183  0.0513  0.6186
 2181TIP3    H228103   5.257   2.908   7.899  2.2862  0.3320  0.6803
 2182TIP3   OH228104   3.077   0.110   0.935 -0.3067  0.2333  0.4274
 2182TIP3    H128105   3.097   0.070   1.020  1.6692  3.0220  1.4036
 2182TIP3    H228106   3.023   0.187   0.957  0.1088  0.9196 -0.8582
 2183TIP3   OH228107   0.431   4.466   8.570 -0.3148  0.6339 -0.0999
 2183TIP3    H128108   0.503   4.477   8.508 -1.1078 -1.2706 -1.4408
 2183TIP3    H228109   0.473   4.431   8.649  0.1176 -2.0830 -1.4263
 2184TIP3   OH228110   0.787   3.293   7.426  0.2965 -0.7753 -0.3216
 2184TIP3    H128111   0.853   3.225   7.441  1.8200  0.4987 -0.9146
 2184TIP3    H228112   0.837   3.375   7.425 -1.2087  0.1808 -1.4581
 2185TIP3   OH228113   4.373   6.499   1.711  0.3924  0.3320  0.1213
 2185TIP3    H128114   4.323   6.573   1.745 -0.9052 -0.8160  0.8031
 2185TIP3    H228115   4.446   6.539   1.663  0.0833  2.0290  0.9940
 2186TIP3   OH228116   4.293   6.297   0.503 -0.3074  0.0006 -0.3198
 2186TIP3    H128117   4.377   6.341   0.514 -1.1042  1.3240  0.7645
 2186TIP3    H228118   4.262   6.281   0.592 -0.1568 -2.6410 -0.6747
 2187TIP3   OH228119   2.461   4.975   0.426 -0.0291  0.3265  0.4492
 2187TIP3    H128120   2.446   4.996   0.519  0.0180 -0.5085  0.6485
 2187TIP3    H228121   2.401   4.903   0.408  1.0546 -0.5466  0.2459
 2188TIP3   OH228122   5.716   5.410   0.891 -0.0206 -0.2222  0.6020
 2188TIP3    H128123   5.633   5.366   0.908  1.6336 -2.8846  2.6384
 2188TIP3    H228124   5.763   5.350   0.832  1.2202  0.2043  1.1330
 2189TIP3   OH228125   3.411   1.574   7.530 -0.0318 -0.3877  0.3218
 2189TIP3    H128126   3.495   1.529   7.522  0.5463  0.8402 -1.0077
 2189TIP3    H228127   3.385   1.591   7.440  0.0241  2.3215  0.7451
 2190TIP3   OH228128   5.558   2.413   8.008 -0.4908 -0.0275 -0.0669
 2190TIP3    H128129   5.558   2.331   8.057  0.3828  0.4569  0.7860
 2190TIP3    H228130   5.466   2.441   8.007 -0.9357 -1.4112 -1.1078
 2191TIP3   OH228131   3.358   2.058   0.998  0.3383  0.1022  0.7058
 2191TIP3    H128132   3.272   2.030   1.029  0.4396 -0.9109  0.1252
 2191TIP3    H228133   3.418   2.033   1.068  0.2586  0.0904  0.7702
 2192TIP3   OH228134   4.384   3.363   0.929 -0.5367 -0.0952 -0.1237
 2192TIP3    H128135   4.352   3.426   0.994 -1.0827 -1.6979  1.2174
 2192TIP3    H228136   4.448   3.310   0.975  0.7282  0.1094 -1.5413
 2193TIP3   OH228137   4.614   3.251   1.066  0.9234  0.3175 -0.3726
 2193TIP3    H128138   4.614   3.220   1.156 -2.2929  1.9882  0.3574
 2193TIP3    H228139   4.666   3.331   1.068 -0.1658  1.0377  0.3566
 2194TIP3   OH228140   2.862   2.192   1.517  0.4066 -0.5573 -0.6439
 2194TIP3    H128141   2.900   2.106   1.533 -0.5852 -1.2840 -1.9734
 2194TIP3    H228142   2.818   2.184   1.432 -1.0334  0.7910 -0.0855
 2195TIP3   OH228143   1.842   4.449   7.160  0.1504  0.0900 -0.0197
 2195TIP3    H128144   1.756   4.462   7.121 -0.2151  0.8130  0.9649
 2195TIP3    H228145   1.895   4.520   7.126  0.8857 -1.3313 -1.9719
 2196TIP3   OH228146   1.070   5.063   8.781  0.2684 -0.3103 -0.6314
 2196TIP3    H128147   1.127   4.987   8.787 -1.6349 -1.7291  0.8278
 2196TIP3    H228148   1.115   5.131   8.831  1.8536 -0.5290 -1.6926
 2197TIP3   OH228149   1.534   6.104   8.273  0.2863 -0.1614  0.2239
 2197TIP3    H128150   1.462   6.058   8.315 -0.5722  0.8402 -0.0897
 2197TIP3    H228151   1.523   6.086   8.179  0.8122 -0.4880  0.2156
 2198TIP3   OH228152   1.816   4.562   7.671 -0.3002 -0.1168 -0.1972
 2198TIP3    H128153   1.841   4.472   7.694 -1.7781 -0.2126  1.2413
 2198TIP3    H228154   1.795   4.558   7.578 -0.9543 -1.4172 -0.0176
 2199TIP3   OH228155   5.678   0.324   1.821  0.1055 -0.1600 -1.0433
 2199TIP3    H128156   5.696   0.233   1.799 -0.5627 -0.7107  0.6002
 2199TIP3    H228157   5.601   0.321   1.877  0.7236  1.3140 -0.0503
 2200TIP3   OH228158   4.706   0.655   7.225  0.5523  0.2054 -0.2756
 2200TIP3    H128159   4.721   0.634   7.132 -0.0628  1.1477 -0.6085
 2200TIP3    H228160   4.744   0.742   7.235  0.3011  0.2523  0.2671
 2201TIP3   OH228161   5.980   3.538   8.905 -0.5996  0.7808 -0.3276
 2201TIP3    H128162   5.969   3.577   8.992  0.0741  0.6951 -0.1976
 2201TIP3    H228163   5.892   3.532   8.870 -1.0676 -0.5796  0.9636
 2202TIP3   OH228164   1.538   4.392   2.872  0.2703 -0.1499 -0.4198
 2202TIP3    H128165   1.631   4.373   2.883  0.1211 -1.0897 -0.6270
 2202TIP3    H228166   1.494   4.336   2.936 -0.0862  1.4779  0.8225
 2203TIP3   OH228167   3.705   5.263   1.240 -0.1648 -0.1701  0.0812
 2203TIP3    H128168   3.648   5.315   1.184  1.4588  1.3906 -0.2372
 2203TIP3    H228169   3.782   5.319   1.254  0.4008 -1.3555  2.1475
 2204TIP3   OH228170   4.149   2.694   7.465  0.0170  0.5590 -0.4518
 2204TIP3    H128171   4.188   2.673   7.550 -1.1876  0.2029  0.0390
 2204TIP3    H228172   4.188   2.632   7.404  1.5385  1.3612 -0.3614
 2205TIP3   OH228173   6.177   5.008   0.631 -0.1613  0.4197  0.1686
 2205TIP3    H128174   6.237   5.073   0.666 -0.8328  0.2992  1.6176
 2205TIP3    H228175   6.111   5.059   0.583 -0.6356  0.8371  1.2197
 2206TIP3   OH228176   5.070   0.310   0.593 -0.2333  0.7245 -0.0015
 2206TIP3    H128177   5.015   0.387   0.602 -0.0362  0.8668 -0.0141
 2206TIP3    H228178   5.075   0.273   0.681 -0.6055  0.5340 -0.0584
 2207TIP3   OH228179   5.954   0.994   7.347  0.4230 -0.5332  0.3697
 2207TIP3    H128180   6.003   0.921   7.311 -1.8865 -1.4055 -1.2288
 2207TIP3    H228181   6.020   1.061   7.365  2.2077 -1.7445 -1.3215
 2208TIP3   OH228182   2.204   0.037   1.577 -0.0127 -0.0208 -0.1570
 2208TIP3    H128183   2.173  -0.043   1.621 -3.2317  1.0921 -0.1730
 2208TIP3    H228184   2.282   0.008   1.529  0.6907 -2.4473  2.1513
 2209TIP3   OH228185   1.148   1.651   1.537 -0.2764 -0.2286  0.0264
 2209TIP3    H128186   1.103   1.633   1.619 -0.3231 -1.3588 -0.2308
 2209TIP3    H228187   1.240   1.629   1.554 -0.3041 -0.5733 -0.2462
 2210TIP3   OH228188   0.808   5.790   0.540 -0.1461  0.3316 -0.3125
 2210TIP3    H128189   0.818   5.702   0.503  0.6635  1.1390 -2.1682
 2210TIP3    H228190   0.715   5.810   0.533 -0.4116 -0.5485  0.5804
 2211TIP3   OH228191   4.580   3.137   1.326 -0.0844 -0.6534  0.4150
 2211TIP3    H128192   4.589   3.042   1.327 -0.6562 -0.7159 -0.0064
 2211TIP3    H228193   4.598   3.164   1.416  2.0995 -0.9515  0.1136
 2212TIP3   OH228194   1.498   0.209   1.757  0.2976  0.3147  0.2963
 2212TIP3    H128195   1.550   0.132   1.736  3.7249  2.5275 -0.1362
 2212TIP3    H228196   1.455   0.232   1.675 -0.4496 -0.8548  0.3364
 2213TIP3   OH228197   2.594   3.533   1.572 -0.2110  0.1109  0.9633
 2213TIP3    H128198   2.512   3.579   1.583 -0.5419 -0.1964 -0.0616
 2213TIP3    H228199   2.660   3.602   1.565 -0.5306  0.3881  0.6817
 2214TIP3   OH228200   4.034   5.244   8.566 -0.0874  0.3108  0.6365
 2214TIP3    H128201   3.981   5.305   8.515 -0.4679  0.6748  1.4531
 2214TIP3    H228202   4.094   5.299   8.616 -0.3568  0.0256  1.2903
 2215TIP3   OH228203   0.008   0.241   1.877 -0.1000  0.2331 -0.2739
 2215TIP3    H128204   0.092   0.278   1.903  0.5887 -1.4118  0.0214
 2215TIP3    H228205   0.031   0.158   1.834 -1.5998 -0.8657  0.9067
 2216TIP3   OH228206   2.710   4.087   7.971  0.0387 -0.3887  0.3592
 2216TIP3    H128207   2.638   4.024   7.965 -0.6467  0.2460  1.6905
 2216TIP3    H228208   2.775   4.043   8.026  0.3166 -0.6177 -0.1439
 2217TIP3   OH228209   5.617   1.989   8.562 -0.0564  0.2094 -0.4502
 2217TIP3    H128210   5.569   2.072   8.566  0.2865  0.3677  1.6378
 2217TIP3    H228211   5.658   1.981   8.648 -1.5478 -2.9793  0.1113
 2218TIP3   OH228212   4.427   1.983   2.892 -0.0443 -0.4290 -0.3578
 2218TIP3    H128213   4.498   2.009   2.951 -1.7408  1.3566  1.0300
 2218TIP3    H228214   4.411   2.061   2.839 -0.1629 -1.2331 -1.5475
 2219TIP3   OH228215   2.495   6.626   8.635  0.3145  0.5347  0.2119
 2219TIP3    H128216   2.422   6.573   8.602 -0.0121  1.5113 -0.6599
 2219TIP3    H228217   2.483   6.626   8.730  0.0178 -0.5052  0.1899
 2220TIP3   OH228218   0.740   3.822   0.528 -0.9828  0.3854 -0.2557
 2220TIP3    H128219   0.709   3.909   0.555 -4.4749 -0.3642 -1.3130
 2220TIP3    H228220   0.724   3.820   0.434  2.3807 -0.2792 -0.9398
 2221TIP3   OH228221   4.870   4.042   1.835  0.0835  0.0599  0.1108
 2221TIP3    H128222   4.778   4.032   1.859 -1.0376 -0.3777 -3.7230
 2221TIP3    H228223   4.909   3.957   1.858 -0.4749  0.1491  1.5277
 2222TIP3   OH228224   0.865   5.527   7.926  0.4903 -0.0770 -0.0447
 2222TIP3    H128225   0.831   5.580   7.998  0.5181  0.1600 -0.2045
 2222TIP3    H228226   0.786   5.492   7.883  0.3508  1.6620 -1.3152
 2223TIP3   OH228227   4.098   4.260   8.338  0.1479  0.8656 -0.3355
 2223TIP3    H128228   4.175   4.207   8.360  0.5003  1.4374 -0.1751
 2223TIP3    H228229   4.024   4.210   8.373  0.6320  1.4088  1.5405
 2224TIP3   OH228230   6.377   4.060   0.582 -0.7178  0.1524  0.2547
 2224TIP3    H128231   6.324   4.005   0.639  2.3536 -1.2264  2.0163
 2224TIP3    H228232   6.364   4.024   0.494 -2.3293 -0.3621  0.6825
 2225TIP3   OH228233   4.651   6.254   0.682 -0.0096 -0.4689 -0.5905
 2225TIP3    H128234   4.723   6.193   0.669  0.8582  0.4779 -0.3868
 2225TIP3    H228235   4.660   6.283   0.773  0.7273  1.3108 -1.1680
 2226TIP3   OH228236   1.269   0.784   7.645  0.3276  0.2327 -0.6892
 2226TIP3    H128237   1.201   0.822   7.701 -0.1923 -2.0371  0.3874
 2226TIP3    H228238   1.334   0.749   7.707  1.6335  0.8623 -1.6530
 2227TIP3   OH228239   3.456   2.559   8.868 -0.4175  0.6049  0.3432
 2227TIP3    H128240   3.467   2.574   8.962 -1.1134  0.1722  0.5028
 2227TIP3    H228241   3.545   2.555   8.834 -0.1644  1.5581  0.8536
 2228TIP3   OH228242   0.551   0.290   8.593  0.0213  0.6256  0.1107
 2228TIP3    H128243   0.469   0.246   8.570 -0.1249  0.8967  0.1003
 2228TIP3    H228244   0.581   0.245   8.672 -0.1758  0.5671  0.1547
 2229TIP3   OH228245   5.797   2.428   0.462 -0.4679 -0.0508  0.0674
 2229TIP3    H128246   5.797   2.337   0.493 -3.1736 -0.5248 -1.0841
 2229TIP3    H228247   5.710   2.461   0.485  1.1767  3.1260  2.5786
 2230TIP3   OH228248   6.690   2.648   7.832  0.7998 -0.2617 -0.1186
 2230TIP3    H128249   6.612   2.631   7.779  1.8771  0.9588 -2.2104
 2230TIP3    H228250   6.662   2.715   7.894 -0.2113 -0.9807  0.2349
 2231TIP3   OH228251   2.036   5.301   0.018 -0.1171 -0.2613 -0.1323
 2231TIP3    H128252   2.042   5.396   0.012 -2.3065 -0.0247  0.3364
 2231TIP3    H228253   1.969   5.277  -0.046 -1.0894 -1.2059  1.1698
 2232TIP3   OH228254   4.714   0.727   2.307 -0.8652 -0.6039 -0.4959
 2232TIP3    H128255   4.649   0.766   2.366 -0.0047 -0.2121  0.2182
 2232TIP3    H228256   4.799   0.749   2.347 -0.2208  0.3670 -2.2999
 2233TIP3   OH228257   6.021   1.668   8.542  0.1335 -0.1192  0.4710
 2233TIP3    H128258   6.048   1.628   8.625  1.6556 -1.0690 -0.4301
 2233TIP3    H228259   6.039   1.761   8.554  0.1908 -0.2265  1.2687
 2234TIP3   OH228260   0.179   1.035   1.311 -0.4014  0.1069 -0.1217
 2234TIP3    H128261   0.124   1.069   1.381 -2.3624  1.3518 -2.1019
 2234TIP3    H228262   0.179   1.105   1.245  1.5422 -0.8965 -1.2865
 2235TIP3   OH228263   0.915   2.595   8.891 -0.2516  0.0604 -0.4137
 2235TIP3    H128264   1.005   2.579   8.919 -0.3895 -0.1597 -0.0995
 2235TIP3    H228265   0.912   2.689   8.874 -0.6580  0.5738  2.1248
 2236TIP3   OH228266   2.347   5.169   1.356 -0.3199 -0.3173 -0.2098
 2236TIP3    H128267   2.374   5.237   1.294 -3.1584 -0.8684 -2.2638
 2236TIP3    H228268   2.390   5.090   1.326  0.1987 -0.1288  0.0224
 2237TIP3   OH228269   6.366   3.290   1.466  0.1099 -0.1886 -0.1666
 2237TIP3    H128270   6.300   3.330   1.410  0.0120 -0.2005 -0.0593
 2237TIP3    H228271   6.416   3.232   1.407 -0.5956 -0.9336 -0.0548
 2238TIP3   OH228272   1.122   1.398   8.591  0.8684  0.3682 -0.5485
 2238TIP3    H128273   1.138   1.472   8.532  0.4756  1.4744  0.6828
 2238TIP3    H228274   1.125   1.437   8.678 -2.2228 -0.4818  0.0442
 2239TIP3   OH228275   0.717   1.497   8.257 -0.6352  0.6200 -0.1968
 2239TIP3    H128276   0.686   1.407   8.269 -0.4944  0.8670  2.6192
 2239TIP3    H228277   0.812   1.488   8.248 -0.6155  0.4688  0.1293
 2240TIP3   OH228278   6.329   6.477   2.093  0.5782 -0.0560 -0.2656
 2240TIP3    H128279   6.371   6.538   2.154 -1.4928  1.1322  0.0763
 2240TIP3    H228280   6.303   6.403   2.148  1.3945 -0.3756 -0.3050
 2241TIP3   OH228281   6.293   5.241   1.950  0.5996  0.4262  0.2440
 2241TIP3    H128282   6.295   5.146   1.938 -0.6653  0.2414  1.2395
 2241TIP3    H228283   6.299   5.277   1.862 -2.1795 -0.6824 -0.4911
 2242TIP3   OH228284   6.665   5.655   1.518  0.1503 -0.2524 -0.5084
 2242TIP3    H128285   6.748   5.648   1.471  1.0007  2.2371  0.4196
 2242TIP3    H228286   6.687   5.635   1.609  0.3159  2.4269  0.1399
 2243TIP3   OH228287   1.128   5.105   1.911  0.1487  0.0766 -0.8868
 2243TIP3    H128288   1.100   5.048   1.982 -2.1881  1.9830 -0.1640
 2243TIP3    H228289   1.191   5.165   1.951  0.1322  0.0756 -0.8597
 2244TIP3   OH228290   3.240   4.729   7.025 -0.4920  1.3338  0.1446
 2244TIP3    H128291   3.299   4.787   6.977 -0.8831  0.7407 -1.0853
 2244TIP3    H228292   3.152   4.758   6.999 -0.6998 -0.5901 -1.5205
 2245TIP3   OH228293   1.672   6.409   0.404  0.7656 -0.2884  0.3709
 2245TIP3    H128294   1.697   6.318   0.420 -2.1189 -1.4345 -0.9506
 2245TIP3    H228295   1.591   6.421   0.455  0.2587  1.0266 -0.6824
 2246TIP3   OH228296   2.019   3.148   7.094  0.0063 -0.3880  0.6386
 2246TIP3    H128297   2.059   3.099   7.023  0.1282  0.1741  0.3131
 2246TIP3    H228298   2.093   3.193   7.137 -0.2204  0.4218  0.2132
 2247TIP3   OH228299   5.432   5.237   7.283  0.1999  0.3837 -0.1477
 2247TIP3    H128300   5.336   5.242   7.289  0.3226  1.6779  2.2938
 2247TIP3    H228301   5.454   5.289   7.206 -1.0736 -0.9415 -1.4753
 2248TIP3   OH228302   1.769   4.683   2.224 -0.1464  0.3292  0.0577
 2248TIP3    H128303   1.763   4.618   2.155  0.0761 -1.1213  1.3435
 2248TIP3    H228304   1.701   4.658   2.287  0.2831  1.0244  0.8235
 2249TIP3   OH228305   1.751   0.979   0.697  0.1450 -0.4884 -0.3297
 2249TIP3    H128306   1.767   0.944   0.609 -0.0590 -0.0005 -0.5600
 2249TIP3    H228307   1.690   0.917   0.737 -0.9752  0.1105 -1.0817
 2250TIP3   OH228308   2.945   6.274   8.328  0.4853  0.0301 -0.3612
 2250TIP3    H128309   2.895   6.244   8.252 -0.0336 -0.5626  0.1973
 2250TIP3    H228310   2.973   6.362   8.305 -2.4880  1.2206  0.0195
 2251TIP3   OH228311   2.168   2.283   0.211 -0.3117 -0.3338 -0.0627
 2251TIP3    H128312   2.197   2.354   0.155 -0.3723 -1.4018 -1.5163
 2251TIP3    H228313   2.152   2.210   0.151  0.0123 -1.6611  1.3904
 2252TIP3   OH228314   2.265   0.294   1.410 -0.1653  0.3120  0.0140
 2252TIP3    H128315   2.240   0.208   1.442  0.3643 -0.5347 -1.7091
 2252TIP3    H228316   2.360   0.298   1.424 -0.0306  0.1913 -0.7788
 2253TIP3   OH228317   1.863   2.913   8.061 -0.2440 -0.1916  0.0819
 2253TIP3    H128318   1.771   2.887   8.054 -0.8080  1.4511  0.6989
 2253TIP3    H228319   1.893   2.873   8.143 -1.1059  1.0690  1.0536
 2254TIP3   OH228320   5.055   1.613   2.310 -0.5959 -0.6415 -0.2854
 2254TIP3    H128321   5.138   1.603   2.265  0.1513  1.7301  0.3887
 2254TIP3    H228322   5.049   1.538   2.369  1.1802 -0.7398 -0.1982
 2255TIP3   OH228323   6.656   5.939   1.664  0.4254  0.0579 -0.0992
 2255TIP3    H128324   6.676   5.846   1.656 -0.7274 -0.1030 -1.4305
 2255TIP3    H228325   6.741   5.981   1.678  0.9643 -1.1711  0.4693
 2256TIP3   OH228326   2.107   1.068   2.088 -0.4925 -0.0368 -0.0561
 2256TIP3    H128327   2.012   1.064   2.097 -0.4047 -3.4665  0.4402
 2256TIP3    H228328   2.138   1.092   2.176 -0.8481  1.4815 -0.3143
 2257TIP3   OH228329   4.409   1.122   0.042  0.5098  0.3035  0.2139
 2257TIP3    H128330   4.375   1.053   0.099  0.5838 -1.3337 -1.6287
 2257TIP3    H228331   4.451   1.184   0.102  1.0075 -1.5600  1.9046
 2258TIP3   OH228332   3.717   1.848   1.356 -0.1876  0.4252  0.4934
 2258TIP3    H128333   3.737   1.758   1.331  1.0672  1.1386 -1.2253
 2258TIP3    H228334   3.722   1.847   1.452 -0.7898 -1.4474  0.5401
 2259TIP3   OH228335   2.975   2.548   7.978 -0.2426  0.2721  0.2913
 2259TIP3    H128336   3.055   2.563   7.927  0.5782  1.7823  1.9226
 2259TIP3    H228337   2.906   2.588   7.925  0.0504 -0.9532 -1.0893
 2260TIP3   OH228338   1.197   3.538   8.540 -0.6196 -0.1445  0.4260
 2260TIP3    H128339   1.122   3.483   8.516 -0.0141 -0.9626  0.3992
 2260TIP3    H228340   1.195   3.609   8.475 -0.7074 -0.7675 -0.2697
 2261TIP3   OH228341   3.144   6.651   0.781 -0.6501  0.3364 -0.0035
 2261TIP3    H128342   3.144   6.720   0.847 -0.1189  0.6661 -0.3472
 2261TIP3    H228343   3.233   6.650   0.746 -0.8579  0.0033 -0.5448
 2262TIP3   OH228344   4.217   2.274   8.055 -0.2320 -0.1272 -0.4665
 2262TIP3    H128345   4.228   2.267   8.149 -0.3973  2.2969 -0.1987
 2262TIP3    H228346   4.228   2.184   8.022 -0.4498 -1.0631  1.8520
 2263TIP3   OH228347   6.714   2.467   2.288  0.2626 -0.1604 -0.4830
 2263TIP3    H128348   6.698   2.552   2.248  1.2520  0.4022  0.2766
 2263TIP3    H228349   6.699   2.404   2.218 -1.0084  0.5912 -0.9120
 2264TIP3   OH228350   0.865   1.039   8.193  0.3003  0.6515 -0.1124
 2264TIP3    H128351   0.794   1.005   8.138 -1.7642  2.0490  1.5344
 2264TIP3    H228352   0.912   0.961   8.223 -0.4776 -0.3084 -1.3106
 2265TIP3   OH228353   3.688   4.844   7.569 -0.6657 -0.1994 -0.0442
 2265TIP3    H128354   3.630   4.790   7.623  2.1259 -1.8373  1.5863
 2265TIP3    H228355   3.651   4.932   7.574 -1.0210 -0.3966  4.0597
 2266TIP3   OH228356   5.346   0.177   2.253 -0.2470 -0.4510  0.0614
 2266TIP3    H128357   5.362   0.270   2.240  2.1527 -0.6627  1.0834
 2266TIP3    H228358   5.282   0.154   2.186 -3.0419  2.4425  1.4680
 2267TIP3   OH228359   5.224   1.060   7.884  0.4427  0.0917  0.3926
 2267TIP3    H128360   5.224   1.146   7.843  1.4028 -0.7889 -1.6510
 2267TIP3    H228361   5.316   1.043   7.904  1.0592 -2.1153 -3.3089
 2268TIP3   OH228362   5.077   2.422   7.595  0.2429  0.0170 -0.3238
 2268TIP3    H128363   5.095   2.335   7.630 -1.2805 -0.5952 -0.9642
 2268TIP3    H228364   5.163   2.457   7.572  0.8917 -1.2603  0.0749
 2269TIP3   OH228365   0.753   2.522   8.675  0.3016  0.3787  0.2687
 2269TIP3    H128366   0.815   2.521   8.748 -1.1885  1.8774  1.6700
 2269TIP3    H228367   0.773   2.602   8.627  0.0130  0.4369  0.2396
 2270TIP3   OH228368   3.878   4.586   0.236  0.5180 -0.3167 -0.5954
 2270TIP3    H128369   3.903   4.673   0.265 -2.4942  0.3082  0.4772
 2270TIP3    H228370   3.850   4.598   0.145 -0.1545 -0.0759 -0.3633
 2271TIP3   OH228371   3.306   0.589   2.938 -0.3725  0.0669 -0.4063
 2271TIP3    H128372   3.332   0.530   3.009 -1.0619 -0.3996 -0.5280
 2271TIP3    H228373   3.225   0.629   2.969  0.9972  2.3812  0.4648
 2272TIP3   OH228374   0.681   2.233   7.495  0.0971  0.2835  0.8299
 2272TIP3    H128375   0.594   2.258   7.465 -0.1994  0.5038  1.8194
 2272TIP3    H228376   0.722   2.191   7.419 -0.9855 -0.1152  0.4449
 2273TIP3   OH228377   4.342   4.538   8.909 -0.1403  0.0617  0.3018
 2273TIP3    H128378   4.385   4.546   8.994  1.0010 -1.2313 -0.1137
 2273TIP3    H228379   4.270   4.600   8.912 -1.3890 -1.3708  2.9860
 2274TIP3   OH228380   1.205   2.042   6.695 -0.3864  0.4314  0.8539
 2274TIP3    H128381   1.219   2.137   6.687  0.1318  0.3123  0.2606
 2274TIP3    H228382   1.290   2.008   6.723 -0.7868  0.2251  1.8680
 2275TIP3   OH228383   3.094   2.548   7.518 -0.2263 -0.2090 -0.1629
 2275TIP3    H128384   3.146   2.542   7.438  0.7520 -1.6067  0.5458
 2275TIP3    H228385   3.039   2.625   7.505  0.7181  0.2425 -1.7052
 2276TIP3   OH228386   5.405   3.027   1.806 -0.7856  0.0588  0.2074
 2276TIP3    H128387   5.475   2.966   1.829 -1.2435 -0.5648 -0.0116
 2276TIP3    H228388   5.437   3.074   1.730 -0.6152 -0.2484  0.0893
 2277TIP3   OH228389   2.159   0.769   2.723 -0.0476 -0.1463 -0.6266
 2277TIP3    H128390   2.244   0.728   2.744  0.2189 -0.5768 -2.3851
 2277TIP3    H228391   2.116   0.778   2.808  1.7113 -0.0113  0.3115
 2278TIP3   OH228392   3.463   5.262   8.732  0.1429 -0.2402 -0.3203
 2278TIP3    H128393   3.521   5.222   8.667  0.8529  0.3119 -0.0468
 2278TIP3    H228394   3.375   5.231   8.709  0.5878 -1.4123 -0.5082
 2279TIP3   OH228395   3.446   5.500   7.484  0.2260 -0.1109  0.0426
 2279TIP3    H128396   3.511   5.562   7.516 -1.4258  1.0098  1.4193
 2279TIP3    H228397   3.362   5.537   7.513 -0.8429 -2.9649  0.9142
 2280TIP3   OH228398   4.558   6.108   7.491 -0.5067 -0.1055  0.3352
 2280TIP3    H128399   4.622   6.176   7.470  0.0248 -0.4829  0.6996
 2280TIP3    H228400   4.511   6.093   7.409 -0.0817  0.1290  0.0446
 2281TIP3   OH228401   0.069   2.420   1.122 -0.3675 -0.3127 -0.2050
 2281TIP3    H128402   0.019   2.338   1.129  0.4216 -0.8471 -0.6435
 2281TIP3    H228403   0.063   2.459   1.209 -2.1539  0.0119 -0.4331
 2282TIP3   OH228404   5.131   0.631   1.141  0.0460  0.8728 -0.4333
 2282TIP3    H128405   5.117   0.607   1.049  0.2857  0.7742 -0.4455
 2282TIP3    H228406   5.043   0.651   1.174 -0.3510 -1.2976 -0.0553
 2283TIP3   OH228407   6.519   0.372   0.632  0.4579 -0.5594  0.1730
 2283TIP3    H128408   6.459   0.432   0.676  0.6218 -0.0438 -0.2906
 2283TIP3    H228409   6.538   0.414   0.548  1.0539 -0.9649  0.0946
 2284TIP3   OH228410   5.717   1.686   1.199  0.1920  0.5544 -0.6192
 2284TIP3    H128411   5.803   1.683   1.157  1.6138  0.3202  2.1197
 2284TIP3    H228412   5.732   1.733   1.281 -2.0263 -0.6110  0.5325
 2285TIP3   OH228413   5.480   3.672   7.002 -0.6393  0.0937 -0.3796
 2285TIP3    H128414   5.429   3.730   7.059 -1.0959 -0.2101 -0.4683
 2285TIP3    H228415   5.532   3.619   7.063 -1.4983 -0.5757 -0.2016
 2286TIP3   OH228416   0.048   1.729   7.411 -0.1876  0.0246 -0.1394
 2286TIP3    H128417   0.128   1.770   7.445  0.5903  0.0208 -1.8860
 2286TIP3    H228418  -0.019   1.751   7.476  1.3283 -0.5033  1.7054
 2287TIP3   OH228419   6.165   2.158   7.768 -0.0945  0.3222  0.1345
 2287TIP3    H128420   6.155   2.253   7.770 -0.8577  0.2595 -0.6243
 2287TIP3    H228421   6.248   2.143   7.814 -0.4933  1.2705  1.2229
 2288TIP3   OH228422   2.773   2.667   7.864 -0.4984  0.6419 -0.8771
 2288TIP3    H128423   2.715   2.709   7.928 -1.6158 -1.5284 -0.3893
 2288TIP3    H228424   2.713   2.626   7.802  0.3510 -2.8567  0.4039
 2289TIP3   OH228425   2.193   2.763   0.983 -0.1699 -0.4396  0.3908
 2289TIP3    H128426   2.225   2.818   0.911  0.4818 -1.2649  0.0318
 2289TIP3    H228427   2.173   2.825   1.053 -0.8234  0.3845 -0.4947
 2290TIP3   OH228428   3.403   1.645   2.118 -0.0289  0.2581 -0.2731
 2290TIP3    H128429   3.316   1.625   2.154  1.2900 -2.3575  1.8038
 2290TIP3    H228430   3.407   1.740   2.117 -2.2879  0.4625  1.2119
 2291TIP3   OH228431   5.945   3.759   7.393 -0.4813  0.5883 -0.0927
 2291TIP3    H128432   6.018   3.818   7.376 -0.1109  0.0878 -0.2452
 2291TIP3    H228433   5.925   3.720   7.308 -0.7529  0.5284 -0.0025
 2292TIP3   OH228434   3.199   4.145   0.642 -0.7200  0.1296  0.4227
 2292TIP3    H128435   3.188   4.217   0.704  1.5129  1.6624 -0.8700
 2292TIP3    H228436   3.118   4.145   0.591  0.2076  3.5419 -1.2977
 2293TIP3   OH228437   0.046   0.070   1.603  0.5736  0.1362  0.0045
 2293TIP3    H128438   0.029   0.015   1.680 -0.0306  0.5455  0.1671
 2293TIP3    H228439  -0.004   0.029   1.533  1.0605 -0.1903 -0.1585
 2294TIP3   OH228440   4.482   0.477   7.275 -0.4672  0.2462 -0.4606
 2294TIP3    H128441   4.444   0.540   7.336 -0.1988  1.3376 -1.3909
 2294TIP3    H228442   4.555   0.524   7.234 -0.3193 -0.6325 -1.2377
 2295TIP3   OH228443   5.227   2.216   7.347 -0.6267  0.0343 -0.2395
 2295TIP3    H128444   5.228   2.154   7.420  1.5524  1.8344  1.4292
 2295TIP3    H228445   5.218   2.162   7.269 -1.4706 -2.1062  1.2520
 2296TIP3   OH228446   3.171   2.703   0.235  0.0992  0.7046  0.8195
 2296TIP3    H128447   3.206   2.745   0.156  2.3149 -1.9506  0.2609
 2296TIP3    H228448   3.214   2.749   0.307 -0.8317  2.1608  0.5164
 2297TIP3   OH228449   1.253   1.653   6.934 -0.0390  0.0996  0.3956
 2297TIP3    H128450   1.318   1.586   6.911  0.3762  0.2724  1.0418
 2297TIP3    H228451   1.295   1.736   6.912  0.3324  0.2654  1.6512
 2298TIP3   OH228452   0.575   0.350   3.034 -0.4101  0.4788  0.2374
 2298TIP3    H128453   0.508   0.285   3.054  0.4395 -0.8440 -1.0555
 2298TIP3    H228454   0.570   0.361   2.939  1.0029  0.5769  0.1613
 2299TIP3   OH228455   4.673   6.276   0.951 -0.6015 -0.1124  0.2434
 2299TIP3    H128456   4.713   6.191   0.970 -1.2846 -0.1600  1.6680
 2299TIP3    H228457   4.728   6.340   0.997 -0.0150  0.2539 -0.9267
 2300TIP3   OH228458   1.589   6.068   7.675  0.0072 -0.5313  0.0597
 2300TIP3    H128459   1.677   6.077   7.712 -0.1050  1.8290 -0.1102
 2300TIP3    H228460   1.541   6.142   7.710 -0.4169  1.3040 -3.8759
 2301TIP3   OH228461   0.732   4.442   7.637  0.2626  0.3281 -0.1889
 2301TIP3    H128462   0.760   4.409   7.551 -0.8881  0.4841 -0.6471
 2301TIP3    H228463   0.638   4.423   7.640  0.7998 -2.5896  2.3951
 2302TIP3   OH228464   0.773   3.303   1.502 -0.1803  0.1713 -0.2850
 2302TIP3    H128465   0.742   3.230   1.557  1.0009 -1.2154 -1.3854
 2302TIP3    H228466   0.796   3.371   1.565 -1.6018 -0.2681  0.7687
 2303TIP3   OH228467   2.031   0.025   7.774  0.0068  0.0732 -0.2400
 2303TIP3    H128468   2.066   0.031   7.863 -2.4949 -2.0112  1.0103
 2303TIP3    H228469   2.077  -0.050   7.735 -0.1287 -0.1135 -0.0464
 2304TIP3   OH228470   5.839   1.969   8.361  0.0421  0.1222  0.0940
 2304TIP3    H128471   5.883   1.966   8.446 -2.1576  0.3957  1.3179
 2304TIP3    H228472   5.798   2.055   8.358 -1.5636 -0.6238 -0.3615
 2305TIP3   OH228473   1.103   2.435   2.247  0.1892 -0.2236  0.1865
 2305TIP3    H128474   1.055   2.403   2.324  0.4762 -0.1998  0.3755
 2305TIP3    H228475   1.048   2.409   2.173 -0.2330  0.0103  0.4143
 2306TIP3   OH228476   1.753   5.810   0.238  0.1195  0.3469 -0.2123
 2306TIP3    H128477   1.761   5.741   0.172  0.6025 -0.2509  0.4533
 2306TIP3    H228478   1.815   5.877   0.210  1.7132 -0.7222  0.5870
 2307TIP3   OH228479   0.789   4.824   8.418 -0.3125 -0.2580  0.5381
 2307TIP3    H128480   0.857   4.758   8.428  1.1760  1.3621  1.8999
 2307TIP3    H228481   0.715   4.778   8.379  2.0809 -1.7600 -2.6662
 2308TIP3   OH228482   6.391   0.091   2.111 -0.1144 -0.2218 -0.0935
 2308TIP3    H128483   6.401   0.163   2.049  3.2049 -0.4530  0.0100
 2308TIP3    H228484   6.452   0.112   2.182 -1.6178 -1.4658  1.6821
 2309TIP3   OH228485   5.205   1.928   0.760 -0.2584 -0.2018 -0.1741
 2309TIP3    H128486   5.242   1.903   0.675 -2.5392 -0.8768 -1.0320
 2309TIP3    H228487   5.268   1.991   0.796 -0.2951  1.8885 -3.3912
 2310TIP3   OH228488   4.980   2.430   2.163 -0.2448 -0.3029  0.4525
 2310TIP3    H128489   5.022   2.434   2.077 -2.4014 -0.6370 -0.6927
 2310TIP3    H228490   5.005   2.511   2.207 -0.7561  0.8767 -1.3338
 2311TIP3   OH228491   6.627   4.813   8.740 -0.1488  0.1591  0.0711
 2311TIP3    H128492   6.539   4.796   8.776 -0.3030  0.6891 -0.0529
 2311TIP3    H228493   6.619   4.897   8.696  0.7339  0.7774  1.0669
 2312TIP3   OH228494   1.008   0.926   6.713 -0.1986 -0.0511 -0.2905
 2312TIP3    H128495   1.006   0.889   6.801  1.7085 -0.8732 -0.5469
 2312TIP3    H228496   0.943   0.997   6.715  0.1649  0.2705  1.9174
 2313TIP3   OH228497   4.557   6.614   2.379 -0.0354  0.2804 -0.5299
 2313TIP3    H128498   4.626   6.559   2.343  1.2278  0.6165  1.2298
 2313TIP3    H228499   4.601   6.697   2.400 -0.5491 -0.0060  2.0263
 2314TIP3   OH228500   4.455   3.389   1.997 -0.0413  0.3054 -0.1134
 2314TIP3    H128501   4.484   3.350   1.915 -0.7213 -0.4818 -0.0010
 2314TIP3    H228502   4.528   3.443   2.026  0.4199  0.1401 -0.9521
 2315TIP3   OH228503   4.285   3.906   1.318  0.1108 -0.5895  0.3243
 2315TIP3    H128504   4.292   3.980   1.258  1.0385 -1.3515 -0.5528
 2315TIP3    H228505   4.371   3.900   1.360  0.5108 -1.9217 -0.5892
 2316TIP3   OH228506   0.683   5.884   8.220  0.0741 -0.5194 -0.9165
 2316TIP3    H128507   0.625   5.812   8.245  1.0897 -2.3471 -3.3666
 2316TIP3    H228508   0.633   5.963   8.237 -0.5617 -1.5900  3.4077
 2317TIP3   OH228509   4.355   5.499   2.305  0.7161  0.4602  0.7594
 2317TIP3    H128510   4.291   5.537   2.245  2.0746  2.4174  0.4922
 2317TIP3    H228511   4.315   5.416   2.332 -1.8684  1.5329  0.5095
 2318TIP3   OH228512   5.363   4.067   2.702 -0.7613  0.0874  0.4228
 2318TIP3    H128513   5.438   4.123   2.719 -0.2549  0.2844 -2.0234
 2318TIP3    H228514   5.303   4.123   2.651 -0.8024 -1.1696 -0.9800
 2319TIP3   OH228515   0.809   0.803   7.466  0.1649 -0.0941  0.0645
 2319TIP3    H128516   0.726   0.778   7.427 -0.0670  1.0400 -0.1826
 2319TIP3    H228517   0.793   0.799   7.560 -0.4043  0.8245  0.0226
 2320TIP3   OH228518   3.614   4.824   0.198  0.1328  0.3990 -0.6410
 2320TIP3    H128519   3.680   4.839   0.266  0.6020 -0.4100 -0.8962
 2320TIP3    H228520   3.584   4.912   0.173  0.3495  0.7254  0.2193
 2321TIP3   OH228521   4.696   1.515   0.113  0.3935  0.3599 -0.0944
 2321TIP3    H128522   4.667   1.572   0.042  0.0996 -1.6522 -1.6945
 2321TIP3    H228523   4.635   1.532   0.185  0.1250  1.7731 -0.6317
 2322TIP3   OH228524   2.100   2.747   7.578  0.3512 -0.6766 -0.3169
 2322TIP3    H128525   2.078   2.670   7.525 -0.5116  0.0009 -0.9562
 2322TIP3    H228526   2.189   2.770   7.551 -0.1832 -0.1654 -1.7092
 2323TIP3   OH228527   4.775   1.477   0.470  0.0168 -0.0511  0.0446
 2323TIP3    H128528   4.766   1.390   0.507  0.9273 -0.3166 -0.3069
 2323TIP3    H228529   4.798   1.533   0.544  1.6557 -0.5442 -0.0386
 2324TIP3   OH228530   4.839   3.281   1.612 -0.6319  0.3063  0.5072
 2324TIP3    H128531   4.880   3.366   1.629 -0.0752  0.1762 -0.1489
 2324TIP3    H228532   4.877   3.252   1.529 -0.8541 -0.5679  0.7020
 2325TIP3   OH228533   2.672   2.482   0.880  0.1576  0.4901 -0.1142
 2325TIP3    H128534   2.699   2.427   0.954  0.2845  0.5795 -0.0933
 2325TIP3    H228535   2.592   2.525   0.910 -0.9697 -1.0347 -0.7679
 2326TIP3   OH228536   5.456   2.824   8.698  0.0022 -0.2983  0.2054
 2326TIP3    H128537   5.520   2.778   8.644 -1.0671 -0.9294 -0.5535
 2326TIP3    H228538   5.498   2.829   8.785  1.0881 -0.6440 -0.2781
 2327TIP3   OH228539   0.341   0.591   0.967  0.3254  0.2048  0.2187
 2327TIP3    H128540   0.386   0.664   1.009 -2.2953  2.7303 -1.0214
 2327TIP3    H228541   0.304   0.541   1.039  0.8228  1.0087  1.0565
 2328TIP3   OH228542   5.634   5.435   2.058  0.1512  0.0696 -0.0266
 2328TIP3    H128543   5.584   5.513   2.081  0.3882  0.0789  0.4773
 2328TIP3    H228544   5.695   5.465   1.990 -0.8827 -0.0696 -1.0494
 2329TIP3   OH228545   1.502   4.975   7.897 -0.1218  0.2305 -0.1940
 2329TIP3    H128546   1.423   4.992   7.949 -2.9660 -1.6388 -3.4340
 2329TIP3    H228547   1.476   4.996   7.807  4.1782  2.4743 -1.1895
 2330TIP3   OH228548   1.124   1.115   7.823 -0.0133  0.2743 -0.5500
 2330TIP3    H128549   1.029   1.122   7.821 -0.0523 -0.3033 -1.9889
 2330TIP3    H228550   1.150   1.112   7.731  1.5264  1.8701 -0.2211
 2331TIP3   OH228551   1.681   3.827   8.322 -0.1342  0.0043 -0.0203
 2331TIP3    H128552   1.668   3.733   8.335 -0.6834  0.4259  3.0905
 2331TIP3    H228553   1.598   3.866   8.348  1.2425  1.5594  2.3443
 2332TIP3   OH228554   2.171   3.840   7.078  0.4104  0.1194  0.0771
 2332TIP3    H128555   2.251   3.809   7.036  0.0533 -2.2175  0.9950
 2332TIP3    H228556   2.198   3.861   7.167  0.1183 -0.0952  0.2153
 2333TIP3   OH228557   3.053   4.954   1.053 -0.3427 -0.0291  0.1153
 2333TIP3    H128558   3.059   4.922   1.143 -1.7342  1.3811  0.7720
 2333TIP3    H228559   3.013   4.883   1.004 -0.2056 -0.5572  0.7586
 2334TIP3   OH228560   6.765   0.841   1.501  0.5284 -0.1071 -0.5468
 2334TIP3    H128561   6.847   0.873   1.539 -0.0982  2.3508 -1.1198
 2334TIP3    H228562   6.708   0.918   1.497 -1.4871 -1.5346 -1.0796
 2335TIP3   OH228563   3.338   0.379   8.569  0.5047 -0.7855 -0.2039
 2335TIP3    H128564   3.409   0.318   8.590  1.9200 -0.0123 -2.3424
 2335TIP3    H228565   3.320   0.423   8.652  1.8625 -1.6838  0.6286
 2336TIP3   OH228566   1.968   0.744   1.344  0.2229 -0.0198  0.9289
 2336TIP3    H128567   2.015   0.688   1.282 -1.0977 -0.4036  0.2251
 2336TIP3    H228568   1.994   0.833   1.320  0.1810 -0.1986  0.1799
 2337TIP3   OH228569   0.250   6.729   8.866 -0.1749  0.2010 -0.0074
 2337TIP3    H128570   0.328   6.713   8.919  1.1613 -2.0746 -2.4438
 2337TIP3    H228571   0.177   6.696   8.920  1.0516 -1.5439  0.6635
 2338TIP3   OH228572   4.154   6.530   3.056  0.1683  0.3210  0.5492
 2338TIP3    H128573   4.134   6.567   3.142 -1.0141  2.8752 -0.6806
 2338TIP3    H228574   4.079   6.556   3.002  0.1843 -2.4422 -0.9543
 2339TIP3   OH228575   1.106   2.303   1.870  0.8582 -0.3967  0.0732
 2339TIP3    H128576   1.051   2.276   1.943 -1.6485  1.7211 -0.9157
 2339TIP3    H228577   1.179   2.349   1.911  1.1292 -1.8646  1.3362
 2340TIP3   OH228578   3.957   5.781   8.169 -0.2900 -0.4126  0.6988
 2340TIP3    H128579   4.023   5.801   8.235  0.3701  1.3301 -0.4200
 2340TIP3    H228580   4.006   5.768   8.088 -1.2166 -0.5797  0.1416
 2341TIP3   OH228581   0.092   3.280   1.794  0.4234  0.2381  0.0556
 2341TIP3    H128582   0.162   3.215   1.794  0.2728  0.0633 -0.6398
 2341TIP3    H228583   0.039   3.258   1.718 -0.2231  0.5505  0.4098
 2342TIP3   OH228584   1.957   4.455   0.596  0.1178  0.4026  0.5152
 2342TIP3    H128585   1.983   4.547   0.600  0.2450  0.4332 -0.7089
 2342TIP3    H228586   1.880   4.449   0.653 -1.7080  1.9201 -1.6079
 2343TIP3   OH228587   1.639   6.570   1.216  0.4489 -0.1205 -0.2655
 2343TIP3    H128588   1.670   6.574   1.125  0.2499 -0.8012 -0.3690
 2343TIP3    H228589   1.650   6.478   1.241  2.3266  0.3980  1.0514
 2344TIP3   OH228590   6.731   4.074   0.359  0.0415 -0.3407 -0.7511
 2344TIP3    H128591   6.757   4.166   0.361  2.9331 -1.0348 -0.8394
 2344TIP3    H228592   6.657   4.070   0.299  1.1501  1.6667 -2.3510
 2345TIP3   OH228593   4.632   6.692   0.652  0.4623  0.0766 -0.6385
 2345TIP3    H128594   4.663   6.767   0.600  0.8089  0.4655  0.1136
 2345TIP3    H228595   4.700   6.678   0.718 -0.9633  1.0230  1.1318
 2346TIP3   OH228596   0.427   0.629   1.489 -1.0429  0.0920  1.1084
 2346TIP3    H128597   0.442   0.690   1.417 -0.2397 -0.2262  0.9966
 2346TIP3    H228598   0.341   0.591   1.471 -0.7364 -0.1786  0.1773
 2347TIP3   OH228599   2.327   0.139   0.263 -0.0957  0.3057 -0.1494
 2347TIP3    H128600   2.334   0.188   0.180  0.7960  0.0656 -0.2204
 2347TIP3    H228601   2.255   0.078   0.248 -0.0775  0.4058 -0.6776
 2348TIP3   OH228602   0.289   6.474   0.719 -0.0119  0.0488  0.2343
 2348TIP3    H128603   0.215   6.413   0.711  1.2390 -1.8033  1.7535
 2348TIP3    H228604   0.341   6.457   0.640 -0.3577  0.1497 -0.0198
 2349TIP3   OH228605   0.035   6.713   8.481  0.1054 -0.1855 -0.4446
 2349TIP3    H128606   0.122   6.707   8.521 -0.3574 -0.7203  0.5197
 2349TIP3    H228607  -0.026   6.700   8.554 -0.7753 -1.3533 -1.3517
 2350TIP3   OH228608   0.152   2.526   8.851 -0.0528 -0.3720  0.2282
 2350TIP3    H128609   0.141   2.432   8.832  1.4683 -1.3203  3.3531
 2350TIP3    H228610   0.224   2.529   8.915  0.1551  2.9853 -0.0330
 2351TIP3   OH228611   6.394   3.118   2.036 -0.0893  0.3278  0.0735
 2351TIP3    H128612   6.314   3.068   2.054 -0.4895  1.2021  0.7617
 2351TIP3    H228613   6.379   3.203   2.076  0.7049  0.9165 -0.8299
 2352TIP3   OH228614   4.787   5.256   2.240  0.0291 -0.1974 -0.3445
 2352TIP3    H128615   4.862   5.281   2.295  0.6511  0.1626 -1.3372
 2352TIP3    H228616   4.720   5.229   2.303  0.6230  0.4785  0.6176
 2353TIP3   OH228617   4.954   0.398   2.236 -0.2126  0.4266 -0.3147
 2353TIP3    H128618   4.902   0.459   2.183 -0.7321  0.5520  0.3304
 2353TIP3    H228619   4.984   0.450   2.310 -0.1690  0.0443 -0.0629
 2354TIP3   OH228620   4.342   1.680   8.142 -0.1267 -0.0051 -0.1352
 2354TIP3    H128621   4.341   1.700   8.048  1.8252 -2.3220 -0.7408
 2354TIP3    H228622   4.395   1.750   8.180 -0.1484  0.4557 -0.9166
 2355TIP3   OH228623   1.184   1.026   1.559 -0.0589 -0.4108  0.0224
 2355TIP3    H128624   1.180   1.108   1.510  0.7278  0.1420  0.8673
 2355TIP3    H228625   1.208   1.052   1.648  1.2208 -1.6334  0.0660
 2356TIP3   OH228626   2.207   2.936   8.504 -0.6958  0.1055 -0.3441
 2356TIP3    H128627   2.214   3.029   8.523 -0.1791  0.1238 -0.6047
 2356TIP3    H228628   2.170   2.898   8.584 -1.9652  0.6798 -0.6375
 2357TIP3   OH228629   2.424   4.231   0.811 -0.5403 -0.3190  0.1604
 2357TIP3    H128630   2.421   4.324   0.787 -1.1667 -0.2403  0.5174
 2357TIP3    H228631   2.403   4.184   0.730 -2.6392 -0.0571  0.5124
 2358TIP3   OH228632   4.275   2.191   2.196  0.0679 -0.4523 -0.1639
 2358TIP3    H128633   4.352   2.171   2.250 -0.2787  2.3699  1.5803
 2358TIP3    H228634   4.207   2.214   2.259 -1.5703 -0.8119 -1.7385
 2359TIP3   OH228635   5.660   2.035   2.704  0.2298 -0.2262 -0.2233
 2359TIP3    H128636   5.596   2.101   2.728 -0.5501 -0.5935 -1.2317
 2359TIP3    H228637   5.731   2.046   2.767 -1.2302 -0.4456  1.5198
 2360TIP3   OH228638   2.777   4.905   6.508  0.2632 -0.0386  0.4817
 2360TIP3    H128639   2.833   4.827   6.505  0.5299  0.0823  1.8408
 2360TIP3    H228640   2.837   4.978   6.502  0.1087  0.0782  0.3512
 2361TIP3   OH228641   2.542   3.594   2.450 -0.0459 -0.3066  0.0972
 2361TIP3    H128642   2.625   3.547   2.445  1.4833  2.0943  1.0175
 2361TIP3    H228643   2.523   3.601   2.543 -0.1789  0.8790  0.0079
 2362TIP3   OH228644   3.559   3.302   0.182  0.9533  0.0696 -0.9281
 2362TIP3    H128645   3.550   3.258   0.098  0.2966 -0.3728 -0.6347
 2362TIP3    H228646   3.537   3.394   0.164 -0.3869 -0.2471 -1.0113
 2363TIP3   OH228647   5.137   4.749   0.152  0.0418 -0.8168  0.3450
 2363TIP3    H128648   5.155   4.828   0.203 -0.4742 -0.6656  0.2982
 2363TIP3    H228649   5.042   4.740   0.155 -0.4534  1.1223 -3.3726
 2364TIP3   OH228650   4.903   6.492   0.613  0.0985 -0.7554 -0.2338
 2364TIP3    H128651   4.869   6.455   0.532 -1.4219 -0.7835  0.3727
 2364TIP3    H228652   4.920   6.584   0.593  0.1733 -0.8723 -0.7125
 2365TIP3   OH228653   2.708   5.735   2.326 -0.0029 -0.6980  0.2932
 2365TIP3    H128654   2.688   5.778   2.410 -0.1271  0.4308 -0.2941
 2365TIP3    H228655   2.804   5.733   2.323  0.0081 -0.3674  0.2929
 2366TIP3   OH228656   1.634   4.456   8.859  0.1669 -0.2564  0.4607
 2366TIP3    H128657   1.710   4.414   8.898 -0.7722 -1.0407  1.5316
 2366TIP3    H228658   1.584   4.383   8.821  0.2692  0.3242 -0.8172
 2367TIP3   OH228659   0.010   3.614   7.088  0.0778 -0.6597 -0.1367
 2367TIP3    H128660   0.022   3.706   7.064  1.3631 -0.6820  0.3454
 2367TIP3    H228661   0.083   3.569   7.046 -0.0116 -1.3177  0.4002
 2368TIP3   OH228662   1.599   2.599   1.832  0.2193 -0.1172  0.3360
 2368TIP3    H128663   1.599   2.564   1.921 -0.7059  0.5222  0.6002
 2368TIP3    H228664   1.514   2.641   1.822  1.0272  1.5054 -0.1802
 2369TIP3   OH228665   1.876   3.864   2.878  0.1495  0.5659  0.4420
 2369TIP3    H128666   1.831   3.859   2.793 -0.5801  0.4333  0.8257
 2369TIP3    H228667   1.968   3.876   2.856  0.1078 -0.4683 -0.3892
 2370TIP3   OH228668   4.767   5.180   1.380 -0.7474 -0.0110 -0.3515
 2370TIP3    H128669   4.713   5.104   1.361 -0.6973  0.2161 -1.5430
 2370TIP3    H228670   4.745   5.243   1.310  0.6620  0.2704 -0.5818
 2371TIP3   OH228671   5.279   2.478   0.767  0.2648  0.4860  0.9771
 2371TIP3    H128672   5.215   2.465   0.837 -1.9455  0.9755 -0.7926
 2371TIP3    H228673   5.266   2.569   0.739 -1.3033 -0.5092 -2.0634
 2372TIP3   OH228674   1.220   6.035   8.570  0.0249  0.0199  0.3090
 2372TIP3    H128675   1.298   6.022   8.624 -0.5253 -0.7650  0.9300
 2372TIP3    H228676   1.244   5.995   8.486  0.1587 -0.5950  0.6272
 2373TIP3   OH228677   1.881   3.340   1.045  0.3127  0.4205  0.5796
 2373TIP3    H128678   1.946   3.318   1.113  0.1434 -0.0612  0.5852
 2373TIP3    H228679   1.861   3.433   1.061 -0.0407  0.2021  1.4566
 2374TIP3   OH228680   6.622   2.842   7.169 -0.1201 -0.2096  0.2263
 2374TIP3    H128681   6.624   2.894   7.088  0.6344 -0.4018  0.1164
 2374TIP3    H228682   6.664   2.759   7.145  2.9895  0.8398  1.5610
 2375TIP3   OH228683   6.188   3.751   7.669 -0.2552  0.0037  0.5682
 2375TIP3    H128684   6.196   3.829   7.723 -0.0724 -0.4394  1.1919
 2375TIP3    H228685   6.159   3.784   7.584  0.0236  0.7671  0.7586
 2376TIP3   OH228686   2.406   5.035   2.506 -0.1735  0.1318 -0.1461
 2376TIP3    H128687   2.435   5.006   2.592 -0.1853 -0.4222 -0.3293
 2376TIP3    H228688   2.399   5.130   2.514  1.1933  0.2432  0.0578
 2377TIP3   OH228689   5.754   0.765   8.371  0.6605 -0.4071 -0.2315
 2377TIP3    H128690   5.758   0.694   8.434  1.6695 -0.3647 -0.2319
 2377TIP3    H228691   5.805   0.734   8.296  1.2560  0.3707 -0.1649
 2378TIP3   OH228692   1.424   2.352   7.560  0.2267  0.0274  0.0571
 2378TIP3    H128693   1.375   2.372   7.481 -1.1519  0.3054  0.9407
 2378TIP3    H228694   1.488   2.286   7.533 -1.8765 -1.7969 -0.7904
 2379TIP3   OH228695   0.759   1.697   0.954  0.2297 -0.2036 -0.1594
 2379TIP3    H128696   0.745   1.755   0.878  0.9899 -0.0407 -0.1925
 2379TIP3    H228697   0.815   1.627   0.920  2.1603  0.8669  0.6592
 2380TIP3   OH228698   3.340   4.027   7.354  0.0528 -0.2571 -0.4274
 2380TIP3    H128699   3.304   4.115   7.345 -1.2437 -0.5517  1.3827
 2380TIP3    H228700   3.328   3.988   7.268 -0.8253  0.8093 -0.8189
 2381TIP3   OH228701   1.226   1.458   8.898 -0.1456 -0.0317 -0.0709
 2381TIP3    H128702   1.149   1.406   8.919 -0.5886  0.2395 -0.9629
 2381TIP3    H228703   1.193   1.548   8.892  0.2631  0.1051 -0.3056
 2382TIP3   OH228704   3.847   0.963   7.275 -0.1667 -0.8256  1.1743
 2382TIP3    H128705   3.846   1.026   7.347 -0.8953 -0.5406  0.9297
 2382TIP3    H228706   3.773   0.989   7.220 -0.3703 -1.7911  0.9777
 2383TIP3   OH228707   6.395   4.681   0.250 -0.7511  0.4234  0.0400
 2383TIP3    H128708   6.392   4.766   0.206  0.2292  0.1148 -0.6462
 2383TIP3    H228709   6.470   4.687   0.308  0.1918 -0.4469 -1.0469
 2384TIP3   OH228710   1.878   0.294   7.637 -0.8153 -0.1334  0.2142
 2384TIP3    H128711   1.945   0.304   7.704 -2.1210  2.9511  1.2551
 2384TIP3    H228712   1.806   0.249   7.683 -0.3961 -1.2657 -0.2080
 2385TIP3   OH228713   4.925   1.746   2.099  0.1174 -0.0338  0.3288
 2385TIP3    H128714   4.863   1.682   2.064 -0.1254  0.4281 -0.1105
 2385TIP3    H228715   4.971   1.700   2.169 -1.2483 -0.1695  1.1854
 2386TIP3   OH228716   0.826   6.157   0.400  0.2108 -0.0220  0.1437
 2386TIP3    H128717   0.863   6.102   0.469  0.2327 -0.0583  0.1030
 2386TIP3    H228718   0.876   6.238   0.403  1.3890 -0.6601 -0.9650
 2387TIP3   OH228719   0.829   6.399   1.475 -0.2052 -0.2414 -0.0631
 2387TIP3    H128720   0.811   6.377   1.567 -0.0205  0.6012  0.1902
 2387TIP3    H228721   0.748   6.438   1.443 -0.3485 -0.7553 -0.3373
 2388TIP3   OH228722   6.316   2.559   0.593  0.9424  0.0668 -0.3348
 2388TIP3    H128723   6.298   2.640   0.546  1.2574  0.5858  0.4107
 2388TIP3    H228724   6.252   2.496   0.560 -1.1592  1.3711  1.0191
 2389TIP3   OH228725   6.635   4.019   8.783 -0.0277  0.0042  0.0458
 2389TIP3    H128726   6.662   4.088   8.723  0.2104  1.7700  2.0396
 2389TIP3    H228727   6.552   3.987   8.747  0.0270  1.0987 -1.1134
 2390TIP3   OH228728   5.691   5.461   8.088 -0.1752 -0.2052  0.0862
 2390TIP3    H128729   5.697   5.410   8.168 -1.4150 -0.0236  0.3211
 2390TIP3    H228730   5.598   5.481   8.079  0.1727  1.4416 -0.3454
 2391TIP3   OH228731   5.021   5.797   7.771  0.0890  0.1694 -0.5311
 2391TIP3    H128732   5.050   5.830   7.686 -0.3448 -0.4147 -0.9161
 2391TIP3    H228733   5.101   5.772   7.816  0.6263  3.3784  0.5160
 2392TIP3   OH228734   3.711   2.735   8.858 -0.1239 -0.0457  0.3652
 2392TIP3    H128735   3.795   2.781   8.853 -0.4333  0.4613 -0.2520
 2392TIP3    H228736   3.661   2.767   8.783  0.2407 -2.5664 -1.0633
 2393TIP3   OH228737   0.782   0.924   2.415 -0.5359  0.1855  0.2621
 2393TIP3    H128738   0.758   0.837   2.385 -1.4520  0.4994  0.0477
 2393TIP3    H228739   0.868   0.913   2.455  0.2629 -0.4549 -1.5236
 2394TIP3   OH228740   0.314   2.950   2.352 -0.0829  0.1187  0.2307
 2394TIP3    H128741   0.220   2.953   2.371 -0.7239  1.2707 -2.5586
 2394TIP3    H228742   0.321   2.891   2.277  1.5017 -0.2826  0.6580
 2395TIP3   OH228743   6.082   2.081   1.758  0.1218 -0.1893  0.3106
 2395TIP3    H128744   6.030   2.052   1.833 -0.2911 -1.2683 -0.3714
 2395TIP3    H228745   6.167   2.039   1.771 -0.4338 -1.6724 -0.6062
 2396TIP3   OH228746   4.931   4.761   8.787  0.1842 -0.4790  0.1413
 2396TIP3    H128747   5.020   4.793   8.774 -0.3704  0.8721 -0.5418
 2396TIP3    H228748   4.876   4.820   8.735 -1.1845 -0.8083  1.1481
 2397TIP3   OH228749   3.610   3.718   0.838  1.0015 -0.5967 -0.3607
 2397TIP3    H128750   3.687   3.690   0.789  0.8465  0.4396 -1.2237
 2397TIP3    H228751   3.545   3.738   0.771  0.8793  1.1663  0.2298
 2398TIP3   OH228752   0.604   1.382   1.293 -0.2379  0.2258 -0.3379
 2398TIP3    H128753   0.656   1.402   1.371 -0.4296 -0.9703  0.1180
 2398TIP3    H228754   0.650   1.309   1.251 -0.8569 -0.0070 -0.6259
 2399TIP3   OH228755   4.034   4.324   0.345  0.4092  0.1057  0.1434
 2399TIP3    H128756   4.003   4.343   0.257 -0.5600  0.3959  0.5361
 2399TIP3    H228757   3.998   4.393   0.400  0.1144 -0.6525  0.9415
 2400TIP3   OH228758   0.025   4.998   7.320  0.2445 -0.1632  0.0914
 2400TIP3    H128759  -0.047   5.060   7.315  0.7635  0.4230 -0.3151
 2400TIP3    H228760   0.061   4.996   7.232  0.3451 -0.9143  0.1468
 2401TIP3   OH228761   6.681   1.481   8.628 -0.3762 -0.1250 -0.1258
 2401TIP3    H128762   6.739   1.413   8.663 -0.2288 -0.1834 -0.4871
 2401TIP3    H228763   6.635   1.439   8.556  1.6780  0.8963 -2.1762
 2402TIP3   OH228764   4.266   6.168   7.992  0.3487 -0.5014 -0.0796
 2402TIP3    H128765   4.245   6.127   7.908 -1.1944 -0.8949  0.4577
 2402TIP3    H228766   4.212   6.248   7.993  2.4069  0.9757 -0.5975
 2403TIP3   OH228767   6.427   2.563   1.323  0.4700 -0.6304  0.2409
 2403TIP3    H128768   6.467   2.527   1.402  0.1972 -0.0282  0.6659
 2403TIP3    H228769   6.350   2.612   1.355  0.0435 -0.8344 -0.4479
 2404TIP3   OH228770   6.590   2.528   0.631 -0.0799 -0.0328 -0.0422
 2404TIP3    H128771   6.603   2.541   0.725 -1.0034 -1.1302  0.2682
 2404TIP3    H228772   6.495   2.530   0.620  0.0500  2.5986 -1.3712
 2405TIP3   OH228773   4.734   0.219   7.263 -0.9408 -0.1706  0.1417
 2405TIP3    H128774   4.709   0.238   7.173 -0.8810  2.1589  0.5463
 2405TIP3    H228775   4.818   0.263   7.274 -1.2201  0.0823  1.4856
 2406TIP3   OH228776   5.336   3.183   8.931 -0.0734  0.1941  0.3291
 2406TIP3    H128777   5.353   3.268   8.892 -1.2401  1.0677  1.6199
 2406TIP3    H228778   5.417   3.160   8.977  0.0632  0.8859  0.4413
 2407TIP3   OH228779   5.624   2.897   0.211  0.3609 -0.3302  0.4946
 2407TIP3    H128780   5.631   2.870   0.303 -1.1724 -0.8455  0.4918
 2407TIP3    H228781   5.618   2.993   0.215  2.8139 -0.1383  0.7214
 2408TIP3   OH228782   6.291   3.972   1.398 -0.5661 -0.6414  0.1282
 2408TIP3    H128783   6.210   3.933   1.365 -1.3379  0.3034  0.8352
 2408TIP3    H228784   6.272   3.994   1.489  0.4909 -0.4070  0.3075
 2409TIP3   OH228785   3.756   2.302   7.404  0.1812  0.6259  0.2643
 2409TIP3    H128786   3.840   2.329   7.440  0.6791 -1.2411  0.6038
 2409TIP3    H228787   3.778   2.235   7.339 -1.0574 -1.1349  1.5347
 2410TIP3   OH228788   5.177   2.392   1.224  0.2891  0.5815 -0.3246
 2410TIP3    H128789   5.149   2.461   1.164  2.5779  0.8601 -1.1738
 2410TIP3    H228790   5.151   2.424   1.310 -3.3748  0.0205 -1.0458
 2411TIP3   OH228791   0.942   1.731   8.045  0.3729 -0.5646  0.2986
 2411TIP3    H128792   0.982   1.668   8.105  1.9494  0.3203  0.2401
 2411TIP3    H228793   0.984   1.814   8.066  0.3241 -0.0584 -1.4317
 2412TIP3   OH228794   1.721   5.602   2.067 -0.0043 -0.4167 -0.7152
 2412TIP3    H128795   1.666   5.524   2.056 -0.4163 -0.6859  2.2827
 2412TIP3    H228796   1.754   5.621   1.979  2.6251 -5.7813 -1.3136
 2413TIP3   OH228797   2.395   2.557   0.948  0.0464 -0.0412  0.3634
 2413TIP3    H128798   2.383   2.568   0.854  0.0430  0.3908  0.4104
 2413TIP3    H228799   2.324   2.609   0.987  0.0933 -0.1573  0.6029
 2414TIP3   OH228800   3.964   3.696   0.199 -0.3510 -0.4702 -0.1557
 2414TIP3    H128801   3.878   3.736   0.187  0.0498  0.0413 -1.4828
 2414TIP3    H228802   3.952   3.635   0.272 -1.8136 -0.3536 -0.2740
 2415TIP3   OH228803   3.287   4.308   7.315  0.3650  0.4404  0.3520
 2415TIP3    H128804   3.379   4.317   7.290  0.6662 -0.1736  1.1650
 2415TIP3    H228805   3.241   4.372   7.262  1.2145  0.4788 -0.3599
 2416TIP3   OH228806   6.561   1.784   7.933 -0.3415  0.2817 -0.2308
 2416TIP3    H128807   6.605   1.786   7.848  2.0840  2.0204  0.9593
 2416TIP3    H228808   6.530   1.873   7.946 -2.4181 -0.4176 -0.0789
 2417TIP3   OH228809   3.608   3.652   8.046  0.0397 -0.1100 -0.4366
 2417TIP3    H128810   3.657   3.608   7.976 -0.0449 -1.1906  0.1668
 2417TIP3    H228811   3.516   3.634   8.025  0.0363 -1.0074  0.3057
 2418TIP3   OH228812   6.037   5.486   0.519  0.7470 -0.0976 -0.4249
 2418TIP3    H128813   6.126   5.509   0.547  0.0135  2.7004  0.0203
 2418TIP3    H228814   6.001   5.569   0.488 -1.7370 -1.1348 -0.4971
 2419TIP3   OH228815   3.090   5.449   7.940  0.1083 -0.0513  0.0705
 2419TIP3    H128816   3.147   5.405   8.003 -0.6437  0.0850  0.8695
 2419TIP3    H228817   3.034   5.380   7.905  0.5382 -0.1306 -0.4803
 2420TIP3   OH228818   1.325   3.984   0.977  0.0737 -0.1438 -0.3906
 2420TIP3    H128819   1.367   4.043   1.039 -0.2339  0.4484 -0.7421
 2420TIP3    H228820   1.354   4.015   0.891  1.4532 -1.6710 -0.5317
 2421TIP3   OH228821   2.681   0.709   2.484  0.1328 -0.1987  0.1944
 2421TIP3    H128822   2.746   0.748   2.543  0.5202 -0.9257  0.2655
 2421TIP3    H228823   2.730   0.642   2.436 -0.1869  0.3362 -0.9179
 2422TIP3   OH228824   5.945   6.200   0.099  0.5340  0.3336  0.0968
 2422TIP3    H128825   5.859   6.239   0.116  0.4454  1.4406 -2.4775
 2422TIP3    H228826   5.928   6.133   0.033  1.4990 -0.2999  0.4681
 2423TIP3   OH228827   0.547   6.296   0.163  0.2248  0.0975 -0.2146
 2423TIP3    H128828   0.627   6.344   0.142 -1.4989  2.4080 -2.0614
 2423TIP3    H228829   0.476   6.354   0.135 -2.2549 -0.5923  3.8227
 2424TIP3   OH228830   5.561   4.183   8.822 -0.0398  0.3234 -0.3509
 2424TIP3    H128831   5.587   4.251   8.759 -0.0395  1.0212  0.3812
 2424TIP3    H228832   5.467   4.171   8.806 -0.6332  2.3029  1.1143
 2425TIP3   OH228833   0.872   3.338   0.475 -0.2855 -0.0186 -0.8462
 2425TIP3    H128834   0.882   3.306   0.386  0.6295  1.7703 -1.4307
 2425TIP3    H228835   0.804   3.282   0.513  0.0942 -1.5410 -2.2770
 2426TIP3   OH228836   2.318   1.204   2.506 -0.7834 -0.0747 -0.1441
 2426TIP3    H128837   2.362   1.262   2.444  1.0922 -2.5341 -1.2906
 2426TIP3    H228838   2.345   1.236   2.592 -0.2338  1.0433 -0.7057
 2427TIP3   OH228839   5.883   0.024   2.559 -0.2023  0.1211  0.0071
 2427TIP3    H128840   5.965   0.040   2.605  0.9368 -0.0427 -1.8711
 2427TIP3    H228841   5.880  -0.072   2.549 -0.7194  0.1120  0.2591
 2428TIP3   OH228842   1.446   5.423   1.693  0.2274  0.5962  0.2865
 2428TIP3    H128843   1.482   5.428   1.604 -0.0489  0.0369  0.1419
 2428TIP3    H228844   1.397   5.504   1.703 -0.9803  0.0045 -0.6166
 2429TIP3   OH228845   1.506   3.258   0.381  0.2473  0.1721 -0.2828
 2429TIP3    H128846   1.435   3.233   0.323  1.4351 -2.5245 -0.7214
 2429TIP3    H228847   1.576   3.287   0.322 -0.1657  2.0699  0.1051
 2430TIP3   OH228848   3.675   0.127   1.950 -0.2635 -0.0495 -0.1695
 2430TIP3    H128849   3.725   0.095   2.025  2.1897  0.9978 -1.2675
 2430TIP3    H228850   3.690   0.061   1.881  0.5472  0.8108 -0.8407
 2431TIP3   OH228851   0.410   6.261   0.886 -0.1284 -0.4747  0.0049
 2431TIP3    H128852   0.498   6.292   0.867  0.1050  0.1158  1.8303
 2431TIP3    H228853   0.353   6.310   0.827  0.9062 -2.9952 -3.3721
 2432TIP3   OH228854   5.264   0.473   1.393  0.3671 -0.0515 -0.3872
 2432TIP3    H128855   5.264   0.381   1.418  1.1167 -0.4862 -1.8789
 2432TIP3    H228856   5.298   0.474   1.304  1.4639  1.7737 -0.0069
 2433TIP3   OH228857   2.109   5.513   7.930  0.7922  0.3226  0.1044
 2433TIP3    H128858   2.176   5.543   7.992  1.6337  1.1311 -1.1568
 2433TIP3    H228859   2.155   5.505   7.847 -1.0306  2.6581 -1.2457
 2434TIP3   OH228860   0.486   4.661   7.118  0.6272  0.2405  0.1041
 2434TIP3    H128861   0.446   4.742   7.088  1.0181  0.3767 -0.0477
 2434TIP3    H228862   0.560   4.688   7.172 -1.0399  0.0540  2.6840
 2435TIP3   OH228863   3.869   3.982   1.806  0.3482 -0.3793 -0.2637
 2435TIP3    H128864   3.850   4.076   1.811 -1.0868 -0.7137  1.2291
 2435TIP3    H228865   3.784   3.940   1.819  0.9448 -1.9037 -1.0837
 2436TIP3   OH228866   2.664   3.033   0.544  0.9721  0.5360  0.0326
 2436TIP3    H128867   2.746   3.008   0.502  1.7422  1.1515  1.1153
 2436TIP3    H228868   2.605   3.055   0.472  2.1824  1.3786 -0.7379
 2437TIP3   OH228869   6.230   3.001   0.232 -0.3718  0.0275  0.4109
 2437TIP3    H128870   6.234   2.992   0.137 -0.9164  1.1718  0.2706
 2437TIP3    H228871   6.175   2.928   0.260  0.7782 -1.0387 -0.0098
 2438TIP3   OH228872   4.021   1.128   1.749  0.6495  0.4677 -0.0952
 2438TIP3    H128873   3.994   1.057   1.690  1.4997  0.5392 -0.5816
 2438TIP3    H228874   4.042   1.084   1.831  1.1125  0.1530 -0.3752
 2439TIP3   OH228875   3.059   1.000   0.095  0.0318 -0.1492  0.2634
 2439TIP3    H128876   3.063   1.095   0.092 -0.1567 -0.1479 -0.0068
 2439TIP3    H228877   2.974   0.978   0.058  0.7266 -0.4879 -1.2450
 2440TIP3   OH228878   5.850   0.595   7.252  0.2702  0.3590  0.0452
 2440TIP3    H128879   5.943   0.616   7.249  0.1038  1.0960 -2.1215
 2440TIP3    H228880   5.836   0.536   7.178 -0.8490 -0.4157  0.8426
 2441TIP3   OH228881   2.179   0.935   7.475  0.0923 -0.6257  0.6344
 2441TIP3    H128882   2.251   0.978   7.429 -0.6819 -0.3482 -0.3654
 2441TIP3    H228883   2.214   0.849   7.499  0.5886 -0.7033 -0.3081
 2442TIP3   OH228884   2.750   4.580   1.089  0.3939  0.2301  0.1727
 2442TIP3    H128885   2.720   4.581   0.998  0.8510 -1.5746 -0.0317
 2442TIP3    H228886   2.669   4.579   1.141  0.1137  2.6192 -0.1234
 2443TIP3   OH228887   6.162   6.560   8.620 -0.2776 -0.4267  0.0131
 2443TIP3    H128888   6.099   6.591   8.555  1.1556  2.5739 -0.1266
 2443TIP3    H228889   6.247   6.579   8.581  0.7300 -2.5674  1.0106
 2444TIP3   OH228890   6.765   5.654   7.985  0.0915  0.4229 -0.3855
 2444TIP3    H128891   6.755   5.748   7.996  0.9936  0.4042  0.8099
 2444TIP3    H228892   6.855   5.635   8.013 -0.4686 -0.9424  0.6409
 2445TIP3   OH228893   0.125   0.383   0.927  0.1082  0.4720 -0.0751
 2445TIP3    H128894   0.155   0.367   1.016  0.9622  1.2343 -0.2072
 2445TIP3    H228895   0.079   0.467   0.932  0.9920  1.0022 -0.5113
 2446TIP3   OH228896   1.314   3.044   1.446 -0.1884 -0.4108  0.0149
 2446TIP3    H128897   1.369   3.120   1.430  0.3323 -0.3770  1.6908
 2446TIP3    H228898   1.370   2.969   1.427 -0.2815 -0.3718 -0.4070
 2447TIP3   OH228899   1.102   6.542   1.486  0.0017  0.1759  0.4255
 2447TIP3    H128900   1.099   6.495   1.570  0.7882 -0.8543 -0.1024
 2447TIP3    H228901   1.011   6.567   1.469 -0.1217  0.7699  1.7742
 2448TIP3   OH228902   5.369   1.613   0.502  0.2746 -0.7917  0.7733
 2448TIP3    H128903   5.335   1.587   0.588  1.0442 -0.4401  1.1881
 2448TIP3    H228904   5.390   1.706   0.512  0.2954 -0.7311  0.1746
 2449TIP3   OH228905   2.396   1.647   7.701  0.1019 -0.0517 -0.1445
 2449TIP3    H128906   2.328   1.603   7.650  0.3001 -0.5459  0.0107
 2449TIP3    H228907   2.432   1.713   7.641 -0.3190  0.0230 -0.3188
 2450TIP3   OH228908   3.210   5.473   1.395  0.7772 -1.1150 -0.4654
 2450TIP3    H128909   3.212   5.384   1.359 -1.6810 -0.8084 -1.5532
 2450TIP3    H228910   3.217   5.461   1.489  3.3366 -2.2219 -0.7131
 2451TIP3   OH228911   0.485   2.144   7.872  0.2384 -0.2129 -0.4541
 2451TIP3    H128912   0.433   2.221   7.898  0.9502 -0.0114  0.4348
 2451TIP3    H228913   0.471   2.082   7.943 -0.6602 -1.0920 -1.3659
 2452TIP3   OH228914   1.314   2.827   8.279  0.0077  0.4551  0.1548
 2452TIP3    H128915   1.278   2.883   8.211 -1.2483  0.2567  0.6363
 2452TIP3    H228916   1.396   2.871   8.304  0.0362  1.0034 -0.8408
 2453TIP3   OH228917   5.904   2.371   7.204 -0.0293 -0.1894  0.1880
 2453TIP3    H128918   5.902   2.277   7.190 -0.1422 -0.1997  0.2682
 2453TIP3    H228919   5.860   2.408   7.128  0.3131 -0.1808 -0.0079
 2454TIP3   OH228920   3.719   0.476   2.679  0.0353  0.8120  0.3721
 2454TIP3    H128921   3.677   0.551   2.723 -0.4173  1.5075 -1.1788
 2454TIP3    H228922   3.678   0.473   2.593 -1.6299 -2.6662  1.1469
 2455TIP3   OH228923   2.854   0.046   2.301  0.2340  0.0293  0.2611
 2455TIP3    H128924   2.791   0.009   2.363  0.4151 -0.3615  0.2125
 2455TIP3    H228925   2.919   0.089   2.356  0.0220  0.2832  0.3169
 2456TIP3   OH228926   4.823   1.067   1.037 -0.6325  0.2540 -0.0513
 2456TIP3    H128927   4.733   1.047   1.064 -0.4177 -1.2782 -0.3479
 2456TIP3    H228928   4.877   1.029   1.106 -0.1957  0.2959 -0.3701
 2457TIP3   OH228929   5.335   3.727   6.758 -0.1593 -0.0023  0.1210
 2457TIP3    H128930   5.385   3.796   6.714  2.7756 -2.4501 -0.7303
 2457TIP3    H228931   5.377   3.717   6.843 -1.7824  0.4435  1.0261
 2458TIP3   OH228932   3.987   2.854   0.801 -0.3320 -0.0349  0.4355
 2458TIP3    H128933   3.982   2.850   0.897 -2.4606 -0.5627  0.3546
 2458TIP3    H228934   4.003   2.946   0.782 -0.2720  0.1457  1.3004
 2459TIP3   OH228935   0.987   2.714   8.291  0.4738 -0.0044  0.4701
 2459TIP3    H128936   1.018   2.707   8.200 -2.1936  0.4480 -0.5361
 2459TIP3    H228937   0.897   2.682   8.289  0.3751 -0.1167  3.0173
 2460TIP3   OH228938   3.731   3.806   7.105 -0.5629 -0.5413 -0.4524
 2460TIP3    H128939   3.674   3.760   7.043  0.5723 -1.4713 -0.8480
 2460TIP3    H228940   3.679   3.880   7.136 -1.5121 -0.6252 -1.7680
 2461TIP3   OH228941   4.514   1.120   8.232 -0.1487 -0.1731  0.6097
 2461TIP3    H128942   4.528   1.187   8.165 -0.7553  0.2584  0.9019
 2461TIP3    H228943   4.493   1.040   8.182 -2.0261  0.4769  0.2712
 2462TIP3   OH228944   6.584   1.540   0.056  0.1732  0.1191 -0.0150
 2462TIP3    H128945   6.584   1.455   0.101 -1.1125  0.8165  1.3324
 2462TIP3    H228946   6.642   1.595   0.108 -0.0330  0.4649 -0.1498
 2463TIP3   OH228947   5.128   5.443   8.107  0.1826  0.3584 -0.0862
 2463TIP3    H128948   5.061   5.396   8.056 -1.3852  0.7059  1.5449
 2463TIP3    H228949   5.091   5.530   8.119 -0.2831 -0.1654  2.9222
 2464TIP3   OH228950   4.306   1.617   3.024 -0.1062  0.1500 -0.3332
 2464TIP3    H128951   4.401   1.625   3.029 -0.0188 -0.5795 -0.6983
 2464TIP3    H228952   4.291   1.534   2.979 -0.9351 -1.3464  2.5118
 2465TIP3   OH228953   6.513   0.041   7.897  0.2789 -0.1992 -0.3770
 2465TIP3    H128954   6.530   0.103   7.826  0.4094 -0.2187 -0.3627
 2465TIP3    H228955   6.466  -0.031   7.856 -0.8468  0.4055 -0.1941
 2466TIP3   OH228956   2.518   2.764   0.669 -0.1989  0.3364  0.0931
 2466TIP3    H128957   2.572   2.756   0.748 -1.1093  0.9035  0.7859
 2466TIP3    H228958   2.577   2.801   0.604  0.5745 -0.1675  0.4868
 2467TIP3   OH228959   4.503   6.383   0.047  0.8008  0.4340 -0.1815
 2467TIP3    H128960   4.585   6.398   0.094 -0.4346  2.3771  1.5532
 2467TIP3    H228961   4.457   6.317   0.099  0.1851  1.2819  0.3765
 2468TIP3   OH228962   2.614   1.525   0.265  0.3709 -0.3237  0.2254
 2468TIP3    H128963   2.667   1.581   0.322  0.4390 -0.8695  0.7127
 2468TIP3    H228964   2.628   1.437   0.299 -0.1517 -0.5770 -0.2030
 2469TIP3   OH228965   1.417   2.631   0.503  0.1629  0.0199 -0.0158
 2469TIP3    H128966   1.408   2.682   0.583 -0.4685 -0.7184  0.3983
 2469TIP3    H228967   1.449   2.545   0.532 -0.0237 -0.2417 -0.5534
 2470TIP3   OH228968   4.581   0.270   1.751 -0.6440  0.5286 -0.2119
 2470TIP3    H128969   4.564   0.286   1.659 -1.8687  1.5560  0.1652
 2470TIP3    H228970   4.494   0.254   1.789 -0.1396 -0.0575  0.7335
 2471TIP3   OH228971   6.522   6.199   8.394  0.6936 -0.5161 -0.1581
 2471TIP3    H128972   6.513   6.267   8.462 -0.6810  0.0032 -0.8238
 2471TIP3    H228973   6.534   6.248   8.313  2.3240 -1.1383 -0.3263
 2472TIP3   OH228974   4.956   5.552   1.896  0.2602 -0.1202  0.3035
 2472TIP3    H128975   4.988   5.542   1.985 -1.7431 -0.6336  1.0144
 2472TIP3    H228976   5.025   5.515   1.841  2.0635  1.2829  1.5185
 2473TIP3   OH228977   0.051   1.612   1.588  0.5256  0.3660  0.1466
 2473TIP3    H128978   0.087   1.524   1.600  2.2384  0.8079 -1.2854
 2473TIP3    H228979  -0.012   1.603   1.517  0.1817  0.1656  0.4777
 2474TIP3   OH228980   2.811   3.698   1.511  0.3485 -0.1173  0.4801
 2474TIP3    H128981   2.906   3.690   1.498  0.6360  2.0525  0.8889
 2474TIP3    H228982   2.792   3.790   1.492 -1.8412 -0.7235 -0.4611
 2475TIP3   OH228983   5.009   2.417   8.170 -0.0272  0.5006 -0.2318
 2475TIP3    H128984   5.080   2.441   8.112  1.5798 -0.0943  1.4023
 2475TIP3    H228985   5.017   2.322   8.180 -1.1618  0.3972 -0.1627
 2476TIP3   OH228986   4.838   0.101   1.033 -0.4962 -0.1942  0.0969
 2476TIP3    H128987   4.776   0.168   1.003 -2.2114 -1.3448  0.9337
 2476TIP3    H228988   4.894   0.148   1.095 -1.2737  0.6136  0.2120
 2477TIP3   OH228989   0.479   3.899   1.521  0.0612 -0.3993 -0.4141
 2477TIP3    H128990   0.440   3.966   1.577 -0.0351 -1.4217  0.7671
 2477TIP3    H228991   0.406   3.866   1.468 -0.1649 -0.5414 -0.0112
 2478TIP3   OH228992   1.482   1.004   2.165 -0.4956 -0.0944 -0.0792
 2478TIP3    H128993   1.519   1.056   2.093 -0.7169  1.4982  0.9189
 2478TIP3    H228994   1.460   0.921   2.124 -0.4535  0.6991 -1.8372
 2479TIP3   OH228995   4.338   4.516   7.268  0.5708  0.6307 -0.0251
 2479TIP3    H128996   4.420   4.541   7.225  0.5943 -1.3721 -1.2917
 2479TIP3    H228997   4.352   4.537   7.360  2.5604  0.3103 -0.2069
 2480TIP3   OH228998   4.015   1.450   0.270 -0.7910  0.4875  0.5159
 2480TIP3    H128999   3.951   1.391   0.310 -2.1098  0.5225 -1.4144
 2480TIP3    H229000   4.014   1.427   0.177  1.7331  0.7875  0.3408
 2481TIP3   OH229001   5.497   3.935   1.328 -0.3693 -0.2441 -0.6127
 2481TIP3    H129002   5.498   4.009   1.267 -0.6342 -0.4468 -0.8694
 2481TIP3    H229003   5.529   3.971   1.411 -1.2619  0.3546 -0.5169
 2482TIP3   OH229004   3.175   4.650   8.616  0.1664  0.1049  0.2152
 2482TIP3    H129005   3.178   4.560   8.648 -0.7219  0.4230  1.2974
 2482TIP3    H229006   3.089   4.658   8.574 -0.2290  0.7193  1.0916
 2483TIP3   OH229007   0.535   4.327   1.206  0.5864  0.0485  0.2635
 2483TIP3    H129008   0.591   4.341   1.130 -0.2579  1.8983 -0.0674
 2483TIP3    H229009   0.589   4.277   1.267  1.8922  0.0799 -0.8322
 2484TIP3   OH229010   6.334   0.356   8.534 -0.8318  0.3129  0.4519
 2484TIP3    H129011   6.384   0.327   8.610  0.0340  1.3080  0.2832
 2484TIP3    H229012   6.367   0.304   8.462 -0.9349  0.0914  0.5619
 2485TIP3   OH229013   1.065   2.525   0.547  0.4960  0.1506 -0.1406
 2485TIP3    H129014   1.099   2.576   0.620  0.8757  2.5920 -1.8833
 2485TIP3    H229015   0.983   2.569   0.523 -0.0853 -1.1543 -0.6336
 2486TIP3   OH229016   4.661   1.397   8.771 -0.8104 -0.1584  0.5121
 2486TIP3    H129017   4.632   1.397   8.862  1.1956  4.5229  1.4254
 2486TIP3    H229018   4.746   1.353   8.773 -0.4003  0.6393  1.1009
 2487TIP3   OH229019   5.006   6.669   6.739 -0.1336  0.0685  0.1580
 2487TIP3    H129020   5.037   6.695   6.826  0.2356  0.0814  0.0221
 2487TIP3    H229021   4.950   6.592   6.756  1.3978 -1.0732  0.2373
 2488TIP3   OH229022   3.223   5.941   1.263 -0.2303 -0.5512  0.2722
 2488TIP3    H129023   3.249   5.879   1.331  0.4493 -1.0158 -0.3894
 2488TIP3    H229024   3.187   5.886   1.194 -1.9446 -0.0004  0.6906
 2489TIP3   OH229025   3.497   3.144   7.617 -0.7576 -0.0143  0.5203
 2489TIP3    H129026   3.576   3.197   7.622  0.7898 -2.1661  5.1299
 2489TIP3    H229027   3.517   3.076   7.552  0.8817 -0.0017  0.9743
 2490TIP3   OH229028   4.766   5.263   8.126  0.1690  0.2638  0.3276
 2490TIP3    H129029   4.807   5.325   8.066 -0.6342  1.0485  0.5673
 2490TIP3    H229030   4.748   5.314   8.205 -3.2142  0.6169 -0.4904
 2491TIP3   OH229031   0.960   0.977   0.204  0.6442 -0.0540 -0.6013
 2491TIP3    H129032   0.941   0.909   0.268 -1.1318  2.7709  2.1296
 2491TIP3    H229033   0.916   0.947   0.124 -0.3570 -1.9304  0.5857
 2492TIP3   OH229034   0.001   0.706   0.354  0.2189  0.4241 -0.4128
 2492TIP3    H129035   0.072   0.712   0.290  2.2387 -2.2325  1.3316
 2492TIP3    H229036   0.027   0.766   0.424 -0.0715  0.5918 -0.4470
 2493TIP3   OH229037   5.987   6.206   1.872 -0.1987 -0.4463 -0.3670
 2493TIP3    H129038   5.950   6.147   1.806 -1.2511  0.9119 -1.0406
 2493TIP3    H229039   5.942   6.181   1.954 -1.1565 -0.1423 -0.7849
 2494TIP3   OH229040   3.107   0.214   3.207 -0.3390 -0.6865 -0.4859
 2494TIP3    H129041   3.056   0.133   3.203  1.5283 -1.8597 -2.6907
 2494TIP3    H229042   3.147   0.212   3.294 -2.1248 -0.8989  0.3813
 2495TIP3   OH229043   1.824   4.278   3.040 -0.0927 -0.2665  0.0818
 2495TIP3    H129044   1.878   4.321   2.974  0.3587 -0.8811  0.0410
 2495TIP3    H229045   1.793   4.349   3.096  0.3672  0.1478 -0.1792
 2496TIP3   OH229046   5.462   3.272   2.504 -0.0573  0.1962 -0.4319
 2496TIP3    H129047   5.543   3.323   2.504 -0.8683  1.6464 -2.6630
 2496TIP3    H229048   5.416   3.301   2.582  1.0679  0.2003  0.2524
 2497TIP3   OH229049   1.609   1.844   7.114  0.6497 -0.5056  0.1836
 2497TIP3    H129050   1.651   1.758   7.111  1.1499 -0.4065  2.4866
 2497TIP3    H229051   1.674   1.901   7.157 -0.1132  0.7584 -0.2770
 2498TIP3   OH229052   5.413   0.735   1.163 -0.2342 -0.1003  0.0681
 2498TIP3    H129053   5.317   0.737   1.161 -0.2509 -0.1868  0.6146
 2498TIP3    H229054   5.435   0.759   1.253  0.2192 -1.6039  0.3840
 2499TIP3   OH229055   6.401   6.630   8.176 -0.4909 -0.5864  0.6294
 2499TIP3    H129056   6.342   6.579   8.119 -0.7106  1.1212 -0.7292
 2499TIP3    H229057   6.485   6.586   8.169 -0.2531  0.1523 -1.8770
 2500TIP3   OH229058   1.248   0.911   7.406  0.0927 -1.0389 -0.2777
 2500TIP3    H129059   1.324   0.872   7.362 -0.8560 -1.4941 -1.5798
 2500TIP3    H229060   1.239   0.860   7.486  0.5654 -1.6438 -0.5944
 2501TIP3   OH229061   2.582   4.321   8.870 -0.0819 -0.7020 -0.1710
 2501TIP3    H129062   2.487   4.319   8.858 -0.1875  0.3236  0.3417
 2501TIP3    H229063   2.602   4.414   8.887  1.1515 -0.6984 -1.4225
 2502TIP3   OH229064   5.043   5.942   1.152  0.0396  0.0784  0.2031
 2502TIP3    H129065   5.015   5.862   1.197 -2.0196  0.1968 -0.7700
 2502TIP3    H229066   4.990   5.945   1.073  1.0362  1.7345 -0.4547
 2503TIP3   OH229067   2.104   3.480   7.043 -0.0617  0.0574  0.8808
 2503TIP3    H129068   2.171   3.451   7.105  0.5414  1.6692  1.0232
 2503TIP3    H229069   2.106   3.415   6.973  0.0462 -1.1683  1.9777
 2504TIP3   OH229070   1.531   2.406   1.635 -0.3790  0.2839 -0.2040
 2504TIP3    H129071   1.561   2.477   1.691  0.7541  0.1032 -0.5619
 2504TIP3    H229072   1.537   2.441   1.546  0.1996 -0.2595 -0.3846
 2505TIP3   OH229073   4.596   5.570   7.836 -0.1988  0.1728 -0.5017
 2505TIP3    H129074   4.690   5.555   7.833 -0.3947 -1.0216 -2.9203
 2505TIP3    H229075   4.558   5.484   7.850 -0.9749  0.2507 -1.9287
 2506TIP3   OH229076   2.823   4.232   0.785 -0.1874 -0.0235  0.4693
 2506TIP3    H129077   2.912   4.266   0.792  0.8151 -2.4353  0.5085
 2506TIP3    H229078   2.823   4.183   0.703 -1.7596  0.6214  0.0514
 2507TIP3   OH229079   1.569   5.796   7.552 -0.4295  0.2493  0.1757
 2507TIP3    H129080   1.566   5.705   7.583 -1.8496 -0.3970 -1.6727
 2507TIP3    H229081   1.662   5.817   7.548 -0.0017 -1.6284 -0.6746
 2508TIP3   OH229082   0.668   1.898   0.775  0.6380 -0.1404  0.3712
 2508TIP3    H129083   0.608   1.955   0.823  1.7387  0.5052  1.0219
 2508TIP3    H229084   0.633   1.896   0.686 -0.6753 -0.2716  0.8636
 2509TIP3   OH229085   4.029   2.838   1.104 -0.9015  0.0836 -0.1018
 2509TIP3    H129086   4.122   2.859   1.115 -0.7041 -1.0158  0.4963
 2509TIP3    H229087   4.015   2.762   1.161 -1.9898 -0.2380 -0.7682
 2510TIP3   OH229088   3.324   0.028   1.447  0.0165  0.4325 -0.0178
 2510TIP3    H129089   3.293  -0.059   1.419  0.6656 -0.3238  1.4841
 2510TIP3    H229090   3.368   0.063   1.370 -0.4811 -0.4693 -0.7373
 2511TIP3   OH229091   5.679   0.580   8.541  0.6014  0.1002  0.2763
 2511TIP3    H129092   5.626   0.562   8.464  1.0803  1.7115 -0.4536
 2511TIP3    H229093   5.633   0.535   8.612 -1.0816  0.4739 -0.5422
 2512TIP3   OH229094   6.697   0.331   2.146  0.5489  0.1530  0.2649
 2512TIP3    H129095   6.670   0.260   2.204 -1.0825 -0.8040 -1.5591
 2512TIP3    H229096   6.783   0.305   2.114 -1.1305 -2.5504 -2.5333
 2513TIP3   OH229097   6.439   4.924   0.453  0.5908 -0.1905 -0.4235
 2513TIP3    H129098   6.386   4.916   0.374 -0.3719  1.2018  0.0307
 2513TIP3    H229099   6.494   4.846   0.454 -0.5919 -1.0738 -1.5567
 2514TIP3   OH229100   3.864   5.009   1.985 -0.4883 -0.1866  0.5149
 2514TIP3    H129101   3.892   5.091   2.024  0.5647 -0.7524  0.9781
 2514TIP3    H229102   3.926   4.944   2.016 -0.9110 -1.0538 -0.3649
 2515TIP3   OH229103   0.727   5.006   1.262  0.3346 -0.6919  0.3811
 2515TIP3    H129104   0.738   5.019   1.356  0.5886 -2.1033  0.5750
 2515TIP3    H229105   0.747   5.091   1.223 -2.5387  0.7389  1.7663
 2516TIP3   OH229106   6.163   2.138   0.606  0.3953 -0.3211  0.0931
 2516TIP3    H129107   6.208   2.171   0.684 -1.1365 -2.5158  2.0382
 2516TIP3    H229108   6.227   2.079   0.565  0.3080 -1.2782  1.2755
 2517TIP3   OH229109   5.012   0.888   2.308  0.5299 -0.0091 -0.1139
 2517TIP3    H129110   5.104   0.875   2.333  0.5297 -0.3984 -0.3136
 2517TIP3    H229111   4.968   0.911   2.390  0.3083 -2.3857  0.5198
 2518TIP3   OH229112   5.862   1.194   1.647 -0.6230  0.8539  0.2637
 2518TIP3    H129113   5.814   1.232   1.721 -1.2063 -1.2453  1.0603
 2518TIP3    H229114   5.795   1.145   1.599  0.0547  0.9170 -0.7740
 2519TIP3   OH229115   3.526   1.377   2.261 -0.2775  0.4543  0.3434
 2519TIP3    H129116   3.472   1.308   2.300  1.4055 -1.8330 -1.1100
 2519TIP3    H229117   3.473   1.412   2.189 -0.0961 -1.4084 -0.7484
 2520TIP3   OH229118   3.002   2.562   8.291  0.1455  0.0242  0.1467
 2520TIP3    H129119   2.972   2.551   8.200  0.8069 -0.3363 -0.0301
 2520TIP3    H229120   2.925   2.540   8.344 -0.1584 -0.0462 -0.3187
 2521TIP3   OH229121   3.166   2.940   1.559 -0.3396 -0.3744  0.4069
 2521TIP3    H129122   3.239   2.946   1.498 -0.2124 -0.5481  0.5399
 2521TIP3    H229123   3.203   2.896   1.636  0.1559  1.9332  1.5947
 2522TIP3   OH229124   2.573   0.347   1.535 -0.6974  0.4780 -0.0598
 2522TIP3    H129125   2.585   0.263   1.580  0.6998  0.4477 -0.4456
 2522TIP3    H229126   2.596   0.413   1.601 -0.2656  0.4956 -0.2265
 2523TIP3   OH229127   5.513   5.846   8.522 -0.3615 -0.1187  0.1394
 2523TIP3    H129128   5.556   5.804   8.447 -3.5675 -0.2859 -1.7978
 2523TIP3    H229129   5.490   5.933   8.490 -1.1862  0.0602  1.1749
 2524TIP3   OH229130   6.038   5.206   2.493  0.0871 -0.1962  0.2446
 2524TIP3    H129131   5.981   5.157   2.552 -0.1775 -0.9945 -0.6418
 2524TIP3    H229132   6.127   5.178   2.518  0.0036 -0.2139  0.5284
 2525TIP3   OH229133   4.429   3.554   8.185 -0.9511 -0.4510  0.1668
 2525TIP3    H129134   4.459   3.518   8.102 -0.2596  0.5880 -0.0652
 2525TIP3    H229135   4.360   3.495   8.214  1.0238 -2.7607  0.5094
 2526TIP3   OH229136   0.373   5.292   8.335  0.8434  0.7091 -0.0908
 2526TIP3    H129137   0.300   5.328   8.385 -0.7996 -1.0710 -1.0887
 2526TIP3    H229138   0.402   5.217   8.386  1.1406  0.6605 -0.3311
 2527TIP3   OH229139   5.813   2.877   0.641  0.4366  0.3861 -0.5912
 2527TIP3    H129140   5.825   2.938   0.714 -1.0196 -0.8532  0.7451
 2527TIP3    H229141   5.834   2.929   0.563  0.5935  2.1755  0.5845
 2528TIP3   OH229142   3.114   0.195   1.546 -0.7280  0.9089 -0.1187
 2528TIP3    H129143   3.188   0.141   1.518 -0.4931  0.0548  1.9829
 2528TIP3    H229144   3.039   0.160   1.497 -0.0372  0.6964 -1.0429
 2529TIP3   OH229145   0.904   6.049   1.133  0.1051 -0.5660  0.1776
 2529TIP3    H129146   0.872   6.047   1.223  1.4497 -3.3563  0.6978
 2529TIP3    H229147   0.839   5.998   1.084  0.0024 -0.0553 -0.2311
 2530TIP3   OH229148   5.585   0.600   8.062  0.0814  0.2127  0.0234
 2530TIP3    H129149   5.615   0.688   8.083  0.8243 -0.1624  0.5765
 2530TIP3    H229150   5.505   0.613   8.011  0.9580  1.2483 -1.1500
 2531TIP3   OH229151   5.798   1.844   1.423  0.3137  0.0673 -0.2007
 2531TIP3    H129152   5.805   1.934   1.454 -0.7350  0.2830 -0.5508
 2531TIP3    H229153   5.879   1.802   1.451  0.9186  1.1813 -0.2420
 2532TIP3   OH229154   1.947   2.474   8.222  0.4114  0.2308 -0.1412
 2532TIP3    H129155   1.936   2.568   8.239  0.0366  0.4376 -1.4139
 2532TIP3    H229156   1.861   2.446   8.190  0.8608 -0.2714 -0.9326
 2533TIP3   OH229157   3.682   1.920   1.654 -0.1967  0.1237  0.2013
 2533TIP3    H129158   3.682   2.012   1.679  0.2799  0.0927  0.3328
 2533TIP3    H229159   3.602   1.884   1.692 -1.2976  0.8615 -1.3203
 2534TIP3   OH229160   1.032   1.148   8.542  0.0145  0.2477 -0.1392
 2534TIP3    H129161   1.109   1.131   8.488 -1.4755  0.8570 -2.6540
 2534TIP3    H229162   1.042   1.238   8.573 -0.6583  1.1507 -2.3645
 2535TIP3   OH229163   3.264   4.299   1.447 -0.3206  0.6024 -0.0783
 2535TIP3    H129164   3.349   4.266   1.476 -1.9977 -3.0850  1.1718
 2535TIP3    H229165   3.269   4.297   1.351  0.5065 -1.0876 -0.0349
 2536TIP3   OH229166   3.158   3.708   8.730 -0.6673 -0.0328  0.0507
 2536TIP3    H129167   3.248   3.677   8.730 -0.7566 -0.3178 -0.7488
 2536TIP3    H229168   3.107   3.633   8.700 -1.4212 -0.4996  2.2584
 2537TIP3   OH229169   2.950   2.293   8.669  0.0497 -0.5623  0.2189
 2537TIP3    H129170   2.978   2.242   8.745 -0.0146  0.6554  1.0958
 2537TIP3    H229171   2.964   2.384   8.695 -1.7305 -0.0442 -0.5269
 2538TIP3   OH229172   0.247   0.654   8.051  0.4070 -0.5687  0.1737
 2538TIP3    H129173   0.197   0.653   8.133 -0.0841  1.3849 -0.0634
 2538TIP3    H229174   0.185   0.620   7.986  0.5017 -1.2561  0.4263
 2539TIP3   OH229175   0.337   0.291   0.224 -0.1104  0.2283 -0.4109
 2539TIP3    H129176   0.251   0.274   0.263  0.2345  0.5449  0.5233
 2539TIP3    H229177   0.386   0.210   0.238  1.2559  1.4687  3.2911
 2540TIP3   OH229178   0.738   3.324   8.757  0.4515 -0.5424  0.0789
 2540TIP3    H129179   0.791   3.267   8.813  1.0140  0.6209  0.7635
 2540TIP3    H229180   0.667   3.354   8.813 -0.2626 -1.1069 -0.4880
 2541TIP3   OH229181   1.091   6.480   0.762 -0.2053 -0.4602 -0.3766
 2541TIP3    H129182   1.111   6.557   0.815  2.5450 -0.8883 -0.6416
 2541TIP3    H229183   1.064   6.413   0.826 -0.4112  0.0735  0.1018
 2542TIP3   OH229184   5.406   2.837   0.054  0.1755 -0.1530 -0.4061
 2542TIP3    H129185   5.487   2.863   0.097 -0.1648 -0.8297  0.6852
 2542TIP3    H229186   5.410   2.741   0.052 -0.7479 -0.2101 -0.0286
 2543TIP3   OH229187   4.385   0.955   0.686  0.6088 -0.0078 -0.6270
 2543TIP3    H129188   4.398   0.963   0.592  0.4685 -1.9132 -0.8603
 2543TIP3    H229189   4.455   1.008   0.724 -0.7201  2.7343 -1.7153
 2544TIP3   OH229190   5.507   5.999   0.044 -0.4953 -0.0751  0.1343
 2544TIP3    H129191   5.506   6.093   0.060  1.0557  0.3864 -1.9568
 2544TIP3    H229192   5.442   5.987  -0.026 -0.5960 -0.5580  0.3075
 2545TIP3   OH229193   2.566   1.140   8.275 -0.1097  0.4475  0.3192
 2545TIP3    H129194   2.655   1.103   8.278  0.1704  1.1450  1.4591
 2545TIP3    H229195   2.513   1.079   8.327 -1.2902 -2.2558 -3.6432
 2546TIP3   OH229196   5.551   2.591   0.255 -0.1866  0.3618 -0.2619
 2546TIP3    H129197   5.517   2.533   0.324  1.7874  0.6621  1.0660
 2546TIP3    H229198   5.554   2.677   0.296  2.4582  0.2822 -0.0861
 2547TIP3   OH229199   6.362   3.594   0.446 -0.2498  0.6709  0.2383
 2547TIP3    H129200   6.446   3.629   0.419  0.3673 -0.7530  0.2368
 2547TIP3    H229201   6.306   3.603   0.369  0.3508  0.2114 -0.2565
 2548TIP3   OH229202   4.655   5.381   8.370 -0.0367  0.4930 -0.1840
 2548TIP3    H129203   4.736   5.432   8.371  0.0238  0.3806  0.7609
 2548TIP3    H229204   4.592   5.434   8.419 -0.4012  0.3380 -0.4700
 2549TIP3   OH229205   0.484   0.838   7.253  0.0457  0.4234  0.7164
 2549TIP3    H129206   0.519   0.778   7.319  2.5036  1.0320  0.0552
 2549TIP3    H229207   0.499   0.792   7.170 -0.2247  0.9559  0.3735
 2550TIP3   OH229208   6.535   0.118   7.032 -0.1115 -0.4894 -0.7700
 2550TIP3    H129209   6.564   0.209   7.038 -2.9729  0.5092 -0.2357
 2550TIP3    H229210   6.534   0.099   6.939 -1.5995  0.8829 -1.0946
 2551TIP3   OH229211   4.937   0.061   0.479 -0.0052  0.1103  0.2215
 2551TIP3    H129212   4.896   0.051   0.565  1.2806 -0.3900  0.7984
 2551TIP3    H229213   4.976   0.148   0.481 -0.0334  0.1258  0.1153
 2552TIP3   OH229214   3.472   1.118   1.967 -0.4851  0.1494 -0.0678
 2552TIP3    H129215   3.485   1.117   2.061 -1.9364  1.4883  0.1775
 2552TIP3    H229216   3.541   1.176   1.933 -0.6080  0.5051  0.2884
 2553TIP3   OH229217   1.891   2.129   1.308 -0.4482  0.3798 -0.5272
 2553TIP3    H129218   1.947   2.116   1.385 -0.7119  0.9985 -0.2213
 2553TIP3    H229219   1.927   2.070   1.242 -0.2110 -0.1568  0.0653
 2554TIP3   OH229220   2.166   0.659   0.133  0.6601  0.2259 -0.3990
 2554TIP3    H129221   2.176   0.718   0.059  1.4570 -0.2235 -0.6634
 2554TIP3    H229222   2.082   0.683   0.172  0.9071  1.4318 -0.5808
 2555TIP3   OH229223   3.545   5.609   2.163  0.4220  0.2011 -0.6690
 2555TIP3    H129224   3.585   5.523   2.148  0.5913  0.0258  0.6891
 2555TIP3    H229225   3.599   5.649   2.232  0.0426  1.1947 -0.9372
 2556TIP3   OH229226   3.065   1.214   1.402  0.1642  0.2069  0.1093
 2556TIP3    H129227   3.114   1.135   1.423  1.5925  0.8050 -0.7606
 2556TIP3    H229228   3.052   1.209   1.307  0.3319  1.0352  0.0376
 2557TIP3   OH229229   0.454   0.665   7.734  0.0304  0.9722 -0.1151
 2557TIP3    H129230   0.383   0.727   7.719 -0.9044  0.4792  1.8661
 2557TIP3    H229231   0.452   0.649   7.829  1.7543 -0.2844 -0.2427
 2558TIP3   OH229232   0.662   6.510   8.815 -0.2646  0.1055  0.0775
 2558TIP3    H129233   0.716   6.494   8.738 -0.9842  0.9115 -0.6067
 2558TIP3    H229234   0.720   6.489   8.889  0.5049 -0.4600 -0.6609
 2559TIP3   OH229235   3.342   5.892   8.177  0.4876 -0.1598 -0.4698
 2559TIP3    H129236   3.419   5.930   8.133  0.6981 -1.3308 -1.1488
 2559TIP3    H229237   3.376   5.857   8.259  0.8247 -1.2216 -1.0416
 2560TIP3   OH229238   6.135   3.348   0.238  0.1536 -0.2912  0.2731
 2560TIP3    H129239   6.200   3.300   0.186  1.2141  0.6351  0.6928
 2560TIP3    H229240   6.159   3.329   0.329 -1.2196 -1.2847  0.4555
 2561TIP3   OH229241   4.631   6.330   0.276 -0.2833  0.0315 -0.5179
 2561TIP3    H129242   4.560   6.361   0.334 -0.2879 -0.2427 -0.3750
 2561TIP3    H229243   4.708   6.379   0.304 -0.7170  1.4329 -1.6470
 2562TIP3   OH229244   2.739   5.410   0.757  0.2198 -0.0236 -0.2452
 2562TIP3    H129245   2.672   5.385   0.693 -1.1863 -0.4198  1.3051
 2562TIP3    H229246   2.702   5.385   0.841  0.5403  3.4219  1.0924
 2563TIP3   OH229247   1.874   0.763   0.540 -0.1784  0.0494 -0.0480
 2563TIP3    H129248   1.949   0.770   0.599 -1.1095  0.8596  1.0757
 2563TIP3    H229249   1.820   0.694   0.577 -0.7542  0.5413  0.0524
 2564TIP3   OH229250   0.885   4.005   7.555  0.4243 -0.2847  0.1318
 2564TIP3    H129251   0.963   4.060   7.558  0.8172 -0.8755  1.7594
 2564TIP3    H229252   0.918   3.919   7.530  0.4087 -0.6656  1.3569
 2565TIP3   OH229253   3.566   4.593   2.114 -0.1127  0.3534 -0.0631
 2565TIP3    H129254   3.536   4.504   2.133  1.3332 -0.0513  0.5001
 2565TIP3    H229255   3.542   4.643   2.192 -0.0800  0.2290  0.0273
 2566TIP3   OH229256   2.117   4.170   1.986 -0.1994 -0.1489  0.1341
 2566TIP3    H129257   2.167   4.103   1.940 -0.5460 -1.3119  1.3853
 2566TIP3    H229258   2.067   4.122   2.052 -1.1691  1.2431  0.4598
 2567TIP3   OH229259   1.713   6.690   8.890 -0.0663  0.3458  0.2562
 2567TIP3    H129260   1.746   6.601   8.878 -0.4273  0.2554 -0.1371
 2567TIP3    H229261   1.733   6.712   8.980  1.0580  0.3003  0.0258
 2568TIP3   OH229262   3.461   5.994   7.576 -0.7564 -0.3716  0.3417
 2568TIP3    H129263   3.386   6.040   7.613 -1.3776  0.5243 -1.8690
 2568TIP3    H229264   3.422   5.927   7.519  0.1545 -1.8621  1.3971
 2569TIP3   OH229265   1.432   6.205   1.716  0.3753 -0.0064  0.0630
 2569TIP3    H129266   1.494   6.273   1.743  0.3115  0.4932 -0.9986
 2569TIP3    H229267   1.470   6.167   1.637  0.8932 -1.9075  1.1537
 2570TIP3   OH229268   0.590   4.984   1.855 -0.7194 -0.5440  0.1320
 2570TIP3    H129269   0.591   5.039   1.776 -1.7043 -2.4097 -1.2567
 2570TIP3    H229270   0.542   5.036   1.919 -1.1837  0.4326 -0.9624
 2571TIP3   OH229271   6.302   6.391   1.536  0.1861  0.1819 -0.0046
 2571TIP3    H129272   6.237   6.385   1.606  1.8294 -0.7146  1.5129
 2571TIP3    H229273   6.293   6.307   1.489 -0.7286  0.6728 -0.7561
 2572TIP3   OH229274   6.532   5.935   8.627 -0.1752 -0.7607 -0.7149
 2572TIP3    H129275   6.609   5.933   8.684  0.5932  0.0286 -1.6924
 2572TIP3    H229276   6.512   5.843   8.610  0.6605 -0.9706 -0.5875
 2573TIP3   OH229277   3.837   3.762   7.399 -0.2135  0.3928 -0.2007
 2573TIP3    H129278   3.829   3.767   7.494  1.6295  1.4650 -0.0616
 2573TIP3    H229279   3.828   3.853   7.370  2.2987  0.5306 -0.7200
 2574TIP3   OH229280   2.946   1.317   2.190 -0.6668  0.8285  0.2071
 2574TIP3    H129281   2.970   1.245   2.132 -0.3967  0.7597  0.4029
 2574TIP3    H229282   2.855   1.298   2.215 -0.0292 -0.4286  1.7027
 2575TIP3   OH229283   6.630   0.684   7.402  0.2043 -0.4789  0.1269
 2575TIP3    H129284   6.569   0.726   7.341 -0.0007 -0.6038  0.2462
 2575TIP3    H229285   6.673   0.757   7.447 -0.2796 -0.3932  0.4616
 2576TIP3   OH229286   2.329   6.490   2.073 -0.3204  0.0542 -0.2521
 2576TIP3    H129287   2.423   6.506   2.083 -0.0730 -0.8934 -0.9675
 2576TIP3    H229288   2.323   6.405   2.029 -1.4723  0.7613 -1.5544
 2577TIP3   OH229289   1.126   6.351   1.750 -0.2729  0.0968  0.6319
 2577TIP3    H129290   1.203   6.303   1.719 -0.4536  0.5107 -0.5173
 2577TIP3    H229291   1.136   6.353   1.845  1.0724  0.0269  0.5178
 2578TIP3   OH229292   4.800   1.950   0.600 -0.2081  0.1824  0.1721
 2578TIP3    H129293   4.873   2.009   0.616 -0.1226  0.1307 -0.0287
 2578TIP3    H229294   4.766   1.931   0.687  0.1375  0.0531  0.2816
 2579TIP3   OH229295   4.467   3.819   8.063  0.5857  0.1861 -0.0420
 2579TIP3    H129296   4.454   3.762   8.139 -0.6132  0.1770 -0.2270
 2579TIP3    H229297   4.561   3.817   8.047  0.5592 -1.8944 -0.1819
 2580TIP3   OH229298   1.486   6.220   0.892  0.0632 -0.4246  0.9105
 2580TIP3    H129299   1.435   6.271   0.955 -0.1969  0.5080 -0.0335
 2580TIP3    H229300   1.571   6.207   0.935 -0.8815 -1.9117  2.4688
 2581TIP3   OH229301   1.405   0.039   7.932  0.0345 -0.4312 -0.1479
 2581TIP3    H129302   1.441   0.060   8.018  0.1235  0.9642 -0.5140
 2581TIP3    H229303   1.436  -0.050   7.915  1.4622 -0.0806  0.4944
 2582TIP3   OH229304   3.933   3.545   8.619  0.0981 -0.4662  0.1335
 2582TIP3    H129305   3.942   3.510   8.531  0.3205 -1.0024  0.3671
 2582TIP3    H229306   4.018   3.530   8.661  0.8605  1.9874 -0.3156
 2583TIP3   OH229307   0.942   2.054   8.294 -0.6212 -0.4967  0.0516
 2583TIP3    H129308   0.994   2.134   8.299 -1.1611 -0.0498 -1.0585
 2583TIP3    H229309   0.890   2.064   8.214  0.0500 -2.3924 -0.7000
 2584TIP3   OH229310   3.270   0.941   1.042 -0.0587  0.2355 -0.1748
 2584TIP3    H129311   3.209   0.909   1.108 -0.8833 -0.3466 -1.1902
 2584TIP3    H229312   3.218   0.947   0.962  0.8713  1.1039 -0.7389
 2585TIP3   OH229313   5.847   5.811   1.107 -0.5883  0.0527 -0.6864
 2585TIP3    H129314   5.768   5.814   1.161 -1.1598  1.7037 -1.5330
 2585TIP3    H229315   5.823   5.757   1.032 -0.8478  0.3725 -0.8357
 2586TIP3   OH229316   5.871   4.290   0.194 -0.4023  0.1874 -0.0852
 2586TIP3    H129317   5.848   4.312   0.284  1.5488  0.6746  0.3405
 2586TIP3    H229318   5.799   4.327   0.142  0.0245  2.8908  1.0376
 2587TIP3   OH229319   6.611   1.561   1.375  0.0349  0.4695 -0.2973
 2587TIP3    H129320   6.577   1.491   1.319  0.9701 -0.2565  0.0067
 2587TIP3    H229321   6.576   1.641   1.338 -3.3574 -0.2897  0.9288
 2588TIP3   OH229322   1.551   2.509   1.026 -0.1523 -0.0286  0.0731
 2588TIP3    H129323   1.517   2.594   1.000  0.2897  0.4589  1.0642
 2588TIP3    H229324   1.550   2.510   1.122  3.4347  0.3578  0.2228
 2589TIP3   OH229325   5.233   5.592   0.244 -0.3578  0.3316 -0.0386
 2589TIP3    H129326   5.232   5.684   0.218  2.3580  0.4374 -0.0002
 2589TIP3    H229327   5.185   5.547   0.174  2.0579  1.2781 -2.4531
 2590TIP3   OH229328   4.032   0.104   0.834  0.0716  0.7952  0.0883
 2590TIP3    H129329   4.056   0.062   0.751  0.0887  0.8521  0.0635
 2590TIP3    H229330   3.973   0.042   0.877 -0.2096  0.9152 -0.1221
 2591TIP3   OH229331   6.303   5.293   8.479 -0.7015  0.0843  0.2663
 2591TIP3    H129332   6.319   5.199   8.494  1.6702  0.3362 -0.3156
 2591TIP3    H229333   6.318   5.334   8.565 -1.7549 -0.0396  0.5248
 2592TIP3   OH229334   3.350   6.443   1.850 -0.5668 -0.1403 -0.0277
 2592TIP3    H129335   3.271   6.497   1.842 -0.6157  0.1783  1.9457
 2592TIP3    H229336   3.369   6.414   1.761 -1.4359  1.8591 -0.9333
 2593TIP3   OH229337   2.675   2.772   8.258  0.6172  0.5955 -0.1824
 2593TIP3    H129338   2.606   2.795   8.321  1.3044 -0.2994  0.9395
 2593TIP3    H229339   2.640   2.800   8.173 -0.1578  2.2653  0.6238
 2594TIP3   OH229340   2.927   0.140   0.207  0.2249 -0.2794  0.0654
 2594TIP3    H129341   2.998   0.153   0.145  1.3585 -1.0172  1.1688
 2594TIP3    H229342   2.865   0.210   0.188 -0.1962 -1.3258 -2.8698
 2595TIP3   OH229343   0.329   5.754   7.280 -0.2003 -0.2677 -0.4108
 2595TIP3    H129344   0.237   5.746   7.251 -0.0573  0.8698 -1.2332
 2595TIP3    H229345   0.357   5.839   7.248  0.7962 -0.0769  0.8979
 2596TIP3   OH229346   1.295   2.688   1.847  0.2965 -0.4370 -0.0482
 2596TIP3    H129347   1.302   2.782   1.832 -0.2641 -0.5517 -1.1017
 2596TIP3    H229348   1.218   2.661   1.797  1.0401 -1.6327 -0.5992
 2597TIP3   OH229349   0.542   1.938   0.255  0.5382  0.0237 -0.3897
 2597TIP3    H129350   0.541   1.866   0.193  1.1942 -0.2413 -0.0990
 2597TIP3    H229351   0.603   2.001   0.218  0.4479  0.1466 -0.3304
 2598TIP3   OH229352   4.692   2.927   0.130  0.2039  0.3200 -0.2255
 2598TIP3    H129353   4.749   2.859   0.092 -0.2570 -0.2623  0.1079
 2598TIP3    H229354   4.603   2.896   0.112 -0.0653 -0.4010  1.9998
 2599TIP3   OH229355   4.890   3.772   7.746  0.0277 -0.1063  0.8790
 2599TIP3    H129356   4.951   3.793   7.817  2.1527 -0.5847 -0.7132
 2599TIP3    H229357   4.887   3.676   7.744  0.3173 -0.1106  0.0977
 2600TIP3   OH229358   0.734   1.691   2.157  0.2138  0.6794 -0.1766
 2600TIP3    H129359   0.769   1.780   2.161  0.1996  0.6392  1.1127
 2600TIP3    H229360   0.807   1.639   2.123  0.5321  1.0251 -0.0278
 2601TIP3   OH229361   5.058   5.894   8.135 -0.3847  0.4410  0.4006
 2601TIP3    H129362   5.072   5.929   8.047 -1.7108 -1.2210 -0.5214
 2601TIP3    H229363   5.138   5.846   8.155 -1.7830 -3.2450 -1.9841
 2602TIP3   OH229364   0.931   4.222   1.699  0.3070 -0.2751  0.1725
 2602TIP3    H129365   0.993   4.287   1.666  1.5290 -1.0149  0.8966
 2602TIP3    H229366   0.943   4.225   1.794 -0.6181 -0.6069  0.3083
 2603TIP3   OH229367   5.673   5.845   0.558  0.4576  0.2350  0.0095
 2603TIP3    H129368   5.697   5.855   0.650  2.3212  1.1824 -0.5092
 2603TIP3    H229369   5.632   5.928   0.535  1.7296  0.7727 -0.4408
 2604TIP3   OH229370   6.306   1.019   1.217  0.4615  0.4156  0.4108
 2604TIP3    H129371   6.288   1.104   1.179  1.7827  0.4446 -0.2228
 2604TIP3    H229372   6.303   0.958   1.143  0.5942  0.0845  0.6749
 2605TIP3   OH229373   6.236   3.467   1.180 -0.7281  0.2483 -0.3751
 2605TIP3    H129374   6.267   3.541   1.231 -0.5936 -0.5217  0.6853
 2605TIP3    H229375   6.148   3.492   1.151  0.1858  1.7792 -2.0484
 2606TIP3   OH229376   3.160   4.594   7.577  0.0195  0.2264 -0.1294
 2606TIP3    H129377   3.153   4.604   7.482  1.0049 -2.2846 -0.5384
 2606TIP3    H229378   3.109   4.515   7.596  0.7524  0.0684  1.2761
 2607TIP3   OH229379   4.234   2.794   1.791  0.8982  0.2928  0.0445
 2607TIP3    H129380   4.170   2.729   1.764  2.0899 -0.5972 -0.7451
 2607TIP3    H229381   4.282   2.753   1.863  0.2328  1.1860  1.0355
 2608TIP3   OH229382   1.792   0.114   3.004 -0.2327 -0.2081  0.2069
 2608TIP3    H129383   1.849   0.135   3.077 -0.8255  0.3911  0.5115
 2608TIP3    H229384   1.710   0.160   3.023 -0.7787 -0.9437 -0.2770
 2609TIP3   OH229385   2.877   0.099   1.466  0.3427  0.0359 -0.1397
 2609TIP3    H129386   2.825   0.039   1.520 -1.6360  1.2568 -0.5908
 2609TIP3    H229387   2.821   0.118   1.391  0.1858  3.6295  0.7180
 2610TIP3   OH229388   6.592   4.245   8.627 -0.1163 -0.4322 -0.4098
 2610TIP3    H129389   6.617   4.311   8.562  1.4677 -0.1255  0.4493
 2610TIP3    H229390   6.498   4.259   8.641 -0.1877  0.4179 -1.5868
 2611TIP3   OH229391   4.061   3.831   0.500 -0.6627 -0.3759 -0.0525
 2611TIP3    H129392   4.155   3.817   0.502 -0.2617  1.9522 -0.1818
 2611TIP3    H229393   4.033   3.796   0.415  0.1975 -0.4076 -0.3325
 2612TIP3   OH229394   3.703   2.645   7.424  0.8572 -0.5249 -0.4392
 2612TIP3    H129395   3.690   2.554   7.398  0.0996 -0.6771  0.3973
 2612TIP3    H229396   3.796   2.661   7.411  0.6224 -0.6850 -2.8299
 2613TIP3   OH229397   5.673   4.731   1.285 -0.0150  0.3140 -0.4649
 2613TIP3    H129398   5.595   4.744   1.232 -1.4641  1.4239  1.7703
 2613TIP3    H229399   5.699   4.641   1.268 -1.2112  0.2068 -1.9590
 2614TIP3   OH229400   3.198   1.845   2.078 -0.1556  0.0632  0.4009
 2614TIP3    H129401   3.113   1.829   2.120 -0.5773 -2.8013 -1.2790
 2614TIP3    H229402   3.176   1.883   1.993  0.5222  2.7858  1.3587
 2615TIP3   OH229403   2.499   4.156   8.508  0.5465 -0.0853  0.2447
 2615TIP3    H129404   2.479   4.180   8.417  2.0353 -0.4262 -0.1948
 2615TIP3    H229405   2.529   4.238   8.548  0.2053 -0.0061  0.3404
 2616TIP3   OH229406   4.365   3.875   2.552  0.3856  0.1504  0.0253
 2616TIP3    H129407   4.375   3.931   2.629  0.8228 -0.9002  0.7612
 2616TIP3    H229408   4.271   3.875   2.534  0.3745  1.0905  0.0108
 2617TIP3   OH229409   3.400   6.116   1.415 -0.0149  0.1069 -0.6483
 2617TIP3    H129410   3.332   6.094   1.351  0.0908  1.7112 -1.3683
 2617TIP3    H229411   3.482   6.104   1.367  0.2186 -1.2376  0.0337
 2618TIP3   OH229412   2.156   0.835   0.471 -0.8205  0.6113 -0.1388
 2618TIP3    H129413   2.080   0.782   0.448  0.9991 -1.1667 -2.5299
 2618TIP3    H229414   2.207   0.779   0.530 -0.2940  0.8754 -0.3385
 2619TIP3   OH229415   1.779   3.593   1.082  0.6446  0.0012  0.2580
 2619TIP3    H129416   1.874   3.603   1.068  0.5534  0.7383  0.1100
 2619TIP3    H229417   1.764   3.626   1.170  0.4286  0.5914  0.0098
 2620TIP3   OH229418   1.956   3.307   0.683  0.3667  0.6900 -0.0098
 2620TIP3    H129419   1.921   3.219   0.670  0.6979  0.7164 -1.2203
 2620TIP3    H229420   1.880   3.365   0.678  0.0920  0.4642  1.1936
 2621TIP3   OH229421   5.316   0.384   2.513 -0.3518 -0.4227 -0.3461
 2621TIP3    H129422   5.330   0.409   2.604  0.0921  1.1045 -0.7987
 2621TIP3    H229423   5.239   0.328   2.515 -0.5528 -0.1286  0.9290
 2622TIP3   OH229424   2.377   6.305   7.346 -0.0007 -0.1637  0.0426
 2622TIP3    H129425   2.358   6.341   7.260 -0.6395  0.4774  0.4327
 2622TIP3    H229426   2.472   6.302   7.351  0.0388 -1.0094 -0.9999
 2623TIP3   OH229427   6.482   2.161   2.461 -0.2081  0.4505  0.2542
 2623TIP3    H129428   6.416   2.166   2.392 -0.4701  0.2951  0.4910
 2623TIP3    H229429   6.470   2.075   2.500  0.7628  0.0399 -0.3172
 2624TIP3   OH229430   3.013   3.462   8.011 -0.7417 -0.1472 -0.0195
 2624TIP3    H129431   2.969   3.378   7.995 -3.8227  1.1657  0.6945
 2624TIP3    H229432   2.962   3.525   7.959  1.9794  1.2315 -1.1878
 2625TIP3   OH229433   1.531   3.719   1.423  0.2645 -0.2203 -0.2899
 2625TIP3    H129434   1.555   3.770   1.500  2.3940  0.5032 -1.3473
 2625TIP3    H229435   1.498   3.785   1.361 -0.4598 -0.6546 -0.3729
 2626TIP3   OH229436   5.249   2.517   0.207 -0.1166 -0.1091 -0.0330
 2626TIP3    H129437   5.310   2.588   0.229  0.2320 -0.5594  0.4999
 2626TIP3    H229438   5.225   2.479   0.291 -1.5113  0.3473 -0.2012
 2627TIP3   OH229439   0.356   3.165   0.480 -0.2807 -0.9947  0.3672
 2627TIP3    H129440   0.328   3.080   0.447  1.0493 -2.2328  2.1988
 2627TIP3    H229441   0.283   3.196   0.533 -0.9941 -0.6777 -0.7590
 2628TIP3   OH229442   2.808   3.499   1.054  0.4081 -0.0022 -0.4112
 2628TIP3    H129443   2.771   3.429   1.001 -1.5376 -0.1338  1.0189
 2628TIP3    H229444   2.835   3.565   0.991 -2.0748 -0.0261 -1.6046
 2629TIP3   OH229445   4.049   1.843   8.102 -0.0287 -0.2759 -0.3599
 2629TIP3    H129446   4.077   1.759   8.069  2.8648 -0.1645  1.4639
 2629TIP3    H229447   4.020   1.825   8.192 -1.0119  0.4317 -0.5187
 2630TIP3   OH229448   1.167   0.677   6.692  0.0493 -0.6219  0.2930
 2630TIP3    H129449   1.089   0.626   6.711 -0.2078 -0.0903  0.6753
 2630TIP3    H229450   1.134   0.762   6.663  0.4792 -0.5575 -0.0172
 2631TIP3   OH229451   0.369   4.110   0.061  0.5287 -0.1674 -0.2119
 2631TIP3    H129452   0.440   4.079   0.006  0.7257 -0.1428  0.0269
 2631TIP3    H229453   0.327   4.030   0.093 -2.7444 -0.4292 -4.2755
 2632TIP3   OH229454   2.466   6.252   8.632  0.2816  0.3281  0.4329
 2632TIP3    H129455   2.430   6.163   8.632  1.6317 -0.2404  0.0611
 2632TIP3    H229456   2.404   6.304   8.581 -1.3857 -0.0085  2.0051
 2633TIP3   OH229457   0.539   2.301   0.165  0.5130 -0.4957 -0.5557
 2633TIP3    H129458   0.629   2.329   0.181 -0.4450  2.2223  0.6381
 2633TIP3    H229459   0.545   2.242   0.090  3.5149 -2.1955  0.8521
 2634TIP3   OH229460   2.355   0.727   0.689  0.0707  0.3994  0.2004
 2634TIP3    H129461   2.353   0.635   0.715 -0.5390  0.3541 -0.0004
 2634TIP3    H229462   2.445   0.742   0.660 -0.0825 -0.4029 -0.7179
 2635TIP3   OH229463   0.946   4.186   7.927 -0.5377  0.2016 -0.1850
 2635TIP3    H129464   0.936   4.257   7.864  1.4243  0.6080 -0.1128
 2635TIP3    H229465   0.987   4.228   8.003  1.4092 -1.0901 -0.4448
 2636TIP3   OH229466   6.225   1.392   8.419 -0.3808 -0.2576  0.2359
 2636TIP3    H129467   6.140   1.365   8.455 -0.5476 -1.4601 -0.9891
 2636TIP3    H229468   6.220   1.487   8.415 -1.7374 -0.3133  0.0579
 2637TIP3   OH229469   6.300   4.275   7.963 -0.2691 -0.6533  0.4029
 2637TIP3    H129470   6.392   4.300   7.971 -0.8113  1.7137 -0.1786
 2637TIP3    H229471   6.303   4.181   7.943  2.1554 -0.1343 -2.3440
 2638TIP3   OH229472   4.292   0.469   8.933 -0.2381 -0.2286 -0.1584
 2638TIP3    H129473   4.271   0.418   8.855 -0.3838 -1.2891  0.5546
 2638TIP3    H229474   4.230   0.542   8.931 -0.5657 -0.5148 -0.7738
 2639TIP3   OH229475   1.275   3.594   6.332  0.1425  0.1002  0.3289
 2639TIP3    H129476   1.338   3.666   6.344  1.3400 -1.0879  1.5102
 2639TIP3    H229477   1.327   3.515   6.343 -1.3750 -0.9530  0.2219
 2640TIP3   OH229478   6.675   4.545   8.891 -0.2268  0.4905 -0.3469
 2640TIP3    H129479   6.594   4.494   8.883  0.4224 -0.5101 -0.5962
 2640TIP3    H229480   6.680   4.595   8.810 -0.3654  0.2174 -0.5235
 2641TIP3   OH229481   6.107   4.549   8.455 -0.4141  0.0857  0.7070
 2641TIP3    H129482   6.034   4.521   8.509 -2.5186  1.3618 -1.2874
 2641TIP3    H229483   6.115   4.481   8.388  0.6847 -0.3519  1.2480
 2642TIP3   OH229484   3.059   2.606   7.045 -0.4687 -0.2890 -0.3253
 2642TIP3    H129485   2.965   2.599   7.025 -0.6101  2.3265 -1.0042
 2642TIP3    H229486   3.062   2.655   7.127  0.2983  0.1473 -0.6061
 2643TIP3   OH229487   2.828   6.499   1.431 -0.0836 -0.4171  0.2955
 2643TIP3    H129488   2.822   6.528   1.339 -0.5222  0.2338  0.5242
 2643TIP3    H229489   2.781   6.416   1.433 -0.3403 -0.2834 -0.0101
 2644TIP3   OH229490   1.853   3.601   7.459 -0.5051  0.4885 -0.5943
 2644TIP3    H129491   1.876   3.649   7.538  0.5389  1.3649 -1.4103
 2644TIP3    H229492   1.864   3.509   7.483 -0.7032  0.7190  0.4253
 2645TIP3   OH229493   5.283   1.782   1.205 -0.1300 -0.1901  0.6352
 2645TIP3    H129494   5.326   1.861   1.239  4.0440 -1.2711 -1.5103
 2645TIP3    H229495   5.304   1.714   1.269  0.3792 -0.4838  0.1630
 2646TIP3   OH229496   1.837   4.865   0.805 -0.3660  0.0648 -0.0443
 2646TIP3    H129497   1.789   4.898   0.881 -0.8107 -1.6576  0.4562
 2646TIP3    H229498   1.911   4.817   0.843 -0.6206 -0.8509 -0.6800
 2647TIP3   OH229499   3.629   3.285   7.170 -0.1677  0.5043  0.0542
 2647TIP3    H129500   3.614   3.335   7.250  4.3694  1.7392  0.3955
 2647TIP3    H229501   3.643   3.352   7.103  1.7008 -0.3076 -0.4263
 2648TIP3   OH229502   4.637   6.640   8.754 -0.4030  0.4528  0.7206
 2648TIP3    H129503   4.693   6.564   8.742  1.7578  1.9250  0.9874
 2648TIP3    H229504   4.668   6.704   8.690 -1.9746  1.2466  0.6831
 2649TIP3   OH229505   1.357   5.577   8.413  0.1337 -0.3110 -0.2528
 2649TIP3    H129506   1.280   5.584   8.469 -0.3584 -0.8513 -0.8518
 2649TIP3    H229507   1.347   5.494   8.368  0.1809  0.4034 -1.6460
 2650TIP3   OH229508   2.518   5.465   8.084  0.1332  0.4986 -0.2903
 2650TIP3    H129509   2.507   5.531   8.016  0.8440  1.2128  0.2743
 2650TIP3    H229510   2.437   5.471   8.136  0.3512  1.1947 -0.0189
 2651TIP3   OH229511   1.841   2.615   1.631  0.4800  0.2337 -0.1188
 2651TIP3    H129512   1.832   2.520   1.637 -2.2209  0.2896 -1.6650
 2651TIP3    H229513   1.789   2.648   1.705 -0.0212  0.5184 -0.5974
 2652TIP3   OH229514   1.064   4.204   8.463 -0.1904  0.3687 -0.5162
 2652TIP3    H129515   1.074   4.275   8.526 -0.1671  0.7734 -0.9711
 2652TIP3    H229516   1.153   4.170   8.452 -0.2752 -0.0500  0.0646
 2653TIP3   OH229517   4.968   4.834   0.634 -0.1489 -0.1045  0.1383
 2653TIP3    H129518   4.946   4.806   0.545 -2.1958  0.4669  0.3977
 2653TIP3    H229519   4.937   4.763   0.690 -2.7947  1.2930  0.6117
 2654TIP3   OH229520   3.650   0.115   0.347 -0.7798  1.0903 -0.0147
 2654TIP3    H129521   3.679   0.026   0.365 -1.8399  1.1540  2.5007
 2654TIP3    H229522   3.574   0.105   0.290  0.0327  0.5331 -1.0413
 2655TIP3   OH229523   0.573   4.990   7.583  0.1714  0.1373 -0.0920
 2655TIP3    H129524   0.533   5.007   7.668 -0.7082 -0.7476 -0.2929
 2655TIP3    H229525   0.605   4.900   7.590  0.2632  0.1261 -0.6294
 2656TIP3   OH229526   1.061   0.672   3.035 -0.3302 -0.4743 -0.3183
 2656TIP3    H129527   1.017   0.719   2.964 -1.2250  0.8893  1.0660
 2656TIP3    H229528   0.995   0.611   3.068  0.0643 -1.0638 -0.5992
 2657TIP3   OH229529   0.186   1.790   7.836  0.4713 -0.5148 -0.0954
 2657TIP3    H129530   0.239   1.749   7.903  1.2547  0.6351  0.0231
 2657TIP3    H229531   0.148   1.867   7.878 -0.9571 -1.0674 -0.3071
 2658TIP3   OH229532   3.831   3.792   8.653  0.0946 -0.2742  0.2811
 2658TIP3    H129533   3.922   3.822   8.643 -0.2572  0.1450 -2.3435
 2658TIP3    H229534   3.834   3.699   8.630  0.1357 -0.7556  2.1163
 2659TIP3   OH229535   1.383   1.026   2.413 -0.1518 -0.3194  0.3151
 2659TIP3    H129536   1.416   1.010   2.325  0.7167  0.4955  0.4772
 2659TIP3    H229537   1.291   1.051   2.400  0.3120  1.0755 -0.4998
 2660TIP3   OH229538   0.334   1.849   2.699  0.1976 -0.5241  0.3306
 2660TIP3    H129539   0.352   1.799   2.778  0.6616  0.6306  0.9911
 2660TIP3    H229540   0.286   1.926   2.730  2.4796  1.1843 -0.1172
 2661TIP3   OH229541   5.456   6.426   1.434  0.3291 -0.4023 -0.0818
 2661TIP3    H129542   5.432   6.517   1.454  0.1299 -0.6813  1.0227
 2661TIP3    H229543   5.549   6.422   1.453  0.5300 -0.2173 -0.9799
 2662TIP3   OH229544   3.391   6.589   0.738  0.0975 -0.6302 -1.1923
 2662TIP3    H129545   3.464   6.635   0.696  1.3427 -1.5862 -0.1791
 2662TIP3    H229546   3.433   6.522   0.791 -1.3625  0.2874  1.3295
 2663TIP3   OH229547   4.535   4.858   2.080  0.0343 -0.7379  0.2721
 2663TIP3    H129548   4.521   4.764   2.093 -0.5742 -0.3662  2.7249
 2663TIP3    H229549   4.619   4.876   2.121 -0.7362  0.0775  1.5758
 2664TIP3   OH229550   1.108   3.446   8.151  0.4422 -0.5575 -0.1958
 2664TIP3    H129551   1.093   3.437   8.057 -0.8423  2.5006 -0.3949
 2664TIP3    H229552   1.027   3.414   8.192  1.2224 -2.4393 -0.0207
 2665TIP3   OH229553   3.603   2.958   0.440 -0.4407  0.3312  0.4560
 2665TIP3    H129554   3.630   2.941   0.530  0.4995  0.4011  0.1955
 2665TIP3    H229555   3.685   2.975   0.393 -0.9031  0.1220 -0.4478
 2666TIP3   OH229556   0.008   4.839   1.135 -0.0551 -0.1407 -0.3543
 2666TIP3    H129557  -0.086   4.823   1.122 -0.1428  0.1754 -0.1173
 2666TIP3    H229558   0.012   4.921   1.183  0.4174  1.7942 -3.4163
 2667TIP3   OH229559   3.276   5.300   6.831 -0.0058  0.1365 -0.2146
 2667TIP3    H129560   3.314   5.305   6.744 -0.9925  0.4184 -0.6471
 2667TIP3    H229561   3.225   5.218   6.831  0.0609  0.0924  0.1225
 2668TIP3   OH229562   0.122   4.743   2.279 -0.5837 -0.4029 -0.1336
 2668TIP3    H129563   0.173   4.793   2.216 -1.3748 -0.1283 -0.5767
 2668TIP3    H229564   0.177   4.739   2.358  0.1541 -0.2244 -0.6357
 2669TIP3   OH229565   0.770   5.758   0.815  0.1843  0.4452  0.1173
 2669TIP3    H129566   0.817   5.704   0.879 -1.4279 -0.4489  0.6065
 2669TIP3    H229567   0.803   5.729   0.730 -0.7269 -1.4734  0.3624
 2670TIP3   OH229568   2.427   3.584   7.544  0.4417  0.3196  0.8928
 2670TIP3    H129569   2.472   3.528   7.607  1.0553  1.6391  1.6786
 2670TIP3    H229570   2.495   3.645   7.514 -0.2635  0.8274  0.2935
 2671TIP3   OH229571   4.666   1.897   0.823 -0.2655 -0.1780  0.0444
 2671TIP3    H129572   4.574   1.868   0.822 -0.3572  0.1157 -1.1586
 2671TIP3    H229573   4.698   1.870   0.909 -1.1373 -1.3629  0.0285
 2672TIP3   OH229574   3.548   5.504   1.446 -0.0914 -0.1807  0.0090
 2672TIP3    H129575   3.636   5.518   1.479  0.2148  2.2062 -1.5740
 2672TIP3    H229576   3.491   5.553   1.505  0.0161  0.7766 -0.6565
 2673TIP3   OH229577   1.900   4.306   7.735 -0.0331 -0.4557 -0.0610
 2673TIP3    H129578   1.947   4.345   7.809 -0.1596  1.5522 -0.9813
 2673TIP3    H229579   1.819   4.271   7.774 -0.1547  0.6814  0.7530
 2674TIP3   OH229580   1.514   4.562   0.166 -0.1244 -0.2024 -0.6460
 2674TIP3    H129581   1.566   4.514   0.101  0.7430  0.3623 -0.3858
 2674TIP3    H229582   1.579   4.599   0.226 -0.8037  0.8736 -0.5495
 2675TIP3   OH229583   0.681   6.129   7.638 -0.0074  0.2980  0.0744
 2675TIP3    H129584   0.700   6.223   7.638  0.8937  0.1277 -0.6851
 2675TIP3    H229585   0.759   6.089   7.677  0.6919 -0.3208 -1.8726
 2676TIP3   OH229586   3.744   3.257   7.567  0.0152 -0.2292 -0.5772
 2676TIP3    H129587   3.816   3.240   7.627 -0.3517  0.0895 -0.0404
 2676TIP3    H229588   3.786   3.290   7.488  0.3747  1.2478  0.2059
 2677TIP3   OH229589   2.195   2.755   3.292 -0.5073 -0.0739 -0.5413
 2677TIP3    H129590   2.254   2.685   3.319 -1.5822 -0.4205  1.0161
 2677TIP3    H229591   2.253   2.823   3.256  0.7467 -0.7595  0.1393
 2678TIP3   OH229592   4.652   2.042   0.330  0.1225  0.2907 -0.1525
 2678TIP3    H129593   4.643   2.091   0.412  0.7993  0.1833 -0.0021
 2678TIP3    H229594   4.738   2.067   0.296 -0.5044  0.9710 -1.2740
 2679TIP3   OH229595   2.763   3.966   0.639  0.5877  0.1829  0.2055
 2679TIP3    H129596   2.698   3.933   0.577  0.6729 -0.4876  0.4541
 2679TIP3    H229597   2.837   3.906   0.629  2.0005  2.0915 -1.4883
 2680TIP3   OH229598   2.867   4.941   2.167  0.2009 -0.3170  0.6521
 2680TIP3    H129599   2.776   4.965   2.150  0.6383  0.6235 -0.5121
 2680TIP3    H229600   2.872   4.930   2.262 -1.0942 -0.3079  0.7384
 2681TIP3   OH229601   2.738   5.645   7.807  0.3577  0.5638 -0.2854
 2681TIP3    H129602   2.777   5.558   7.799  0.8621  0.7841 -0.2602
 2681TIP3    H229603   2.687   5.655   7.727 -3.5767 -1.6167  1.6376
 2682TIP3   OH229604   2.870   3.056   8.470 -0.1904 -0.2094 -0.0746
 2682TIP3    H129605   2.957   3.081   8.499 -0.6404  0.1736  0.9828
 2682TIP3    H229606   2.847   2.980   8.524 -1.2932  0.9004  1.0705
 2683TIP3   OH229607   4.157   3.837   8.377  0.2636  0.3093 -0.0272
 2683TIP3    H129608   4.113   3.858   8.295 -0.8265 -1.5858  0.0216
 2683TIP3    H229609   4.121   3.752   8.403  3.2886 -0.9326  0.5309
 2684TIP3   OH229610   5.837   3.677   1.732  0.3238  0.0806 -0.1692
 2684TIP3    H129611   5.773   3.719   1.675 -1.9274  1.3461  2.9569
 2684TIP3    H229612   5.921   3.714   1.706 -0.8541  2.0486 -1.3943
 2685TIP3   OH229613   0.532   4.756   8.321  0.1717  0.1771 -0.9815
 2685TIP3    H129614   0.569   4.672   8.348  0.1180  0.3002 -0.5104
 2685TIP3    H229615   0.445   4.734   8.288 -0.7864  0.2638  1.2538
 2686TIP3   OH229616   3.691   1.593   2.005 -0.2324  0.2267 -0.6281
 2686TIP3    H129617   3.681   1.687   1.993 -1.1347  0.1491 -0.4909
 2686TIP3    H229618   3.607   1.563   2.039  0.4743 -0.4318  0.5994
 2687TIP3   OH229619   3.760   4.238   1.779  0.0739 -0.2372 -1.1127
 2687TIP3    H129620   3.850   4.266   1.767  0.5982 -1.2220  0.2649
 2687TIP3    H229621   3.709   4.319   1.774  0.9312  0.2521 -2.5706
 2688TIP3   OH229622   6.396   5.984   8.308  0.3874  0.4835  0.5609
 2688TIP3    H129623   6.466   5.921   8.327 -0.5208 -0.2463  1.5918
 2688TIP3    H229624   6.415   6.058   8.366 -0.0958 -0.0284  1.3887
 2689TIP3   OH229625   2.492   6.447   2.919 -0.0886 -0.0597  0.3322
 2689TIP3    H129626   2.427   6.511   2.890 -1.9019 -1.4392  1.0937
 2689TIP3    H229627   2.494   6.456   3.014  1.2376  0.2952  0.2883
 2690TIP3   OH229628   3.889   5.286   2.085  0.2428 -0.2782 -0.0986
 2690TIP3    H129629   3.887   5.300   2.179  3.3733 -0.4011  0.0908
 2690TIP3    H229630   3.981   5.296   2.061 -0.2391 -1.6027 -2.9433
 2691TIP3   OH229631   4.531   3.314   1.746  0.2149 -0.1721 -0.5870
 2691TIP3    H129632   4.554   3.390   1.692  1.7220 -0.4564 -0.3875
 2691TIP3    H229633   4.572   3.240   1.702  2.7455 -0.2385  1.6299
 2692TIP3   OH229634   5.981   2.478   8.628  0.7020  0.1225  0.7621
 2692TIP3    H129635   6.064   2.520   8.606  1.0470  0.4595  2.5637
 2692TIP3    H229636   5.954   2.519   8.711  0.0103 -1.7343  1.5152
 2693TIP3   OH229637   1.196   0.004   1.796 -0.3854 -0.1399  0.2140
 2693TIP3    H129638   1.202   0.025   1.703  1.2177 -1.3953 -0.0137
 2693TIP3    H229639   1.280  -0.038   1.817  0.0031  1.5657  2.6172
 2694TIP3   OH229640   2.018   6.299   7.081  0.0487  0.0361 -1.0917
 2694TIP3    H129641   2.082   6.228   7.088 -1.0248 -0.9841 -1.3374
 2694TIP3    H229642   1.933   6.255   7.077 -1.3546  1.2962  4.8467
 2695TIP3   OH229643   4.877   0.354   0.346  0.6344 -0.0234  0.4519
 2695TIP3    H129644   4.819   0.422   0.312  0.3587 -0.4751 -0.0026
 2695TIP3    H229645   4.951   0.402   0.383  0.7276  0.5089 -0.3817
 2696TIP3   OH229646   5.683   5.133   1.391 -0.3788  0.7072  0.5016
 2696TIP3    H129647   5.722   5.220   1.403  1.0523 -0.1492  2.5877
 2696TIP3    H229648   5.746   5.086   1.337 -1.2586  0.9753 -0.8136
 2697TIP3   OH229649   2.232   4.292   8.402 -0.2799  0.2051 -0.5861
 2697TIP3    H129650   2.311   4.268   8.354  1.9385  3.3984  1.1476
 2697TIP3    H229651   2.203   4.373   8.360  0.0519  1.4897  1.5445
 2698TIP3   OH229652   6.374   5.772   7.689 -0.5716  0.0900  0.3795
 2698TIP3    H129653   6.418   5.729   7.763 -1.0073 -1.0137  0.0220
 2698TIP3    H229654   6.386   5.865   7.705  0.2490 -0.1505  1.2911
 2699TIP3   OH229655   3.977   2.017   1.021 -0.2601  0.7879  0.1573
 2699TIP3    H129656   3.921   1.988   0.948  2.2228 -1.5273 -0.9873
 2699TIP3    H229657   3.970   2.113   1.019  0.2150  0.8916 -3.6194
 2700TIP3   OH229658   4.546   5.350   2.091  0.2625  0.2400  0.2448
 2700TIP3    H129659   4.621   5.304   2.128  1.5467  1.2964 -0.9517
 2700TIP3    H229660   4.532   5.425   2.149 -0.6040 -0.5369  1.0864
 2701TIP3   OH229661   3.604   4.058   1.624  0.0526  0.2517 -0.2612
 2701TIP3    H129662   3.662   4.100   1.687  0.9345  1.3463 -1.7217
 2701TIP3    H229663   3.662   4.024   1.556 -0.8853 -0.4669 -0.7386
 2702TIP3   OH229664   2.251   0.483   1.213  0.7212 -0.2413 -0.4474
 2702TIP3    H129665   2.198   0.448   1.141  0.5713  0.9942 -0.9667
 2702TIP3    H229666   2.246   0.417   1.282 -1.7661 -0.0350 -0.3561
 2703TIP3   OH229667   2.755   6.510   7.352 -0.1823  0.3301 -0.1299
 2703TIP3    H129668   2.785   6.597   7.376  1.7627 -0.2282 -0.3893
 2703TIP3    H229669   2.749   6.512   7.256  1.0987 -0.1638 -0.2383
 2704TIP3   OH229670   2.969   1.913   8.805  0.3500 -0.3764  0.6992
 2704TIP3    H129671   2.963   2.008   8.803  1.0995 -0.3212 -0.6521
 2704TIP3    H229672   3.063   1.895   8.809  0.2475 -1.0440  0.3776
 2705TIP3   OH229673   4.708   6.611   8.276  0.2796 -0.1078  0.5092
 2705TIP3    H129674   4.680   6.541   8.217  2.4722 -0.4310 -0.2196
 2705TIP3    H229675   4.803   6.600   8.284  0.7736  2.9648  0.1036
 2706TIP3   OH229676   2.904   4.347   1.103 -0.8131 -0.5336  0.7145
 2706TIP3    H129677   2.857   4.431   1.105 -0.5582 -0.3600 -0.0828
 2706TIP3    H229678   2.838   4.283   1.075 -0.9354 -0.5459  1.0332
 2707TIP3   OH229679   2.872   0.502   2.391  0.1343  0.4940 -0.5045
 2707TIP3    H129680   2.846   0.417   2.428  0.1526  1.4159  1.7864
 2707TIP3    H229681   2.942   0.533   2.448  0.7442  1.6676 -1.8356
 2708TIP3   OH229682   0.597   5.135   8.566 -0.2700  0.0092  0.7625
 2708TIP3    H129683   0.673   5.080   8.584 -0.0944 -0.8959 -2.2431
 2708TIP3    H229684   0.527   5.072   8.546 -0.6784  0.8292 -0.5072
 2709TIP3   OH229685   6.554   1.351   1.168  0.6076  0.1630  0.0297
 2709TIP3    H129686   6.544   1.267   1.123  1.0939  1.0246 -1.7448
 2709TIP3    H229687   6.485   1.406   1.132  1.2973  1.0192  0.0030
 2710TIP3   OH229688   2.708   2.332   6.918  0.5885 -0.1721 -0.2823
 2710TIP3    H129689   2.629   2.286   6.891  1.7535 -1.6385 -1.4197
 2710TIP3    H229690   2.778   2.268   6.904  2.2646  1.8018 -1.5244
 2711TIP3   OH229691   3.006   0.452   2.018 -0.5693 -0.5194 -0.2870
 2711TIP3    H129692   3.000   0.415   1.930  1.8578  0.7136 -1.0545
 2711TIP3    H229693   3.012   0.376   2.075 -1.3339 -1.3264 -1.2304
 2712TIP3   OH229694   2.405   3.952   0.578  0.7743  0.3674 -0.3304
 2712TIP3    H129695   2.329   4.011   0.574  1.1755  0.8257 -1.6728
 2712TIP3    H229696   2.379   3.885   0.642  0.7980  2.6236  2.2282
 2713TIP3   OH229697   3.865   3.971   7.607 -0.4604 -0.1024 -0.2846
 2713TIP3    H129698   3.920   4.019   7.545  0.0498 -0.1137  0.1543
 2713TIP3    H229699   3.776   3.992   7.581 -0.2530 -0.2005 -1.0992
 2714TIP3   OH229700   1.783   4.826   1.953  0.2903 -0.1447  0.0046
 2714TIP3    H129701   1.748   4.867   2.032 -0.0487 -1.6121  0.6414
 2714TIP3    H229702   1.878   4.834   1.962  0.2827 -0.8300  0.8835
 2715TIP3   OH229703   5.601   0.120   8.051  0.0573 -0.1583  0.1264
 2715TIP3    H129704   5.621   0.131   7.958 -3.4452 -0.1162 -0.7457
 2715TIP3    H229705   5.660   0.182   8.095 -0.4083  2.2555 -2.3689
 2716TIP3   OH229706   3.520   4.576   8.931  0.4325 -0.2402  0.6654
 2716TIP3    H129707   3.441   4.550   8.979  2.5978 -2.9208  3.1031
 2716TIP3    H229708   3.528   4.511   8.862  0.2251  0.3930  0.0358
 2717TIP3   OH229709   3.778   1.485   0.733 -0.7506 -0.1035 -0.7183
 2717TIP3    H129710   3.810   1.575   0.724 -1.3310  0.5808  2.5468
 2717TIP3    H229711   3.840   1.443   0.793 -2.5376 -0.6086  0.8932
 2718TIP3   OH229712   2.048   0.566   3.325  0.6611 -0.3113  0.2035
 2718TIP3    H129713   2.021   0.560   3.234  1.5545 -1.6430 -0.0103
 2718TIP3    H229714   1.969   0.591   3.372 -0.6664 -2.7430 -0.5408
 2719TIP3   OH229715   0.928   4.291   1.989 -0.3512  0.0844 -0.6699
 2719TIP3    H129716   0.955   4.363   2.046  0.9883 -1.1505  0.3457
 2719TIP3    H229717   0.880   4.232   2.047 -1.2017  0.0144 -1.4275
 2720TIP3   OH229718   2.757   4.452   0.515 -0.2294 -0.2600  0.2393
 2720TIP3    H129719   2.834   4.399   0.535 -0.4429 -0.1523  1.3980
 2720TIP3    H229720   2.688   4.415   0.570 -0.5908  0.6927  0.4326
 2721TIP3   OH229721   2.937   4.833   7.167  0.0233  0.1929 -0.1974
 2721TIP3    H129722   2.923   4.739   7.158  0.1201  0.2381 -0.8658
 2721TIP3    H229723   2.933   4.849   7.262  1.8152 -0.7698  0.0812
 2722TIP3   OH229724   3.559   3.512   8.838  0.5281  0.1653  0.0014
 2722TIP3    H129725   3.650   3.542   8.834  1.1013 -1.5819 -1.6224
 2722TIP3    H229726   3.545   3.466   8.755 -2.0420  0.8835 -0.0366
 2723TIP3   OH229727   5.970   1.647   1.119  0.5727  0.2889  0.4219
 2723TIP3    H129728   6.031   1.632   1.047  1.3085  1.0357  0.8711
 2723TIP3    H229729   5.975   1.568   1.173 -1.0082 -0.8850 -1.0303
 2724TIP3   OH229730   2.663   0.192   1.290  0.3179 -0.1279 -0.5229
 2724TIP3    H129731   2.671   0.253   1.363 -1.9444 -1.5210  1.0243
 2724TIP3    H229732   2.632   0.245   1.217 -0.0171  0.8312  0.3018
 2725TIP3   OH229733   1.018   4.339   7.198 -0.1370  0.0292  0.0231
 2725TIP3    H129734   1.035   4.266   7.138 -1.2617 -0.0971 -0.1726
 2725TIP3    H229735   0.999   4.413   7.140 -2.2048 -0.3253  0.1684
 2726TIP3   OH229736   5.352   2.245   0.382 -0.7398 -0.1583 -0.1066
 2726TIP3    H129737   5.397   2.170   0.343 -1.3988 -0.8357  0.4006
 2726TIP3    H229738   5.406   2.270   0.457  0.3925  0.9841 -1.2443
 2727TIP3   OH229739   1.439   2.597   8.020 -0.5822  0.4438  0.3648
 2727TIP3    H129740   1.469   2.566   7.934 -1.0897  0.1742  0.2733
 2727TIP3    H229741   1.375   2.531   8.047 -4.1087  2.8774 -1.2682
 2728TIP3   OH229742   2.769   4.898   0.366  0.1305 -0.2936 -0.2292
 2728TIP3    H129743   2.701   4.845   0.408 -1.2116 -0.0392 -1.9570
 2728TIP3    H229744   2.743   4.988   0.384 -0.0863 -0.1922 -1.0224
 2729TIP3   OH229745   0.297   3.787   1.354  0.4466  0.7759  0.1773
 2729TIP3    H129746   0.289   3.815   1.263 -0.9042  0.5444  0.2039
 2729TIP3    H229747   0.215   3.742   1.373  1.7429 -1.4738  0.7571
 2730TIP3   OH229748   6.504   2.802   8.013  0.7302  0.1128 -0.0177
 2730TIP3    H129749   6.421   2.775   7.975  1.2043 -0.0663 -0.9300
 2730TIP3    H229750   6.479   2.851   8.092 -0.3810  2.3977 -1.6855
 2731TIP3   OH229751   4.574   2.416   0.743  0.9978 -0.1935  0.1802
 2731TIP3    H129752   4.644   2.444   0.802  0.2106  0.9029  0.6306
 2731TIP3    H229753   4.494   2.454   0.780  0.2989 -0.5991 -0.8546
 2732TIP3   OH229754   6.402   3.188   7.908  0.2611  0.1561  0.5557
 2732TIP3    H129755   6.496   3.199   7.922  0.2573 -0.8674  1.4340
 2732TIP3    H229756   6.390   3.205   7.814  1.4169 -0.3546  0.3048
 2733TIP3   OH229757   4.488   2.632   1.730  0.5499 -0.1444  0.0068
 2733TIP3    H129758   4.424   2.565   1.705 -0.0704  1.1492 -2.1554
 2733TIP3    H229759   4.493   2.626   1.825 -1.9352 -1.0765  0.1522
 2734TIP3   OH229760   2.072   6.011   2.386 -0.0576 -0.4476 -0.7379
 2734TIP3    H129761   2.154   5.961   2.397  0.0046 -0.0631  0.7201
 2734TIP3    H229762   2.004   5.954   2.421  0.0482  0.5327  1.2146
 2735TIP3   OH229763   6.117   5.908   1.902  1.1237 -0.3083 -0.0657
 2735TIP3    H129764   6.059   5.976   1.935  0.8730 -0.4756 -0.1513
 2735TIP3    H229765   6.058   5.836   1.879  1.0993  0.3372 -2.3109
 2736TIP3   OH229766   2.017   1.010   1.305  0.0774  0.3983 -0.0153
 2736TIP3    H129767   2.007   1.094   1.260 -1.4290  0.2067 -0.0805
 2736TIP3    H229768   2.008   1.031   1.398  0.3321  0.3900  0.0125
 2737TIP3   OH229769   5.786   2.480   6.979  0.4214 -0.0672  0.2764
 2737TIP3    H129770   5.755   2.564   7.012  1.2678  0.0432  0.8288
 2737TIP3    H229771   5.869   2.500   6.936  0.5802 -0.5976  0.3251
 2738TIP3   OH229772   6.312   0.366   7.410  0.5711 -0.2406 -0.5584
 2738TIP3    H129773   6.331   0.419   7.333  1.9642  0.5573  0.2987
 2738TIP3    H229774   6.346   0.279   7.388  2.1498  0.3063 -0.3770
 2739TIP3   OH229775   0.763   3.310   7.793 -0.6047  0.2941 -0.1661
 2739TIP3    H129776   0.721   3.344   7.871  0.3402  0.2134  0.3932
 2739TIP3    H229777   0.710   3.344   7.720 -1.3687  0.5345  0.4914
 2740TIP3   OH229778   3.229   3.513   2.758 -0.1494 -0.0377 -0.0412
 2740TIP3    H129779   3.215   3.422   2.786  0.4653 -0.0174  0.3517
 2740TIP3    H229780   3.235   3.508   2.662  2.0947 -0.7523  0.0701
 2741TIP3   OH229781   3.527   1.089   8.591 -0.0860  0.2251 -0.3748
 2741TIP3    H129782   3.552   1.176   8.561 -1.0374  0.2160 -1.2695
 2741TIP3    H229783   3.605   1.035   8.576  0.6763  1.0177  0.6626
 2742TIP3   OH229784   2.617   4.014   0.885 -0.5485 -0.0716 -0.2352
 2742TIP3    H129785   2.688   4.018   0.821 -0.4145  0.8329 -0.0485
 2742TIP3    H229786   2.563   4.091   0.865 -0.4695  0.2649  0.7695
 2743TIP3   OH229787   1.710   2.456   7.875 -0.1362  0.3714 -0.0711
 2743TIP3    H129788   1.622   2.487   7.854 -0.3782  1.5760  2.3906
 2743TIP3    H229789   1.768   2.505   7.817 -0.8459  2.4187  0.8696
 2744TIP3   OH229790   1.593   1.556   8.498 -0.0286  0.7910  0.2601
 2744TIP3    H129791   1.600   1.462   8.482  1.8251  1.0329 -0.6021
 2744TIP3    H229792   1.517   1.565   8.556 -0.2378 -1.2231  0.3666
 2745TIP3   OH229793   1.090   3.490   0.111  0.2736  0.2242 -0.1631
 2745TIP3    H129794   1.088   3.520   0.020  0.8200 -1.1319 -0.6405
 2745TIP3    H229795   1.027   3.418   0.114  0.8220 -0.2453  0.3354
 2746TIP3   OH229796   4.419   4.151   8.030 -0.6983 -0.0516 -0.2323
 2746TIP3    H129797   4.497   4.101   8.007  1.2513  2.2748  0.8005
 2746TIP3    H229798   4.368   4.092   8.085  1.0497 -1.2430  0.2115
 2747TIP3   OH229799   2.297   1.563   1.756 -0.3572 -0.3243  0.1615
 2747TIP3    H129800   2.241   1.640   1.748  0.6255  0.4463  0.4367
 2747TIP3    H229801   2.368   1.579   1.694 -0.1150 -0.9856  0.2611
 2748TIP3   OH229802   5.008   0.738   8.049  0.1920 -0.2069 -0.1937
 2748TIP3    H129803   5.095   0.700   8.041  0.4755  0.5303 -0.7283
 2748TIP3    H229804   4.994   0.784   7.967  0.0646  1.2143  0.5831
 2749TIP3   OH229805   5.170   5.918   8.598 -0.3244 -0.1047 -0.5002
 2749TIP3    H129806   5.192   5.956   8.513  0.4675 -0.7914 -0.6144
 2749TIP3    H229807   5.091   5.965   8.625 -0.7145 -0.0214 -1.7088
 2750TIP3   OH229808   0.053   4.673   8.591  0.3035 -0.4035  0.2040
 2750TIP3    H129809   0.016   4.603   8.537  1.8240  0.1473 -1.6560
 2750TIP3    H229810  -0.022   4.706   8.642 -1.1193 -1.2377 -1.2592
 2751TIP3   OH229811   5.262   1.561   2.159  0.6918  0.5212  0.2359
 2751TIP3    H129812   5.259   1.524   2.070 -0.1270  0.9016  0.0885
 2751TIP3    H229813   5.314   1.641   2.149  1.0107  0.3119  0.2010
 2752TIP3   OH229814   4.877   0.141   0.176  0.2088  0.1021 -0.1469
 2752TIP3    H129815   4.908   0.193   0.249 -2.5643 -0.9924  2.0071
 2752TIP3    H229816   4.890   0.196   0.099  1.2441  2.1960  1.4448
 2753TIP3   OH229817   0.433   4.375   0.071 -0.2022  0.4966  0.2989
 2753TIP3    H129818   0.349   4.418   0.089 -0.5801 -0.2488  0.3239
 2753TIP3    H229819   0.412   4.282   0.064  0.5981  0.3208  0.1383
 2754TIP3   OH229820   5.596   5.400   0.583  0.9366 -0.1018 -0.3357
 2754TIP3    H129821   5.604   5.474   0.522  0.1423 -0.1479 -0.5101
 2754TIP3    H229822   5.686   5.374   0.601  1.2178  0.6654 -0.5733
 2755TIP3   OH229823   3.279   2.346   2.204 -0.5276  0.1927  0.1314
 2755TIP3    H129824   3.340   2.412   2.236 -0.2628  0.2471 -0.4747
 2755TIP3    H229825   3.331   2.291   2.146 -1.0527  0.2454 -0.4030
 2756TIP3   OH229826   3.393   0.165   1.956  0.0013 -0.0831  0.5945
 2756TIP3    H129827   3.388   0.144   2.049 -0.3339  0.4979  0.7169
 2756TIP3    H229828   3.486   0.162   1.935  0.0772 -0.2139  0.9521
 2757TIP3   OH229829   2.862   2.634   0.765  0.1982 -0.4086 -0.1888
 2757TIP3    H129830   2.795   2.582   0.810 -0.7229  0.7882 -0.1201
 2757TIP3    H229831   2.945   2.602   0.800 -0.3729 -1.3971  0.3020
 2758TIP3   OH229832   2.414   3.528   1.314  0.6282 -0.2684 -0.1077
 2758TIP3    H129833   2.399   3.447   1.362 -2.6804  1.2015  1.6837
 2758TIP3    H229834   2.506   3.547   1.327  1.4335 -3.4814 -0.3054
 2759TIP3   OH229835   1.045   2.991   7.218  0.2412 -0.3816 -0.0492
 2759TIP3    H129836   1.043   3.078   7.178  1.9354 -0.7356 -1.0002
 2759TIP3    H229837   1.026   2.931   7.146  4.8150 -1.1374 -0.9268
 2760TIP3   OH229838   4.902   2.310   2.561 -0.4500 -0.0224 -0.4778
 2760TIP3    H129839   4.813   2.286   2.533 -0.7621 -1.4183  1.4326
 2760TIP3    H229840   4.920   2.251   2.634  2.3366 -0.2087 -1.2099
 2761TIP3   OH229841   6.283   5.826   6.755  0.1452  0.0355  0.3276
 2761TIP3    H129842   6.301   5.776   6.835  0.3453 -0.5534 -0.0750
 2761TIP3    H229843   6.337   5.783   6.688  0.7695  1.1526  0.0825
 2762TIP3   OH229844   4.169   4.161   2.344 -0.0958 -0.0679 -0.3100
 2762TIP3    H129845   4.229   4.165   2.419  2.2717  0.4136 -2.0922
 2762TIP3    H229846   4.084   4.139   2.382  0.8745  0.6761  2.5439
 2763TIP3   OH229847   5.259   2.664   7.309  0.1973 -0.5867 -0.1761
 2763TIP3    H129848   5.352   2.686   7.308 -0.3056  2.0892  1.3446
 2763TIP3    H229849   5.256   2.573   7.340  2.2554 -0.0205  2.0040
 2764TIP3   OH229850   1.239   2.363   8.095 -0.0510 -0.2561 -0.2003
 2764TIP3    H129851   1.272   2.413   8.169  0.4306  0.5422 -0.9407
 2764TIP3    H229852   1.195   2.427   8.040 -0.3248 -0.8244 -0.6585
 2765TIP3   OH229853   0.211   6.744   2.297 -0.3755 -0.0735  0.1971
 2765TIP3    H129854   0.239   6.701   2.216  0.5707  0.0751  0.4292
 2765TIP3    H229855   0.262   6.825   2.300 -0.2828 -0.1533  1.0166
 2766TIP3   OH229856   6.742   0.477   8.315 -0.3716 -0.0046 -0.7797
 2766TIP3    H129857   6.759   0.387   8.344  2.1942  0.1295 -1.6197
 2766TIP3    H229858   6.721   0.469   8.222 -1.1611  0.1909 -0.6222
 2767TIP3   OH229859   0.069   4.617   2.645  0.0892 -0.7342 -0.4471
 2767TIP3    H129860   0.155   4.613   2.604  1.2270  0.4227  1.6450
 2767TIP3    H229861   0.065   4.705   2.683 -1.0136 -1.5570  1.4810
 2768TIP3   OH229862   6.409   2.054   7.613 -0.0166 -0.7808 -0.5695
 2768TIP3    H129863   6.437   2.065   7.704  1.4748 -0.6778 -1.0201
 2768TIP3    H229864   6.313   2.048   7.619  0.0982 -1.9241  1.1137
 2769TIP3   OH229865   0.681   0.397   2.164  0.1072  0.1839  0.4300
 2769TIP3    H129866   0.683   0.302   2.166  0.0969  0.1941  2.6106
 2769TIP3    H229867   0.601   0.418   2.116  0.7812 -0.8371 -1.2619
 2770TIP3   OH229868   0.265   2.121   1.709 -0.1145 -0.0763  0.1182
 2770TIP3    H129869   0.277   2.102   1.616  1.8833 -0.6166  0.4341
 2770TIP3    H229870   0.354   2.135   1.742 -0.7278 -0.4420  2.0592
 2771TIP3   OH229871   1.423   4.469   1.319 -0.1670 -0.0859 -0.2239
 2771TIP3    H129872   1.418   4.559   1.287  0.3898  0.1103  0.2142
 2771TIP3    H229873   1.491   4.472   1.386  0.8408 -1.1169 -1.1667
 2772TIP3   OH229874   3.067   6.620   1.386 -0.2392 -0.4079 -0.1411
 2772TIP3    H129875   3.111   6.552   1.437 -0.6579 -0.0351  0.7454
 2772TIP3    H229876   2.975   6.610   1.408 -0.3027  0.4489  0.0032
 2773TIP3   OH229877   6.476   0.344   8.777 -0.1975  0.1400 -1.0566
 2773TIP3    H129878   6.458   0.434   8.803 -1.7117 -0.8872  1.8330
 2773TIP3    H229879   6.547   0.316   8.834 -1.2054 -1.1113 -0.3480
 2774TIP3   OH229880   2.425   5.949   0.931  0.1731 -0.2175 -0.4814
 2774TIP3    H129881   2.347   5.935   0.878 -0.1169 -1.0969  0.1626
 2774TIP3    H229882   2.395   6.000   1.006 -0.4505 -2.9729  1.2803
 2775TIP3   OH229883   3.612   1.506   8.821  0.0709  0.1505 -0.8377
 2775TIP3    H129884   3.568   1.455   8.889 -0.8881  0.6280 -1.0908
 2775TIP3    H229885   3.693   1.458   8.804 -1.2552 -1.8606 -1.7728
 2776TIP3   OH229886   5.288   1.396   1.064 -0.2123 -0.1760  0.2594
 2776TIP3    H129887   5.320   1.408   0.974 -0.3276 -0.4977  0.1742
 2776TIP3    H229888   5.198   1.429   1.062 -0.4490 -0.8116  0.0834
 2777TIP3   OH229889   5.297   4.333   7.057 -0.0294  0.1102  0.1765
 2777TIP3    H129890   5.329   4.385   7.130 -1.8950  0.1414  1.0331
 2777TIP3    H229891   5.318   4.243   7.081  1.4161  0.2752 -0.3703
 2778TIP3   OH229892   4.685   5.393   0.958 -0.0223 -0.0220  0.2175
 2778TIP3    H129893   4.724   5.307   0.938 -0.4393  0.1395 -1.4492
 2778TIP3    H229894   4.746   5.456   0.918  0.9970  0.5844  2.5754
 2779TIP3   OH229895   5.628   5.120   8.149  0.0259  0.0656 -0.1185
 2779TIP3    H129896   5.629   5.180   8.074  1.2568 -0.8700 -0.8812
 2779TIP3    H229897   5.700   5.059   8.132 -0.2174 -0.6864  1.4117
 2780TIP3   OH229898   4.886   1.542   7.908  0.2719  0.0126 -0.2337
 2780TIP3    H129899   4.976   1.509   7.909  0.4052  0.3763  0.2774
 2780TIP3    H229900   4.893   1.632   7.938 -0.2694  0.0282 -0.1384
 2781TIP3   OH229901   3.752   5.675   8.820 -0.2115  0.1817  0.0962
 2781TIP3    H129902   3.787   5.597   8.776 -1.4883 -1.4964  1.8674
 2781TIP3    H229903   3.675   5.698   8.769 -1.6617 -1.7248  1.2803
 2782TIP3   OH229904   2.892   5.390   1.374  0.0794  0.4416  0.0413
 2782TIP3    H129905   2.825   5.360   1.436  0.8629 -0.5883  0.4195
 2782TIP3    H229906   2.975   5.373   1.418  0.6170  0.8099 -0.8124
 2783TIP3   OH229907   2.719   4.123   1.144  0.0057  0.5777 -0.1659
 2783TIP3    H129908   2.669   4.089   1.070 -2.0518 -0.4249  1.5452
 2783TIP3    H229909   2.794   4.064   1.151  0.4219  0.8983 -1.6185
 2784TIP3   OH229910   2.974   2.442   2.526  0.3136 -0.9671 -0.0651
 2784TIP3    H129911   2.885   2.473   2.543  0.5917  0.7603 -1.4208
 2784TIP3    H229912   2.961   2.357   2.484 -0.6908 -0.8539 -0.0226
 2785TIP3   OH229913   4.156   5.277   2.075 -0.3096  0.5110 -0.3580
 2785TIP3    H129914   4.214   5.219   2.026 -2.4300 -3.0324  0.9051
 2785TIP3    H229915   4.192   5.276   2.164 -0.8884  0.2982 -0.1194
 2786TIP3   OH229916   5.941   0.111   8.204 -0.1462 -0.4711 -0.3216
 2786TIP3    H129917   6.031   0.099   8.173 -0.0032 -1.7661  0.5228
 2786TIP3    H229918   5.908   0.184   8.152  1.1567 -0.4292 -1.1504
 2787TIP3   OH229919   6.287   5.805   8.010 -0.4211  0.0120 -0.1510
 2787TIP3    H129920   6.232   5.863   8.063  0.7633  3.0704 -1.9782
 2787TIP3    H229921   6.237   5.793   7.929  0.1962  0.1836 -0.5626
 2788TIP3   OH229922   0.410   0.623   2.486 -0.0995 -0.6533  0.3286
 2788TIP3    H129923   0.480   0.559   2.493  0.1307 -0.2856  1.6405
 2788TIP3    H229924   0.353   0.605   2.561  0.2446  0.9823  1.0244
 2789TIP3   OH229925   4.283   5.544   0.107  0.2932 -0.0964 -0.0262
 2789TIP3    H129926   4.244   5.631   0.113 -1.3609 -0.8082  0.3886
 2789TIP3    H229927   4.377   5.559   0.096 -0.2096  1.7629 -2.6247
 2790TIP3   OH229928   5.834   5.266   7.080 -0.3538 -1.0150  0.3545
 2790TIP3    H129929   5.829   5.361   7.094  0.9822 -0.9201  0.3612
 2790TIP3    H229930   5.926   5.250   7.059 -0.4594 -2.3724  0.8099
 2791TIP3   OH229931   5.610   1.284   7.440  0.4269 -0.6902  0.1444
 2791TIP3    H129932   5.641   1.358   7.493  1.0261  0.4941 -1.7355
 2791TIP3    H229933   5.536   1.319   7.390 -0.1189 -1.7604  0.1653
 2792TIP3   OH229934   2.065   5.155   0.286 -0.5755  0.0537  0.4384
 2792TIP3    H129935   2.113   5.191   0.212  0.9472  0.2411  1.4553
 2792TIP3    H229936   2.114   5.186   0.363 -1.6675 -0.7336  1.4863
 2793TIP3   OH229937   1.029   5.894   8.666  0.0467 -0.0674 -0.7137
 2793TIP3    H129938   0.957   5.921   8.609 -1.9978 -0.4686  1.4945
 2793TIP3    H229939   1.108   5.922   8.621 -1.5417  1.4376 -2.7330
 2794TIP3   OH229940   5.456   5.176   2.176 -0.5712 -0.4110 -0.3041
 2794TIP3    H129941   5.487   5.195   2.264 -1.2469 -2.0269  0.3176
 2794TIP3    H229942   5.386   5.239   2.160  2.1704  2.6389 -1.3447
 2795TIP3   OH229943   3.769   2.544   0.142  0.4006 -0.5551  0.0353
 2795TIP3    H129944   3.864   2.549   0.142  0.3962  1.0256  2.3337
 2795TIP3    H229945   3.742   2.608   0.075  0.9702  0.0860  0.4037
 2796TIP3   OH229946   1.317   1.003   0.314  0.5538  0.0383 -0.2345
 2796TIP3    H129947   1.363   0.950   0.248  2.5980  1.4376 -0.0384
 2796TIP3    H229948   1.245   1.044   0.266  0.3249 -1.1067 -0.9096
 2797TIP3   OH229949   1.213   0.476   8.437 -0.3695  0.8004  0.2948
 2797TIP3    H129950   1.127   0.449   8.470 -0.4018 -0.5095 -0.7944
 2797TIP3    H229951   1.196   0.500   8.346  0.5946 -0.5527 -0.2673
 2798TIP3   OH229952   0.781   1.893   7.660 -0.5980 -0.0176  0.5478
 2798TIP3    H129953   0.760   1.974   7.706 -0.6274 -0.2413  0.9356
 2798TIP3    H229954   0.875   1.898   7.643 -0.8645  0.7975 -0.8218
 2799TIP3   OH229955   2.955   4.737   0.951 -0.0264 -0.0648 -0.3315
 2799TIP3    H129956   2.916   4.679   1.015  0.8124 -0.2705  0.0025
 2799TIP3    H229957   3.046   4.708   0.944 -0.7328 -2.0922 -3.8661
 2800TIP3   OH229958   4.395   2.932   8.095 -0.3376  0.9885 -0.1404
 2800TIP3    H129959   4.453   2.862   8.126  0.7054  1.2429 -1.4003
 2800TIP3    H229960   4.442   2.970   8.020 -1.3917  2.3111 -0.1638
 2801TIP3   OH229961   5.874   6.522   0.935 -0.1335  0.4357  0.0389
 2801TIP3    H129962   5.785   6.504   0.968  0.0332 -1.5537 -0.4978
 2801TIP3    H229963   5.928   6.454   0.974  1.0814  1.2809 -0.1139
 2802TIP3   OH229964   4.016   0.950   1.534  0.2728 -1.3284 -0.5903
 2802TIP3    H129965   4.085   0.903   1.486 -0.2561 -2.7006 -0.0621
 2802TIP3    H229966   3.986   0.887   1.599 -0.8211 -0.4013 -0.1774
 2803TIP3   OH229967   2.772   0.284   0.694  0.4829  0.1766  0.5099
 2803TIP3    H129968   2.762   0.203   0.644  2.5296  0.7540 -0.9745
 2803TIP3    H229969   2.750   0.353   0.631  1.8434  0.8676  0.7425
 2804TIP3   OH229970   3.307   1.908   8.318 -0.2357  0.3327  0.1966
 2804TIP3    H129971   3.271   1.977   8.261 -2.0624 -0.0507  0.8135
 2804TIP3    H229972   3.341   1.956   8.394  1.0422  0.7434 -0.6034
 2805TIP3   OH229973   6.031   4.686   8.895 -0.2833  0.3304  0.0088
 2805TIP3    H129974   6.052   4.612   8.952 -0.3768  0.3477  0.0657
 2805TIP3    H229975   6.029   4.761   8.955 -0.9510  0.2625  0.0780
 2806TIP3   OH229976   0.613   5.835   1.312  0.2797 -0.1305 -0.7476
 2806TIP3    H129977   0.601   5.898   1.383 -1.2682 -1.7580  0.5265
 2806TIP3    H229978   0.639   5.888   1.237 -1.7730  2.1384  0.0271
 2807TIP3   OH229979   2.934   1.813   1.285 -0.3445  0.0597  0.3809
 2807TIP3    H129980   2.907   1.732   1.241 -0.6776 -0.0846  0.8413
 2807TIP3    H229981   3.030   1.807   1.291 -0.1565  0.6681 -1.4492
 2808TIP3   OH229982   3.371   2.338   2.549 -0.5104 -0.1400  0.0304
 2808TIP3    H129983   3.441   2.273   2.557 -1.2465 -1.0924 -1.0044
 2808TIP3    H229984   3.401   2.396   2.479  0.4808  1.1150  1.4376
 2809TIP3   OH229985   5.871   5.282   0.646  0.4943 -0.1315 -0.3477
 2809TIP3    H129986   5.891   5.221   0.575  1.2563 -1.0325  0.6114
 2809TIP3    H229987   5.937   5.351   0.637  1.2125 -0.7494  0.0576
 2810TIP3   OH229988   6.209   3.956   1.651 -0.0179 -0.2319  0.0573
 2810TIP3    H129989   6.194   3.902   1.729 -0.9830  0.1357  0.1292
 2810TIP3    H229990   6.187   4.045   1.678  0.1123 -0.0257 -0.5003
 2811TIP3   OH229991   0.135   5.778   1.720 -0.4447 -0.2229 -0.0551
 2811TIP3    H129992   0.194   5.781   1.645 -1.1334  1.1570 -0.5771
 2811TIP3    H229993   0.113   5.685   1.731  0.4999 -0.5480 -0.8852
 2812TIP3   OH229994   4.849   4.223   6.732 -1.1541 -0.0056  0.1419
 2812TIP3    H129995   4.756   4.219   6.711 -0.9921 -1.2804 -0.4251
 2812TIP3    H229996   4.858   4.301   6.788 -2.7611 -0.5693  1.2610
 2813TIP3   OH229997   5.780   2.743   1.990 -0.3383  0.0458 -0.0056
 2813TIP3    H129998   5.816   2.757   2.078 -0.0812 -1.6074  0.1800
 2813TIP3    H229999   5.854   2.714   1.938  0.4225  4.4160 -1.8503
 2814TIP3   OH230000   6.446   2.456   8.375 -0.5795 -0.1907 -0.1919
 2814TIP3    H130001   6.524   2.405   8.397  0.2125  1.1547  0.2866
 2814TIP3    H230002   6.383   2.392   8.343  0.5669 -1.3762 -0.1647
 2815TIP3   OH230003   3.781   3.044   1.582  0.3271 -0.2126  0.2102
 2815TIP3    H130004   3.694   3.072   1.612  1.6840  0.3496  4.1414
 2815TIP3    H230005   3.766   2.956   1.547 -1.8281 -0.1521  0.7955
 2816TIP3   OH230006   2.423   1.427   1.945 -0.0705 -0.6249 -0.2196
 2816TIP3    H130007   2.368   1.488   1.895  1.3001  1.8549  1.1003
 2816TIP3    H230008   2.457   1.367   1.879 -0.5740  0.7641 -1.8296
 2817TIP3   OH230009   3.132   1.194   8.361  0.1641 -0.1640  0.1045
 2817TIP3    H130010   3.146   1.286   8.386 -1.7823 -0.1346  1.3522
 2817TIP3    H230011   3.098   1.199   8.271  2.1151  0.1391 -0.6595
 2818TIP3   OH230012   0.865   6.282   1.739  0.1312  0.1960  0.0513
 2818TIP3    H130013   0.955   6.313   1.746  1.0105 -2.0915 -0.4189
 2818TIP3    H230014   0.812   6.357   1.769  2.0547  2.1239 -1.0555
 2819TIP3   OH230015   3.722   3.768   0.105  0.5586  0.0875  0.4641
 2819TIP3    H130016   3.735   3.837   0.039  0.5774 -0.7775 -0.4633
 2819TIP3    H230017   3.753   3.688   0.062 -1.7041 -0.9283  0.5801
 2820TIP3   OH230018   6.676   2.257   0.594  0.2834  0.3519  0.2784
 2820TIP3    H130019   6.620   2.227   0.523  0.0965 -0.6319  0.8197
 2820TIP3    H230020   6.659   2.351   0.601 -0.3747  0.2866 -0.3726
 2821TIP3   OH230021   3.095   3.772   8.100 -0.3019 -0.2918  1.0259
 2821TIP3    H130022   3.148   3.693   8.090 -1.0152 -0.8283  1.3608
 2821TIP3    H230023   3.158   3.842   8.118  0.4843 -0.4526 -0.8565
 2822TIP3   OH230024   1.805   3.742   1.586  0.0028 -0.7327 -0.2259
 2822TIP3    H130025   1.817   3.719   1.493  2.7238 -0.2050 -0.1058
 2822TIP3    H230026   1.754   3.823   1.585  1.1556  0.0360 -1.4204
 2823TIP3   OH230027   3.022   2.609   1.490  0.1809 -0.3410 -0.4082
 2823TIP3    H130028   2.967   2.659   1.551  1.1013  1.2670 -0.8377
 2823TIP3    H230029   3.004   2.648   1.404  1.1514 -0.5292 -0.7057
 2824TIP3   OH230030   5.075   4.095   8.008  0.2729  0.2657 -0.2765
 2824TIP3    H130031   4.993   4.140   8.030 -0.4249 -1.1122  0.0107
 2824TIP3    H230032   5.135   4.120   8.078 -0.3970  0.0125  0.4046
 2825TIP3   OH230033   4.510   5.099   8.580 -0.2349  0.6611 -0.0071
 2825TIP3    H130034   4.591   5.113   8.629 -0.3612  0.2881  0.3176
 2825TIP3    H230035   4.535   5.107   8.489  0.1271  0.7673  0.1020
 2826TIP3   OH230036   0.404   3.160   0.160  0.0823 -0.7070  0.2260
 2826TIP3    H130037   0.471   3.121   0.218 -0.9474 -2.1315  0.5059
 2826TIP3    H230038   0.336   3.093   0.155 -1.9622  1.2122  1.0213
 2827TIP3   OH230039   3.699   3.911   1.026  0.3958 -0.1860  0.1068
 2827TIP3    H130040   3.684   3.905   1.120 -0.9605  0.4808 -0.0447
 2827TIP3    H230041   3.646   3.841   0.988 -0.1914  0.4330 -0.2480
 2828TIP3   OH230042   6.210   2.764   0.480  0.3803 -0.0545  0.0770
 2828TIP3    H130043   6.141   2.716   0.436  0.4657  0.2322 -0.3656
 2828TIP3    H230044   6.189   2.856   0.467 -0.2142  0.0665  1.5893
 2829TIP3   OH230045   2.051   1.208   8.116  0.0255 -0.0889 -0.4568
 2829TIP3    H130046   2.039   1.291   8.070  0.2286  0.0060 -0.3379
 2829TIP3    H230047   2.124   1.166   8.071 -0.9273 -0.8223 -1.4041
 2830TIP3   OH230048   0.361   3.020   6.948 -0.0353  0.1416  0.2654
 2830TIP3    H130049   0.392   3.038   6.859  3.4526 -0.8950  1.1173
 2830TIP3    H230050   0.356   2.925   6.953  0.5815  0.1464  1.3600
 2831TIP3   OH230051   3.923   4.337   2.589 -0.4585  0.2569  0.2122
 2831TIP3    H130052   3.956   4.253   2.558  1.5400  1.6243 -1.6319
 2831TIP3    H230053   3.944   4.337   2.683  1.0133 -0.6757 -0.0794
 2832TIP3   OH230054   3.020   4.426   8.787  0.2300 -0.0234 -0.4544
 2832TIP3    H130055   2.965   4.350   8.809  0.2674  0.4986  1.7438
 2832TIP3    H230056   3.079   4.394   8.719  0.5029 -2.1374  0.6635
 2833TIP3   OH230057   6.494   3.704   2.928  0.2094 -0.1042 -0.0466
 2833TIP3    H130058   6.490   3.798   2.909 -1.0263 -0.5814 -2.4527
 2833TIP3    H230059   6.411   3.686   2.974  0.3457 -0.0852  0.2129
 2834TIP3   OH230060   1.095   2.671   1.677 -0.0993  0.7449  0.1220
 2834TIP3    H130061   1.033   2.598   1.674  0.0346  0.6526 -1.1913
 2834TIP3    H230062   1.065   2.730   1.608  0.5535  1.2987  0.3065
 2835TIP3   OH230063   1.343   6.586   2.944 -0.2970  0.2952  0.5550
 2835TIP3    H130064   1.437   6.572   2.950 -0.1039 -1.4523 -3.4888
 2835TIP3    H230065   1.305   6.507   2.984  0.0255 -0.0042  0.2758
 2836TIP3   OH230066   1.765   1.797   1.302 -0.2581 -0.2260  0.3344
 2836TIP3    H130067   1.802   1.860   1.240  1.6031 -0.3409  1.2361
 2836TIP3    H230068   1.744   1.850   1.379 -1.2270 -0.2993  0.1222
 2837TIP3   OH230069   3.443   2.248   1.267 -0.1288 -0.3661  0.1825
 2837TIP3    H130070   3.535   2.234   1.248  0.2987  0.9589  1.1395
 2837TIP3    H230071   3.398   2.225   1.186  0.9362 -1.8519 -0.0301
 2838TIP3   OH230072   4.200   2.083   0.758 -0.3952 -0.2384 -0.0714
 2838TIP3    H130073   4.237   2.061   0.844  0.9143 -1.8566 -0.9767
 2838TIP3    H230074   4.269   2.134   0.715 -0.1335 -1.2463 -0.9020
 2839TIP3   OH230075   3.299   3.141   7.806  0.0904 -0.0037 -0.1637
 2839TIP3    H130076   3.272   3.225   7.843  0.2896 -0.5492  1.2480
 2839TIP3    H230077   3.380   3.161   7.759  0.7529  0.4006  1.1073
 2840TIP3   OH230078   0.220   3.581   7.911 -0.0916 -0.4556  0.1004
 2840TIP3    H130079   0.173   3.635   7.848  0.5607 -0.0069 -0.0135
 2840TIP3    H230080   0.196   3.618   7.996  2.4562  1.8490 -0.0542
 2841TIP3   OH230081   0.442   3.775   0.631  0.0284 -0.0371 -0.7482
 2841TIP3    H130082   0.451   3.842   0.564 -0.7875 -0.7744 -1.6218
 2841TIP3    H230083   0.357   3.792   0.671  0.1216 -0.1407 -0.4982
 2842TIP3   OH230084   2.332   5.401   0.204  0.6629 -0.3796 -0.5503
 2842TIP3    H130085   2.389   5.337   0.162 -1.2341 -2.1414 -0.6217
 2842TIP3    H230086   2.278   5.435   0.132 -0.8264 -1.4860 -0.0193
 2843TIP3   OH230087   5.873   2.763   0.954  0.4198 -0.0558 -0.1857
 2843TIP3    H130088   5.854   2.855   0.976  0.6272 -0.4262  1.6996
 2843TIP3    H230089   5.954   2.768   0.904 -1.1627  1.0008 -2.8847
 2844TIP3   OH230090   0.888   3.293   0.177 -0.5002  0.3589 -0.2215
 2844TIP3    H130091   0.803   3.336   0.169 -0.7791  0.1138  1.2155
 2844TIP3    H230092   0.876   3.207   0.137 -0.8348  0.4536 -0.3191
 2845TIP3   OH230093   4.158   2.515   8.620 -0.5419 -0.6600 -0.3019
 2845TIP3    H130094   4.184   2.470   8.540 -1.6985 -0.8467 -0.5932
 2845TIP3    H230095   4.145   2.606   8.594 -0.9560 -0.7281 -0.3424
 2846TIP3   OH230096   0.832   1.383   1.912 -0.3809 -0.1084  0.1889
 2846TIP3    H130097   0.894   1.333   1.859 -0.9540  0.4703 -1.0722
 2846TIP3    H230098   0.886   1.429   1.975  0.4783  0.2587 -0.7871
 2847TIP3   OH230099   5.083   0.880   7.109 -0.3916 -0.4769 -0.2960
 2847TIP3    H130100   5.019   0.835   7.054  0.6141 -2.4177  0.0284
 2847TIP3    H230101   5.035   0.904   7.188 -1.0848 -0.4664 -0.7145
 2848TIP3   OH230102   6.162   1.227   0.969 -0.5062 -0.0393  0.0974
 2848TIP3    H130103   6.085   1.279   0.993 -1.4652 -1.6223  0.5414
 2848TIP3    H230104   6.144   1.198   0.879  0.2949  0.8222 -0.3639
 2849TIP3   OH230105   1.027   2.321   7.530  0.0050 -0.4008 -0.3622
 2849TIP3    H130106   1.078   2.276   7.463  0.2684 -0.1978 -0.3011
 2849TIP3    H230107   1.017   2.258   7.601  1.1138 -0.0839  0.0930
 2850TIP3   OH230108   2.082   3.040   2.666 -0.3935 -0.2587 -0.3516
 2850TIP3    H130109   2.018   3.089   2.614 -0.2946 -1.2069 -1.4037
 2850TIP3    H230110   2.075   2.951   2.634  0.5274 -0.6361  0.4591
 2851TIP3   OH230111   3.463   3.032   0.983 -0.1619 -0.1845  0.0018
 2851TIP3    H130112   3.449   2.947   0.941  0.7971 -0.0256 -0.6587
 2851TIP3    H230113   3.469   3.094   0.910 -1.9897  0.6510  0.5018
 2852TIP3   OH230114   4.264   0.866   1.419  0.2027 -0.5708 -0.2915
 2852TIP3    H130115   4.290   0.801   1.353  0.1393  0.0695 -0.9489
 2852TIP3    H230116   4.302   0.832   1.500  2.4181 -0.1289 -1.0540
 2853TIP3   OH230117   0.448   4.107   6.758 -0.6836 -0.5940  0.1404
 2853TIP3    H130118   0.353   4.094   6.764 -0.5160 -1.4470  1.2647
 2853TIP3    H230119   0.484   4.018   6.751 -0.0805 -0.2138 -3.0196
 2854TIP3   OH230120   1.744   0.193   1.473 -0.2550  0.5684  0.1422
 2854TIP3    H130121   1.834   0.195   1.508  0.2697  0.1353 -1.1402
 2854TIP3    H230122   1.723   0.286   1.458  0.9803  0.5640 -1.9575
 2855TIP3   OH230123   0.867   4.816   0.530  0.2043 -0.5569 -0.1047
 2855TIP3    H130124   0.901   4.900   0.501  0.7147 -0.6825  0.1135
 2855TIP3    H230125   0.781   4.836   0.566  0.4060 -0.1002  0.1291
 2856TIP3   OH230126   6.519   6.518   0.874  0.0316  0.0765 -0.0479
 2856TIP3    H130127   6.457   6.447   0.894  0.4352  0.0682  1.2878
 2856TIP3    H230128   6.483   6.595   0.918  0.0310  0.5135 -0.7979
 2857TIP3   OH230129   4.459   3.732   7.434  0.2032 -0.0933 -0.4292
 2857TIP3    H130130   4.404   3.808   7.454  0.3042 -0.2796  0.6202
 2857TIP3    H230131   4.532   3.769   7.384  0.7758  0.7093  0.9126
 2858TIP3   OH230132   6.513   1.679   8.735  0.2778 -0.1454 -0.4434
 2858TIP3    H130133   6.549   1.656   8.820 -0.0257  0.0187 -0.2672
 2858TIP3    H230134   6.547   1.613   8.675  1.3581  0.3514 -0.3998
 2859TIP3   OH230135   4.672   1.142   2.258 -0.5326 -0.0895 -0.0696
 2859TIP3    H130136   4.658   1.098   2.342  1.4514 -0.8963 -0.1151
 2859TIP3    H230137   4.751   1.102   2.223 -0.2943  1.5191 -1.4910
 2860TIP3   OH230138   3.415   2.850   1.911 -0.0823 -0.2516 -0.0654
 2860TIP3    H130139   3.335   2.818   1.869 -0.6368  2.5675 -1.3715
 2860TIP3    H230140   3.401   2.944   1.920  3.1854  0.3749 -0.5176
 2861TIP3   OH230141   3.579   5.650   0.525  0.2934 -0.2957 -0.0601
 2861TIP3    H130142   3.581   5.565   0.482 -0.7424  0.5189 -1.8226
 2861TIP3    H230143   3.545   5.710   0.459  1.9960  1.7184  0.7699
 2862TIP3   OH230144   1.582   0.564   8.723  0.3845  0.1724  0.3043
 2862TIP3    H130145   1.598   0.652   8.756 -0.3760  0.1687  0.7158
 2862TIP3    H230146   1.624   0.562   8.637 -0.7074  1.3897 -0.2957
 2863TIP3   OH230147   0.703   5.900   1.039 -0.4551 -0.6086 -0.2004
 2863TIP3    H130148   0.686   5.816   0.996 -0.0614  0.3133 -2.2683
 2863TIP3    H230149   0.627   5.953   1.019 -0.5521 -0.3351  0.8201
 2864TIP3   OH230150   4.676   4.869   7.655 -0.0992 -0.0627 -0.0125
 2864TIP3    H130151   4.608   4.825   7.707 -0.0991  0.3659  0.3557
 2864TIP3    H230152   4.627   4.921   7.592 -0.1143  0.3497  0.3396
 2865TIP3   OH230153   4.872   0.891   7.302  0.2055  0.0419  0.0774
 2865TIP3    H130154   4.904   0.876   7.391 -0.4373 -0.8843  0.1654
 2865TIP3    H230155   4.795   0.947   7.314  0.2975  0.1707  0.0730
 2866TIP3   OH230156   3.223   2.014   0.120 -0.0079  0.2251 -0.4356
 2866TIP3    H130157   3.313   2.042   0.110  0.4400 -0.8490  0.4503
 2866TIP3    H230158   3.228   1.923   0.151 -1.3791 -0.6286 -2.4171
 2867TIP3   OH230159   4.864   6.735   8.601  0.1663 -0.0465  0.0082
 2867TIP3    H130160   4.936   6.795   8.621 -0.4165  0.3132  1.0994
 2867TIP3    H230161   4.836   6.761   8.514 -0.3445  1.5782  0.6049
 2868TIP3   OH230162   3.266   5.990   8.535 -0.0585 -0.2300  0.4093
 2868TIP3    H130163   3.334   5.973   8.470  0.0859  0.8350  0.2645
 2868TIP3    H230164   3.246   5.904   8.571 -0.1236 -0.8400 -1.0207
 2869TIP3   OH230165   5.004   5.274   2.484 -0.1669  0.2299 -0.9076
 2869TIP3    H130166   4.967   5.223   2.555  0.3384  0.3790 -0.5254
 2869TIP3    H230167   5.076   5.220   2.450  0.4206  0.6986 -0.4499
 2870TIP3   OH230168   0.224   2.943   0.193  0.2234 -0.3289 -0.1419
 2870TIP3    H130169   0.202   2.909   0.280  0.6342  0.5247  0.3121
 2870TIP3    H230170   0.140   2.968   0.155  0.0447 -0.6688  0.0208
 2871TIP3   OH230171   0.881   4.623   1.800  0.0455  0.0075 -0.1272
 2871TIP3    H130172   0.945   4.555   1.780 -0.3141  0.0021 -1.3343
 2871TIP3    H230173   0.917   4.702   1.759  0.2886  0.4727  0.9653
 2872TIP3   OH230174   4.071   3.965   8.129 -0.1620  0.1126 -0.2395
 2872TIP3    H130175   3.986   3.981   8.090  0.9216  1.0761 -2.3726
 2872TIP3    H230176   4.088   4.043   8.182 -0.5037  0.0281 -0.0062
 2873TIP3   OH230177   2.230   2.764   8.268 -0.6316  0.3194 -0.1250
 2873TIP3    H130178   2.230   2.825   8.341 -1.3014 -0.2479  0.3605
 2873TIP3    H230179   2.268   2.813   8.195 -1.9023  1.5798  0.0226
 2874TIP3   OH230180   2.970   0.444   1.090 -0.2724 -0.0456 -0.4666
 2874TIP3    H130181   3.064   0.428   1.078 -0.4448 -0.5154 -1.2507
 2874TIP3    H230182   2.927   0.383   1.030 -1.0148  1.9366 -2.0370
 2875TIP3   OH230183   6.216   0.993   8.869  0.0998  0.1873  0.0895
 2875TIP3    H130184   6.241   0.931   8.801  1.8004  1.1581 -0.2548
 2875TIP3    H230185   6.277   0.975   8.941  0.4195  1.2270  0.0953
 2876TIP3   OH230186   6.110   4.624   0.337 -0.3717  0.4859 -0.6028
 2876TIP3    H130187   6.065   4.596   0.258 -0.7242 -0.3559 -0.1193
 2876TIP3    H230188   6.202   4.634   0.311  0.4934 -4.1797 -0.2189
 2877TIP3   OH230189   2.225   6.179   8.454  0.1706  0.2709 -0.2304
 2877TIP3    H130190   2.142   6.220   8.478 -0.0338  0.2299 -0.8693
 2877TIP3    H230191   2.201   6.091   8.425  0.4679  0.1721 -0.1846
 2878TIP3   OH230192   2.536   0.639   2.038 -0.0480 -0.1908  0.9223
 2878TIP3    H130193   2.585   0.566   2.077  0.1524 -0.2620  0.5396
 2878TIP3    H230194   2.519   0.698   2.112  1.6445  0.4236  0.8607
 2879TIP3   OH230195   4.137   0.543   1.937  0.2168  0.0840  0.0194
 2879TIP3    H130196   4.101   0.538   1.848  0.3817 -0.0955 -0.0398
 2879TIP3    H230197   4.073   0.499   1.992 -1.2404  2.5489  0.4355
 2880TIP3   OH230198   4.514   2.695   8.480  0.0082  0.4436 -0.3108
 2880TIP3    H130199   4.496   2.622   8.420 -0.1237  0.1157  0.1197
 2880TIP3    H230200   4.428   2.722   8.512  0.1287  0.1147  0.3079
 2881TIP3   OH230201   1.192   2.621   6.941  0.1531  0.4599  0.3749
 2881TIP3    H130202   1.279   2.583   6.944  0.3007  0.8247  0.8041
 2881TIP3    H230203   1.141   2.562   6.885  1.3067  1.5304 -1.9563
 2882TIP3   OH230204   4.682   4.223   8.664 -0.7579  0.3359 -0.2921
 2882TIP3    H130205   4.755   4.260   8.713  0.6002  0.0179 -1.9998
 2882TIP3    H230206   4.646   4.156   8.722  0.3584  0.4399  0.5419
 2883TIP3   OH230207   5.752   5.930   0.213 -0.7259  0.1007  0.0684
 2883TIP3    H130208   5.765   5.997   0.146 -1.2698 -1.0547 -1.2445
 2883TIP3    H230209   5.686   5.871   0.176 -0.9104 -0.6864  1.5528
 2884TIP3   OH230210   4.710   2.203   7.601  0.0970  0.8021 -0.5425
 2884TIP3    H130211   4.701   2.273   7.536 -0.1134 -0.0291 -1.4438
 2884TIP3    H230212   4.620   2.182   7.626  0.1161  0.3787 -0.8168
 2885TIP3   OH230213   6.352   5.715   6.994 -0.1422  0.5906  0.0731
 2885TIP3    H130214   6.405   5.639   6.971  0.3302  0.7736  0.5501
 2885TIP3    H230215   6.406   5.765   7.056 -0.5505  1.1808 -0.0370
 2886TIP3   OH230216   4.595   0.223   0.928 -0.3850  0.0010  0.3673
 2886TIP3    H130217   4.505   0.196   0.946  0.2875 -2.6067  0.1565
 2886TIP3    H230218   4.597   0.237   0.833 -0.2686 -1.2525  0.1749
 2887TIP3   OH230219   3.410   4.884   7.609  0.0759  0.0399  0.2155
 2887TIP3    H130220   3.352   4.953   7.643  0.8267  0.1812  1.2426
 2887TIP3    H230221   3.388   4.879   7.516 -1.3153  0.3551  0.4973
 2888TIP3   OH230222   5.370   1.134   7.127  0.3060 -0.1489 -0.0546
 2888TIP3    H130223   5.329   1.050   7.147 -0.2200 -0.5024 -2.3371
 2888TIP3    H230224   5.442   1.112   7.068  0.2161  0.9902 -0.6070
 2889TIP3   OH230225   0.189   3.417   1.145  0.6468 -0.0699  0.4164
 2889TIP3    H130226   0.264   3.476   1.136  1.3183 -0.9041  0.3955
 2889TIP3    H230227   0.147   3.443   1.227 -0.0618  1.5225 -0.3974
 2890TIP3   OH230228   4.477   2.126   8.139 -0.0009 -0.7189  0.2143
 2890TIP3    H130229   4.437   2.104   8.055  0.3125  0.0610 -0.1519
 2890TIP3    H230230   4.522   2.046   8.166  0.7751 -0.6768 -0.8811
 2891TIP3   OH230231   0.217   4.152   8.789  0.2618  0.3618 -0.3329
 2891TIP3    H130232   0.267   4.130   8.868  0.4815  1.4585 -0.1604
 2891TIP3    H230233   0.129   4.173   8.822 -0.8747 -3.0723 -0.7591
 2892TIP3   OH230234   3.535   6.285   2.103 -1.0551 -0.3085  0.3722
 2892TIP3    H130235   3.461   6.275   2.043  1.0031  0.4095 -2.5249
 2892TIP3    H230236   3.574   6.198   2.107 -0.0498  0.0324 -1.0675
 2893TIP3   OH230237   2.373   3.094   6.986 -0.2052 -0.1397  0.5584
 2893TIP3    H130238   2.340   3.164   7.043  0.2661  0.5852 -0.0539
 2893TIP3    H230239   2.310   3.023   6.998 -0.8958  0.5144  0.9068
 2894TIP3   OH230240   0.958   4.906   1.720  0.0810  0.1486 -0.2875
 2894TIP3    H130241   0.915   4.966   1.659  0.2642 -0.1544 -0.7188
 2894TIP3    H230242   1.047   4.896   1.686  0.0245 -0.4423 -0.2783
 2895TIP3   OH230243   5.542   1.760   1.540  0.4483  0.0016  0.1500
 2895TIP3    H130244   5.611   1.786   1.479  1.5725 -1.4511  0.7405
 2895TIP3    H230245   5.533   1.836   1.599  0.6935  0.6695 -0.6478
 2896TIP3   OH230246   4.266   5.119   1.746  0.5639  0.9375 -0.1779
 2896TIP3    H130247   4.288   5.086   1.833  1.6771  2.0906  0.0138
 2896TIP3    H230248   4.181   5.162   1.758  1.1761  1.9701  0.5970
 2897TIP3   OH230249   6.214   1.367   1.483  0.3830  0.1964 -0.1016
 2897TIP3    H130250   6.167   1.289   1.455 -1.2087  0.9156  0.4774
 2897TIP3    H230251   6.211   1.426   1.407 -1.0539  0.8525  0.4381
 2898TIP3   OH230252   3.882   3.541   0.397 -0.3732  0.1739 -0.1437
 2898TIP3    H130253   3.818   3.548   0.467  2.5701 -0.0897  2.8085
 2898TIP3    H230254   3.865   3.455   0.357  0.5225 -1.7826  3.3005
 2899TIP3   OH230255   3.985   3.092   1.252  0.3310  0.8331  0.2048
 2899TIP3    H130256   3.976   3.014   1.198  1.0051  1.5691 -1.0437
 2899TIP3    H230257   3.897   3.130   1.255  0.2777  0.7799 -0.4138
 2900TIP3   OH230258   4.915   4.034   0.979 -0.0035  0.1930  0.4408
 2900TIP3    H130259   4.886   4.125   0.988 -0.3494  0.3535 -1.8037
 2900TIP3    H230260   4.966   4.033   0.898  0.8047 -1.4457  0.9276
 2901TIP3   OH230261   5.075   0.943   2.643  1.1800 -0.3078  0.1888
 2901TIP3    H130262   5.106   1.029   2.672 -1.0576  0.0789  1.6459
 2901TIP3    H230263   4.997   0.961   2.590  0.5082 -1.4384  0.7564
 2902TIP3   OH230264   3.537   5.247   1.509 -0.0866 -0.1303 -0.3373
 2902TIP3    H130265   3.536   5.327   1.457 -0.6081 -0.8780 -1.5342
 2902TIP3    H230266   3.499   5.181   1.451 -1.8847 -0.7369  1.4242
 2903TIP3   OH230267   5.149   6.291   7.743  0.6153  0.0473 -0.1229
 2903TIP3    H130268   5.069   6.338   7.767 -0.3337 -0.3327 -2.2569
 2903TIP3    H230269   5.220   6.352   7.762  0.0454 -0.1495  3.2543
 2904TIP3   OH230270   4.830   0.553   7.971 -0.4745  0.0942 -0.4990
 2904TIP3    H130271   4.734   0.548   7.972 -0.5092  0.7082  0.3891
 2904TIP3    H230272   4.849   0.643   7.995  0.2747  1.4721 -5.2123
 2905TIP3   OH230273   3.301   2.360   1.471 -0.2981 -0.1210  0.0410
 2905TIP3    H130274   3.359   2.348   1.397 -1.5164  1.9024 -1.3412
 2905TIP3    H230275   3.254   2.277   1.479  2.4773 -1.7072  1.0387
 2906TIP3   OH230276   3.508   5.702   7.878 -0.3324 -0.1966 -0.2094
 2906TIP3    H130277   3.498   5.610   7.901 -0.0882  0.0090  0.7536
 2906TIP3    H230278   3.526   5.702   7.784  0.2405 -1.1658 -0.1025
 2907TIP3   OH230279   1.403   5.392   8.829  0.1298 -0.5040  0.3312
 2907TIP3    H130280   1.471   5.344   8.782  0.9613  0.0577  0.9245
 2907TIP3    H230281   1.451   5.456   8.882 -0.9407  0.9268 -0.3722
 2908TIP3   OH230282   2.649   0.330   8.397  0.8272  0.3600 -0.2428
 2908TIP3    H130283   2.683   0.246   8.366 -0.0488 -0.0436 -0.1250
 2908TIP3    H230284   2.723   0.390   8.388  1.4389 -0.4019 -0.4040
 2909TIP3   OH230285   3.929   0.691   2.608  0.2653 -0.0002 -0.2598
 2909TIP3    H130286   3.837   0.711   2.590  0.6342  0.6774 -1.5016
 2909TIP3    H230287   3.936   0.696   2.704 -0.9922 -0.1451 -0.1348
 2910TIP3   OH230288   5.115   5.455   7.633 -0.1485  0.4411 -0.3708
 2910TIP3    H130289   5.025   5.485   7.651 -0.1325  1.2064 -1.4400
 2910TIP3    H230290   5.157   5.531   7.592  0.6183 -0.3097 -0.9997
 2911TIP3   OH230291   1.461   4.955   2.510 -0.3685 -0.0384 -0.7029
 2911TIP3    H130292   1.434   4.887   2.448 -0.5904  0.1655 -0.8314
 2911TIP3    H230293   1.408   4.939   2.588  0.2701 -0.6021 -0.3827
 2912TIP3   OH230294   3.593   4.578   8.009 -0.3260 -0.1100 -0.3406
 2912TIP3    H130295   3.665   4.598   8.070 -0.4523 -1.4718  0.2914
 2912TIP3    H230296   3.596   4.483   7.999 -0.3018  0.0784 -2.5083
 2913TIP3   OH230297   5.763   3.411   0.234 -0.5270 -0.6477  0.3049
 2913TIP3    H130298   5.797   3.477   0.295 -0.8308  0.2180 -0.4436
 2913TIP3    H230299   5.779   3.447   0.147 -3.5492 -0.0435 -0.1143
 2914TIP3   OH230300   6.357   0.037   0.012  0.5433  0.6431  0.2241
 2914TIP3    H130301   6.401   0.097   0.072  0.4534  1.3757 -0.4159
 2914TIP3    H230302   6.303   0.094  -0.043 -0.8168 -0.1911  0.6653
 2915TIP3   OH230303   4.063   6.290   1.246 -0.1165 -0.4279 -0.1377
 2915TIP3    H130304   4.036   6.228   1.313 -0.0924  0.1387  0.4151
 2915TIP3    H230305   4.036   6.375   1.281 -1.8275 -0.2734 -1.7131
 2916TIP3   OH230306   2.252   2.091   0.819 -0.2066 -0.5873  0.4707
 2916TIP3    H130307   2.208   2.101   0.735 -1.1185 -2.0180  0.7367
 2916TIP3    H230308   2.343   2.111   0.801 -0.9611  3.3465  0.0643
 2917TIP3   OH230309   2.535   1.706   1.118 -0.6379  0.4939 -0.1064
 2917TIP3    H130310   2.445   1.706   1.150 -0.6860 -1.7918 -0.1040
 2917TIP3    H230311   2.529   1.680   1.026  0.0461 -0.5934  0.1339
 2918TIP3   OH230312   4.715   6.162   2.291 -0.2668 -0.0609 -0.0679
 2918TIP3    H130313   4.774   6.087   2.303 -0.2321 -0.0174  0.0366
 2918TIP3    H230314   4.651   6.153   2.362 -0.8032 -0.4993 -0.5925
 2919TIP3   OH230315   1.869   1.949   1.087  0.3019 -0.6467  0.4796
 2919TIP3    H130316   1.957   1.986   1.076  0.8841 -1.7708  1.2273
 2919TIP3    H230317   1.850   1.907   1.003  0.3907 -0.2341  0.2504
 2920TIP3   OH230318   0.413   4.361   7.061  0.1399  0.4192 -0.5687
 2920TIP3    H130319   0.426   4.453   7.081 -1.1045  0.5389 -0.2171
 2920TIP3    H230320   0.366   4.360   6.978  1.2825  0.0534 -1.2207
 2921TIP3   OH230321   0.670   2.597   1.209 -0.0254 -0.3714  0.2722
 2921TIP3    H130322   0.660   2.692   1.215  0.3692 -0.3879  1.3987
 2921TIP3    H230323   0.762   2.584   1.189 -0.0920 -0.5145  0.0623
 2922TIP3   OH230324   6.153   6.426   0.318 -0.2420  0.6813 -0.1265
 2922TIP3    H130325   6.113   6.356   0.267  0.2954  1.0453 -1.0788
 2922TIP3    H230326   6.152   6.502   0.261 -1.0291  1.5367  0.9778
 2923TIP3   OH230327   1.417   0.402   8.895 -0.1254  0.4460 -0.1232
 2923TIP3    H130328   1.385   0.457   8.966  2.7527 -0.4844  2.0961
 2923TIP3    H230329   1.485   0.454   8.852  0.6382 -0.2702  0.1751
 2924TIP3   OH230330   2.919   5.699   1.510 -0.5783 -0.0130 -0.0368
 2924TIP3    H130331   2.912   5.665   1.421  0.6105 -1.3705  0.3583
 2924TIP3    H230332   2.834   5.739   1.527 -1.4266 -1.2602 -1.1552
 2925TIP3   OH230333   5.301   3.030   2.741  0.3559  0.7128  0.6021
 2925TIP3    H130334   5.229   3.048   2.681 -0.6574 -0.4730  1.3945
 2925TIP3    H230335   5.375   3.007   2.685 -0.4913 -0.1146 -0.2024
 2926TIP3   OH230336   2.863   5.111   1.525  0.6923 -0.0282  0.4460
 2926TIP3    H130337   2.797   5.176   1.546  2.0579  1.3054  0.7543
 2926TIP3    H230338   2.896   5.081   1.610  0.9328 -0.2301  0.2839
 2927TIP3   OH230339   1.489   4.094   1.423 -0.1381  0.2115  0.1117
 2927TIP3    H130340   1.397   4.095   1.448  0.2539  1.3810  1.6524
 2927TIP3    H230341   1.501   4.175   1.373  0.2307  0.4851  0.6393
 2928TIP3   OH230342   1.904   5.700   1.764 -0.4453 -0.4743 -0.1330
 2928TIP3    H130343   1.919   5.758   1.690  0.1475  3.4171  2.7388
 2928TIP3    H230344   1.809   5.697   1.775 -0.4746  0.3630 -0.0929
 2929TIP3   OH230345   3.142   3.144   7.241  0.2146 -0.4996  0.0742
 2929TIP3    H130346   3.114   3.129   7.151  1.6753 -0.5881 -0.3735
 2929TIP3    H230347   3.101   3.228   7.264 -1.4771 -1.2316 -0.0888
 2930TIP3   OH230348   1.271   4.641   0.121 -0.3957 -0.0582 -0.4025
 2930TIP3    H130349   1.236   4.556   0.095 -0.7317 -0.2230  0.5500
 2930TIP3    H230350   1.366   4.628   0.128 -0.4419 -0.3442 -0.3050
 2931TIP3   OH230351   1.128   2.057   7.791 -0.1647  0.1598 -0.4424
 2931TIP3    H130352   1.105   2.020   7.706 -1.2342 -0.2768  0.0136
 2931TIP3    H230353   1.083   2.142   7.794 -0.3671  0.0493 -0.2154
 2932TIP3   OH230354   0.198   1.448   2.019 -0.0773 -0.7341  0.5071
 2932TIP3    H130355   0.239   1.533   2.004  0.4619 -1.1723 -0.6103
 2932TIP3    H230356   0.108   1.469   2.045  0.2917  0.1855  1.1103
 2933TIP3   OH230357   5.505   0.052   2.445 -0.7453 -0.3330 -0.0594
 2933TIP3    H130358   5.449   0.111   2.394 -0.0310 -0.3604 -0.8923
 2933TIP3    H230359   5.578   0.106   2.474 -1.3860 -0.1997  1.3825
 2934TIP3   OH230360   3.251   4.517   0.067 -0.1055  0.2760  0.1298
 2934TIP3    H130361   3.214   4.557   0.145  0.0428  0.9421 -0.1360
 2934TIP3    H230362   3.195   4.441   0.050  0.8022 -0.8360  1.7972
 2935TIP3   OH230363   4.176   2.003   2.700  0.3283 -1.0158  0.3207
 2935TIP3    H130364   4.237   2.076   2.711  0.1527 -0.6752 -0.8429
 2935TIP3    H230365   4.090   2.044   2.693  0.3211 -1.2279 -1.2828
 2936TIP3   OH230366   5.794   1.472   7.551 -0.2285  0.2222 -0.2708
 2936TIP3    H130367   5.774   1.535   7.482  0.4258 -0.4160 -1.0662
 2936TIP3    H230368   5.734   1.494   7.622 -1.0983  0.7329 -1.1377
 2937TIP3   OH230369   0.112   2.449   1.945  0.0878 -0.6030  0.4898
 2937TIP3    H130370   0.160   2.451   2.027  1.1533 -2.1983 -0.0525
 2937TIP3    H230371   0.095   2.356   1.929 -3.0586 -0.1402  0.5403
 2938TIP3   OH230372   2.475   5.028   2.062 -0.6208  0.1312 -0.2798
 2938TIP3    H130373   2.507   5.007   2.150 -0.8375  0.0587 -0.2160
 2938TIP3    H230374   2.538   5.090   2.027  1.4887 -2.4614 -1.4406
 2939TIP3   OH230375   3.199   4.945   0.396  0.0018  0.3419  0.5760
 2939TIP3    H130376   3.139   4.890   0.447  0.0784 -1.1158 -0.8449
 2939TIP3    H230377   3.286   4.926   0.434 -0.1654  0.7676  1.1826
 2940TIP3   OH230378   1.988   1.887   8.193 -0.2813  0.2635 -0.4724
 2940TIP3    H130379   1.995   1.907   8.100 -1.1980  0.5026 -0.4986
 2940TIP3    H230380   1.986   1.791   8.198  1.3518  0.1853 -0.5564
 2941TIP3   OH230381   2.199   5.920   8.391  0.4585  0.1690  0.7788
 2941TIP3    H130382   2.167   5.911   8.480 -0.6338  0.5521  0.4426
 2941TIP3    H230383   2.168   5.841   8.346 -1.0543  1.0733  0.1656
 2942TIP3   OH230384   0.471   5.473   0.822 -0.1949  0.5263 -0.6380
 2942TIP3    H130385   0.435   5.518   0.746  1.1004  1.7929 -0.5259
 2942TIP3    H230386   0.397   5.423   0.857 -1.5850  2.2603 -0.9849
 2943TIP3   OH230387   3.999   4.033   0.693  0.0085  0.6080  0.1994
 2943TIP3    H130388   3.911   4.001   0.715 -1.1621  1.7193 -2.4778
 2943TIP3    H230389   4.036   3.966   0.637  0.5024  0.5925  0.5360
 2944TIP3   OH230390   4.223   0.592   2.266  0.5344 -0.6291 -0.4813
 2944TIP3    H130391   4.144   0.564   2.220  0.7643 -0.7443 -0.8126
 2944TIP3    H230392   4.198   0.672   2.312  0.6331  0.2043 -1.8307
 2945TIP3   OH230393   0.031   4.852   0.005 -0.2518 -0.5559 -0.2732
 2945TIP3    H130394  -0.002   4.833  -0.083 -0.1245  0.5174 -0.5613
 2945TIP3    H230395   0.081   4.774   0.028  0.6678 -0.4037 -1.6230
 2946TIP3   OH230396   3.335   1.989   8.032  0.1023  0.4354 -0.5528
 2946TIP3    H130397   3.342   1.899   7.999 -2.1274 -0.6604  1.6574
 2946TIP3    H230398   3.253   2.021   7.995 -0.8604  0.2687  1.3300
 2947TIP3   OH230399   1.680   1.422   1.017 -0.4947 -0.2557 -0.7053
 2947TIP3    H130400   1.752   1.451   0.962  0.7468  4.1874  2.6872
 2947TIP3    H230401   1.608   1.482   0.996 -0.6755  0.1591  0.9687
 2948TIP3   OH230402   5.214   1.460   8.288  0.1217  0.3447 -0.4560
 2948TIP3    H130403   5.238   1.389   8.227 -1.5190 -1.4121  0.8190
 2948TIP3    H230404   5.177   1.528   8.232  2.9631  0.8853 -1.8791
 2949TIP3   OH230405   0.747   5.350   1.675  0.2283 -0.3492 -0.2775
 2949TIP3    H130406   0.803   5.422   1.703 -1.1935  0.1198  1.5612
 2949TIP3    H230407   0.674   5.352   1.736 -0.4613 -2.6069 -0.9481
 2950TIP3   OH230408   1.427   0.232   1.504  0.4406 -0.3730  0.5912
 2950TIP3    H130409   1.335   0.206   1.499 -0.2786  1.7547  1.5817
 2950TIP3    H230410   1.474   0.162   1.459 -1.7253 -1.1138 -0.6701
 2951TIP3   OH230411   0.336   2.365   7.891  0.5811 -0.2844  0.4609
 2951TIP3    H130412   0.315   2.368   7.984  0.3428  0.5401  0.3877
 2951TIP3    H230413   0.262   2.407   7.848  0.9527 -0.1415 -0.0525
 2952TIP3   OH230414   6.096   5.721   1.195  0.2973 -0.5820  0.1341
 2952TIP3    H130415   6.072   5.633   1.223 -0.5915 -0.1569  0.7268
 2952TIP3    H230416   6.013   5.769   1.191  0.9781  0.9034  2.1546
 2953TIP3   OH230417   5.115   6.222   7.277 -0.2357  0.1907 -0.2839
 2953TIP3    H130418   5.147   6.297   7.227 -0.6798  1.5221  1.3442
 2953TIP3    H230419   5.183   6.206   7.342 -0.5089 -0.2974 -0.1157
 2954TIP3   OH230420   3.326   6.181   1.907 -0.2251  0.5570 -0.3532
 2954TIP3    H130421   3.372   6.244   1.851  0.3327 -1.4569 -2.2699
 2954TIP3    H230422   3.233   6.200   1.893 -0.0865  0.2807 -1.7655
 2955TIP3   OH230423   1.513   6.267   7.846 -1.0062  0.1233 -0.3613
 2955TIP3    H130424   1.518   6.362   7.850 -2.2307  0.1627  2.2984
 2955TIP3    H230425   1.590   6.237   7.894 -0.7701 -0.2637 -0.9614
 2956TIP3   OH230426   1.775   3.257   7.043 -0.3072  0.0478 -0.4635
 2956TIP3    H130427   1.849   3.205   7.072 -1.2218 -1.2811 -0.4058
 2956TIP3    H230428   1.796   3.281   6.953  0.4717  0.2587 -0.2344
 2957TIP3   OH230429   3.010   2.380   0.233 -0.1059 -0.4277  0.4593
 2957TIP3    H130430   3.043   2.444   0.170  1.1065 -0.9886  0.4983
 2957TIP3    H230431   2.964   2.432   0.298 -2.3522  0.0987 -1.4149
 2958TIP3   OH230432   2.038   3.625   7.703 -0.1064  0.1454  0.1966
 2958TIP3    H130433   1.985   3.546   7.716 -0.4637  0.2082 -0.7721
 2958TIP3    H230434   2.025   3.676   7.783 -0.0530 -0.6654  0.7382
 2959TIP3   OH230435   3.160   3.867   0.400  0.1577  0.5167  0.5908
 2959TIP3    H130436   3.153   3.783   0.444  1.5985  1.0489  1.8966
 2959TIP3    H230437   3.069   3.897   0.392 -0.4600 -1.4904 -0.6724
 2960TIP3   OH230438   0.207   3.489   0.742 -0.1183  0.2503 -0.2169
 2960TIP3    H130439   0.201   3.528   0.655  1.8363  1.2786  0.0581
 2960TIP3    H230440   0.209   3.394   0.726  3.9039  0.4051 -1.7231
 2961TIP3   OH230441   3.636   6.306   0.178 -0.2518  0.0902  0.1192
 2961TIP3    H130442   3.651   6.280   0.087  0.4882 -0.2718  0.3383
 2961TIP3    H230443   3.709   6.267   0.227 -0.9895 -0.2802  0.9669
 2962TIP3   OH230444   4.359   3.476   0.265 -0.0222 -0.1145 -0.5997
 2962TIP3    H130445   4.435   3.479   0.324  0.2475 -2.9941 -0.6603
 2962TIP3    H230446   4.283   3.482   0.323  0.1840 -4.3755  0.4757
 2963TIP3   OH230447   0.676   6.735   8.452  0.3379 -0.1120 -1.0524
 2963TIP3    H130448   0.724   6.658   8.422 -1.5414 -0.7382 -2.6602
 2963TIP3    H230449   0.593   6.701   8.484  0.3193  1.0753  0.2596
 2964TIP3   OH230450   3.832   2.116   0.371 -0.1880 -0.4341 -0.3106
 2964TIP3    H130451   3.769   2.091   0.303  0.0656 -1.3411 -0.2192
 2964TIP3    H230452   3.911   2.066   0.350 -0.6234 -2.0175  1.5741
 2965TIP3   OH230453   3.891   4.830   7.782 -0.2747 -0.1192  0.3624
 2965TIP3    H130454   3.861   4.833   7.691  0.6222  1.4633  0.0743
 2965TIP3    H230455   3.929   4.743   7.793  0.2295 -0.0878 -0.9942
 2966TIP3   OH230456   1.403   0.122   1.038 -0.1187 -0.0405 -0.4477
 2966TIP3    H130457   1.389   0.168   1.121 -1.8876 -0.1534 -0.6478
 2966TIP3    H230458   1.354   0.174   0.973 -0.0638 -0.8104 -1.1296
 2967TIP3   OH230459   0.963   5.147   6.871 -0.0574 -0.0212 -0.1692
 2967TIP3    H130460   0.996   5.078   6.930  1.6897  2.4341  1.9504
 2967TIP3    H230461   1.038   5.205   6.857 -0.8427  0.3678 -3.7163
 2968TIP3   OH230462   5.166   0.424   7.484 -0.4099  0.3336  0.0715
 2968TIP3    H130463   5.110   0.502   7.483  2.1482  2.3426  1.5299
 2968TIP3    H230464   5.222   0.436   7.560  2.1101 -1.4992 -1.3543
 2969TIP3   OH230465   3.131   0.101   1.974 -0.6412 -0.1449 -0.2802
 2969TIP3    H130466   3.226   0.114   1.976 -0.4747 -1.3442  0.7188
 2969TIP3    H230467   3.119   0.012   1.939 -1.4531  0.3889 -1.4153
 2970TIP3   OH230468   1.549   4.667   8.137  0.0042  0.0854  0.5846
 2970TIP3    H130469   1.551   4.571   8.133 -0.2803  0.0597  0.9837
 2970TIP3    H230470   1.462   4.690   8.105  1.2331  0.4134 -2.8786
 2971TIP3   OH230471   1.328   3.801   2.699 -0.6275  0.6768  0.0274
 2971TIP3    H130472   1.238   3.821   2.674 -0.3578  0.1250 -1.4863
 2971TIP3    H230473   1.377   3.879   2.674 -0.9345  1.8328  2.7258
 2972TIP3   OH230474   2.684   0.639   0.896  0.9812  1.3878 -0.5537
 2972TIP3    H130475   2.745   0.666   0.827  3.5542 -0.2320  0.9134
 2972TIP3    H230476   2.725   0.669   0.977 -0.3741  0.5294  0.4976
 2973TIP3   OH230477   4.496   4.400   8.551  0.3875 -0.1815  0.1459
 2973TIP3    H130478   4.544   4.475   8.587 -1.3377 -0.1830  2.6539
 2973TIP3    H230479   4.537   4.324   8.590  0.1573 -0.3676  0.0284
 2974TIP3   OH230480   1.116   5.322   0.456 -0.0190 -0.3706 -0.4632
 2974TIP3    H130481   1.110   5.321   0.361 -0.8114  0.6820 -0.4385
 2974TIP3    H230482   1.048   5.383   0.484  1.9807  1.4904  0.6362
 2975TIP3   OH230483   0.769   6.385   7.551  0.4115 -0.1655 -0.2321
 2975TIP3    H130484   0.861   6.407   7.543  0.6153 -0.8964  0.0858
 2975TIP3    H230485   0.730   6.417   7.469  0.9346  0.1888 -0.3445
 2976TIP3   OH230486   1.855   1.558   7.894 -0.6195 -0.2951  0.1004
 2976TIP3    H130487   1.945   1.526   7.892 -0.3195  0.4625  0.9315
 2976TIP3    H230488   1.844   1.605   7.811  0.4977  1.5147  0.9228
 2977TIP3   OH230489   6.562   5.308   8.354 -0.1553 -0.4829 -0.5012
 2977TIP3    H130490   6.607   5.324   8.438 -0.5798 -1.1401 -0.1432
 2977TIP3    H230491   6.469   5.319   8.375 -0.1455  1.9004 -1.4664
 2978TIP3   OH230492   5.977   3.555   1.121  0.2082 -0.5416  0.8060
 2978TIP3    H130493   5.947   3.467   1.142 -0.2148 -0.7779 -0.6438
 2978TIP3    H230494   5.898   3.603   1.096  0.8136 -1.2869 -3.4331
 2979TIP3   OH230495   5.752   1.080   2.624  0.3977 -0.3160  0.1245
 2979TIP3    H130496   5.836   1.062   2.668  0.9399  0.1667 -0.6932
 2979TIP3    H230497   5.696   1.114   2.694  0.1060 -2.7866  1.2038
 2980TIP3   OH230498   0.862   6.455   8.577  0.3198  0.2536 -0.1688
 2980TIP3    H130499   0.872   6.376   8.629  0.6791  0.1302 -0.4198
 2980TIP3    H230500   0.937   6.454   8.517  0.0783  0.5468 -0.4815
 2981TIP3   OH230501   6.724   2.614   7.501  0.2234  0.4627  0.0382
 2981TIP3    H130502   6.790   2.551   7.471  0.3558 -0.1663  1.5808
 2981TIP3    H230503   6.776   2.686   7.539  0.0289  0.5023  0.2258
 2982TIP3   OH230504   5.839   3.962   0.970 -0.4974  0.0614 -0.5216
 2982TIP3    H130505   5.932   3.985   0.981 -0.7878  0.2880  2.0904
 2982TIP3    H230506   5.837   3.909   0.891  1.9693 -0.4801 -0.3137
 2983TIP3   OH230507   1.477   1.418   0.595 -0.1483  0.1465  0.1024
 2983TIP3    H130508   1.530   1.393   0.519  0.4934 -1.3678  1.0043
 2983TIP3    H230509   1.402   1.464   0.558  0.8552  0.6984 -1.3437
 2984TIP3   OH230510   4.897   3.713   1.322  0.1657 -0.6838 -0.3374
 2984TIP3    H130511   4.822   3.772   1.320  0.2410 -0.4733  1.5380
 2984TIP3    H230512   4.952   3.741   1.250 -0.1195  1.1120  0.1113
 2985TIP3   OH230513   3.269   3.379   7.949 -0.6532 -0.7600  0.5696
 2985TIP3    H130514   3.201   3.430   7.992 -0.8568  1.3741 -2.0498
 2985TIP3    H230515   3.346   3.391   8.005 -1.1259  1.1512  0.8835
 2986TIP3   OH230516   1.452   3.388   8.523  0.4392 -0.2724  0.1002
 2986TIP3    H130517   1.515   3.458   8.536  0.7559 -0.8024  1.6051
 2986TIP3    H230518   1.367   3.429   8.540  0.5807 -0.1215  0.4556
 2987TIP3   OH230519   4.222   5.057   8.521 -0.1472 -0.5308  0.3315
 2987TIP3    H130520   4.309   5.090   8.500  0.1947 -1.4672  0.2418
 2987TIP3    H230521   4.166   5.135   8.521  0.1077 -0.2372 -2.5855
 2988TIP3   OH230522   5.611   1.498   0.420  0.0462 -0.3223  0.1870
 2988TIP3    H130523   5.539   1.553   0.452  1.2990  0.5297  1.6836
 2988TIP3    H230524   5.630   1.532   0.332  0.2277  1.1045  0.7524
 2989TIP3   OH230525   2.954   2.875   1.880 -0.1562  0.1541  0.3367
 2989TIP3    H130526   2.924   2.821   1.954 -1.0517 -1.5432 -1.1982
 2989TIP3    H230527   3.048   2.883   1.894  0.2628 -2.8894  0.0393
 2990TIP3   OH230528   0.515   5.672   8.263  0.2287 -0.3303 -0.3738
 2990TIP3    H130529   0.522   5.603   8.197  1.9396 -0.9443  0.4008
 2990TIP3    H230530   0.486   5.626   8.342  0.6751 -0.0562 -0.0462
 2991TIP3   OH230531   6.096   5.815   7.806 -0.2039  0.6001  0.2549
 2991TIP3    H130532   6.011   5.773   7.823 -0.0395  0.1055 -0.1092
 2991TIP3    H230533   6.129   5.770   7.728  0.6305  0.4267  0.6982
 2992TIP3   OH230534   3.280   4.310   0.946  0.0887 -0.1457 -0.9799
 2992TIP3    H130535   3.338   4.385   0.961 -0.5631  0.2029 -0.1508
 2992TIP3    H230536   3.339   4.237   0.926  0.7470  0.4903 -1.3698
 2993TIP3   OH230537   0.383   4.153   1.025 -0.1319  0.1487 -0.1695
 2993TIP3    H130538   0.419   4.163   1.113  1.7996 -0.2587 -0.8653
 2993TIP3    H230539   0.459   4.157   0.967 -1.2004 -0.8569 -1.7262
 2994TIP3   OH230540   2.219   0.810   2.100  0.3461  0.0011 -0.2017
 2994TIP3    H130541   2.207   0.781   2.010 -0.1192 -0.9231  0.1583
 2994TIP3    H230542   2.196   0.903   2.099 -0.8680 -0.3034 -0.7780
 2995TIP3   OH230543   4.166   1.279   7.993 -0.1900 -0.1377 -0.1907
 2995TIP3    H130544   4.141   1.202   7.942 -0.5203 -1.1806  1.4682
 2995TIP3    H230545   4.109   1.276   8.070  1.3427  0.4973  1.0240
 2996TIP3   OH230546   4.636   4.373   1.793 -0.3538 -0.1991 -0.5905
 2996TIP3    H130547   4.560   4.374   1.852 -0.3905  0.8564 -0.6406
 2996TIP3    H230548   4.631   4.289   1.749 -0.1264 -1.2031  1.1717
 2997TIP3   OH230549   6.179   5.624   1.459 -0.2069 -0.2300 -0.1907
 2997TIP3    H130550   6.230   5.645   1.537 -0.2844  0.7022 -0.3801
 2997TIP3    H230551   6.230   5.557   1.415  0.8370  0.6373 -0.3375
 2998TIP3   OH230552   0.448   6.083   2.928 -0.1582  0.2520  0.0803
 2998TIP3    H130553   0.519   6.020   2.942 -0.2073 -0.1894 -1.4278
 2998TIP3    H230554   0.403   6.089   3.012  0.8444 -0.4895  0.6883
 2999TIP3   OH230555   4.615   3.328   8.620  0.4180  0.1592  0.6558
 2999TIP3    H130556   4.625   3.354   8.711 -0.7317  3.6251 -0.0375
 2999TIP3    H230557   4.617   3.411   8.571  0.0782 -1.4662 -2.3738
 3000TIP3   OH230558   0.277   4.664   6.860 -0.2878  0.4346 -0.3037
 3000TIP3    H130559   0.328   4.729   6.908  1.2222 -0.4328 -0.6404
 3000TIP3    H230560   0.344   4.609   6.818 -1.4923  0.8651 -3.0082
 3001TIP3   OH230561   0.944   1.497   0.918 -0.0997 -0.1489 -0.8393
 3001TIP3    H130562   1.012   1.473   0.981 -0.5002 -1.1550 -0.7708
 3001TIP3    H230563   0.991   1.505   0.835  0.5714  1.9706 -0.3213
 3002TIP3   OH230564   4.520   3.992   7.580  0.5367  0.0795 -0.1178
 3002TIP3    H130565   4.543   4.002   7.672  0.3738 -0.1958 -0.0454
 3002TIP3    H230566   4.604   3.974   7.536  0.7576  1.1733 -0.1747
 3003TIP3   OH230567   4.929   2.031   0.213  0.0579  0.4421  0.1601
 3003TIP3    H130568   4.988   2.048   0.140  0.0823  0.7648  0.2524
 3003TIP3    H230569   4.902   1.940   0.202  1.1709  0.0508  0.5491
 3004TIP3   OH230570   0.518   2.000   0.957 -0.3264  0.3458 -0.0004
 3004TIP3    H130571   0.571   1.990   1.035  1.0411 -0.8440 -1.0196
 3004TIP3    H230572   0.429   2.015   0.989  0.2997  0.4423  1.7514
 3005TIP3   OH230573   5.187   5.128   2.351 -0.0973  0.4432  0.1265
 3005TIP3    H130574   5.273   5.114   2.393 -0.1370 -0.3813 -0.0481
 3005TIP3    H230575   5.147   5.041   2.351 -0.3193  0.5307 -1.1507
 3006TIP3   OH230576   1.961   2.132   8.362  0.2274 -0.3254 -0.0945
 3006TIP3    H130577   1.900   2.126   8.435  1.7539 -1.0768  1.1949
 3006TIP3    H230578   1.926   2.071   8.297 -0.0620 -1.2323  0.8799
 3007TIP3   OH230579   3.091   4.295   0.123  0.3685  0.4742 -0.2232
 3007TIP3    H130580   3.107   4.312   0.216 -0.1130  1.4722 -0.3102
 3007TIP3    H230581   3.000   4.320   0.109  0.2594 -0.2201 -0.8520
 3008TIP3   OH230582   3.494   2.441   8.526 -0.3839  0.1930 -0.0845
 3008TIP3    H130583   3.522   2.518   8.477 -0.8023 -0.7482 -1.8882
 3008TIP3    H230584   3.553   2.372   8.497 -1.6458 -0.7493 -0.4841
 3009TIP3   OH230585   1.728   5.969   8.506 -0.3863  0.4162 -0.5558
 3009TIP3    H130586   1.771   5.886   8.488 -1.8597 -0.7521  1.0542
 3009TIP3    H230587   1.634   5.950   8.500 -0.8297  1.3341  2.1315
 3010TIP3   OH230588   0.115   4.197   1.769  0.3542  0.2111  0.5557
 3010TIP3    H130589   0.071   4.220   1.851 -0.6123 -0.3600  0.2158
 3010TIP3    H230590   0.098   4.103   1.759 -0.8691  0.5747 -1.0740
 3011TIP3   OH230591   3.180   1.005   0.786  0.0022 -0.2644 -0.7128
 3011TIP3    H130592   3.131   1.079   0.822  0.1480 -0.1006 -0.8524
 3011TIP3    H230593   3.254   1.045   0.740  0.7211 -0.5502  0.1751
 3012TIP3   OH230594   6.385   5.018   7.359 -0.0073 -0.2594 -0.1378
 3012TIP3    H130595   6.316   5.084   7.350 -0.6049 -0.6669  1.1421
 3012TIP3    H230596   6.450   5.061   7.415  0.4041 -0.1570 -0.6956
 3013TIP3   OH230597   3.294   3.295   7.505 -0.1403  0.2474  0.1146
 3013TIP3    H130598   3.291   3.345   7.587  1.2716  1.2086 -0.3656
 3013TIP3    H230599   3.359   3.226   7.521  0.3966  0.6493 -0.2866
 3014TIP3   OH230600   1.553   6.640   2.322 -0.1676 -0.1150 -0.3676
 3014TIP3    H130601   1.586   6.592   2.398  0.7617  1.6738  0.4371
 3014TIP3    H230602   1.478   6.590   2.292 -0.0460 -1.3214  1.2199
 3015TIP3   OH230603   5.029   3.824   8.003 -0.2837  0.1073 -0.2302
 3015TIP3    H130604   5.053   3.916   7.993  0.7538 -0.1900 -0.5444
 3015TIP3    H230605   5.109   3.780   8.031 -0.4135 -0.9341 -1.4154
 3016TIP3   OH230606   3.890   4.562   7.312 -0.4125 -0.0638 -0.6903
 3016TIP3    H130607   3.942   4.547   7.391  1.0120  0.1909 -1.5388
 3016TIP3    H230608   3.921   4.495   7.251  0.3521  1.3036 -1.8630
 3017TIP3   OH230609   2.374   3.580   8.718  0.8289 -0.1613  0.2696
 3017TIP3    H130610   2.430   3.642   8.764  1.3600  0.2518 -0.8845
 3017TIP3    H230611   2.343   3.520   8.785  0.7559  1.0182  1.3200
 3018TIP3   OH230612   3.746   6.079   0.324  0.5385 -0.3571  0.6845
 3018TIP3    H130613   3.743   6.025   0.245  2.7347  0.5557 -0.0960
 3018TIP3    H230614   3.718   6.020   0.394  0.9870 -1.9426 -0.4120
 3019TIP3   OH230615   3.465   0.082   1.217  0.2101  0.2529  0.2683
 3019TIP3    H130616   3.554   0.094   1.183  0.7114  0.2441  1.5305
 3019TIP3    H230617   3.424   0.021   1.155  0.6457  1.2461 -1.0438
 3020TIP3   OH230618   4.244   5.310   0.857 -0.7035  0.1030 -0.4175
 3020TIP3    H130619   4.216   5.240   0.797 -0.7936 -0.4372  0.2360
 3020TIP3    H230620   4.167   5.365   0.867 -0.2595  1.0599 -1.9530
 3021TIP3   OH230621   6.005   4.601   1.758 -0.5201  0.0816  0.0087
 3021TIP3    H130622   5.947   4.568   1.689 -0.4620  1.6176 -0.8130
 3021TIP3    H230623   5.994   4.696   1.757  1.6704  0.4100  0.1103
 3022TIP3   OH230624   6.107   6.255   2.517 -0.5228  0.0453 -0.0847
 3022TIP3    H130625   6.021   6.288   2.543 -1.0188 -1.0941 -0.2402
 3022TIP3    H230626   6.092   6.163   2.496  0.6190 -0.0061 -0.7195
 3023TIP3   OH230627   4.562   0.506   7.623  0.1062  0.0816 -0.3209
 3023TIP3    H130628   4.559   0.513   7.528  2.8727  0.1300 -0.4809
 3023TIP3    H230629   4.578   0.413   7.640  0.6504  0.2296  0.0215
 3024TIP3   OH230630   0.562   2.939   7.483  0.1675 -0.1962 -0.4191
 3024TIP3    H130631   0.628   2.981   7.538 -0.0918  1.2652 -1.1539
 3024TIP3    H230632   0.543   2.856   7.526  0.9511  0.2976  0.9391
 3025TIP3   OH230633   2.141   1.340   0.947 -0.9636 -0.4408 -0.1757
 3025TIP3    H130634   2.107   1.296   1.025  0.0674 -1.8428 -0.4801
 3025TIP3    H230635   2.221   1.383   0.977  0.6932 -2.8453 -0.8470
 3026TIP3   OH230636   3.645   1.809   8.530 -0.0519  0.0021 -0.8598
 3026TIP3    H130637   3.737   1.787   8.513  0.2465 -0.6483  1.3111
 3026TIP3    H230638   3.628   1.883   8.472  2.1453  0.7901 -0.6134
 3027TIP3   OH230639   0.876   1.237   2.645 -0.4757 -0.3567 -0.8131
 3027TIP3    H130640   0.923   1.154   2.653 -1.8251 -1.0361  0.3160
 3027TIP3    H230641   0.883   1.278   2.731 -1.5535 -0.2605 -0.7550
 3028TIP3   OH230642   1.760   0.331   0.330 -0.0940 -0.0153 -0.4236
 3028TIP3    H130643   1.672   0.331   0.369 -0.5558  0.0046 -1.4160
 3028TIP3    H230644   1.746   0.296   0.242  1.2236 -1.8646  0.0748
 3029TIP3   OH230645   1.526   4.596   2.312 -0.0045 -0.3583  0.4894
 3029TIP3    H130646   1.472   4.548   2.250 -1.3456 -0.3222  1.6092
 3029TIP3    H230647   1.529   4.542   2.390 -0.6500  0.8593  1.3863
 3030TIP3   OH230648   1.032   1.249   1.802 -0.2092 -0.1164 -0.7661
 3030TIP3    H130649   1.094   1.201   1.856  1.1740 -0.4595 -2.5424
 3030TIP3    H230650   1.010   1.189   1.731 -0.5312  0.9303 -1.5925
 3031TIP3   OH230651   0.115   4.814   8.346 -0.0368 -0.1033 -0.0687
 3031TIP3    H130652   0.129   4.905   8.374  1.3255 -0.4990  0.6370
 3031TIP3    H230653   0.097   4.767   8.427  2.5237 -1.0151  0.0469
 3032TIP3   OH230654   2.260   0.055   8.898  0.1157  0.4276 -0.0026
 3032TIP3    H130655   2.280   0.147   8.914 -0.1658  0.3569  0.8322
 3032TIP3    H230656   2.337   0.008   8.929  0.1596  0.3706 -0.2009
 3033TIP3   OH230657   6.264   4.410   0.841 -0.2641  0.0969  0.3211
 3033TIP3    H130658   6.321   4.338   0.815  1.4330  1.5686 -0.2425
 3033TIP3    H230659   6.212   4.429   0.762 -0.0410  0.0931  0.1730
 3034TIP3   OH230660   6.366   3.704   7.260 -0.2098 -0.0338  0.0017
 3034TIP3    H130661   6.445   3.733   7.216 -1.9564  1.2956 -2.5238
 3034TIP3    H230662   6.334   3.781   7.306 -0.3506 -0.4080  0.5463
 3035TIP3   OH230663   0.022   5.977   0.860 -0.1520  0.0599  0.8449
 3035TIP3    H130664   0.009   5.968   0.955 -2.1093  2.7942  0.9535
 3035TIP3    H230665   0.115   5.995   0.850 -0.0475  0.4747  2.3540
 3036TIP3   OH230666   0.110   5.191   2.600 -0.1649 -0.5003  0.7557
 3036TIP3    H130667   0.107   5.284   2.621  0.1744 -0.4145  0.4368
 3036TIP3    H230668   0.087   5.187   2.507 -1.0554 -0.8166  0.9897
 3037TIP3   OH230669   6.155   3.663   0.924 -0.9494 -0.1993  0.1519
 3037TIP3    H130670   6.115   3.621   1.000 -1.1129 -0.0200  0.1646
 3037TIP3    H230671   6.084   3.671   0.860 -1.1230  0.8149  0.4601
 3038TIP3   OH230672   4.060   2.346   0.666  0.2256 -0.3011  0.0624
 3038TIP3    H130673   4.055   2.429   0.712  1.6078  0.8692 -1.7631
 3038TIP3    H230674   4.138   2.353   0.611 -0.3619 -2.2819 -1.1448
 3039TIP3   OH230675   5.477   4.355   8.587  0.3122  0.4532  0.8415
 3039TIP3    H130676   5.460   4.345   8.493 -2.4645 -1.4240  1.4232
 3039TIP3    H230677   5.416   4.423   8.615 -1.0785 -1.0972  1.7383
 3040TIP3   OH230678   2.642   4.726   7.796  0.4676  0.5099  0.5682
 3040TIP3    H130679   2.617   4.637   7.821  2.2883 -0.0567  0.5261
 3040TIP3    H230680   2.604   4.739   7.709 -1.8028  0.7065  1.4925
 3041TIP3   OH230681   0.407   1.038   0.213  0.0489 -0.2181  0.4011
 3041TIP3    H130682   0.397   0.968   0.278  0.0224 -1.3424 -0.7834
 3041TIP3    H230683   0.380   0.998   0.130  1.3195  0.7896 -0.5389
 3042TIP3   OH230684   0.802   4.130   2.173 -0.1787 -0.1996  0.2762
 3042TIP3    H130685   0.758   4.062   2.122  1.5742 -0.2328 -1.2907
 3042TIP3    H230686   0.772   4.115   2.263 -1.6290 -1.5640 -0.3846
 3043TIP3   OH230687   4.282   2.643   1.486 -0.1311 -0.0947 -0.0881
 3043TIP3    H130688   4.247   2.631   1.574  0.0122  0.1554  0.0033
 3043TIP3    H230689   4.329   2.726   1.489 -0.0766 -0.1109 -0.3852
 3044TIP3   OH230690   0.230   4.574   0.885  0.2582 -0.3628  0.0776
 3044TIP3    H130691   0.206   4.582   0.977  1.3783 -1.5261  0.4906
 3044TIP3    H230692   0.249   4.663   0.857 -1.9866  0.2719  0.4098
 3045TIP3   OH230693   2.121   0.448   0.666 -0.4251 -0.3196 -0.3561
 3045TIP3    H130694   2.038   0.434   0.621 -0.5448  0.0063 -0.2357
 3045TIP3    H230695   2.182   0.387   0.624 -0.9101 -1.1197  0.0832
 3046TIP3   OH230696   0.489   2.223   8.834  0.3022  0.2993  0.0385
 3046TIP3    H130697   0.563   2.166   8.814 -0.7441 -0.5102 -1.7035
 3046TIP3    H230698   0.443   2.233   8.751 -0.6358  2.1503  0.7228
 3047TIP3   OH230699   5.080   2.533   1.486 -0.4807 -0.3605  0.1897
 3047TIP3    H130700   5.143   2.597   1.522 -0.8814  0.1353  0.0220
 3047TIP3    H230701   5.046   2.488   1.563  0.6698 -1.2017  0.2303
 3048TIP3   OH230702   4.943   6.200   7.556 -0.1272 -0.3751 -0.0345
 3048TIP3    H130703   5.007   6.272   7.553 -1.1601  1.0651  4.6876
 3048TIP3    H230704   4.864   6.237   7.516 -0.0053  0.3461  0.3698
 3049TIP3   OH230705   6.665   4.219   1.239 -0.0542 -0.0845  0.0253
 3049TIP3    H130706   6.657   4.184   1.150 -1.4327  1.6253 -0.5833
 3049TIP3    H230707   6.673   4.142   1.294 -0.6007 -1.2600 -1.4518
 3050TIP3   OH230708   1.269   0.288   3.016  1.0221  0.2260  0.0834
 3050TIP3    H130709   1.244   0.196   3.017  0.0960  0.4539  2.0883
 3050TIP3    H230710   1.187   0.335   3.002  1.6247  0.7562 -1.9268
 3051TIP3   OH230711   1.154   4.019   7.549  0.1897  0.0723  0.0982
 3051TIP3    H130712   1.136   3.989   7.460 -0.0063 -0.4417  0.3061
 3051TIP3    H230713   1.179   3.939   7.596  1.3794  0.4974  0.2371
 3052TIP3   OH230714   1.325   4.804   2.318  1.0601  0.3272  0.2408
 3052TIP3    H130715   1.250   4.768   2.366  2.9427 -0.1054  3.1166
 3052TIP3    H230716   1.373   4.727   2.289  2.0635  0.5167  1.3211
 3053TIP3   OH230717   5.780   4.299   1.739  0.2399 -0.1339  0.1409
 3053TIP3    H130718   5.843   4.255   1.796 -0.1252  0.5214  1.0777
 3053TIP3    H230719   5.742   4.229   1.686  1.3533 -0.6111 -0.0536
 3054TIP3   OH230720   0.060   5.080   1.258  0.0045  0.6472 -0.7708
 3054TIP3    H130721  -0.023   5.128   1.263  0.3343  1.0909  0.7047
 3054TIP3    H230722   0.124   5.147   1.235  0.5266  1.0379  1.6447
 3055TIP3   OH230723   1.353   5.482   8.034 -0.2841  0.2688 -0.5805
 3055TIP3    H130724   1.336   5.411   8.096  0.9492 -0.1732 -0.7057
 3055TIP3    H230725   1.271   5.530   8.029 -0.9564 -0.7699  0.0054
 3056TIP3   OH230726   6.100   3.706   8.064  0.9080 -0.2295  0.1116
 3056TIP3    H130727   6.164   3.775   8.046  0.1599  0.5091  0.2549
 3056TIP3    H230728   6.021   3.733   8.018  0.2225 -0.3597  1.1682
 3057TIP3   OH230729   4.312   2.139   1.903  0.7494  0.4971 -0.2461
 3057TIP3    H130730   4.396   2.101   1.879  0.7564  0.5849 -0.3609
 3057TIP3    H230731   4.314   2.142   1.999  0.9036  0.5603 -0.2509
 3058TIP3   OH230732   0.321   4.973   0.557 -0.0869  0.2157  0.2906
 3058TIP3    H130733   0.382   4.970   0.483  0.6752  0.5327  0.8938
 3058TIP3    H230734   0.321   5.065   0.584 -0.6356  0.1689  0.4645
 3059TIP3   OH230735   3.516   0.309   1.400  0.3834 -0.3636 -0.4041
 3059TIP3    H130736   3.527   0.259   1.481  2.9866  1.5986  0.5959
 3059TIP3    H230737   3.507   0.243   1.331 -1.7137 -2.0876  1.3769
 3060TIP3   OH230738   4.165   4.378   8.709  0.3071 -0.7123 -0.2747
 3060TIP3    H130739   4.247   4.420   8.735  0.2552 -0.9316  0.2541
 3060TIP3    H230740   4.174   4.288   8.739  0.6362 -1.2402 -1.8748
 3061TIP3   OH230741   0.030   3.005   1.119  0.3000  0.2754  0.3799
 3061TIP3    H130742   0.107   2.955   1.144  0.0738  0.6466  1.9412
 3061TIP3    H230743  -0.009   2.955   1.047  0.2354 -1.6655  1.6805
 3062TIP3   OH230744   2.611   3.177   8.554 -0.2656  0.2729  0.7967
 3062TIP3    H130745   2.603   3.271   8.573 -0.7208  0.5430 -0.6132
 3062TIP3    H230746   2.683   3.172   8.492 -0.3749 -0.2991  0.7196
 3063TIP3   OH230747   3.080   4.369   0.784  0.4708  0.4370 -0.2257
 3063TIP3    H130748   3.153   4.349   0.843  1.2076 -0.5419 -1.4118
 3063TIP3    H230749   3.105   4.453   0.743  0.1862  0.8731  0.4725
 3064TIP3   OH230750   4.470   3.439   7.944 -0.2838  0.4322  0.2976
 3064TIP3    H130751   4.494   3.499   7.873  0.8827 -1.3083 -0.8605
 3064TIP3    H230752   4.374   3.434   7.940 -0.2820  0.9411 -0.6684
 3065TIP3   OH230753   3.219   3.309   0.778 -0.1008  0.0436 -0.0442
 3065TIP3    H130754   3.163   3.327   0.853 -1.0934 -0.6994 -0.5825
 3065TIP3    H230755   3.293   3.260   0.813  0.4569  1.4024  0.7438
 3066TIP3   OH230756   6.222   4.528   8.025 -0.1739 -0.0930 -0.2747
 3066TIP3    H130757   6.242   4.435   8.023  0.2247 -0.0195  0.0767
 3066TIP3    H230758   6.132   4.533   8.056 -1.0258 -0.4697 -2.5178
 3067TIP3   OH230759   4.497   4.697   8.091 -0.0177 -0.0067  0.1703
 3067TIP3    H130760   4.529   4.688   8.001  1.2216  1.9001  0.3677
 3067TIP3    H230761   4.425   4.759   8.085  0.0973  0.1623  0.4766
 3068TIP3   OH230762   6.416   1.159   1.811 -0.2979 -0.3928  0.1407
 3068TIP3    H130763   6.419   1.250   1.838 -1.0669 -0.3044 -0.0589
 3068TIP3    H230764   6.406   1.110   1.893 -2.7836 -0.1152  0.0572
 3069TIP3   OH230765   0.454   0.810   1.091 -0.6120 -0.3292 -0.4646
 3069TIP3    H130766   0.434   0.830   1.183  1.1283 -1.0838  0.1034
 3069TIP3    H230767   0.471   0.896   1.052  1.0920 -0.1569  0.5559
 3070TIP3   OH230768   5.683   1.605   7.345  0.1917  0.4614 -0.2153
 3070TIP3    H130769   5.588   1.598   7.354  0.2961  0.8547  1.6715
 3070TIP3    H230770   5.697   1.631   7.254 -1.6353  2.3111 -0.0413
 3071TIP3   OH230771   0.746   4.232   1.379 -0.2978  0.0864  0.1682
 3071TIP3    H130772   0.800   4.161   1.346 -0.2384  0.1193  0.1955
 3071TIP3    H230773   0.794   4.312   1.359 -0.4288  0.1274  0.0162
 3072TIP3   OH230774   1.578   2.308   1.928 -0.1199 -0.2745 -0.1383
 3072TIP3    H130775   1.501   2.359   1.901  0.6061  1.8409  1.5311
 3072TIP3    H230776   1.593   2.247   1.856 -0.6323  2.3543 -2.6204
 3073TIP3   OH230777   6.515   0.102   0.567 -0.0547  0.4137 -0.4342
 3073TIP3    H130778   6.433   0.066   0.533 -0.3454  1.2914 -0.7141
 3073TIP3    H230779   6.487   0.180   0.617  0.5343  0.2114  0.2282
 3074TIP3   OH230780   5.340   3.043   2.459 -0.1668 -0.1156  0.3917
 3074TIP3    H130781   5.407   2.975   2.445 -1.4375 -1.2148 -0.6493
 3074TIP3    H230782   5.390   3.125   2.458  1.0205 -0.7546 -2.1379
 3075TIP3   OH230783   3.880   1.039   8.177 -0.1565  0.6529  0.2757
 3075TIP3    H130784   3.874   1.127   8.139 -2.5579  0.4832  0.1351
 3075TIP3    H230785   3.881   1.052   8.271 -0.2271  0.8342  0.2503
 3076TIP3   OH230786   4.798   4.534   2.152 -0.2084 -0.2156  0.1213
 3076TIP3    H130787   4.870   4.579   2.196  0.4152 -0.7626 -0.3049
 3076TIP3    H230788   4.807   4.559   2.060  0.9558 -2.1751 -0.3614
 3077TIP3   OH230789   4.835   5.174   0.841  1.2472  0.0622  0.6124
 3077TIP3    H130790   4.882   5.168   0.757  2.1621 -1.7583  1.1973
 3077TIP3    H230791   4.875   5.107   0.896 -1.1745 -0.6887  1.6116
 3078TIP3   OH230792   3.206   1.398   1.904  0.4196 -0.0842  0.4742
 3078TIP3    H130793   3.205   1.307   1.876 -1.7054 -0.5095  1.7065
 3078TIP3    H230794   3.217   1.395   1.999 -1.9446  0.7576  0.8429
 3079TIP3   OH230795   2.851   1.706   8.426  0.7867  0.3763 -0.0504
 3079TIP3    H130796   2.855   1.632   8.365  2.1222  1.2979 -1.1469
 3079TIP3    H230797   2.942   1.723   8.449  0.5567  1.9578 -0.1914
 3080TIP3   OH230798   3.116   6.449   0.008  0.1691 -0.0829  0.0075
 3080TIP3    H130799   3.040   6.488  -0.035 -0.3396  0.1616  1.0849
 3080TIP3    H230800   3.175   6.523   0.024  0.9501 -0.3602 -1.3865
 3081TIP3   OH230801   1.436   2.837   2.678 -0.0338 -0.8719 -0.5905
 3081TIP3    H130802   1.361   2.894   2.659 -0.5118 -0.6343  1.7050
 3081TIP3    H230803   1.511   2.896   2.679 -0.2750 -0.5608  0.0604
 3082TIP3   OH230804   5.344   0.250   0.235  0.4331  0.2301  0.1054
 3082TIP3    H130805   5.423   0.265   0.287  0.2388  1.8224  0.0001
 3082TIP3    H230806   5.283   0.317   0.264 -1.1972 -1.4294  0.7286
 3083TIP3   OH230807   1.715   2.513   7.342  0.3486  0.2166 -0.3744
 3083TIP3    H130808   1.795   2.476   7.305  0.4303  0.1513 -0.1363
 3083TIP3    H230809   1.651   2.509   7.271  0.2818 -0.6269 -0.2766
 3084TIP3   OH230810   6.518   3.931   1.072  0.0557  0.1792  0.4941
 3084TIP3    H130811   6.541   3.944   1.164  0.5790  2.0200  0.1483
 3084TIP3    H230812   6.589   3.973   1.024 -0.4362 -0.3762 -0.7428
 3085TIP3   OH230813   0.857   3.736   7.460 -0.0260 -0.1221  0.7612
 3085TIP3    H130814   0.769   3.721   7.427 -0.9436  0.5050  2.7572
 3085TIP3    H230815   0.912   3.738   7.382 -1.3584 -3.0058 -0.3984
 3086TIP3   OH230816   3.978   5.586   0.376 -0.0723  0.0831 -0.0792
 3086TIP3    H130817   3.937   5.646   0.314 -0.1433 -1.2517 -1.3889
 3086TIP3    H230818   4.024   5.643   0.437 -0.3144  1.4687 -1.1250
 3087TIP3   OH230819   3.412   5.539   8.828 -0.1501 -0.2761  0.3593
 3087TIP3    H130820   3.430   5.449   8.802 -0.3272 -0.3561  0.5128
 3087TIP3    H230821   3.475   5.591   8.778 -0.8415 -0.3745 -0.6605
 3088TIP3   OH230822   6.570   0.915   8.511 -0.6309 -0.6743 -0.4542
 3088TIP3    H130823   6.584   0.840   8.569 -1.4365 -1.2641 -1.0059
 3088TIP3    H230824   6.577   0.991   8.569 -0.5690 -1.2115  0.2604
 3089TIP3   OH230825   0.009   0.835   7.607  0.3532 -0.7164  0.5882
 3089TIP3    H130826   0.017   0.930   7.616  1.2494 -0.7560  0.3755
 3089TIP3    H230827   0.005   0.802   7.697  2.2386 -0.6126  0.7532
 3090TIP3   OH230828   2.128   6.098   3.130 -0.2464 -0.0864  0.4810
 3090TIP3    H130829   2.217   6.122   3.105 -0.8872  0.0603 -1.9354
 3090TIP3    H230830   2.080   6.181   3.131 -0.5551 -0.2656  0.8247
 3091TIP3   OH230831   3.172   6.306   0.282 -0.3472 -0.7284  0.2864
 3091TIP3    H130832   3.119   6.360   0.223  1.1958  0.0858 -0.4368
 3091TIP3    H230833   3.149   6.337   0.370  0.4262  1.0845 -0.1104
 3092TIP3   OH230834   0.541   3.431   1.798 -0.1461 -0.1329  0.0780
 3092TIP3    H130835   0.609   3.476   1.848  0.5181 -0.2525 -0.7004
 3092TIP3    H230836   0.578   3.345   1.777  0.5947  0.7336 -2.6152
 3093TIP3   OH230837   4.459   6.701   2.036  0.3099 -0.4186 -0.7285
 3093TIP3    H130838   4.515   6.623   2.034 -0.6305 -1.2020  0.7249
 3093TIP3    H230839   4.374   6.670   2.004  0.0427  0.1141 -0.5434
 3094TIP3   OH230840   1.539   0.200   3.043  1.0618 -0.2135 -0.5845
 3094TIP3    H130841   1.462   0.253   3.022  0.4100 -0.7242  0.4387
 3094TIP3    H230842   1.520   0.164   3.130  2.2929 -0.6543 -0.4864
 3095TIP3   OH230843   5.805   6.187   1.184 -0.2142  0.4127 -0.5969
 3095TIP3    H130844   5.787   6.122   1.252  0.3606  0.7629 -0.1141
 3095TIP3    H230845   5.729   6.180   1.125 -1.4960  1.1648  0.8758
 3096TIP3   OH230846   1.580   3.011   8.567  0.2830 -0.6851 -0.7199
 3096TIP3    H130847   1.533   2.940   8.610 -0.8455  0.1944 -0.4595
 3096TIP3    H230848   1.659   3.023   8.621  0.1849 -1.3397 -0.4246
 3097TIP3   OH230849   6.090   5.471   1.758  0.0550  0.3760  0.0034
 3097TIP3    H130850   6.130   5.500   1.840 -1.6071 -0.1695  1.0468
 3097TIP3    H230851   6.155   5.412   1.720  0.4604 -0.1365  1.4164
 3098TIP3   OH230852   1.953   6.002   8.177  0.5762  0.3194 -0.1259
 3098TIP3    H130853   1.920   5.912   8.176  4.4260 -1.3262 -0.8064
 3098TIP3    H230854   1.937   6.032   8.266 -2.0995 -0.4133 -0.2819
 3099TIP3   OH230855   6.027   5.136   8.084  0.2021  0.1014  0.5092
 3099TIP3    H130856   6.112   5.148   8.041 -1.1820  1.8230 -1.9990
 3099TIP3    H230857   6.006   5.223   8.119 -1.1962  0.1326 -0.3251
 3100TIP3   OH230858   2.866   6.771   7.358  0.1370 -0.5825  0.4998
 3100TIP3    H130859   2.819   6.784   7.441  1.1878 -0.3231  1.0653
 3100TIP3    H230860   2.845   6.849   7.307 -1.4054 -1.2444  0.0600
 3101TIP3   OH230861   1.454   4.263   0.837 -0.4705  0.5536  0.4331
 3101TIP3    H130862   1.419   4.293   0.754 -1.3430 -0.5849  0.3569
 3101TIP3    H230863   1.547   4.250   0.821 -0.3594  1.7081  0.0577
 3102TIP3   OH230864   5.222   0.007   0.676 -0.7064 -0.0269 -0.0034
 3102TIP3    H130865   5.215   0.100   0.652 -1.7292  0.0970  0.6891
 3102TIP3    H230866   5.211  -0.040   0.593  0.0519  0.4762 -0.3941
 3103TIP3   OH230867   3.045   0.310   7.865  0.1403 -0.0228  0.1044
 3103TIP3    H130868   3.059   0.338   7.955  2.8570 -1.1727  0.1211
 3103TIP3    H230869   3.105   0.365   7.813 -1.6630  0.9084 -1.1234
 3104TIP3   OH230870   0.494   3.115   1.129  0.1034  0.3756  0.0106
 3104TIP3    H130871   0.568   3.082   1.077  0.2178 -1.1231  1.0360
 3104TIP3    H230872   0.434   3.152   1.065  1.1360  0.4046 -0.9809
 3105TIP3   OH230873   3.837   6.209   8.408 -0.6486 -1.1617 -0.0923
 3105TIP3    H130874   3.791   6.180   8.487  1.1132  0.7044  1.7703
 3105TIP3    H230875   3.818   6.142   8.342 -2.4835 -2.6226  1.7945
 3106TIP3   OH230876   1.183   2.825   8.514 -0.3929 -0.0468  0.6311
 3106TIP3    H130877   1.146   2.737   8.522 -0.2735 -0.0727  0.9012
 3106TIP3    H230878   1.214   2.830   8.423  0.9507 -0.8196  1.0212
 3107TIP3   OH230879   0.707   0.691   2.018  0.7203 -0.6825  0.1663
 3107TIP3    H130880   0.643   0.734   2.074 -0.6111  0.1885 -1.9230
 3107TIP3    H230881   0.745   0.761   1.965 -0.5832 -1.8044 -2.4319
 3108TIP3   OH230882   3.380   0.089   7.875  0.3500 -0.3418 -0.6089
 3108TIP3    H130883   3.404   0.033   7.801 -1.3895 -0.6040 -1.0389
 3108TIP3    H230884   3.389   0.178   7.841  0.6220 -0.4322 -0.7766
 3109TIP3   OH230885   1.761   5.068   7.933 -0.6002 -0.2000 -0.0203
 3109TIP3    H130886   1.682   5.017   7.945  0.2379 -1.0446  2.3546
 3109TIP3    H230887   1.752   5.143   7.992 -0.4383  0.7406 -1.1466
 3110TIP3   OH230888   5.412   2.725   6.983 -0.5236  0.5666 -0.1268
 3110TIP3    H130889   5.361   2.805   6.977  0.5671  1.2285 -0.9180
 3110TIP3    H230890   5.468   2.738   7.060 -0.5424  0.4360 -0.0901
 3111TIP3   OH230891   2.650   5.206   1.936 -0.3855 -0.4250 -0.0588
 3111TIP3    H130892   2.739   5.242   1.930  0.2599 -1.4393  2.1555
 3111TIP3    H230893   2.632   5.171   1.849  1.8742 -1.1911 -0.2937
 3112TIP3   OH230894   6.253   3.513   8.914  0.5075  0.0749  0.5199
 3112TIP3    H130895   6.158   3.501   8.909  0.4438  0.2996  1.1329
 3112TIP3    H230896   6.285   3.431   8.952  0.5445  0.0576  0.4516
 3113TIP3   OH230897   0.703   3.462   2.155  0.3713 -0.2070  0.7869
 3113TIP3    H130898   0.773   3.448   2.219  0.1277  0.7646  1.2888
 3113TIP3    H230899   0.640   3.393   2.175  0.4433 -0.1092  1.3963
 3114TIP3   OH230900   1.210   0.021   1.241  0.5785 -0.3029 -0.7114
 3114TIP3    H130901   1.129  -0.017   1.275  0.2399  0.8726 -0.1723
 3114TIP3    H230902   1.198   0.023   1.146  0.2773 -0.7753 -0.6874
 3115TIP3   OH230903   2.657   0.910   7.736  0.2989 -0.4565 -0.0842
 3115TIP3    H130904   2.583   0.940   7.684 -1.0902 -1.4486  1.2188
 3115TIP3    H230905   2.714   0.865   7.674 -0.8700 -0.8618 -0.8876
 3116TIP3   OH230906   3.261   1.289   0.226  0.0100  0.1004 -0.1826
 3116TIP3    H130907   3.315   1.220   0.185 -0.3359 -0.0965 -0.3084
 3116TIP3    H230908   3.314   1.319   0.300 -0.0175 -0.5959  0.1245
 3117TIP3   OH230909   2.869   1.932   1.556  0.0767 -0.6238  0.3654
 3117TIP3    H130910   2.793   1.875   1.565 -1.0432  0.7242 -0.3300
 3117TIP3    H230911   2.930   1.882   1.501  0.3092 -2.2621  1.9953
 3118TIP3   OH230912   4.082   0.859   8.865  0.4789 -0.3021 -0.3690
 3118TIP3    H130913   4.027   0.797   8.912 -1.4890  1.4643 -0.2092
 3118TIP3    H230914   4.154   0.878   8.925  0.1005 -1.0135  0.3281
 3119TIP3   OH230915   3.791   1.525   8.266 -0.2344  0.0264 -0.1497
 3119TIP3    H130916   3.730   1.478   8.322  0.8859  0.6808  1.7042
 3119TIP3    H230917   3.875   1.482   8.279  0.2325  0.7618 -0.6169
 3120TIP3   OH230918   6.505   2.961   2.227  0.2587  0.1389 -0.4993
 3120TIP3    H130919   6.486   3.013   2.149  2.2775  1.3854 -0.2493
 3120TIP3    H230920   6.474   3.015   2.300  0.3908  0.0003 -0.3388
 3121TIP3   OH230921   0.700   0.645   7.946  0.2563  0.2604 -0.3143
 3121TIP3    H130922   0.641   0.587   7.995 -1.0182  1.8515  0.0937
 3121TIP3    H230923   0.787   0.605   7.957 -0.2171 -0.2802  1.9594
 3122TIP3   OH230924   0.366   0.415   7.612 -0.1536  0.1471  0.0822
 3122TIP3    H130925   0.293   0.368   7.653  2.0233 -0.8153  3.3076
 3122TIP3    H230926   0.362   0.503   7.650  0.9754 -0.2758  1.2631
 3123TIP3   OH230927   5.570   0.310   0.391  0.3079 -0.0363 -0.7572
 3123TIP3    H130928   5.518   0.309   0.471 -0.0785  0.0340 -1.0007
 3123TIP3    H230929   5.629   0.235   0.399 -0.0642 -0.3162 -0.6258
 3124TIP3   OH230930   2.573   6.156   2.171 -0.0640  0.2013  0.3153
 3124TIP3    H130931   2.661   6.160   2.207  0.8135  1.4831 -1.7617
 3124TIP3    H230932   2.520   6.209   2.231  0.2098 -1.6870  2.3384
 3125TIP3   OH230933   5.964   4.773   0.509  0.0138  0.3293  0.1032
 3125TIP3    H130934   6.026   4.820   0.564  0.2491 -1.9665  1.9807
 3125TIP3    H230935   6.015   4.700   0.473 -1.0746 -0.4022 -0.0143
 3126TIP3   OH230936   4.242   6.310   0.764  0.5193 -0.0210 -0.4702
 3126TIP3    H130937   4.177   6.299   0.833  1.1214  1.1317  0.3265
 3126TIP3    H230938   4.264   6.403   0.767  2.7786 -0.5130 -0.1617
 3127TIP3   OH230939   5.505   5.224   7.910 -0.6678  0.2002 -0.3977
 3127TIP3    H130940   5.440   5.160   7.880  0.1373 -0.0495 -1.7150
 3127TIP3    H230941   5.577   5.216   7.847  1.6022 -1.0238  2.1229
 3128TIP3   OH230942   0.500   1.010   7.598 -0.4240 -0.6078 -0.6631
 3128TIP3    H130943   0.440   0.953   7.549 -1.9919  1.2828 -1.0757
 3128TIP3    H230944   0.525   1.078   7.535  0.8081 -0.3835  0.0286
 3129TIP3   OH230945   0.240   1.913   7.524 -0.6129 -0.0261  0.0319
 3129TIP3    H130946   0.327   1.897   7.559 -1.2783 -1.3684  1.1558
 3129TIP3    H230947   0.205   1.984   7.578 -0.5358 -0.0588  0.1240
 3130TIP3   OH230948   1.259   6.645   0.438  1.0103 -0.0998 -0.0610
 3130TIP3    H130949   1.327   6.598   0.486  1.7652  1.2422  0.2326
 3130TIP3    H230950   1.291   6.648   0.348  0.7584 -0.5283 -0.1625
 3131TIP3   OH230951   3.142   2.581   2.338 -0.2391  0.8520 -0.2369
 3131TIP3    H130952   3.070   2.543   2.389  0.2726  2.3190  1.6600
 3131TIP3    H230953   3.205   2.510   2.329 -0.5534  0.4262  0.7757
 3132TIP3   OH230954   5.575   2.116   2.141 -0.4109  0.2097  0.2580
 3132TIP3    H130955   5.591   2.204   2.108  2.0550  0.2959  1.4590
 3132TIP3    H230956   5.610   2.117   2.230  0.3405 -2.1501  0.0722
 3133TIP3   OH230957   1.349   4.739   0.671  0.0623 -0.3229  0.2693
 3133TIP3    H130958   1.328   4.766   0.582 -0.4384 -0.0061  0.4811
 3133TIP3    H230959   1.444   4.750   0.677  0.0238  0.2156 -0.0381
 3134TIP3   OH230960   4.526   1.012   1.065  0.7900 -0.4776  0.0622
 3134TIP3    H130961   4.456   1.049   1.118 -0.3182  0.1037 -1.6974
 3134TIP3    H230962   4.507   0.918   1.061 -0.1912 -0.2642 -0.7630
 3135TIP3   OH230963   1.217   4.861   8.825 -0.3413 -0.2896  0.1051
 3135TIP3    H130964   1.308   4.832   8.811 -0.6340 -1.8963  1.2542
 3135TIP3    H230965   1.165   4.781   8.816 -1.5806  0.4832  0.1984
 3136TIP3   OH230966   6.360   3.620   0.736 -0.6310  0.3707 -0.4087
 3136TIP3    H130967   6.324   3.576   0.659  0.4350 -1.1012 -0.1257
 3136TIP3    H230968   6.284   3.637   0.792 -1.0605 -1.6818 -0.2897
 3137TIP3   OH230969   5.774   4.350   0.468 -0.0689 -0.0011  0.0291
 3137TIP3    H130970   5.849   4.338   0.525  2.2284 -0.8664 -2.9447
 3137TIP3    H230971   5.719   4.273   0.484  0.6357 -0.3414  0.8489
 3138TIP3   OH230972   0.107   6.713   7.364  0.6483 -0.0565  0.0354
 3138TIP3    H130973   0.071   6.762   7.290 -1.5653 -1.5172  0.0648
 3138TIP3    H230974   0.163   6.647   7.323  1.0499  0.4248 -0.2009
 3139TIP3   OH230975   6.458   1.997   0.790  0.4601  0.1533  0.2319
 3139TIP3    H130976   6.417   2.077   0.758  0.8040  0.1902 -0.1262
 3139TIP3    H230977   6.456   1.938   0.715 -1.6560 -0.9343  1.0529
 3140TIP3   OH230978   0.219   0.771   2.325 -0.5122  0.3968 -0.0245
 3140TIP3    H130979   0.268   0.728   2.395  0.0441 -0.3647 -0.8631
 3140TIP3    H230980   0.274   0.844   2.299 -0.0635 -0.1364 -0.5952
 3141TIP3   OH230981   3.395   0.331   7.743  0.0231  0.0723 -0.4410
 3141TIP3    H130982   3.459   0.302   7.678  0.8141  2.8298 -1.0307
 3141TIP3    H230983   3.341   0.396   7.698 -1.4236 -0.1754  0.8279
 3142TIP3   OH230984   3.515   5.305   0.976 -1.0652 -0.4748  0.7016
 3142TIP3    H130985   3.603   5.291   0.942 -1.5246 -1.1725 -0.2386
 3142TIP3    H230986   3.524   5.380   1.035  0.0089 -0.0424  0.0208
 3143TIP3   OH230987   4.939   0.015   1.676  0.8203 -0.3007  0.1667
 3143TIP3    H130988   4.997   0.077   1.720 -0.5795  0.7789  0.5823
 3143TIP3    H230989   4.860   0.014   1.731 -0.3029 -0.2492 -1.3741
 3144TIP3   OH230990   6.339   0.928   0.252  0.4225  0.1044  0.3628
 3144TIP3    H130991   6.292   0.855   0.292 -0.1429  1.1589  1.7426
 3144TIP3    H230992   6.431   0.910   0.269  0.2444  0.0577  1.3557
 3145TIP3   OH230993   6.258   4.052   6.836  0.2227  0.1740  0.6197
 3145TIP3    H130994   6.230   4.049   6.928 -0.1418 -1.9811  0.4870
 3145TIP3    H230995   6.181   4.083   6.788 -1.0342 -2.6696  0.6229
 3146TIP3   OH230996   2.238   0.486   8.809 -0.4240 -0.3175  0.0342
 3146TIP3    H130997   2.210   0.527   8.891 -0.8245  0.2674 -0.3810
 3146TIP3    H230998   2.286   0.556   8.764  1.1811 -1.1078  0.4523
 3147TIP3   OH230999   1.341   5.677   1.748  0.0395 -0.2270 -0.2812
 3147TIP3    H131000   1.329   5.772   1.750  2.4014  0.1244  0.1049
 3147TIP3    H231001   1.273   5.643   1.807  0.0052  1.3363  0.6299
 3148TIP3   OH231002   5.504   1.577   1.923 -0.3124  0.3682 -0.2034
 3148TIP3    H131003   5.433   1.641   1.929  0.1641  0.8362  0.8159
 3148TIP3    H231004   5.547   1.597   1.840  0.3042  1.9143  0.4441
 3149TIP3   OH231005   2.260   4.514   0.433  0.3855  0.1125  0.2648
 3149TIP3    H131006   2.312   4.453   0.380  1.6893  0.4584  1.1051
 3149TIP3    H231007   2.179   4.525   0.383  1.6028  0.5288 -1.7437
 3150TIP3   OH231008   4.028   4.362   7.891 -0.1165  0.0021 -0.2361
 3150TIP3    H131009   4.049   4.397   7.977 -2.5196 -1.2513  0.9383
 3150TIP3    H231010   3.971   4.429   7.851  0.4213  0.2564 -0.5978
 3151TIP3   OH231011   0.071   3.620   1.344  0.1097 -1.0275  0.1654
 3151TIP3    H131012  -0.016   3.611   1.306  0.3738 -0.3983 -0.6090
 3151TIP3    H231013   0.056   3.617   1.439 -0.6742 -1.5460  0.0370
 3152TIP3   OH231014   4.137   4.754   0.017  0.8880  0.2122 -0.0417
 3152TIP3    H131015   4.070   4.754  -0.052  2.9059 -0.8847 -2.1517
 3152TIP3    H231016   4.139   4.844   0.049 -2.2361  0.0811  0.8625
 3153TIP3   OH231017   6.382   2.603   2.377  0.5176  0.7152  0.2800
 3153TIP3    H131018   6.398   2.539   2.447  2.4640  0.4407 -0.3567
 3153TIP3    H231019   6.399   2.555   2.296 -3.2243  0.5772 -0.5827
 3154TIP3   OH231020   5.129   4.392   8.832 -0.0663 -0.0674 -0.3898
 3154TIP3    H131021   5.103   4.415   8.743  0.1445 -2.3976 -1.1041
 3154TIP3    H231022   5.217   4.429   8.842  1.2130 -2.3346 -2.3111
 3155TIP3   OH231023   3.390   1.634   8.532 -0.0561  0.0465 -0.3282
 3155TIP3    H131024   3.465   1.635   8.472 -0.5026  2.0124 -0.9363
 3155TIP3    H231025   3.427   1.653   8.618  0.5113 -2.1964 -0.0201
 3156TIP3   OH231026   1.459   0.958   0.001 -0.2399 -0.1820  0.5942
 3156TIP3    H131027   1.449   1.051   0.021 -0.7621  0.0667 -0.7328
 3156TIP3    H231028   1.554   0.945  -0.005 -0.1781  0.6296 -0.7172
 3157TIP3   OH231029   4.510   6.696   0.303  0.0271  0.1012  0.2188
 3157TIP3    H131030   4.524   6.617   0.355  0.9832 -0.1559 -0.3926
 3157TIP3    H231031   4.471   6.664   0.222  0.8104  0.1867 -0.2029
 3158TIP3   OH231032   5.271   1.319   1.664  0.0403 -0.0289  0.2541
 3158TIP3    H131033   5.353   1.318   1.616  0.6878 -0.4611  1.3308
 3158TIP3    H231034   5.237   1.229   1.657 -1.7213  0.7146 -2.3880
 3159TIP3   OH231035   3.241   1.842   8.817 -0.3686 -0.1921  0.2227
 3159TIP3    H131036   3.306   1.811   8.754 -1.9081 -2.8144 -0.2352
 3159TIP3    H231037   3.281   1.827   8.903  1.2416  2.2586  0.0148
 3160TIP3   OH231038   6.753   1.964   0.648 -0.0871  0.2831  0.0572
 3160TIP3    H131039   6.666   2.002   0.635  0.1522  1.5003  1.6674
 3160TIP3    H231040   6.810   2.039   0.664  1.1544 -0.5410 -0.3376
 3161TIP3   OH231041   1.510   1.926   1.019  0.2640  0.0651 -1.2094
 3161TIP3    H131042   1.488   1.962   0.933 -0.9577  0.9281 -0.5621
 3161TIP3    H231043   1.549   2.000   1.066  0.7313 -0.3487 -0.9354
 3162TIP3   OH231044   0.568   2.384   2.776 -0.1998  0.4639 -0.0052
 3162TIP3    H131045   0.625   2.314   2.808  1.0579  1.3686 -0.2090
 3162TIP3    H231046   0.503   2.338   2.722  0.3641 -0.5861  0.1777
 3163TIP3   OH231047   4.996   3.515   8.574 -0.4280 -0.4946  0.5127
 3163TIP3    H131048   4.937   3.585   8.603  1.7714  1.5455  0.4287
 3163TIP3    H231049   4.971   3.439   8.626 -2.3828  0.5641  1.2397
 3164TIP3   OH231050   6.373   5.724   1.629  0.5801  0.2259 -0.7498
 3164TIP3    H131051   6.417   5.687   1.706 -0.3704  0.2180 -0.1991
 3164TIP3    H231052   6.439   5.717   1.559  1.7685  1.0343  0.2474
 3165TIP3   OH231053   3.727   0.714   3.186  0.3143 -0.6746 -0.3350
 3165TIP3    H131054   3.763   0.631   3.157 -0.7210 -1.7276  1.2019
 3165TIP3    H231055   3.633   0.698   3.196  0.0317  0.7828 -0.3514
 3166TIP3   OH231056   1.854   3.769   2.397 -0.0939 -0.2631 -0.1222
 3166TIP3    H131057   1.852   3.673   2.404 -1.3335 -0.2463  0.0276
 3166TIP3    H231058   1.795   3.799   2.466  0.0804  0.5994 -0.3370
 3167TIP3   OH231059   6.130   2.314   7.358 -0.0747 -0.4830 -0.0364
 3167TIP3    H131060   6.128   2.334   7.451 -0.6009  1.2421 -0.3818
 3167TIP3    H231061   6.041   2.331   7.328  0.7427  1.7910 -1.3633
 3168TIP3   OH231062   5.988   1.935   1.993 -0.5928 -0.2031 -0.2889
 3168TIP3    H131063   6.028   1.974   2.070  1.3269 -0.2393 -1.2123
 3168TIP3    H231064   5.992   1.841   2.009 -1.8139 -0.1731  0.3060
 3169TIP3   OH231065   2.260   1.501   7.327 -0.0387  0.2608  0.1937
 3169TIP3    H131066   2.348   1.540   7.331  0.6266 -1.1057 -0.3239
 3169TIP3    H231067   2.271   1.414   7.366 -1.1819  0.0944  0.1660
 3170TIP3   OH231068   5.838   5.571   0.133  0.5245 -0.5613  0.9514
 3170TIP3    H131069   5.795   5.609   0.209  0.0364 -1.5361  1.1814
 3170TIP3    H231070   5.767   5.551   0.073  0.9305  0.4776  0.0928
 3171TIP3   OH231071   6.340   6.438   7.513  0.0694  0.4010 -0.5430
 3171TIP3    H131072   6.400   6.381   7.466 -0.9908 -1.8967  0.7092
 3171TIP3    H231073   6.279   6.470   7.446  0.5028 -0.1852 -1.2283
 3172TIP3   OH231074   5.060   2.709   8.524 -0.0224  0.0605 -0.4151
 3172TIP3    H131075   5.138   2.685   8.574 -0.8379  1.1979  1.4995
 3172TIP3    H231076   5.002   2.751   8.588 -1.8399  0.0587 -1.9754
 3173TIP3   OH231077   1.456   5.808   0.271 -0.3621 -0.3070 -0.7955
 3173TIP3    H131078   1.540   5.854   0.268 -0.3549 -0.3292 -0.9865
 3173TIP3    H231079   1.435   5.801   0.364  0.2001 -0.9373 -0.7114
 3174TIP3   OH231080   5.128   3.372   2.270 -0.4903 -0.4971 -0.0695
 3174TIP3    H131081   5.206   3.323   2.245  0.3918  0.6562  0.3239
 3174TIP3    H231082   5.094   3.327   2.348 -0.6681 -1.4394 -0.6735
 3175TIP3   OH231083   5.162   6.169   1.307 -1.0438  1.1386 -0.2804
 3175TIP3    H131084   5.192   6.131   1.389  1.9376  2.3063 -0.6919
 3175TIP3    H231085   5.104   6.103   1.269 -0.4673 -0.5165  1.5669
 3176TIP3   OH231086   2.578   4.842   8.698  0.3987  0.1606  0.2835
 3176TIP3    H131087   2.593   4.858   8.605 -0.7689  1.2493  0.2587
 3176TIP3    H231088   2.621   4.915   8.743  1.6917 -0.8102  0.6720
 3177TIP3   OH231089   6.419   0.154   8.391 -0.1513 -0.5130 -0.5083
 3177TIP3    H131090   6.463   0.171   8.308  0.4490 -2.8352 -0.7336
 3177TIP3    H231091   6.490   0.147   8.455 -0.4917 -0.3156 -0.1009
 3178TIP3   OH231092   1.119   1.922   8.702  0.0851  0.6240  0.0116
 3178TIP3    H131093   1.124   2.004   8.652  1.0534  0.4759 -0.1506
 3178TIP3    H231094   1.198   1.923   8.756  0.4043 -0.4711 -0.4151
 3179TIP3   OH231095   1.082   2.643   7.213 -0.0505  0.7820  0.4393
 3179TIP3    H131096   1.086   2.549   7.228  0.5147  0.6768 -0.3331
 3179TIP3    H231097   1.097   2.653   7.119 -2.5365  1.4701  0.0465
 3180TIP3   OH231098   0.727   6.376   2.204 -0.0009  0.4451 -0.3810
 3180TIP3    H131099   0.785   6.324   2.260 -0.1197 -0.1914 -0.8494
 3180TIP3    H231100   0.644   6.379   2.252  0.5742  1.9443  0.6352
 3181TIP3   OH231101   5.253   5.336   2.041  0.5765 -0.1207  0.3896
 3181TIP3    H131102   5.193   5.391   2.092  0.9682 -0.3909  1.1601
 3181TIP3    H231103   5.228   5.351   1.950 -0.3300  0.1604  0.6718
 3182TIP3   OH231104   5.496   0.445   8.678 -0.3766 -0.2677 -0.1905
 3182TIP3    H131105   5.535   0.452   8.765 -0.8853 -3.7664  0.4781
 3182TIP3    H231106   5.408   0.482   8.687  0.3541  1.5090  0.0796
 3183TIP3   OH231107   2.564   5.885   1.772 -0.1654  0.3677  0.5465
 3183TIP3    H131108   2.596   5.839   1.695 -0.5330  3.2012 -1.4672
 3183TIP3    H231109   2.475   5.853   1.784  0.3711 -1.1314  0.7303
 3184TIP3   OH231110   4.715   3.452   8.097 -0.1272 -0.1493  0.0709
 3184TIP3    H131111   4.673   3.377   8.139  0.4931 -0.5066  0.0592
 3184TIP3    H231112   4.657   3.474   8.025  0.2091 -1.2893 -0.5780
 3185TIP3   OH231113   2.572   1.366   7.159 -0.4021  0.3032 -0.3852
 3185TIP3    H131114   2.590   1.460   7.158  1.1211  0.0426 -0.9240
 3185TIP3    H231115   2.516   1.351   7.083 -0.8743  0.8012 -0.1426
 3186TIP3   OH231116   0.248   5.939   7.797 -0.3004 -0.5273  0.1627
 3186TIP3    H131117   0.245   5.877   7.725 -1.5677 -0.4550  0.1263
 3186TIP3    H231118   0.331   5.922   7.840  0.8177 -0.0984 -1.7226
 3187TIP3   OH231119   1.702   3.503   8.538  0.2103 -0.5808 -0.2231
 3187TIP3    H131120   1.721   3.510   8.444 -0.3949 -1.3482 -0.4026
 3187TIP3    H231121   1.736   3.417   8.564  1.0900 -0.0576  0.4436
 3188TIP3   OH231122   2.246   5.537   8.155  0.4062  0.6754  0.0316
 3188TIP3    H131123   2.310   5.592   8.201  1.4305 -0.3593 -0.1252
 3188TIP3    H231124   2.193   5.499   8.225  1.0213  0.2565  0.2814
 3189TIP3   OH231125   5.448   2.373   1.084  0.0204  0.4832  0.2592
 3189TIP3    H131126   5.367   2.402   1.126  0.1124 -0.9164  1.4814
 3189TIP3    H231127   5.513   2.375   1.153  0.3198 -1.2965  0.0609
 3190TIP3   OH231128   2.058   4.368   1.496  0.3102 -0.2453 -0.7797
 3190TIP3    H131129   2.137   4.327   1.529 -0.0137  0.1444  0.5591
 3190TIP3    H231130   2.085   4.457   1.474 -0.2926  0.9492  2.6335
 3191TIP3   OH231131   1.241   2.303   6.749 -0.3301 -0.8995  0.2027
 3191TIP3    H131132   1.313   2.359   6.779  0.2681 -1.5522  0.0135
 3191TIP3    H231133   1.163   2.356   6.760  0.1616 -0.2498  0.6086
 3192TIP3   OH231134   3.522   5.711   8.647  0.4135  0.1071  0.1615
 3192TIP3    H131135   3.548   5.747   8.562 -2.2491  1.0886 -0.3298
 3192TIP3    H231136   3.507   5.788   8.702  0.8905 -0.4899  1.1509
 3193TIP3   OH231137   5.982   4.980   1.521 -0.7966  0.1567 -0.3337
 3193TIP3    H131138   5.929   4.993   1.443 -0.3436  1.2621 -0.4815
 3193TIP3    H231139   6.023   4.895   1.509 -0.4728  0.4638 -1.4562
 3194TIP3   OH231140   2.380   6.712   0.480 -0.3918  0.7015  0.0115
 3194TIP3    H131141   2.310   6.653   0.508  0.2274 -0.0974 -0.0792
 3194TIP3    H231142   2.396   6.688   0.389  0.3035  0.5573  0.1684
 3195TIP3   OH231143   4.708   3.564   0.738  0.0559 -0.4096 -0.1032
 3195TIP3    H131144   4.692   3.488   0.681  3.1015 -1.6612  0.4989
 3195TIP3    H231145   4.686   3.640   0.684 -3.3009 -1.6184 -0.6644
 3196TIP3   OH231146   6.295   3.212   1.064 -0.2436  0.2266  0.4698
 3196TIP3    H131147   6.321   3.214   0.972  0.8269 -1.1889  0.6901
 3196TIP3    H231148   6.292   3.303   1.091 -0.1617  0.6410 -0.8643
 3197TIP3   OH231149   5.505   4.212   8.051 -0.4225 -0.4997  0.3008
 3197TIP3    H131150   5.527   4.135   8.103  2.5503 -0.6568 -1.0141
 3197TIP3    H231151   5.554   4.283   8.091 -3.0396  0.7898  1.4210
 3198TIP3   OH231152   5.248   6.314   1.557 -0.1986 -0.1255  0.8665
 3198TIP3    H131153   5.316   6.365   1.515  0.5035 -1.0170  0.8936
 3198TIP3    H231154   5.172   6.373   1.561 -0.4199 -0.1136 -1.9554
 3199TIP3   OH231155   2.498   3.937   2.578 -0.7364 -0.1863 -0.3441
 3199TIP3    H131156   2.436   4.004   2.605 -1.2075  0.0592 -1.9018
 3199TIP3    H231157   2.472   3.859   2.626 -1.8370  0.0882 -0.4678
 3200TIP3   OH231158   5.605   0.939   8.217  0.1491  0.0615  0.7527
 3200TIP3    H131159   5.538   0.970   8.278 -0.5332 -2.6195  1.4866
 3200TIP3    H231160   5.648   0.867   8.264  0.1949 -1.5079 -1.5431
 3201TIP3   OH231161   5.605   3.501   7.182 -0.5582 -0.1937 -0.2396
 3201TIP3    H131162   5.698   3.523   7.176 -0.7015  0.6399  0.3625
 3201TIP3    H231163   5.603   3.407   7.200  0.1296 -0.4228 -1.3196
 3202TIP3   OH231164   0.685   6.347   7.050  0.3448  0.5622  0.1005
 3202TIP3    H131165   0.674   6.379   6.960 -0.8040  0.7370  0.2998
 3202TIP3    H231166   0.607   6.376   7.096  0.2661 -0.7087  0.8141
 3203TIP3   OH231167   2.189   0.453   0.924 -0.6570  0.5031 -0.0320
 3203TIP3    H131168   2.285   0.462   0.921 -0.4349 -0.8213  1.8413
 3203TIP3    H231169   2.163   0.456   0.832  1.3195 -0.4967 -0.6884
 3204TIP3   OH231170   1.138   3.933   8.240  0.3080  0.0668 -0.3481
 3204TIP3    H131171   1.167   4.024   8.235  0.8397 -0.1093 -0.4747
 3204TIP3    H231172   1.166   3.904   8.326 -1.4184  0.5420  0.4282
 3205TIP3   OH231173   0.289   1.004   7.818 -0.0625  0.3915 -0.2301
 3205TIP3    H131174   0.314   0.993   7.727 -0.6042  3.7436 -0.8945
 3205TIP3    H231175   0.371   1.014   7.865  0.1751 -0.4446 -0.4387
 3206TIP3   OH231176   3.409   0.565   8.389 -0.2468 -0.3504  0.1656
 3206TIP3    H131177   3.391   0.491   8.447 -1.4676  0.5858  1.0450
 3206TIP3    H231178   3.323   0.601   8.369  0.3620  2.3315  1.8035
 3207TIP3   OH231179   6.444   5.182   7.764  0.1169  0.4669  0.3083
 3207TIP3    H131180   6.411   5.270   7.747 -1.1901 -0.0457  0.0724
 3207TIP3    H231181   6.376   5.140   7.815 -0.1674 -1.0020 -1.1797
 3208TIP3   OH231182   1.546   2.894   1.345 -0.2570 -0.1547  0.4245
 3208TIP3    H131183   1.600   2.954   1.294 -0.0799 -1.0958 -0.5411
 3208TIP3    H231184   1.606   2.825   1.372 -0.6140 -0.2977  0.8687
 3209TIP3   OH231185   4.436   3.790   8.456  0.9084  0.4845  0.0485
 3209TIP3    H131186   4.351   3.799   8.415 -0.3301 -1.5074  1.9476
 3209TIP3    H231187   4.499   3.807   8.386 -1.0394 -1.0454 -2.2020
 3210TIP3   OH231188   2.887   3.931   1.756  0.0349 -0.0836  0.4116
 3210TIP3    H131189   2.907   3.946   1.663 -2.2455 -0.2768 -0.1739
 3210TIP3    H231190   2.903   3.837   1.768  0.4300 -0.0409  0.2301
 3211TIP3   OH231191   5.558   4.085   8.289 -0.4497  0.2253 -0.0429
 3211TIP3    H131192   5.605   4.021   8.343 -0.2651  1.3236  1.1581
 3211TIP3    H231193   5.622   4.155   8.275 -1.0297  0.7066 -0.2958
 3212TIP3   OH231194   2.437   1.800   8.293  0.2702  0.5629  0.7868
 3212TIP3    H131195   2.520   1.845   8.307  1.1781 -1.5265  2.6052
 3212TIP3    H231196   2.376   1.844   8.353  0.6661  0.6150  1.1601
 3213TIP3   OH231197   0.655   2.602   2.621  0.0833  0.5580 -0.5683
 3213TIP3    H131198   0.575   2.632   2.578  0.1631  0.3084 -0.8907
 3213TIP3    H231199   0.626   2.530   2.678 -0.2836  1.9165  1.0123
 3214TIP3   OH231200   1.433   1.502   8.063 -0.3521  0.2027 -0.2747
 3214TIP3    H131201   1.514   1.499   8.013 -0.7688  0.5675 -0.9818
 3214TIP3    H231202   1.410   1.411   8.079  1.7958  0.0284  2.5910
 3215TIP3   OH231203   1.334   0.611   2.641 -0.0019 -0.3938 -0.3263
 3215TIP3    H131204   1.390   0.604   2.564 -0.1106 -1.2802 -0.3343
 3215TIP3    H231205   1.336   0.524   2.681 -0.4914 -0.1335  0.2898
 3216TIP3   OH231206   0.817   6.012   8.508  0.4682  0.4056 -0.6169
 3216TIP3    H131207   0.738   6.061   8.483 -0.3038 -0.4491  0.0950
 3216TIP3    H231208   0.856   6.064   8.578 -0.7405 -0.3066  0.6368
 3217TIP3   OH231209   4.690   6.444   7.826  0.3199  0.8456  0.1217
 3217TIP3    H131210   4.691   6.351   7.803 -0.5890  0.3035  2.0660
 3217TIP3    H231211   4.778   6.475   7.805  1.3390 -0.9914  1.4187
 3218TIP3   OH231212   5.715   5.390   1.455  0.0501  0.4035 -0.0168
 3218TIP3    H131213   5.770   5.453   1.501  0.7653  0.7471 -1.2940
 3218TIP3    H231214   5.690   5.436   1.374  0.8126 -1.0248 -1.1021
 3219TIP3   OH231215   2.700   0.106   8.050  0.5321  0.5872 -0.0311
 3219TIP3    H131216   2.749   0.037   8.006 -2.7069 -2.8224  1.1481
 3219TIP3    H231217   2.632   0.131   7.987  0.9970  1.9186 -0.0222
 3220TIP3   OH231218   4.509   5.841   7.345  0.3510 -0.6602  0.5347
 3220TIP3    H131219   4.601   5.854   7.367  0.0602 -0.0256  1.4091
 3220TIP3    H231220   4.467   5.924   7.367 -0.1901 -0.4165 -1.2513
 3221TIP3   OH231221   1.780   5.498   8.221  0.3754 -0.2857 -0.1802
 3221TIP3    H131222   1.756   5.483   8.312  0.3750  1.0064  0.0396
 3221TIP3    H231223   1.859   5.444   8.208 -0.3907 -1.5345  0.1704
 3222TIP3   OH231224   1.751   0.274   1.095 -0.1430 -0.0461  0.2018
 3222TIP3    H131225   1.721   0.197   1.143 -0.3851 -0.2788 -0.3209
 3222TIP3    H231226   1.806   0.321   1.158  0.3246 -0.8390  0.3984
 3223TIP3   OH231227   2.972   4.697   1.768  0.1356 -0.2680  0.4471
 3223TIP3    H131228   3.030   4.626   1.739 -1.0740 -1.2766  0.4229
 3223TIP3    H231229   2.890   4.653   1.790 -1.2093  1.2938 -1.1318
 3224TIP3   OH231230   0.282   2.905   7.909  0.6998 -0.1471  0.1460
 3224TIP3    H131231   0.197   2.910   7.864  0.4043 -0.7287  0.6283
 3224TIP3    H231232   0.331   2.979   7.875 -0.3895  0.8445  0.6548
 3225TIP3   OH231233   6.629   6.119   7.811 -0.9403  0.0053 -0.4912
 3225TIP3    H131234   6.547   6.071   7.801 -0.2932 -1.2128 -0.1043
 3225TIP3    H231235   6.612   6.203   7.768 -2.2831 -0.3347 -0.6868
 3226TIP3   OH231236   0.178   1.255   1.829  0.2767 -0.4671  0.4500
 3226TIP3    H131237   0.149   1.308   1.903  1.3604 -1.0104  1.2999
 3226TIP3    H231238   0.196   1.169   1.867  3.2457 -0.1120  0.1194
 3227TIP3   OH231239   6.614   4.018   8.034  0.0552  0.0737 -0.6228
 3227TIP3    H131240   6.547   4.022   7.966  1.2146  1.2809 -1.7622
 3227TIP3    H231241   6.659   3.935   8.018 -0.5002 -0.2651 -0.4807
 3228TIP3   OH231242   2.597   3.395   2.218  0.2686  0.2480  0.2051
 3228TIP3    H131243   2.666   3.380   2.282  0.4448  0.4998  0.0728
 3228TIP3    H231244   2.602   3.488   2.197  1.7993 -0.2267 -1.9769
 3229TIP3   OH231245   2.629   6.025   7.822 -0.3933  0.4036  0.0467
 3229TIP3    H131246   2.638   6.011   7.728 -0.0441 -0.0045  0.1393
 3229TIP3    H231247   2.643   6.119   7.834  0.1293  0.3651 -0.2419
 3230TIP3   OH231248   5.302   2.895   2.192 -0.7571 -0.2657 -0.2817
 3230TIP3    H131249   5.299   2.988   2.214 -1.1700 -0.2537 -0.3758
 3230TIP3    H231250   5.388   2.882   2.152 -0.0782 -0.2486  1.1133
 3231TIP3   OH231251   3.487   3.438   1.283  0.5139  0.0111 -0.2627
 3231TIP3    H131252   3.529   3.439   1.198  1.0648 -0.7766 -0.0090
 3231TIP3    H231253   3.502   3.526   1.319 -1.9124  1.2695 -1.9905
 3232TIP3   OH231254   5.349   3.800   2.871 -0.1179  0.7789  0.4063
 3232TIP3    H131255   5.304   3.720   2.897 -0.2118  0.7598  0.1905
 3232TIP3    H231256   5.396   3.829   2.949  0.9226 -0.1567  0.1528
 3233TIP3   OH231257   1.787   5.722   0.859  0.2238 -0.3418  0.1948
 3233TIP3    H131258   1.873   5.689   0.885  0.4722 -0.4855 -0.7563
 3233TIP3    H231259   1.798   5.816   0.851  0.4029 -0.3999 -0.2920
 3234TIP3   OH231260   4.479   0.565   1.790  0.5915  0.0267 -0.3082
 3234TIP3    H131261   4.452   0.485   1.835 -1.4973  0.5808 -0.4906
 3234TIP3    H231262   4.567   0.582   1.824  0.4668 -1.4752  0.9074
 3235TIP3   OH231263   4.742   6.100   1.296  0.2308 -0.1963 -0.1881
 3235TIP3    H131264   4.743   6.069   1.386 -0.0487  1.4932  0.4272
 3235TIP3    H231265   4.794   6.180   1.297 -0.0194  0.0034 -1.4671
 3236TIP3   OH231266   6.309   3.786   1.873 -0.1349 -0.4497 -0.0038
 3236TIP3    H131267   6.348   3.863   1.914 -0.1354 -0.2153 -0.4304
 3236TIP3    H231268   6.242   3.756   1.934  0.5162 -0.6881  0.6152
 3237TIP3   OH231269   6.449   4.208   0.821 -0.0846  0.3079 -0.4309
 3237TIP3    H131270   6.544   4.201   0.816  0.1052  2.5871 -1.2551
 3237TIP3    H231271   6.417   4.135   0.767  1.2995  1.1851 -2.6047
 3238TIP3   OH231272   1.184   0.377   2.476  0.2789 -0.3174 -0.0135
 3238TIP3    H131273   1.226   0.459   2.499 -2.0635  1.2024 -0.7937
 3238TIP3    H231274   1.251   0.328   2.427  1.3315  1.6812 -0.6680
 3239TIP3   OH231275   0.421   1.919   0.596  0.0714  1.1348 -0.1308
 3239TIP3    H131276   0.395   2.004   0.633 -0.0616 -0.5412  4.0692
 3239TIP3    H231277   0.356   1.857   0.629  2.3526 -1.2105  0.2836
 3240TIP3   OH231278   5.226   2.176   1.666  0.1267  0.9179 -0.0314
 3240TIP3    H131279   5.250   2.125   1.588  1.5845  2.8330 -0.9284
 3240TIP3    H231280   5.309   2.200   1.706 -0.5949  0.1023  2.0974
 3241TIP3   OH231281   4.919   3.071   7.912 -0.2920  0.5949  0.5986
 3241TIP3    H131282   4.985   3.098   7.848  0.2759 -0.0989  0.8821
 3241TIP3    H231283   4.896   3.152   7.958 -1.1709  1.2290 -0.8724
 3242TIP3   OH231284   4.797   6.183   1.581  0.0624  0.1309 -0.2974
 3242TIP3    H131285   4.728   6.132   1.623 -0.8205 -1.1389 -3.0333
 3242TIP3    H231286   4.869   6.121   1.570  0.4206  0.5491 -0.3308
 3243TIP3   OH231287   3.664   2.647   0.977 -0.3235 -0.1212  0.1297
 3243TIP3    H131288   3.740   2.622   1.030  0.9170  0.6335 -1.2493
 3243TIP3    H231289   3.640   2.734   1.008 -1.4339 -0.8251  1.3879
 3244TIP3   OH231290   5.742   3.678   0.149 -0.5455 -0.3445 -0.4623
 3244TIP3    H131291   5.805   3.750   0.159 -1.1510  0.1263  0.0771
 3244TIP3    H231292   5.747   3.654   0.056  0.2684 -0.1697 -0.4693
 3245TIP3   OH231293   5.178   2.861   0.913 -0.0168  0.1288  0.2807
 3245TIP3    H131294   5.132   2.945   0.909  0.0239  0.2917  2.1217
 3245TIP3    H231295   5.244   2.867   0.844 -1.6386  0.5409 -1.3207
 3246TIP3   OH231296   3.131   5.084   6.949  0.1834  0.3894 -0.3396
 3246TIP3    H131297   3.041   5.073   6.917 -0.7424  3.2457  0.8314
 3246TIP3    H231298   3.119   5.115   7.039  2.4670 -1.2621  0.6113
 3247TIP3   OH231299   6.442   0.993   2.031  0.6466 -0.6066 -0.0178
 3247TIP3    H131300   6.450   1.055   2.104 -2.6120  1.1754 -1.0211
 3247TIP3    H231301   6.384   0.925   2.064  1.0006 -1.0270 -0.2465
 3248TIP3   OH231302   0.202   1.927   2.444  0.2012  0.6884  0.6735
 3248TIP3    H131303   0.121   1.923   2.494  0.3199  1.7335  0.9775
 3248TIP3    H231304   0.258   1.987   2.494  0.9080  0.5110  0.1140
 3249TIP3   OH231305   2.581   2.139   0.022 -0.0079 -0.0772  0.1043
 3249TIP3    H131306   2.565   2.080  -0.051 -1.6206  0.5517 -0.0832
 3249TIP3    H231307   2.616   2.083   0.091 -1.3280 -1.2398 -0.1309
 3250TIP3   OH231308   0.250   5.567   7.888 -0.1467 -0.4347  0.5616
 3250TIP3    H131309   0.245   5.486   7.939 -0.1887  1.5237  3.9473
 3250TIP3    H231310   0.324   5.615   7.926 -1.9742  2.3934  0.8001
 3251TIP3   OH231311   1.664   3.474   1.519 -0.3793 -0.0604 -0.8025
 3251TIP3    H131312   1.605   3.545   1.492 -2.2098 -1.3244 -0.3359
 3251TIP3    H231313   1.689   3.498   1.608  0.3824  0.8297 -1.2449
 3252TIP3   OH231314   2.342   5.768   1.891  0.1731  0.2347  0.8699
 3252TIP3    H131315   2.368   5.731   1.975  2.5835 -1.5593 -0.5400
 3252TIP3    H231316   2.283   5.702   1.853 -0.0375  0.5123  0.7116
 3253TIP3   OH231317   3.297   6.255   8.400 -0.0302 -0.7993 -0.4795
 3253TIP3    H131318   3.208   6.285   8.380 -0.3429 -0.8183  0.8312
 3253TIP3    H231319   3.354   6.321   8.360 -0.6414 -0.5228 -0.9023
 3254TIP3   OH231320   5.774   5.354   1.135  0.1386 -0.0724  0.1355
 3254TIP3    H131321   5.744   5.434   1.178  0.4859  0.1252  0.0182
 3254TIP3    H231322   5.756   5.368   1.042  3.7043  1.5698 -0.4818
 3255TIP3   OH231323   1.293   3.703   0.933 -0.4447  0.4811  0.1674
 3255TIP3    H131324   1.383   3.679   0.911 -0.1082 -2.0323  3.4796
 3255TIP3    H231325   1.295   3.799   0.941  1.9705  0.4852  0.2702
 3256TIP3   OH231326   2.244   2.058   0.069  0.5003  0.2226 -0.4984
 3256TIP3    H131327   2.321   2.031   0.121  2.1384  3.1387 -1.1831
 3256TIP3    H231328   2.271   2.044  -0.022 -0.8586 -1.1832 -0.7236
 3257TIP3   OH231329   3.278   0.668   1.522  0.0000  0.5319 -0.1682
 3257TIP3    H131330   3.270   0.645   1.614 -0.4567  1.7319  0.1196
 3257TIP3    H231331   3.362   0.632   1.495  0.2240  0.3217  0.7642
 3258TIP3   OH231332   5.959   4.011   1.511 -0.0415 -0.6421  0.4742
 3258TIP3    H131333   5.955   3.928   1.465 -1.0882 -0.7478  0.7405
 3258TIP3    H231334   5.961   3.988   1.604 -2.1835 -0.3714  0.6348
 3259TIP3   OH231335   4.986   2.861   2.769  0.5497  0.0501 -0.4989
 3259TIP3    H131336   4.913   2.891   2.823  0.1245 -0.7833 -0.5911
 3259TIP3    H231337   5.018   2.940   2.725 -0.7836  0.3220 -1.0254
 3260TIP3   OH231338   6.646   3.619   0.995 -0.5933  0.0896  0.2008
 3260TIP3    H131339   6.562   3.655   1.024 -0.9865 -1.4318  1.0502
 3260TIP3    H231340   6.679   3.570   1.070  1.0821  0.6550 -0.1178
 3261TIP3   OH231341   4.154   2.363   1.881  0.2077  0.3014  0.1075
 3261TIP3    H131342   4.061   2.364   1.903 -0.1039  0.6922 -1.1432
 3261TIP3    H231343   4.184   2.277   1.910 -0.6938 -0.0740 -0.0132
 3262TIP3   OH231344   1.335   1.762   8.125 -0.5412 -0.5539  0.0885
 3262TIP3    H131345   1.306   1.794   8.040 -0.0589 -0.9880 -0.2511
 3262TIP3    H231346   1.376   1.677   8.105  3.1601  1.0280  0.1250
 3263TIP3   OH231347   2.212   5.436   7.686 -0.2079 -0.0211 -0.1353
 3263TIP3    H131348   2.297   5.391   7.690 -0.6355 -0.7857  0.7673
 3263TIP3    H231349   2.215   5.486   7.604  0.3837 -1.5302 -1.0877
 3264TIP3   OH231350   4.015   5.717   7.257 -0.1287 -0.1153 -0.0332
 3264TIP3    H131351   3.945   5.679   7.204  1.0913 -0.9091 -1.1529
 3264TIP3    H231352   4.068   5.643   7.285  0.0993  0.4382  1.0760
 3265TIP3   OH231353   6.257   2.723   7.953 -0.1338 -0.2589  0.4718
 3265TIP3    H131354   6.201   2.645   7.949 -0.3051 -0.1866  1.4368
 3265TIP3    H231355   6.224   2.774   8.027 -0.6898  1.2526 -0.7530
 3266TIP3   OH231356   1.752   3.499   7.856  0.2181  0.2421 -0.2035
 3266TIP3    H131357   1.728   3.432   7.791  0.9462 -0.7524  0.5143
 3266TIP3    H231358   1.669   3.540   7.880 -0.4568 -1.3504  0.3391
 3267TIP3   OH231359   1.019   3.017   7.956 -0.2399 -0.5625 -0.4200
 3267TIP3    H131360   1.054   2.929   7.972 -1.6444 -1.1074 -0.2319
 3267TIP3    H231361   1.086   3.059   7.902 -0.7544 -2.7184 -3.0074
 3268TIP3   OH231362   0.732   0.751   1.081  0.4890  0.4218 -0.3789
 3268TIP3    H131363   0.638   0.742   1.064  0.3182  2.4101 -0.8357
 3268TIP3    H231364   0.741   0.734   1.175 -0.2032 -0.5094 -0.4729
 3269TIP3   OH231365   2.737   4.069   8.798  0.2987  0.2496  0.5933
 3269TIP3    H131366   2.711   4.159   8.780 -2.9200 -1.0128 -1.9662
 3269TIP3    H231367   2.705   4.053   8.887  1.2321  1.6527  1.2294
 3270TIP3   OH231368   5.661   4.269   7.697  0.2163  0.6508 -0.2164
 3270TIP3    H131369   5.573   4.280   7.735  0.3108  1.1873 -0.1376
 3270TIP3    H231370   5.720   4.273   7.772  0.4785  2.6596 -0.4685
 3271TIP3   OH231371   3.587   2.629   8.375  0.0594 -0.1124 -0.1890
 3271TIP3    H131372   3.648   2.634   8.301 -0.5912 -1.3963 -0.8513
 3271TIP3    H231373   3.505   2.665   8.341 -0.5531 -1.6847 -0.4861
 3272TIP3   OH231374   1.075   2.616   1.338  0.3437  0.1265  0.4146
 3272TIP3    H131375   1.117   2.614   1.252  1.0656 -0.3898  0.7781
 3272TIP3    H231376   1.085   2.527   1.372 -1.0044 -0.0104  0.5332
 3273TIP3   OH231377   0.508   2.901   2.967  0.0037 -0.0107 -0.1453
 3273TIP3    H131378   0.476   2.990   2.974 -1.4582 -0.5979  1.1208
 3273TIP3    H231379   0.434   2.850   2.935  0.3165 -1.0139  0.6381
 3274TIP3   OH231380   5.927   2.493   1.043 -0.3683  0.0604 -0.0228
 3274TIP3    H131381   5.898   2.578   1.010 -0.5451 -0.0934 -0.2642
 3274TIP3    H231382   5.900   2.493   1.135 -2.2368 -0.5588 -0.5268
 3275TIP3   OH231383   1.001   1.952   0.529 -0.0902 -0.1345  0.2642
 3275TIP3    H131384   0.986   1.890   0.457  0.3749 -0.0511  0.0938
 3275TIP3    H231385   0.913   1.974   0.560 -0.2760 -0.5376  0.0319
 3276TIP3   OH231386   5.020   6.533   2.074 -0.3778 -0.0557 -0.0790
 3276TIP3    H131387   5.071   6.558   1.998 -1.0416 -0.3829 -0.6446
 3276TIP3    H231388   5.015   6.613   2.127  0.6183  0.0060 -0.0569
 3277TIP3   OH231389   5.293   4.487   7.682 -0.4844  0.0329  0.9667
 3277TIP3    H131390   5.316   4.452   7.768 -1.9256 -3.2127  0.2184
 3277TIP3    H231391   5.203   4.456   7.668 -0.1827  0.1885 -1.8021
 3278TIP3   OH231392   0.326   5.871   1.250 -0.3410 -0.2912 -0.4663
 3278TIP3    H131393   0.286   5.838   1.169  0.1624 -2.2057  0.0157
 3278TIP3    H231394   0.356   5.959   1.228 -1.2114 -0.3505 -2.0282
 3279TIP3   OH231395   2.587   3.890   7.318 -0.1451 -0.7697  0.8723
 3279TIP3    H131396   2.492   3.902   7.316 -0.0564 -0.0393 -0.3445
 3279TIP3    H231397   2.607   3.841   7.238  0.4973 -0.9885  1.1596
 3280TIP3   OH231398   5.842   0.291   7.730  0.0839 -0.1850  0.3792
 3280TIP3    H131399   5.782   0.263   7.661 -0.6600  2.4632 -0.1724
 3280TIP3    H231400   5.896   0.359   7.689  0.2877  0.7641  2.1207
 3281TIP3   OH231401   3.140   5.997   3.097 -0.3580  0.4182 -0.0488
 3281TIP3    H131402   3.204   5.930   3.073  0.4165  1.4374 -0.9549
 3281TIP3    H231403   3.190   6.078   3.097 -1.4256  1.0964  0.3216
 3282TIP3   OH231404   1.930   5.696   0.600 -0.1364 -0.7039  0.1050
 3282TIP3    H131405   1.966   5.723   0.684  1.2208 -0.7582 -0.4370
 3282TIP3    H231406   1.948   5.602   0.595 -0.1443 -0.6858 -0.2733
 3283TIP3   OH231407   1.799   5.488   1.484 -0.0547 -0.3222  0.0531
 3283TIP3    H131408   1.862   5.453   1.547  2.0919  2.8112 -0.1374
 3283TIP3    H231409   1.826   5.450   1.400 -0.3806 -1.3464  0.3954
 3284TIP3   OH231410   5.090   3.113   0.558  0.3444 -0.5994 -0.0216
 3284TIP3    H131411   5.108   3.019   0.547  2.0454 -0.3015 -0.0810
 3284TIP3    H231412   5.136   3.154   0.485  0.5761  0.3764  0.6624
 3285TIP3   OH231413   6.450   4.934   0.140  0.1656  0.4720  0.3340
 3285TIP3    H131414   6.531   4.954   0.186 -0.8182  1.6600  1.6742
 3285TIP3    H231415   6.462   4.970   0.052  1.3580 -0.0824  0.2528
 3286TIP3   OH231416   0.714   5.188   7.918 -0.0141  0.2130  0.3044
 3286TIP3    H131417   0.764   5.217   7.994 -0.1141  0.6333  0.2165
 3286TIP3    H231418   0.780   5.170   7.851 -0.0226  3.2791 -0.6850
 3287TIP3   OH231419   1.295   2.259   2.317  0.5020  0.0571 -0.1553
 3287TIP3    H131420   1.383   2.277   2.285  0.4444 -0.3086 -0.5199
 3287TIP3    H231421   1.240   2.326   2.276  0.3211 -0.8005 -1.3562
 3288TIP3   OH231422   1.972   3.396   2.101 -0.0562 -0.3842  0.3509
 3288TIP3    H131423   1.919   3.403   2.180 -2.9529 -0.5875 -1.4348
 3288TIP3    H231424   1.993   3.302   2.094 -0.6470 -0.5168  0.3637
 3289TIP3   OH231425   4.043   1.379   1.625  0.1462 -0.0836  0.5168
 3289TIP3    H131426   4.054   1.284   1.631 -1.0059 -0.2230  0.6415
 3289TIP3    H231427   3.995   1.403   1.704 -0.9990  0.3512 -0.2705
 3290TIP3   OH231428   4.416   0.646   1.292 -0.3653  0.3443  0.1315
 3290TIP3    H131429   4.411   0.550   1.290  2.1411  0.1728 -0.7582
 3290TIP3    H231430   4.470   0.666   1.368  0.1532  0.9695 -0.3909
 3291TIP3   OH231431   1.817   4.430   0.330  0.2672  0.4028 -0.0336
 3291TIP3    H131432   1.760   4.502   0.356  0.9155  0.9163  0.0192
 3291TIP3    H231433   1.874   4.415   0.406  0.4356  0.1468 -0.2069
 3292TIP3   OH231434   0.416   1.318   2.205  1.1188  0.1988  0.3260
 3292TIP3    H131435   0.388   1.228   2.186 -0.2186  0.7144 -0.2944
 3292TIP3    H231436   0.375   1.371   2.137  0.3281  1.5012  1.7294
 3293TIP3   OH231437   2.379   0.922   8.786 -0.1307 -0.1908  0.2099
 3293TIP3    H131438   2.355   0.989   8.722  0.9774 -0.2332 -0.2806
 3293TIP3    H231439   2.463   0.952   8.821  0.0368 -0.9620  0.4899
 3294TIP3   OH231440   3.310   2.220   7.730  0.4088 -0.6403  0.5185
 3294TIP3    H131441   3.300   2.178   7.815  1.1233  0.2491  1.0547
 3294TIP3    H231442   3.298   2.313   7.748 -2.3659 -0.6200 -0.8380
 3295TIP3   OH231443   1.250   3.950   0.321 -0.2743  0.4095 -0.1324
 3295TIP3    H131444   1.220   4.025   0.270 -0.3319  2.4811  2.6797
 3295TIP3    H231445   1.173   3.894   0.331 -0.1043 -0.4147 -2.7083
 3296TIP3   OH231446   6.187   4.795   1.492  0.3564  0.0643 -0.2961
 3296TIP3    H131447   6.245   4.827   1.423  0.3951 -0.2237 -0.4014
 3296TIP3    H231448   6.142   4.720   1.452  1.5229 -1.0878  0.4702
 3297TIP3   OH231449   6.486   4.594   8.201 -0.4092  0.4324  0.1070
 3297TIP3    H131450   6.423   4.609   8.130  0.6777  1.4772 -0.6612
 3297TIP3    H231451   6.572   4.601   8.160  0.2583 -1.4232  1.0526
 3298TIP3   OH231452   1.599   4.214   1.802  0.3216  0.1156  0.1395
 3298TIP3    H131453   1.593   4.290   1.744 -1.4609 -0.0557  0.0465
 3298TIP3    H231454   1.635   4.145   1.747 -0.7190  0.1379 -0.6176
 3299TIP3   OH231455   0.055   5.065   8.466  0.2043  0.2860 -0.0056
 3299TIP3    H131456   0.101   5.083   8.548  0.1139 -0.0170  0.1118
 3299TIP3    H231457  -0.031   5.032   8.493  0.4083 -0.4233 -0.2221
 3300TIP3   OH231458   2.999   3.679   0.641 -0.6224  0.2981 -0.2524
 3300TIP3    H131459   3.069   3.722   0.692 -1.5492  1.7031 -0.0896
 3300TIP3    H231460   2.921   3.688   0.696 -1.7028  2.0190 -1.9325
 3301TIP3   OH231461   4.910   5.495   2.390  0.3100  0.5123 -0.5912
 3301TIP3    H131462   4.972   5.563   2.415  1.0150 -0.5487  0.7187
 3301TIP3    H231463   4.945   5.415   2.430 -0.5570 -0.6032 -1.9455
 3302TIP3   OH231464   4.732   2.116   1.202 -0.3548 -0.1260 -0.0057
 3302TIP3    H131465   4.641   2.101   1.175 -0.3879 -0.8061  0.4685
 3302TIP3    H231466   4.769   2.170   1.132 -1.3732  0.9239  0.2214
 3303TIP3   OH231467   3.635   0.935   1.709 -0.1215  0.2519  0.1486
 3303TIP3    H131468   3.636   0.840   1.697 -0.7632  0.1625  0.7198
 3303TIP3    H231469   3.547   0.954   1.741 -0.1246  1.0923 -0.3378
 3304TIP3   OH231470   1.851   5.762   7.560  0.2073  0.6889 -0.0130
 3304TIP3    H131471   1.843   5.667   7.566  0.0509  0.6110 -1.1927
 3304TIP3    H231472   1.944   5.777   7.541  0.2966  0.7954  0.4974
 3305TIP3   OH231473   6.244   4.966   1.918 -0.1129 -0.4196  0.4583
 3305TIP3    H131474   6.160   5.000   1.886 -0.6456 -1.2960  0.8716
 3305TIP3    H231475   6.280   4.918   1.844 -0.3440 -0.6765  0.5096
 3306TIP3   OH231476   0.222   0.194   7.708 -0.9463 -0.2162 -0.2966
 3306TIP3    H131477   0.138   0.210   7.666 -1.2287 -1.3589 -0.2015
 3306TIP3    H231478   0.222   0.100   7.726  0.4929 -0.3028 -0.6208
 3307TIP3   OH231479   5.831   5.658   0.856 -0.0788 -0.3411  0.1644
 3307TIP3    H131480   5.922   5.631   0.850  0.0132 -0.1560  0.6590
 3307TIP3    H231481   5.782   5.577   0.866  0.1546 -0.3680  1.2109
 3308TIP3   OH231482   4.181   4.289   7.376 -0.2184 -0.2091 -0.2668
 3308TIP3    H131483   4.222   4.229   7.314 -0.7507 -1.4447  0.5475
 3308TIP3    H231484   4.158   4.366   7.323  2.3560  0.2026 -0.9028
 3309TIP3   OH231485   2.913   2.147   7.772 -0.2550 -0.3817 -0.3011
 3309TIP3    H131486   2.914   2.234   7.731  0.0822 -0.6543 -0.8871
 3309TIP3    H231487   2.880   2.089   7.703 -2.3651 -0.4368  0.6948
 3310TIP3   OH231488   0.583   6.139   8.453 -0.4352  0.6527 -0.4128
 3310TIP3    H131489   0.533   6.103   8.380 -2.1944  1.0962  0.5213
 3310TIP3    H231490   0.569   6.234   8.448  0.1624  0.7677 -0.0258
 3311TIP3   OH231491   3.258   2.496   8.306  0.8909  0.8200  0.1325
 3311TIP3    H131492   3.167   2.502   8.276  1.1186  0.8048 -0.5624
 3311TIP3    H231493   3.254   2.434   8.379  0.1567  1.7028  0.8906
 3312TIP3   OH231494   1.193   6.610   7.779  0.0849 -0.5446  0.4451
 3312TIP3    H131495   1.258   6.541   7.792 -0.0310 -0.3264  2.5280
 3312TIP3    H231496   1.237   6.674   7.722  0.9158 -1.3751  0.1288
 3313TIP3   OH231497   4.240   0.342   1.563  0.6600  0.8291 -0.0664
 3313TIP3    H131498   4.259   0.265   1.616 -0.1014  0.6144 -0.0939
 3313TIP3    H231499   4.197   0.307   1.485 -0.6815  1.3438  0.4023
 3314TIP3   OH231500   4.169   5.560   1.237 -0.3488  0.2280 -0.2090
 3314TIP3    H131501   4.087   5.520   1.207 -0.9362  1.3028 -0.0984
 3314TIP3    H231502   4.150   5.590   1.326  1.0614 -2.0019  0.9273
 3315TIP3   OH231503   2.051   1.552   2.350  0.3309 -0.4948  0.3125
 3315TIP3    H131504   1.978   1.606   2.321  1.3130  0.3399 -0.7306
 3315TIP3    H231505   2.065   1.576   2.441 -0.2059 -0.0925  0.2892
 3316TIP3   OH231506   4.196   6.062   1.612 -0.3837 -0.8130 -0.3566
 3316TIP3    H131507   4.157   6.010   1.682 -0.1400 -1.0792 -0.4135
 3316TIP3    H231508   4.250   6.127   1.658  0.2079 -1.3325 -0.3005
 3317TIP3   OH231509   6.038   0.846   1.652  0.6462  0.0625  0.3216
 3317TIP3    H131510   5.959   0.895   1.675  1.2132  0.3807  1.6901
 3317TIP3    H231511   6.092   0.909   1.604  0.5646  0.2006  0.4102
 3318TIP3   OH231512   2.836   2.395   8.428  0.1822  0.5593 -0.1053
 3318TIP3    H131513   2.850   2.344   8.508 -0.8811  0.6508  0.1512
 3318TIP3    H231514   2.750   2.368   8.397  0.6203  0.4400 -1.2973
 3319TIP3   OH231515   1.205   3.666   1.976  0.1296 -0.0853 -0.1300
 3319TIP3    H131516   1.166   3.702   1.897  0.4774 -0.9880 -0.7223
 3319TIP3    H231517   1.260   3.594   1.946  1.9338  0.8803  0.7202
 3320TIP3   OH231518   3.811   5.677   0.169 -0.0688 -0.1703 -0.2243
 3320TIP3    H131519   3.836   5.633   0.088  0.5158  0.5452 -0.4424
 3320TIP3    H231520   3.718   5.696   0.159 -0.1805 -0.7845 -0.3906
 3321TIP3   OH231521   5.505   2.091   6.672 -0.1579 -0.0826  0.0270
 3321TIP3    H131522   5.423   2.134   6.646  0.3302 -0.7079 -2.9351
 3321TIP3    H231523   5.480   2.001   6.692 -0.2336 -0.2654 -0.8490
 3322TIP3   OH231524   3.081   4.416   0.405  0.0747 -0.1989 -0.1980
 3322TIP3    H131525   3.089   4.490   0.344 -0.2228 -1.0424 -1.2879
 3322TIP3    H231526   3.113   4.451   0.489  1.0646  0.8110 -0.9605
 3323TIP3   OH231527   5.079   1.866   0.464 -0.3291  0.2747  0.3377
 3323TIP3    H131528   4.998   1.835   0.505 -0.3657 -0.4596 -0.2798
 3323TIP3    H231529   5.051   1.938   0.407 -0.4034  0.6908  0.8946
 3324TIP3   OH231530   4.847   4.285   2.997  0.4350 -0.3622  0.3043
 3324TIP3    H131531   4.791   4.209   3.009  0.9607 -0.9754 -0.9333
 3324TIP3    H231532   4.787   4.354   2.968 -0.0583 -0.2554  1.5363
 3325TIP3   OH231533   5.613   2.134   2.417  0.2228  0.6712  0.1513
 3325TIP3    H131534   5.535   2.185   2.438 -1.8294 -2.0511 -0.2516
 3325TIP3    H231535   5.665   2.136   2.497 -0.6446  1.8723  0.7218
 3326TIP3   OH231536   2.208   5.058   7.330  0.1737  0.9064  0.7492
 3326TIP3    H131537   2.155   4.996   7.281 -0.2795  0.9580  1.1682
 3326TIP3    H231538   2.220   5.133   7.271 -1.1701  1.3836  1.0567
 3327TIP3   OH231539   6.286   5.984   2.378  0.1596  0.0071 -0.4536
 3327TIP3    H131540   6.327   6.017   2.458 -1.4588 -3.2083  1.9315
 3327TIP3    H231541   6.198   6.023   2.379 -0.3421 -1.1114  0.1435
 3328TIP3   OH231542   1.484   5.774   8.044 -0.8833 -0.4239 -0.1871
 3328TIP3    H131543   1.511   5.772   8.135  1.7006  1.8555 -0.8081
 3328TIP3    H231544   1.536   5.705   8.002 -0.1935  0.2137 -0.3825
 3329TIP3   OH231545   6.765   1.061   2.811 -0.4608 -0.3047 -0.3625
 3329TIP3    H131546   6.800   0.975   2.790  0.5589  0.5640 -2.5102
 3329TIP3    H231547   6.836   1.122   2.792 -1.0473  1.0234  1.4082
 3330TIP3   OH231548   2.566   5.465   2.343 -0.0713 -0.0940  0.3281
 3330TIP3    H131549   2.598   5.485   2.255 -1.3526  0.1858 -0.1025
 3330TIP3    H231550   2.534   5.548   2.377  2.0452  0.1789  1.8153
 3331TIP3   OH231551   2.316   5.894   8.843  0.4422  0.1987  0.4886
 3331TIP3    H131552   2.246   5.959   8.841  2.4306  2.5217  0.7760
 3331TIP3    H231553   2.396   5.946   8.854  2.4850 -2.0720 -2.0865
 3332TIP3   OH231554   2.205   5.299   1.552  0.0014 -0.4506 -0.1058
 3332TIP3    H131555   2.260   5.243   1.498 -0.2207 -0.3316 -0.4608
 3332TIP3    H231556   2.206   5.258   1.638  0.8617 -0.3004 -0.0313
 3333TIP3   OH231557   1.533   0.473   2.122  0.4198  0.1342 -0.1048
 3333TIP3    H131558   1.556   0.566   2.125  1.2708 -0.0911  0.7848
 3333TIP3    H231559   1.584   0.439   2.048 -0.5126  0.5211 -0.9448
 3334TIP3   OH231560   1.053   1.790   7.362 -0.1446  0.1113  0.0732
 3334TIP3    H131561   1.138   1.776   7.320  0.0723  1.3981  0.0552
 3334TIP3    H231562   0.996   1.819   7.291 -0.3560  0.1730  0.2674
 3335TIP3   OH231563   4.092   6.046   2.151 -0.0995  0.5196  0.6266
 3335TIP3    H131564   4.035   5.977   2.186 -0.3609 -0.4473 -1.5662
 3335TIP3    H231565   4.163   6.052   2.215 -0.1061 -1.7479  0.9274
 3336TIP3   OH231566   3.841   5.061   1.083 -0.3578 -0.0305  0.6117
 3336TIP3    H131567   3.905   5.024   1.144 -1.8780 -2.5720  0.8058
 3336TIP3    H231568   3.782   5.112   1.138  2.5111  4.2011  0.1879
 3337TIP3   OH231569   2.412   4.738   8.012  0.5271  1.0626  0.1516
 3337TIP3    H131570   2.484   4.783   8.057 -0.2504  2.2682  0.2207
 3337TIP3    H231571   2.442   4.729   7.922  2.0879 -1.3436  0.8183
 3338TIP3   OH231572   5.253   0.435   2.096 -0.4246 -0.5088 -0.2860
 3338TIP3    H131573   5.168   0.415   2.058 -0.3808  1.0804 -1.3407
 3338TIP3    H231574   5.245   0.525   2.127  0.7755 -0.4288 -0.1519
 3339TIP3   OH231575   3.634   5.419   8.010 -0.3016  0.7422 -0.1113
 3339TIP3    H131576   3.553   5.434   8.059 -0.5118 -1.8275  0.5061
 3339TIP3    H231577   3.668   5.337   8.046  3.0735  2.1655  0.2433
 3340TIP3   OH231578   0.639   3.953   7.641  0.6185 -0.0773 -0.3011
 3340TIP3    H131579   0.648   3.974   7.734 -1.7337 -1.2625  0.2657
 3340TIP3    H231580   0.722   3.980   7.603  1.0404  1.9908  1.8361
 3341TIP3   OH231581   1.132   5.726   8.227 -0.0690 -0.6314  0.5809
 3341TIP3    H131582   1.063   5.673   8.188 -0.2076 -0.5492  0.7147
 3341TIP3    H231583   1.141   5.693   8.316  1.9071 -2.4572 -0.2185
 3342TIP3   OH231584   0.054   6.331   8.324  0.3343 -0.5394  0.5904
 3342TIP3    H131585   0.003   6.410   8.310 -0.5147 -1.4774 -2.2117
 3342TIP3    H231586   0.028   6.301   8.411 -1.8461  0.4835  0.3449
 3343TIP3   OH231587   5.622   1.423   1.352 -0.1448 -0.2211  0.4550
 3343TIP3    H131588   5.632   1.364   1.277  2.0725  1.0630 -0.3461
 3343TIP3    H231589   5.669   1.502   1.327 -1.1676  1.0649  2.3803
 3344TIP3   OH231590   2.928   4.201   0.532 -0.4290 -0.3877  0.5574
 3344TIP3    H131591   2.983   4.257   0.478 -1.5122  1.7401  1.5306
 3344TIP3    H231592   2.886   4.142   0.470  1.7269 -1.0394 -0.3595
 3345TIP3   OH231593   1.695   5.855   8.863 -0.0467  0.1237 -0.3272
 3345TIP3    H131594   1.683   5.769   8.904 -1.4517 -1.1648 -3.1235
 3345TIP3    H231595   1.610   5.874   8.823  1.3176  0.9075 -3.0989
 3346TIP3   OH231596   3.338   1.520   1.467 -0.4772  0.3561  0.2115
 3346TIP3    H131597   3.432   1.502   1.472 -0.6511 -0.4955  0.6946
 3346TIP3    H231598   3.299   1.460   1.531 -1.3114  1.0018  0.3243
 3347TIP3   OH231599   3.620   3.991   8.220 -0.2078 -0.1402 -0.4258
 3347TIP3    H131600   3.712   3.966   8.218  0.5987  2.4019  1.0450
 3347TIP3    H231601   3.573   3.909   8.201  2.2736 -1.7183 -0.2814
 3348TIP3   OH231602   3.752   4.101   0.340  0.2425  0.1906  0.5966
 3348TIP3    H131603   3.714   4.174   0.291 -0.4325  0.2830  1.2512
 3348TIP3    H231604   3.825   4.071   0.285  0.1599  0.9754  0.0460
 3349TIP3   OH231605   0.598   1.436   2.905 -0.7170 -0.3432 -0.3971
 3349TIP3    H131606   0.613   1.440   2.811 -1.7785 -1.4534 -0.6347
 3349TIP3    H231607   0.599   1.527   2.934  2.2451 -0.0826 -1.0144
 3350TIP3   OH231608   5.786   4.924   7.668 -0.6073 -0.6253  0.2311
 3350TIP3    H131609   5.754   4.850   7.721 -0.9125 -1.3303 -0.9042
 3350TIP3    H231610   5.849   4.968   7.725 -0.2863 -1.8665  0.8835
 3351TIP3   OH231611   1.720   0.932   1.920 -0.1016  0.1172  0.0846
 3351TIP3    H131612   1.770   0.953   1.841 -3.1739  0.2247 -2.0196
 3351TIP3    H231613   1.733   1.008   1.977  1.9836  0.1672 -0.3790
 3352TIP3   OH231614   2.180   6.510   0.523 -0.1997 -0.0533  0.4695
 3352TIP3    H131615   2.176   6.427   0.475 -1.1071 -0.4810  1.2526
 3352TIP3    H231616   2.089   6.533   0.538  0.0607  0.4768  1.2990
 3353TIP3   OH231617   2.143   0.465   1.610 -0.3303  0.3089  0.3433
 3353TIP3    H131618   2.098   0.382   1.600  1.4210 -0.7116  0.4932
 3353TIP3    H231619   2.205   0.468   1.538 -0.5732  1.6464  0.1574
 3354TIP3   OH231620   2.437   2.481   2.839  0.3326  0.3789 -0.2678
 3354TIP3    H131621   2.405   2.558   2.886 -0.3478  1.6354 -2.6663
 3354TIP3    H231622   2.532   2.489   2.843  0.3178  2.4101 -1.9662
 3355TIP3   OH231623   6.700   1.363   0.420  0.1857 -0.1654  0.3982
 3355TIP3    H131624   6.774   1.338   0.476  0.1863 -0.2548  0.3577
 3355TIP3    H231625   6.624   1.357   0.477 -0.0286 -1.8280 -0.0205
 3356TIP3   OH231626   0.224   1.996   8.734  0.1728 -0.1210 -0.1606
 3356TIP3    H131627   0.271   1.950   8.665  2.2236  1.4855  0.0615
 3356TIP3    H231628   0.252   1.954   8.815 -1.0789 -1.0264 -0.1598
 3357TIP3   OH231629   0.056   1.999   8.022 -0.0500  0.1022 -0.0372
 3357TIP3    H131630   0.019   2.071   8.073 -0.2835 -0.4367  0.5639
 3357TIP3    H231631   0.064   1.927   8.085  0.5211 -0.2832 -0.5445
 3358TIP3   OH231632   6.075   6.480   8.325  0.0857  0.2638  0.4897
 3358TIP3    H131633   6.106   6.496   8.236 -0.9368 -1.3565 -0.2066
 3358TIP3    H231634   6.065   6.385   8.330 -0.1053  0.3459  2.2610
 3359TIP3   OH231635   1.388   1.593   8.663 -0.3424  0.0216  0.1462
 3359TIP3    H131636   1.385   1.678   8.707  2.6791 -0.1321  0.9028
 3359TIP3    H231637   1.364   1.530   8.731  1.1853  0.0372  0.7447
 3360TIP3   OH231638   1.869   6.461   8.798  0.6618 -0.5290 -0.1175
 3360TIP3    H131639   1.872   6.366   8.795 -0.9226 -0.8111  3.1238
 3360TIP3    H231640   1.958   6.488   8.821  0.7417 -1.3706  0.5966
 3361TIP3   OH231641   2.507   3.418   7.724 -0.1290  0.0108  0.1305
 3361TIP3    H131642   2.505   3.330   7.762 -3.7575 -0.0128  0.2194
 3361TIP3    H231643   2.513   3.477   7.799 -2.5045 -0.1380  0.4972
 3362TIP3   OH231644   2.970   0.916   1.064  0.4128  0.0861 -0.2890
 3362TIP3    H131645   3.002   0.915   1.154 -0.4045 -0.7255  0.0146
 3362TIP3    H231646   2.940   1.006   1.051 -0.2976 -0.0037  0.5744
 3363TIP3   OH231647   4.614   2.489   1.398  0.7513 -0.0505  0.3556
 3363TIP3    H131648   4.530   2.510   1.439  0.8943  0.9046  0.1805
 3363TIP3    H231649   4.678   2.495   1.468  0.9747  1.4356  0.0579
 3364TIP3   OH231650   5.782   3.112   0.463  0.2742 -0.0107 -0.0308
 3364TIP3    H131651   5.832   3.107   0.381  2.4416 -1.5668  1.2733
 3364TIP3    H231652   5.822   3.184   0.511  0.0447 -0.1033  0.3023
 3365TIP3   OH231653   6.760   2.906   8.749  0.0910 -0.3897  0.1265
 3365TIP3    H131654   6.741   2.823   8.706  0.8267  0.3852 -1.8041
 3365TIP3    H231655   6.717   2.972   8.695  1.5716  0.6808  0.1879
 3366TIP3   OH231656   4.812   5.280   1.916 -0.0814 -0.1680 -0.2408
 3366TIP3    H131657   4.804   5.252   2.007  1.6158 -0.7247 -0.2299
 3366TIP3    H231658   4.781   5.205   1.865  1.3633 -0.8663 -0.1428
 3367TIP3   OH231659   0.265   6.576   8.045 -0.1214 -0.7088  0.2484
 3367TIP3    H131660   0.308   6.661   8.044 -0.7015 -0.3723 -1.8607
 3367TIP3    H231661   0.333   6.514   8.021 -0.5702 -0.2109 -2.7955
 3368TIP3   OH231662   2.736   1.294   1.945 -0.4101 -0.3328  0.4291
 3368TIP3    H131663   2.710   1.278   2.035 -0.9365 -0.3050  0.2854
 3368TIP3    H231664   2.796   1.222   1.924 -2.8940 -2.3430 -0.2696
 3369TIP3   OH231665   2.849   2.517   2.240 -0.4158  0.5252 -0.0890
 3369TIP3    H131666   2.848   2.435   2.290  0.4812  0.1723 -0.6308
 3369TIP3    H231667   2.804   2.580   2.296 -1.4157 -0.4107  0.2040
 3370TIP3   OH231668   3.902   1.799   1.751 -0.1136 -0.2530  0.0524
 3370TIP3    H131669   3.826   1.838   1.709  1.1231  0.9377 -1.1792
 3370TIP3    H231670   3.958   1.874   1.774  2.1763 -1.1556 -2.0705
 3371TIP3   OH231671   4.117   5.815   8.703  0.5433  0.1502  0.3163
 3371TIP3    H131672   4.166   5.890   8.736  0.9893 -0.3014  0.6858
 3371TIP3    H231673   4.030   5.823   8.743  0.1575  1.1784 -0.6602
 3372TIP3   OH231674   2.666   5.297   1.509  0.2536  0.3714  0.0843
 3372TIP3    H131675   2.604   5.240   1.554 -1.1658  0.8468 -1.1807
 3372TIP3    H231676   2.611   5.356   1.457  1.7789  0.0300 -2.0277
 3373TIP3   OH231677   1.415   2.626   7.270  0.4683  0.5606  0.0843
 3373TIP3    H131678   1.364   2.590   7.343  0.5554  0.0842 -0.0852
 3373TIP3    H231679   1.428   2.552   7.211 -0.8059  1.2350 -1.1090
 3374TIP3   OH231680   1.887   3.349   7.593  0.6403  0.1098  0.2153
 3374TIP3    H131681   1.859   3.296   7.518 -0.9781  0.6185  0.4179
 3374TIP3    H231682   1.869   3.294   7.669 -0.3816  0.6604  0.3837
 3375TIP3   OH231683   3.742   0.538   8.066  0.0413  0.6764 -0.3739
 3375TIP3    H131684   3.663   0.593   8.059 -0.2399  0.6649  1.9705
 3375TIP3    H231685   3.811   0.599   8.091 -0.3519  0.0359  2.6338
 3376TIP3   OH231686   3.807   2.759   1.465 -0.3046  0.4121  0.0648
 3376TIP3    H131687   3.744   2.739   1.396  0.5245 -0.1493 -0.5477
 3376TIP3    H231688   3.770   2.719   1.544 -0.7061  0.0839 -0.2886
 3377TIP3   OH231689   3.490   2.097   0.112 -0.0908  0.0798  0.3996
 3377TIP3    H131690   3.521   2.170   0.165  1.4566 -0.8926  0.8851
 3377TIP3    H231691   3.491   2.130   0.022 -0.5498  1.0102  0.7219
 3378TIP3   OH231692   0.981   0.375   1.945 -0.2683 -0.7466 -0.5674
 3378TIP3    H131693   0.973   0.336   1.857  3.2975  1.5656 -2.1658
 3378TIP3    H231694   1.070   0.353   1.972 -0.9685 -0.5762  2.1109
 3379TIP3   OH231695   1.997   2.892   1.563 -0.4260 -0.0048 -0.3779
 3379TIP3    H131696   2.067   2.943   1.604 -0.4704 -0.2401 -0.0011
 3379TIP3    H231697   2.040   2.814   1.529 -0.2080  0.6756 -1.7328
 3380TIP3   OH231698   3.953   3.231   6.946 -0.4201 -0.2866 -0.0775
 3380TIP3    H131699   3.932   3.316   6.986 -0.3142 -0.4270  0.2835
 3380TIP3    H231700   4.046   3.219   6.964 -0.4795 -0.5721  0.0526
 3381TIP3   OH231701   4.615   0.135   0.403  0.0370 -0.3449 -0.6445
 3381TIP3    H131702   4.703   0.163   0.377  0.1979 -0.4518 -0.2312
 3381TIP3    H231703   4.595   0.061   0.346  1.9364 -3.0908  1.9147
 3382TIP3   OH231704   6.554   4.391   1.980 -0.2360 -0.7967  0.4420
 3382TIP3    H131705   6.467   4.423   2.003  0.6512  0.9149  1.6379
 3382TIP3    H231706   6.551   4.379   1.885 -1.2297  1.1252  0.1804
 3383TIP3   OH231707   4.103   5.188   7.447  0.4102 -0.5293  0.8556
 3383TIP3    H131708   4.184   5.237   7.463 -0.4271  1.0639  0.4466
 3383TIP3    H231709   4.060   5.184   7.532 -0.4922  1.3405  0.5440
 3384TIP3   OH231710   3.087   2.116   0.574  0.2977  0.6806 -0.6385
 3384TIP3    H131711   3.129   2.034   0.549 -1.1048  0.0571 -1.0938
 3384TIP3    H231712   3.155   2.166   0.618  1.2969 -0.5594 -0.7156
 3385TIP3   OH231713   6.457   4.579   0.642 -0.0147 -0.1288 -0.1268
 3385TIP3    H131714   6.540   4.567   0.596  1.1139  0.2515  1.7166
 3385TIP3    H231715   6.443   4.496   0.688 -0.2364  0.1035  0.2275
 3386TIP3   OH231716   5.640   4.681   8.254  0.1347 -0.5334 -0.2385
 3386TIP3    H131717   5.636   4.673   8.159  0.6763 -0.6528 -0.2513
 3386TIP3    H231718   5.559   4.726   8.277  0.1200 -0.2752 -0.7801
 3387TIP3   OH231719   5.010   0.557   2.458 -0.2663 -0.4751 -0.1846
 3387TIP3    H131720   4.928   0.594   2.490  0.1757  0.7416 -0.3869
 3387TIP3    H231721   5.077   0.590   2.518  0.3378  0.3612 -1.2657
 3388TIP3   OH231722   2.102   3.025   7.728  0.1431  0.0499  0.9222
 3388TIP3    H131723   2.061   2.942   7.705  0.0577 -1.0194  4.3847
 3388TIP3    H231724   2.195   3.004   7.739  0.2968  0.6482  0.8136
 3389TIP3   OH231725   2.315   2.052   8.696  0.5833  0.1008  0.2144
 3389TIP3    H131726   2.361   2.130   8.666  0.2194  0.4492  0.5466
 3389TIP3    H231727   2.237   2.046   8.641  0.6414 -0.0630  0.1490
 3390TIP3   OH231728   4.563   3.798   0.616  0.2110 -0.3363 -0.2214
 3390TIP3    H131729   4.471   3.809   0.593 -0.5920 -1.3870  2.1424
 3390TIP3    H231730   4.591   3.884   0.646 -1.0915 -0.7334  2.3565
 3391TIP3   OH231731   2.564   4.943   2.305  0.3143 -0.6355 -0.8208
 3391TIP3    H131732   2.528   5.000   2.373  0.7653  0.8119 -1.7447
 3391TIP3    H231733   2.592   4.864   2.351  0.8428  0.4207  0.7192
 3392TIP3   OH231734   2.187   1.899   8.386  0.7528  0.3794  0.3888
 3392TIP3    H131735   2.123   1.889   8.316  0.3182  0.2052  0.8040
 3392TIP3    H231736   2.147   1.855   8.461  2.2341 -1.5516  0.1251
 3393TIP3   OH231737   2.230   2.195   1.733  0.3462  0.6076 -0.2532
 3393TIP3    H131738   2.323   2.186   1.712  1.1988  0.8030  2.9596
 3393TIP3    H231739   2.213   2.126   1.797 -1.5777  0.9801 -0.3177
 3394TIP3   OH231740   6.228   2.204   1.524  0.4270 -0.0206 -0.4921
 3394TIP3    H131741   6.160   2.235   1.584  0.4291 -0.9214 -0.0133
 3394TIP3    H231742   6.205   2.244   1.440  0.6417  1.5811  0.1624
 3395TIP3   OH231743   5.931   6.510   2.514 -0.3286  0.0130 -0.4100
 3395TIP3    H131744   5.877   6.471   2.446  0.2680  1.4165 -1.7373
 3395TIP3    H231745   6.011   6.537   2.469  0.8409 -0.5803  1.1929
 3396TIP3   OH231746   4.367   3.300   2.261 -0.5115  0.5499  0.4369
 3396TIP3    H131747   4.283   3.268   2.226 -0.3749 -1.0947  1.5285
 3396TIP3    H231748   4.342   3.367   2.325 -1.0719 -0.5244  1.3772
 3397TIP3   OH231749   6.381   0.652   1.018  0.4056  0.2572 -0.2021
 3397TIP3    H131750   6.420   0.576   1.062 -0.8728 -0.2361  0.1313
 3397TIP3    H231751   6.383   0.629   0.925 -0.7594 -0.6114 -0.0447
 3398TIP3   OH231752   6.769   4.557   1.834  0.3071  0.0525 -0.2506
 3398TIP3    H131753   6.693   4.556   1.891 -0.2866 -1.3804 -1.0360
 3398TIP3    H231754   6.840   4.519   1.887 -0.7292 -3.2913 -1.0041
 3399TIP3   OH231755   0.695   1.913   1.624  0.4578  0.0650  0.6925
 3399TIP3    H131756   0.735   1.946   1.544 -0.3435  1.8524  0.9831
 3399TIP3    H231757   0.767   1.911   1.687  0.8043 -0.0668  0.3042
 3400TIP3   OH231758   3.638   6.426   1.884  0.0873 -0.2739 -0.6446
 3400TIP3    H131759   3.635   6.398   1.975 -1.6458 -1.0068 -0.8788
 3400TIP3    H231760   3.550   6.460   1.866  0.7372  0.9254 -1.7326
 3401TIP3   OH231761   6.189   0.487   2.042  0.2900 -0.4773  0.4271
 3401TIP3    H131762   6.277   0.471   2.074  1.5138  3.4326 -0.4067
 3401TIP3    H231763   6.138   0.507   2.120  1.1501  0.8344  0.6891
 3402TIP3   OH231764   1.083   5.001   7.789 -0.3518  0.4116  0.2044
 3402TIP3    H131765   1.102   4.918   7.745 -0.9278  0.7330 -0.6716
 3402TIP3    H231766   1.169   5.041   7.802 -0.1831  0.5050 -1.0350
 3403TIP3   OH231767   2.281   4.027   7.680 -0.1694 -0.2513  0.1905
 3403TIP3    H131768   2.324   4.094   7.626  0.7189  1.3840  2.7081
 3403TIP3    H231769   2.261   3.956   7.619 -1.0935  2.2358 -2.6459
 3404TIP3   OH231770   3.648   0.704   8.379 -0.2070  0.0429 -0.2871
 3404TIP3    H131771   3.564   0.658   8.376 -0.0646 -0.1999 -0.6319
 3404TIP3    H231772   3.633   0.786   8.333  0.2722 -0.8839 -2.2045
 3405TIP3   OH231773   0.540   2.129   1.756  0.6082  0.1310  0.0270
 3405TIP3    H131774   0.570   2.047   1.717 -1.3154 -1.1948  1.1864
 3405TIP3    H231775   0.569   2.196   1.694  2.0193 -1.4018 -1.0874
 3406TIP3   OH231776   3.199   3.063   1.886  0.0144  0.1806 -0.1808
 3406TIP3    H131777   3.274   3.122   1.879  0.3030 -0.2225 -0.5398
 3406TIP3    H231778   3.124   3.121   1.898  0.1773  0.6671 -1.3854
 3407TIP3   OH231779   3.762   4.325   0.516 -0.2678 -0.1099  0.4458
 3407TIP3    H131780   3.785   4.232   0.510 -0.7395 -0.1349 -1.6439
 3407TIP3    H231781   3.719   4.344   0.433 -2.0711  1.4841  1.6596
 3408TIP3   OH231782   0.968   1.605   0.135 -0.2639 -0.2463  0.3390
 3408TIP3    H131783   1.015   1.656   0.201 -0.6336  0.5357  0.0135
 3408TIP3    H231784   1.013   1.624   0.053 -1.5094  1.0221 -0.0856
 3409TIP3   OH231785   3.207   2.482   7.275 -0.5745 -0.0700  0.3135
 3409TIP3    H131786   3.151   2.471   7.198  0.3056 -0.4930 -0.2787
 3409TIP3    H231787   3.283   2.530   7.243 -0.2682 -0.1145  0.9592
 3410TIP3   OH231788   4.981   3.229   2.024 -0.7866 -0.6071  0.0578
 3410TIP3    H131789   5.071   3.209   2.047 -0.9512  0.1720  1.4852
 3410TIP3    H231790   4.968   3.187   1.938  1.6605  1.3438 -1.3861
 3411TIP3   OH231791   6.351   5.603   8.465 -0.1520  0.3291 -0.1411
 3411TIP3    H131792   6.351   5.648   8.549 -0.5493  0.5687 -0.2642
 3411TIP3    H231793   6.333   5.511   8.487  0.4214  0.2694  0.0890
 3412TIP3   OH231794   1.106   3.634   0.721  0.3699 -0.1114  0.3303
 3412TIP3    H131795   1.115   3.701   0.654 -0.3240 -0.3579 -0.0124
 3412TIP3    H231796   1.165   3.663   0.791 -2.2907  2.6425  1.6645
 3413TIP3   OH231797   6.207   5.015   8.782  0.5740 -0.0526  0.5602
 3413TIP3    H131798   6.245   5.088   8.831  0.9296 -0.4671  0.9139
 3413TIP3    H231799   6.255   5.014   8.699 -1.5631  2.0869 -0.8297
 3414TIP3   OH231800   2.357   5.890   2.409  0.2309 -0.3363 -0.4353
 3414TIP3    H131801   2.441   5.910   2.451  0.8103 -0.6445 -1.4244
 3414TIP3    H231802   2.370   5.914   2.317 -0.2842 -1.7332 -0.8861
 3415TIP3   OH231803   0.124   4.201   1.422  0.0142  0.3420 -0.1657
 3415TIP3    H131804   0.179   4.244   1.357  0.4181  0.1633  0.0592
 3415TIP3    H231805   0.076   4.134   1.372  0.9276 -0.3477 -0.1393
 3416TIP3   OH231806   5.994   5.439   1.263 -0.1741 -0.5683 -0.5895
 3416TIP3    H131807   5.921   5.385   1.233  0.3340 -0.1162 -2.8487
 3416TIP3    H231808   6.046   5.381   1.318 -1.4795 -1.3099 -0.0994
 3417TIP3   OH231809   3.762   5.885   8.431  0.5759 -0.6916 -0.0869
 3417TIP3    H131810   3.788   5.939   8.505 -0.7487 -0.9205  0.5771
 3417TIP3    H231811   3.844   5.845   8.400  1.2764  0.1354  0.6531
 3418TIP3   OH231812   5.803   2.703   7.222  0.1222  0.1120  0.7271
 3418TIP3    H131813   5.834   2.645   7.292 -2.1697 -0.8519  1.0400
 3418TIP3    H231814   5.861   2.779   7.225  0.5398 -0.2421  3.1846
 3419TIP3   OH231815   1.945   2.416   0.396  0.2396 -0.3546 -0.2989
 3419TIP3    H131816   2.026   2.387   0.354  0.5330 -0.0468  0.0405
 3419TIP3    H231817   1.881   2.422   0.325  0.4100 -0.9734 -0.5090
 3420TIP3   OH231818   3.435   0.880   1.332 -0.1463  0.5444  0.1367
 3420TIP3    H131819   3.483   0.810   1.376  3.6571  2.2441 -0.8790
 3420TIP3    H231820   3.409   0.842   1.248  2.2317  0.3521 -0.5741
 3421TIP3   OH231821   4.800   1.761   1.359 -0.6089 -0.4396 -0.1255
 3421TIP3    H131822   4.760   1.791   1.441  1.2392  1.0479  0.2898
 3421TIP3    H231823   4.786   1.666   1.359 -0.5634 -0.4994  1.9807
 3422TIP3   OH231824   0.659   5.717   7.704 -0.1757 -0.2139 -0.2321
 3422TIP3    H131825   0.628   5.632   7.674 -2.3889  0.6575 -0.6140
 3422TIP3    H231826   0.671   5.768   7.624 -3.3085  1.2000  0.0240
 3423TIP3   OH231827   6.037   4.976   7.792 -0.0154 -0.1712  0.1929
 3423TIP3    H131828   6.118   4.959   7.743  0.7087 -0.6683  1.5100
 3423TIP3    H231829   6.056   5.055   7.843 -0.9893  0.7153 -0.7618
 3424TIP3   OH231830   0.491   4.934   7.311  0.3735 -0.1578 -0.2726
 3424TIP3    H131831   0.551   4.859   7.307  0.8748  0.2860 -1.5353
 3424TIP3    H231832   0.493   4.962   7.403 -1.6776 -3.1404  0.8530
 3425TIP3   OH231833   6.709   5.346   8.633  0.3140 -0.6923 -0.5651
 3425TIP3    H131834   6.764   5.319   8.707 -0.2666  1.1005  0.5977
 3425TIP3    H231835   6.692   5.439   8.649 -0.5453 -0.4666 -2.5261
 3426TIP3   OH231836   0.871   3.347   2.321 -0.5671 -0.1953 -0.1471
 3426TIP3    H131837   0.832   3.274   2.369 -1.5635  0.2315 -0.2884
 3426TIP3    H231838   0.940   3.380   2.379  1.0815 -2.2857 -0.7777
 3427TIP3   OH231839   1.566   1.211   0.394 -0.3343  0.6787 -0.2590
 3427TIP3    H131840   1.513   1.182   0.320 -1.8230 -0.8759  1.3299
 3427TIP3    H231841   1.627   1.139   0.409 -2.5107 -0.8410  2.2476
 3428TIP3   OH231842   3.207   2.310   8.023 -0.1276  0.4529 -0.4466
 3428TIP3    H131843   3.263   2.380   8.058 -0.6384  0.5981  0.1096
 3428TIP3    H231844   3.120   2.350   8.017 -0.9901 -0.7900  2.2241
 3429TIP3   OH231845   6.524   0.828   7.208 -0.1464 -0.1823  0.4607
 3429TIP3    H131846   6.457   0.774   7.165  1.4357 -0.8188 -1.3285
 3429TIP3    H231847   6.520   0.912   7.162  0.2888 -0.2301  0.3325
 3430TIP3   OH231848   1.519   4.974   0.793 -0.0173 -0.6414 -0.6035
 3430TIP3    H131849   1.552   5.056   0.756  0.0328 -1.4404 -2.4094
 3430TIP3    H231850   1.567   4.964   0.876  0.7904  0.5815 -0.8978
 3431TIP3   OH231851   5.311   3.536   2.142 -0.1480  0.2966  0.0608
 3431TIP3    H131852   5.291   3.606   2.204 -0.6241  0.7433 -0.5888
 3431TIP3    H231853   5.229   3.488   2.133  0.1297 -0.2434  0.3638
 3432TIP3   OH231854   3.032   2.921   0.998  0.2718 -0.0833 -0.1853
 3432TIP3    H131855   2.946   2.963   0.999 -0.2268 -0.9073 -2.6051
 3432TIP3    H231856   3.092   2.989   1.029 -1.0898  0.8838  0.4177
 3433TIP3   OH231857   3.530   3.159   1.932  0.2245 -0.0977  0.2603
 3433TIP3    H131858   3.470   3.142   2.004  0.9815 -2.2613  0.4527
 3433TIP3    H231859   3.613   3.180   1.974  0.5014 -0.7286  0.0516
 3434TIP3   OH231860   0.019   0.020   0.082 -0.3316  0.1676 -0.6337
 3434TIP3    H131861  -0.057  -0.027   0.046 -1.2886  1.3075 -0.1691
 3434TIP3    H231862   0.017   0.001   0.175 -1.5347  2.1165 -0.1958
 3435TIP3   OH231863   2.634   6.771   2.503  0.2448 -0.6174 -0.2839
 3435TIP3    H131864   2.662   6.811   2.585 -1.0197 -2.3304  1.0658
 3435TIP3    H231865   2.550   6.811   2.483  0.6036 -0.1191 -0.8308
 3436TIP3   OH231866   6.770   5.930   7.995 -0.3154 -0.2282 -0.3100
 3436TIP3    H131867   6.683   5.968   7.988 -0.3615 -0.2344  0.2008
 3436TIP3    H231868   6.812   5.951   7.912  0.4518  2.8746  0.7511
 3437TIP3   OH231869   5.507   4.541   0.683 -0.4737 -0.4638  0.4979
 3437TIP3    H131870   5.594   4.574   0.660 -0.2251 -0.6038  1.2125
 3437TIP3    H231871   5.449   4.582   0.619  0.2459 -1.2330 -0.6923
 3438TIP3   OH231872   6.740   1.090   7.619  0.0210 -0.5974 -0.2521
 3438TIP3    H131873   6.655   1.108   7.660 -0.3982  0.4178 -1.5195
 3438TIP3    H231874   6.787   1.173   7.626  0.7402 -1.0224  0.0142
 3439TIP3   OH231875   3.201   3.879   0.736  0.8932 -0.5001  0.6593
 3439TIP3    H131876   3.295   3.897   0.734  0.5962  1.1231 -0.1214
 3439TIP3    H231877   3.160   3.959   0.703 -0.8611 -0.5989  2.3821
 3440TIP3   OH231878   0.490   3.580   0.315 -0.3713  0.0059  0.5246
 3440TIP3    H131879   0.499   3.548   0.405  0.1174  0.8950  0.8050
 3440TIP3    H231880   0.397   3.571   0.296 -0.5718  0.3036  1.3178
 3441TIP3   OH231881   2.808   1.026   1.338  0.0068 -0.4119 -0.5037
 3441TIP3    H131882   2.819   0.935   1.365  0.5306 -0.3012 -0.3331
 3441TIP3    H231883   2.820   1.076   1.418 -1.2863 -0.2446 -0.4032
 3442TIP3   OH231884   0.378   1.525   0.850  0.5233 -0.1229 -0.0801
 3442TIP3    H131885   0.367   1.618   0.829  0.5139  0.0539  0.6786
 3442TIP3    H231886   0.441   1.524   0.922 -0.8861 -0.5719  1.1989
 3443TIP3   OH231887   0.010   1.591   7.944  0.1116 -0.0586 -0.1670
 3443TIP3    H131888  -0.025   1.672   7.979 -1.3296 -0.0661 -1.4684
 3443TIP3    H231889   0.081   1.618   7.885  0.1949  0.1875  0.0467
 3444TIP3   OH231890   4.987   6.367   1.334 -0.2273 -0.5284  0.6294
 3444TIP3    H131891   5.039   6.292   1.362  2.1574 -0.0584 -2.1339
 3444TIP3    H231892   5.050   6.438   1.326 -1.5544  0.4976 -1.3340
 3445TIP3   OH231893   3.023   2.763   7.286 -0.1427 -0.5979  0.7595
 3445TIP3    H131894   2.972   2.767   7.367 -1.2093  0.4557  0.0511
 3445TIP3    H231895   2.963   2.791   7.217  0.9066 -0.9498 -0.3438
 3446TIP3   OH231896   4.047   0.092   8.373  0.4050 -0.1697 -0.0007
 3446TIP3    H131897   4.066   0.109   8.466  0.3560  1.7077 -0.3034
 3446TIP3    H231898   4.126   0.048   8.341  0.7558 -0.1003  0.7438
 3447TIP3   OH231899   4.879   4.536   8.927  0.0073  0.2696  0.3377
 3447TIP3    H131900   4.925   4.610   8.888 -0.8612  0.7854  0.2540
 3447TIP3    H231901   4.942   4.498   8.988  0.8145  0.4502 -0.3773
 3448TIP3   OH231902   1.989   2.006   0.111 -0.6577 -0.0175 -0.6081
 3448TIP3    H131903   2.078   2.025   0.082 -0.5083  0.0221 -0.1266
 3448TIP3    H231904   1.987   1.911   0.120 -0.1560  0.0964  0.9797
 3449TIP3   OH231905   0.685   6.482   1.780 -0.6151 -0.1640  0.0212
 3449TIP3    H131906   0.619   6.513   1.841  1.2993  1.4333  1.4054
 3449TIP3    H231907   0.717   6.561   1.736  1.5532 -0.6106  0.6642
 3450TIP3   OH231908   2.074   5.182   0.774 -0.8692  0.0224 -0.1359
 3450TIP3    H131909   2.096   5.267   0.735  0.2860 -0.6758 -1.0895
 3450TIP3    H231910   2.032   5.134   0.702 -1.1556 -0.3560  0.2855
 3451TIP3   OH231911   0.097   4.325   7.997  0.0462 -0.0198 -0.3210
 3451TIP3    H131912   0.086   4.388   7.925 -3.2318 -0.0228  0.0565
 3451TIP3    H231913   0.092   4.239   7.955  1.1648 -0.0694 -0.4004
 3452TIP3   OH231914   3.991   1.519   2.131 -0.5788  0.2950 -0.0619
 3452TIP3    H131915   3.915   1.468   2.162 -0.2799  0.0978  0.3550
 3452TIP3    H231916   4.066   1.463   2.150 -0.1983  1.0853  0.8329
 3453TIP3   OH231917   2.756   1.506   2.873  0.4675  0.0058  0.2822
 3453TIP3    H131918   2.747   1.578   2.812 -0.6064  0.6328  1.1330
 3453TIP3    H231919   2.683   1.518   2.935 -0.6843 -2.6287 -0.3925
 3454TIP3   OH231920   0.560   2.309   2.439  0.2853  0.3743 -0.4616
 3454TIP3    H131921   0.624   2.251   2.478  1.2397  1.9102  0.3371
 3454TIP3    H231922   0.560   2.286   2.346 -0.2888 -1.7045 -0.0040
 3455TIP3   OH231923   6.438   0.934   0.661 -0.2652  0.3512 -0.1702
 3455TIP3    H131924   6.532   0.915   0.662  0.2717  2.6752 -0.5990
 3455TIP3    H231925   6.414   0.934   0.568 -0.3246  1.2859 -0.1632
 3456TIP3   OH231926   4.688   5.801   0.552  0.1672  0.7790  0.6570
 3456TIP3    H131927   4.709   5.707   0.559  0.0802  0.8224  1.5387
 3456TIP3    H231928   4.593   5.804   0.546  0.2420  0.7266 -1.0080
 3457TIP3   OH231929   5.112   6.049   7.869  0.0456 -0.3606  0.4691
 3457TIP3    H131930   5.133   6.129   7.821  0.2057  0.7580  2.3036
 3457TIP3    H231931   5.070   5.992   7.804  1.4113  0.5373 -1.2885
 3458TIP3   OH231932   0.789   1.669   1.463 -0.1985 -0.0155 -0.7279
 3458TIP3    H131933   0.706   1.716   1.466 -0.0669  0.2046 -0.4886
 3458TIP3    H231934   0.851   1.734   1.428  0.3182  0.5032  1.0760
 3459TIP3   OH231935   5.237   5.921   8.869  0.1213 -0.2276 -0.3788
 3459TIP3    H131936   5.233   5.892   8.777  0.0791 -0.4336 -0.3121
 3459TIP3    H231937   5.171   5.990   8.875  2.8790  2.8036 -1.5674
 3460TIP3   OH231938   5.074   0.173   1.840 -0.5821  0.3441 -0.4623
 3460TIP3    H131939   5.131   0.249   1.827 -1.0343  0.7739  0.0441
 3460TIP3    H231940   5.070   0.162   1.935  0.0373 -0.7460 -0.5466
 3461TIP3   OH231941   6.584   5.351   1.852  0.2164 -0.2252  0.2627
 3461TIP3    H131942   6.610   5.264   1.824  1.4111  0.5308 -1.0804
 3461TIP3    H231943   6.560   5.340   1.944 -0.7587 -2.1652 -0.1711
 3462TIP3   OH231944   5.926   4.436   2.536 -0.4774  0.0360 -0.2931
 3462TIP3    H131945   5.918   4.353   2.585  0.0253 -0.7188 -1.4487
 3462TIP3    H231946   6.014   4.433   2.498 -0.1566  1.4853  0.2918
 3463TIP3   OH231947   0.910   1.344   0.230  0.0100 -0.1241  0.2183
 3463TIP3    H131948   0.834   1.309   0.183  0.1979  0.1214 -0.2773
 3463TIP3    H231949   0.914   1.436   0.205 -0.0774  0.0885  0.9823
 3464TIP3   OH231950   4.138   2.054   0.315  0.1285  0.8568 -0.2217
 3464TIP3    H131951   4.162   2.080   0.226 -0.4392  0.0462 -0.6219
 3464TIP3    H231952   4.192   2.110   0.371  0.2649  1.6000 -1.0635
 3465TIP3   OH231953   0.765   4.546   8.619 -0.7484 -0.1682 -0.6780
 3465TIP3    H131954   0.767   4.638   8.646 -1.9403 -0.1850 -0.4962
 3465TIP3    H231955   0.703   4.504   8.679  1.6424 -1.6692  0.9268
 3466TIP3   OH231956   6.327   5.425   8.710  0.2604 -0.5598  0.7404
 3466TIP3    H131957   6.243   5.403   8.751  0.9765 -0.1278  2.5518
 3466TIP3    H231958   6.375   5.471   8.779  1.1992  1.0733 -0.9341
 3467TIP3   OH231959   0.774   3.051   7.618  0.2017  0.1711 -0.6104
 3467TIP3    H131960   0.780   3.135   7.663  0.0550  0.5906 -1.3500
 3467TIP3    H231961   0.859   3.040   7.576  0.4696 -0.3972  0.0779
 3468TIP3   OH231962   5.529   2.049   0.337  0.5016  0.1418 -0.3815
 3468TIP3    H131963   5.579   2.057   0.256  0.8800 -0.7874 -0.2468
 3468TIP3    H231964   5.566   1.974   0.382 -0.6139 -0.2019  0.0160
 3469TIP3   OH231965   2.892   4.409   8.434  0.4735 -0.1664 -0.9366
 3469TIP3    H131966   2.912   4.446   8.348  0.5139  0.5247 -0.6358
 3469TIP3    H231967   2.976   4.409   8.480  0.3400  0.0340 -0.6885
 3470TIP3   OH231968   3.062   6.336   8.581 -0.3850  0.3854  0.0012
 3470TIP3    H131969   3.022   6.285   8.510  1.8051 -1.8319  0.2362
 3470TIP3    H231970   3.009   6.415   8.586 -2.5012 -0.7821 -2.0199
 3471TIP3   OH231971   6.386   3.304   8.270 -0.7141  0.0694  0.3391
 3471TIP3    H131972   6.345   3.383   8.235  0.2655 -0.4298 -2.1864
 3471TIP3    H231973   6.479   3.315   8.250 -0.4405 -1.3261  0.7399
 3472TIP3   OH231974   3.940   0.181   2.576 -0.2303 -0.0893  0.0579
 3472TIP3    H131975   3.967   0.211   2.489  1.2589  1.1958  0.9066
 3472TIP3    H231976   3.931   0.261   2.628 -0.7768 -0.8443  1.1871
 3473TIP3   OH231977   5.180   5.515   1.282 -0.3481 -0.0151 -0.3247
 3473TIP3    H131978   5.264   5.493   1.322 -0.2736  0.4024 -0.2378
 3473TIP3    H231979   5.161   5.443   1.222 -0.4790 -0.6674  0.4834
 3474TIP3   OH231980   4.572   0.265   8.034 -0.0325  0.1714 -0.2601
 3474TIP3    H131981   4.552   0.338   7.976 -2.5803  0.4081  0.7679
 3474TIP3    H231982   4.598   0.307   8.117  0.0458 -0.1049 -0.1433
 3475TIP3   OH231983   5.419   6.736   8.484  0.5566  0.1841 -0.0017
 3475TIP3    H131984   5.407   6.823   8.521  1.0593  0.0438  0.5045
 3475TIP3    H231985   5.512   6.717   8.497  0.0109 -1.4495  2.2108
 3476TIP3   OH231986   1.124   4.726   7.669  0.0541  0.4471  0.1074
 3476TIP3    H131987   1.034   4.700   7.649  0.8082 -2.0133 -0.3494
 3476TIP3    H231988   1.155   4.766   7.587 -0.0652 -0.3781 -0.3547
 3477TIP3   OH231989   5.238   5.214   7.592  0.5399  0.9105  0.0573
 3477TIP3    H131990   5.195   5.298   7.607 -0.0556  0.4615  0.9991
 3477TIP3    H231991   5.289   5.198   7.671  0.1389  0.1090  0.1766
 3478TIP3   OH231992   5.148   1.999   2.106  0.0569  0.2139 -0.0991
 3478TIP3    H131993   5.127   1.910   2.133  1.6077  0.1387  1.0005
 3478TIP3    H231994   5.126   2.053   2.182  0.6059  0.5527 -0.1761
 3479TIP3   OH231995   0.168   0.772   1.880  0.7354 -0.4705  0.1392
 3479TIP3    H131996   0.074   0.789   1.892  0.5824  0.3224 -1.8329
 3479TIP3    H231997   0.184   0.691   1.929 -1.5055 -1.9107 -1.3186
 3480TIP3   OH231998   4.700   6.667   7.109 -0.4278  0.0434 -0.3458
 3480TIP3    H131999   4.696   6.576   7.140  1.2412  0.0314 -0.0663
 3480TIP3    H232000   4.614   6.703   7.130 -0.5127 -0.9598  1.1868
 3481TIP3   OH232001   2.487   5.980   8.505  0.4052 -0.4669  0.1985
 3481TIP3    H132002   2.538   6.044   8.456 -0.0278  0.5771  1.0702
 3481TIP3    H232003   2.397   5.995   8.477  0.2266 -0.2507  0.8685
 3482TIP3   OH232004   3.999   3.313   1.079  0.0333 -0.0114  0.2392
 3482TIP3    H132005   3.998   3.277   1.168 -1.6164 -0.3990  0.1000
 3482TIP3    H232006   4.013   3.406   1.091  1.5797 -0.2914  0.7825
 3483TIP3   OH232007   1.095   2.199   8.583 -0.4642 -0.6258  0.0477
 3483TIP3    H132008   1.003   2.227   8.588 -0.2294  0.1619  0.1389
 3483TIP3    H232009   1.118   2.209   8.490  0.3683  2.0668  0.4510
 3484TIP3   OH232010   3.305   1.863   0.521  0.5397 -0.2222  0.0970
 3484TIP3    H132011   3.286   1.923   0.593  1.9234 -1.4412  1.5402
 3484TIP3    H232012   3.325   1.780   0.563  1.8030 -0.8648 -1.6629
 3485TIP3   OH232013   2.798   3.064   0.010 -0.0618 -0.4741  0.5822
 3485TIP3    H132014   2.764   3.009  -0.061 -1.3810  1.9220 -0.8037
 3485TIP3    H232015   2.887   3.084  -0.017 -0.9401  1.4524 -1.2194
 3486TIP3   OH232016   6.082   2.650   7.382  0.1498 -0.1883  0.3935
 3486TIP3    H132017   6.150   2.584   7.373 -0.8313 -1.2055  0.2031
 3486TIP3    H232018   6.049   2.639   7.471  0.9035  1.0089  0.8618
 3487TIP3   OH232019   1.597   0.675   2.863  0.6321  0.1358 -0.2885
 3487TIP3    H132020   1.516   0.662   2.912 -0.1517  0.1807 -1.5407
 3487TIP3    H232021   1.637   0.752   2.903  1.2605 -1.1973  1.8688
 3488TIP3   OH232022   3.751   5.504   1.850  0.0906 -0.0060  0.6158
 3488TIP3    H132023   3.843   5.511   1.875  0.1795  0.8142  0.1129
 3488TIP3    H232024   3.735   5.410   1.840  1.3432 -0.1008 -0.9189
 3489TIP3   OH232025   2.321   4.350   2.040  0.1949 -0.6811  0.3844
 3489TIP3    H132026   2.256   4.280   2.028 -0.6571 -0.0827  1.3964
 3489TIP3    H232027   2.398   4.305   2.076  0.6752 -1.5281 -1.5511
 3490TIP3   OH232028   2.989   0.462   0.271  0.4758 -0.2558 -0.1837
 3490TIP3    H132029   2.986   0.537   0.329  1.5331 -1.2054  1.1490
 3490TIP3    H232030   2.897   0.438   0.258  0.1849  0.6515  0.1668
 3491TIP3   OH232031   4.793   2.057   2.664  0.6446 -0.1046  0.6659
 3491TIP3    H132032   4.787   2.011   2.749 -0.6473 -0.2129  0.5426
 3491TIP3    H232033   4.702   2.080   2.643  1.2322  2.6202  0.7497
 3492TIP3   OH232034   0.397   3.722   8.884 -0.6276  0.6559  0.4402
 3492TIP3    H132035   0.349   3.734   8.802  0.0748  0.8755  0.0439
 3492TIP3    H232036   0.439   3.807   8.900 -2.0158  1.1043  1.8787
 3493TIP3   OH232037   1.868   1.524   2.597  0.3243 -0.2152 -0.1720
 3493TIP3    H132038   1.832   1.562   2.516 -1.6716 -0.5643  0.4835
 3493TIP3    H232039   1.956   1.561   2.604  0.6879 -0.3996 -2.6480
 3494TIP3   OH232040   3.484   6.304   1.633  0.0145 -0.1951  0.5877
 3494TIP3    H132041   3.565   6.254   1.648  0.0276  0.2410  2.1242
 3494TIP3    H232042   3.455   6.276   1.546  1.2869 -1.0961  0.4168
 3495TIP3   OH232043   1.389   1.225   3.019 -0.1791  0.0554  0.1866
 3495TIP3    H132044   1.331   1.301   3.017 -0.1101  0.2010 -3.6241
 3495TIP3    H232045   1.336   1.155   3.058 -0.5117  1.7270  3.0100
 3496TIP3   OH232046   3.739   2.628   1.697 -0.0122 -0.6753 -0.0945
 3496TIP3    H132047   3.669   2.563   1.705 -0.9224  0.2790 -0.0801
 3496TIP3    H232048   3.737   2.675   1.780  1.1893 -1.1390  0.2189
 3497TIP3   OH232049   0.719   2.612   8.259  0.4149 -0.3207  0.1299
 3497TIP3    H132050   0.655   2.647   8.197  0.5480  0.3940  0.3839
 3497TIP3    H232051   0.667   2.561   8.321  0.1871 -0.3816 -0.1096
 3498TIP3   OH232052   5.402   4.665   1.881  0.1434  0.1864 -0.0682
 3498TIP3    H132053   5.473   4.724   1.908 -0.4768  0.3476  1.3438
 3498TIP3    H232054   5.388   4.684   1.789  1.9752  0.0929 -0.4050
 3499TIP3   OH232055   0.136   0.538   1.498  0.1060 -0.2286  0.1369
 3499TIP3    H132056   0.058   0.495   1.534  0.1878  1.1150  2.0645
 3499TIP3    H232057   0.103   0.619   1.459  0.7004  1.4743  2.9553
 3500TIP3   OH232058   2.730   6.736   8.580 -0.1476  0.2716  0.3808
 3500TIP3    H132059   2.701   6.812   8.630 -0.3211 -0.5053  1.4974
 3500TIP3    H232060   2.661   6.671   8.592 -0.4552  0.2219 -1.3240
 3501TIP3   OH232061   3.526   2.446   1.764 -0.7836 -0.0872 -0.3138
 3501TIP3    H132062   3.431   2.460   1.765 -0.7043  0.5604  1.0166
 3501TIP3    H232063   3.549   2.433   1.856  0.4213 -0.2038 -0.6168
 3502TIP3   OH232064   1.493   3.584   7.639 -0.6540 -0.3226 -0.2275
 3502TIP3    H132065   1.524   3.674   7.645  0.1791 -0.5697 -0.6050
 3502TIP3    H232066   1.469   3.561   7.729 -0.9377  0.2884 -0.1403
 3503TIP3   OH232067   6.141   3.262   8.790  0.0500  0.1608  0.8410
 3503TIP3    H132068   6.188   3.219   8.719  2.6793 -0.5179  2.8528
 3503TIP3    H232069   6.111   3.345   8.752  1.0743 -0.3157 -1.1406
 3504TIP3   OH232070   0.124   2.071   2.159 -0.0515 -0.2952  0.0928
 3504TIP3    H132071   0.189   2.125   2.204  1.2813 -0.9976 -0.9131
 3504TIP3    H232072   0.067   2.039   2.229  0.9148  0.0366  1.0592
 3505TIP3   OH232073   5.831   5.308   8.743  0.3407  0.8046 -0.3036
 3505TIP3    H132074   5.779   5.386   8.725 -0.9023  0.0026 -0.3155
 3505TIP3    H232075   5.853   5.274   8.656 -0.0459  0.5517 -0.3048
 3506TIP3   OH232076   0.560   3.277   2.361  0.2411 -0.1945 -1.1023
 3506TIP3    H132077   0.635   3.252   2.414  2.3685  0.2973 -3.6906
 3506TIP3    H232078   0.494   3.305   2.424  2.3174 -0.3756  1.2815
 3507TIP3   OH232079   6.485   4.750   2.062  0.5382 -0.0426  0.2190
 3507TIP3    H132080   6.541   4.792   1.998 -0.8880 -0.3196 -1.2928
 3507TIP3    H232081   6.412   4.715   2.011 -0.8632  0.0439  2.0418
 3508TIP3   OH232082   3.175   3.231   8.581 -0.0425 -0.1616  0.0303
 3508TIP3    H132083   3.094   3.256   8.626 -0.4266  0.5924 -1.0294
 3508TIP3    H232084   3.174   3.283   8.501  1.6893  0.1502  0.1758
 3509TIP3   OH232085   6.048   4.090   8.103 -0.0465 -0.2148 -0.0847
 3509TIP3    H132086   5.985   4.088   8.031 -0.3311 -0.7134  0.1678
 3509TIP3    H232087   6.128   4.052   8.066 -0.5414 -1.5531  0.1674
 3510TIP3   OH232088   5.215   4.194   0.632 -0.8248  0.4910 -0.2283
 3510TIP3    H132089   5.296   4.232   0.666 -1.7445  1.3688  1.1158
 3510TIP3    H232090   5.242   4.137   0.560  0.8104  2.3043 -1.1470
 3511TIP3   OH232091   6.514   4.234   1.729  0.4286  0.3047 -0.3368
 3511TIP3    H132092   6.494   4.209   1.819  0.4578 -1.2399 -0.7367
 3511TIP3    H232093   6.486   4.160   1.676 -0.2756  1.4787 -1.6979
 3512TIP3   OH232094   1.648   6.764   0.889  0.2365  0.2159  0.3665
 3512TIP3    H132095   1.650   6.789   0.797  1.2392  2.0468  0.8536
 3512TIP3    H232096   1.567   6.803   0.923  0.0221 -0.2000  0.3415
 3513TIP3   OH232097   4.341   1.595   2.065 -0.5516  0.2515 -0.4904
 3513TIP3    H132098   4.289   1.583   2.145 -1.8334  1.9012 -1.0253
 3513TIP3    H232099   4.295   1.543   1.999  0.3485 -0.8809 -0.2678
 3514TIP3   OH232100   4.753   2.902   2.934 -0.2556  0.5579  0.2810
 3514TIP3    H132101   4.740   2.985   2.980 -2.3497 -0.0274  0.8662
 3514TIP3    H232102   4.699   2.911   2.855  0.2484  0.0924 -0.1174
 3515TIP3   OH232103   2.132   1.479   2.950  0.1914  0.1748  0.2086
 3515TIP3    H132104   2.085   1.534   3.012  0.1792  1.0586 -0.5612
 3515TIP3    H232105   2.108   1.389   2.974 -0.2895  0.5266  1.0844
 3516TIP3   OH232106   2.571   5.756   0.168  0.3429 -0.5037  0.0348
 3516TIP3    H132107   2.492   5.715   0.202 -0.7197  0.8229 -0.7066
 3516TIP3    H232108   2.590   5.826   0.230  0.1774 -0.0159 -0.4536
 3517TIP3   OH232109   5.520   2.322   1.598  0.5728  0.0780 -0.1999
 3517TIP3    H132110   5.468   2.402   1.600  0.4032 -0.0363  0.4048
 3517TIP3    H232111   5.517   2.293   1.507 -1.2091 -0.4217 -0.0228
 3518TIP3   OH232112   4.170   0.236   2.855 -0.5985  0.3754  0.2447
 3518TIP3    H132113   4.091   0.286   2.875 -0.8382 -0.0992  0.5191
 3518TIP3    H232114   4.240   0.301   2.849 -0.7958  0.6776  1.1470
 3519TIP3   OH232115   4.718   5.003   7.183  0.0568  0.3777  0.3891
 3519TIP3    H132116   4.722   4.908   7.179 -0.3120  0.3908 -0.6928
 3519TIP3    H232117   4.809   5.032   7.179  0.0951  0.1083 -0.8785
 3520TIP3   OH232118   3.593   6.484   3.070 -0.5241 -0.2983  0.1915
 3520TIP3    H132119   3.536   6.459   3.143 -1.7501 -0.9163 -0.9206
 3520TIP3    H232120   3.617   6.575   3.088 -0.3213 -0.6205  1.6487
 3521TIP3   OH232121   3.440   2.751   7.515 -0.0526 -0.1772  0.0917
 3521TIP3    H132122   3.386   2.816   7.561 -2.9221 -2.1433 -0.2102
 3521TIP3    H232123   3.440   2.675   7.573 -0.4230 -1.3566 -1.3965
 3522TIP3   OH232124   0.719   1.352   8.742 -0.1793 -0.4651  0.2890
 3522TIP3    H132125   0.707   1.415   8.813 -0.3188 -1.9006  1.5800
 3522TIP3    H232126   0.692   1.400   8.664  0.9680  1.4946  1.0200
 3523TIP3   OH232127   2.052   2.708   1.863 -0.0143 -0.5931 -0.0125
 3523TIP3    H132128   2.066   2.617   1.836  0.5311 -0.1888 -1.1459
 3523TIP3    H232129   1.995   2.744   1.795  1.3980  0.4594 -0.6778
 3524TIP3   OH232130   2.665   1.318   0.450 -0.0556  0.2332 -0.1558
 3524TIP3    H132131   2.701   1.272   0.374  1.8679  0.6177  0.4615
 3524TIP3    H232132   2.601   1.257   0.487  0.7655 -0.9894 -0.6757
 3525TIP3   OH232133   0.547   2.047   1.321 -0.4542  0.1648 -0.0956
 3525TIP3    H132134   0.552   2.030   1.227  1.7080 -0.2663  0.0417
 3525TIP3    H232135   0.475   1.991   1.352  1.8266 -3.5082 -0.7976
 3526TIP3   OH232136   1.684   6.733   1.633 -0.0871 -0.9774 -0.7575
 3526TIP3    H132137   1.729   6.777   1.562 -0.9485  0.7373 -0.2987
 3526TIP3    H232138   1.690   6.640   1.612  1.8407 -0.6673 -1.7357
 3527TIP3   OH232139   5.251   5.259   0.893  0.0595 -0.2744 -0.2682
 3527TIP3    H132140   5.286   5.340   0.857  0.6900 -0.6114 -0.4411
 3527TIP3    H232141   5.235   5.279   0.985  0.0964  0.0843 -0.3395
 3528TIP3   OH232142   1.987   6.285   1.325  0.3015 -0.4905  0.2017
 3528TIP3    H132143   2.061   6.280   1.385 -1.3063  0.1967  2.3508
 3528TIP3    H232144   2.016   6.236   1.248  3.0613 -0.0318  0.8346
 3529TIP3   OH232145   4.599   4.504   0.749  0.2444  0.0462  0.1630
 3529TIP3    H132146   4.519   4.543   0.713 -1.4143 -2.9761  0.2451
 3529TIP3    H232147   4.668   4.567   0.728 -2.0931  2.7839  0.0256
 3530TIP3   OH232148   0.047   0.537   7.569 -0.5433 -0.4939 -0.0222
 3530TIP3    H132149   0.032   0.630   7.550 -3.5462 -0.6892  0.9011
 3530TIP3    H232150  -0.021   0.491   7.521  0.9078 -2.2739 -0.4827
 3531TIP3   OH232151   2.691   5.381   8.777 -0.0719 -0.6565  0.1611
 3531TIP3    H132152   2.684   5.368   8.872  0.8292 -1.0150  0.1922
 3531TIP3    H232153   2.771   5.432   8.766 -0.4082 -0.2306 -0.3907
 3532TIP3   OH232154   5.609   2.673   7.857 -0.3583 -0.2333 -0.2893
 3532TIP3    H132155   5.521   2.686   7.822  0.5650  0.9861 -2.2713
 3532TIP3    H232156   5.612   2.579   7.878 -2.2817 -0.2002  0.4047
 3533TIP3   OH232157   4.704   6.773   1.854  0.5194  0.3516 -0.0817
 3533TIP3    H132158   4.657   6.746   1.933 -0.3462 -1.7420 -1.2195
 3533TIP3    H232159   4.755   6.849   1.881 -0.3579  0.1877  2.2711
 3534TIP3   OH232160   4.636   3.567   1.594  0.0805  0.0223  0.3354
 3534TIP3    H132161   4.654   3.611   1.511  2.4407 -0.3973  0.5677
 3534TIP3    H232162   4.630   3.639   1.657  1.7487  0.1853  0.3471
 3535TIP3   OH232163   0.934   3.843   0.818 -0.1573  0.2495  0.7598
 3535TIP3    H132164   0.965   3.849   0.728 -0.0178  0.3812  0.8174
 3535TIP3    H232165   0.850   3.798   0.811 -0.3036  0.5543  0.5301
 3536TIP3   OH232166   6.009   5.762   8.579 -0.2203 -0.4806 -0.5393
 3536TIP3    H132167   5.979   5.717   8.658 -0.4691 -0.2185 -0.4828
 3536TIP3    H232168   5.980   5.705   8.507 -5.3908  1.9928 -0.8802
 3537TIP3   OH232169   3.949   3.247   1.635  0.7368  0.0782 -0.0214
 3537TIP3    H132170   3.954   3.264   1.541 -1.2576 -0.3156 -0.2416
 3537TIP3    H232171   3.895   3.168   1.642 -1.1980  1.4446  1.5321
 3538TIP3   OH232172   0.744   6.516   0.991  0.1581 -0.0468 -0.1849
 3538TIP3    H132173   0.805   6.464   1.043 -1.7648 -1.2400  1.0042
 3538TIP3    H232174   0.719   6.459   0.918  1.8570  1.1501 -1.7970
 3539TIP3   OH232175   2.895   5.873   7.961  0.1071 -0.1455 -0.1074
 3539TIP3    H132176   2.946   5.907   8.035 -0.8089 -1.3360  1.1208
 3539TIP3    H232177   2.913   5.934   7.890 -0.9360  2.5492  1.7686
 3540TIP3   OH232178   2.069   1.739   8.567  0.3994 -0.4699 -0.2814
 3540TIP3    H132179   1.990   1.729   8.514  0.7545  2.0546 -1.4553
 3540TIP3    H232180   2.100   1.650   8.583 -1.3556 -1.4149 -1.8378
 3541TIP3   OH232181   2.436   2.215   2.756  0.5204  0.1346 -0.0473
 3541TIP3    H132182   2.433   2.307   2.781 -0.6681  0.0339  0.2176
 3541TIP3    H232183   2.378   2.171   2.818  0.2914 -0.6497 -0.7973
 3542TIP3   OH232184   1.428   6.752   8.250  0.2839 -0.3057 -0.2701
 3542TIP3    H132185   1.481   6.672   8.255 -0.2983 -0.7319 -0.7623
 3542TIP3    H232186   1.358   6.737   8.314  1.8655  1.1342  1.9372
 3543TIP3   OH232187   3.367   4.836   8.551  0.5387  0.0968 -0.7339
 3543TIP3    H132188   3.375   4.868   8.641 -0.8221 -0.8811 -0.2239
 3543TIP3    H232189   3.305   4.763   8.558  1.7737 -1.1481 -2.1872
 3544TIP3   OH232190   5.999   5.997   2.382  0.0005 -0.5395 -0.2439
 3544TIP3    H132191   5.969   5.992   2.292  0.4910 -1.5445 -0.3638
 3544TIP3    H232192   6.011   5.906   2.409 -2.0000 -0.3654  1.4888
 3545TIP3   OH232193   4.684   2.202   1.872 -0.3216  0.3686  0.1134
 3545TIP3    H132194   4.663   2.292   1.896 -0.3320  0.1814  0.8191
 3545TIP3    H232195   4.764   2.182   1.920  0.1928  0.3018 -0.7580
 3546TIP3   OH232196   5.859   1.949   7.543 -0.2620 -0.3569  0.1030
 3546TIP3    H132197   5.836   1.992   7.625  0.1421 -0.9031  0.5107
 3546TIP3    H232198   5.781   1.956   7.489 -0.6584 -0.3178  0.6780
 3547TIP3   OH232199   2.221   0.642   2.308 -0.5423  0.0136  0.0152
 3547TIP3    H132200   2.228   0.699   2.232  0.3435 -0.6998 -0.4564
 3547TIP3    H232201   2.278   0.681   2.374 -0.9032  0.3417  0.1397
 3548TIP3   OH232202   2.918   0.734   1.439 -0.5413 -0.1481 -0.8476
 3548TIP3    H132203   2.913   0.652   1.391  0.7353  0.7654 -2.6935
 3548TIP3    H232204   2.847   0.730   1.502 -0.8020 -2.4421 -1.2057
 3549TIP3   OH232205   1.919   0.900   8.570  0.1305  0.1774 -0.6429
 3549TIP3    H132206   1.934   0.947   8.487  0.3618  0.5009 -0.4194
 3549TIP3    H232207   1.974   0.822   8.563  1.8827  1.2822  0.1122
 3550TIP3   OH232208   4.300   5.993   8.220  0.0010 -0.1415  0.0928
 3550TIP3    H132209   4.252   6.024   8.297 -0.1776 -2.0629  0.8065
 3550TIP3    H232210   4.278   6.056   8.152 -2.0017  0.1291  0.9156
 3551TIP3   OH232211   6.343   0.906   1.709  0.1804 -0.0583  0.3125
 3551TIP3    H132212   6.270   0.962   1.737  1.4676  1.5366  0.6601
 3551TIP3    H232213   6.411   0.968   1.683  0.8295 -1.4824 -1.6634
 3552TIP3   OH232214   2.612   2.201   7.700 -0.8963  0.1804  1.0723
 3552TIP3    H132215   2.639   2.120   7.657 -1.7194  1.0469 -1.2566
 3552TIP3    H232216   2.652   2.270   7.647 -2.2657  1.3270  1.4686
 3553TIP3   OH232217   2.435   0.668   8.314 -0.7007  0.3465  0.2430
 3553TIP3    H132218   2.377   0.660   8.390  0.8297  3.1890  1.9099
 3553TIP3    H232219   2.440   0.580   8.277 -2.1228 -1.0060  2.9957
 3554TIP3   OH232220   1.692   2.871   1.786  0.5081  0.0486  0.4838
 3554TIP3    H132221   1.624   2.806   1.807 -0.7287  1.5212  1.1845
 3554TIP3    H232222   1.657   2.918   1.711 -0.5083  2.4804  2.3407
 3555TIP3   OH232223   5.694   0.785   1.579 -0.0660  0.4332 -0.5542
 3555TIP3    H132224   5.725   0.823   1.497  0.6156  1.0614 -0.0128
 3555TIP3    H232225   5.691   0.858   1.640  0.4588 -0.2124  0.2745
 3556TIP3   OH232226   3.919   1.887   0.140 -0.2383 -0.0911 -0.0764
 3556TIP3    H132227   3.913   1.811   0.196 -0.7100 -0.2845 -0.3872
 3556TIP3    H232228   3.997   1.934   0.171 -0.3928 -0.2877  0.6123
 3557TIP3   OH232229   6.398   1.891   2.577 -0.9999 -0.6630 -0.3082
 3557TIP3    H132230   6.370   1.809   2.618  0.8688 -1.5155 -0.6168
 3557TIP3    H232231   6.384   1.876   2.483 -2.8560  0.3061 -0.2286
 3558TIP3   OH232232   5.679   5.265   7.426 -0.0187 -0.0263  0.0021
 3558TIP3    H132233   5.599   5.260   7.374 -0.2998 -0.8442  0.4951
 3558TIP3    H232234   5.658   5.218   7.507  1.2761 -1.1588 -0.2883
 3559TIP3   OH232235   6.084   0.740   0.983 -0.1681  0.2120  0.3792
 3559TIP3    H132236   6.150   0.715   1.047  0.3476  0.0881 -0.1882
 3559TIP3    H232237   6.073   0.663   0.927  0.7102  0.8951 -0.7742
 3560TIP3   OH232238   3.940   5.754   2.544 -0.3992  0.2972  0.0147
 3560TIP3    H132239   3.964   5.663   2.563 -0.0384  0.4756  0.4609
 3560TIP3    H232240   4.000   5.805   2.599  0.4422  0.8376 -1.3791
 3561TIP3   OH232241   4.210   0.664   8.678  0.0823 -0.4500  0.0073
 3561TIP3    H132242   4.156   0.674   8.599 -0.1151 -1.1430  0.0439
 3561TIP3    H232243   4.166   0.718   8.743  0.7653  0.8746 -0.5875
 3562TIP3   OH232244   3.563   0.927   2.257 -0.0008  0.3376  0.2299
 3562TIP3    H132245   3.583   0.927   2.163  3.3597 -2.1984  0.7558
 3562TIP3    H232246   3.507   0.850   2.269  1.6114 -0.8356  0.5407
 3563TIP3   OH232247   5.083   5.518   2.146  0.0518 -0.8581  0.3016
 3563TIP3    H132248   5.024   5.504   2.220  0.1197  0.0891  0.5410
 3563TIP3    H232249   5.126   5.601   2.164  1.5786 -1.5942  0.1973
 3564TIP3   OH232250   4.241   1.793   0.391  0.0925  0.1832 -0.4387
 3564TIP3    H132251   4.213   1.884   0.390 -0.9510 -0.1202 -0.1922
 3564TIP3    H232252   4.249   1.768   0.299  1.6407  0.8722 -0.5258
 3565TIP3   OH232253   2.527   3.877   8.533 -0.7031 -0.1275  0.7000
 3565TIP3    H132254   2.515   3.864   8.627  0.7959 -1.6301  0.7429
 3565TIP3    H232255   2.501   3.967   8.518 -0.2118  0.4069  2.7153
 3566TIP3   OH232256   3.136   6.127   1.521  0.1147  0.0867  0.0225
 3566TIP3    H132257   3.222   6.132   1.480  0.0537 -2.5158 -0.6026
 3566TIP3    H232258   3.074   6.127   1.448 -0.4002  1.0693  0.4325
 3567TIP3   OH232259   6.358   4.744   7.897  0.0189  0.1118  0.6183
 3567TIP3    H132260   6.331   4.822   7.947  0.9888  0.4772  0.5871
 3567TIP3    H232261   6.286   4.682   7.910 -0.8130  1.0406  0.5689
 3568TIP3   OH232262   1.059   0.308   8.008  0.0038  0.0741  0.4381
 3568TIP3    H132263   1.117   0.260   7.948  0.3561 -0.2885  1.0494
 3568TIP3    H232264   1.036   0.244   8.075 -0.7612  0.3431  0.4403
 3569TIP3   OH232265   5.582   1.915   7.985 -0.1604 -0.6450  0.2784
 3569TIP3    H132266   5.515   1.847   7.977 -1.3128  0.2831  1.6382
 3569TIP3    H232267   5.655   1.871   8.029 -0.2507 -1.4011 -0.2984
 3570TIP3   OH232268   3.439   4.557   0.646  0.6973  0.8477 -0.1967
 3570TIP3    H132269   3.419   4.476   0.598  0.9097  0.2345  0.7200
 3570TIP3    H232270   3.533   4.568   0.637  0.6329  1.1482 -0.5417
 3571TIP3   OH232271   3.337   2.060   8.595 -0.0358  0.1760 -0.0622
 3571TIP3    H132272   3.424   2.099   8.598 -0.6724  1.6550 -0.2329
 3571TIP3    H232273   3.330   2.012   8.678  0.4890  1.0779  0.5240
 3572TIP3   OH232274   1.287   1.151   0.841  0.1445 -0.2032  0.4447
 3572TIP3    H132275   1.311   1.129   0.752  2.4765 -0.8614  1.1786
 3572TIP3    H232276   1.220   1.086   0.864 -1.0031  0.4115 -1.0103
 3573TIP3   OH232277   3.027   1.435   2.890 -0.1307 -0.0781 -0.4191
 3573TIP3    H132278   3.079   1.515   2.887 -0.5923  0.2764  0.7350
 3573TIP3    H232279   2.938   1.464   2.870 -0.1910 -0.4090 -0.6402
 3574TIP3   OH232280   0.764   6.436   2.516  0.0068 -0.2125 -0.2527
 3574TIP3    H132281   0.682   6.392   2.491 -1.4029  1.2009  1.6296
 3574TIP3    H232282   0.774   6.418   2.609  0.1759  2.1390  0.2492
 3575TIP3   OH232283   1.869   5.608   2.284 -0.6263  0.6205 -0.0874
 3575TIP3    H132284   1.793   5.637   2.335 -0.5951 -0.5853  0.6835
 3575TIP3    H232285   1.835   5.598   2.195 -1.3859  0.1044  0.2458
 3576TIP3   OH232286   3.831   5.941   0.036  0.0038 -0.0468  0.4210
 3576TIP3    H132287   3.806   5.849   0.027 -3.2846  0.6400  1.2657
 3576TIP3    H232288   3.839   5.973  -0.054 -3.1722 -0.2308 -0.0388
 3577TIP3   OH232289   0.179   2.815   7.512  0.1000  0.5592  0.3774
 3577TIP3    H132290   0.189   2.819   7.417 -2.1557 -1.3055 -0.0488
 3577TIP3    H232291   0.236   2.743   7.539  1.3320  1.5774  0.6101
 3578TIP3   OH232292   4.935   6.401   1.709 -0.8649 -0.4944  0.5686
 3578TIP3    H132293   4.893   6.393   1.795 -0.7161 -2.7340  0.4804
 3578TIP3    H232294   4.885   6.344   1.652 -0.2156  0.0303 -0.5690
 3579TIP3   OH232295   1.662   1.529   1.305  0.4106 -0.0390  0.2780
 3579TIP3    H132296   1.662   1.526   1.209  0.2005  1.5602  0.2037
 3579TIP3    H232297   1.671   1.621   1.326 -0.5141 -0.2576  1.7999
 3580TIP3   OH232298   2.350   1.364   8.843  0.3123 -0.1554  0.4945
 3580TIP3    H132299   2.342   1.459   8.842 -0.7269 -0.2164  1.4564
 3580TIP3    H232300   2.355   1.339   8.750 -1.8558  0.6667  0.1039
 3581TIP3   OH232301   0.849   5.036   8.641  0.3377 -0.2438 -0.1643
 3581TIP3    H132302   0.936   5.051   8.677 -0.1085  1.0652  0.4056
 3581TIP3    H232303   0.863   4.974   8.569  1.6564 -0.4425  0.2462
 3582TIP3   OH232304   5.007   1.979   2.525  0.3849 -0.8211  0.3421
 3582TIP3    H132305   5.029   1.894   2.561  0.6613 -1.0431 -0.3208
 3582TIP3    H232306   4.932   2.010   2.576 -0.8882 -2.2587 -0.5836
 3583TIP3   OH232307   3.183   2.875   2.386 -0.3000 -0.0474 -0.1398
 3583TIP3    H132308   3.169   2.785   2.417  0.6086  0.2153  1.1070
 3583TIP3    H232309   3.099   2.919   2.401 -0.2247 -0.2411  0.8952
 3584TIP3   OH232310   3.799   4.278   8.868  0.0386 -0.0419 -0.1527
 3584TIP3    H132311   3.870   4.334   8.899 -0.2250 -0.5665  1.4664
 3584TIP3    H232312   3.841   4.193   8.852  0.6691  0.7418 -3.6245
 3585TIP3   OH232313   5.354   3.777   7.440 -0.0779 -1.0177 -0.1128
 3585TIP3    H132314   5.359   3.692   7.396  1.1162 -0.0047 -2.0840
 3585TIP3    H232315   5.410   3.834   7.387 -0.3241  0.8427  1.5357
 3586TIP3   OH232316   5.652   5.105   1.966  0.3041  0.1300 -0.0825
 3586TIP3    H132317   5.748   5.109   1.976  0.7506 -3.0488 -1.7989
 3586TIP3    H232318   5.618   5.123   2.053  2.4058  1.7199  0.5072
 3587TIP3   OH232319   6.643   2.706   2.563 -0.2294 -0.9501  0.2557
 3587TIP3    H132320   6.628   2.630   2.506  0.1065 -1.7236  1.1607
 3587TIP3    H232321   6.557   2.747   2.572 -0.1678 -0.4110 -1.3348
 3588TIP3   OH232322   5.683   4.043   0.088  1.0578 -0.4569 -0.3077
 3588TIP3    H132323   5.644   4.128   0.069 -1.6531 -1.6531 -0.6609
 3588TIP3    H232324   5.706   4.007   0.002 -0.9006 -1.3363 -0.5423
 3589TIP3   OH232325   1.854   5.023   7.673 -0.7960  0.0588  0.0454
 3589TIP3    H132326   1.936   5.072   7.678  1.2519 -3.0972  0.0993
 3589TIP3    H232327   1.810   5.041   7.756  0.1939  1.1875  0.3574
 3590TIP3   OH232328   6.569   2.610   1.927 -0.1613  1.0382  0.6164
 3590TIP3    H132329   6.645   2.588   1.873 -0.9796  0.0100 -0.1454
 3590TIP3    H232330   6.501   2.635   1.865 -0.3248  2.4257  1.3160
 3591TIP3   OH232331   0.784   6.492   7.292  0.1702  0.3160 -1.0461
 3591TIP3    H132332   0.831   6.530   7.218  0.5629  2.6922  0.3147
 3591TIP3    H232333   0.694   6.524   7.282  0.3927  1.2819 -0.1508
 3592TIP3   OH232334   0.301   1.716   1.982  0.6029 -0.1034 -0.1130
 3592TIP3    H132335   0.367   1.735   2.049  1.2396  0.6558 -0.9343
 3592TIP3    H232336   0.272   1.802   1.952 -1.2915 -0.3909  0.7039
 3593TIP3   OH232337   5.934   3.504   2.159  0.0524 -0.4168  0.3328
 3593TIP3    H132338   6.022   3.468   2.157  1.2059  2.2210 -0.6785
 3593TIP3    H232339   5.920   3.529   2.250  1.4201  1.4370  0.0895
 3594TIP3   OH232340   0.925   2.294   0.520 -0.4419  0.6203 -1.2633
 3594TIP3    H132341   0.889   2.292   0.608 -2.2632  1.5571 -1.9386
 3594TIP3    H232342   0.998   2.356   0.525  1.3554 -1.4841  0.1822
 3595TIP3   OH232343   0.181   1.313   0.580 -0.2191 -0.4348  0.4848
 3595TIP3    H132344   0.201   1.266   0.499  1.0654 -1.4459  1.3524
 3595TIP3    H232345   0.242   1.388   0.580 -0.4324 -0.2625  0.3618
 3596TIP3   OH232346   0.862   2.140   1.120 -0.4105 -0.1238  0.4271
 3596TIP3    H132347   0.804   2.068   1.096 -0.6397 -0.1217  0.9638
 3596TIP3    H232348   0.945   2.120   1.077 -0.3356 -0.9389  0.9496
 3597TIP3   OH232349   3.265   4.297   7.956  0.2165  0.2482 -0.2046
 3597TIP3    H132350   3.197   4.238   7.987 -0.2726  0.5804 -0.6188
 3597TIP3    H232351   3.346   4.246   7.959 -0.0029 -0.0591  0.5675
 3598TIP3   OH232352   3.673   4.534   2.708 -0.4770 -0.2473  0.0963
 3598TIP3    H132353   3.597   4.569   2.753 -0.4855 -0.4777  0.2638
 3598TIP3    H232354   3.721   4.611   2.677 -0.9384 -0.1078 -0.2827
 3599TIP3   OH232355   2.592   6.448   0.541  0.2633 -0.6018 -0.0584
 3599TIP3    H132356   2.630   6.360   0.535 -1.0287 -1.2131  0.3786
 3599TIP3    H232357   2.565   6.468   0.452 -0.2127 -1.0195 -0.0153
 3600TIP3   OH232358   5.517   0.785   2.145 -0.0419  0.4387  0.2436
 3600TIP3    H132359   5.573   0.824   2.213 -1.2143 -0.0625  1.5511
 3600TIP3    H232360   5.531   0.691   2.153 -0.5403  0.3490  0.1129
 3601TIP3   OH232361   1.948   0.271   0.915  0.1603 -0.0535  0.5950
 3601TIP3    H132362   1.879   0.282   0.981 -1.7390  1.5534 -1.4842
 3601TIP3    H232363   2.019   0.328   0.945 -0.1425 -0.2981  1.8401
 3602TIP3   OH232364   0.894   5.670   2.116  0.5104 -0.5106 -0.1734
 3602TIP3    H132365   0.843   5.601   2.157 -1.9885 -0.1144 -2.3396
 3602TIP3    H232366   0.982   5.660   2.152 -0.5159 -2.7359  1.9805
 3603TIP3   OH232367   6.673   6.312   8.603  0.0412  0.0909 -0.2892
 3603TIP3    H132368   6.611   6.371   8.560 -0.7743  1.0945  2.0874
 3603TIP3    H232369   6.622   6.273   8.674  1.0279 -2.3178 -0.8265
 3604TIP3   OH232370   5.815   0.523   7.524  0.0060  0.0173  0.4842
 3604TIP3    H132371   5.835   0.551   7.434 -1.8107 -0.6043 -0.1796
 3604TIP3    H232372   5.897   0.531   7.571  0.6526  1.8872 -0.8387
 3605TIP3   OH232373   2.616   4.183   7.314  0.0253 -0.2681  0.1629
 3605TIP3    H132374   2.608   4.089   7.299  0.7295 -0.2676 -0.2565
 3605TIP3    H232375   2.696   4.192   7.364 -0.5739  0.0301  1.0921
 3606TIP3   OH232376   1.665   3.232   8.262  0.2435 -0.5109  0.1326
 3606TIP3    H132377   1.604   3.160   8.244 -0.3271 -0.8136  2.8750
 3606TIP3    H232378   1.637   3.266   8.347  2.8448  0.4970  0.6631
 3607TIP3   OH232379   0.835   3.843   1.861  0.7844  0.2507 -0.6629
 3607TIP3    H132380   0.929   3.860   1.869  0.8667  1.3742 -3.1274
 3607TIP3    H232381   0.806   3.904   1.794 -1.4843 -0.9260 -0.8234
 3608TIP3   OH232382   0.448   1.826   1.508  0.4916 -0.6836 -0.2610
 3608TIP3    H132383   0.525   1.835   1.565  1.6824 -1.1285 -1.7045
 3608TIP3    H232384   0.429   1.732   1.510 -0.8090 -0.4205  1.0283
 3609TIP3   OH232385   4.303   5.195   0.419 -0.1883 -0.1185  0.1519
 3609TIP3    H132386   4.352   5.268   0.457  0.3356  1.9790 -4.0322
 3609TIP3    H232387   4.225   5.235   0.382 -0.9909 -2.0762 -0.4039
 3610TIP3   OH232388   0.975   0.839   7.257 -0.0312  0.4355 -0.6627
 3610TIP3    H132389   0.906   0.859   7.319  0.7333 -0.4983  0.5449
 3610TIP3    H232390   0.973   0.743   7.249  2.3032  0.1441  0.9334
 3611TIP3   OH232391   3.853   5.882   7.472 -0.2683  0.4134 -0.3490
 3611TIP3    H132392   3.862   5.959   7.415  3.0933  1.1607  0.9363
 3611TIP3    H232393   3.831   5.811   7.412  1.8445  1.4094 -2.4793
 3612TIP3   OH232394   1.942   5.277   1.607  0.3041 -0.3953  0.5980
 3612TIP3    H132395   1.920   5.194   1.649 -1.6551  0.0414  0.5325
 3612TIP3    H232396   2.029   5.263   1.570  0.0357 -2.4030  0.6198
 3613TIP3   OH232397   3.920   0.668   1.188 -0.2679 -0.4658  0.4268
 3613TIP3    H132398   3.964   0.660   1.272 -0.6923 -2.4615  0.5172
 3613TIP3    H232399   3.985   0.640   1.124  0.0184  0.9416  0.0688
 3614TIP3   OH232400   4.952   5.045   7.474 -0.0457  0.3381  0.1015
 3614TIP3    H132401   4.960   5.011   7.563 -1.4845  0.4165  0.2828
 3614TIP3    H232402   4.914   5.132   7.486  0.6763  0.7534 -0.5426
 3615TIP3   OH232403   5.226   1.366   1.944  0.1670 -0.1019  0.4252
 3615TIP3    H132404   5.208   1.276   1.915 -4.6130  1.1639 -1.5774
 3615TIP3    H232405   5.268   1.407   1.869  0.8758 -0.2515  0.7355
 3616TIP3   OH232406   0.896   0.381   2.587 -0.0893  0.2647  0.1175
 3616TIP3    H132407   0.861   0.440   2.654 -0.7312 -1.0002  0.9237
 3616TIP3    H232408   0.985   0.413   2.572 -1.0254  2.6225 -0.8870
 3617TIP3   OH232409   4.968   2.126   8.126 -0.0548  0.3453 -0.3273
 3617TIP3    H132410   4.952   2.033   8.111  1.5747 -0.0409  0.1307
 3617TIP3    H232411   4.999   2.159   8.042 -0.0216  0.3337 -0.3196
 3618TIP3   OH232412   3.698   4.310   0.788 -0.3320 -0.2145 -0.3957
 3618TIP3    H132413   3.692   4.215   0.792  1.5366 -0.3401  0.8672
 3618TIP3    H232414   3.701   4.331   0.694  1.3599 -1.6128 -0.7005
 3619TIP3   OH232415   0.790   1.291   1.067  0.2937 -0.1630 -0.3186
 3619TIP3    H132416   0.824   1.381   1.064 -0.0317 -0.0569 -1.2092
 3619TIP3    H232417   0.771   1.270   0.975  1.8373 -1.7250 -0.3123
 3620TIP3   OH232418   4.683   2.469   8.369  0.5813 -0.1228  0.3381
 3620TIP3    H132419   4.738   2.534   8.324 -2.0311  2.8113  0.9894
 3620TIP3    H232420   4.713   2.472   8.460  1.7908 -1.4159  0.0068
 3621TIP3   OH232421   0.831   5.680   1.264 -0.1735  0.0743 -0.0047
 3621TIP3    H132422   0.799   5.669   1.175  0.8696  0.7224 -0.4870
 3621TIP3    H232423   0.752   5.682   1.318 -0.8330 -0.0992 -0.9333
 3622TIP3   OH232424   4.192   3.075   8.803  0.1378  0.0294  0.9095
 3622TIP3    H132425   4.277   3.120   8.806 -0.5200  1.3835 -0.0353
 3622TIP3    H232426   4.169   3.062   8.895  1.4954 -0.6651  1.1852
 3623TIP3   OH232427   4.055   4.643   2.138  0.1482 -0.5070 -0.4760
 3623TIP3    H132428   4.133   4.587   2.129 -0.9040 -1.8194 -2.1309
 3623TIP3    H232429   3.997   4.614   2.067 -1.7612  0.5911  0.5654
 3624TIP3   OH232430   2.073   4.225   0.012 -0.2381  0.6465 -0.3255
 3624TIP3    H132431   2.049   4.150   0.065 -0.0933  1.3558  0.7689
 3624TIP3    H232432   1.989   4.265  -0.013 -0.3183  0.0714 -1.0082
 3625TIP3   OH232433   3.304   3.993   2.014 -0.0805 -0.5122  0.0708
 3625TIP3    H132434   3.251   3.915   2.032 -0.9603 -0.2560 -1.2695
 3625TIP3    H232435   3.318   4.032   2.100 -1.5943 -0.9063  0.5386
 3626TIP3   OH232436   6.136   4.511   1.120 -0.5102  0.5356 -0.4628
 3626TIP3    H132437   6.053   4.510   1.072 -0.8613 -2.5576  0.0088
 3626TIP3    H232438   6.201   4.482   1.057  0.2283  2.5454 -0.7094
 3627TIP3   OH232439   5.369   0.637   7.869  0.3408 -0.5214 -0.4962
 3627TIP3    H132440   5.375   0.570   7.801  1.3027 -2.9589  1.8207
 3627TIP3    H232441   5.299   0.606   7.926 -2.0157  2.6185 -1.3923
 3628TIP3   OH232442   6.286   3.190   2.659  0.0834  0.4360  0.1314
 3628TIP3    H132443   6.261   3.178   2.568  0.9111 -0.4956  0.0184
 3628TIP3    H232444   6.249   3.275   2.683 -2.3122 -0.4116 -0.3037
 3629TIP3   OH232445   6.570   0.528   0.406 -0.0291 -0.3457 -0.4084
 3629TIP3    H132446   6.504   0.537   0.337 -2.5359  1.3703  1.9888
 3629TIP3    H232447   6.626   0.605   0.396 -0.9672  0.4107 -0.0332
 3630TIP3   OH232448   1.059   6.438   8.323  0.4384 -0.4091  0.0468
 3630TIP3    H132449   0.999   6.461   8.252  1.8553  0.9238 -0.7823
 3630TIP3    H232450   1.076   6.344   8.310 -0.4908 -0.5240 -0.4415
 3631TIP3   OH232451   0.841   5.971   0.165  0.6883 -0.0434  0.3865
 3631TIP3    H132452   0.804   5.896   0.211 -0.1499  0.4109  0.4882
 3631TIP3    H232453   0.829   6.045   0.225  1.5766  0.1673  0.3264
 3632TIP3   OH232454   4.103   0.835   7.325  0.2500 -0.6460  0.2957
 3632TIP3    H132455   4.107   0.774   7.252  1.7473 -0.0505 -0.1516
 3632TIP3    H232456   4.021   0.883   7.311  1.4721  0.9247 -2.2638
 3633TIP3   OH232457   4.320   2.706   1.078 -0.1509 -0.0780 -0.3092
 3633TIP3    H132458   4.303   2.620   1.116 -1.2673  0.5440  0.6429
 3633TIP3    H232459   4.363   2.756   1.148  1.5130 -0.1674 -1.1990
 3634TIP3   OH232460   4.520   6.236   7.851 -0.3388 -0.0009  0.2159
 3634TIP3    H132461   4.559   6.162   7.805 -0.1783 -0.1498  0.5866
 3634TIP3    H232462   4.450   6.198   7.904  1.5028 -0.3565  2.5871
 3635TIP3   OH232463   4.460   5.838   8.040  0.1392 -0.7958 -0.4088
 3635TIP3    H132464   4.497   5.789   8.113 -0.0718 -1.7044 -0.9016
 3635TIP3    H232465   4.440   5.924   8.077  0.4787 -1.0882  0.4786
 3636TIP3   OH232466   4.059   5.290   1.793 -0.6980  0.0146 -0.1735
 3636TIP3    H132467   4.038   5.383   1.787 -0.0692  0.1041 -1.4637
 3636TIP3    H232468   3.974   5.246   1.796 -0.9976  0.6288  0.5263
 3637TIP3   OH232469   6.255   0.373   1.176 -0.6441  0.0820  0.1734
 3637TIP3    H132470   6.178   0.418   1.142 -0.8969  0.2023  0.8732
 3637TIP3    H232471   6.262   0.405   1.267  0.9938  1.0922 -0.2624
 3638TIP3   OH232472   1.416   3.031   2.362 -0.0882  0.2482  1.0835
 3638TIP3    H132473   1.432   3.083   2.283  2.0332 -1.5614  0.1956
 3638TIP3    H232474   1.322   3.040   2.379 -0.7742  0.1653 -2.0735
 3639TIP3   OH232475   2.284   4.310   1.035  0.6029 -0.0798 -0.3127
 3639TIP3    H132476   2.299   4.268   0.950  0.9980  0.6125 -0.5890
 3639TIP3    H232477   2.190   4.327   1.037  0.4947 -0.6520 -0.3486
 3640TIP3   OH232478   6.530   5.872   0.838  0.4985  0.1009  0.2804
 3640TIP3    H132479   6.623   5.889   0.853  0.7027 -2.9719  4.0099
 3640TIP3    H232480   6.485   5.943   0.884  0.9030  1.6663 -1.6372
 3641TIP3   OH232481   3.381   5.695   0.778  0.3186 -0.8625  0.2778
 3641TIP3    H132482   3.437   5.737   0.714 -1.6224  2.3597  0.4587
 3641TIP3    H232483   3.440   5.643   0.833  2.4894 -0.7531 -1.8335
 3642TIP3   OH232484   6.373   5.346   1.689  0.2537 -0.0770  0.0760
 3642TIP3    H132485   6.448   5.365   1.745 -0.2297 -1.7835  1.4133
 3642TIP3    H232486   6.411   5.332   1.602  1.1447  1.6255  0.1537
 3643TIP3   OH232487   1.749   0.475   1.458  0.4327  0.0948  0.1743
 3643TIP3    H132488   1.777   0.560   1.490 -0.0835  0.5585 -0.5658
 3643TIP3    H232489   1.800   0.462   1.378 -1.4010  0.9639 -1.2082
 3644TIP3   OH232490   2.467   4.003   1.596 -0.0240 -0.4071  0.4506
 3644TIP3    H132491   2.503   3.970   1.514 -0.7297 -0.9617  0.3562
 3644TIP3    H232492   2.411   4.076   1.570 -0.1811 -0.5281  0.4562
 3645TIP3   OH232493   4.135   4.454   7.087  0.0427 -0.1644 -0.6128
 3645TIP3    H132494   4.133   4.367   7.047  0.9768 -0.3597 -0.2529
 3645TIP3    H232495   4.215   4.455   7.138 -1.1896  0.0122  1.4203
 3646TIP3   OH232496   3.548   2.095   8.129  0.1369 -0.1577 -0.0359
 3646TIP3    H132497   3.552   2.171   8.071  1.3979  0.8103  1.2106
 3646TIP3    H232498   3.470   2.047   8.102 -1.4904  2.2882 -0.0350
 3647TIP3   OH232499   2.811   3.146   3.147  0.5216  0.0706  0.0351
 3647TIP3    H132500   2.853   3.060   3.148 -0.7509 -0.5798  0.6949
 3647TIP3    H232501   2.720   3.127   3.125 -0.0400  1.0946  1.3350
 3648TIP3   OH232502   3.924   6.455   7.656  0.0651  0.3934  0.2303
 3648TIP3    H132503   3.981   6.401   7.601  0.8875  1.6469 -0.1749
 3648TIP3    H232504   3.871   6.505   7.594  2.9167  3.9341  0.3236
 3649TIP3   OH232505   3.012   1.226   0.849 -0.7644 -0.8352 -0.0766
 3649TIP3    H132506   2.956   1.304   0.849  0.8512  0.4393 -2.2969
 3649TIP3    H232507   2.988   1.178   0.770  2.0440  0.5023 -1.9442
 3650TIP3   OH232508   0.621   5.149   0.169 -0.1433  0.2397  0.2124
 3650TIP3    H132509   0.645   5.230   0.215  0.9122  2.2029 -3.3959
 3650TIP3    H232510   0.705   5.106   0.153 -0.2462  0.5514 -1.3329
 3651TIP3   OH232511   1.669   1.344   7.943  0.3898  0.0864  0.0712
 3651TIP3    H132512   1.741   1.405   7.929  1.5945 -1.4255 -0.7270
 3651TIP3    H232513   1.694   1.294   8.021 -0.8229  0.9075  1.0213
 3652TIP3   OH232514   3.656   3.847   2.201  0.4674  0.8516 -0.0422
 3652TIP3    H132515   3.561   3.854   2.210 -0.2112 -1.4279 -3.4772
 3652TIP3    H232516   3.685   3.936   2.180 -1.1503  1.3259 -0.4218
 3653TIP3   OH232517   6.022   2.205   8.544 -0.0869 -0.1239 -0.2509
 3653TIP3    H132518   6.118   2.208   8.548 -0.0948 -0.0907 -0.0757
 3653TIP3    H232519   5.993   2.283   8.592 -0.1866  0.5128 -1.3085
 3654TIP3   OH232520   1.171   3.356   1.310 -0.2408 -0.2103  0.3904
 3654TIP3    H132521   1.143   3.386   1.223 -0.2593 -1.4721 -0.0490
 3654TIP3    H232522   1.266   3.350   1.303  0.0572  2.3152  1.3266
 3655TIP3   OH232523   3.043   1.310   0.054 -0.1154  0.1311  0.1360
 3655TIP3    H132524   3.022   1.401   0.036  1.7262  0.9812  1.8310
 3655TIP3    H232525   3.121   1.314   0.110  0.8176 -2.5270 -0.8031
 3656TIP3   OH232526   1.209   1.312   1.473 -0.5887 -0.3132  0.2876
 3656TIP3    H132527   1.178   1.373   1.540 -0.3025 -1.2899  1.3556
 3656TIP3    H232528   1.242   1.367   1.403 -0.7597  0.7468  1.0252
 3657TIP3   OH232529   1.572   3.939   1.624  0.2145 -0.0315 -0.1287
 3657TIP3    H132530   1.503   3.976   1.678 -1.1732  0.1630 -1.9373
 3657TIP3    H232531   1.568   3.989   1.542  0.2318 -2.1823 -1.5394
 3658TIP3   OH232532   6.578   2.602   8.875 -0.1529 -0.3571  0.1352
 3658TIP3    H132533   6.551   2.680   8.923  1.7143 -0.3081  1.2403
 3658TIP3    H232534   6.536   2.530   8.922  0.8566 -0.2309  1.2943
 3659TIP3   OH232535   1.597   3.018   2.973 -0.0937 -0.6404  0.2328
 3659TIP3    H132536   1.677   2.966   2.982  0.3393  0.1287  0.9129
 3659TIP3    H232537   1.627   3.107   2.956 -0.8324 -0.8080 -2.4866
 3660TIP3   OH232538   5.058   2.741   1.737  0.3522  0.0671  0.1067
 3660TIP3    H132539   5.062   2.830   1.772  0.8647 -0.2048  0.7683
 3660TIP3    H232540   5.108   2.689   1.800 -1.3461 -0.9919  0.6411
 3661TIP3   OH232541   4.739   1.101   7.432 -0.1374 -0.2347  0.3125
 3661TIP3    H132542   4.745   1.162   7.505  1.1242  0.4186 -0.2979
 3661TIP3    H232543   4.646   1.095   7.412 -0.3553  0.8244  0.9450
 3662TIP3   OH232544   1.981   0.733   7.705  0.0637  0.0865 -0.6370
 3662TIP3    H132545   2.070   0.699   7.700  0.1569  0.2266 -0.0541
 3662TIP3    H232546   1.948   0.703   7.790 -1.0976 -1.4747 -1.5851
 3663TIP3   OH232547   4.436   4.284   8.878 -0.3279 -0.0626 -0.1383
 3663TIP3    H132548   4.408   4.372   8.904 -0.1704 -0.3694  1.1300
 3663TIP3    H232549   4.520   4.272   8.922 -0.0660 -0.6301 -0.7757
 3664TIP3   OH232550   1.133   0.356   0.147 -0.0821 -0.5239  0.0170
 3664TIP3    H132551   1.066   0.295   0.178 -2.2709  1.2134 -1.0075
 3664TIP3    H232552   1.091   0.405   0.077  2.7365 -0.2016 -1.6285
 3665TIP3   OH232553   0.992   6.627   7.146 -0.1978  0.1109  0.1243
 3665TIP3    H132554   0.938   6.663   7.076  1.8609 -1.5182 -2.5243
 3665TIP3    H232555   1.082   6.642   7.117  0.7580 -2.7387  1.1847
 3666TIP3   OH232556   5.931   5.763   8.892 -0.0433  0.4113  0.8965
 3666TIP3    H132557   5.855   5.784   8.839  0.3837 -1.1597 -0.4329
 3666TIP3    H232558   5.899   5.700   8.956 -0.1977  1.0227  1.4310
 3667TIP3   OH232559   1.958   1.587   1.820  0.2181 -0.0351 -0.7334
 3667TIP3    H132560   2.000   1.618   1.901 -2.9730  1.6401  0.4550
 3667TIP3    H232561   1.981   1.494   1.815 -0.4237 -0.5203  2.8383
 3668TIP3   OH232562   0.992   2.274   7.827 -0.5635 -0.2887  0.0770
 3668TIP3    H132563   0.911   2.235   7.795 -0.9594  1.3609 -1.1091
 3668TIP3    H232564   0.964   2.335   7.895 -0.1604 -0.6617  0.5905
 3669TIP3   OH232565   0.386   2.661   7.833  0.2357  0.0161  0.2177
 3669TIP3    H132566   0.337   2.738   7.862  0.1630  0.8522 -1.9080
 3669TIP3    H232567   0.319   2.603   7.795  0.1663 -1.5570  2.5784
 3670TIP3   OH232568   0.501   5.553   2.446  0.2700 -0.7761  0.0792
 3670TIP3    H132569   0.549   5.471   2.435  0.4057 -0.8193  0.9039
 3670TIP3    H232570   0.464   5.548   2.534 -0.6831 -0.4437 -0.2792
 3671TIP3   OH232571   6.354   6.649   7.166  0.4891 -0.1774  0.3139
 3671TIP3    H132572   6.444   6.626   7.188  0.7292 -0.7496 -1.1682
 3671TIP3    H232573   6.301   6.582   7.209  0.7879 -0.1640  0.7175
 3672TIP3   OH232574   4.020   5.033   1.508  0.2157  0.2513 -0.9630
 3672TIP3    H132575   4.093   5.008   1.564  0.1878 -1.3210 -1.5501
 3672TIP3    H232576   4.035   4.984   1.426  0.1958  2.3560 -2.2969
 3673TIP3   OH232577   1.407   3.727   8.350 -0.5404 -0.6582  0.0386
 3673TIP3    H132578   1.383   3.718   8.258  0.6297  1.3050 -0.5163
 3673TIP3    H232579   1.329   3.765   8.392  0.2382  2.3880 -1.0421
 3674TIP3   OH232580   1.142   1.583   0.419 -0.1050 -0.7024  0.1756
 3674TIP3    H132581   1.090   1.595   0.498 -0.6360 -1.1717 -0.0921
 3674TIP3    H232582   1.179   1.495   0.428 -0.9995 -1.1766 -0.5549
 3675TIP3   OH232583   2.868   3.671   6.983  0.0300 -0.3272 -0.0638
 3675TIP3    H132584   2.876   3.586   6.939 -2.3021 -0.8054  0.3010
 3675TIP3    H232585   2.871   3.735   6.913  0.7072 -0.7724 -0.4556
 3676TIP3   OH232586   2.070   5.313   7.409 -0.0792 -0.1978  0.3151
 3676TIP3    H132587   2.113   5.399   7.402  0.4898 -0.4941  0.1566
 3676TIP3    H232588   2.142   5.251   7.418 -0.3844 -0.8604 -1.4684
 3677TIP3   OH232589   3.236   3.541   0.598 -0.0777 -0.6205 -0.2292
 3677TIP3    H132590   3.140   3.552   0.599 -0.0467 -0.3444  0.2878
 3677TIP3    H232591   3.253   3.476   0.667  0.2710  0.9492  1.2514
 3678TIP3   OH232592   0.982   6.546   3.023 -0.5276  0.0674  0.3557
 3678TIP3    H132593   0.910   6.505   3.071  0.5994 -1.3018  0.9475
 3678TIP3    H232594   1.041   6.473   3.003 -0.0083  0.9317 -1.3944
 3679TIP3   OH232595   5.848   2.257   7.766 -0.3104  0.0624  0.0614
 3679TIP3    H132596   5.919   2.292   7.713  1.0471 -0.8471  1.1866
 3679TIP3    H232597   5.794   2.207   7.705  0.5025  0.0749 -0.6779
 3680TIP3   OH232598   3.985   0.267   7.640  0.4281 -0.2189  0.3905
 3680TIP3    H132599   4.060   0.221   7.602  0.4350  1.4244 -1.8052
 3680TIP3    H232600   3.943   0.309   7.566 -0.9392  1.3486  1.9637
 3681TIP3   OH232601   5.643   0.466   0.886 -0.9065 -0.3613 -0.8039
 3681TIP3    H132602   5.650   0.554   0.922 -1.4714 -1.2930  1.8656
 3681TIP3    H232603   5.732   0.432   0.888 -0.9533 -0.4645 -0.0001
 3682TIP3   OH232604   2.065   2.507   7.471 -0.1588 -0.0771 -0.2237
 3682TIP3    H132605   2.126   2.463   7.412 -1.0985 -0.3054 -1.0552
 3682TIP3    H232606   1.979   2.479   7.441 -0.8233  2.4801 -0.9442
 3683TIP3   OH232607   3.407   0.861   8.177  0.1178  0.0307  0.0288
 3683TIP3    H132608   3.370   0.899   8.098  1.4737  4.0606  1.1043
 3683TIP3    H232609   3.331   0.842   8.232 -0.7061 -0.4096 -1.2229
 3684TIP3   OH232610   5.973   5.427   7.981  0.1100  0.0781  0.5039
 3684TIP3    H132611   5.975   5.503   8.039  3.5861 -0.0905  0.7853
 3684TIP3    H232612   5.996   5.461   7.895  1.3258 -0.5670  0.5569
 3685TIP3   OH232613   6.745   4.613   8.167 -0.4793  0.1747  0.1507
 3685TIP3    H132614   6.762   4.693   8.118 -3.9972  0.1187 -1.4801
 3685TIP3    H232615   6.763   4.635   8.258 -2.1377  3.1551 -0.1384
 3686TIP3   OH232616   1.104   1.966   0.217 -0.0453  0.1638  0.0530
 3686TIP3    H132617   1.019   1.924   0.227 -0.1407  0.3260 -0.0624
 3686TIP3    H232618   1.084   2.060   0.213  0.1794  0.2313  0.4842
 3687TIP3   OH232619   2.204   4.543   7.471  0.5568  0.1252 -0.4033
 3687TIP3    H132620   2.142   4.476   7.442  2.4258 -1.2460 -1.4867
 3687TIP3    H232621   2.284   4.525   7.421  1.4332  2.6418 -0.0715
 3688TIP3   OH232622   5.801   2.573   8.409  0.1606  0.6663 -0.5986
 3688TIP3    H132623   5.872   2.555   8.470  0.3447 -0.0641 -1.0136
 3688TIP3    H232624   5.845   2.597   8.327 -0.0460 -0.6109 -1.1002
 3689TIP3   OH232625   4.972   6.111   8.633  0.7179 -0.1248 -0.2210
 3689TIP3    H132626   5.017   6.135   8.714 -0.9125 -1.8092  1.2597
 3689TIP3    H232627   4.962   6.194   8.587  2.2068  0.7977  0.9927
 3690TIP3   OH232628   2.184   5.441   2.652  0.5168  0.5763 -0.2657
 3690TIP3    H132629   2.156   5.525   2.614  1.8530  1.1928  0.0546
 3690TIP3    H232630   2.102   5.395   2.670 -0.2619  1.9153 -0.2072
 3691TIP3   OH232631   0.393   4.163   7.880  0.2656  1.1865 -0.0182
 3691TIP3    H132632   0.358   4.204   7.801  0.2064  2.0018  0.4205
 3691TIP3    H232633   0.483   4.141   7.859 -0.1971 -0.0676 -0.8425
 3692TIP3   OH232634   3.435   5.394   1.900  0.1689 -0.2305  0.2387
 3692TIP3    H132635   3.494   5.363   1.969 -0.3564  2.7868  2.2481
 3692TIP3    H232636   3.491   5.407   1.824  1.4081 -0.6088  1.0650
 3693TIP3   OH232637   4.341   0.356   1.899 -0.1349 -0.1220  0.3443
 3693TIP3    H132638   4.278   0.285   1.915 -1.9894  0.7413 -2.3430
 3693TIP3    H232639   4.287   0.430   1.873  1.9607  0.4909 -2.7906
 3694TIP3   OH232640   2.919   3.219   2.085 -0.0879 -0.0753 -0.6457
 3694TIP3    H132641   3.012   3.195   2.078 -0.1743 -0.0351 -2.3216
 3694TIP3    H232642   2.912   3.302   2.039 -1.1137 -0.5574 -1.3979
 3695TIP3   OH232643   0.240   0.210   1.428  0.3705 -0.2644 -0.5676
 3695TIP3    H132644   0.295   0.258   1.489  0.4630  0.7138 -1.3910
 3695TIP3    H232645   0.179   0.160   1.483  1.3609 -0.5113  0.3302
 3696TIP3   OH232646   5.953   5.300   7.670 -0.0564 -0.3672 -0.0486
 3696TIP3    H132647   5.937   5.307   7.576 -1.0842  1.7877  0.2415
 3696TIP3    H232648   5.872   5.264   7.706  0.4976 -1.6254 -0.0067
 3697TIP3   OH232649   1.229   5.301   8.610 -0.3412  0.1069  0.7600
 3697TIP3    H132650   1.303   5.335   8.561 -0.6454 -0.3218 -0.0141
 3697TIP3    H232651   1.247   5.324   8.701 -0.3737  2.0238  0.3116
 3698TIP3   OH232652   0.286   4.607   0.049  0.0041 -0.2170 -0.4160
 3698TIP3    H132653   0.234   4.569  -0.021  0.4529  0.5428 -1.1814
 3698TIP3    H232654   0.372   4.622   0.010  0.4902 -0.4576  0.5145
 3699TIP3   OH232655   0.627   3.826   0.830 -0.2082 -0.5877 -0.1989
 3699TIP3    H132656   0.559   3.798   0.769  0.0671 -3.9000  0.8019
 3699TIP3    H232657   0.644   3.749   0.885  2.1223  1.0809  1.6838
 3700TIP3   OH232658   3.677   0.703   2.458  0.8676  0.2178  0.4837
 3700TIP3    H132659   3.640   0.784   2.492 -0.4220  0.8066 -2.0340
 3700TIP3    H232660   3.610   0.637   2.475 -0.1322  0.6664 -1.3594
 3701TIP3   OH232661   4.351   2.295   0.607  1.1427  0.0840  0.3681
 3701TIP3    H132662   4.369   2.367   0.668  2.3149  0.8503 -0.8243
 3701TIP3    H232663   4.438   2.262   0.584  0.6481 -1.2334  0.3076
 3702TIP3   OH232664   0.104   4.855   0.420 -0.1937  0.3905  0.4095
 3702TIP3    H132665   0.155   4.799   0.362  0.3609  0.2161  1.0494
 3702TIP3    H232666   0.163   4.929   0.439 -0.5325  0.6642  0.3992
 3703TIP3   OH232667   1.582   5.553   7.669  0.3850  0.2194 -0.2611
 3703TIP3    H132668   1.591   5.528   7.761 -1.3246 -0.5326 -0.2569
 3703TIP3    H232669   1.630   5.486   7.620  2.8322  1.5924  0.1052
 3704TIP3   OH232670   1.758   0.312   2.290 -0.3605  0.1721 -0.4606
 3704TIP3    H132671   1.763   0.399   2.330  0.5523 -0.3921  0.7356
 3704TIP3    H232672   1.672   0.279   2.314 -0.5983  0.6347 -0.6733
 3705TIP3   OH232673   2.756   6.312   1.105 -0.2880 -0.2584  0.0259
 3705TIP3    H132674   2.674   6.274   1.138  0.0637 -1.2359 -0.1849
 3705TIP3    H232675   2.791   6.245   1.046 -0.2287  0.8776 -1.2917
 3706TIP3   OH232676   6.014   2.516   6.830  0.6334  0.2107 -0.0277
 3706TIP3    H132677   6.059   2.443   6.788 -1.2357 -1.3416  0.4885
 3706TIP3    H232678   6.078   2.553   6.890  2.5216  0.8151 -2.2914
 3707TIP3   OH232679   0.175   3.837   7.029  0.0284  0.0458  0.2343
 3707TIP3    H132680   0.184   3.841   7.125 -0.4022  1.5830  0.2347
 3707TIP3    H232681   0.262   3.815   6.997  0.8892  2.2692  0.8598
 3708TIP3   OH232682   4.758   5.539   0.533 -0.2776  0.2136 -0.5666
 3708TIP3    H132683   4.829   5.523   0.595 -1.1704  0.1387  0.4749
 3708TIP3    H232684   4.796   5.521   0.447  0.8671 -0.1207 -0.0074
 3709TIP3   OH232685   4.978   4.483   1.423  0.2237  0.4177 -0.1322
 3709TIP3    H132686   4.927   4.555   1.386  0.8654  1.4513  0.9461
 3709TIP3    H232687   5.031   4.524   1.491  1.9213 -0.7585 -0.6899
 3710TIP3   OH232688   0.500   0.027   0.328  0.2085  0.5485  0.2826
 3710TIP3    H132689   0.433   0.005   0.393  0.3338  1.5202  0.7425
 3710TIP3    H232690   0.491  -0.042   0.262 -0.7437  0.2381  0.7085
 3711TIP3   OH232691   1.597   6.474   2.889 -0.0848 -0.1267  0.5896
 3711TIP3    H132692   1.638   6.396   2.853  0.3324  0.5133 -0.3653
 3711TIP3    H232693   1.670   6.533   2.908 -0.4506  0.3805  0.4451
 3712TIP3   OH232694   6.479   1.784   1.338 -0.0857  0.3331 -0.1885
 3712TIP3    H132695   6.427   1.859   1.307 -1.2166 -0.0032  0.8069
 3712TIP3    H232696   6.497   1.804   1.430  0.5995 -0.0857 -0.2268
 3713TIP3   OH232697   6.551   0.451   8.019 -0.4638  0.3861 -0.1851
 3713TIP3    H132698   6.469   0.499   8.024 -0.2757  0.8378 -1.1900
 3713TIP3    H232699   6.618   0.519   8.010 -0.2326 -0.0287 -2.1126
 3714TIP3   OH232700   0.977   0.351   2.980 -0.5644 -0.2604 -0.2827
 3714TIP3    H132701   0.905   0.407   3.008 -0.4258 -1.2826  2.4795
 3714TIP3    H232702   1.008   0.390   2.899 -1.5662  2.6509  0.6115
 3715TIP3   OH232703   2.152   3.975   2.606 -0.1735 -0.0035  0.0893
 3715TIP3    H132704   2.215   4.044   2.626 -1.2587  0.6398  1.3981
 3715TIP3    H232705   2.146   3.924   2.686 -1.8448  0.3881  0.2501
 3716TIP3   OH232706   3.837   4.009   7.951 -0.5306  0.2310  0.1385
 3716TIP3    H132707   3.851   4.089   7.900  0.7760  0.6006  1.0105
 3716TIP3    H232708   3.749   3.980   7.927 -0.1512  0.6313 -1.9471
 3717TIP3   OH232709   1.210   1.141   8.266 -0.2164 -0.2209 -0.1846
 3717TIP3    H132710   1.284   1.148   8.205  0.1716  1.6219  0.4221
 3717TIP3    H232711   1.138   1.188   8.223 -0.6813 -0.9897 -0.2598
 3718TIP3   OH232712   0.473   5.846   7.911  0.4728 -0.2636 -0.2356
 3718TIP3    H132713   0.436   5.812   7.993 -1.0270 -1.4379 -1.3501
 3718TIP3    H232714   0.510   5.769   7.868  0.5480  0.2091 -1.0231
 3719TIP3   OH232715   3.732   3.164   1.196  0.7036 -0.2367 -0.0722
 3719TIP3    H132716   3.657   3.184   1.252  1.6133 -1.9580  1.8583
 3719TIP3    H232717   3.702   3.185   1.107 -1.1588  1.5250  0.9058
 3720TIP3   OH232718   6.061   4.454   0.097  0.4278 -0.3239 -0.2623
 3720TIP3    H132719   6.012   4.380   0.131  0.1472  0.7101  1.7420
 3720TIP3    H232720   6.153   4.433   0.114  0.4098 -0.5548 -0.4462
 3721TIP3   OH232721   4.071   6.467   0.445 -0.3492  0.0643  0.0753
 3721TIP3    H132722   4.015   6.415   0.387 -1.6891 -1.1395  2.3284
 3721TIP3    H232723   4.152   6.416   0.452 -1.1974 -1.1904  1.3034
 3722TIP3   OH232724   4.912   4.386   6.939  0.0364 -0.0705 -0.0604
 3722TIP3    H132725   4.953   4.334   7.008 -1.3341 -1.3799 -0.1704
 3722TIP3    H232726   4.843   4.435   6.984 -1.3071 -1.4393 -0.5480
 3723TIP3   OH232727   0.895   3.642   8.429  0.5135  0.3743  0.1619
 3723TIP3    H132728   0.861   3.699   8.499 -1.3328 -1.3003  0.7314
 3723TIP3    H232729   0.907   3.557   8.471 -0.0849 -0.5264 -1.3982
 3724TIP3   OH232730   2.235   6.170   8.877  0.2341 -0.7078 -0.2061
 3724TIP3    H132731   2.275   6.255   8.860 -0.7502 -0.6676 -2.8676
 3724TIP3    H232732   2.266   6.145   8.964  1.3434  1.8914  0.2260
 3725TIP3   OH232733   6.446   1.394   2.429  0.8364 -0.4290  0.0585
 3725TIP3    H132734   6.361   1.416   2.466  1.3080  0.8650  0.3976
 3725TIP3    H232735   6.504   1.386   2.504  1.3040  0.0016 -0.2504
 3726TIP3   OH232736   1.222   6.295   7.895 -0.1074 -1.2697 -0.1038
 3726TIP3    H132737   1.234   6.340   7.979  1.0277 -0.6768 -0.5580
 3726TIP3    H232738   1.308   6.256   7.877 -0.4890 -1.8210 -0.7506
 3727TIP3   OH232739   3.803   3.236   1.966  0.4845  0.2148  0.9157
 3727TIP3    H132740   3.854   3.272   2.038  2.6359 -0.2033 -0.3310
 3727TIP3    H232741   3.840   3.149   1.951 -1.6839 -0.7849  0.9818
 3728TIP3   OH232742   4.877   4.264   8.027 -0.3445  0.5236  0.7253
 3728TIP3    H132743   4.812   4.254   7.957 -0.4461  3.6725  0.2319
 3728TIP3    H232744   4.825   4.287   8.104  0.0186  0.4319  0.9988
 3729TIP3   OH232745   2.358   6.235   1.156  0.1431  0.2022 -0.2952
 3729TIP3    H132746   2.411   6.161   1.187 -1.8543 -1.5946 -0.8621
 3729TIP3    H232747   2.408   6.272   1.084  1.0617 -0.8205 -0.2102
 3730TIP3   OH232748   6.251   1.933   6.967  1.0474  0.3614  0.0875
 3730TIP3    H132749   6.300   1.931   6.885  2.0675 -0.4972  0.6971
 3730TIP3    H232750   6.161   1.916   6.941  1.5021 -0.8897 -0.7637
 3731TIP3   OH232751   2.565   0.339   1.081 -1.3647 -0.3196  0.0252
 3731TIP3    H132752   2.540   0.431   1.090 -0.6587  0.0601 -1.5466
 3731TIP3    H232753   2.482   0.292   1.073 -1.7164  0.4116 -0.8396
 3732TIP3   OH232754   4.649   2.262   0.531 -0.0997 -0.0892  0.3455
 3732TIP3    H132755   4.623   2.320   0.603  1.1478  0.2639  0.5408
 3732TIP3    H232756   4.723   2.307   0.490  0.5982 -1.3314  0.2069
 3733TIP3   OH232757   4.274   1.628   2.340  0.3988  0.0693  0.3206
 3733TIP3    H132758   4.223   1.671   2.409 -0.1265  1.6046 -0.9504
 3733TIP3    H232759   4.257   1.534   2.352 -2.4304  0.4871  0.2467
 3734TIP3   OH232760   3.627   5.142   8.911  0.8185 -0.4984  0.1186
 3734TIP3    H132761   3.566   5.075   8.943  0.8803 -1.2283 -1.2220
 3734TIP3    H232762   3.571   5.210   8.874  0.7774 -0.2433  0.6463
 3735TIP3   OH232763   2.130   4.002   0.961  0.0779 -0.2633  0.1815
 3735TIP3    H132764   2.217   3.966   0.977  0.5153  0.3481 -0.7416
 3735TIP3    H232765   2.077   3.970   1.034  0.9917 -0.9164  0.5739
 3736TIP3   OH232766   4.178   2.424   8.872  0.2673 -0.6862 -0.7516
 3736TIP3    H132767   4.131   2.344   8.850 -0.4652 -0.6243  0.4724
 3736TIP3    H232768   4.174   2.478   8.793 -0.9628 -1.0443 -0.9570
 3737TIP3   OH232769   4.782   2.685   8.232 -0.6085  0.5466 -0.0457
 3737TIP3    H132770   4.856   2.699   8.173 -0.1381 -0.8354  0.1705
 3737TIP3    H232771   4.798   2.745   8.305 -0.2937  1.0535 -0.5255
 3738TIP3   OH232772   0.975   6.710   7.416  0.3639 -0.4372 -0.0232
 3738TIP3    H132773   0.950   6.681   7.328 -0.3284  1.4565 -0.4900
 3738TIP3    H232774   0.985   6.629   7.466  0.1212 -1.5233 -1.6634
 3739TIP3   OH232775   0.586   4.714   0.299 -0.3902  0.6875 -0.1635
 3739TIP3    H132776   0.633   4.719   0.216 -1.1586 -0.0981 -0.6755
 3739TIP3    H232777   0.649   4.680   0.361  0.3255  1.7107 -0.3074
 3740TIP3   OH232778   2.561   4.180   2.065  0.0993 -0.0533  0.0096
 3740TIP3    H132779   2.614   4.251   2.101 -1.2785  0.0376  1.9678
 3740TIP3    H232780   2.590   4.173   1.973  2.5942  0.7879  0.6493
 3741TIP3   OH232781   2.639   2.578   0.050 -0.4227 -0.0040  0.0003
 3741TIP3    H132782   2.727   2.594   0.084 -0.6576 -1.1104  1.2127
 3741TIP3    H232783   2.602   2.514   0.110 -1.5034 -0.7275 -1.3792
 3742TIP3   OH232784   2.461   5.705   7.346 -0.6717 -0.1339  0.5626
 3742TIP3    H132785   2.531   5.750   7.299 -1.0274 -0.4678 -0.2982
 3742TIP3    H232786   2.506   5.664   7.421 -0.2076  0.9082  0.8770
 3743TIP3   OH232787   5.728   1.106   1.416 -0.0037 -0.7719  0.4361
 3743TIP3    H132788   5.673   1.136   1.343 -2.5977 -2.0126  1.7410
 3743TIP3    H232789   5.780   1.034   1.378  1.6976  1.1447 -1.1038
 3744TIP3   OH232790   6.649   5.496   0.626  0.6088 -0.1146 -0.0840
 3744TIP3    H132791   6.562   5.515   0.661  0.5139  2.3729 -1.4314
 3744TIP3    H232792   6.634   5.476   0.534  1.4298  0.2165 -0.3042
 3745TIP3   OH232793   6.342   5.176   0.764  1.1224 -0.0925  0.1387
 3745TIP3    H132794   6.389   5.141   0.839 -0.5337 -1.1059  0.7699
 3745TIP3    H232795   6.336   5.270   0.780 -0.4268 -0.4513  2.0505
 3746TIP3   OH232796   2.973   0.765   7.721  0.1611 -0.0522 -0.0423
 3746TIP3    H132797   2.905   0.756   7.655  1.4687 -0.6355 -1.3567
 3746TIP3    H232798   3.009   0.852   7.707  0.3043 -0.0950  0.0563
 3747TIP3   OH232799   2.372   5.975   2.150 -0.0846  1.0839  0.0564
 3747TIP3    H132800   2.307   6.036   2.115 -0.3372  0.6711 -0.1936
 3747TIP3    H232801   2.453   6.026   2.153 -0.1876  1.2936 -0.5855
 3748TIP3   OH232802   5.764   5.545   8.623 -0.2063  0.3140 -0.2880
 3748TIP3    H132803   5.708   5.622   8.606  0.9976  1.2940  0.0582
 3748TIP3    H232804   5.816   5.536   8.544  0.1003  0.2428 -0.0778
 3749TIP3   OH232805   0.292   2.376   8.187 -0.3502 -0.1120  0.0875
 3749TIP3    H132806   0.227   2.321   8.231 -1.3210  0.9232 -0.0061
 3749TIP3    H232807   0.341   2.417   8.258 -0.0383 -0.5978  0.1606
 3750TIP3   OH232808   3.054   6.304   7.897 -0.0309  0.7410 -0.2500
 3750TIP3    H132809   3.010   6.384   7.924 -0.1002  0.1068  1.6914
 3750TIP3    H232810   3.131   6.298   7.953  0.6404  0.0581 -1.2050
 3751TIP3   OH232811   6.611   3.052   1.323  0.3443  0.2459 -0.1274
 3751TIP3    H132812   6.681   3.005   1.277  1.2345  1.2252  0.1703
 3751TIP3    H232813   6.539   2.989   1.329  0.8346 -0.4647 -1.3265
 3752TIP3   OH232814   1.903   2.455   0.960 -0.1778  0.0565 -0.0408
 3752TIP3    H132815   1.930   2.445   0.869  1.4880  1.4345  0.2596
 3752TIP3    H232816   1.848   2.378   0.977  0.8928 -1.1425 -1.6914
 3753TIP3   OH232817   1.601   3.191   7.953 -0.6182  0.2550  0.3585
 3753TIP3    H132818   1.590   3.096   7.962  0.0369  0.2163  0.8485
 3753TIP3    H232819   1.634   3.203   7.864  0.7905 -0.1312  0.8066
 3754TIP3   OH232820   5.769   4.362   2.214  0.1997  0.3465  0.4052
 3754TIP3    H132821   5.819   4.442   2.229 -0.0954  0.7972 -0.8477
 3754TIP3    H232822   5.687   4.375   2.263 -0.2308  1.2270 -0.5151
 3755TIP3   OH232823   3.953   5.000   8.311  0.4097  0.0249 -0.0185
 3755TIP3    H132824   4.030   5.001   8.368 -0.1488 -0.3499  0.7691
 3755TIP3    H232825   3.988   5.012   8.223  1.3735 -0.2125  0.3186
 3756TIP3   OH232826   6.017   1.512   8.766  0.3688  0.7210 -0.6033
 3756TIP3    H132827   5.982   1.444   8.709  0.4697  0.4663 -0.3658
 3756TIP3    H232828   6.108   1.487   8.780 -0.1534 -0.3325  1.2770
 3757TIP3   OH232829   1.880   3.164   8.115  0.0770 -0.0544 -0.0814
 3757TIP3    H132830   1.861   3.073   8.092  1.2959  0.1687 -2.3251
 3757TIP3    H232831   1.796   3.200   8.144 -1.5607 -0.7550 -3.4681
 3758TIP3   OH232832   2.290   0.276   8.408  0.3679 -0.5135 -0.9098
 3758TIP3    H132833   2.343   0.212   8.454 -1.3628 -2.1795 -1.1384
 3758TIP3    H232834   2.202   0.240   8.408 -0.5597  1.5747 -1.6101
 3759TIP3   OH232835   3.533   0.514   8.870  0.2400 -0.3090  0.2847
 3759TIP3    H132836   3.451   0.492   8.824 -1.1929 -0.0177  2.5545
 3759TIP3    H232837   3.559   0.432   8.911  0.0693  0.0205  1.0605
 3760TIP3   OH232838   5.403   1.079   2.545 -0.2657  0.6643 -0.2394
 3760TIP3    H132839   5.453   1.057   2.624 -1.9496 -2.4268  0.1386
 3760TIP3    H232840   5.325   1.125   2.578 -0.1023  0.9931 -0.3069
 3761TIP3   OH232841   1.621   3.054   0.543  0.1247  0.5308 -0.0202
 3761TIP3    H132842   1.575   3.119   0.491  1.3728  0.6309 -1.0548
 3761TIP3    H232843   1.621   3.089   0.632 -1.1686  0.8365 -0.1274
 3762TIP3   OH232844   0.851   2.367   7.097 -0.5621  0.1596 -0.6294
 3762TIP3    H132845   0.861   2.298   7.032  0.3160  1.0186 -1.4369
 3762TIP3    H232846   0.824   2.444   7.047  0.4638  0.9278 -0.0508
 3763TIP3   OH232847   4.532   1.281   0.229  0.4547  0.3819  0.1287
 3763TIP3    H132848   4.499   1.360   0.272 -0.5468  0.3911 -0.5950
 3763TIP3    H232849   4.624   1.276   0.252  0.5159  1.7458  0.2195
 3764TIP3   OH232850   4.338   5.729   0.817  0.7217  0.4073 -0.9998
 3764TIP3    H132851   4.372   5.760   0.901 -1.9180 -1.1241  0.7561
 3764TIP3    H232852   4.393   5.654   0.796 -1.0364 -1.8137  1.6119
 3765TIP3   OH232853   3.402   1.117   0.595 -0.3235 -0.6358  0.0212
 3765TIP3    H132854   3.405   1.200   0.547 -2.3013 -0.8587 -0.5653
 3765TIP3    H232855   3.493   1.089   0.599  0.2212  0.8413 -1.0458
 3766TIP3   OH232856   4.610   3.975   7.845 -0.8846 -0.2425 -0.3330
 3766TIP3    H132857   4.676   3.907   7.830 -0.4864  0.3506 -1.3713
 3766TIP3    H232858   4.540   3.930   7.892 -0.3189 -1.2026 -0.3753
 3767TIP3   OH232859   5.849   3.270   0.702  0.1621  0.1493 -0.2107
 3767TIP3    H132860   5.928   3.227   0.735  0.6273  0.8418 -0.4092
 3767TIP3    H232861   5.780   3.244   0.763  0.7072  0.1924  0.4347
 3768TIP3   OH232862   1.661   2.123   1.730  0.0604  0.1405  0.1140
 3768TIP3    H132863   1.636   2.125   1.638 -0.3161  0.0577  0.2118
 3768TIP3    H232864   1.708   2.040   1.741 -2.3771 -1.2867  0.6089
 3769TIP3   OH232865   5.160   1.092   1.904 -0.3984 -0.5135  0.3077
 3769TIP3    H132866   5.226   1.024   1.922 -0.0068 -0.1263  0.3447
 3769TIP3    H232867   5.095   1.048   1.849  0.5000 -0.5817 -0.7456
 3770TIP3   OH232868   4.197   3.221   7.122 -0.5436  0.0444  0.0697
 3770TIP3    H132869   4.143   3.300   7.124 -0.0795  0.3953 -0.6294
 3770TIP3    H232870   4.284   3.251   7.151 -0.3317 -0.1690 -0.3242
 3771TIP3   OH232871   2.832   1.947   0.107 -0.2455 -0.4548  0.4553
 3771TIP3    H132872   2.853   1.915   0.019 -1.5833  0.9036 -0.4123
 3771TIP3    H232873   2.893   1.901   0.164  0.7407 -1.3028 -1.1882
 3772TIP3   OH232874   1.621   4.973   0.143  0.0811  0.6463  0.4037
 3772TIP3    H132875   1.536   5.014   0.160 -0.1806  0.6039 -0.7187
 3772TIP3    H232876   1.665   4.973   0.227 -1.2064  0.2816  1.1125
 3773TIP3   OH232877   6.117   0.443   1.588 -0.4185 -0.0487  0.0764
 3773TIP3    H132878   6.039   0.480   1.548  0.4518 -0.6683 -2.4192
 3773TIP3    H232879   6.142   0.505   1.656 -0.4145  2.7186 -2.2589
 3774TIP3   OH232880   1.043   0.813   6.961 -0.3688 -0.6838  0.2474
 3774TIP3    H132881   1.121   0.773   6.998 -0.0690 -0.2670  0.0856
 3774TIP3    H232882   0.971   0.782   7.016  0.0833  0.0753  1.3127
 3775TIP3   OH232883   5.555   6.054   0.416  0.3411  0.2240 -0.4133
 3775TIP3    H132884   5.572   6.000   0.339 -0.4997 -0.2394 -0.2896
 3775TIP3    H232885   5.467   6.089   0.401 -0.0728 -0.3473  0.6097
 3776TIP3   OH232886   6.348   1.783   2.932 -0.1098  0.3205  0.1919
 3776TIP3    H132887   6.385   1.863   2.895 -2.2564  1.7613  0.9442
 3776TIP3    H232888   6.305   1.740   2.858  1.6856 -0.5704 -0.3685
 3777TIP3   OH232889   1.812   4.316   0.059  0.2797  0.2677 -0.5767
 3777TIP3    H132890   1.836   4.366   0.137  0.4517 -0.0641 -0.4147
 3777TIP3    H232891   1.731   4.272   0.082  1.5187 -1.7257  0.2938
 3778TIP3   OH232892   0.283   2.760   2.883  0.8071 -0.6279 -0.0411
 3778TIP3    H132893   0.210   2.750   2.944  1.1000 -0.2044  0.3947
 3778TIP3    H232894   0.344   2.691   2.907  0.7315 -0.7257 -0.1325
 3779TIP3   OH232895   0.678   3.184   1.810  0.2800  0.1088  0.2811
 3779TIP3    H132896   0.751   3.170   1.871  1.2226 -0.9292 -1.0388
 3779TIP3    H232897   0.614   3.118   1.835  1.2944 -1.3343 -0.7315
 3780TIP3   OH232898   3.504   1.763   8.749  0.3995  0.0320  0.6511
 3780TIP3    H132899   3.559   1.797   8.679  1.7225 -0.4199  1.4467
 3780TIP3    H232900   3.564   1.718   8.808 -0.6272  0.6953  2.2700
 3781TIP3   OH232901   1.516   1.207   7.195  0.2184  0.3237  0.2906
 3781TIP3    H132902   1.564   1.177   7.118  0.2594 -1.1593  0.8695
 3781TIP3    H232903   1.582   1.246   7.252  0.3356  0.5730 -0.0199
 3782TIP3   OH232904   0.742   2.035   8.039 -0.0002  0.2799  0.4592
 3782TIP3    H132905   0.712   2.048   7.949  0.6353  0.0857  0.2178
 3782TIP3    H232906   0.707   1.949   8.064  0.1464  0.1654  0.2677
 3783TIP3   OH232907   3.805   4.680   8.169  0.4622  0.5555 -0.1819
 3783TIP3    H132908   3.797   4.635   8.254  0.2323  0.0629 -0.4621
 3783TIP3    H232909   3.891   4.722   8.173  0.9343 -0.3854 -0.1393
 3784TIP3   OH232910   5.213   6.741   7.265  0.8335 -0.1218  0.0168
 3784TIP3    H132911   5.187   6.826   7.300  2.9601  0.9417 -0.7900
 3784TIP3    H232912   5.308   6.740   7.274  1.2307 -0.9635 -3.0001
 3785TIP3   OH232913   4.265   3.725   2.878  0.0352  0.4439 -0.2821
 3785TIP3    H132914   4.201   3.775   2.929 -0.2289  0.5841 -0.7370
 3785TIP3    H232915   4.336   3.788   2.861  0.1018  0.4105 -0.1260
 3786TIP3   OH232916   5.543   3.951   7.927 -0.0075  0.0748 -0.2175
 3786TIP3    H132917   5.511   4.028   7.880 -0.3007 -0.0198 -0.1723
 3786TIP3    H232918   5.564   3.887   7.858 -1.0935 -0.3218 -0.2024
 3787TIP3   OH232919   0.335   5.246   0.573  0.0999 -0.2393  0.4899
 3787TIP3    H132920   0.255   5.284   0.538  0.0972 -0.8942 -0.2455
 3787TIP3    H232921   0.317   5.231   0.666 -0.6166 -0.3350  0.3382
 3788TIP3   OH232922   2.007   3.511   1.598 -0.2962  0.2854 -0.2108
 3788TIP3    H132923   1.963   3.428   1.581  0.2542  0.4173 -2.8006
 3788TIP3    H232924   1.935   3.575   1.602 -0.6611 -0.1773  1.0085
 3789TIP3   OH232925   5.169   5.345   8.358  0.6998  0.2991 -0.1018
 3789TIP3    H132926   5.257   5.382   8.362  0.7282  0.2955 -0.6467
 3789TIP3    H232927   5.127   5.390   8.284  0.6144 -0.4918 -0.5457
 3790TIP3   OH232928   5.799   4.005   8.034 -0.7713 -0.4325  0.3027
 3790TIP3    H132929   5.712   4.015   7.994 -1.0068  0.4918  0.9989
 3790TIP3    H232930   5.800   3.915   8.068 -1.2043 -0.6636 -0.2937
 3791TIP3   OH232931   0.574   1.279   8.304  0.1360  0.6025 -0.4337
 3791TIP3    H132932   0.529   1.194   8.302 -0.3792  0.8332  0.8405
 3791TIP3    H232933   0.511   1.339   8.342  0.4096  1.6487 -1.5574
 3792TIP3   OH232934   1.006   3.020   8.259  0.3569 -0.0093 -0.5910
 3792TIP3    H132935   1.011   3.020   8.164 -2.1373  0.6922 -0.7915
 3792TIP3    H232936   0.974   2.932   8.282 -0.0271  0.1559 -0.4863
 3793TIP3   OH232937   3.481   0.747   0.812 -0.2006  0.0038 -0.4342
 3793TIP3    H132938   3.414   0.742   0.744 -1.8163 -1.7906  1.1623
 3793TIP3    H232939   3.557   0.704   0.774 -0.5486  0.3874 -1.6146
 3794TIP3   OH232940   6.431   3.080   7.318 -0.1256  0.4549 -0.1455
 3794TIP3    H132941   6.337   3.101   7.323 -0.2985  0.9174 -3.4659
 3794TIP3    H232942   6.436   2.988   7.344 -0.9204  1.2686  3.4548
 3795TIP3   OH232943   4.881   5.515   8.352  0.9377 -0.3708 -0.2906
 3795TIP3    H132944   4.862   5.542   8.262  1.0538  0.7108 -0.0081
 3795TIP3    H232945   4.933   5.587   8.388 -0.1236 -0.2238  1.0207
 3796TIP3   OH232946   4.896   2.629   1.296  0.5807  0.0732 -0.1833
 3796TIP3    H132947   4.934   2.610   1.382 -1.0989  3.0125  1.3791
 3796TIP3    H232948   4.810   2.587   1.299 -0.1043  1.4610  0.2505
 3797TIP3   OH232949   6.023   2.710   0.703 -0.1227 -0.2018  0.1951
 3797TIP3    H132950   5.935   2.744   0.690  0.0470  0.1033 -0.1797
 3797TIP3    H232951   6.039   2.655   0.626  0.2881  0.3320 -0.1097
 3798TIP3   OH232952   5.176   4.323   7.409  0.7031 -0.2456  0.3885
 3798TIP3    H132953   5.145   4.357   7.493 -2.5488 -0.4668 -0.5810
 3798TIP3    H232954   5.244   4.384   7.383 -0.0250  1.3681  1.9931
 3799TIP3   OH232955   0.680   1.526   7.409  0.1217  0.0358 -0.0165
 3799TIP3    H132956   0.693   1.465   7.337  3.2411  1.5803 -0.9686
 3799TIP3    H232957   0.713   1.480   7.486 -0.1470 -0.4384 -0.1788
 3800TIP3   OH232958   1.852   4.023   8.786 -0.2197  0.5952 -0.1257
 3800TIP3    H132959   1.879   4.113   8.807 -1.1428  0.7646  0.4182
 3800TIP3    H232960   1.759   4.031   8.761 -0.3377 -0.2150  0.0204
 3801TIP3   OH232961   4.232   3.498   8.424 -0.6373  0.4213 -0.0242
 3801TIP3    H132962   4.302   3.434   8.427 -1.0336 -0.2191 -2.4963
 3801TIP3    H232963   4.222   3.527   8.515  0.6411 -1.7981  0.8964
 3802TIP3   OH232964   1.553   5.400   1.945 -0.3224  0.6199  0.6994
 3802TIP3    H132965   1.532   5.308   1.955  0.1635  0.3575 -0.4906
 3802TIP3    H232966   1.542   5.417   1.851 -2.4326  2.2898  1.1775
 3803TIP3   OH232967   3.847   0.660   7.770 -0.1741 -0.0644 -0.2216
 3803TIP3    H132968   3.785   0.589   7.782 -1.1027  0.4724 -1.5512
 3803TIP3    H232969   3.889   0.641   7.686  0.1664  0.5142 -0.1883
 3804TIP3   OH232970   5.955   1.136   7.979  0.4056 -0.6684 -0.0313
 3804TIP3    H132971   5.968   1.206   7.914  1.4026 -0.8504 -0.0526
 3804TIP3    H232972   5.877   1.089   7.949 -0.5418  0.6884  0.2235
 3805TIP3   OH232973   1.954   0.457   8.399 -0.3788 -0.0579  0.3375
 3805TIP3    H132974   1.998   0.418   8.474 -0.3274 -1.5871 -0.4452
 3805TIP3    H232975   2.022   0.459   8.330 -0.4542  1.2108  0.2780
 3806TIP3   OH232976   1.403   1.498   1.584  0.3924 -0.0773  0.0614
 3806TIP3    H132977   1.460   1.452   1.523  0.7953 -0.3965  0.6673
 3806TIP3    H232978   1.406   1.446   1.664 -1.7554 -0.8099 -0.2582
 3807TIP3   OH232979   3.688   3.915   1.298  0.3271  0.1344 -0.2524
 3807TIP3    H132980   3.663   3.845   1.359 -0.5619 -0.4711 -1.2608
 3807TIP3    H232981   3.745   3.972   1.348 -1.3866  0.3615  1.5403
 3808TIP3   OH232982   0.575   3.847   8.153  0.2243 -0.1538  0.3957
 3808TIP3    H132983   0.578   3.942   8.153  0.2927 -0.1357 -0.6925
 3808TIP3    H232984   0.660   3.820   8.189  0.5532  0.2156 -0.0727
 3809TIP3   OH232985   5.243   4.343   0.315  0.7836 -0.2255 -0.0280
 3809TIP3    H132986   5.308   4.362   0.247 -0.1013  0.0766 -0.8072
 3809TIP3    H232987   5.287   4.366   0.397  1.4175  0.6376 -0.5888
 3810TIP3   OH232988   4.753   3.792   8.067 -0.1778  0.1214  0.3543
 3810TIP3    H132989   4.845   3.818   8.063 -0.5741  1.5953 -0.0077
 3810TIP3    H232990   4.754   3.700   8.091  1.3983  0.0631  0.1311
 3811TIP3   OH232991   4.216   4.137   1.161 -0.2749  0.4129  0.6184
 3811TIP3    H132992   4.150   4.200   1.189 -0.5665  0.4692 -0.1608
 3811TIP3    H232993   4.277   4.188   1.108  0.4446  0.3721  1.3769
 3812TIP3   OH232994   6.384   3.873   8.686 -0.2908 -0.3905  0.3908
 3812TIP3    H132995   6.391   3.901   8.595  0.7220 -1.6293  0.0536
 3812TIP3    H232996   6.375   3.777   8.681 -0.9838 -0.4032  1.5682
 3813TIP3   OH232997   5.950   2.990   8.637  0.4325  0.2804 -0.0342
 3813TIP3    H132998   5.938   2.899   8.666  1.5340  0.3524  0.7151
 3813TIP3    H232999   5.934   3.042   8.715 -1.1653  0.8371 -0.6857
 3814TIP3   OH233000   1.448   0.939   8.102 -0.4351 -0.0201 -0.5164
 3814TIP3    H133001   1.395   0.997   8.047  0.1162  0.2360 -0.7878
 3814TIP3    H233002   1.537   0.949   8.068 -0.4673 -1.7386 -1.1821
 3815TIP3   OH233003   5.754   4.996   0.579  0.2733 -0.3020 -0.2253
 3815TIP3    H133004   5.793   4.913   0.549  0.1765 -0.0665 -1.0293
 3815TIP3    H233005   5.790   5.062   0.520 -1.8626 -0.1613 -1.4715
 3816TIP3   OH233006   0.143   6.485   2.450  0.4263 -0.1202  0.5353
 3816TIP3    H133007   0.154   6.549   2.379 -1.7260  1.4809  1.5549
 3816TIP3    H233008   0.058   6.445   2.433  0.2005 -0.2140  1.8061
 3817TIP3   OH233009   3.337   4.564   7.970  0.0213 -0.9427 -0.1272
 3817TIP3    H133010   3.328   4.470   7.956  0.4471 -0.8813 -0.9049
 3817TIP3    H233011   3.431   4.578   7.981  0.0556 -0.5005 -0.9182
 3818TIP3   OH233012   6.030   3.478   0.649  0.1002 -0.6321 -0.4284
 3818TIP3    H133013   5.954   3.434   0.685  0.2008 -1.3049 -1.0299
 3818TIP3    H233014   6.004   3.570   0.643 -0.3864 -0.7318  0.0811
 3819TIP3   OH233015   3.766   0.703   0.574  0.0280  0.0432 -0.4861
 3819TIP3    H133016   3.755   0.731   0.665  0.9325 -2.1777  0.3770
 3819TIP3    H233017   3.680   0.672   0.548  0.1177 -0.8611  0.2207
 3820TIP3   OH233018   0.289   1.022   1.939 -0.0463 -0.2941 -0.3656
 3820TIP3    H133019   0.347   1.006   2.013 -0.5769 -0.7824 -0.0435
 3820TIP3    H233020   0.242   0.939   1.928 -2.4195  0.7881  0.9173
 3821TIP3   OH233021   2.987   3.375   7.234  0.1582  0.3625  0.2710
 3821TIP3    H133022   2.928   3.428   7.289  0.5117 -0.1222  1.1384
 3821TIP3    H233023   2.929   3.330   7.173 -0.2911  0.5674  0.5405
 3822TIP3   OH233024   3.195   3.547   1.002 -0.1902  0.7405  0.0747
 3822TIP3    H133025   3.195   3.535   1.097  0.2958  1.9519  0.2540
 3822TIP3    H233026   3.269   3.606   0.986  1.3445 -1.4399 -1.3527
 3823TIP3   OH233027   4.691   3.834   8.353  0.0499  0.4762  0.6617
 3823TIP3    H133028   4.690   3.835   8.258 -1.1502  1.6600  0.6648
 3823TIP3    H233029   4.756   3.767   8.375 -0.1151 -0.2716 -0.9718
 3824TIP3   OH233030   2.358   1.819   0.349  0.3547  0.6654 -0.0371
 3824TIP3    H133031   2.325   1.909   0.353 -0.2749  0.4639 -0.4807
 3824TIP3    H233032   2.439   1.825   0.299  0.2292  0.9708 -0.2050
 3825TIP3   OH233033   6.193   0.295   2.355 -0.1394  0.9500 -0.3307
 3825TIP3    H133034   6.130   0.360   2.322 -1.0086 -1.0494 -2.8753
 3825TIP3    H233035   6.279   0.331   2.333 -0.5952  1.3447 -1.5151
 3826TIP3   OH233036   5.684   6.771   7.782 -0.1631 -0.2101 -0.0365
 3826TIP3    H133037   5.679   6.711   7.856  0.8069 -0.2512  0.0070
 3826TIP3    H233038   5.676   6.715   7.705 -0.8885 -0.2001  0.0283
 3827TIP3   OH233039   5.817   5.453   1.830 -0.6176 -0.4929  0.6333
 3827TIP3    H133040   5.911   5.456   1.848 -0.3131  0.6956 -0.9421
 3827TIP3    H233041   5.805   5.375   1.776  0.0067  0.8489 -1.5973
 3828TIP3   OH233042   1.644   3.688   2.807 -0.3195  0.3648 -0.0703
 3828TIP3    H133043   1.712   3.628   2.837 -0.9743  0.5806  1.9826
 3828TIP3    H233044   1.682   3.775   2.819  0.0777  0.4393 -1.6525
 3829TIP3   OH233045   1.388   2.853   3.016 -0.7292  0.5483 -0.5650
 3829TIP3    H133046   1.311   2.911   3.008 -0.5149  0.9551  0.2945
 3829TIP3    H233047   1.463   2.911   3.002 -0.5529  0.2421 -0.9071
 3830TIP3   OH233048   5.628   3.384   7.536 -0.3634 -0.0492 -0.3303
 3830TIP3    H133049   5.705   3.430   7.502  1.1891 -1.5587  0.9494
 3830TIP3    H233050   5.662   3.331   7.608 -2.3112 -2.0010 -0.7350
 3831TIP3   OH233051   4.236   4.664   1.076 -0.0109 -1.0439  0.2414
 3831TIP3    H133052   4.185   4.692   1.000  1.7174 -1.7477 -1.2446
 3831TIP3    H233053   4.216   4.729   1.143 -0.1613  0.7067 -1.4019
 3832TIP3   OH233054   6.537   6.177   1.776  0.4916  0.1095  0.6381
 3832TIP3    H133055   6.468   6.121   1.812  1.4662 -0.6797  1.3323
 3832TIP3    H233056   6.586   6.120   1.718 -0.2673  1.0360 -0.9882
 3833TIP3   OH233057   3.554   5.181   7.725  0.1897  0.1037  0.5027
 3833TIP3    H133058   3.550   5.147   7.636  1.4477 -0.2986  0.5791
 3833TIP3    H233059   3.494   5.256   7.725 -2.7061 -2.0387  0.3175
 3834TIP3   OH233060   6.488   1.318   8.468  0.0501 -0.3948 -0.4051
 3834TIP3    H133061   6.447   1.279   8.546 -1.5446  0.6024 -0.6939
 3834TIP3    H233062   6.414   1.349   8.415  1.1462  2.6507 -0.3706
 3835TIP3   OH233063   4.842   4.879   0.250  0.1304  0.4767 -0.1701
 3835TIP3    H133064   4.796   4.853   0.171 -0.0024 -0.0725  0.0807
 3835TIP3    H233065   4.835   4.803   0.308 -0.1930  1.0458  0.5573
 3836TIP3   OH233066   5.027   2.738   7.537  0.6053 -0.1659  0.1975
 3836TIP3    H133067   5.031   2.832   7.524  0.0675 -0.0022  1.1352
 3836TIP3    H233068   5.006   2.702   7.451 -3.1292  0.8573  0.5185
 3837TIP3   OH233069   1.637   0.609   0.592  0.5142  0.2919 -0.1871
 3837TIP3    H133070   1.638   0.648   0.679 -1.0649  0.9002 -0.4152
 3837TIP3    H233071   1.621   0.516   0.608  2.6432 -0.0512  0.2635
 3838TIP3   OH233072   1.973   1.226   1.140  0.0228  0.6400  0.1128
 3838TIP3    H133073   1.888   1.216   1.098  0.4410  0.2061 -0.6534
 3838TIP3    H233074   1.962   1.302   1.197 -1.1790 -0.0332  0.8115
 3839TIP3   OH233075   3.735   0.692   8.773 -0.6339  0.1965 -0.2929
 3839TIP3    H133076   3.655   0.645   8.796 -0.1861 -0.5355 -0.2141
 3839TIP3    H233077   3.796   0.674   8.845  0.4050 -1.1979 -1.4654
 3840TIP3   OH233078   0.499   1.343   8.042 -0.2965  0.8953 -0.1833
 3840TIP3    H133079   0.481   1.316   8.133  0.1494  1.3816  0.0532
 3840TIP3    H233080   0.539   1.266   8.003 -1.1123  0.4485 -0.1721
 3841TIP3   OH233081   2.456   0.725   0.082 -0.5086 -1.0032 -0.1643
 3841TIP3    H133082   2.432   0.788   0.015  0.3685 -1.1667 -0.6551
 3841TIP3    H233083   2.374   0.706   0.128 -0.6407  1.1101  0.5535
 3842TIP3   OH233084   2.713   3.691   0.111 -0.2874 -0.2297  0.0300
 3842TIP3    H133085   2.695   3.597   0.108 -3.7194  0.3006 -0.2763
 3842TIP3    H233086   2.674   3.721   0.193 -0.6432  1.1398 -0.6015
 3843TIP3   OH233087   3.034   0.871   2.383 -0.4911 -0.1544 -0.0593
 3843TIP3    H133088   2.952   0.915   2.361 -0.3336 -0.3215 -1.0439
 3843TIP3    H233089   3.043   0.803   2.316  0.1222 -0.5748  0.4339
 3844TIP3   OH233090   1.943   6.486   2.396 -0.1376  0.0920  0.2655
 3844TIP3    H133091   2.003   6.495   2.470 -0.0811  1.4339  0.0892
 3844TIP3    H233092   1.970   6.556   2.336  1.0274 -2.1084 -1.9188
 3845TIP3   OH233093   5.636   3.274   8.789 -0.4436 -0.5489 -1.0946
 3845TIP3    H133094   5.601   3.235   8.709 -1.1663 -2.0915 -0.0958
 3845TIP3    H233095   5.711   3.219   8.812  0.5332  0.6336 -1.3487
 3846TIP3   OH233096   6.544   4.627   0.926 -0.2733 -0.3888 -0.3398
 3846TIP3    H133097   6.623   4.573   0.925  0.1815  0.0631  2.2841
 3846TIP3    H233098   6.515   4.631   0.835 -0.3933 -5.0839 -0.7253
 3847TIP3   OH233099   1.445   2.786   1.052  0.0849  0.0124 -0.1358
 3847TIP3    H133100   1.379   2.845   1.015  0.3125  0.5980  0.3870
 3847TIP3    H233101   1.528   2.815   1.015  0.2786  0.4225  0.5975
 3848TIP3   OH233102   0.428   5.978   0.962  0.1683  0.0616  0.7317
 3848TIP3    H133103   0.368   5.997   1.034  0.2768  0.2714  0.7701
 3848TIP3    H233104   0.432   6.060   0.912 -0.8882 -0.4721 -0.2506
 3849TIP3   OH233105   3.837   1.567   2.968  0.2291  0.2235 -0.4092
 3849TIP3    H133106   3.847   1.647   3.019 -0.1001  0.6376 -0.9808
 3849TIP3    H233107   3.767   1.519   3.012  1.2013 -0.3116  0.6179
 3850TIP3   OH233108   2.910   6.059   1.372 -0.0650 -0.3321 -0.1512
 3850TIP3    H133109   2.824   6.098   1.384  0.3931  0.5265  0.3678
 3850TIP3    H233110   2.892   5.966   1.354 -1.1168 -0.0331 -0.6923
 3851TIP3   OH233111   2.962   3.386   1.261  0.1710 -0.1096  0.1850
 3851TIP3    H133112   2.972   3.292   1.248  1.6393  0.0920 -0.4532
 3851TIP3    H233113   2.906   3.415   1.190  1.1739 -0.2733 -0.7062
 3852TIP3   OH233114   3.258   5.573   0.323 -0.1423  0.2513  0.4816
 3852TIP3    H133115   3.201   5.496   0.318  0.8438 -0.5318  0.9710
 3852TIP3    H233116   3.268   5.589   0.417  0.7837  0.1066  0.4178
 3853TIP3   OH233117   2.577   0.220   0.390  0.3308 -0.0568  0.2253
 3853TIP3    H133118   2.499   0.170   0.367  0.6142 -1.2258  1.6392
 3853TIP3    H233119   2.645   0.154   0.404  1.5244  0.9205 -0.7148
 3854TIP3   OH233120   3.975   6.599   2.573 -0.4063  0.1398 -0.2673
 3854TIP3    H133121   3.906   6.548   2.615  0.4859 -0.3050  0.7013
 3854TIP3    H233122   4.023   6.639   2.645  0.6180  0.0776 -0.8951
 3855TIP3   OH233123   4.805   1.297   1.970 -0.1250  0.0986 -0.3430
 3855TIP3    H133124   4.791   1.214   2.017  1.5420  0.9238  1.7517
 3855TIP3    H233125   4.895   1.292   1.938  0.6168  1.7619  1.3307
 3856TIP3   OH233126   4.058   5.672   0.732  0.3857 -0.0081 -0.1517
 3856TIP3    H133127   4.149   5.701   0.743  0.5408 -1.0850  1.8002
 3856TIP3    H233128   4.008   5.728   0.792 -0.5053  1.4327 -2.1047
 3857TIP3   OH233129   4.986   0.341   8.088  0.3002 -0.4721 -0.3234
 3857TIP3    H133130   4.927   0.415   8.075  0.8987  0.0290 -0.1982
 3857TIP3    H233131   5.018   0.319   8.001 -0.2085 -0.8663 -0.4168
 3858TIP3   OH233132   2.185   1.422   2.678 -0.0835 -0.2127  0.6476
 3858TIP3    H133133   2.140   1.495   2.635 -1.3552 -0.1183  2.0484
 3858TIP3    H233134   2.161   1.431   2.770  1.0590 -1.4740  1.0939
 3859TIP3   OH233135   0.233   1.598   1.090 -0.5812 -0.2857  0.1662
 3859TIP3    H133136   0.301   1.608   1.024 -1.6387  0.1286 -0.9083
 3859TIP3    H233137   0.247   1.670   1.151 -1.3307  1.0880 -1.2404
 3860TIP3   OH233138   0.713   0.716   0.775  0.4770  0.2082  0.5099
 3860TIP3    H133139   0.754   0.802   0.769  1.7754 -0.3826  0.6197
 3860TIP3    H233140   0.659   0.721   0.854 -1.5175  1.7302 -0.8556
 3861TIP3   OH233141   4.455   0.264   7.032 -0.5041 -0.1570 -0.0424
 3861TIP3    H133142   4.529   0.213   6.999  0.5121  1.1840  0.0937
 3861TIP3    H233143   4.485   0.355   7.029 -2.2133  0.4435 -0.1383
 3862TIP3   OH233144   3.917   3.143   0.719  0.6525  0.6309  0.0758
 3862TIP3    H133145   3.973   3.136   0.641  0.6781  0.4738  0.1064
 3862TIP3    H233146   3.978   3.147   0.792  0.6449  1.6079  0.0384
 3863TIP3   OH233147   4.100   2.731   7.928  0.0739 -0.5336  0.0179
 3863TIP3    H133148   4.077   2.653   7.979  0.3307 -0.9102 -0.4410
 3863TIP3    H233149   4.170   2.702   7.870  1.2995  0.4353  0.9630
 3864TIP3   OH233150   0.697   1.009   7.252 -0.1073 -0.5736  0.0194
 3864TIP3    H133151   0.643   0.931   7.267  2.7201 -2.5688  0.5273
 3864TIP3    H233152   0.714   1.008   7.158 -0.7008 -0.0948 -0.0982
 3865TIP3   OH233153   6.672   4.402   0.530  0.3550 -0.2076  0.0807
 3865TIP3    H133154   6.695   4.352   0.608  2.1213  1.4216  0.6835
 3865TIP3    H233155   6.751   4.451   0.509 -1.3892  2.7232 -0.1461
 3866TIP3   OH233156   4.763   3.116   0.795  0.4520 -0.3505  0.4683
 3866TIP3    H133157   4.692   3.132   0.858  2.2546  0.1622  2.5278
 3866TIP3    H233158   4.798   3.031   0.821  0.9831 -0.3069 -0.1038
 3867TIP3   OH233159   6.298   2.215   8.379  0.1874  0.0068 -0.3318
 3867TIP3    H133160   6.296   2.215   8.475  2.3142  0.5555 -0.2422
 3867TIP3    H233161   6.298   2.122   8.355 -0.1230 -0.1371  0.2070
 3868TIP3   OH233162   5.343   3.988   0.098  0.2341 -0.3019 -0.1992
 3868TIP3    H133163   5.373   4.039   0.023  0.9205  0.6110  0.6689
 3868TIP3    H233164   5.266   4.035   0.130 -0.1309 -0.7567 -0.3977
 3869TIP3   OH233165   3.728   0.006   8.662 -0.3372 -0.2488 -0.5593
 3869TIP3    H133166   3.801  -0.049   8.634 -0.3716  0.2425 -1.6739
 3869TIP3    H233167   3.684  -0.045   8.731  0.2854 -1.1100 -0.7849
 3870TIP3   OH233168   5.375   1.707   8.003 -0.3892  0.4828 -0.1884
 3870TIP3    H133169   5.418   1.658   8.074 -0.9161 -0.7910 -0.7123
 3870TIP3    H233170   5.366   1.643   7.932  2.9787  2.4618 -2.7089
 3871TIP3   OH233171   0.318   3.725   8.610  0.4049  0.3789 -0.6245
 3871TIP3    H133172   0.228   3.758   8.616  0.8347  1.7211 -1.1320
 3871TIP3    H233173   0.342   3.739   8.519  2.0711  2.7348  0.0738
 3872TIP3   OH233174   6.114   1.916   7.632  0.4796  0.2131  0.0126
 3872TIP3    H133175   6.028   1.924   7.591  0.5801 -1.1016 -0.5075
 3872TIP3    H233176   6.130   2.001   7.672 -0.7575  0.6941 -0.4817
 3873TIP3   OH233177   4.484   1.847   1.339  0.4352 -0.0383 -0.3858
 3873TIP3    H133178   4.561   1.862   1.394  1.2819 -2.0880 -0.8867
 3873TIP3    H233179   4.410   1.872   1.393  1.3939  1.0331  0.4868
 3874TIP3   OH233180   6.717   3.372   0.484 -0.2873 -0.0610 -0.4553
 3874TIP3    H133181   6.690   3.307   0.418 -4.5802  0.5616  0.4061
 3874TIP3    H233182   6.763   3.321   0.550 -0.7203 -1.6661 -1.3342
 3875TIP3   OH233183   1.022   1.984   7.547 -0.0709  0.2712  0.1120
 3875TIP3    H133184   1.039   1.911   7.487 -0.6966  0.9583 -0.9277
 3875TIP3    H233185   1.012   2.060   7.490 -0.8937  0.9064  1.0748
 3876TIP3   OH233186   1.921   3.702   1.288 -0.4746  0.2082  0.2020
 3876TIP3    H133187   1.971   3.770   1.244 -0.9293  0.2357 -0.2842
 3876TIP3    H233188   1.983   3.661   1.348 -0.8619  3.0184  2.8015
 3877TIP3   OH233189   0.748   2.152   7.738  0.2666 -0.2481 -0.3108
 3877TIP3    H133190   0.677   2.180   7.796  2.1057 -0.0487  1.9352
 3877TIP3    H233191   0.719   2.181   7.651 -1.5879  1.4137  0.7651
 3878TIP3   OH233192   1.666   4.875   1.289 -0.6947  0.4678  0.1407
 3878TIP3    H133193   1.584   4.828   1.274 -0.7629  0.6592 -0.1077
 3878TIP3    H233194   1.641   4.952   1.339 -0.5052 -0.0276  1.0197
 3879TIP3   OH233195   1.939   4.617   8.503  0.1202 -0.2164 -0.4864
 3879TIP3    H133196   2.005   4.676   8.466  0.5991 -0.6241 -0.2891
 3879TIP3    H233197   1.939   4.636   8.597 -0.7886  0.5125 -0.6137
 3880TIP3   OH233198   0.433   0.249   7.155 -0.1098 -0.2585 -0.1784
 3880TIP3    H133199   0.486   0.320   7.192  1.6734 -1.7659  0.2721
 3880TIP3    H233200   0.366   0.233   7.221  0.6070 -0.2300  0.5736
 3881TIP3   OH233201   2.722   6.289   7.888 -0.0990  0.3273 -0.4410
 3881TIP3    H133202   2.705   6.360   7.950  1.0375  1.3199 -1.2054
 3881TIP3    H233203   2.801   6.317   7.841  0.0044 -1.1546 -1.2136
 3882TIP3   OH233204   2.696   1.783   7.361  0.0762 -0.0225 -0.0054
 3882TIP3    H133205   2.637   1.825   7.298  1.4353 -0.5451 -1.7156
 3882TIP3    H233206   2.775   1.836   7.358 -0.0877  0.3845  1.8958
 3883TIP3   OH233207   4.641   2.789   2.213 -0.2122 -0.2348 -0.4731
 3883TIP3    H133208   4.693   2.837   2.149 -0.5402  1.1883  0.2764
 3883TIP3    H233209   4.611   2.711   2.166  0.5380  0.1682 -1.6658
 3884TIP3   OH233210   5.613   1.922   8.874 -0.1352  0.4179  0.0970
 3884TIP3    H133211   5.630   1.834   8.906  2.4376  0.1433 -1.7071
 3884TIP3    H233212   5.646   1.980   8.943  0.4399 -0.0750  0.2402
 3885TIP3   OH233213   3.567   1.958   1.152  0.4705  0.6408 -0.4100
 3885TIP3    H133214   3.627   2.021   1.112  1.6827 -1.2667 -1.8169
 3885TIP3    H233215   3.623   1.906   1.210 -0.2677  0.1556 -0.1165
 3886TIP3   OH233216   3.443   5.185   8.023 -0.1929 -0.4094  0.0190
 3886TIP3    H133217   3.488   5.222   7.946 -3.2502  0.1070 -1.6778
 3886TIP3    H233218   3.482   5.098   8.033  0.9279 -0.1471 -1.5393
 3887TIP3   OH233219   5.397   4.254   1.420  0.1102  0.3204 -0.2809
 3887TIP3    H133220   5.476   4.261   1.365 -0.3721  0.9563 -0.9150
 3887TIP3    H233221   5.330   4.222   1.360  0.1568 -1.4137  0.5446
 3888TIP3   OH233222   2.304   2.501   0.686 -0.2477 -0.5496  0.0443
 3888TIP3    H133223   2.284   2.548   0.605  0.7495 -1.6313 -0.8731
 3888TIP3    H233224   2.394   2.470   0.674  0.1067 -0.2732  1.8084
 3889TIP3   OH233225   1.825   1.938   0.819  0.0564 -0.3360 -0.1009
 3889TIP3    H133226   1.807   1.861   0.766 -0.0090 -0.2011 -0.2775
 3889TIP3    H233227   1.889   1.988   0.767  1.3668 -1.0728  0.7554
 3890TIP3   OH233228   6.516   6.509   6.883 -0.6632 -0.5853  0.0702
 3890TIP3    H133229   6.421   6.503   6.894 -0.8303  1.3250  0.0190
 3890TIP3    H233230   6.549   6.425   6.914 -2.3454 -1.1802  0.3514
 3891TIP3   OH233231   0.427   1.147   2.473  0.3448 -0.5745  0.1785
 3891TIP3    H133232   0.377   1.082   2.523 -0.0978  0.0341  0.5268
 3891TIP3    H233233   0.370   1.223   2.467  0.7592 -0.2976 -0.4566
 3892TIP3   OH233234   4.439   6.405   0.994  0.4552  0.4699 -0.0448
 3892TIP3    H133235   4.523   6.369   0.965  0.6445  0.8140  0.0801
 3892TIP3    H233236   4.409   6.344   1.061  0.1457 -0.1813 -0.7615
 3893TIP3   OH233237   2.575   1.681   0.641  0.2903 -0.1177 -0.0329
 3893TIP3    H133238   2.669   1.673   0.627  0.1594 -0.5094 -0.7588
 3893TIP3    H233239   2.536   1.628   0.571 -0.5140  1.5621 -0.9235
 3894TIP3   OH233240   1.806   0.632   8.902  0.3293 -0.3072  0.0943
 3894TIP3    H133241   1.864   0.569   8.944 -0.7306  0.0052  2.1916
 3894TIP3    H233242   1.734   0.642   8.964 -1.1772  0.4957 -1.6961
 3895TIP3   OH233243   5.478   5.411   7.070  0.0705  0.1753 -0.3610
 3895TIP3    H133244   5.420   5.468   7.020  0.5292  0.9021 -0.0763
 3895TIP3    H233245   5.544   5.381   7.006 -0.8478 -1.0231 -0.7969
 3896TIP3   OH233246   2.319   1.008   0.769  0.5430 -0.1329  0.3668
 3896TIP3    H133247   2.369   0.927   0.761 -0.3013 -0.5354 -1.1763
 3896TIP3    H233248   2.261   0.993   0.844  0.6482 -0.7958  0.3193
 3897TIP3   OH233249   1.497   0.284   7.702 -0.3963 -0.3307  0.0413
 3897TIP3    H133250   1.534   0.199   7.727 -0.3824  0.1497  1.8536
 3897TIP3    H233251   1.555   0.348   7.743 -0.2506  0.5841 -1.5263
 3898TIP3   OH233252   2.319   0.971   1.375 -0.0307 -0.0642 -0.1477
 3898TIP3    H133253   2.357   1.022   1.303  2.7883 -1.2997  0.3118
 3898TIP3    H233254   2.259   0.909   1.332  0.7452 -0.0347 -1.3308
 3899TIP3   OH233255   1.251   1.086   1.897 -0.0594 -0.6926 -0.3092
 3899TIP3    H133256   1.221   1.084   1.988  0.7373  1.2020  0.0349
 3899TIP3    H233257   1.328   1.030   1.896 -0.4579 -1.2628  0.0145
 3900TIP3   OH233258   2.660   1.174   2.211  0.0871 -0.2947 -0.4973
 3900TIP3    H133259   2.588   1.111   2.209  0.2956 -0.6503  1.4641
 3900TIP3    H233260   2.720   1.140   2.278  0.9064  1.2476 -0.4028
 3901TIP3   OH233261   0.342   4.125   7.204  0.3630  0.1034  0.2764
 3901TIP3    H133262   0.256   4.134   7.244  1.2817 -0.0741  2.4636
 3901TIP3    H233263   0.346   4.194   7.138 -1.7367 -0.4368 -0.4898
 3902TIP3   OH233264   1.134   2.605   6.523 -0.0118  0.1788  0.6117
 3902TIP3    H133265   1.069   2.626   6.590  0.4573  2.3083  0.4939
 3902TIP3    H233266   1.091   2.628   6.441  0.8621  1.7548  0.5400
 3903TIP3   OH233267   3.363   3.059   8.723 -0.0256 -0.2284  0.3678
 3903TIP3    H133268   3.308   2.982   8.708 -0.6740  0.2133  0.4694
 3903TIP3    H233269   3.314   3.132   8.685 -0.0830  0.3689  1.5489
 3904TIP3   OH233270   0.316   4.742   8.119  0.6252  0.2533  0.4513
 3904TIP3    H133271   0.268   4.731   8.201  0.0387 -1.9592 -0.1041
 3904TIP3    H233272   0.291   4.828   8.087  0.4036  0.9183  2.2753
 3905TIP3   OH233273   3.109   0.651   2.215 -0.0028  0.1959  0.2137
 3905TIP3    H133274   3.109   0.557   2.236 -1.5625  0.0266 -0.3443
 3905TIP3    H233275   3.089   0.654   2.121  1.2471  1.0725 -0.0453
 3906TIP3   OH233276   4.673   1.309   7.611  0.2388  0.6259 -0.2696
 3906TIP3    H133277   4.708   1.366   7.542 -0.6276 -1.5867 -2.6676
 3906TIP3    H233278   4.595   1.355   7.642 -0.1957  1.0003 -1.8209
 3907TIP3   OH233279   1.402   3.943   7.857  0.5424  0.3940 -0.5577
 3907TIP3    H133280   1.314   3.953   7.894  0.9121  1.1738  0.1591
 3907TIP3    H233281   1.450   4.018   7.891  1.4579  0.0408 -1.0458
 3908TIP3   OH233282   3.151   2.088   1.165 -0.1060 -0.2573 -0.6071
 3908TIP3    H133283   3.058   2.067   1.174  0.0359 -1.2705 -1.3521
 3908TIP3    H233284   3.181   2.103   1.255 -0.6001 -1.6685 -0.1882
 3909TIP3   OH233285   2.007   4.357   6.623  0.1621 -0.1624  0.3613
 3909TIP3    H133286   2.010   4.271   6.664  0.8802 -0.4222 -0.2135
 3909TIP3    H233287   1.968   4.341   6.537  0.2447  0.0968  0.2757
 3910TIP3   OH233288   3.314   3.863   1.489 -0.3578 -0.4200  0.0439
 3910TIP3    H133289   3.408   3.852   1.478 -0.5617 -1.8944 -0.4685
 3910TIP3    H233290   3.305   3.918   1.567  0.9448  1.2466 -0.9076
 3911TIP3   OH233291   0.425   6.011   7.212 -0.1713  0.0836 -0.1771
 3911TIP3    H133292   0.362   6.060   7.159 -0.8902 -0.0613  0.5392
 3911TIP3    H233293   0.501   6.070   7.218 -0.2790  0.3143 -0.9242
 3912TIP3   OH233294   5.129   2.422   7.185  0.8335 -0.2546 -0.3159
 3912TIP3    H133295   5.144   2.340   7.233  0.0697 -1.2339 -1.6491
 3912TIP3    H233296   5.182   2.412   7.105 -1.2263 -0.6340 -1.7074
 3913TIP3   OH233297   4.069   5.905   7.651  0.0160  0.2150 -0.1222
 3913TIP3    H133298   3.983   5.901   7.609 -0.9186 -0.6614  1.7605
 3913TIP3    H233299   4.124   5.848   7.598 -1.2664 -1.2985  0.1043
 3914TIP3   OH233300   4.389   6.097   7.288  0.3945 -0.4554  0.3702
 3914TIP3    H133301   4.297   6.070   7.286 -0.2009  1.4188  0.6901
 3914TIP3    H233302   4.405   6.137   7.203 -0.0591  2.0738  1.3848
 3915TIP3   OH233303   3.966   2.822   8.847  0.1812 -0.4392  0.0657
 3915TIP3    H133304   4.007   2.833   8.933  3.2425  1.6423 -1.4638
 3915TIP3    H233305   4.027   2.766   8.799 -0.0572  0.6470 -1.5515
 3916TIP3   OH233306   6.210   3.135   2.386  0.2326 -0.3578  0.3273
 3916TIP3    H133307   6.158   3.070   2.340  1.4209 -0.7293 -0.5439
 3916TIP3    H233308   6.174   3.219   2.357 -0.2292 -0.6022  0.1797
 3917TIP3   OH233309   1.240   2.477   7.414  0.2571 -0.2266  0.6630
 3917TIP3    H133310   1.174   2.426   7.367 -0.0323  1.3880 -0.7823
 3917TIP3    H233311   1.192   2.551   7.450  1.5861  2.8406 -3.2053
 3918TIP3   OH233312   3.447   6.042   7.868  0.2153  0.3545 -0.2322
 3918TIP3    H133313   3.398   5.967   7.835 -0.7627  0.9176 -0.0964
 3918TIP3    H233314   3.521   6.050   7.807 -0.1648 -0.1720 -0.7811
 3919TIP3   OH233315   6.318   4.781   1.721  0.2025 -0.1686  0.0646
 3919TIP3    H133316   6.272   4.784   1.638  1.8905 -0.2608 -0.9158
 3919TIP3    H233317   6.410   4.766   1.698  0.9507  1.2277  1.8480
 3920TIP3   OH233318   2.305   5.937   7.791 -0.3290 -0.6734 -0.2395
 3920TIP3    H133319   2.231   5.989   7.822  0.4699 -0.3381  1.1752
 3920TIP3    H233320   2.359   5.999   7.742 -0.2864 -0.5964 -0.0944
 3921TIP3   OH233321   5.778   5.165   7.849 -0.2426  0.1536 -0.2380
 3921TIP3    H133322   5.753   5.086   7.896  2.0556 -1.5992 -1.6979
 3921TIP3    H233323   5.842   5.208   7.906  0.4993 -0.5131 -0.5428
 3922TIP3   OH233324   3.005   2.185   0.914 -0.1184  0.1154 -0.5790
 3922TIP3    H133325   3.033   2.165   1.004 -1.1020  2.6983  0.3933
 3922TIP3    H233326   3.022   2.105   0.865  2.6095 -0.6571  1.3866
 3923TIP3   OH233327   2.031   0.208   0.360  0.9810  0.2960 -0.0849
 3923TIP3    H133328   2.092   0.281   0.355  1.2979  0.0942  0.7737
 3923TIP3    H233329   1.944   0.249   0.354  1.1741  0.6087 -0.9783
 3924TIP3   OH233330   1.763   3.933   0.130 -0.0670 -0.4450 -0.7361
 3924TIP3    H133331   1.799   3.907   0.046 -1.1052 -1.3585 -0.9191
 3924TIP3    H233332   1.708   3.859   0.157 -0.1487  0.0366  0.5057
 3925TIP3   OH233333   0.291   1.742   8.206 -0.4849  0.0400 -0.0879
 3925TIP3    H133334   0.274   1.666   8.150  2.7161 -2.8444  2.4124
 3925TIP3    H233335   0.216   1.745   8.265 -0.7050 -1.2160 -0.2656
 3926TIP3   OH233336   3.084   5.857   2.667 -0.2102  0.0940 -0.3374
 3926TIP3    H133337   3.003   5.891   2.630  0.3030  1.0413 -0.6307
 3926TIP3    H233338   3.143   5.933   2.670  0.6003 -0.5293  0.0509
 3927TIP3   OH233339   1.133   1.405   0.728  0.3397  0.0310 -0.0571
 3927TIP3    H133340   1.168   1.335   0.783 -0.4820 -0.5232 -0.2131
 3927TIP3    H233341   1.177   1.393   0.644 -0.1996 -0.6581 -0.2528
 3928TIP3   OH233342   3.222   2.417   1.811  0.2539 -0.9674  0.4041
 3928TIP3    H133343   3.189   2.389   1.726  0.0502 -0.7314  0.4069
 3928TIP3    H233344   3.151   2.398   1.872 -0.4854  0.9122  0.1910
 3929TIP3   OH233345   6.467   3.672   8.417 -0.0555 -0.5887  1.0101
 3929TIP3    H133346   6.470   3.590   8.466 -0.6205 -0.6579  0.9352
 3929TIP3    H233347   6.549   3.716   8.439  0.2654 -1.1843  1.0284
 3930TIP3   OH233348   2.897   2.847   0.595 -0.0885 -0.1012 -0.4430
 3930TIP3    H133349   2.870   2.776   0.653 -0.8103 -0.3092 -1.0080
 3930TIP3    H233350   2.989   2.862   0.615  0.0212 -1.0806 -0.1931
 3931TIP3   OH233351   1.622   2.396   8.457  0.4025 -0.3767  0.1693
 3931TIP3    H133352   1.528   2.407   8.473  0.7038  3.8926  0.0599
 3931TIP3    H233353   1.630   2.392   8.362  0.2588 -3.8596  0.1740
 3932TIP3   OH233354   4.491   0.827   2.142 -0.4067  0.3832  0.0467
 3932TIP3    H133355   4.577   0.848   2.179 -0.3965  1.3381 -0.4633
 3932TIP3    H233356   4.487   0.732   2.142  0.5028  0.3318  0.4242
 3933TIP3   OH233357   2.495   6.572   1.332 -0.5705 -0.0010 -0.2388
 3933TIP3    H133358   2.542   6.554   1.251 -0.0682  1.0349 -0.1912
 3933TIP3    H233359   2.503   6.492   1.383  0.1996 -0.2151 -0.6828
 3934TIP3   OH233360   1.625   4.390   1.553  0.1446  0.4064  0.5406
 3934TIP3    H133361   1.684   4.330   1.508  0.8825  1.6196 -0.1524
 3934TIP3    H233362   1.654   4.477   1.526 -1.8210  1.0530  0.3466
 3935TIP3   OH233363   0.261   6.212   2.019  0.4450  0.0835 -0.1104
 3935TIP3    H133364   0.238   6.145   1.955  1.0808  2.6666 -3.3415
 3935TIP3    H233365   0.334   6.175   2.068 -1.2450 -2.7055  0.5455
 3936TIP3   OH233366   0.631   1.190   0.167 -0.3930  0.1984 -0.3317
 3936TIP3    H133367   0.684   1.142   0.103  0.3380  0.2766  0.2052
 3936TIP3    H233368   0.550   1.138   0.175  0.4509 -1.0576  0.3767
 3937TIP3   OH233369   5.488   3.789   0.196  0.6967  0.4544  0.4997
 3937TIP3    H133370   5.576   3.780   0.158  0.5185  0.2817  0.1303
 3937TIP3    H233371   5.451   3.866   0.154  1.1173  1.2626  1.5405
 3938TIP3   OH233372   4.498   1.540   0.339 -0.3016  0.3729 -0.2648
 3938TIP3    H133373   4.563   1.579   0.398 -0.7515  0.7426  0.0007
 3938TIP3    H233374   4.426   1.514   0.397 -0.4710  0.1410 -0.5768
 3939TIP3   OH233375   1.621   1.834   8.824  0.3130  0.6471 -0.3793
 3939TIP3    H133376   1.674   1.758   8.800 -3.4749 -3.1505  1.9237
 3939TIP3    H233377   1.662   1.868   8.904  1.3874  0.3321 -0.7798
 3940TIP3   OH233378   3.241   5.661   8.300 -0.4835  0.1465 -0.0847
 3940TIP3    H133379   3.247   5.747   8.259  0.3059  1.1988  2.0543
 3940TIP3    H233380   3.147   5.647   8.315 -0.6382  0.4877 -0.7239
 3941TIP3   OH233381   4.003   2.595   2.088 -0.1601 -0.1049  0.0232
 3941TIP3    H133382   4.089   2.619   2.123 -0.1946 -0.5110  0.3969
 3941TIP3    H233383   3.941   2.650   2.135 -0.0651  0.6511 -0.6993
 3942TIP3   OH233384   3.282   0.942   8.581  0.4552 -0.4458 -0.2777
 3942TIP3    H133385   3.229   0.960   8.503 -0.3863 -1.9387 -0.0802
 3942TIP3    H233386   3.364   0.990   8.565  0.0548 -0.1831 -1.7682
 3943TIP3   OH233387   5.061   1.526   2.934 -0.2022  0.4318  0.5012
 3943TIP3    H133388   5.093   1.494   2.850 -0.7663  0.6231  0.2135
 3943TIP3    H233389   5.091   1.460   2.997  1.5263  1.0433  0.3771
 3944TIP3   OH233390   0.492   1.039   0.975  0.3991 -0.2485 -0.0994
 3944TIP3    H133391   0.518   1.130   0.961  0.3647 -0.3641 -0.9301
 3944TIP3    H233392   0.453   1.012   0.892 -3.2098  0.1821  1.2620
 3945TIP3   OH233393   4.846   0.354   7.536  0.1401  0.5548 -0.0872
 3945TIP3    H133394   4.855   0.356   7.440  0.5822 -0.7525 -0.0839
 3945TIP3    H233395   4.893   0.432   7.566 -1.0203  1.6549 -0.9901
 3946TIP3   OH233396   5.594   3.908   7.639 -0.0972  0.2919  0.0003
 3946TIP3    H133397   5.562   3.867   7.559  1.5927 -1.0586 -0.0316
 3946TIP3    H233398   5.689   3.903   7.633  0.1018  1.2196  1.5759
 3947TIP3   OH233399   4.692   2.529   8.662  0.0995 -0.0107 -0.4813
 3947TIP3    H133400   4.629   2.493   8.724  0.2393  0.6014  0.0309
 3947TIP3    H233401   4.642   2.591   8.610  0.1062 -0.1096 -0.6063
 3948TIP3   OH233402   1.751   5.863   0.508 -0.0108 -0.9813  0.4716
 3948TIP3    H133403   1.742   5.849   0.414 -0.1084 -0.4352  0.3977
 3948TIP3    H233404   1.806   5.791   0.538  0.6637 -0.7257 -0.1276
 3949TIP3   OH233405   5.145   1.100   8.424  0.4847  0.2584  0.3310
 3949TIP3    H133406   5.156   1.120   8.331  2.9178 -1.8387  0.0340
 3949TIP3    H233407   5.210   1.155   8.468  1.0616 -0.5355  0.4869
 3950TIP3   OH233408   1.716   1.890   0.150 -0.2936 -0.1920 -0.4049
 3950TIP3    H133409   1.666   1.911   0.228  0.7168 -0.2788  0.2856
 3950TIP3    H233410   1.779   1.961   0.141  2.2509 -2.0730  1.1856
 3951TIP3   OH233411   3.820   4.903   0.837  0.2056  0.2102 -0.4737
 3951TIP3    H133412   3.746   4.842   0.828  0.7260 -0.4447 -0.4236
 3951TIP3    H233413   3.815   4.932   0.928  0.3971 -0.3589 -0.2724
 3952TIP3   OH233414   2.040   4.314   7.516  0.3760 -0.0360  0.0727
 3952TIP3    H133415   1.976   4.278   7.576 -1.5317  0.7575 -1.3677
 3952TIP3    H233416   2.122   4.316   7.565 -0.7735 -0.7453  2.1041
 3953TIP3   OH233417   1.489   2.198   1.107 -0.1203  0.0810 -0.4814
 3953TIP3    H133418   1.402   2.212   1.145 -0.2980 -1.1220 -0.4045
 3953TIP3    H233419   1.475   2.205   1.012 -0.3439 -0.3246 -0.4799
 3954TIP3   OH233420   5.389   5.501   1.497  0.1569 -0.1327 -0.1180
 3954TIP3    H133421   5.469   5.447   1.496 -0.4117 -0.9971 -0.3586
 3954TIP3    H233422   5.325   5.447   1.542 -0.7213 -0.0951 -1.2754
 3955TIP3   OH233423   2.979   3.279   6.537 -0.2109 -0.2769  0.1352
 3955TIP3    H133424   2.992   3.253   6.629  0.0969 -1.5729 -0.2443
 3955TIP3    H233425   2.981   3.374   6.538  1.5610 -0.2680  1.2425
 3956TIP3   OH233426   2.101   5.909   7.588 -0.0039  0.0371  0.6201
 3956TIP3    H133427   2.120   5.988   7.536 -1.7396  0.0125 -0.1318
 3956TIP3    H233428   2.177   5.899   7.646  0.4581  1.9960  0.4158
 3957TIP3   OH233429   4.559   2.800   0.964  0.3706 -0.3347  0.0264
 3957TIP3    H133430   4.565   2.737   0.892  2.4689  0.6283 -0.7013
 3957TIP3    H233431   4.470   2.788   0.999 -0.0677 -2.0752 -1.5460
 3958TIP3   OH233432   3.211   4.880   8.796  0.2180 -0.4820  0.4056
 3958TIP3    H133433   3.173   4.795   8.772  0.9266 -0.2526 -1.8103
 3958TIP3    H233434   3.144   4.944   8.772  0.6969 -0.2857 -0.4765
 3959TIP3   OH233435   5.909   5.715   2.380  0.6580  0.6718  0.0682
 3959TIP3    H133436   5.818   5.709   2.354  0.9374 -0.6171 -0.6624
 3959TIP3    H233437   5.943   5.626   2.372  2.2880  1.3235 -0.8305
 3960TIP3   OH233438   0.488   5.620   7.447  0.7393 -0.6065 -0.0577
 3960TIP3    H133439   0.558   5.685   7.448 -0.5237  0.8367 -0.0116
 3960TIP3    H233440   0.428   5.652   7.379 -1.0731 -0.3957  1.5523
 3961TIP3   OH233441   3.684   3.635   8.321  0.4948  0.2706 -0.5715
 3961TIP3    H133442   3.717   3.546   8.327 -1.3292 -0.4453 -0.5422
 3961TIP3    H233443   3.653   3.643   8.230  0.6009  0.8589 -0.5590
 3962TIP3   OH233444   3.102   5.417   0.161 -0.3732  0.1712 -0.3237
 3962TIP3    H133445   3.026   5.447   0.211 -0.1099 -1.2995  1.0378
 3962TIP3    H233446   3.064   5.383   0.080 -1.1774 -0.4534  0.2938
 3963TIP3   OH233447   1.702   1.957   8.574 -0.6995  0.2411 -0.5054
 3963TIP3    H133448   1.690   1.863   8.588 -0.3607  0.4093  1.0853
 3963TIP3    H233449   1.706   1.995   8.662 -0.2764  1.6826 -1.1026
 3964TIP3   OH233450   0.308   5.790   8.107 -0.2398  0.9671 -0.2656
 3964TIP3    H133451   0.242   5.856   8.128 -0.1654  0.6153  1.1582
 3964TIP3    H233452   0.337   5.757   8.192  1.4129  0.7473 -0.8852
 3965TIP3   OH233453   1.335   0.215   7.473  0.7639 -0.5233 -0.0241
 3965TIP3    H133454   1.391   0.243   7.545  1.2578 -0.9985 -0.2167
 3965TIP3    H233455   1.373   0.256   7.395  1.9265 -2.2357 -0.4163
 3966TIP3   OH233456   2.648   2.346   8.781 -0.4453 -0.7140 -0.5536
 3966TIP3    H133457   2.612   2.279   8.839 -2.1822  0.2887 -0.4329
 3966TIP3    H233458   2.686   2.411   8.840 -2.0951  0.2397 -0.4810
 3967TIP3   OH233459   0.649   2.479   7.791 -0.3710  0.6367 -0.1986
 3967TIP3    H133460   0.660   2.554   7.734 -1.3110  1.2172  0.3586
 3967TIP3    H233461   0.567   2.438   7.762  1.4304 -1.8082 -2.2762
 3968TIP3   OH233462   4.950   3.125   1.388  0.0919 -0.4092  0.0165
 3968TIP3    H133463   4.974   3.193   1.325  2.9751 -0.1923  1.1502
 3968TIP3    H233464   5.000   3.048   1.360  1.0533 -0.4394  1.6896
 3969TIP3   OH233465   6.058   6.204   8.308 -0.2058  0.0796 -0.2686
 3969TIP3    H133466   6.047   6.196   8.213  0.9077 -0.5895 -0.3674
 3969TIP3    H233467   6.038   6.117   8.342  1.1258 -0.1948 -0.1067
 3970TIP3   OH233468   2.664   3.387   0.142  0.2241  0.0907 -0.0814
 3970TIP3    H133469   2.619   3.387   0.226 -0.3559 -0.4995 -0.3784
 3970TIP3    H233470   2.609   3.332   0.086  0.8040  0.1650 -0.7341
 3971TIP3   OH233471   5.220   1.214   0.017  0.0871  0.0148  0.3907
 3971TIP3    H133472   5.243   1.280  -0.049 -0.3052 -1.2363 -1.0694
 3971TIP3    H233473   5.304   1.180   0.047  0.2807  0.8764  0.8623
 3972TIP3   OH233474   1.625   5.029   2.309 -0.0406  0.6756  0.7421
 3972TIP3    H133475   1.586   5.008   2.394 -0.0456  2.5283  1.2378
 3972TIP3    H233476   1.567   4.988   2.245 -2.1831  2.3324  1.5151
 3973TIP3   OH233477   1.849   2.649   6.633 -0.0765 -0.7423  0.1720
 3973TIP3    H133478   1.795   2.582   6.589  0.6039 -1.4265  0.3609
 3973TIP3    H233479   1.804   2.731   6.614  0.6252 -0.8971 -2.5413
 3974TIP3   OH233480   2.385   3.388   2.000 -0.2623  0.2957 -0.2149
 3974TIP3    H133481   2.448   3.460   2.004 -0.7089  0.7892 -1.7484
 3974TIP3    H233482   2.431   3.320   1.950 -0.5002  0.1943 -0.2939
 3975TIP3   OH233483   0.843   2.746   8.545  0.6884 -0.2028 -0.0243
 3975TIP3    H133484   0.876   2.739   8.455 -0.1486  0.5457 -0.4016
 3975TIP3    H233485   0.801   2.832   8.548  1.7867  0.3077  1.4495
 3976TIP3   OH233486   5.387   6.685   8.203  0.0556  0.2426  0.0905
 3976TIP3    H133487   5.325   6.756   8.185 -0.0647  0.1195  0.0155
 3976TIP3    H233488   5.415   6.701   8.293  0.0610  0.4093  0.0605
 3977TIP3   OH233489   5.662   2.251   7.497 -0.1583 -0.1320 -0.2138
 3977TIP3    H133490   5.626   2.234   7.584  1.3510 -0.3880  0.4060
 3977TIP3    H233491   5.636   2.176   7.444  1.0096 -1.2419  0.7274
 3978TIP3   OH233492   5.929   3.978   1.771  0.3148  0.1685 -0.8715
 3978TIP3    H133493   5.852   3.965   1.826  0.1451  0.3292 -1.0690
 3978TIP3    H233494   5.989   4.030   1.825 -0.0914  0.8348 -1.0509
 3979TIP3   OH233495   6.369   5.014   8.501 -0.2382 -0.0350 -0.0463
 3979TIP3    H133496   6.297   4.978   8.450 -1.5620  0.2397  1.5458
 3979TIP3    H233497   6.448   4.983   8.457 -1.2227  1.7393 -3.3515
 3980TIP3   OH233498   5.915   1.326   8.218  0.1789  0.0363  0.1413
 3980TIP3    H133499   5.965   1.287   8.145  1.3959 -1.1799  1.5456
 3980TIP3    H233500   5.883   1.409   8.184  2.1161  0.2703 -1.2616
 3981TIP3   OH233501   3.280   3.535   7.716 -0.5214  0.3516 -0.4922
 3981TIP3    H133502   3.223   3.611   7.708 -1.9327 -0.7211 -1.0743
 3981TIP3    H233503   3.257   3.497   7.800  1.2325  1.3373  0.4952
 3982TIP3   OH233504   4.994   4.410   0.308 -0.0498  0.2153 -0.0344
 3982TIP3    H133505   4.953   4.350   0.370  0.5110 -1.3295 -1.0983
 3982TIP3    H233506   5.083   4.377   0.298  0.3548  1.3746 -0.4856
 3983TIP3   OH233507   1.093   0.090   2.036  0.2454 -0.2078 -0.0891
 3983TIP3    H133508   1.164   0.154   2.035 -0.7770  0.9840 -1.5594
 3983TIP3    H233509   1.103   0.041   1.955 -1.5474  1.1350 -1.1974
 3984TIP3   OH233510   3.553   3.005   8.278 -0.4468 -0.3179 -0.3711
 3984TIP3    H133511   3.555   3.100   8.279 -0.6864 -0.3092  0.3214
 3984TIP3    H233512   3.636   2.979   8.237 -0.8081  0.1867 -1.4583
 3985TIP3   OH233513   5.982   3.328   1.337  0.1046  0.6677 -0.4557
 3985TIP3    H133514   5.936   3.315   1.254 -0.3153 -1.8416  0.1115
 3985TIP3    H233515   5.921   3.378   1.391  0.7919  3.2693 -1.9211
 3986TIP3   OH233516   1.540   2.926   8.013  0.2797  0.1554 -0.4051
 3986TIP3    H133517   1.545   2.861   8.084  4.8425  1.3178  0.6561
 3986TIP3    H233518   1.478   2.991   8.045  1.5396  0.1968  2.2828
 3987TIP3   OH233519   0.216   5.409   1.201 -0.6847  0.2079 -0.2956
 3987TIP3    H133520   0.234   5.359   1.121  0.1613  1.3234 -0.8426
 3987TIP3    H233521   0.286   5.475   1.204 -0.4775 -0.0359  1.5759
 3988TIP3   OH233522   1.664   2.668   7.550 -0.8099 -0.2346 -0.3700
 3988TIP3    H133523   1.677   2.614   7.472 -0.6733 -1.5537  0.5348
 3988TIP3    H233524   1.569   2.681   7.554 -0.9658 -1.3302 -0.0285
 3989TIP3   OH233525   0.148   0.332   3.259  0.7427 -0.0498  0.2997
 3989TIP3    H133526   0.172   0.424   3.272 -0.1770  0.2802 -0.2559
 3989TIP3    H233527   0.135   0.324   3.165 -2.5332  0.1380  0.6314
 3990TIP3   OH233528   1.698   2.635   8.554  0.1254 -0.0526  0.2610
 3990TIP3    H133529   1.625   2.697   8.560  0.5508  0.7105 -1.5783
 3990TIP3    H233530   1.661   2.557   8.513  0.4232  0.5853 -1.3060
 3991TIP3   OH233531   1.469   4.580   2.691 -0.5910 -0.0595 -0.4490
 3991TIP3    H133532   1.476   4.503   2.748  0.9139 -0.3103 -0.9186
 3991TIP3    H233533   1.557   4.590   2.655 -0.8806  1.6156 -0.7539
 3992TIP3   OH233534   5.776   0.055   1.760  0.4079  0.1857  0.3784
 3992TIP3    H133535   5.816   0.052   1.673 -0.2868  1.8131 -0.0327
 3992TIP3    H233536   5.735  -0.031   1.771  0.2384  0.0720 -1.0376
 3993TIP3   OH233537   1.200   0.494   8.162  0.1053  0.6475 -0.9847
 3993TIP3    H133538   1.131   0.435   8.134  0.2549 -0.1546  0.2407
 3993TIP3    H233539   1.267   0.489   8.094 -0.0558 -0.3184 -1.0831
 3994TIP3   OH233540   4.250   4.487   1.994  0.4590 -0.3366 -0.4779
 3994TIP3    H133541   4.338   4.468   1.961  0.9529 -1.5042  1.3399
 3994TIP3    H233542   4.212   4.401   2.012  0.4679  0.1701  2.4347
 3995TIP3   OH233543   0.301   0.358   1.639 -0.0341  0.1418  0.4136
 3995TIP3    H133544   0.370   0.420   1.662 -0.6447  0.4789  1.4148
 3995TIP3    H233545   0.228   0.413   1.610  0.2331 -0.2275 -1.0323
 3996TIP3   OH233546   5.319   5.182   8.561 -0.6658  0.0236 -0.1597
 3996TIP3    H133547   5.376   5.115   8.524 -0.7433 -1.1248  1.6658
 3996TIP3    H233548   5.281   5.226   8.485  1.1670 -0.4459 -1.4049
 3997TIP3   OH233549   6.722   5.607   7.553  0.4627  0.2054 -0.2305
 3997TIP3    H133550   6.689   5.594   7.464 -0.2158  1.4262 -0.1912
 3997TIP3    H233551   6.678   5.539   7.605 -1.8591  1.5693 -0.2425
 3998TIP3   OH233552   0.633   2.254   8.174 -0.0624  0.2072  0.5857
 3998TIP3    H133553   0.668   2.338   8.145 -1.1230 -0.3107 -2.5688
 3998TIP3    H233554   0.683   2.189   8.126 -1.1926 -0.8287  0.7591
 3999TIP3   OH233555   4.302   5.470   7.873  0.4839  0.0120 -0.1246
 3999TIP3    H133556   4.377   5.413   7.891  0.9399  0.5215 -0.4087
 3999TIP3    H233557   4.267   5.491   7.960  0.3651 -0.6131 -0.0109
 4000TIP3   OH233558   5.902   2.093   1.293 -0.5127  0.3902 -0.7031
 4000TIP3    H133559   5.911   2.092   1.389  3.4727 -1.5933 -0.8409
 4000TIP3    H233560   5.923   2.182   1.268  0.4397  0.4641  0.2599
 4001TIP3   OH233561   4.036   2.627   1.331 -0.8200  0.0447 -0.1775
 4001TIP3    H133562   4.118   2.635   1.379 -0.3211 -1.4215 -0.7196
 4001TIP3    H233563   3.973   2.679   1.381 -0.1128 -0.6754  1.5325
 4002TIP3   OH233564   1.509   2.213   0.015 -0.4646  0.2249 -0.1709
 4002TIP3    H133565   1.445   2.187   0.081 -1.2792  3.0559  0.3077
 4002TIP3    H233566   1.471   2.291  -0.025  0.5117 -0.7497 -3.2960
 4003TIP3   OH233567   1.841   1.668   8.422 -0.4523  0.6577 -0.3219
 4003TIP3    H133568   1.850   1.639   8.331  0.5561 -0.4254  0.0922
 4003TIP3    H233569   1.752   1.644   8.446  0.0497 -1.3756 -0.2859
 4004TIP3   OH233570   3.111   5.221   8.547  0.1663 -0.3618  0.0448
 4004TIP3    H133571   3.128   5.136   8.508 -0.0641 -0.4483  0.1337
 4004TIP3    H233572   3.075   5.202   8.633  1.0082 -0.1695  0.4555
 4005TIP3   OH233573   4.480   3.465   2.680 -0.2253  0.3801 -0.3718
 4005TIP3    H133574   4.491   3.412   2.759 -0.6664 -1.1638 -1.3048
 4005TIP3    H233575   4.388   3.492   2.682 -0.7575 -1.2146 -1.2362
 4006TIP3   OH233576   0.031   6.430   1.603  0.0671  0.7877 -0.7922
 4006TIP3    H133577   0.069   6.356   1.649  0.3775  1.1367 -0.4835
 4006TIP3    H233578  -0.043   6.456   1.656  0.9249  1.7240 -0.0275
 4007TIP3   OH233579   4.242   0.363   7.514 -0.0252 -0.2350 -0.0276
 4007TIP3    H133580   4.216   0.286   7.565  0.0693 -0.5718 -0.4771
 4007TIP3    H233581   4.329   0.384   7.548 -1.2078  1.5293  2.2065
 4008TIP3   OH233582   3.305   1.398   2.836 -0.0019 -0.1557 -0.0660
 4008TIP3    H133583   3.303   1.463   2.766 -0.4477 -1.7369 -1.6275
 4008TIP3    H233584   3.219   1.404   2.877  0.0978  0.4829  0.0589
 4009TIP3   OH233585   2.002   5.346   8.164  0.5857  0.5119 -0.0471
 4009TIP3    H133586   2.057   5.391   8.100 -0.3958  0.0489 -1.2554
 4009TIP3    H233587   2.021   5.253   8.151 -0.0323  0.3839 -0.0456
 4010TIP3   OH233588   1.435   2.758   2.291 -0.0733 -0.4934  0.4110
 4010TIP3    H133589   1.340   2.749   2.295  0.0819 -2.0790  1.5973
 4010TIP3    H233590   1.451   2.852   2.303 -1.5213  0.0795 -1.5906
 4011TIP3   OH233591   1.728   1.557   0.459  0.2338  0.2642  0.1990
 4011TIP3    H133592   1.807   1.504   0.474 -0.4089 -0.7495  0.1113
 4011TIP3    H233593   1.706   1.541   0.367  0.0153  0.6600  0.1826
 4012TIP3   OH233594   2.255   5.142   1.788  0.2742  0.8740 -0.0482
 4012TIP3    H133595   2.202   5.064   1.774  0.8561  0.5420 -0.4531
 4012TIP3    H233596   2.215   5.185   1.864  0.6161 -0.3996  0.8894
 4013TIP3   OH233597   2.822   4.325   0.051  0.1972  0.2328  0.1354
 4013TIP3    H133598   2.828   4.408   0.098  1.8862  1.2579 -1.7431
 4013TIP3    H233599   2.733   4.325   0.015  0.9475  2.6318 -2.0816
 4014TIP3   OH233600   5.924   5.536   1.533 -0.0658 -0.7533  0.1544
 4014TIP3    H133601   5.954   5.492   1.613  1.6278 -0.5313 -0.3123
 4014TIP3    H233602   6.005   5.558   1.487 -0.8825  1.7774 -0.2163
 4015TIP3   OH233603   4.252   3.655   7.927  0.0210  0.3017 -0.3002
 4015TIP3    H133604   4.317   3.702   7.979 -0.1165  2.0403 -1.6138
 4015TIP3    H233605   4.202   3.724   7.883  0.5185 -1.0599 -3.1897
 4016TIP3   OH233606   4.317   2.384   0.272 -0.1475 -0.0839 -0.9969
 4016TIP3    H133607   4.410   2.384   0.254  0.0073 -1.3896 -0.3755
 4016TIP3    H233608   4.278   2.337   0.198 -0.0236 -1.5028 -0.2075
 4017TIP3   OH233609   4.331   6.656   7.953  0.0214  0.7205  0.2422
 4017TIP3    H133610   4.249   6.647   8.000 -0.3937  0.8699 -0.4354
 4017TIP3    H233611   4.395   6.679   8.020 -0.2377 -0.5741  0.9520
 4018TIP3   OH233612   2.979   3.069   1.270 -0.0261  0.1702  0.3613
 4018TIP3    H133613   2.920   3.021   1.211  0.3544  0.6046 -0.3923
 4018TIP3    H233614   2.941   3.057   1.357 -0.3062 -0.9279  0.0958
 4019TIP3   OH233615   6.005   5.388   2.070 -0.3521 -0.4982  0.1080
 4019TIP3    H133616   6.097   5.398   2.093 -0.4813 -0.2433  0.5264
 4019TIP3    H233617   5.965   5.472   2.091 -0.5011 -0.2806 -0.9832
 4020TIP3   OH233618   0.345   2.701   8.545 -0.1843 -0.9390 -0.2270
 4020TIP3    H133619   0.393   2.643   8.604  2.7933  0.5025 -1.0544
 4020TIP3    H233620   0.316   2.774   8.600  0.8775 -0.5609 -0.1503
 4021TIP3   OH233621   4.982   5.485   0.947  0.1533  0.3376 -0.5357
 4021TIP3    H133622   5.026   5.443   0.873  0.8097  1.6757 -0.9503
 4021TIP3    H233623   4.981   5.578   0.923 -0.5185  0.6559  0.6960
 4022TIP3   OH233624   3.545   2.240   8.826  0.0322 -0.7161 -0.2677
 4022TIP3    H133625   3.495   2.301   8.772 -0.4608 -0.9356 -0.0680
 4022TIP3    H233626   3.636   2.269   8.818 -0.3066  0.6838  0.6620
 4023TIP3   OH233627   1.241   1.993   1.783  0.4687  0.1748 -0.4027
 4023TIP3    H133628   1.297   2.070   1.769 -0.3576  0.8535 -0.0364
 4023TIP3    H233629   1.252   1.972   1.876 -0.5427  0.8529 -0.1135
 4024TIP3   OH233630   4.615   4.530   0.286  0.1377 -0.0403  0.2940
 4024TIP3    H133631   4.671   4.483   0.348  0.9543  1.1707  0.4978
 4024TIP3    H233632   4.531   4.537   0.332 -0.0535 -1.3832  0.2047
 4025TIP3   OH233633   0.654   5.494   1.041  0.5943  0.1245  0.3151
 4025TIP3    H133634   0.585   5.531   1.095  0.0504 -1.7578  0.9981
 4025TIP3    H233635   0.613   5.481   0.955  0.0194 -1.0909  0.7487
 4026TIP3   OH233636   4.681   1.193   8.489 -0.1153 -0.4148 -0.1335
 4026TIP3    H133637   4.766   1.232   8.470 -0.4376  0.9499  0.9652
 4026TIP3    H233638   4.629   1.209   8.410  1.4359 -3.9707 -2.0728
 4027TIP3   OH233639   2.233   2.395   7.289  0.0769  0.2031  0.7104
 4027TIP3    H133640   2.285   2.315   7.280 -0.2917  0.0050  0.3058
 4027TIP3    H233641   2.261   2.450   7.215 -1.4640 -0.5820 -0.5176
 4028TIP3   OH233642   5.092   3.705   0.784  0.4972  0.0393  0.3514
 4028TIP3    H133643   5.125   3.795   0.786 -1.1002  0.7462 -1.6405
 4028TIP3    H233644   5.166   3.653   0.751  1.2823  0.6897  1.0521
 4029TIP3   OH233645   3.330   3.619   8.150  0.6136  0.0251  0.0286
 4029TIP3    H133646   3.379   3.550   8.195  0.2454 -0.1689  0.1278
 4029TIP3    H233647   3.322   3.689   8.215 -0.2049 -0.3852  0.3808
 4030TIP3   OH233648   4.526   3.132   0.389 -0.2028 -0.0798 -0.2836
 4030TIP3    H133649   4.460   3.112   0.455  0.4770  1.4009  0.8891
 4030TIP3    H233650   4.604   3.083   0.416 -0.6907 -1.6543 -1.5477
 4031TIP3   OH233651   3.320   4.982   1.354 -0.2998 -0.0631  0.3287
 4031TIP3    H133652   3.236   4.939   1.336 -0.8072  0.9875  0.1138
 4031TIP3    H233653   3.386   4.917   1.330 -0.9501 -2.8255  4.7818
 4032TIP3   OH233654   5.685   0.971   0.017  0.0634 -0.2007  0.1414
 4032TIP3    H133655   5.744   0.907   0.055 -0.8460 -0.2230  1.5674
 4032TIP3    H233656   5.704   0.969  -0.077  1.2130 -1.3223  0.3832
 4033TIP3   OH233657   6.630   6.493   8.157  0.0138  0.1559  0.1812
 4033TIP3    H133658   6.665   6.438   8.087  0.4958 -0.2980  0.7675
 4033TIP3    H233659   6.698   6.559   8.171  1.0153 -1.1411  1.8039
 4034TIP3   OH233660   2.781   4.572   8.004  0.2617  0.8902 -0.2927
 4034TIP3    H133661   2.863   4.554   7.959  1.3349  2.4054  0.9573
 4034TIP3    H233662   2.779   4.668   8.013 -1.4265  0.8525  0.1108
 4035TIP3   OH233663   2.919   2.870   3.091  0.5907 -0.1431  0.3073
 4035TIP3    H133664   2.955   2.852   3.178 -1.6978 -0.7409  1.2037
 4035TIP3    H233665   2.929   2.787   3.044  3.6918  0.7240 -0.8213
 4036TIP3   OH233666   0.001   1.883   1.241 -0.1752  0.1066  0.5438
 4036TIP3    H133667  -0.055   1.851   1.171  0.3675 -0.6837  0.4514
 4036TIP3    H233668   0.070   1.817   1.249  0.4540  0.7942  1.0012
 4037TIP3   OH233669   5.154   0.318   8.865  0.2067 -0.4780 -0.4860
 4037TIP3    H133670   5.132   0.349   8.953  2.7438  1.4516 -0.4140
 4037TIP3    H233671   5.071   0.317   8.818 -0.6492  2.8153  0.6695
 4038TIP3   OH233672   2.774   2.172   2.691  0.1027  0.2807  0.1474
 4038TIP3    H133673   2.782   2.089   2.738 -0.8500 -0.4948 -1.0047
 4038TIP3    H233674   2.767   2.238   2.760 -0.5303 -0.7410  1.0989
 4039TIP3   OH233675   0.532   4.536   7.414 -0.2248 -0.0133  0.4825
 4039TIP3    H133676   0.508   4.608   7.472 -0.0722  0.9807 -0.6334
 4039TIP3    H233677   0.610   4.568   7.368 -0.5992 -0.5816 -0.5816
 4040TIP3   OH233678   6.708   5.105   1.783 -0.3840  0.1068  0.3036
 4040TIP3    H133679   6.675   5.016   1.771 -0.1308  0.1902 -1.1762
 4040TIP3    H233680   6.776   5.096   1.850  0.7300 -1.1103 -0.9399
 4041TIP3   OH233681   2.347   1.620   2.242 -0.6621  0.1739 -0.4281
 4041TIP3    H133682   2.253   1.622   2.259 -1.1678 -0.6696 -2.7401
 4041TIP3    H233683   2.387   1.637   2.327 -2.8839  1.6982  0.4003
 4042TIP3   OH233684   4.503   5.957   0.989  0.2650 -0.5923  0.3094
 4042TIP3    H133685   4.495   6.002   0.905  0.3924  1.8682  1.5415
 4042TIP3    H233686   4.414   5.957   1.025  0.0666 -2.2939 -0.0793
 4043TIP3   OH233687   2.420   0.048   1.397  0.6524 -0.4222  0.1078
 4043TIP3    H133688   2.434  -0.042   1.368  1.0701 -0.3134 -0.0356
 4043TIP3    H233689   2.508   0.083   1.408  0.5030  0.3045 -0.8858
 4044TIP3   OH233690   4.084   6.721   8.096  0.4551 -0.7183  0.2818
 4044TIP3    H133691   4.079   6.660   8.170  2.3952  0.0267  1.0997
 4044TIP3    H233692   4.028   6.794   8.122  0.0625 -1.0551  0.3962
 4045TIP3   OH233693   0.541   5.414   1.476  0.4936 -0.2934 -0.0427
 4045TIP3    H133694   0.478   5.439   1.544  0.7287  1.1645 -0.3193
 4045TIP3    H233695   0.626   5.415   1.521  0.4874 -0.8171 -0.0133
 4046TIP3   OH233696   0.190   1.179   1.059  0.2308 -0.0532 -0.2273
 4046TIP3    H133697   0.120   1.242   1.077  0.5761 -0.2386  2.0260
 4046TIP3    H233698   0.270   1.231   1.065  0.5474 -0.7005  2.0544
 4047TIP3   OH233699   2.427   2.177   1.994  0.1546  0.6006  0.6689
 4047TIP3    H133700   2.376   2.100   1.970 -0.0530  1.1832 -0.8690
 4047TIP3    H233701   2.470   2.153   2.077 -0.7029 -0.7718  0.7422
 4048TIP3   OH233702   5.403   2.574   1.544  0.0374  0.2992  0.4323
 4048TIP3    H133703   5.484   2.622   1.559  0.0495  0.1958  0.7208
 4048TIP3    H233704   5.346   2.635   1.498 -0.0778  0.7151  1.1150
 4049TIP3   OH233705   0.016   5.735   1.993 -0.1878 -0.0316 -0.3467
 4049TIP3    H133706   0.027   5.641   1.980 -0.6053 -0.2833  0.9665
 4049TIP3    H233707  -0.037   5.763   1.919 -1.7524 -1.2097  0.2777
 4050TIP3   OH233708   5.554   6.701   7.106 -0.0998 -0.0287 -0.6271
 4050TIP3    H133709   5.561   6.740   7.019 -0.9401  1.1428 -0.1957
 4050TIP3    H233710   5.542   6.776   7.165 -0.4413 -0.8629  0.3898
 4051TIP3   OH233711   5.673   6.274   1.874 -0.3820 -0.0684  0.2250
 4051TIP3    H133712   5.716   6.313   1.951  0.5338 -1.7806  0.6475
 4051TIP3    H233713   5.593   6.236   1.908 -1.1286  1.1154 -0.1339
 4052TIP3   OH233714   2.609   5.066   1.119  0.2624  0.2705 -0.7520
 4052TIP3    H133715   2.671   5.011   1.070  0.5404 -0.6692  0.6171
 4052TIP3    H233716   2.632   5.052   1.211  0.3541  2.7091 -0.3388
 4053TIP3   OH233717   1.764   0.342   8.797 -0.2747  0.1843 -0.0010
 4053TIP3    H133718   1.841   0.351   8.741 -0.7440  0.1024 -0.6644
 4053TIP3    H233719   1.727   0.430   8.800  1.9745  1.2457  3.4935
 4054TIP3   OH233720   2.167   0.643   7.142  0.3388 -0.4548 -0.3352
 4054TIP3    H133721   2.202   0.566   7.097  1.4402 -0.0040 -0.2888
 4054TIP3    H233722   2.239   0.672   7.198  0.7549  1.8947 -1.9544
 4055TIP3   OH233723   2.265   2.714   0.288  0.1207  0.0930  1.0369
 4055TIP3    H133724   2.313   2.641   0.327  1.8542 -1.4793 -3.3694
 4055TIP3    H233725   2.173   2.689   0.294  0.5652 -1.6241  1.2514
 4056TIP3   OH233726   3.832   0.582   1.922  0.1334 -0.0547  0.3212
 4056TIP3    H133727   3.778   0.517   1.876 -0.3704  0.3527  0.3396
 4056TIP3    H233728   3.820   0.563   2.015  0.8612 -0.6400  0.3082
 4057TIP3   OH233729   1.759   0.525   1.951 -0.4926  0.3123 -0.4918
 4057TIP3    H133730   1.765   0.430   1.963 -1.4465  0.3824  0.7880
 4057TIP3    H233731   1.843   0.550   1.911 -0.7304 -1.2146 -2.0356
 4058TIP3   OH233732   6.555   5.087   8.111  0.2005 -0.3191 -0.6121
 4058TIP3    H133733   6.566   5.127   8.025  2.0527 -1.2341 -0.8452
 4058TIP3    H233734   6.583   5.154   8.173  0.9655 -0.3996 -0.8605
 4059TIP3   OH233735   3.938   2.258   1.615 -0.6238  0.0940  0.4465
 4059TIP3    H133736   3.946   2.322   1.544 -0.5760 -0.3719  0.0262
 4059TIP3    H233737   3.942   2.173   1.571  0.0589 -0.2069  1.0709
 4060TIP3   OH233738   6.423   4.029   2.323  0.3085 -0.4429  0.9296
 4060TIP3    H133739   6.347   4.072   2.283  0.4370 -0.3879  0.7414
 4060TIP3    H233740   6.449   3.963   2.258  0.9103  0.0774  0.6373
 4061TIP3   OH233741   1.787   5.875   7.843 -0.4598 -0.1689 -0.0656
 4061TIP3    H133742   1.862   5.934   7.838 -0.2394 -0.5136 -0.9818
 4061TIP3    H233743   1.781   5.836   7.756 -2.6346  0.9816 -0.5012
 4062TIP3   OH233744   2.203   0.963   1.002  0.6907  0.4599 -0.2514
 4062TIP3    H133745   2.121   0.974   1.051 -0.4290 -1.5594 -1.4973
 4062TIP3    H233746   2.249   0.893   1.049 -0.3507 -1.4276 -1.8713
 4063TIP3   OH233747   0.679   3.711   8.922  0.0028 -0.1035  0.4249
 4063TIP3    H133748   0.631   3.632   8.945  0.0101 -0.3641 -0.4151
 4063TIP3    H233749   0.668   3.719   8.827  0.5951  0.5113  0.3998
 4064TIP3   OH233750   0.041   2.288   2.552  0.2268  0.0890 -0.1755
 4064TIP3    H133751  -0.011   2.267   2.629  0.7191  1.2937  0.5135
 4064TIP3    H233752   0.055   2.204   2.508 -1.4098 -0.4087  0.1761
 4065TIP3   OH233753   5.343   2.144   0.920  0.1142 -0.2366 -0.3257
 4065TIP3    H133754   5.275   2.128   0.986  0.7266 -0.8589  0.1623
 4065TIP3    H233755   5.377   2.231   0.941 -0.3449 -0.0319 -0.4134
 4066TIP3   OH233756   0.664   4.347   8.051 -0.1144 -0.9907 -0.6728
 4066TIP3    H133757   0.748   4.382   8.078 -0.7274  0.0239 -0.0357
 4066TIP3    H233758   0.612   4.424   8.027 -1.2001 -1.5090 -0.0731
 4067TIP3   OH233759   0.612   4.769   0.644  0.6194 -0.0775 -1.0073
 4067TIP3    H133760   0.574   4.684   0.620  3.6584 -1.6829 -0.5791
 4067TIP3    H233761   0.592   4.778   0.737  0.8065 -0.6333 -0.9097
 4068TIP3   OH233762   2.442   0.424   8.238  0.0584  0.2400 -0.0798
 4068TIP3    H133763   2.504   0.390   8.302 -0.5151 -0.8911 -0.0884
 4068TIP3    H233764   2.369   0.361   8.240 -1.0018  1.4290 -0.1995
 4069TIP3   OH233765   4.948   6.190   0.216 -0.5135  0.0260 -0.3131
 4069TIP3    H133766   4.905   6.275   0.226  0.8895  0.7579 -0.2223
 4069TIP3    H233767   4.916   6.138   0.289 -1.1570  0.5834 -0.1850
 4070TIP3   OH233768   4.519   6.441   0.508 -0.1584  0.6755  0.0970
 4070TIP3    H133769   4.553   6.374   0.567 -3.9713 -0.4420  1.2781
 4070TIP3    H233770   4.538   6.524   0.553  0.8492  0.1410  0.6990
 4071TIP3   OH233771   4.108   1.360   2.625 -0.1163  0.0269  0.1427
 4071TIP3    H133772   4.131   1.383   2.535 -0.6140  2.7708  0.6267
 4071TIP3    H233773   4.074   1.270   2.619  0.3978 -0.0659 -2.2872
 4072TIP3   OH233774   5.178   3.011   1.666 -0.6191  0.1087 -0.2771
 4072TIP3    H133775   5.203   3.082   1.608  0.7497 -0.3560 -0.2758
 4072TIP3    H233776   5.241   3.014   1.738 -1.4950 -0.1371  0.5272
 4073TIP3   OH233777   0.546   1.113   8.699 -0.3769 -0.5991 -0.4299
 4073TIP3    H133778   0.602   1.068   8.636  0.2800  0.0509 -0.3219
 4073TIP3    H233779   0.598   1.187   8.729 -1.1101 -0.2642  0.0460
 4074TIP3   OH233780   0.166   5.118   1.979  0.0191  0.0416  0.5542
 4074TIP3    H133781   0.143   5.193   2.033  0.9167  0.2067  0.7150
 4074TIP3    H233782   0.205   5.055   2.040 -2.6462 -1.4932  0.8502
 4075TIP3   OH233783   2.766   5.342   2.561  0.5937  0.1515 -0.1987
 4075TIP3    H133784   2.719   5.399   2.500  1.8718  0.8344 -0.6041
 4075TIP3    H233785   2.733   5.364   2.647 -0.9694 -0.5527 -0.5864
 4076TIP3   OH233786   0.192   4.649   1.224  0.1777 -0.1771 -0.2674
 4076TIP3    H133787   0.271   4.702   1.209  0.4714 -0.2366  0.9121
 4076TIP3    H233788   0.119   4.706   1.201  0.5558 -0.0072 -1.0635
 4077TIP3   OH233789   1.930   4.310   1.820  0.1298  0.1202 -0.4473
 4077TIP3    H133790   2.011   4.295   1.868 -0.0217  1.4383  0.2775
 4077TIP3    H233791   1.900   4.223   1.795  0.4285 -0.6046  1.5369
 4078TIP3   OH233792   3.043   2.176   8.893 -0.1332 -0.2893  0.8185
 4078TIP3    H133793   3.100   2.113   8.936  0.2644 -0.8424 -0.4850
 4078TIP3    H233794   3.079   2.261   8.918  1.5055 -0.6260 -0.2639
 4079TIP3   OH233795   3.083   4.866   1.318  0.1391 -0.0849 -0.6682
 4079TIP3    H133796   3.008   4.890   1.372  0.3793  0.7679 -0.7007
 4079TIP3    H233797   3.109   4.780   1.350 -1.3651 -0.7832 -1.2019
 4080TIP3   OH233798   1.342   2.698   8.893 -0.4797  0.4037  0.1740
 4080TIP3    H133799   1.265   2.730   8.939  0.9596  0.0770  2.9867
 4080TIP3    H233800   1.403   2.772   8.893 -0.1259  0.1292 -0.5066
 4081TIP3   OH233801   3.264   6.716   8.430  0.5521  0.5003  0.1590
 4081TIP3    H133802   3.266   6.790   8.369 -1.7885  0.4963  0.0017
 4081TIP3    H233803   3.216   6.648   8.384 -0.0320 -0.0097  1.4802
 4082TIP3   OH233804   0.259   5.877   8.405 -0.3899  0.0685 -0.3496
 4082TIP3    H133805   0.301   5.884   8.491 -0.5695  1.9190 -0.3702
 4082TIP3    H233806   0.174   5.920   8.416 -0.2329  0.7469 -1.5376
 4083TIP3   OH233807   0.993   2.860   6.966 -0.2878  0.0868  0.2388
 4083TIP3    H133808   1.067   2.800   6.966  0.3737  0.8060  1.9966
 4083TIP3    H233809   1.023   2.935   6.915 -0.3476 -0.2097 -0.2371
 4084TIP3   OH233810   0.984   1.806   6.470  0.4617  0.7679 -0.1840
 4084TIP3    H133811   0.941   1.886   6.503 -0.7788 -0.2984  0.9035
 4084TIP3    H233812   1.041   1.778   6.542  0.2496  0.2239 -0.2243
 4085TIP3   OH233813   2.599   0.097   1.627  0.0200 -0.8210  0.4149
 4085TIP3    H133814   2.641   0.012   1.615 -1.1798 -1.2895 -0.7508
 4085TIP3    H233815   2.532   0.082   1.694 -0.4650 -0.9069 -0.0839
 4086TIP3   OH233816   2.423   6.079   7.575  0.3603 -0.1341  0.0568
 4086TIP3    H133817   2.505   6.030   7.567 -1.2044 -2.9050 -0.2775
 4086TIP3    H233818   2.409   6.115   7.487  0.4366 -1.0400 -0.3449
 4087TIP3   OH233819   0.183   5.899   0.105  0.5269 -0.0452 -0.2927
 4087TIP3    H133820   0.269   5.926   0.072 -0.0543  0.1369 -1.7279
 4087TIP3    H233821   0.129   5.892   0.027 -0.3498 -1.7682  0.4207
 4088TIP3   OH233822   6.617   0.391   7.378  0.6178 -0.0168 -0.2465
 4088TIP3    H133823   6.625   0.484   7.401 -0.3648 -0.2526  1.1861
 4088TIP3    H233824   6.583   0.390   7.289 -2.0321  1.0528  0.6820
 4089TIP3   OH233825   0.372   2.322   8.582 -0.1539 -0.3418  0.1111
 4089TIP3    H133826   0.413   2.394   8.630  1.3929 -1.7893  1.0908
 4089TIP3    H233827   0.284   2.316   8.619 -0.0308  0.5254  0.5836
 4090TIP3   OH233828   6.422   3.378   2.196  0.1557 -0.2131  0.1315
 4090TIP3    H133829   6.488   3.395   2.129 -0.3445  0.1919 -0.2652
 4090TIP3    H233830   6.470   3.380   2.279  0.6982 -0.2619 -0.1816
 4091TIP3   OH233831   5.435   0.811   1.433 -0.2257 -0.2941  0.1037
 4091TIP3    H133832   5.353   0.763   1.446 -0.1199 -0.0542  1.8327
 4091TIP3    H233833   5.503   0.752   1.467  0.2378 -0.1545 -0.5642
 4092TIP3   OH233834   6.742   2.868   1.729  0.4622  0.0869 -0.1507
 4092TIP3    H133835   6.775   2.780   1.711 -0.3216 -0.0509 -0.9887
 4092TIP3    H233836   6.785   2.923   1.664  2.3349  0.6672  1.4845
 4093TIP3   OH233837   0.543   5.882   1.968  0.2371  0.0223  0.5521
 4093TIP3    H133838   0.518   5.946   2.035 -1.7268 -1.3082  1.1927
 4093TIP3    H233839   0.573   5.806   2.019 -0.5105 -0.7129 -0.0877
 4094TIP3   OH233840   4.317   2.129   1.560 -0.0280 -0.6406  0.0787
 4094TIP3    H133841   4.223   2.109   1.562  0.0919 -1.6736 -1.9569
 4094TIP3    H233842   4.359   2.046   1.584  0.4128  0.2442  2.6657
 4095TIP3   OH233843   6.360   0.589   8.870  0.3383  0.4295  0.0928
 4095TIP3    H133844   6.303   0.638   8.812 -0.8468  1.2247  1.8597
 4095TIP3    H233845   6.443   0.637   8.868 -0.0167  1.0443 -0.1422
 4096TIP3   OH233846   1.522   6.355   7.343  0.0653 -0.4276 -0.3235
 4096TIP3    H133847   1.582   6.301   7.291  0.5285 -0.2678  0.0349
 4096TIP3    H233848   1.579   6.402   7.404 -0.2868  0.7155 -0.8380
 4097TIP3   OH233849   4.180   2.828   8.660 -0.0746  0.0325 -0.1519
 4097TIP3    H133850   4.178   2.908   8.712 -3.7507 -1.3952  2.2513
 4097TIP3    H233851   4.248   2.775   8.700  0.2080  0.7024  0.2723
 4098TIP3   OH233852   2.461   5.035   7.137 -0.2174 -0.0441  0.3302
 4098TIP3    H133853   2.540   5.089   7.148 -0.4861  0.4594 -0.1800
 4098TIP3    H233854   2.396   5.095   7.102 -0.3649 -0.8267 -0.7767
 4099TIP3   OH233855   0.119   2.958   8.161 -0.1507 -0.0684  0.1985
 4099TIP3    H133856   0.167   2.880   8.187  1.8263  1.7253  2.4470
 4099TIP3    H233857   0.165   2.991   8.084 -0.2867 -0.5053 -0.0701
 4100TIP3   OH233858   2.883   5.773   0.426 -0.2804  0.2178  0.2002
 4100TIP3    H133859   2.918   5.688   0.451  0.9073  0.3089 -1.0158
 4100TIP3    H233860   2.828   5.799   0.500  0.3868 -1.0055  1.1659
 4101TIP3   OH233861   0.349   5.431   7.616  0.1837  0.2171  0.3816
 4101TIP3    H133862   0.393   5.404   7.696  0.7951 -0.6229 -0.2106
 4101TIP3    H233863   0.406   5.498   7.578 -1.5860  2.8731  2.1076
 4102TIP3   OH233864   0.469   5.585   1.250  0.5576  0.3537 -0.3920
 4102TIP3    H133865   0.486   5.535   1.330 -0.1622  0.1504 -0.3601
 4102TIP3    H233866   0.491   5.676   1.274  2.3879  0.0011 -0.6136
 4103TIP3   OH233867   4.213   1.204   8.297 -0.6982 -0.4166 -0.1072
 4103TIP3    H133868   4.264   1.141   8.348  0.5186  0.3244 -0.3715
 4103TIP3    H233869   4.276   1.271   8.270 -1.0600 -1.2009 -3.3583
 4104TIP3   OH233870   1.458   0.736   0.391 -0.5145 -0.2582  0.3842
 4104TIP3    H133871   1.508   0.690   0.459  0.5803  0.5204  0.1413
 4104TIP3    H233872   1.367   0.725   0.416 -0.2089 -1.3768  1.0838
 4105TIP3   OH233873   4.872   0.110   8.204 -0.2932  0.0324  0.1790
 4105TIP3    H133874   4.901   0.191   8.161 -1.3821  1.1389  1.4270
 4105TIP3    H233875   4.874   0.044   8.135  0.2994  1.1996 -0.9652
 4106TIP3   OH233876   6.495   2.262   2.129 -0.1391  0.2258 -0.1939
 4106TIP3    H133877   6.445   2.224   2.201 -1.1931  1.5660 -0.1661
 4106TIP3    H233878   6.468   2.212   2.052  0.1157 -0.4609  0.1577
 4107TIP3   OH233879   6.678   6.102   0.074 -0.5810 -0.3682  0.4504
 4107TIP3    H133880   6.691   6.032   0.010  0.8493 -0.2752  0.6088
 4107TIP3    H233881   6.685   6.058   0.159 -1.2792 -0.2866  0.5571
 4108TIP3   OH233882   4.285   0.964   2.987  0.0579  0.1915  0.7844
 4108TIP3    H133883   4.319   0.880   2.957  0.4205  0.2517  1.0265
 4108TIP3    H233884   4.353   1.027   2.964 -1.7146  1.0855 -2.9003
 4109TIP3   OH233885   2.320   2.756   8.845 -0.2931  0.3492  0.7872
 4109TIP3    H133886   2.255   2.821   8.819 -0.5346 -0.5223 -0.9122
 4109TIP3    H233887   2.288   2.674   8.808 -0.1429 -0.8510  3.1092
 4110TIP3   OH233888   3.987   2.540   7.269 -0.2393  0.4042  0.2277
 4110TIP3    H133889   3.979   2.514   7.360 -0.2972  0.7149  0.3102
 4110TIP3    H233890   4.078   2.568   7.260 -0.2602  0.4671  0.2130
 4111TIP3   OH233891   4.640   2.868   8.641 -0.2759  0.3264 -0.1737
 4111TIP3    H133892   4.731   2.884   8.615 -0.4273  1.1442 -0.2252
 4111TIP3    H233893   4.604   2.814   8.571  0.2018 -0.1078 -0.0912
 4112TIP3   OH233894   4.001   3.594   8.337 -0.2288 -0.3887  0.3238
 4112TIP3    H133895   4.090   3.567   8.360  0.1322  0.4297 -0.0549
 4112TIP3    H233896   3.970   3.527   8.276  1.4966  1.1067 -2.4248
 4113TIP3   OH233897   0.265   0.834   7.551  0.4493  0.6606 -0.1000
 4113TIP3    H133898   0.170   0.826   7.561  0.6789 -2.5068  0.6223
 4113TIP3    H233899   0.288   0.768   7.487  2.2695  0.8039  0.3523
 4114TIP3   OH233900   0.599   3.558   0.645  0.3569  0.2129 -0.4607
 4114TIP3    H133901   0.528   3.622   0.635 -0.8328 -0.9997 -0.0273
 4114TIP3    H233902   0.678   3.612   0.655 -0.6769  1.6275  0.5492
 4115TIP3   OH233903   6.743   0.159   7.607  0.1185 -0.0120 -0.3537
 4115TIP3    H133904   6.689   0.212   7.666  0.2665  0.5856 -0.7432
 4115TIP3    H233905   6.686   0.087   7.581 -0.3657  0.3975 -0.4447
 4116TIP3   OH233906   1.333   6.008   8.060  0.0818  0.2871  0.4418
 4116TIP3    H133907   1.367   5.919   8.050  1.9427  0.9667  0.3280
 4116TIP3    H233908   1.259   6.012   7.999  0.2253 -1.0623  0.1473
 4117TIP3   OH233909   1.415   4.150   3.057  0.0737 -0.0883 -0.2138
 4117TIP3    H133910   1.472   4.080   3.026 -1.0189 -0.5609 -1.2208
 4117TIP3    H233911   1.339   4.148   2.998 -0.5786  1.1007  0.5340
 4118TIP3   OH233912   2.444   6.150   3.052 -0.4427  0.1230  0.0297
 4118TIP3    H133913   2.465   6.243   3.053  0.5767 -0.0881 -0.5246
 4118TIP3    H233914   2.518   6.108   3.096  0.9252 -0.7341 -2.8392
 4119TIP3   OH233915   2.592   5.053   6.859  0.4146  0.4787  0.3820
 4119TIP3    H133916   2.498   5.063   6.842  0.5762 -1.3664 -2.0319
 4119TIP3    H233917   2.596   5.018   6.948 -1.4144 -2.0857 -0.4307
 4120TIP3   OH233918   6.407   0.640   0.738  0.2172 -0.2349  0.5355
 4120TIP3    H133919   6.342   0.704   0.710  2.7396  3.0631  1.5347
 4120TIP3    H233920   6.491   0.684   0.724  2.1198 -3.0742  2.0481
 4121TIP3   OH233921   2.938   0.617   2.818  0.0107 -0.1534 -0.0754
 4121TIP3    H133922   2.941   0.706   2.854 -1.6616  0.4211 -1.2547
 4121TIP3    H233923   2.969   0.627   2.728  1.3863 -1.0899  0.2558
 4122TIP3   OH233924   4.504   3.954   1.481  0.5724 -0.1943  0.0375
 4122TIP3    H133925   4.545   3.914   1.405 -0.0003  1.7579 -1.3762
 4122TIP3    H233926   4.538   3.905   1.556  2.8278 -0.7988 -1.3085
 4123TIP3   OH233927   4.900   6.312   8.421 -0.4602  0.1721 -0.7647
 4123TIP3    H133928   4.988   6.337   8.450 -1.0964  1.2746  0.3200
 4123TIP3    H233929   4.892   6.349   8.333  0.6265 -1.0947 -1.4249
 4124TIP3   OH233930   0.692   3.618   1.911  0.3355 -0.1097 -0.1270
 4124TIP3    H133931   0.754   3.685   1.881 -1.2893  2.0428  1.0627
 4124TIP3    H233932   0.723   3.595   1.998  0.8388 -0.8715 -0.4990
 4125TIP3   OH233933   3.322   6.602   2.118  0.2551 -1.0147  0.0238
 4125TIP3    H133934   3.326   6.557   2.034 -2.1505  1.2677 -1.4697
 4125TIP3    H233935   3.233   6.586   2.150  0.4667 -0.1772  1.1298
 4126TIP3   OH233936   2.726   1.544   1.814 -0.2178  0.3184  0.3748
 4126TIP3    H133937   2.715   1.453   1.840 -1.1144  0.8256  1.8859
 4126TIP3    H233938   2.691   1.595   1.888 -1.1616  1.8665 -1.0625
 4127TIP3   OH233939   4.587   5.796   8.664 -0.1290 -0.2276 -0.0702
 4127TIP3    H133940   4.520   5.731   8.684  0.1079 -0.3930  0.2018
 4127TIP3    H233941   4.562   5.832   8.579 -0.9672  0.2303  0.3583
 4128TIP3   OH233942   3.224   6.161   7.637 -0.3525 -0.2678 -0.0725
 4128TIP3    H133943   3.159   6.127   7.575 -0.0688  0.0645 -0.5647
 4128TIP3    H233944   3.172   6.202   7.706 -0.6720  0.6266 -0.8181
 4129TIP3   OH233945   5.673   3.445   0.911  0.1770  0.2531  0.2087
 4129TIP3    H133946   5.696   3.509   0.978  1.0805  1.2948 -1.0517
 4129TIP3    H233947   5.693   3.488   0.828  0.0904 -1.3888 -0.7127
 4130TIP3   OH233948   6.654   2.014   7.178  0.1336  0.1919  0.0200
 4130TIP3    H133949   6.577   2.070   7.169 -0.8936 -1.3155 -1.2701
 4130TIP3    H233950   6.642   1.970   7.262  0.3210  1.0130  0.4774
 4131TIP3   OH233951   3.756   3.272   0.949  0.6475 -0.1177  0.3630
 4131TIP3    H133952   3.780   3.217   0.875  0.1841 -2.2264  1.7202
 4131TIP3    H233953   3.839   3.291   0.993  0.5557 -2.5573  1.7444
 4132TIP3   OH233954   5.458   4.553   6.874 -0.5666  0.7058 -0.0080
 4132TIP3    H133955   5.466   4.583   6.965 -2.4055  0.6579  0.2128
 4132TIP3    H233956   5.390   4.485   6.877  0.6364 -0.6082 -1.1495
 4133TIP3   OH233957   2.237   3.423   7.958  0.2512 -0.0640 -0.0470
 4133TIP3    H133958   2.310   3.484   7.962  0.6237 -0.5202  0.2468
 4133TIP3    H233959   2.224   3.408   7.864 -0.7313  1.4877 -0.1897
 4134TIP3   OH233960   2.927   1.427   1.619 -0.5909 -0.5892 -0.4212
 4134TIP3    H133961   3.021   1.414   1.633 -0.7214 -1.4500 -0.2899
 4134TIP3    H233962   2.904   1.499   1.678  0.2849  0.7234 -1.6247
 4135TIP3   OH233963   3.492   0.031   2.223 -0.5425 -0.0215  0.1674
 4135TIP3    H133964   3.565  -0.019   2.258 -1.1294 -0.7953  0.3392
 4135TIP3    H233965   3.438  -0.035   2.177 -0.7700  0.6430 -0.5485
 4136TIP3   OH233966   5.513   3.684   8.595  0.0840 -0.7420 -0.4417
 4136TIP3    H133967   5.421   3.699   8.574  0.0419 -0.1246  0.1709
 4136TIP3    H233968   5.552   3.656   8.512 -0.2893  0.6640 -1.1191
 4137TIP3   OH233969   2.303   4.513   8.591 -0.2582  0.2064 -0.2529
 4137TIP3    H133970   2.335   4.555   8.671 -1.5693  0.0363  0.3859
 4137TIP3    H233971   2.370   4.448   8.570 -0.4481 -0.5652  1.3900
 4138TIP3   OH233972   5.148   6.168   1.939  0.0418 -0.4779  0.0871
 4138TIP3    H133973   5.168   6.232   2.008  4.3807 -1.5370  0.0908
 4138TIP3    H233974   5.061   6.134   1.962 -0.1390  1.6155  3.0444
 4139TIP3   OH233975   3.514   0.636   0.479 -0.7717  0.0377 -0.7897
 4139TIP3    H133976   3.493   0.598   0.394 -0.8241  0.9082 -1.1785
 4139TIP3    H233977   3.457   0.590   0.541  0.1353 -1.4633 -1.0260
 4140TIP3   OH233978   6.290   5.397   7.032 -0.1728 -0.2721 -0.2472
 4140TIP3    H133979   6.366   5.429   6.984 -1.9430  1.1928 -2.2923
 4140TIP3    H233980   6.281   5.458   7.105 -0.2340  0.4877 -0.8714
 4141TIP3   OH233981   1.335   5.118   0.978 -0.0267 -0.5293 -0.4272
 4141TIP3    H133982   1.345   5.025   0.959  0.1027 -0.5971 -0.0288
 4141TIP3    H233983   1.258   5.145   0.927 -0.2979 -0.9405 -0.2442
 4142TIP3   OH233984   1.459   0.924   1.830  0.1980 -0.3638 -0.3900
 4142TIP3    H133985   1.485   0.874   1.752  0.8581  1.4583 -1.4000
 4142TIP3    H233986   1.539   0.968   1.857 -0.6866  1.4183 -0.5344
 4143TIP3   OH233987   0.475   3.395   0.879  0.0731 -0.3222 -0.4087
 4143TIP3    H133988   0.498   3.473   0.929  0.2820  0.0112 -1.0326
 4143TIP3    H233989   0.480   3.421   0.788 -2.7469 -0.2089 -0.6271
 4144TIP3   OH233990   0.822   0.034   8.681 -0.3717  0.2363  0.1537
 4144TIP3    H133991   0.766   0.059   8.755 -1.2908  1.8443 -1.0011
 4144TIP3    H233992   0.760   0.006   8.613  0.3821 -0.1710 -0.3769
 4145TIP3   OH233993   0.939   5.154   1.038  0.2796 -0.6172  0.6363
 4145TIP3    H133994   0.925   5.101   0.959 -0.6963 -0.4216  0.6542
 4145TIP3    H233995   1.023   5.126   1.072  1.3773  0.2215 -1.2108
 4146TIP3   OH233996   1.347   6.507   2.469 -0.2804 -0.2750 -0.6307
 4146TIP3    H133997   1.264   6.524   2.513  0.5274  1.5367  0.3213
 4146TIP3    H233998   1.414   6.536   2.532  0.9557  1.0659 -2.4435
 4147TIP3   OH233999   5.651   0.616   6.761  0.6202  0.1819  0.1472
 4147TIP3    H134000   5.558   0.622   6.779  0.1030  0.3117 -2.1527
 4147TIP3    H234001   5.694   0.621   6.846 -1.5250 -1.7143  1.4151
 4148TIP3   OH234002   6.040   1.140   1.423 -0.0131 -0.0796  0.8205
 4148TIP3    H134003   5.984   1.081   1.372  1.1624 -0.1624 -0.4353
 4148TIP3    H234004   5.992   1.154   1.505 -1.5578 -0.6430  0.0514
 4149TIP3   OH234005   5.807   3.661   1.372  0.0049  0.7209 -0.1583
 4149TIP3    H134006   5.774   3.718   1.441  0.7265  0.5572  0.3291
 4149TIP3    H234007   5.860   3.595   1.417  0.3881  0.5391 -0.8494
 4150TIP3   OH234008   5.396   3.390   7.890  0.0444 -0.1402  0.1716
 4150TIP3    H134009   5.384   3.466   7.833 -0.7010 -0.5543 -0.2357
 4150TIP3    H234010   5.409   3.316   7.830 -1.3510 -0.6825  0.5078
 4151TIP3   OH234011   5.816   3.393   7.816 -0.0580 -0.0363  0.0211
 4151TIP3    H134012   5.784   3.305   7.795  1.7999 -1.0058  1.0209
 4151TIP3    H234013   5.838   3.389   7.909 -0.6999  1.7743  0.2958
 4152TIP3   OH234014   2.360   5.607   2.470  0.0411  0.0862  0.6319
 4152TIP3    H134015   2.350   5.698   2.444  0.2835 -0.2504 -0.7303
 4152TIP3    H234016   2.337   5.605   2.563 -4.2462  0.7814 -0.2114
 4153TIP3   OH234017   4.891   1.359   0.260 -0.1076  0.5532  0.8158
 4153TIP3    H134018   4.871   1.405   0.342  0.0441  1.8390  0.1678
 4153TIP3    H234019   4.837   1.403   0.195  1.0440  0.6979 -0.0740
 4154TIP3   OH234020   2.435   1.126   7.604  0.5371 -0.5763  0.2904
 4154TIP3    H134021   2.436   1.196   7.669 -0.5992 -0.5269  0.2706
 4154TIP3    H234022   2.467   1.167   7.524 -0.7619  0.1085  0.1075
 4155TIP3   OH234023   5.735   6.373   1.485 -0.2162 -0.0034 -0.0763
 4155TIP3    H134024   5.739   6.279   1.506  1.5538  0.2578  0.9460
 4155TIP3    H234025   5.787   6.415   1.553 -0.8230  1.7245 -0.6277
 4156TIP3   OH234026   3.317   1.872   2.454 -0.2013  0.0076 -0.3582
 4156TIP3    H134027   3.407   1.904   2.447  0.0001 -0.1037  1.2369
 4156TIP3    H234028   3.264   1.938   2.409  0.6549  0.1495 -1.1876
 4157TIP3   OH234029   4.380   3.391   0.670  0.0493 -0.0719 -0.0278
 4157TIP3    H134030   4.390   3.375   0.763 -1.3530 -0.2427  0.1208
 4157TIP3    H234031   4.289   3.419   0.660  0.1410 -0.1756 -1.3556
 4158TIP3   OH234032   4.792   5.514   8.852  0.5559 -0.2823 -0.0272
 4158TIP3    H134033   4.821   5.568   8.779  2.3247 -1.9967 -0.6899
 4158TIP3    H234034   4.757   5.435   8.810 -0.8542 -0.1876  0.9322
 4159TIP3   OH234035   5.184   6.681   2.423 -0.6300  0.2764  0.2183
 4159TIP3    H134036   5.174   6.586   2.415 -1.1037  0.4673 -2.9908
 4159TIP3    H234037   5.276   6.697   2.405  0.1868  0.3149  3.8268
 4160TIP3   OH234038   6.656   3.431   1.930 -0.5567  0.6187  0.1916
 4160TIP3    H134039   6.739   3.386   1.942 -0.6619 -0.0406 -1.2895
 4160TIP3    H234040   6.664   3.476   1.846 -2.3755 -1.1805 -1.0624
 4161TIP3   OH234041   1.745   1.589   8.753 -0.4005 -0.0801 -0.2943
 4161TIP3    H134042   1.735   1.504   8.796  1.8637 -0.5963 -0.6553
 4161TIP3    H234043   1.724   1.572   8.661 -0.4061 -0.1297 -0.2838
 4162TIP3   OH234044   4.603   2.863   1.818 -0.4887 -0.1448 -0.3215
 4162TIP3    H134045   4.604   2.776   1.777  1.0661 -0.5532  0.5116
 4162TIP3    H234046   4.654   2.852   1.898  0.8039  1.8027 -0.8027
 4163TIP3   OH234047   2.332   0.297   0.030 -0.2463 -0.3165 -0.3411
 4163TIP3    H134048   2.298   0.355  -0.038 -0.2645  2.4727  1.8474
 4163TIP3    H234049   2.414   0.337   0.058  0.6068 -2.3018  0.2073
 4164TIP3   OH234050   3.986   0.097   0.335  0.1018  0.0460 -0.3588
 4164TIP3    H134051   4.020   0.094   0.425  0.4729 -1.0053 -0.5170
 4164TIP3    H234052   4.063   0.086   0.280 -0.4780 -3.6318 -0.7159
 4165TIP3   OH234053   4.854   0.323   8.910 -0.6975 -0.2389  0.1896
 4165TIP3    H134054   4.770   0.349   8.948 -0.9054  0.3871 -0.6747
 4165TIP3    H234055   4.836   0.316   8.816  0.2527  0.0522 -0.0188
 4166TIP3   OH234056   2.038   0.591   2.531  0.5142  0.1306  0.1450
 4166TIP3    H134057   2.090   0.610   2.609 -1.2626  1.7954  1.0136
 4166TIP3    H234058   2.102   0.588   2.460  1.8353  2.4038  1.1192
 4167TIP3   OH234059   5.613   6.612   8.062 -0.2784  0.1759 -0.1901
 4167TIP3    H134060   5.621   6.706   8.075  0.5254  0.1071 -0.1055
 4167TIP3    H234061   5.533   6.588   8.109 -0.3689  0.7826 -0.0284
 4168TIP3   OH234062   5.420   5.081   0.094 -0.4957 -0.2093 -0.3600
 4168TIP3    H134063   5.511   5.099   0.071  0.3022 -1.4936  1.5735
 4168TIP3    H234064   5.408   4.988   0.073 -0.8705 -0.4424  0.7975
 4169TIP3   OH234065   3.884   2.549   1.129  0.4831  0.0473  0.4397
 4169TIP3    H134066   3.828   2.485   1.173  2.0351 -1.8121 -0.1786
 4169TIP3    H234067   3.933   2.590   1.201 -0.1697  0.2246  0.7955
 4170TIP3   OH234068   6.665   6.089   0.592 -0.8194 -0.4675  0.3771
 4170TIP3    H134069   6.586   6.101   0.644 -0.5541  1.2992  0.4499
 4170TIP3    H234070   6.725   6.042   0.651 -0.6490  1.1734  1.6016
 4171TIP3   OH234071   0.045   1.355   1.235  0.3134  0.3638  0.1482
 4171TIP3    H134072   0.089   1.434   1.204 -0.7728  0.7032 -0.5776
 4171TIP3    H234073  -0.046   1.367   1.210  0.2733 -1.5339 -0.8331
 4172TIP3   OH234074   4.829   6.032   0.416 -0.4124  0.5037  0.1739
 4172TIP3    H134075   4.787   5.949   0.436  0.0772  0.3609  0.6198
 4172TIP3    H234076   4.851   6.069   0.501  0.2339  0.6416 -0.0501
 4173TIP3   OH234077   2.387   1.441   6.933  0.9393  0.4421  0.2580
 4173TIP3    H134078   2.293   1.457   6.938  0.5178 -1.6022 -0.1189
 4173TIP3    H234079   2.420   1.510   6.876 -0.4370  0.8488 -0.0880
 4174TIP3   OH234080   6.536   2.354   7.824  0.5724 -0.1006 -0.4841
 4174TIP3    H134081   6.496   2.275   7.861  0.7814  0.3864  0.8720
 4174TIP3    H234082   6.560   2.406   7.901  2.5821  0.2277 -1.2740
 4175TIP3   OH234083   5.335   4.264   0.965  0.4185 -0.1378 -0.5441
 4175TIP3    H134084   5.332   4.171   0.947 -1.0405 -0.0135 -1.0318
 4175TIP3    H234085   5.380   4.302   0.889 -0.3901 -0.2818 -1.1049
 4176TIP3   OH234086   5.079   3.886   1.719  0.3635 -0.2329 -0.2458
 4176TIP3    H134087   5.025   3.956   1.755 -1.3869 -0.7614 -1.6880
 4176TIP3    H234088   5.065   3.891   1.624  1.4218 -1.5624 -0.5141
 4177TIP3   OH234089   0.046   6.668   8.196  0.1440 -0.2338 -0.0723
 4177TIP3    H134090   0.128   6.622   8.178 -0.7374 -2.0961  0.3871
 4177TIP3    H234091   0.053   6.694   8.288  0.4667  0.1596 -0.2076
 4178TIP3   OH234092   2.161   1.796   7.839  0.0037 -0.5402 -0.6458
 4178TIP3    H134093   2.201   1.717   7.805 -0.9761 -1.2947 -0.0964
 4178TIP3    H234094   2.226   1.833   7.898  0.9669 -0.2324 -1.8603
 4179TIP3   OH234095   1.341   1.750   0.373  0.0899  0.4163  0.2357
 4179TIP3    H134096   1.265   1.692   0.363  0.0751  0.5802 -0.6908
 4179TIP3    H234097   1.372   1.733   0.462 -1.5155  0.9184  0.9382
 4180TIP3   OH234098   4.148   0.562   8.102 -0.1643  0.0010 -0.3021
 4180TIP3    H134099   4.182   0.503   8.170  2.0423  0.4398 -0.9773
 4180TIP3    H234100   4.117   0.504   8.033  0.7394 -0.3890 -0.3815
 4181TIP3   OH234101   1.298   0.115   0.061  0.1430  0.0255 -0.1741
 4181TIP3    H134102   1.319   0.025   0.084 -0.0827  0.2578  1.0596
 4181TIP3    H234103   1.206   0.125   0.087 -0.6178 -0.0772 -2.5732
 4182TIP3   OH234104   0.673   3.194   7.054 -0.3190 -1.0275 -0.0747
 4182TIP3    H134105   0.714   3.278   7.034  1.3936 -1.6772  0.5698
 4182TIP3    H234106   0.623   3.211   7.134 -2.6581  0.1417 -1.6531
 4183TIP3   OH234107   2.790   1.184   1.586  0.9878 -0.0915 -0.3223
 4183TIP3    H134108   2.825   1.272   1.603 -1.2501  0.7299  0.3845
 4183TIP3    H234109   2.790   1.141   1.672 -0.5553  0.2731 -0.1169
 4184TIP3   OH234110   3.674   1.671   0.327 -0.1692 -0.7927 -0.2920
 4184TIP3    H134111   3.662   1.765   0.343 -0.1106 -1.1198  2.1288
 4184TIP3    H234112   3.765   1.654   0.351 -0.9161 -1.8800  2.1248
 4185TIP3   OH234113   2.023   3.635   0.981  0.0546  0.4892 -0.0388
 4185TIP3    H134114   2.102   3.619   1.032 -0.8194 -0.5018  1.0336
 4185TIP3    H234115   2.043   3.714   0.930  0.4075  2.5344  3.0122
 4186TIP3   OH234116   6.703   3.269   7.744  0.3380 -0.2245  0.0308
 4186TIP3    H134117   6.705   3.356   7.785 -0.3350 -0.4226  0.5026
 4186TIP3    H234118   6.693   3.208   7.817 -0.3513 -0.6185 -0.3848
 4187TIP3   OH234119   3.113   5.877   1.642  0.1930 -0.4674  0.3735
 4187TIP3    H134120   3.106   5.965   1.607  4.9792 -0.6630 -1.8776
 4187TIP3    H234121   3.067   5.822   1.578  1.2079  0.0290 -0.8195
 4188TIP3   OH234122   3.609   4.316   8.016 -0.4209  0.7749  0.1357
 4188TIP3    H134123   3.561   4.235   7.999 -0.1417  0.4944  0.6255
 4188TIP3    H234124   3.636   4.308   8.108 -1.1996  1.8503  0.4666
 4189TIP3   OH234125   0.396   5.483   1.711  0.5987 -0.5762  0.8012
 4189TIP3    H134126   0.409   5.577   1.702  2.8676 -1.0147 -1.6413
 4189TIP3    H234127   0.405   5.466   1.805  2.0688  1.4110  1.0620
 4190TIP3   OH234128   3.716   0.921   2.016 -0.0031  0.3123 -0.2515
 4190TIP3    H134129   3.629   0.928   1.978  0.4770  2.1257 -1.1269
 4190TIP3    H234130   3.744   0.831   1.996 -1.6355 -0.2817  0.0271
 4191TIP3   OH234131   3.658   6.557   1.354 -0.4332 -0.0023  0.9466
 4191TIP3    H134132   3.704   6.475   1.369 -0.3186 -0.1118  0.0587
 4191TIP3    H234133   3.582   6.532   1.301  0.3638  0.6400 -0.5528
 4192TIP3   OH234134   5.184   2.196   7.679 -0.7237 -0.4033  0.0881
 4192TIP3    H134135   5.265   2.197   7.730 -0.7522  1.1894  0.1498
 4192TIP3    H234136   5.197   2.126   7.615  1.3245  0.7460 -0.8431
 4193TIP3   OH234137   1.175   2.668   0.795 -0.2935 -0.0552  0.2725
 4193TIP3    H134138   1.254   2.715   0.765 -0.1804 -0.4336 -0.0383
 4193TIP3    H234139   1.114   2.737   0.820  0.5449  0.2310  1.6072
 4194TIP3   OH234140   5.966   5.789   0.494  0.2652  0.0850 -0.6115
 4194TIP3    H134141   5.876   5.788   0.462  0.0818  1.5114 -0.2434
 4194TIP3    H234142   5.968   5.862   0.557  0.5749 -2.6507  2.8273
 4195TIP3   OH234143   2.269   3.206   7.197 -0.1948 -0.2179 -0.3407
 4195TIP3    H134144   2.280   3.119   7.234  2.1478  0.1357 -0.0349
 4195TIP3    H234145   2.284   3.266   7.270 -2.4748  0.4990 -0.3852
 4196TIP3   OH234146   1.391   4.806   8.491 -0.3573  0.0373  0.6509
 4196TIP3    H134147   1.475   4.836   8.457  0.6061 -2.3426  0.7377
 4196TIP3    H234148   1.331   4.878   8.472  1.2217  0.9429 -1.3540
 4197TIP3   OH234149   5.109   2.098   0.016  0.3596  0.3812  0.5744
 4197TIP3    H134150   5.095   2.175  -0.039  0.3177 -0.5325 -0.7596
 4197TIP3    H234151   5.200   2.105   0.045  0.6104  0.5160 -0.2313
 4198TIP3   OH234152   3.910   2.740   2.298 -0.5166 -0.1302 -0.1205
 4198TIP3    H134153   3.986   2.724   2.354  0.2714 -0.8012 -1.3297
 4198TIP3    H234154   3.926   2.826   2.259 -0.3372 -0.2958 -0.4183
 4199TIP3   OH234155   5.388   6.497   1.781  0.2179 -0.1506 -0.2486
 4199TIP3    H134156   5.381   6.402   1.769 -0.3436 -0.1070 -0.2723
 4199TIP3    H234157   5.420   6.508   1.870 -1.4052 -0.3288  0.3880
 4200TIP3   OH234158   6.570   4.923   2.590 -0.1732 -0.4902 -0.0266
 4200TIP3    H134159   6.639   4.919   2.657  0.1533  1.1304 -0.2382
 4200TIP3    H234160   6.605   4.980   2.522 -1.4788 -0.1533 -0.4443
 4201TIP3   OH234161   1.035   5.964   8.001 -0.2773 -0.0065 -0.0686
 4201TIP3    H134162   0.945   5.941   7.977 -0.0406  0.0526 -1.0895
 4201TIP3    H234163   1.041   5.948   8.095 -1.6987  1.0909  0.2432
 4202TIP3   OH234164   4.373   5.467   1.075  0.2629  0.0247  0.0148
 4202TIP3    H134165   4.295   5.494   1.124  0.5034 -0.3400  0.6058
 4202TIP3    H234166   4.414   5.549   1.048  0.7163  0.2765  1.3692
 4203TIP3   OH234167   5.768   1.644   2.030 -0.1834 -0.0066 -0.1402
 4203TIP3    H134168   5.821   1.606   1.960 -0.3015 -0.0526 -0.2054
 4203TIP3    H234169   5.677   1.624   2.005 -0.2809  0.8629 -0.5090
 4204TIP3   OH234170   2.537   2.059   0.820 -0.5186  0.7107 -0.2942
 4204TIP3    H134171   2.629   2.049   0.799  0.0577  2.5147  1.0555
 4204TIP3    H234172   2.502   1.970   0.822  0.7170  0.0929 -2.6650
 4205TIP3   OH234173   1.820   0.042   2.251  0.3487  0.4673 -0.2363
 4205TIP3    H134174   1.737   0.019   2.209  0.4884 -0.2851 -0.1258
 4205TIP3    H234175   1.816   0.137   2.263  0.5864  0.8080 -2.5353
 4206TIP3   OH234176   0.942   1.312   8.254  0.0308 -0.2238 -0.5110
 4206TIP3    H134177   0.939   1.282   8.345  1.3276  0.3208 -0.2592
 4206TIP3    H234178   0.903   1.241   8.204  3.1919 -2.5723  0.0257
 4207TIP3   OH234179   5.960   0.791   8.625 -0.5295  0.2281  0.2899
 4207TIP3    H134180   5.933   0.741   8.548  0.7994 -0.6822  0.3753
 4207TIP3    H234181   5.884   0.845   8.646 -1.5458 -0.7881 -0.6088
 4208TIP3   OH234182   4.536   0.459   8.525 -0.7842 -0.2380  0.1543
 4208TIP3    H134183   4.488   0.382   8.558  0.6760 -0.6569  1.4288
 4208TIP3    H234184   4.526   0.524   8.595  1.0392 -0.5797  0.7822
 4209TIP3   OH234185   5.052   5.555   1.532 -0.2549 -0.3298  0.0052
 4209TIP3    H134186   5.111   5.518   1.598 -0.3020 -0.7971 -0.2066
 4209TIP3    H234187   5.099   5.544   1.450 -0.7091 -0.8593 -0.1873
 4210TIP3   OH234188   3.970   1.730   8.373  0.2443 -0.4973  0.2229
 4210TIP3    H134189   3.957   1.797   8.440 -0.3790 -0.6649  0.2783
 4210TIP3    H234190   3.888   1.680   8.373  0.9541 -1.7018  0.6622
 4211TIP3   OH234191   2.131   1.223   7.447  0.0436 -0.3797  0.2642
 4211TIP3    H134192   2.052   1.237   7.395  0.3602 -0.8620 -0.3478
 4211TIP3    H234193   2.149   1.130   7.439  0.5239 -0.3196  0.6261
 4212TIP3   OH234194   3.408   2.166   2.043 -0.9233  1.2857 -0.6021
 4212TIP3    H134195   3.500   2.145   2.058 -1.8681 -1.8941  1.7266
 4212TIP3    H234196   3.390   2.134   1.955 -0.0294  1.0611 -0.7117
 4213TIP3   OH234197   0.780   5.306   8.741 -0.2661  0.3979  0.0551
 4213TIP3    H134198   0.864   5.261   8.739  0.2043  1.0632  2.2609
 4213TIP3    H234199   0.720   5.247   8.694  1.0381 -0.8870 -0.0615
 4214TIP3   OH234200   0.927   3.640   7.694 -0.8178  0.3363 -0.4069
 4214TIP3    H134201   0.878   3.713   7.730 -0.4433  1.4131 -1.9548
 4214TIP3    H234202   0.914   3.647   7.599 -2.0540 -2.5388 -0.5527
 4215TIP3   OH234203   5.667   4.877   0.213  0.6597  0.0062 -0.5341
 4215TIP3    H134204   5.762   4.869   0.200  0.3426 -1.3112 -2.4838
 4215TIP3    H234205   5.631   4.867   0.125 -1.4261 -1.7375  0.4379
 4216TIP3   OH234206   2.110   3.965   0.688  0.8024  0.5681  0.0945
 4216TIP3    H134207   2.019   3.989   0.673  0.9471  1.0571  0.0026
 4216TIP3    H234208   2.121   3.970   0.783  0.6170  0.0838  0.1429
 4217TIP3   OH234209   4.836   5.826   8.483 -0.3946 -0.6335 -0.3772
 4217TIP3    H134210   4.840   5.911   8.440 -2.0622 -0.8113 -0.9494
 4217TIP3    H234211   4.841   5.845   8.577  0.5263 -0.0312 -0.5379
 4218TIP3   OH234212   4.705   1.400   2.317  0.2007  0.5987 -0.1321
 4218TIP3    H134213   4.619   1.412   2.358  0.2530  0.2452  0.0918
 4218TIP3    H234214   4.703   1.309   2.285 -0.0279  1.0242 -1.3699
 4219TIP3   OH234215   0.837   2.288   1.334 -0.2124  0.0907  0.3445
 4219TIP3    H134216   0.920   2.335   1.331 -0.9813  1.4574 -0.4852
 4219TIP3    H234217   0.841   2.229   1.258 -0.4640  1.0025 -0.3913
 4220TIP3   OH234218   0.721   2.549   1.926  0.4299  0.1742  0.1852
 4220TIP3    H134219   0.763   2.553   2.012  0.2751 -0.9068  0.3214
 4220TIP3    H234220   0.748   2.630   1.883  2.1471 -0.1717  0.5065
 4221TIP3   OH234221   0.877   4.961   7.198  0.2653 -0.0621  0.0760
 4221TIP3    H134222   0.928   4.943   7.118 -0.1696  0.0483 -0.2281
 4221TIP3    H234223   0.896   5.052   7.218 -1.6152  0.7189 -1.3787
 4222TIP3   OH234224   4.923   0.932   8.541 -0.1771 -0.2207 -0.3096
 4222TIP3    H134225   4.913   0.903   8.451  0.7685  0.8973 -0.8053
 4222TIP3    H234226   4.992   0.999   8.537 -0.9528  0.7071  1.0532
 4223TIP3   OH234227   3.448   4.235   8.667  0.2991 -0.2728  0.0557
 4223TIP3    H134228   3.478   4.199   8.750  0.3746 -2.4718 -0.8494
 4223TIP3    H234229   3.513   4.301   8.643 -1.1026  2.3938  2.9357
 4224TIP3   OH234230   0.163   6.203   0.269 -0.1385  0.3315 -0.4851
 4224TIP3    H134231   0.178   6.141   0.198  0.0204  0.8344 -0.8978
 4224TIP3    H234232   0.132   6.283   0.225  0.9155  0.9770 -0.0835
 4225TIP3   OH234233   5.653   1.512   0.965 -0.2445 -0.7959  0.5277
 4225TIP3    H134234   5.558   1.508   0.975 -0.4191 -0.3328 -0.7295
 4225TIP3    H234235   5.681   1.579   1.028 -0.9000 -0.1291  0.1372
 4226TIP3   OH234236   0.070   6.555   1.374  0.4849  0.4038  0.1960
 4226TIP3    H134237   0.054   6.506   1.454  0.1202  1.4626  0.7982
 4226TIP3    H234238  -0.008   6.610   1.364 -0.8290 -1.7270 -2.4719
 4227TIP3   OH234239   4.713   5.958   1.853  0.3167 -0.3983 -0.3729
 4227TIP3    H134240   4.652   6.005   1.910 -0.4739 -0.9337 -0.7624
 4227TIP3    H234241   4.789   5.943   1.908 -0.7981 -1.7671  0.8894
 4228TIP3   OH234242   2.336   2.464   8.516 -0.2907 -0.8074  0.1522
 4228TIP3    H134243   2.295   2.467   8.429 -0.8549 -1.2632  0.3925
 4228TIP3    H234244   2.269   2.500   8.575  0.2538 -0.0884  0.3439
 4229TIP3   OH234245   2.533   2.700   1.474  0.0378 -0.8435  0.2428
 4229TIP3    H134246   2.573   2.614   1.485  1.9592 -0.1608 -0.9185
 4229TIP3    H234247   2.459   2.685   1.415 -0.0933 -1.8102  0.6478
 4230TIP3   OH234248   4.417   3.802   8.916 -0.0737 -0.2204 -0.5931
 4230TIP3    H134249   4.328   3.835   8.925 -0.1637 -0.5447 -0.2828
 4230TIP3    H234250   4.448   3.790   9.005  1.3008  2.5287 -0.5954
 4231TIP3   OH234251   3.151   0.930   8.350  0.4550 -0.2084  0.0020
 4231TIP3    H134252   3.130   0.913   8.258 -0.7016  0.4324  0.1329
 4231TIP3    H234253   3.142   1.025   8.360 -0.5363 -0.3932  1.0353
 4232TIP3   OH234254   4.404   1.515   0.925 -0.2282  0.2348 -0.5987
 4232TIP3    H134255   4.489   1.489   0.961 -0.2081  0.9870 -0.0673
 4232TIP3    H234256   4.424   1.543   0.835 -0.0984 -0.6260 -0.8438
 4233TIP3   OH234257   5.431   5.224   1.379  0.0542 -0.2878 -0.1333
 4233TIP3    H134258   5.526   5.209   1.374  0.4325  1.9607 -1.4404
 4233TIP3    H234259   5.405   5.189   1.464  2.0125 -1.1501  0.1680
 4234TIP3   OH234260   2.812   6.292   0.189  0.4615  0.8001 -0.1613
 4234TIP3    H134261   2.814   6.267   0.096 -2.7366 -0.4308 -0.0484
 4234TIP3    H234262   2.806   6.388   0.188 -0.2151  0.7688 -1.2930
 4235TIP3   OH234263   6.447   2.137   7.070 -0.4573 -0.4915  0.6288
 4235TIP3    H134264   6.495   2.186   7.004  0.8108  0.1069  1.9569
 4235TIP3    H234265   6.419   2.057   7.025 -0.1483  0.1748 -0.7807
 4236TIP3   OH234266   1.743   5.016   7.393  0.8971 -0.2123 -0.3094
 4236TIP3    H134267   1.790   5.026   7.476 -0.3223  0.6249  0.3029
 4236TIP3    H234268   1.757   4.924   7.368 -0.9620 -1.3145  2.2572
 4237TIP3   OH234269   4.559   3.392   0.442  0.5642  0.0731 -0.0985
 4237TIP3    H134270   4.548   3.317   0.383  1.8180 -0.5406  0.4143
 4237TIP3    H234271   4.500   3.373   0.515  0.0308  0.1560 -0.5024
 4238TIP3   OH234272   1.839   5.761   8.119  0.5111 -0.4171  0.2090
 4238TIP3    H134273   1.820   5.769   8.025  0.8503  0.5893  0.2166
 4238TIP3    H234274   1.781   5.691   8.149 -0.9236  0.4694 -0.3925
 4239TIP3   OH234275   0.595   1.268   0.868  0.0672  0.1143 -0.1823
 4239TIP3    H134276   0.648   1.235   0.794  0.8040 -0.9364  0.7729
 4239TIP3    H234277   0.528   1.322   0.827  3.5943  4.1737 -1.3629
 4240TIP3   OH234278   1.687   2.694   0.442 -0.2564  0.4406 -0.0632
 4240TIP3    H134279   1.615   2.755   0.433  0.3548  1.1090 -0.5236
 4240TIP3    H234280   1.690   2.647   0.359 -0.5456 -0.0255  0.1844
 4241TIP3   OH234281   2.889   4.731   2.655  0.2499 -0.2528 -0.2477
 4241TIP3    H134282   2.926   4.813   2.689  0.8967 -0.3880 -0.6049
 4241TIP3    H234283   2.925   4.664   2.713 -0.1188 -0.3054 -0.0782
 4242TIP3   OH234284   6.256   1.198   8.219 -0.2363  0.4039 -0.4430
 4242TIP3    H134285   6.252   1.276   8.274  2.6215 -0.1760  0.8059
 4242TIP3    H234286   6.187   1.141   8.253 -1.7582  1.9581 -0.7820
 4243TIP3   OH234287   1.118   6.268   7.637 -0.2610  0.4434 -0.0284
 4243TIP3    H134288   1.059   6.193   7.646 -0.8954  1.0195  0.8249
 4243TIP3    H234289   1.164   6.273   7.721  2.5395 -1.2035 -1.3500
 4244TIP3   OH234290   1.551   6.374   8.676 -0.1140 -0.2821 -0.1171
 4244TIP3    H134291   1.559   6.468   8.664  0.5643 -0.4047 -0.6727
 4244TIP3    H234292   1.476   6.349   8.622 -1.6502  0.2295  1.6850
 4245TIP3   OH234293   5.909   6.020   2.062  0.0769 -0.3683  0.1850
 4245TIP3    H134294   5.924   6.098   2.115  1.2647 -1.1356  1.0121
 4245TIP3    H234295   5.813   6.010   2.061 -0.0278  0.3989  1.0948
 4246TIP3   OH234296   6.558   2.792   2.869  1.2089  0.1020 -0.0260
 4246TIP3    H134297   6.502   2.717   2.852  0.1673  0.7522  0.4510
 4246TIP3    H234298   6.538   2.854   2.799  1.3751  0.3068  0.1041
 4247TIP3   OH234299   5.064   2.641   1.030 -0.0785  0.4763 -0.2145
 4247TIP3    H134300   5.111   2.721   1.008  0.2995  0.9574  2.1271
 4247TIP3    H234301   4.986   2.671   1.077 -2.4860 -0.3464 -3.3292
 4248TIP3   OH234302   3.448   3.456   2.024 -0.4656 -0.5937 -0.3447
 4248TIP3    H134303   3.505   3.416   2.090 -1.6223 -1.2643  0.2718
 4248TIP3    H234304   3.477   3.547   2.020  1.3689 -1.1551 -0.8509
 4249TIP3   OH234305   5.522   6.530   2.089 -0.1390 -0.9331 -0.4438
 4249TIP3    H134306   5.510   6.539   2.184 -0.2935 -1.6958 -0.3860
 4249TIP3    H234307   5.590   6.463   2.079  2.1890  1.3469 -0.8356
 4250TIP3   OH234308   0.975   1.314   8.860 -0.0766  0.4715  0.6874
 4250TIP3    H134309   0.993   1.221   8.874  0.0825  0.5443  0.9882
 4250TIP3    H234310   0.891   1.316   8.815  0.6049  0.1155 -0.6572
 4251TIP3   OH234311   4.463   5.404   1.466 -0.6120 -0.0346 -0.4126
 4251TIP3    H134312   4.415   5.322   1.453 -1.4239  0.5322 -1.0718
 4251TIP3    H234313   4.535   5.400   1.403  0.8318 -1.3067  1.2119
 4252TIP3   OH234314   3.838   3.118   7.160  0.0045 -0.3682 -0.0444
 4252TIP3    H134315   3.768   3.169   7.201  1.4018  1.5951  0.0425
 4252TIP3    H234316   3.871   3.175   7.091  2.4726 -0.6009  0.8561
 4253TIP3   OH234317   6.002   1.908   7.302  0.2306  0.1439  0.1700
 4253TIP3    H134318   6.005   1.995   7.261  1.6474  0.2173  0.3892
 4253TIP3    H234319   5.958   1.923   7.386 -0.6746  0.3996 -0.3331
 4254TIP3   OH234320   5.409   6.270   0.107 -0.1785 -0.3777 -0.1193
 4254TIP3    H134321   5.356   6.279   0.029 -0.2407 -1.4080 -0.2109
 4254TIP3    H234322   5.376   6.337   0.167 -1.8848 -1.2710 -0.0100
 4255TIP3   OH234323   4.342   6.366   2.148 -0.1595 -0.4320 -0.4300
 4255TIP3    H134324   4.430   6.404   2.141 -0.1626 -0.6814 -2.8270
 4255TIP3    H234325   4.333   6.342   2.240  2.1840 -0.1675 -0.0724
 4256TIP3   OH234326   2.402   2.831   2.222  0.1490  0.1639 -0.5024
 4256TIP3    H134327   2.393   2.820   2.127 -0.4151  1.3753 -0.6082
 4256TIP3    H234328   2.313   2.827   2.255  0.3562 -0.3683 -0.0050
 4257TIP3   OH234329   1.966   5.310   2.499 -0.8420 -0.3768  0.2209
 4257TIP3    H134330   2.028   5.369   2.456 -2.1503  0.3950 -0.6795
 4257TIP3    H234331   1.882   5.329   2.456 -1.7073 -1.3571  1.4360
 4258TIP3   OH234332   1.393   4.700   1.985 -0.1756 -0.6648 -0.0946
 4258TIP3    H134333   1.394   4.610   2.019  1.8255 -1.2269 -1.4530
 4258TIP3    H234334   1.433   4.693   1.898  3.5018  2.0085  1.1364
 4259TIP3   OH234335   3.983   2.574   0.781  0.1672  0.2692  0.5566
 4259TIP3    H134336   3.986   2.558   0.875  1.3622  2.1586  0.8854
 4259TIP3    H234337   3.960   2.667   0.773 -0.5055  0.0083 -1.0476
 4260TIP3   OH234338   2.711   1.278   0.785  0.5039  0.0512 -0.2258
 4260TIP3    H134339   2.724   1.230   0.867  0.4868  1.2765  0.5334
 4260TIP3    H234340   2.630   1.241   0.748 -0.4252  0.5816  1.1702
 4261TIP3   OH234341   1.147   5.675   2.493 -0.9811  0.1938 -0.2454
 4261TIP3    H134342   1.239   5.699   2.507 -1.0220 -0.1955  0.7501
 4261TIP3    H234343   1.097   5.744   2.537 -1.1640  0.2166 -0.4864
 4262TIP3   OH234344   2.893   2.450   1.092  0.4947  0.0368  0.2017
 4262TIP3    H134345   2.915   2.379   1.032 -1.1270 -0.9187  0.6772
 4262TIP3    H234346   2.861   2.407   1.171  2.2052  1.2733  1.6662
 4263TIP3   OH234347   6.483   1.622   1.783 -0.4474 -0.4713  0.2588
 4263TIP3    H134348   6.571   1.659   1.796 -0.2624 -0.1584 -1.5571
 4263TIP3    H234349   6.497   1.547   1.726 -1.4122 -0.1051 -0.4835
 4264TIP3   OH234350   0.222   5.301   1.629 -0.2254 -0.1542 -0.7544
 4264TIP3    H134351   0.255   5.211   1.626 -0.8112 -0.4604  1.0893
 4264TIP3    H234352   0.298   5.355   1.650 -0.1192 -0.3678 -0.5915
 4265TIP3   OH234353   4.242   2.299   8.465  0.0338 -0.5675 -0.0711
 4265TIP3    H134354   4.337   2.296   8.475  0.0812 -1.2052 -0.6205
 4265TIP3    H234355   4.222   2.228   8.403 -0.7999 -0.4586  0.0584
 4266TIP3   OH234356   4.755   3.913   0.364 -0.3010 -0.4972 -0.4388
 4266TIP3    H134357   4.828   3.974   0.376 -0.8781  0.0229  0.5199
 4266TIP3    H234358   4.749   3.867   0.448 -1.9506  0.4354 -0.0223
 4267TIP3   OH234359   5.773   6.648   8.279  0.0936  0.0447 -0.2644
 4267TIP3    H134360   5.744   6.641   8.188  0.8933  0.5362 -0.5649
 4267TIP3    H234361   5.859   6.690   8.274  1.1679 -1.8887  0.5468
 4268TIP3   OH234362   6.371   1.969   0.164 -0.3546  0.7556 -0.1175
 4268TIP3    H134363   6.456   1.941   0.130 -0.7913  0.2000 -0.7831
 4268TIP3    H234364   6.387   1.984   0.257 -0.1269 -2.1315  0.4231
 4269TIP3   OH234365   1.663   1.105   2.353 -0.0071 -0.1552 -0.0831
 4269TIP3    H134366   1.626   1.026   2.314  1.1958 -0.2809 -1.0453
 4269TIP3    H234367   1.591   1.143   2.403 -1.2535 -0.7002 -1.3757
 4270TIP3   OH234368   3.737   1.120   1.109 -0.3946 -0.3560  0.1232
 4270TIP3    H134369   3.789   1.184   1.159 -2.0074  1.1665 -0.0378
 4270TIP3    H234370   3.801   1.074   1.055  0.9232  0.6179  0.8022
 4271TIP3   OH234371   5.944   1.468   1.548 -0.5858 -0.4789 -0.0142
 4271TIP3    H134372   6.033   1.462   1.580 -1.2959 -0.6248  2.0678
 4271TIP3    H234373   5.904   1.384   1.573 -2.0629  0.6610  1.7041
 4272TIP3   OH234374   1.165   6.439   2.023  0.1190  0.4174 -0.1225
 4272TIP3    H134375   1.098   6.502   2.048 -1.2743 -0.7244 -0.8346
 4272TIP3    H234376   1.164   6.374   2.093 -0.2826 -0.1629 -0.6587
 4273TIP3   OH234377   3.360   5.158   2.103 -0.4129  0.0637  0.0849
 4273TIP3    H134378   3.400   5.202   2.178 -0.3359 -0.1082  0.1475
 4273TIP3    H234379   3.296   5.098   2.142  0.6937 -1.1389  0.1253
 4274TIP3   OH234380   4.775   2.171   0.889  0.2322  0.2367  0.3884
 4274TIP3    H134381   4.853   2.201   0.843  0.0916  1.7155  1.0360
 4274TIP3    H234382   4.758   2.084   0.854  1.4586  0.3835 -0.6469
 4275TIP3   OH234383   0.201   3.517   0.436 -0.7416  0.2613 -0.0486
 4275TIP3    H134384   0.112   3.483   0.431 -1.1849  1.3651  0.1431
 4275TIP3    H234385   0.246   3.477   0.361 -2.3394  2.3132 -2.2505
 4276TIP3   OH234386   2.245   4.183   1.541 -0.0019 -0.2065  0.0989
 4276TIP3    H134387   2.229   4.144   1.455 -0.7616 -0.5668  0.3874
 4276TIP3    H234388   2.177   4.144   1.597  0.2339  0.3265  0.7635
 4277TIP3   OH234389   5.757   1.662   8.357 -0.1276  0.6918 -0.2139
 4277TIP3    H134390   5.689   1.657   8.424 -1.1741  0.8732 -1.2363
 4277TIP3    H234391   5.824   1.718   8.396  0.2843 -0.8666  1.4992
 4278TIP3   OH234392   2.232   6.175   0.883  0.1909  0.4507 -0.5820
 4278TIP3    H134393   2.152   6.151   0.836 -0.5247  1.1750  0.2410
 4278TIP3    H234394   2.286   6.220   0.818  0.4804 -1.1143 -1.4762
 4279TIP3   OH234395   5.129   3.926   2.688 -0.1840  0.1186 -0.3491
 4279TIP3    H134396   5.212   3.968   2.713  0.2734 -0.3649 -0.9991
 4279TIP3    H234397   5.062   3.990   2.711  0.5858  2.0053 -2.8247
 4280TIP3   OH234398   3.074   6.154   1.135  0.7831 -0.1058 -0.1151
 4280TIP3    H134399   3.053   6.092   1.205  0.7822  0.1269  0.0958
 4280TIP3    H234400   3.005   6.141   1.070 -0.2620  0.8945  0.7347
 4281TIP3   OH234401   2.856   6.131   0.939 -0.5519 -0.0766 -0.3425
 4281TIP3    H134402   2.916   6.156   0.868  0.1532  1.5347  0.7566
 4281TIP3    H234403   2.807   6.056   0.904  1.9189 -1.3074 -1.3711
 4282TIP3   OH234404   4.977   2.452   6.932 -0.1434 -0.6421  0.0735
 4282TIP3    H134405   5.067   2.469   6.904 -0.4040 -0.4036 -0.6605
 4282TIP3    H234406   4.941   2.398   6.862 -0.3526 -1.3660  0.7305
 4283TIP3   OH234407   0.242   2.097   2.740 -0.2798 -0.9965  0.0200
 4283TIP3    H134408   0.277   2.168   2.686  0.6456 -2.6309 -1.6312
 4283TIP3    H234409   0.200   2.142   2.814  0.4640  1.2384 -0.8278
 4284TIP3   OH234410   5.191   4.537   1.221  0.3195 -0.5031 -0.7459
 4284TIP3    H134411   5.150   4.522   1.306  0.6243  0.6261 -0.3828
 4284TIP3    H234412   5.265   4.595   1.240  1.2323 -1.3617 -1.5896
 4285TIP3   OH234413   2.440   1.388   7.744  0.0743  0.2239  0.2747
 4285TIP3    H134414   2.529   1.364   7.719 -0.2438  0.1026 -0.7985
 4285TIP3    H234415   2.445   1.482   7.764  0.8023 -0.1523  2.0323
 4286TIP3   OH234416   4.683   5.011   8.076  0.4269 -0.4461  0.2804
 4286TIP3    H134417   4.742   5.075   8.037 -0.1227  0.1235  0.3750
 4286TIP3    H234418   4.680   4.940   8.012 -0.1143  0.2738 -0.5149
 4287TIP3   OH234419   5.152   3.847   7.612  0.2392  0.3380 -0.2607
 4287TIP3    H134420   5.073   3.800   7.583 -0.4323  2.2970 -1.8115
 4287TIP3    H234421   5.219   3.824   7.548  0.3480  0.3216 -0.1417
 4288TIP3   OH234422   1.478   6.526   0.539  0.2084  0.3217  0.0696
 4288TIP3    H134423   1.435   6.448   0.573 -0.4020  0.5499 -0.1597
 4288TIP3    H234424   1.524   6.564   0.614 -0.3506  0.3094  0.4263
 4289TIP3   OH234425   4.395   0.198   0.040 -0.1772 -0.3327 -0.1812
 4289TIP3    H134426   4.347   0.236  -0.034  0.1889  1.4442  0.4588
 4289TIP3    H234427   4.414   0.108   0.011 -0.2783  0.2090 -2.1247
 4290TIP3   OH234428   1.549   0.155   2.352 -0.0802  0.0511 -0.1739
 4290TIP3    H134429   1.472   0.194   2.310  0.6962  1.3796 -0.4164
 4290TIP3    H234430   1.538   0.061   2.340 -0.9884  0.2892 -1.3996
 4291TIP3   OH234431   5.402   1.624   0.993 -0.1858 -0.2270 -0.1466
 4291TIP3    H134432   5.374   1.624   1.085  3.1516 -0.2743  1.0137
 4291TIP3    H234433   5.439   1.712   0.979 -1.3962  0.0666 -1.7541
 4292TIP3   OH234434   6.088   4.427   1.966 -0.7264  0.4619  0.6446
 4292TIP3    H134435   6.051   4.502   1.920 -1.1376  0.1596  0.4773
 4292TIP3    H234436   6.021   4.359   1.960 -0.7420  0.3765  1.5838
 4293TIP3   OH234437   3.501   3.266   0.503 -0.1188 -0.1220 -0.1548
 4293TIP3    H134438   3.509   3.298   0.413  1.3273  0.4252  0.1431
 4293TIP3    H234439   3.484   3.173   0.494 -0.7128  0.0563 -0.9958
 4294TIP3   OH234440   3.879   4.039   7.329  0.0199  0.0498  0.4890
 4294TIP3    H134441   3.940   4.006   7.262 -2.1366 -1.9713 -0.6469
 4294TIP3    H234442   3.866   4.131   7.307  0.3930 -0.2439 -1.0969
 4295TIP3   OH234443   0.058   4.878   2.749 -0.3742  0.1086  0.2915
 4295TIP3    H134444   0.139   4.904   2.705 -0.8628 -0.4045 -0.9510
 4295TIP3    H234445   0.026   4.958   2.790  0.2564  0.5279 -0.0083
 4296TIP3   OH234446   3.848   5.910   1.452 -0.2763  0.3948 -0.2391
 4296TIP3    H134447   3.781   5.950   1.397  0.3780 -1.0422 -2.1701
 4296TIP3    H234448   3.855   5.820   1.421  0.4371 -0.3639  1.9425
 4297TIP3   OH234449   5.853   2.388   1.334 -0.1453  0.3638 -0.2642
 4297TIP3    H134450   5.937   2.380   1.378  0.3778 -0.2180 -1.3470
 4297TIP3    H234451   5.826   2.479   1.350  0.2099  0.2737  0.9008
 4298TIP3   OH234452   0.045   2.273   1.479  0.4230 -0.8409  0.5186
 4298TIP3    H134453   0.083   2.360   1.471  0.9860 -1.1633 -0.3994
 4298TIP3    H234454   0.041   2.257   1.574 -0.6193  0.5732  0.7473
 4299TIP3   OH234455   4.262   2.647   7.702  0.5354 -0.2560 -0.0860
 4299TIP3    H134456   4.238   2.555   7.691  1.2639 -0.7083  1.6530
 4299TIP3    H234457   4.348   2.644   7.745  0.8207  1.2414 -0.4877
 4300TIP3   OH234458   0.936   3.809   0.064 -0.2476 -0.4215  0.0675
 4300TIP3    H134459   0.871   3.773   0.004 -0.2619  1.5155 -1.1611
 4300TIP3    H234460   0.996   3.858   0.009 -0.0235  1.1065  1.5762
 4301TIP3   OH234461   5.858   6.643   0.325 -0.2399 -0.2032  0.3537
 4301TIP3    H134462   5.937   6.638   0.272  1.4390 -1.1428  2.7744
 4301TIP3    H234463   5.881   6.702   0.396 -2.1510  0.4295  0.4918
 4302TIP3   OH234464   4.043   6.145   0.087  0.0619 -0.5936 -0.8122
 4302TIP3    H134465   3.965   6.089   0.088  0.3637 -1.0242  0.1171
 4302TIP3    H234466   4.075   6.139  -0.003 -0.3681 -1.2875 -0.9303
 4303TIP3   OH234467   2.177   3.004   1.702  0.7795  0.2681 -0.7731
 4303TIP3    H134468   2.265   2.964   1.704  0.9254  0.5312 -1.4602
 4303TIP3    H234469   2.182   3.076   1.764  1.3640  0.8797 -1.5012
 4304TIP3   OH234470   2.074   0.876   2.492 -0.0448  0.0750  0.1573
 4304TIP3    H134471   2.044   0.799   2.445  0.9115  1.4798 -2.9939
 4304TIP3    H234472   2.098   0.843   2.579 -1.7541 -2.7084 -0.3108
 4305TIP3   OH234473   5.557   6.137   1.065 -0.8625 -0.8324  0.0881
 4305TIP3    H134474   5.499   6.063   1.044 -2.7895  0.7268 -0.3971
 4305TIP3    H234475   5.497   6.209   1.086  0.9510  0.5159  0.8976
 4306TIP3   OH234476   5.800   3.084   8.441 -0.2078  0.1390 -0.2440
 4306TIP3    H134477   5.836   3.048   8.359 -0.4323 -0.6647  0.0015
 4306TIP3    H234478   5.849   3.040   8.510  0.2655  1.1185  0.0618
 4307TIP3   OH234479   0.802   6.123   1.372 -0.3410 -0.4146 -0.0958
 4307TIP3    H134480   0.830   6.210   1.400  1.8182 -1.3601  0.9408
 4307TIP3    H234481   0.709   6.119   1.397  0.1395  0.7223  2.1567
 4308TIP3   OH234482   5.077   5.747   0.927  0.0948 -0.2439  0.4351
 4308TIP3    H134483   5.165   5.742   0.965  0.3050  1.5149  0.2641
 4308TIP3    H234484   5.074   5.832   0.883 -0.5979 -1.6017 -2.4034
 4309TIP3   OH234485   3.869   3.390   1.392  0.0374  0.3156 -0.0180
 4309TIP3    H134486   3.796   3.339   1.427  0.9616 -1.6324 -0.7840
 4309TIP3    H234487   3.831   3.439   1.319 -0.9766  1.1512  1.0262
 4310TIP3   OH234488   2.509   3.291   0.604 -0.1918  0.0773 -0.3943
 4310TIP3    H134489   2.428   3.241   0.603  0.3440 -0.9050  1.5966
 4310TIP3    H234490   2.577   3.227   0.584  0.1999  0.7000 -1.1106
 4311TIP3   OH234491   2.028   0.182   7.223 -0.4187 -0.0584 -0.0464
 4311TIP3    H134492   1.990   0.095   7.207  1.6168 -0.7904 -1.2873
 4311TIP3    H234493   2.040   0.219   7.136  0.4007  0.7167  0.3797
 4312TIP3   OH234494   2.657   0.888   8.147  0.3574 -0.1199  0.2042
 4312TIP3    H134495   2.682   0.831   8.220  0.2484 -0.6360 -0.1522
 4312TIP3    H234496   2.570   0.920   8.170  0.7264  0.4998  0.7529
 4313TIP3   OH234497   2.637   2.597   1.944  0.4250  0.1797 -0.0705
 4313TIP3    H134498   2.604   2.509   1.925  1.6036  0.0013 -1.5558
 4313TIP3    H234499   2.559   2.653   1.941 -0.0264 -0.4554 -1.8368
 4314TIP3   OH234500   3.182   4.489   7.144 -0.2828  0.2294  0.3446
 4314TIP3    H134501   3.088   4.505   7.156 -0.2786  1.0801 -0.6245
 4314TIP3    H234502   3.213   4.564   7.093  0.4198 -1.2276 -1.4903
 4315TIP3   OH234503   4.788   3.127   0.518  0.1290 -0.1639 -0.2874
 4315TIP3    H134504   4.864   3.184   0.509 -1.3498  2.1341  0.9194
 4315TIP3    H234505   4.776   3.117   0.613  0.1629 -2.3486 -0.4449
 4316TIP3   OH234506   3.000   1.283   3.130 -0.1119 -0.3834  0.3641
 4316TIP3    H134507   3.004   1.195   3.092 -0.7866 -1.5726  2.8433
 4316TIP3    H234508   3.015   1.342   3.056  0.8694 -2.5777 -1.2976
 4317TIP3   OH234509   3.056   6.702   1.127  0.0603 -0.4041  0.0869
 4317TIP3    H134510   2.986   6.636   1.127  0.6926 -1.0967 -0.6423
 4317TIP3    H234511   3.083   6.708   1.219  0.1535 -1.3394  0.1286
 4318TIP3   OH234512   2.317   4.109   2.250 -0.7113 -1.0680 -0.2116
 4318TIP3    H134513   2.384   4.117   2.182 -2.3170  2.1302 -1.6247
 4318TIP3    H234514   2.357   4.150   2.327 -0.6504 -0.0920 -0.7489
 4319TIP3   OH234515   2.304   6.188   7.978  0.2186  0.1826 -0.2541
 4319TIP3    H134516   2.326   6.270   8.023  1.2856  0.2119 -0.8100
 4319TIP3    H234517   2.294   6.213   7.886  0.3164 -0.2683 -0.3864
 4320TIP3   OH234518   1.904   0.145   8.414  0.6564  0.2090  0.1915
 4320TIP3    H134519   1.949   0.167   8.496  2.4325  0.6909 -0.8788
 4320TIP3    H234520   1.816   0.181   8.426  1.7012  2.7878  0.8147
 4321TIP3   OH234521   6.085   0.859   8.028  0.3228 -0.3001 -0.0939
 4321TIP3    H134522   6.040   0.937   8.059  0.0720  0.4840 -2.2378
 4321TIP3    H234523   6.166   0.892   7.988 -0.1928 -1.0030 -1.8040
 4322TIP3   OH234524   4.813   5.386   1.585  0.0249 -0.5073 -0.6256
 4322TIP3    H134525   4.789   5.314   1.525  1.0798 -1.7136  0.3442
 4322TIP3    H234526   4.878   5.436   1.537  1.7487 -2.1500 -0.1299
 4323TIP3   OH234527   5.824   3.074   8.152  0.4659  0.8211  0.0290
 4323TIP3    H134528   5.817   3.169   8.144  0.4596  0.7161 -1.4642
 4323TIP3    H234529   5.782   3.040   8.073 -3.2573 -0.5938  2.3549
 4324TIP3   OH234530   4.246   6.645   2.266 -0.1907 -0.4463  0.1787
 4324TIP3    H134531   4.318   6.657   2.329 -1.5027 -0.7386  1.8083
 4324TIP3    H234532   4.259   6.556   2.233  0.8298 -0.0945 -0.4314
 4325TIP3   OH234533   2.956   5.147   8.108  0.1436 -0.1245  0.0756
 4325TIP3    H134534   2.921   5.173   8.023 -0.5163 -2.8294 -0.5925
 4325TIP3    H234535   3.050   5.163   8.101 -0.1166  1.3041 -0.4908
 4326TIP3   OH234536   2.248   4.208   0.534 -0.2050 -0.2781  0.6264
 4326TIP3    H134537   2.295   4.290   0.527 -0.2028 -0.2881  0.5145
 4326TIP3    H234538   2.188   4.208   0.459  0.5331 -0.8475  0.0158
 4327TIP3   OH234539   6.213   6.305   7.726  0.6005 -0.2921 -0.5244
 4327TIP3    H134540   6.158   6.234   7.693 -2.0727  1.4671 -0.1547
 4327TIP3    H234541   6.241   6.353   7.648  1.0980 -0.8239 -0.6768
 4328TIP3   OH234542   6.329   6.040   6.920  0.6288  0.8887 -0.7227
 4328TIP3    H134543   6.423   6.043   6.906  0.8827  2.1149  1.0127
 4328TIP3    H234544   6.299   5.970   6.862  2.8755 -0.9291  0.1294
 4329TIP3   OH234545   0.434   4.744   7.601 -0.1345 -0.3820  0.8178
 4329TIP3    H134546   0.363   4.793   7.558 -0.8516 -1.9831  0.1016
 4329TIP3    H234547   0.393   4.706   7.678  0.3948  0.0419  1.3166
 4330TIP3   OH234548   5.282   3.811   8.839 -0.8525 -0.1678  0.0438
 4330TIP3    H134549   5.256   3.730   8.882 -0.0783 -0.2279  0.4225
 4330TIP3    H234550   5.305   3.870   8.910 -0.5949  0.0940 -0.2499
 4331TIP3   OH234551   6.211   3.335   0.494 -0.4058  0.4225  0.5629
 4331TIP3    H134552   6.282   3.393   0.467  1.3437 -1.5048  0.8265
 4331TIP3    H234553   6.154   3.390   0.548  0.2978  2.2724 -0.5052
 4332TIP3   OH234554   4.610   3.079   1.602  0.2095 -0.2356  0.0615
 4332TIP3    H134555   4.692   3.031   1.613  0.0089 -0.7279 -0.5436
 4332TIP3    H234556   4.549   3.015   1.567  0.4606  0.8627 -2.6831
 4333TIP3   OH234557   0.958   0.530   0.032  0.2553  0.5283 -0.2209
 4333TIP3    H134558   0.870   0.547   0.065 -0.6125 -0.4318 -1.9027
 4333TIP3    H234559   0.950   0.538  -0.064  1.4176 -1.8963 -0.5977
 4334TIP3   OH234560   4.867   3.617   7.410  0.4607 -0.1767  0.5434
 4334TIP3    H134561   4.780   3.626   7.371  1.0863  1.9582 -0.5456
 4334TIP3    H234562   4.927   3.612   7.335  1.4252  0.4415  1.2384
 4335TIP3   OH234563   1.168   1.633   8.456 -0.3169  0.5534 -0.6654
 4335TIP3    H134564   1.256   1.647   8.491  0.1035 -0.7768 -1.1493
 4335TIP3    H234565   1.141   1.720   8.427  0.8713  0.9758 -0.5976
 4336TIP3   OH234566   1.278   0.666   2.305  0.0123  0.2458  0.6956
 4336TIP3    H134567   1.310   0.671   2.215  0.6049 -2.2523  0.6878
 4336TIP3    H234568   1.357   0.666   2.359 -0.2797  0.5626  1.1231
 4337TIP3   OH234569   0.275   4.691   0.318  0.0253  0.3112 -0.3530
 4337TIP3    H134570   0.368   4.712   0.330 -0.4727  2.4605  0.1546
 4337TIP3    H234571   0.271   4.651   0.231  1.2662  1.4931 -1.0007
 4338TIP3   OH234572   3.087   5.752   0.784 -0.6666 -0.5160 -0.0610
 4338TIP3    H134573   3.179   5.735   0.761 -0.3843 -1.5596  1.6805
 4338TIP3    H234574   3.088   5.759   0.880 -2.4789 -0.9220  0.0056
 4339TIP3   OH234575   0.656   4.102   8.220 -0.1449  0.6719  0.5354
 4339TIP3    H134576   0.732   4.081   8.275 -0.7319  1.5322  1.7112
 4339TIP3    H234577   0.677   4.187   8.182 -1.3601  1.9498  2.5427
 4340TIP3   OH234578   4.281   0.747   1.676  0.2118 -0.2181  0.1272
 4340TIP3    H134579   4.294   0.804   1.752 -1.9741 -2.2705  2.1816
 4340TIP3    H234580   4.345   0.677   1.688  1.4061  0.5808 -1.2287
 4341TIP3   OH234581   0.646   5.410   8.424  0.4216 -0.0175  0.1428
 4341TIP3    H134582   0.621   5.319   8.442  0.1545 -1.1366 -4.5468
 4341TIP3    H234583   0.568   5.461   8.448  0.1660 -1.1005  1.8140
 4342TIP3   OH234584   2.869   1.004   0.344 -0.4430  0.1551 -0.6567
 4342TIP3    H134585   2.965   1.007   0.336 -0.4953  1.6701 -1.0417
 4342TIP3    H234586   2.838   1.075   0.288 -1.7981 -0.2255 -0.4271
 4343TIP3   OH234587   4.439   2.852   1.275  0.0363 -0.4126  0.2676
 4343TIP3    H134588   4.398   2.903   1.344 -1.7014 -0.9517 -0.3275
 4343TIP3    H234589   4.512   2.807   1.318 -0.7067 -0.3586  1.6186
 4344TIP3   OH234590   1.706   1.845   8.257 -0.3523  0.0211  0.1628
 4344TIP3    H134591   1.778   1.855   8.320  0.2659  2.6677 -0.8232
 4344TIP3    H234592   1.627   1.852   8.309 -0.0505 -3.3862  1.3404
 4345TIP3   OH234593   6.689   5.527   2.197  0.3149 -0.1465  0.2270
 4345TIP3    H134594   6.605   5.487   2.174  1.2151 -1.9143 -0.2182
 4345TIP3    H234595   6.706   5.498   2.287  0.2732  0.5489  0.4672
 4346TIP3   OH234596   0.407   5.856   2.722 -0.1718  0.1687 -0.0830
 4346TIP3    H134597   0.344   5.862   2.794 -0.9260 -2.1343 -0.4546
 4346TIP3    H234598   0.471   5.792   2.752 -0.9039 -1.3925 -1.6641
 4347TIP3   OH234599   3.874   2.295   2.849 -0.1521 -0.2395  0.2936
 4347TIP3    H134600   3.868   2.371   2.907 -0.3404  0.7620 -0.9980
 4347TIP3    H234601   3.791   2.294   2.802  0.7292  0.1272 -1.3278
 4348TIP3   OH234602   2.744   2.445   1.342  0.0486  0.4570 -0.1293
 4348TIP3    H134603   2.767   2.452   1.435  0.2534  0.3017 -0.1651
 4348TIP3    H234604   2.667   2.389   1.341  0.9743 -0.8627 -0.1594
 4349TIP3   OH234605   5.202   0.539   8.082 -0.1020  0.1842  0.0663
 4349TIP3    H134606   5.211   0.535   8.178 -0.1270 -1.3089  0.0214
 4349TIP3    H234607   5.154   0.460   8.059 -0.9190  0.9905 -1.1091
 4350TIP3   OH234608   6.106   0.776   7.387 -0.0145  0.0720 -0.2862
 4350TIP3    H134609   6.121   0.710   7.319 -0.2981 -0.2511 -0.0385
 4350TIP3    H234610   6.150   0.741   7.464  0.7506  0.6826 -0.4348
 4351TIP3   OH234611   5.366   1.186   7.603  0.7402 -0.0992  1.0112
 4351TIP3    H134612   5.275   1.165   7.624 -0.7634  2.6737 -1.8734
 4351TIP3    H234613   5.392   1.120   7.539  0.0101  0.2649  0.3263
 4352TIP3   OH234614   4.516   1.861   8.259 -0.2988 -0.2449 -0.1216
 4352TIP3    H134615   4.580   1.811   8.209  0.6287  0.6241  0.1537
 4352TIP3    H234616   4.540   1.846   8.351  1.4761  2.4145 -0.0153
 4353TIP3   OH234617   1.770   5.470   0.734  0.3840 -0.3937 -0.2283
 4353TIP3    H134618   1.699   5.412   0.707 -0.4927  1.2180 -1.6108
 4353TIP3    H234619   1.731   5.558   0.732  1.8513  0.3358  1.0509
 4354TIP3   OH234620   5.625   5.557   1.249  0.1908 -0.5085  0.2558
 4354TIP3    H134621   5.538   5.518   1.241 -0.3845  1.0774 -2.6664
 4354TIP3    H234622   5.611   5.641   1.292  0.3619 -0.5427  0.3779
 4355TIP3   OH234623   4.771   3.529   7.642 -0.0112  0.0872 -0.1308
 4355TIP3    H134624   4.821   3.447   7.641 -1.6332 -0.9554 -0.8792
 4355TIP3    H234625   4.787   3.568   7.556 -1.2850 -0.8060 -0.8080
 4356TIP3   OH234626   5.562   4.913   2.184  0.3691  0.6806 -0.2893
 4356TIP3    H134627   5.581   4.881   2.272 -1.2457 -1.0726 -0.5089
 4356TIP3    H234628   5.531   5.003   2.197 -0.5026  0.2120  1.0184
 4357TIP3   OH234629   2.704   6.115   1.675 -0.2409  0.4289  0.2916
 4357TIP3    H134630   2.757   6.167   1.735  1.8319 -0.6633 -0.4890
 4357TIP3    H234631   2.675   6.040   1.727 -0.2671  0.5722  0.4850
 4358TIP3   OH234632   4.076   4.732   8.221  0.2721 -0.4571  0.2776
 4358TIP3    H134633   4.134   4.772   8.156  2.0428 -0.3237  1.8649
 4358TIP3    H234634   4.108   4.764   8.305  0.4671 -3.5347  1.5004
 4359TIP3   OH234635   3.180   1.756   1.446  0.2712 -0.3939 -0.2897
 4359TIP3    H134636   3.166   1.782   1.537  1.7055  0.0157 -0.1732
 4359TIP3    H234637   3.212   1.666   1.451  0.7014 -0.2472 -0.3576
 4360TIP3   OH234638   6.317   2.420   7.064  0.4017 -0.1234  0.1028
 4360TIP3    H134639   6.399   2.434   7.016  0.2812  1.7234  0.3757
 4360TIP3    H234640   6.258   2.488   7.031 -0.4652 -0.3275  1.1692
 4361TIP3   OH234641   2.756   5.723   1.947  0.4804  0.0881  0.4999
 4361TIP3    H134642   2.721   5.634   1.951  0.3102  0.1977  1.6944
 4361TIP3    H234643   2.688   5.777   1.986  2.0030  0.2693  3.1306
 4362TIP3   OH234644   1.429   6.650   1.761 -0.0774  0.1799  0.6699
 4362TIP3    H134645   1.464   6.652   1.672 -2.7007 -1.9457 -0.5406
 4362TIP3    H234646   1.464   6.569   1.799 -0.7452 -0.0838  0.7387
 4363TIP3   OH234647   1.829   6.538   7.752  0.2424 -0.2750  0.1678
 4363TIP3    H134648   1.898   6.478   7.781 -0.8748 -1.1620  1.0529
 4363TIP3    H234649   1.819   6.600   7.825  0.3475  0.0750 -0.1121
 4364TIP3   OH234650   5.447   1.285   0.755  0.0497 -0.7546  0.0685
 4364TIP3    H134651   5.420   1.233   0.831 -0.6078  1.1176  1.2052
 4364TIP3    H234652   5.401   1.369   0.766  3.6958  1.4534  0.3442
 4365TIP3   OH234653   5.784   3.404   1.532 -0.1467 -0.0404 -0.0055
 4365TIP3    H134654   5.813   3.369   1.616 -0.8300  2.4264  1.3375
 4365TIP3    H234655   5.690   3.384   1.529 -0.5335  1.5586  0.7540
 4366TIP3   OH234656   6.489   2.211   0.401  0.0371 -0.2625 -0.2065
 4366TIP3    H134657   6.436   2.138   0.435 -0.6626  1.5055  2.9682
 4366TIP3    H234658   6.431   2.257   0.341 -0.8269 -0.3009  0.5780
 4367TIP3   OH234659   2.872   4.308   1.786 -0.3581  0.1954 -0.4076
 4367TIP3    H134660   2.795   4.252   1.779 -0.7141  0.7422 -0.9762
 4367TIP3    H234661   2.935   4.271   1.725 -0.0658 -0.3956  0.2338
 4368TIP3   OH234662   2.420   4.227   7.563 -0.5341 -0.8051  0.4549
 4368TIP3    H134663   2.493   4.277   7.601 -0.1232 -0.2699 -0.9730
 4368TIP3    H234664   2.422   4.249   7.470 -2.6863 -0.6046  0.4080
 4369TIP3   OH234665   2.410   1.323   8.573  0.0298  0.0335 -0.0338
 4369TIP3    H134666   2.471   1.396   8.559  1.5376 -1.4100 -1.6068
 4369TIP3    H234667   2.440   1.256   8.511 -2.2680 -1.3269  0.2364
 4370TIP3   OH234668   3.094   0.821   8.096  0.5963  0.1150 -0.1063
 4370TIP3    H134669   3.177   0.826   8.048  1.1328  0.8213  0.8504
 4370TIP3    H234670   3.032   0.871   8.041  1.2106  0.9603 -0.0522
 4371TIP3   OH234671   4.710   5.073   1.796  0.4214  0.5884 -0.1399
 4371TIP3    H134672   4.616   5.080   1.811  0.7553  1.2434  1.9932
 4371TIP3    H234673   4.731   4.983   1.819  0.4766  0.7975  0.6928
 4372TIP3   OH234674   3.348   4.938   6.903  0.1753 -0.0898 -0.0375
 4372TIP3    H134675   3.265   4.985   6.901 -0.7313 -1.6498 -2.0106
 4372TIP3    H234676   3.396   4.971   6.827  1.6681  1.1988  1.3816
 4373TIP3   OH234677   2.556   2.611   8.680 -0.3043  0.8519  0.1818
 4373TIP3    H134678   2.596   2.524   8.682  1.7436  1.7352  0.9254
 4373TIP3    H234679   2.470   2.598   8.640 -0.3156 -1.5981  0.8725
 4374TIP3   OH234680   4.388   2.430   7.431  0.2903  0.3499  0.0018
 4374TIP3    H134681   4.339   2.482   7.367 -1.0635 -0.5889  0.2448
 4374TIP3    H234682   4.331   2.425   7.507  0.4111 -1.3957  0.0246
 4375TIP3   OH234683   1.664   0.484   7.817 -0.0053  0.3277 -0.0977
 4375TIP3    H134684   1.728   0.515   7.880 -1.6414  0.1452  1.7500
 4375TIP3    H234685   1.631   0.564   7.775 -0.6177  0.7006  1.0488
 4376TIP3   OH234686   4.911   3.088   1.803  0.0925 -0.2707  0.1757
 4376TIP3    H134687   4.966   3.021   1.762  0.5660  0.8343 -1.0720
 4376TIP3    H234688   4.881   3.142   1.730  0.1952  1.2140  1.1879
 4377TIP3   OH234689   2.204   4.808   2.406 -0.2861  0.0739  0.1915
 4377TIP3    H134690   2.115   4.842   2.392 -0.7456 -1.1569  0.0134
 4377TIP3    H234691   2.256   4.885   2.428 -1.4565  0.7757  0.5658
 4378TIP3   OH234692   3.476   2.296   7.479  0.0512 -0.3532  0.4308
 4378TIP3    H134693   3.473   2.351   7.557  0.9379  0.8616 -0.3578
 4378TIP3    H234694   3.570   2.285   7.462 -0.1387 -0.6539 -0.4403
 4379TIP3   OH234695   1.626   5.804   2.227  0.3274 -0.1175 -0.2172
 4379TIP3    H134696   1.650   5.749   2.153  2.0006  1.3831 -0.8694
 4379TIP3    H234697   1.631   5.746   2.303 -0.3546 -1.4147 -1.1282
 4380TIP3   OH234698   1.218   6.210   8.244 -0.2359  0.1413  0.0741
 4380TIP3    H134699   1.292   6.159   8.211 -0.1314  0.6868 -0.5727
 4380TIP3    H234700   1.143   6.152   8.234  0.0390 -0.2526  0.3027
 4381TIP3   OH234701   3.167   0.767   0.640 -0.0554 -0.0861 -0.6147
 4381TIP3    H134702   3.149   0.812   0.558 -1.4197  0.8260  0.1350
 4381TIP3    H234703   3.194   0.837   0.700  1.1495 -0.7680 -0.3171
 4382TIP3   OH234704   6.707   1.529   2.015  0.3428 -0.1671  0.1978
 4382TIP3    H134705   6.702   1.454   1.956 -0.0574 -0.6489  0.8295
 4382TIP3    H234706   6.617   1.563   2.019  0.1592 -0.7414  1.2812
 4383TIP3   OH234707   3.162   0.508   1.718  0.4865  0.2203 -0.2126
 4383TIP3    H134708   3.076   0.514   1.675  0.4062  0.0505 -0.0754
 4383TIP3    H234709   3.193   0.420   1.699  0.4983  0.1801 -0.0113
 4384TIP3   OH234710   6.279   4.986   7.636 -0.3533  0.2153 -0.5424
 4384TIP3    H134711   6.311   4.897   7.621  0.2793  0.4731 -0.7635
 4384TIP3    H234712   6.357   5.040   7.634 -0.8281  0.9082 -1.4453
 4385TIP3   OH234713   3.875   2.974   1.821 -0.1372 -0.4297  0.4243
 4385TIP3    H134714   3.809   2.929   1.874  0.6214 -0.6280  1.2361
 4385TIP3    H234715   3.826   3.013   1.749 -1.1825 -0.3189  1.1711
 4386TIP3   OH234716   1.952   3.585   1.922 -0.2674 -0.2452  0.3599
 4386TIP3    H134717   1.961   3.507   1.978  1.5690 -2.1532 -2.3303
 4386TIP3    H234718   1.860   3.585   1.896  0.1774 -3.2635 -1.7252
 4387TIP3   OH234719   1.765   4.805   8.141  0.4740 -0.1341  0.8567
 4387TIP3    H134720   1.787   4.764   8.057 -2.1899  0.1008 -0.0486
 4387TIP3    H234721   1.688   4.757   8.171 -0.0574  1.3655  1.9770
 4388TIP3   OH234722   2.571   4.455   7.776  0.6456 -0.4602 -0.5921
 4388TIP3    H134723   2.583   4.400   7.854  1.7711 -0.3364 -0.6621
 4388TIP3    H234724   2.479   4.483   7.780  1.0053  0.5959  1.3950
 4389TIP3   OH234725   0.555   0.448   1.179 -0.0044  1.1549  0.7133
 4389TIP3    H134726   0.589   0.415   1.096  0.3194  2.0403  0.4758
 4389TIP3    H234727   0.460   0.434   1.174  0.0841  0.6329  0.4661
 4390TIP3   OH234728   5.260   3.492   0.059 -0.3095 -0.5214  0.4405
 4390TIP3    H134729   5.333   3.474   0.118  0.5449  2.2060  0.3378
 4390TIP3    H234730   5.296   3.479  -0.029 -0.4993 -0.9623  0.4250
 4391TIP3   OH234731   5.626   1.087   0.317 -0.6137  0.0171 -0.0556
 4391TIP3    H134732   5.572   1.153   0.359 -1.3905 -0.7026  0.1184
 4391TIP3    H234733   5.694   1.066   0.381 -0.1531  0.8849 -0.2514
 4392TIP3   OH234734   3.671   4.973   8.345  0.1869 -0.2520  0.5016
 4392TIP3    H134735   3.618   4.897   8.323 -0.8475  0.3736  0.7176
 4392TIP3    H234736   3.761   4.943   8.341 -0.1065 -1.0141 -1.2411
 4393TIP3   OH234737   4.600   0.159   8.618  0.0937 -0.2165 -0.2752
 4393TIP3    H134738   4.672   0.219   8.634 -0.8647  1.3787 -1.6536
 4393TIP3    H234739   4.603   0.142   8.524 -0.5952 -1.0980 -0.1540
 4394TIP3   OH234740   0.086   0.947   0.072  0.3391  0.2371 -0.2060
 4394TIP3    H134741   0.154   0.994   0.023 -1.6302  2.1875 -1.2656
 4394TIP3    H234742   0.116   0.856   0.074  1.6508  0.5079 -3.0263
 4395TIP3   OH234743   5.906   0.817   0.128 -0.1758 -0.0962 -0.0544
 4395TIP3    H134744   5.948   0.751   0.074  0.6979 -0.6029  1.1884
 4395TIP3    H234745   5.920   0.787   0.218 -0.6198  1.2728  0.5039
 4396TIP3   OH234746   0.045   4.130   7.824 -0.2629 -0.2673  0.0977
 4396TIP3    H134747   0.092   4.132   7.740  0.3271  1.0902  0.4380
 4396TIP3    H234748  -0.033   4.077   7.806 -0.8117  1.0339 -1.6768
 4397TIP3   OH234749   5.710   4.872   0.838  1.2200 -0.3552 -0.3501
 4397TIP3    H134750   5.776   4.899   0.903 -0.5112  0.3395  1.2022
 4397TIP3    H234751   5.713   4.942   0.772  0.9197  0.5535  0.5640
 4398TIP3   OH234752   6.434   2.237   1.690 -0.1584  0.4202  0.3741
 4398TIP3    H134753   6.435   2.183   1.769  0.5311  0.3510  0.3267
 4398TIP3    H234754   6.360   2.204   1.639  0.4377 -0.7032  0.2025
 4399TIP3   OH234755   1.570   5.178   8.454 -0.1923 -0.0716  0.3595
 4399TIP3    H134756   1.602   5.098   8.413  1.0090  1.5753 -2.1844
 4399TIP3    H234757   1.496   5.205   8.400 -0.4169  0.6807  1.0151
 4400TIP3   OH234758   0.640   2.204   1.510 -0.4808  0.3942  0.0472
 4400TIP3    H134759   0.715   2.233   1.459  1.1901 -1.4368  1.3435
 4400TIP3    H234760   0.588   2.151   1.449  0.3899 -0.0473 -0.3226
 4401TIP3   OH234761   5.916   1.896   0.285 -0.7433 -0.0914  0.1176
 4401TIP3    H134762   5.991   1.838   0.271  0.5313  0.7722  2.7283
 4401TIP3    H234763   5.942   1.978   0.244 -0.1404  0.2552  1.1536
 4402TIP3   OH234764   4.846   1.225   8.114  0.5524 -0.0463 -0.4404
 4402TIP3    H134765   4.883   1.235   8.202  1.2643 -0.9104 -0.6205
 4402TIP3    H234766   4.816   1.312   8.090 -1.0245 -0.0731  1.2379
 4403TIP3   OH234767   0.528   6.676   0.023 -0.2157 -0.0091 -0.2148
 4403TIP3    H134768   0.496   6.614   0.090 -0.0938  0.1156 -0.0415
 4403TIP3    H234769   0.585   6.623  -0.033  1.1747  0.2783  0.8603
 4404TIP3   OH234770   1.190   3.581   0.358 -0.2558 -0.4951 -0.2518
 4404TIP3    H134771   1.113   3.618   0.402 -0.4905 -0.4101 -0.7214
 4404TIP3    H234772   1.153   3.529   0.286  0.0922 -1.2265  0.0930
 4405TIP3   OH234773   5.670   5.609   0.379  0.4498  0.5039  0.3707
 4405TIP3    H134774   5.656   5.675   0.447 -2.4083 -1.6806  2.2059
 4405TIP3    H234775   5.620   5.640   0.304  0.7244  1.3060  0.5156
 4406TIP3   OH234776   0.395   0.898   1.332 -0.2533 -0.0712  0.3400
 4406TIP3    H134777   0.450   0.953   1.387 -0.8691 -0.8612  1.8007
 4406TIP3    H234778   0.317   0.951   1.316 -0.0526  0.1776  0.1732
 4407TIP3   OH234779   5.417   0.304   0.850  0.2402 -0.5943 -0.0090
 4407TIP3    H134780   5.483   0.367   0.879  0.5272 -0.3890 -1.0527
 4407TIP3    H234781   5.459   0.219   0.859 -0.0087 -0.6149  1.0338
 4408TIP3   OH234782   3.239   5.276   1.652 -0.2864 -0.3315 -0.8050
 4408TIP3    H134783   3.245   5.180   1.659 -2.1100 -0.3839  1.1262
 4408TIP3    H234784   3.191   5.290   1.570  1.0868 -0.9831 -1.7542
 4409TIP3   OH234785   0.897   2.843   1.366  0.3348  0.2084  0.4291
 4409TIP3    H134786   0.964   2.874   1.305 -1.3774 -0.7254 -2.1213
 4409TIP3    H234787   0.922   2.753   1.385  0.4294  0.2301  0.4087
 4410TIP3   OH234788   6.278   4.355   2.131  0.2505  0.1690  0.1954
 4410TIP3    H134789   6.222   4.384   2.059  0.6856  1.5650  0.4023
 4410TIP3    H234790   6.239   4.271   2.158 -1.0889  0.5731 -0.3765
 4411TIP3   OH234791   3.777   6.643   0.424 -0.1205 -0.2724 -0.2309
 4411TIP3    H134792   3.864   6.637   0.462  0.6709 -1.2816 -2.0292
 4411TIP3    H234793   3.791   6.630   0.330 -2.1409  0.2117 -0.6603
 4412TIP3   OH234794   1.642   1.761   2.021 -0.7293 -0.4503  0.2756
 4412TIP3    H134795   1.551   1.787   2.036 -0.4427  1.0979 -0.5427
 4412TIP3    H234796   1.663   1.796   1.934  0.8739 -0.1642  0.7589
 4413TIP3   OH234797   4.908   2.850   8.708  0.0511 -0.5145 -0.1342
 4413TIP3    H134798   4.904   2.929   8.763  1.2266 -0.2519 -0.3921
 4413TIP3    H234799   4.827   2.803   8.727  0.0377  0.0037  1.1640
 4414TIP3   OH234800   0.377   6.571   0.227 -0.4888 -0.1989  0.3306
 4414TIP3    H134801   0.326   6.592   0.306 -0.3386 -1.0903  0.6744
 4414TIP3    H234802   0.320   6.514   0.176 -0.2553 -0.3262  0.2081
 4415TIP3   OH234803   2.279   3.226   8.513 -0.3416  0.0785 -0.1438
 4415TIP3    H134804   2.360   3.278   8.512  0.5349 -1.1673  1.3047
 4415TIP3    H234805   2.211   3.289   8.537  0.0810  1.2469 -1.8143
 4416TIP3   OH234806   0.761   1.756   6.847  0.2702  0.4387  0.3147
 4416TIP3    H134807   0.682   1.810   6.855  0.8143  1.1960  0.6734
 4416TIP3    H234808   0.752   1.714   6.761 -2.2743 -2.3468  1.7862
 4417TIP3   OH234809   0.323   6.732   8.601  0.2031  0.2692 -0.2947
 4417TIP3    H134810   0.317   6.821   8.567 -0.8715  0.6931  0.9253
 4417TIP3    H234811   0.311   6.742   8.695 -0.2906 -1.2078 -0.1826
 4418TIP3   OH234812   5.510   4.557   2.186 -0.5124  0.1578  1.0300
 4418TIP3    H134813   5.596   4.568   2.145  0.3752 -0.7221  2.5496
 4418TIP3    H234814   5.460   4.505   2.124  0.4531 -0.3172  0.6234
 4419TIP3   OH234815   1.251   3.719   8.100  0.1352 -0.2349  0.4804
 4419TIP3    H134816   1.208   3.804   8.107 -1.3668 -0.9527  0.3508
 4419TIP3    H234817   1.181   3.655   8.110  0.9040 -1.4663 -1.3991
 4420TIP3   OH234818   1.816   3.122   0.873 -0.3552  0.8417  0.5048
 4420TIP3    H134819   1.902   3.081   0.884 -0.3015  0.9190  0.3660
 4420TIP3    H234820   1.817   3.196   0.933 -0.8595  0.0038  1.5939
 4421TIP3   OH234821   0.592   6.049   8.733  0.3413 -0.1926  0.1692
 4421TIP3    H134822   0.578   5.954   8.738  1.5520 -0.4611 -0.9581
 4421TIP3    H234823   0.564   6.073   8.645 -0.8114  0.6814  0.7488
 4422TIP3   OH234824   4.266   5.407   8.408  0.3770 -0.1972  0.0662
 4422TIP3    H134825   4.181   5.370   8.383  1.2350 -3.6857  1.7352
 4422TIP3    H234826   4.270   5.393   8.503  0.4362  5.4158  1.2493
 4423TIP3   OH234827   6.101   1.016   8.360  0.7527 -0.2352  0.1845
 4423TIP3    H134828   6.084   0.939   8.414 -1.0112 -1.5407 -2.1014
 4423TIP3    H234829   6.015   1.057   8.348  1.4205  1.1902 -0.0162
 4424TIP3   OH234830   3.205   1.228   7.974  0.0860 -1.3067  0.5037
 4424TIP3    H134831   3.236   1.310   7.936  0.0162 -1.9237 -0.9434
 4424TIP3    H234832   3.283   1.174   7.983  0.2302 -0.9060  2.0214
 4425TIP3   OH234833   5.246   3.685   8.582  0.1617 -0.4094  0.0296
 4425TIP3    H134834   5.178   3.619   8.593  0.7463 -0.8424  1.2552
 4425TIP3    H234835   5.232   3.747   8.654  0.1999  0.2883 -0.5483
 4426TIP3   OH234836   4.252   3.923   7.534  0.1815  0.3013  0.3923
 4426TIP3    H134837   4.342   3.919   7.568  0.4009 -0.8252 -0.2728
 4426TIP3    H234838   4.197   3.909   7.612  0.5588  1.1860  0.8341
 4427TIP3   OH234839   0.387   1.426   8.509 -0.0480  0.7018  0.5710
 4427TIP3    H134840   0.333   1.485   8.458  0.5332 -0.6002 -1.6743
 4427TIP3    H234841   0.332   1.349   8.522  1.1210 -0.6270 -1.7116
 4428TIP3   OH234842   2.414   4.037   8.853 -0.2358 -0.2014 -0.3420
 4428TIP3    H134843   2.405   4.117   8.802 -1.6650 -0.3331 -0.3367
 4428TIP3    H234844   2.329   3.995   8.848  0.0048 -0.9276  0.9831
 4429TIP3   OH234845   0.795   6.748   0.880 -0.1019 -0.5490  0.5408
 4429TIP3    H134846   0.787   6.669   0.933 -0.1241 -0.8996  0.0338
 4429TIP3    H234847   0.706   6.762   0.846  0.2298 -1.2864 -0.7110
 4430TIP3   OH234848   5.862   2.413   8.027  0.0612  0.2770  0.1312
 4430TIP3    H134849   5.868   2.329   7.980  1.1778  0.8044 -0.7252
 4430TIP3    H234850   5.772   2.441   8.014 -0.9425 -1.7051  2.1163
 4431TIP3   OH234851   6.634   1.044   0.490 -0.3960  0.0942 -0.5504
 4431TIP3    H134852   6.721   1.009   0.511 -0.5910  0.2634  0.5699
 4431TIP3    H234853   6.632   1.130   0.532 -1.9674 -0.8749  1.5185
 4432TIP3   OH234854   5.965   3.126   0.237 -0.7844  0.4783  0.4548
 4432TIP3    H134855   6.012   3.207   0.256  1.3513 -0.4006 -0.7031
 4432TIP3    H234856   6.027   3.057   0.260 -1.0671 -0.7252 -2.0334
 4433TIP3   OH234857   5.333   6.221   8.749  0.1293  0.0626 -0.1156
 4433TIP3    H134858   5.279   6.286   8.704  1.1210  0.8286 -0.2373
 4433TIP3    H234859   5.365   6.164   8.679 -1.2102 -0.9478  0.0542
 4434TIP3   OH234860   3.897   0.345   1.359  0.1651 -0.8482 -0.4446
 4434TIP3    H134861   3.885   0.426   1.408 -1.0526 -2.3083  1.8820
 4434TIP3    H234862   3.973   0.361   1.303  0.9463  1.3286  1.1127
 4435TIP3   OH234863   0.106   1.436   0.941  0.5209 -0.5036  0.1920
 4435TIP3    H134864   0.130   1.447   0.849 -0.3123 -0.3699 -0.0177
 4435TIP3    H234865   0.145   1.511   0.985  1.6496 -1.0118  0.1059
 4436TIP3   OH234866   2.946   2.340   0.513 -0.3114 -0.1798 -0.3620
 4436TIP3    H134867   2.980   2.251   0.521  0.3227  0.0945  0.1298
 4436TIP3    H234868   3.013   2.395   0.554 -0.0206  0.6803 -1.9211
 4437TIP3   OH234869   1.113   0.982   0.952  0.6610  0.5629  0.1975
 4437TIP3    H134870   1.126   1.043   1.025  0.3282  0.7643  0.0919
 4437TIP3    H234871   1.063   0.910   0.990 -1.2198  1.5606 -0.2422
 4438TIP3   OH234872   1.951   0.733   8.271 -0.1604  0.1539  0.3298
 4438TIP3    H134873   1.882   0.672   8.244 -0.5039  0.1460  1.2096
 4438TIP3    H234874   2.029   0.701   8.227 -0.5671 -0.2532 -0.1174
 4439TIP3   OH234875   5.145   6.370   8.485 -0.4881 -0.0429 -0.0702
 4439TIP3    H134876   5.132   6.464   8.473 -2.8023 -0.4710 -1.4938
 4439TIP3    H234877   5.227   6.352   8.439 -1.0938  0.9820 -1.6344
 4440TIP3   OH234878   6.391   4.677   6.570 -0.3813  0.3458 -0.0858
 4440TIP3    H134879   6.300   4.702   6.556 -1.1512 -1.2426  1.6475
 4440TIP3    H234880   6.390   4.626   6.651  1.9750 -0.1963 -0.3149
 4441TIP3   OH234881   3.850   4.556   7.781  0.0725 -0.0110 -0.2278
 4441TIP3    H134882   3.757   4.577   7.787  0.4546  1.5492  0.6045
 4441TIP3    H234883   3.861   4.524   7.691 -1.0820  0.6851 -0.6334
 4442TIP3   OH234884   4.062   4.979   7.227 -0.0776  0.1997 -0.0032
 4442TIP3    H134885   3.976   5.015   7.204  0.1790  1.2607  0.6137
 4442TIP3    H234886   4.097   5.041   7.291  0.1140 -1.5097  1.6385
 4443TIP3   OH234887   4.734   0.530   2.129  0.9076  0.1292 -0.0357
 4443TIP3    H134888   4.738   0.615   2.173 -0.1662  0.1546  0.0261
 4443TIP3    H234889   4.643   0.503   2.136  0.5937  0.3084 -2.5371
 4444TIP3   OH234890   3.835   6.442   1.652 -0.5690 -0.7667  0.1980
 4444TIP3    H134891   3.805   6.362   1.608  1.8683 -3.2119  2.5324
 4444TIP3    H234892   3.764   6.465   1.711 -2.0582 -0.0412 -1.8037
 4445TIP3   OH234893   4.673   0.276   2.221  0.5539 -0.1469 -0.5618
 4445TIP3    H134894   4.717   0.248   2.141  2.0734  0.8668 -0.1459
 4445TIP3    H234895   4.703   0.366   2.234 -1.2431  0.3968  0.0891
 4446TIP3   OH234896   4.754   3.604   8.720 -0.2070  0.4480 -0.2681
 4446TIP3    H134897   4.674   3.617   8.669 -0.9358  2.1697  1.2233
 4446TIP3    H234898   4.728   3.545   8.791 -0.1063  0.8678  0.1176
 4447TIP3   OH234899   1.616   2.061   0.663 -0.2031  0.6233  0.2250
 4447TIP3    H134900   1.683   2.053   0.731 -0.1454  0.3340  0.1369
 4447TIP3    H234901   1.640   2.140   0.615 -0.2136  0.7982  0.5092
 4448TIP3   OH234902   0.911   0.199   0.044 -0.5068  0.0573  1.0118
 4448TIP3    H134903   0.825   0.201   0.087 -0.7198 -0.6108  0.6332
 4448TIP3    H234904   0.963   0.138   0.096 -0.3642  0.2174  1.0559
 4449TIP3   OH234905   3.732   0.576   2.205 -0.3328  0.3832 -0.4906
 4449TIP3    H134906   3.660   0.618   2.156 -1.4961  0.1102  0.9264
 4449TIP3    H234907   3.746   0.633   2.281 -0.2876 -0.5212  0.1932
 4450TIP3   OH234908   5.634   0.405   1.574 -0.3477  0.2254 -0.2331
 4450TIP3    H134909   5.610   0.328   1.522  0.3520 -0.4935  0.4876
 4450TIP3    H234910   5.672   0.369   1.654  1.1293  1.3182 -0.4006
 4451TIP3   OH234911   4.583   0.741   8.234  0.2147 -0.1494 -0.0335
 4451TIP3    H134912   4.664   0.787   8.211 -0.1744  0.7439  0.3262
 4451TIP3    H234913   4.555   0.783   8.316  0.4029 -1.7490  0.8912
 4452TIP3   OH234914   2.958   2.570   1.840  0.3906 -0.2780  0.0697
 4452TIP3    H134915   2.962   2.506   1.769 -1.1213 -0.2598 -0.0599
 4452TIP3    H234916   2.932   2.652   1.798  0.5128 -0.0118  0.4991
 4453TIP3   OH234917   4.756   2.562   7.614  0.1096  0.3210  0.3905
 4453TIP3    H134918   4.848   2.588   7.620  0.3179 -0.3019 -0.0093
 4453TIP3    H234919   4.745   2.498   7.685 -0.2826  1.1510  1.0864
 4454TIP3   OH234920   5.620   4.184   1.243 -0.0306 -0.0959 -0.2801
 4454TIP3    H134921   5.701   4.179   1.292 -0.0608 -1.2531 -0.3183
 4454TIP3    H234922   5.647   4.197   1.152  0.0737  0.4834 -0.1692
 4455TIP3   OH234923   4.777   0.667   2.590 -0.4736  0.0202  0.4352
 4455TIP3    H134924   4.700   0.723   2.578  0.0636  0.6031 -0.4296
 4455TIP3    H234925   4.742   0.582   2.617 -1.3725  0.4525  0.6645
 4456TIP3   OH234926   3.036   0.297   0.478  0.0018  0.4131 -0.0902
 4456TIP3    H134927   2.970   0.234   0.449  1.1068  0.0066 -1.9208
 4456TIP3    H234928   3.030   0.368   0.414 -0.1457  1.4370  1.0289
 4457TIP3   OH234929   4.714   3.489   1.960 -0.2704  0.1335  0.1446
 4457TIP3    H134930   4.709   3.425   1.889  0.9510 -0.5681  0.6709
 4457TIP3    H234931   4.737   3.571   1.917  2.0785 -0.6122 -0.1554
 4458TIP3   OH234932   6.677   0.583   2.423 -0.0594 -0.1842 -0.0163
 4458TIP3    H134933   6.631   0.512   2.467 -1.1841  0.8028  0.4386
 4458TIP3    H234934   6.623   0.603   2.346  0.8162 -0.5236 -0.7451
 4459TIP3   OH234935   3.334   2.858   0.388  0.0428 -0.0364  0.1623
 4459TIP3    H134936   3.297   2.915   0.321 -1.1100  0.0648  0.8475
 4459TIP3    H234937   3.410   2.905   0.422 -0.9136  1.1577  0.7544
 4460TIP3   OH234938   1.887   0.599   0.263 -0.5529  0.6398  0.4217
 4460TIP3    H134939   1.887   0.508   0.232  2.2332  0.9087 -0.6941
 4460TIP3    H234940   1.842   0.596   0.347  0.1011 -1.9131  0.7594
 4461TIP3   OH234941   4.320   2.455   0.864  0.5544 -0.3891 -0.1220
 4461TIP3    H134942   4.376   2.388   0.904  0.1219  0.9040  2.9906
 4461TIP3    H234943   4.231   2.426   0.884  0.1623 -0.7969 -2.2279
 4462TIP3   OH234944   1.934   3.783   7.263  0.0565  0.2349  0.5194
 4462TIP3    H134945   1.911   3.704   7.311  0.5240  0.3993  1.0217
 4462TIP3    H234946   1.879   3.851   7.302  1.3018  0.6202  1.6920
 4463TIP3   OH234947   0.412   5.038   7.815  0.8037  0.0850  0.5417
 4463TIP3    H134948   0.420   5.103   7.884 -2.3581  0.0038  1.1037
 4463TIP3    H234949   0.367   4.965   7.856  0.9366 -0.9254 -1.0412
 4464TIP3   OH234950   0.180   4.458   8.790 -0.3886 -0.0087 -0.0700
 4464TIP3    H134951   0.091   4.423   8.782 -1.2135  2.1906 -1.5278
 4464TIP3    H234952   0.222   4.434   8.708  0.4355 -1.1151  0.6528
 4465TIP3   OH234953   3.381   3.102   2.138 -0.4215  0.1097  0.3332
 4465TIP3    H134954   3.393   3.140   2.225 -0.8124  0.0934  0.3970
 4465TIP3    H234955   3.297   3.137   2.108 -0.8668 -0.8133  0.4594
 4466TIP3   OH234956   1.708   1.882   0.423  0.6574  0.7751 -0.2139
 4466TIP3    H134957   1.661   1.904   0.503 -3.4622 -1.0011 -1.8414
 4466TIP3    H234958   1.697   1.787   0.414  2.1106  0.7340 -2.2601
 4467TIP3   OH234959   1.530   4.646   2.980  0.5034  0.1246  0.8490
 4467TIP3    H134960   1.565   4.569   2.936 -0.6491  0.4259 -0.6924
 4467TIP3    H234961   1.447   4.617   3.018  1.4977 -0.1337  2.9109
 4468TIP3   OH234962   1.100   2.129   6.462 -0.1527  0.5848 -0.4221
 4468TIP3    H134963   1.126   2.076   6.537 -0.1360  4.5962  2.7348
 4468TIP3    H234964   1.022   2.085   6.427 -0.8414 -0.9009  2.6778
 4469TIP3   OH234965   3.108   0.870   1.285 -0.6380  0.4492  0.3842
 4469TIP3    H134966   3.145   0.938   1.341 -0.5727  0.1599  0.6945
 4469TIP3    H234967   3.075   0.804   1.346  0.4055 -0.3898  0.0629
 4470TIP3   OH234968   1.326   1.457   1.253  0.1144  0.2523 -0.2220
 4470TIP3    H134969   1.316   1.553   1.257 -0.0543  0.2153  0.4951
 4470TIP3    H234970   1.393   1.443   1.187  0.9108  0.9346  0.4053
 4471TIP3   OH234971   2.313   5.553   8.897  0.2810  0.2093  0.4328
 4471TIP3    H134972   2.390   5.594   8.858  0.7695  0.5790  1.7226
 4471TIP3    H234973   2.275   5.502   8.826  1.2965  0.5976 -0.4322
 4472TIP3   OH234974   4.077   3.096   0.927  0.4182  0.2714  0.5818
 4472TIP3    H134975   4.169   3.093   0.953  0.7431  0.3465 -0.5394
 4472TIP3    H234976   4.045   3.181   0.958  1.3062  1.1775 -0.9053
 4473TIP3   OH234977   3.610   3.956   0.523  1.1301 -0.7793  0.5487
 4473TIP3    H134978   3.640   4.031   0.472 -0.5627 -0.1071  0.4771
 4473TIP3    H234979   3.619   3.882   0.463 -2.8562  0.2734 -1.7497
 4474TIP3   OH234980   2.287   4.787   2.131  0.4747  0.0924 -0.1354
 4474TIP3    H134981   2.264   4.856   2.193 -1.9971 -2.3275  1.8680
 4474TIP3    H234982   2.367   4.748   2.167 -0.5302 -0.8115  1.1968
 4475TIP3   OH234983   5.337   3.748   0.415  0.4217 -0.1893  0.1001
 4475TIP3    H134984   5.391   3.768   0.339  2.3224  0.6009  1.5821
 4475TIP3    H234985   5.287   3.829   0.431  0.4844 -0.1412  0.0500
 4476TIP3   OH234986   2.598   3.100   1.549 -0.0325 -0.1657 -0.3940
 4476TIP3    H134987   2.531   3.036   1.574 -1.7371  0.4559 -2.9974
 4476TIP3    H234988   2.668   3.048   1.510  0.2151 -0.6760  0.6889
 4477TIP3   OH234989   5.454   4.819   0.385  0.0300 -0.0897  0.1100
 4477TIP3    H134990   5.457   4.729   0.416 -1.2708 -1.0867 -2.3350
 4477TIP3    H234991   5.534   4.829   0.333  1.0453  0.7892  1.7821
 4478TIP3   OH234992   0.708   4.760   7.295  0.0218 -0.4499  0.3041
 4478TIP3    H134993   0.737   4.827   7.234  0.4119 -0.3439  0.6008
 4478TIP3    H234994   0.788   4.711   7.316  0.0266 -0.0601  1.2484
 4479TIP3   OH234995   4.090   5.351   7.107 -0.0732 -0.0374 -0.2197
 4479TIP3    H134996   4.101   5.289   7.035  2.4819 -0.6501  0.6027
 4479TIP3    H234997   3.996   5.350   7.126 -0.4319 -1.7516 -1.8711
 4480TIP3   OH234998   1.386   2.951   1.880  0.0634 -0.9750 -0.2128
 4480TIP3    H134999   1.318   3.000   1.926  0.3109 -2.0889  1.4199
 4480TIP3    H235000   1.436   3.018   1.833 -1.5380 -0.0354 -0.6806
 4481TIP3   OH235001   5.325   1.552   7.646  0.4851  0.4277 -0.0555
 4481TIP3    H135002   5.379   1.555   7.566  1.1616  1.6203  0.4154
 4481TIP3    H235003   5.268   1.628   7.639  0.3856  0.4050  0.4902
 4482TIP3   OH235004   0.900   6.512   2.041  0.1250  0.1277 -0.2395
 4482TIP3    H135005   0.839   6.452   2.084  0.1789 -1.3027 -2.0536
 4482TIP3    H235006   0.860   6.599   2.053  0.3378 -0.0887  2.9206
 4483TIP3   OH235007   6.555   2.411   2.523  0.8941  0.2042  0.5586
 4483TIP3    H135008   6.624   2.419   2.457  0.2607  0.0791 -0.1271
 4483TIP3    H235009   6.534   2.318   2.524  0.8069  0.2267  0.8496
 4484TIP3   OH235010   3.683   3.397   2.231  0.0599  0.1116  0.5745
 4484TIP3    H135011   3.716   3.308   2.242 -1.9839 -0.7445  0.2352
 4484TIP3    H235012   3.761   3.452   2.232  1.3433 -1.6372  1.1863
 4485TIP3   OH235013   1.902   3.166   2.331 -0.1772  0.1610 -0.2325
 4485TIP3    H135014   1.960   3.155   2.256  0.2654  1.3752 -0.0878
 4485TIP3    H235015   1.953   3.216   2.394 -1.4317  1.4594 -0.1864
 4486TIP3   OH235016   4.871   6.479   0.263 -0.0101 -0.1268 -0.2888
 4486TIP3    H135017   4.807   6.524   0.208  0.2630 -1.3662 -1.6837
 4486TIP3    H235018   4.956   6.509   0.230  0.1458  0.0011  0.2283
 4487TIP3   OH235019   4.139   5.085   0.714 -0.5433  0.2147  0.2196
 4487TIP3    H135020   4.060   5.031   0.719 -0.2271 -0.3329 -0.5222
 4487TIP3    H235021   4.151   5.102   0.621  0.5692 -0.2590  0.2598
 4488TIP3   OH235022   4.357   4.157   8.423 -0.0643 -0.1168 -0.6783
 4488TIP3    H135023   4.369   4.249   8.447 -0.2466  0.0693 -1.2688
 4488TIP3    H235024   4.446   4.121   8.420  0.1258  0.3834 -1.7174
 4489TIP3   OH235025   1.441   6.489   7.602 -0.2617  0.3358 -0.1216
 4489TIP3    H135026   1.532   6.458   7.608  0.0497  1.3141  0.4281
 4489TIP3    H235027   1.443   6.555   7.533 -0.7791 -0.3580 -0.8117
 4490TIP3   OH235028   0.037   0.478   0.162  0.0643  0.0726  0.2081
 4490TIP3    H135029   0.030   0.516   0.249 -0.4601  2.7087 -0.8834
 4490TIP3    H235030   0.127   0.496   0.135  0.6335 -1.9083  0.6513
 4491TIP3   OH235031   2.230   3.762   7.565  0.8378  0.1241  0.5047
 4491TIP3    H135032   2.145   3.729   7.595  0.8661 -0.6729 -0.2482
 4491TIP3    H235033   2.290   3.689   7.578  1.1254  0.2227 -0.1905
 4492TIP3   OH235034   2.033   4.111   7.929 -0.1316  0.1875 -0.0630
 4492TIP3    H135035   1.981   4.158   7.993  0.0583  0.9806 -0.4829
 4492TIP3    H235036   1.978   4.036   7.905 -0.6610  0.4738  0.2228
 4493TIP3   OH235037   3.177   6.398   0.854  0.0067  0.0129 -0.1065
 4493TIP3    H135038   3.147   6.487   0.836 -2.4422 -1.0772 -2.1447
 4493TIP3    H235039   3.272   6.406   0.867 -0.4934  3.2466  2.9399
 4494TIP3   OH235040   0.874   0.191   0.720  0.3147 -0.2774 -0.1992
 4494TIP3    H135041   0.829   0.117   0.760 -0.5054 -1.3208 -2.8773
 4494TIP3    H235042   0.804   0.249   0.690  0.8908  0.3098 -0.4336
 4495TIP3   OH235043   3.193   6.336   0.560 -0.2477 -0.6139  0.0926
 4495TIP3    H135044   3.244   6.270   0.606  0.5163 -0.3391 -0.3426
 4495TIP3    H235045   3.153   6.388   0.629 -1.1031 -1.6999  0.4475
 4496TIP3   OH235046   1.420   4.764   1.269  0.7740  0.5043 -0.0212
 4496TIP3    H135047   1.386   4.785   1.182  0.2600 -0.8663 -0.1658
 4496TIP3    H235048   1.382   4.830   1.326 -0.2541  0.3938 -0.5598
 4497TIP3   OH235049   5.479   1.257   0.490 -0.3853  0.0449  0.4201
 4497TIP3    H135050   5.473   1.259   0.585 -0.5367  0.8876  0.3948
 4497TIP3    H235051   5.495   1.348   0.465 -1.6340  0.0441 -0.4483
 4498TIP3   OH235052   2.569   3.424   8.630  0.0918 -0.1894 -0.1828
 4498TIP3    H135053   2.492   3.467   8.669 -0.5051 -1.7681  0.4691
 4498TIP3    H235054   2.643   3.475   8.663 -0.4932 -0.4765  1.7508
 4499TIP3   OH235055   3.882   2.454   2.333  0.0615 -0.0250  0.9223
 4499TIP3    H135056   3.922   2.540   2.319  0.5861 -0.1459  1.5895
 4499TIP3    H235057   3.842   2.460   2.420  1.5543 -0.9600  1.7262
 4500TIP3   OH235058   0.620   4.344   0.300  0.5150  0.0873 -0.6411
 4500TIP3    H135059   0.568   4.355   0.220  0.0820  2.1502 -0.1436
 4500TIP3    H235060   0.561   4.369   0.370  0.9370 -1.5752  0.3485
 4501TIP3   OH235061   4.604   1.788   0.488 -0.3355  0.0704  0.2153
 4501TIP3    H135062   4.670   1.837   0.537 -1.7719  2.7412 -0.3737
 4501TIP3    H235063   4.575   1.847   0.419 -0.5279 -2.4831 -2.0787
 4502TIP3   OH235064   6.189   0.370   8.249 -0.5363 -0.6521  0.5755
 4502TIP3    H135065   6.196   0.287   8.201 -0.2293  0.4677 -1.3866
 4502TIP3    H235066   6.279   0.402   8.255 -0.4609 -1.0781  2.5730
 4503TIP3   OH235067   5.703   0.852   7.346 -0.0823  0.0405 -0.0387
 4503TIP3    H135068   5.695   0.853   7.251  0.1458 -1.1999 -0.0846
 4503TIP3    H235069   5.793   0.881   7.363 -0.7322  2.2563 -0.0755
 4504TIP3   OH235070   4.730   4.273   0.778 -0.1676 -0.0014 -0.1086
 4504TIP3    H135071   4.661   4.339   0.791  0.0431  0.1577  0.2464
 4504TIP3    H235072   4.775   4.270   0.863  0.6257  0.3200 -0.5064
 4505TIP3   OH235073   5.412   1.787   8.707 -0.0634  0.3108  0.4841
 4505TIP3    H135074   5.353   1.849   8.664  1.7925  0.4229 -2.1369
 4505TIP3    H235075   5.472   1.842   8.758 -0.1722  0.4682  0.4423
 4506TIP3   OH235076   6.625   3.531   7.881 -0.1204  0.0209  0.1000
 4506TIP3    H135077   6.562   3.571   7.940  0.6210 -0.0017  0.9332
 4506TIP3    H235078   6.682   3.479   7.938  1.2703  0.8289 -0.4868
 4507TIP3   OH235079   5.200   4.576   8.220 -0.2229  0.1143 -0.5197
 4507TIP3    H135080   5.201   4.544   8.130 -0.2861  1.2537 -0.9429
 4507TIP3    H235081   5.119   4.541   8.257 -0.6914  0.4367 -1.2164
 4508TIP3   OH235082   5.677   4.183   0.959 -0.0808  0.1025 -0.2460
 4508TIP3    H135083   5.606   4.154   0.901  0.7960  0.0353 -1.3226
 4508TIP3    H235084   5.733   4.107   0.968 -0.8309 -0.2817  1.7490
 4509TIP3   OH235085   3.236   1.415   8.656 -0.3463 -0.2534 -0.1071
 4509TIP3    H135086   3.142   1.402   8.649 -0.7999  2.1997  0.4914
 4509TIP3    H235087   3.260   1.461   8.575  0.4917 -1.4704 -0.5735
 4510TIP3   OH235088   3.695   5.047   1.387  0.1843 -0.1038 -0.3003
 4510TIP3    H135089   3.732   5.047   1.476  0.4030  0.2393 -0.3907
 4510TIP3    H235090   3.697   5.139   1.360 -0.6126 -0.1025 -0.3594
 4511TIP3   OH235091   3.823   3.566   8.885 -0.9277 -0.3165  0.0292
 4511TIP3    H135092   3.876   3.502   8.931  1.0959  1.2731  0.0535
 4511TIP3    H235093   3.852   3.561   8.794  0.0694  1.2198  0.2085
 4512TIP3   OH235094   0.510   5.351   7.832  0.3266 -0.1304  0.4778
 4512TIP3    H135095   0.556   5.280   7.875 -0.7961 -0.3020  1.4264
 4512TIP3    H235096   0.571   5.381   7.764  2.0034 -0.0602  1.9537
 4513TIP3   OH235097   0.921   6.642   1.782 -0.1984 -0.1306  0.3881
 4513TIP3    H135098   0.925   6.575   1.850 -1.4264 -0.8781 -0.2370
 4513TIP3    H235099   1.011   6.676   1.776  0.1493 -0.7738  1.6347
 4514TIP3   OH235100   0.845   2.483   7.382 -0.2601 -0.6588 -0.0816
 4514TIP3    H135101   0.772   2.425   7.401  0.7207 -1.2455  2.2153
 4514TIP3    H235102   0.923   2.433   7.405  0.8335  0.4039 -1.2338
 4515TIP3   OH235103   3.936   2.338   8.569 -0.2739  0.5630  0.0085
 4515TIP3    H135104   3.974   2.269   8.515 -3.0864 -0.3542 -1.0105
 4515TIP3    H235105   4.011   2.387   8.602  1.7512 -1.5614 -1.1086
 4516TIP3   OH235106   5.113   0.689   0.590 -0.0921  0.0653  0.1716
 4516TIP3    H135107   5.208   0.701   0.600 -0.3448  2.2320  0.4719
 4516TIP3    H235108   5.093   0.731   0.507 -0.9997  0.9995  0.8482
 4517TIP3   OH235109   0.319   4.718   2.501  0.1161 -0.0394 -0.4971
 4517TIP3    H135110   0.337   4.809   2.525  1.5078 -0.4646  0.1540
 4517TIP3    H235111   0.403   4.674   2.509 -0.2149 -1.0718 -2.3161
 4518TIP3   OH235112   2.995   4.746   7.990  0.0776 -0.7050 -0.0003
 4518TIP3    H135113   3.056   4.713   7.924  0.6634  0.6111 -0.1414
 4518TIP3    H235114   3.049   4.800   8.048 -0.9306  0.4606 -0.1073
 4519TIP3   OH235115   1.861   1.820   2.164 -0.2053 -0.1075 -0.2564
 4519TIP3    H135116   1.924   1.796   2.097 -1.3681 -1.2887 -0.9667
 4519TIP3    H235117   1.777   1.819   2.119 -1.1543 -1.9182  1.4134
 4520TIP3   OH235118   1.160   2.697   2.311 -0.2098  0.0967  0.1057
 4520TIP3    H135119   1.131   2.610   2.281 -0.7962  0.0685  0.7198
 4520TIP3    H235120   1.170   2.686   2.406  4.3084 -0.6205 -0.2344
 4521TIP3   OH235121   1.576   5.108   8.737 -0.1185  0.1776 -0.0360
 4521TIP3    H135122   1.579   5.103   8.641  0.5081  1.1001 -0.0746
 4521TIP3    H235123   1.517   5.037   8.762  0.6041 -0.8117 -1.0311
 4522TIP3   OH235124   6.052   2.816   0.243  0.2757  0.1923 -0.2959
 4522TIP3    H135125   6.043   2.727   0.278  0.1941  0.2532 -0.1644
 4522TIP3    H235126   6.028   2.807   0.150  2.3130 -0.3418 -0.8173
 4523TIP3   OH235127   5.304   2.571   8.554 -0.3152  0.0763 -0.0203
 4523TIP3    H135128   5.340   2.656   8.576 -1.7625  0.5629  0.6077
 4523TIP3    H235129   5.303   2.569   8.459  0.1330  0.5822 -0.0387
 4524TIP3   OH235130   1.796   2.675   0.727  0.4686 -0.1242 -0.0825
 4524TIP3    H135131   1.790   2.683   0.632  0.7755 -1.1658 -0.1942
 4524TIP3    H235132   1.837   2.591   0.742  2.0664  0.7991  0.9610
 4525TIP3   OH235133   5.092   6.696   7.017  0.1260  0.2885  0.1607
 4525TIP3    H135134   5.108   6.732   7.105 -1.5966  0.0890  0.5807
 4525TIP3    H235135   5.176   6.656   6.993  0.5704  0.1100  1.8365
 4526TIP3   OH235136   4.795   6.343   1.972 -0.2298 -0.5278 -0.1457
 4526TIP3    H135137   4.839   6.411   2.022 -0.4533 -0.4212 -0.0941
 4526TIP3    H235138   4.834   6.261   2.003  1.2662 -0.3521 -1.3873
 4527TIP3   OH235139   3.809   3.774   0.602  0.2115  0.2063  0.4384
 4527TIP3    H135140   3.758   3.854   0.608 -0.8055 -0.3159 -0.7051
 4527TIP3    H235141   3.892   3.800   0.562 -0.6483  0.4987 -1.2190
 4528TIP3   OH235142   5.607   4.123   1.627 -0.8178 -0.2356  0.0954
 4528TIP3    H135143   5.550   4.179   1.573 -2.1111 -0.4079  1.2136
 4528TIP3    H235144   5.568   4.127   1.714  0.1706 -1.4002  0.6138
 4529TIP3   OH235145   6.335   0.152   7.224 -0.0488 -0.2539 -0.0269
 4529TIP3    H135146   6.344   0.057   7.235 -1.9086 -0.6482 -1.3270
 4529TIP3    H235147   6.394   0.174   7.152  0.3704 -0.4203  0.2618
 4530TIP3   OH235148   4.593   0.112   1.211 -0.2603 -0.1189  0.4820
 4530TIP3    H135149   4.636   0.135   1.129  0.0547 -0.5255  0.5287
 4530TIP3    H235150   4.630   0.027   1.235  0.8521  0.7041  1.8527
 4531TIP3   OH235151   5.691   4.438   0.048 -0.0513  0.3014  0.0075
 4531TIP3    H135152   5.606   4.472   0.078 -1.0611  0.4274 -2.7268
 4531TIP3    H235153   5.731   4.511   0.001  1.8570  0.3837  1.6294
 4532TIP3   OH235154   6.007   1.270   7.461  0.3539 -0.1451 -0.3870
 4532TIP3    H135155   6.050   1.338   7.409  1.0184 -0.2356  0.0337
 4532TIP3    H235156   5.938   1.317   7.508  0.3439  0.1044 -0.6488
 4533TIP3   OH235157   3.591   3.252   7.984  0.3574 -0.0213 -0.1481
 4533TIP3    H135158   3.621   3.295   7.904  0.4869 -1.7372 -1.0648
 4533TIP3    H235159   3.655   3.183   8.000 -0.8551 -1.1086  0.1863
 4534TIP3   OH235160   3.582   1.279   8.221 -0.0609  0.0049  0.1854
 4534TIP3    H135161   3.579   1.290   8.126  0.4763  2.3807  0.3810
 4534TIP3    H235162   3.592   1.184   8.234  1.6107 -0.2329 -2.1761
 4535TIP3   OH235163   1.369   3.022   8.804  0.0199 -0.3133  0.0819
 4535TIP3    H135164   1.435   2.954   8.817  1.5219  1.4359  2.9302
 4535TIP3    H235165   1.421   3.102   8.793 -1.6750  0.7542 -0.4920
 4536TIP3   OH235166   5.123   5.690   7.492  1.1663 -0.6805  0.1592
 4536TIP3    H135167   5.094   5.777   7.462  0.3333 -1.3019 -0.9197
 4536TIP3    H235168   5.056   5.630   7.459  1.3817 -1.6729  1.4523
 4537TIP3   OH235169   1.715   0.873   1.379  0.3122  0.0277 -0.0584
 4537TIP3    H135170   1.732   0.779   1.368 -1.5234 -0.3509  0.0451
 4537TIP3    H235171   1.680   0.901   1.295  0.6077  0.5766 -0.0031
 4538TIP3   OH235172   2.817   4.785   6.797 -0.2948 -0.2684  0.3604
 4538TIP3    H135173   2.876   4.860   6.805 -0.0888 -0.3796 -0.1006
 4538TIP3    H235174   2.863   4.725   6.738 -1.4835  0.2456 -1.1505
 4539TIP3   OH235175   2.676   6.402   8.723  0.3310 -0.0193  0.4808
 4539TIP3    H135176   2.636   6.460   8.787 -0.7180 -0.6179  0.3825
 4539TIP3    H235177   2.603   6.355   8.683  1.1587 -1.8804  1.0158
 4540TIP3   OH235178   0.976   1.116   0.454 -0.2687 -0.2295 -0.2389
 4540TIP3    H135179   0.959   1.072   0.371 -0.7352 -0.1604 -0.1799
 4540TIP3    H235180   1.021   1.197   0.429  0.8273 -0.8464 -0.3308
 4541TIP3   OH235181   5.452   1.302   7.830 -0.3820  0.2168  0.6025
 4541TIP3    H135182   5.422   1.284   7.741 -1.8168  0.1900  1.0689
 4541TIP3    H235183   5.480   1.216   7.864 -3.2116 -0.4847  1.3698
 4542TIP3   OH235184   4.000   4.651   6.943 -0.4005 -0.4171  0.2284
 4542TIP3    H135185   4.058   4.587   6.984 -2.0924 -0.2661  3.1520
 4542TIP3    H235186   3.923   4.600   6.917 -0.6941  0.0205  0.2280
 4543TIP3   OH235187   1.853   3.929   7.829  0.1945 -0.6307 -0.1412
 4543TIP3    H135188   1.766   3.933   7.869 -0.5131 -2.3018 -1.3851
 4543TIP3    H235189   1.892   3.849   7.863  0.6567 -0.6552 -0.7045
 4544TIP3   OH235190   4.984   6.358   0.832 -0.4045  0.1825 -0.1725
 4544TIP3    H135191   4.945   6.396   0.910  1.2971  2.7851 -0.4606
 4544TIP3    H235192   4.944   6.406   0.759  0.5414  0.2063 -0.6884
 4545TIP3   OH235193   5.933   2.010   8.912  0.2178 -0.2001 -0.0265
 4545TIP3    H135194   6.025   1.985   8.905  0.8498  2.2410 -1.4037
 4545TIP3    H235195   5.885   1.933   8.881  1.8070 -1.1995 -0.1358
 4546TIP3   OH235196   6.165   0.760   0.625  0.1266 -0.1710 -0.2878
 4546TIP3    H135197   6.151   0.704   0.549 -0.9130 -1.3285  0.7223
 4546TIP3    H235198   6.078   0.793   0.648  0.4815  0.4821  0.1671
 4547TIP3   OH235199   2.252   3.239   8.184 -0.0052  0.3904  0.2812
 4547TIP3    H135200   2.230   3.266   8.095  0.4067 -1.6061 -0.4773
 4547TIP3    H235201   2.331   3.288   8.205  0.4157  0.2221 -0.8226
 4548TIP3   OH235202   1.517   0.364   2.516  0.1000 -0.5924  0.0738
 4548TIP3    H135203   1.479   0.348   2.603  0.2832 -0.6067  0.1511
 4548TIP3    H235204   1.513   0.279   2.472  0.5321 -0.7181  0.2737
 4549TIP3   OH235205   4.871   4.737   7.488 -0.6888  0.0755  0.1392
 4549TIP3    H135206   4.876   4.658   7.543  2.3737  0.7438  1.0464
 4549TIP3    H235207   4.808   4.794   7.533  0.3461 -0.1537  1.9870
 4550TIP3   OH235208   6.643   4.465   8.445 -0.3510  0.0793 -0.5929
 4550TIP3    H135209   6.555   4.479   8.410  0.0225  0.6332 -1.3165
 4550TIP3    H235210   6.684   4.403   8.385 -1.1466 -2.4356  1.2400
 4551TIP3   OH235211   1.097   5.475   1.068 -0.0913 -0.1614  0.2636
 4551TIP3    H135212   1.073   5.565   1.049  0.3309  0.1504  1.1330
 4551TIP3    H235213   1.085   5.467   1.163 -0.1170 -1.0204  0.1981
 4552TIP3   OH235214   5.642   2.777   1.513  0.2575  0.5294  0.2832
 4552TIP3    H135215   5.642   2.705   1.575  2.0847 -0.0179 -0.3088
 4552TIP3    H235216   5.676   2.852   1.562  0.8187  0.3308  0.2004
 4553TIP3   OH235217   0.302   3.204   0.968  0.0374 -0.2056  0.1822
 4553TIP3    H135218   0.212   3.219   0.938  0.5904  1.9667 -0.6051
 4553TIP3    H235219   0.349   3.282   0.939  2.5807 -2.0208 -0.9042
 4554TIP3   OH235220   4.035   5.404   0.015 -0.1818  0.0435 -0.7574
 4554TIP3    H135221   4.080   5.456   0.082 -0.7806  0.7066 -0.8605
 4554TIP3    H235222   4.102   5.344  -0.017  0.1282 -0.2742  0.4148
 4555TIP3   OH235223   5.399   5.411   1.161 -0.5689 -0.0835 -0.1621
 4555TIP3    H135224   5.376   5.340   1.221 -2.1225 -0.0501 -0.6841
 4555TIP3    H235225   5.412   5.367   1.077  1.8872 -0.1699  0.1916
 4556TIP3   OH235226   2.777   3.508   0.554 -0.6032 -0.1035 -0.3813
 4556TIP3    H135227   2.855   3.563   0.550 -0.8091  0.3004  0.8130
 4556TIP3    H235228   2.799   3.440   0.617  0.3804 -2.6552 -3.2593
 4557TIP3   OH235229   5.483   0.418   2.718 -0.0213  0.4697  0.1203
 4557TIP3    H135230   5.533   0.338   2.703 -0.2282 -0.2362  2.6681
 4557TIP3    H235231   5.549   0.487   2.722  0.1483  0.4932 -2.2005
 4558TIP3   OH235232   6.199   1.016   2.933 -0.0811 -0.1233  0.7536
 4558TIP3    H135233   6.238   0.930   2.926 -0.6423 -0.3625  0.4632
 4558TIP3    H235234   6.263   1.069   2.981  1.0465 -0.2193 -0.6023
 4559TIP3   OH235235   5.464   3.727   1.668  0.5792 -0.1287 -0.2678
 4559TIP3    H135236   5.485   3.670   1.742  0.8738  0.0780 -0.1896
 4559TIP3    H235237   5.399   3.788   1.702  0.0076 -0.6253 -0.4461
 4560TIP3   OH235238   1.183   0.249   0.696 -0.8030 -0.4837  0.4508
 4560TIP3    H135239   1.132   0.316   0.651 -0.4542 -0.5587 -0.0709
 4560TIP3    H235240   1.136   0.167   0.678  0.9865 -1.0229 -2.5375
 4561TIP3   OH235241   4.978   6.512   8.736 -0.2725  0.1195  0.0463
 4561TIP3    H135242   4.903   6.453   8.744  1.0767 -1.7129 -0.0509
 4561TIP3    H235243   4.959   6.565   8.658 -1.5321 -0.1788  0.1363
 4562TIP3   OH235244   0.673   0.810   0.152  0.2032  0.0213 -0.2635
 4562TIP3    H135245   0.694   0.718   0.135 -0.7321 -0.2389 -0.0441
 4562TIP3    H235246   0.686   0.853   0.067 -1.5156 -0.7347 -0.9573
 4563TIP3   OH235247   5.371   5.057   1.153 -0.5371 -0.3157  0.1795
 4563TIP3    H135248   5.371   5.117   1.228 -1.8969  0.4768 -0.4025
 4563TIP3    H235249   5.440   5.090   1.096  0.0645 -0.5262  0.7771
 4564TIP3   OH235250   2.046   4.942   8.485 -0.5191  0.1801 -0.1853
 4564TIP3    H135251   2.111   4.873   8.469 -1.6442 -0.6989 -1.1233
 4564TIP3    H235252   2.078   5.018   8.437 -0.4064 -0.3910 -1.0336
 4565TIP3   OH235253   6.088   2.507   8.927  0.2708 -0.5722 -0.2590
 4565TIP3    H135254   6.018   2.571   8.913  0.4742 -0.2644  0.1036
 4565TIP3    H235255   6.042   2.427   8.954  0.0603 -0.3561  0.0347
 4566TIP3   OH235256   0.386   2.721   2.535 -0.4709  0.0594 -0.0775
 4566TIP3    H135257   0.301   2.678   2.543 -0.8102  0.6420 -0.4681
 4566TIP3    H235258   0.365   2.813   2.518  0.2009 -0.2146 -2.7141
 4567TIP3   OH235259   4.218   5.748   7.482 -0.2590 -0.1317 -0.3335
 4567TIP3    H135260   4.233   5.654   7.468 -0.2783 -0.1303 -0.3620
 4567TIP3    H235261   4.208   5.785   7.395 -2.7652 -0.5215 -0.2857
 4568TIP3   OH235262   4.480   0.774   0.203 -0.1214 -0.6722  0.1643
 4568TIP3    H135263   4.440   0.704   0.254  1.0484  0.2921  2.5581
 4568TIP3    H235264   4.558   0.735   0.165 -0.7860 -1.2870 -0.6174
 4569TIP3   OH235265   2.474   1.645   8.738  0.3733  0.0804  0.1244
 4569TIP3    H135266   2.516   1.721   8.777 -1.5200  0.0165  2.5259
 4569TIP3    H235267   2.380   1.662   8.745 -0.1192 -1.0775 -2.3027
 4570TIP3   OH235268   3.556   3.663   7.308  0.5636  0.5903  0.5261
 4570TIP3    H135269   3.637   3.713   7.315  1.1455  0.0242 -1.5783
 4570TIP3    H235270   3.515   3.694   7.228 -0.0321 -0.9022  0.2098
 4571TIP3   OH235271   3.691   5.930   1.044  0.1776 -0.1081  0.0865
 4571TIP3    H135272   3.677   5.914   1.138  0.6844  0.0847  0.1998
 4571TIP3    H235273   3.615   5.891   1.002 -0.2944  0.2265  0.6143
 4572TIP3   OH235274   1.360   1.352   2.188  0.3096  0.0458  0.3765
 4572TIP3    H135275   1.355   1.257   2.185  0.1248  0.0550 -1.9353
 4572TIP3    H235276   1.288   1.378   2.245  0.7226 -1.1906  1.5079
 4573TIP3   OH235277   3.715   6.122   1.689 -0.1511  0.6519  0.1331
 4573TIP3    H135278   3.752   6.033   1.690 -3.7125 -1.0307 -0.6443
 4573TIP3    H235279   3.736   6.158   1.775  0.3459 -1.4588  0.9688
 4574TIP3   OH235280   6.548   1.294   0.625  0.3012 -0.1115 -0.3064
 4574TIP3    H135281   6.615   1.284   0.693  0.5335  0.5083 -0.4390
 4574TIP3    H235282   6.479   1.346   0.665 -0.1083 -0.7444 -0.1732
 4575TIP3   OH235283   6.310   6.132   1.421 -0.0485 -0.2006  0.0297
 4575TIP3    H135284   6.314   6.064   1.488  1.4743  0.9134  1.1449
 4575TIP3    H235285   6.370   6.103   1.353 -0.0621 -0.3819  0.0940
 4576TIP3   OH235286   2.648   5.919   8.142  0.4299  0.4509  0.0927
 4576TIP3    H135287   2.559   5.955   8.137 -0.0034 -0.5740  0.1853
 4576TIP3    H235288   2.669   5.920   8.235 -0.4705 -1.5723  0.3611
 4577TIP3   OH235289   3.544   0.694   2.048 -0.6405  0.1348  0.3299
 4577TIP3    H135290   3.472   0.716   2.106 -0.5902 -1.3278  0.9972
 4577TIP3    H235291   3.502   0.671   1.965 -1.2006 -2.5063  1.2308
 4578TIP3   OH235292   5.905   2.062   1.564  0.1109 -0.3005  0.4272
 4578TIP3    H135293   5.981   2.061   1.624  0.8414  1.6692 -0.3571
 4578TIP3    H235294   5.830   2.076   1.621  0.3920 -1.6643  1.1663
 4579TIP3   OH235295   1.819   2.431   1.293  0.1451 -0.1922  0.2720
 4579TIP3    H135296   1.827   2.341   1.261 -0.6371 -1.1448  2.5432
 4579TIP3    H235297   1.894   2.442   1.352 -1.2303 -0.3775  2.1322
 4580TIP3   OH235298   6.154   0.535   0.808  0.5778  0.0563  0.3805
 4580TIP3    H135299   6.197   0.457   0.843  0.2931  0.4286  1.5828
 4580TIP3    H235300   6.219   0.573   0.749  0.7880 -0.9838 -0.0836
 4581TIP3   OH235301   6.266   0.688   7.646  0.5226  0.2589  0.2969
 4581TIP3    H135302   6.180   0.678   7.687  1.5082 -0.3361  2.3643
 4581TIP3    H235303   6.291   0.779   7.666  0.7157  0.1750  0.4426
 4582TIP3   OH235304   4.387   6.246   8.757  0.6555 -0.0124  0.3599
 4582TIP3    H135305   4.414   6.328   8.798  0.2488 -0.5853  1.8445
 4582TIP3    H235306   4.370   6.269   8.665 -1.8726  2.1590  1.2405
 4583TIP3   OH235307   3.464   1.926   2.187  0.2422  0.1933  0.3895
 4583TIP3    H135308   3.493   1.984   2.258 -0.9699  1.0142  0.2617
 4583TIP3    H235309   3.372   1.951   2.173 -0.6769 -2.5129  1.0681
 4584TIP3   OH235310   1.156   3.163   2.355 -0.8202  0.5678  0.2797
 4584TIP3    H135311   1.135   3.114   2.435 -0.4229  0.0341  0.0586
 4584TIP3    H235312   1.136   3.254   2.378 -0.5375  0.4508  1.0539
 4585TIP3   OH235313   2.695   2.961   2.615  0.4429  0.1916  0.4151
 4585TIP3    H135314   2.776   2.961   2.667 -0.1993  0.8962  1.4641
 4585TIP3    H235315   2.685   3.053   2.589  0.6308 -0.1148 -0.7929
 4586TIP3   OH235316   6.045   1.427   0.731 -0.1098 -0.0749 -0.0136
 4586TIP3    H135317   6.009   1.416   0.819 -2.6168  1.5097 -0.7655
 4586TIP3    H235318   5.970   1.423   0.673  1.3453  0.1062 -2.0174
 4587TIP3   OH235319   6.750   2.654   8.688 -0.4505 -0.1483 -0.4933
 4587TIP3    H135320   6.826   2.620   8.735 -0.8919  0.2076  0.5142
 4587TIP3    H235321   6.676   2.636   8.745 -0.8520  1.3845 -0.4787
 4588TIP3   OH235322   2.680   4.963   1.377 -0.1709  0.0298  0.0219
 4588TIP3    H135323   2.743   5.012   1.429 -1.1366 -0.0888  1.3706
 4588TIP3    H235324   2.685   4.874   1.412 -0.9195 -0.0228  0.0103
 4589TIP3   OH235325   1.364   4.469   2.114 -0.3376  0.0323 -0.0161
 4589TIP3    H135326   1.328   4.442   2.029 -0.3045 -1.0448  0.2984
 4589TIP3    H235327   1.332   4.403   2.175  1.7223 -0.6521  0.3695
 4590TIP3   OH235328   1.237   2.149   6.992  0.0209 -0.6872  0.5324
 4590TIP3    H135329   1.239   2.064   6.948  0.2791 -0.5991  0.3725
 4590TIP3    H235330   1.243   2.213   6.921  0.3545 -0.5433  0.6924
 4591TIP3   OH235331   5.390   5.485   0.798 -0.0964  0.0863  0.3458
 4591TIP3    H135332   5.446   5.427   0.748 -1.0266 -0.7953  0.3049
 4591TIP3    H235333   5.383   5.564   0.744 -1.8011 -1.1674 -1.3933
 4592TIP3   OH235334   4.905   4.238   8.417  0.3290 -0.8551 -0.3156
 4592TIP3    H135335   4.965   4.164   8.409 -1.0607 -2.0196 -0.3692
 4592TIP3    H235336   4.822   4.199   8.444 -0.5691  0.6447 -0.7864
 4593TIP3   OH235337   6.033   4.143   7.522 -0.5735 -0.3411  0.0060
 4593TIP3    H135338   6.037   4.133   7.426  1.6282  0.7622 -0.0853
 4593TIP3    H235339   5.967   4.211   7.536  0.7021  1.1822 -0.9644
 4594TIP3   OH235340   0.733   4.415   1.578 -0.5910  0.1287  0.6692
 4594TIP3    H135341   0.790   4.363   1.634  0.6592  1.8251  1.0514
 4594TIP3    H235342   0.713   4.358   1.504  0.7143 -0.8953  1.0695
 4595TIP3   OH235343   4.061   2.551   0.153  0.5002 -0.1928 -0.4045
 4595TIP3    H135344   4.104   2.492   0.215  0.4923 -0.7986 -0.9604
 4595TIP3    H235345   4.085   2.517   0.067 -1.0016 -0.4996 -0.7315
 4596TIP3   OH235346   1.350   2.865   0.293  0.0662  0.6191  0.6618
 4596TIP3    H135347   1.361   2.798   0.361 -0.7640 -0.5084 -0.2692
 4596TIP3    H235348   1.439   2.885   0.264  0.4213  1.0219  1.9619
 4597TIP3   OH235349   5.787   0.737   7.897  0.3240 -0.7296 -0.5324
 4597TIP3    H135350   5.720   0.673   7.923  0.2566 -0.0927  0.9879
 4597TIP3    H235351   5.865   0.711   7.947  0.1935  0.5533  0.3904
 4598TIP3   OH235352   4.483   5.575   8.464  0.3792 -0.1002  0.3013
 4598TIP3    H135353   4.467   5.619   8.548  3.3835  0.0844  0.8691
 4598TIP3    H235354   4.403   5.525   8.448 -0.8318  0.9633  2.5675
 4599TIP3   OH235355   0.126   5.375   0.477  0.9225 -0.4332 -0.2124
 4599TIP3    H135356   0.052   5.435   0.476  1.5626  0.3957  0.8080
 4599TIP3    H235357   0.098   5.302   0.422 -0.2271  0.3583 -0.7143
 4600TIP3   OH235358   5.044   5.021   7.185  0.3825 -0.6915 -0.4082
 4600TIP3    H135359   5.084   5.088   7.240 -2.5038 -0.6581  1.8436
 4600TIP3    H235360   5.098   5.021   7.106  2.4144  1.9923  0.8015
 4601TIP3   OH235361   4.100   0.807   7.825  0.5715 -0.8634 -0.1301
 4601TIP3    H135362   4.090   0.902   7.822 -1.2207 -1.0481 -1.3422
 4601TIP3    H235363   4.190   0.793   7.855  1.2582  1.2310 -1.0404
 4602TIP3   OH235364   6.654   2.170   8.582 -0.0357 -0.1150 -0.0480
 4602TIP3    H135365   6.585   2.218   8.628  0.1627  0.4414 -0.3229
 4602TIP3    H235366   6.607   2.105   8.529 -0.2938 -0.3796  0.4935
 4603TIP3   OH235367   6.165   1.393   2.983  0.0236  0.1015 -0.1165
 4603TIP3    H135368   6.132   1.453   2.917  1.2999  2.0281  0.8832
 4603TIP3    H235369   6.090   1.340   3.008 -0.4914 -0.6923 -3.0458
 4604TIP3   OH235370   5.846   5.770   7.685  0.0334 -0.4904  0.1840
 4604TIP3    H135371   5.916   5.807   7.632 -0.1597  1.4668  1.1946
 4604TIP3    H235372   5.767   5.817   7.657 -0.5667 -1.4115  0.2804
 4605TIP3   OH235373   2.752   5.039   7.149 -0.0896  0.1054 -0.0679
 4605TIP3    H135374   2.808   5.116   7.157  1.0514 -0.7335  0.2650
 4605TIP3    H235375   2.813   4.965   7.146 -1.1377 -0.7716 -0.7273
 4606TIP3   OH235376   2.525   5.099   1.655 -0.3038  0.4800 -0.0944
 4606TIP3    H135377   2.455   5.124   1.716  0.2356  0.6273  0.4686
 4606TIP3    H235378   2.532   5.004   1.665 -0.8179  0.3870 -0.5812
 4607TIP3   OH235379   5.974   4.539   8.171  0.1870 -0.0359  1.0157
 4607TIP3    H135380   5.893   4.543   8.120  0.4025  0.0479  0.6753
 4607TIP3    H235381   5.990   4.629   8.198 -0.0257 -0.1089  1.3915
 4608TIP3   OH235382   5.381   6.758   1.992  0.1539  0.0341 -0.1217
 4608TIP3    H135383   5.446   6.708   2.042  1.3629  0.4563 -1.2237
 4608TIP3    H235384   5.330   6.691   1.946 -0.7107 -0.3370  1.3043
 4609TIP3   OH235385   4.712   5.105   6.896  0.3491 -0.2722  0.0873
 4609TIP3    H135386   4.630   5.123   6.942 -0.1295 -2.2355  0.0868
 4609TIP3    H235387   4.722   5.179   6.836  0.4380  1.8283  2.5225
 4610TIP3   OH235388   2.016   6.222   0.697 -0.2499 -0.6269 -0.0484
 4610TIP3    H135389   1.968   6.290   0.744  0.6126  0.4458 -0.6817
 4610TIP3    H235390   1.958   6.198   0.625  0.1073  0.6366 -0.7860
 4611TIP3   OH235391   3.322   4.716   1.719  0.0383 -0.1447 -0.2574
 4611TIP3    H135392   3.288   4.751   1.801 -1.7151 -0.7516 -0.6744
 4611TIP3    H235393   3.277   4.633   1.708 -2.6015  1.4631 -3.5355
 4612TIP3   OH235394   1.435   3.947   0.510  0.0869  0.2576  0.6353
 4612TIP3    H135395   1.378   3.907   0.445 -0.6781  1.6582  0.4242
 4612TIP3    H235396   1.423   3.894   0.588 -2.4086  1.1687  0.9506
 4613TIP3   OH235397   5.963   5.117   1.933  0.3299 -0.0742  1.1543
 4613TIP3    H135398   5.985   5.199   1.977  2.4933  0.6700 -1.0756
 4613TIP3    H235399   5.922   5.144   1.852 -1.3848 -1.3347  1.5559
 4614TIP3   OH235400   1.047   1.490   7.102  0.5625 -0.8151 -0.6000
 4614TIP3    H135401   1.098   1.544   7.042 -0.2272  1.4816  0.6910
 4614TIP3    H235402   0.962   1.479   7.058 -0.2544  1.4322  0.2737
 4615TIP3   OH235403   6.449   2.377   0.051  0.0533 -0.3059  0.0647
 4615TIP3    H135404   6.500   2.302   0.080 -1.6077 -2.2080 -1.6675
 4615TIP3    H235405   6.382   2.388   0.119 -0.7477 -1.5366 -0.4972
 4616TIP3   OH235406   0.599   0.223   0.751 -0.1517 -0.4130 -0.1509
 4616TIP3    H135407   0.555   0.204   0.669 -0.8854 -0.9605  0.3583
 4616TIP3    H235408   0.529   0.222   0.817  0.7565 -2.6068  0.8736
 4617TIP3   OH235409   1.155   4.127   0.128  0.2338  0.0648  0.4039
 4617TIP3    H135410   1.132   4.216   0.102 -1.4274  0.6767  3.5311
 4617TIP3    H235411   1.073   4.078   0.121  0.2279 -0.2490  2.1722
 4618TIP3   OH235412   2.341   3.384   7.390  0.3321  0.0393 -0.7281
 4618TIP3    H135413   2.279   3.348   7.453  1.0428 -1.2303 -0.7364
 4618TIP3    H235414   2.381   3.458   7.435 -1.0035  0.7346 -0.6385
 4619TIP3   OH235415   5.139   5.245   7.315 -0.3574 -0.0695 -0.3710
 4619TIP3    H135416   5.172   5.229   7.403 -0.2030  0.2936 -0.3605
 4619TIP3    H235417   5.069   5.310   7.328 -0.0001  0.3616 -0.5675
 4620TIP3   OH235418   6.516   4.774   1.163  0.0909  0.4397  0.3216
 4620TIP3    H135419   6.517   4.725   1.081  1.7863  0.9524 -0.0122
 4620TIP3    H235420   6.429   4.815   1.166  0.4703  1.5519 -1.9399
 4621TIP3   OH235421   1.739   5.195   0.483  0.4861  0.4252  0.7160
 4621TIP3    H135422   1.679   5.224   0.552 -3.8157 -1.2310 -1.9544
 4621TIP3    H235423   1.746   5.271   0.425 -1.2150 -0.0988 -0.2420
 4622TIP3   OH235424   5.247   4.532   8.590 -0.4350 -0.0271 -0.5475
 4622TIP3    H135425   5.242   4.622   8.559 -1.9291  0.3498  0.6428
 4622TIP3    H235426   5.164   4.493   8.563 -1.3555  0.0237  1.8801
 4623TIP3   OH235427   5.712   6.573   1.844 -0.0783 -0.3648  0.4033
 4623TIP3    H135428   5.665   6.518   1.907 -2.6939 -0.2253 -1.2865
 4623TIP3    H235429   5.765   6.512   1.794 -0.6311 -0.9513  0.5108
 4624TIP3   OH235430   5.378   5.714   0.615  0.2219  0.4985  0.1882
 4624TIP3    H135431   5.397   5.804   0.641  1.9910 -0.0682  0.9984
 4624TIP3    H235432   5.454   5.688   0.563  0.7536 -1.2115  1.7532
 4625TIP3   OH235433   1.984   2.865   0.824  0.2628  0.0080 -0.4288
 4625TIP3    H135434   1.920   2.805   0.785  1.1062  0.1038 -2.0319
 4625TIP3    H235435   2.057   2.809   0.850 -0.6823 -0.2059  2.0726
 4626TIP3   OH235436   5.648   5.704   8.318  0.6465 -0.2284  0.2407
 4626TIP3    H135437   5.613   5.755   8.245 -1.7572  0.3226  1.6745
 4626TIP3    H235438   5.741   5.695   8.298  0.5310  1.9409 -1.6863
 4627TIP3   OH235439   5.418   5.584   6.870 -0.1223 -0.3793  0.3583
 4627TIP3    H135440   5.414   5.680   6.872  0.0525 -0.3754  0.7293
 4627TIP3    H235441   5.512   5.565   6.861 -0.0816 -0.5152  0.9842
 4628TIP3   OH235442   6.114   5.481   0.174  0.4885  0.7853  0.3537
 4628TIP3    H135443   6.141   5.465   0.265 -1.2230 -0.3390  0.7081
 4628TIP3    H235444   6.024   5.512   0.181  1.0016  2.7472 -0.8756
 4629TIP3   OH235445   2.336   3.659   0.738  0.4593 -0.2675 -0.4086
 4629TIP3    H135446   2.422   3.623   0.757  0.6477  1.3696  2.4635
 4629TIP3    H235447   2.278   3.582   0.732  1.4175 -1.2859  2.0128
 4630TIP3   OH235448   0.103   5.262   8.857 -0.4852  0.1540 -0.3529
 4630TIP3    H135449   0.166   5.192   8.841  0.3654  0.6429  0.6915
 4630TIP3    H235450   0.132   5.302   8.940 -2.5140  0.0283  0.4737
 4631TIP3   OH235451   2.033   2.046   1.537  0.0049 -0.4997  0.2400
 4631TIP3    H135452   2.041   1.951   1.533  0.0234 -0.5177  0.6295
 4631TIP3    H235453   2.122   2.077   1.552  0.3545 -0.2772 -1.9614
 4632TIP3   OH235454   4.735   6.648   0.911  0.3940 -0.1359  0.7987
 4632TIP3    H135455   4.665   6.598   0.952  0.7762 -0.3256  1.2273
 4632TIP3    H235456   4.759   6.714   0.976 -0.3746  0.8732  0.0881
 4633TIP3   OH235457   5.571   3.414   8.108  0.0724  0.7644 -0.0244
 4633TIP3    H135458   5.654   3.381   8.075  0.0808  1.4534 -0.7328
 4633TIP3    H235459   5.510   3.403   8.035 -0.9716 -1.4715  1.0724
 4634TIP3   OH235460   0.281   0.476   1.206 -0.1281 -0.0676 -0.7471
 4634TIP3    H135461   0.262   0.411   1.274 -0.0592  0.5883 -0.0957
 4634TIP3    H235462   0.231   0.553   1.232  1.2367  0.7540 -0.5328
 4635TIP3   OH235463   0.480   4.544   6.720 -0.0731 -0.2988  0.0658
 4635TIP3    H135464   0.411   4.543   6.654  0.2790 -1.5211 -0.3243
 4635TIP3    H235465   0.520   4.457   6.714  2.1031  0.6502 -0.3633
 4636TIP3   OH235466   6.586   6.771   6.791 -0.1976  0.1640 -0.3914
 4636TIP3    H135467   6.531   6.826   6.736 -0.3183  0.2899 -0.1452
 4636TIP3    H235468   6.563   6.681   6.766  0.2278  0.2237 -1.0166
 4637TIP3   OH235469   0.795   0.619   1.697 -0.3729  0.5450 -0.0282
 4637TIP3    H135470   0.832   0.707   1.707  1.3715 -0.3656  2.8860
 4637TIP3    H235471   0.867   0.560   1.721 -2.0887 -1.5814  0.2528
 4638TIP3   OH235472   2.636   5.701   1.523 -0.3702  0.1042 -0.3605
 4638TIP3    H135473   2.572   5.690   1.453 -0.5223  0.5029 -0.2894
 4638TIP3    H235474   2.607   5.643   1.593 -0.5291  0.1172 -0.4167
 4639TIP3   OH235475   2.769   2.243   2.315 -0.4562 -0.7700 -0.1617
 4639TIP3    H135476   2.756   2.195   2.397 -1.3220 -0.5661 -0.1645
 4639TIP3    H235477   2.702   2.207   2.256 -1.4870  0.7863  0.0086
 4640TIP3   OH235478   5.204   3.033   8.723  0.5166 -0.1663 -0.7379
 4640TIP3    H135479   5.267   3.078   8.780 -1.2936  0.9060  0.5042
 4640TIP3    H235480   5.243   2.947   8.709  0.9237 -0.6466  2.4654
 4641TIP3   OH235481   0.232   5.718   0.405 -0.1877 -0.1608  0.2707
 4641TIP3    H135482   0.240   5.812   0.417  2.0098 -0.1753 -0.7076
 4641TIP3    H235483   0.154   5.708   0.349  0.5117  1.2219 -1.0153
 4642TIP3   OH235484   4.984   6.012   1.536 -0.1103  0.3593 -0.0515
 4642TIP3    H135485   4.957   5.934   1.487  1.8210 -0.1490 -0.4034
 4642TIP3    H235486   5.045   5.978   1.602 -0.7576  1.3457  1.0847
 4643TIP3   OH235487   0.277   4.983   2.634  0.5145 -0.7834  0.2887
 4643TIP3    H135488   0.221   5.053   2.601 -0.6472 -1.9491 -0.3056
 4643TIP3    H235489   0.364   5.024   2.644  0.0579  0.5114 -0.7880
 4644TIP3   OH235490   1.043   5.880   0.012 -0.3902  0.0614 -0.5764
 4644TIP3    H135491   0.955   5.896   0.046 -0.1664 -1.1648  0.6527
 4644TIP3    H235492   1.035   5.895  -0.082 -1.9037 -0.0240 -0.4833
 4645TIP3   OH235493   3.352   1.417   7.827 -1.0255  0.0764  0.2896
 4645TIP3    H135494   3.430   1.471   7.812 -1.6385  1.4756  1.8615
 4645TIP3    H235495   3.375   1.331   7.791  0.0314  1.3090 -2.2190
 4646TIP3   OH235496   6.723   3.764   0.045  0.0323 -0.8410 -0.1535
 4646TIP3    H135497   6.701   3.844  -0.003 -0.8373 -1.7727 -1.3962
 4646TIP3    H235498   6.809   3.781   0.083  0.0265  0.5386 -0.7078
 4647TIP3   OH235499   6.254   1.678   8.378  0.3406  0.6432 -0.3529
 4647TIP3    H135500   6.177   1.681   8.434  0.7056 -0.9136  0.2898
 4647TIP3    H235501   6.220   1.683   8.289 -0.4327  0.7030 -0.0602
 4648TIP3   OH235502   0.272   2.578   7.244 -0.1953 -0.0039 -0.3617
 4648TIP3    H135503   0.245   2.669   7.233 -0.2649 -0.0738 -0.7988
 4648TIP3    H235504   0.254   2.537   7.159 -1.6696 -0.8139  0.3110
 4649TIP3   OH235505   6.011   6.646   0.715  0.2588  0.3342 -0.0723
 4649TIP3    H135506   5.978   6.600   0.792  2.4035 -0.0532  0.6867
 4649TIP3    H235507   6.054   6.578   0.663 -1.3453  0.5597 -1.7588
 4650TIP3   OH235508   5.359   6.357   0.459  0.0720  0.0861 -0.4313
 4650TIP3    H135509   5.447   6.378   0.426  0.7450 -2.1920 -0.2632
 4650TIP3    H235510   5.375   6.317   0.544 -1.2472  0.6246  0.0935
 4651TIP3   OH235511   1.294   3.096   0.675  0.0191 -0.7310  0.6325
 4651TIP3    H135512   1.278   3.175   0.622 -1.4505 -0.8970  0.7831
 4651TIP3    H235513   1.367   3.119   0.732 -1.0025  0.8831  1.3515
 4652TIP3   OH235514   5.912   4.992   8.810  0.3408  0.1328  0.0116
 4652TIP3    H135515   5.899   4.977   8.717  1.1144  0.7703 -0.2172
 4652TIP3    H235516   6.008   4.993   8.821  0.2904  1.6059  0.5340
 4653TIP3   OH235517   1.599   5.325   7.520  0.2738 -0.0627  0.5176
 4653TIP3    H135518   1.667   5.319   7.453  0.0268 -0.5046  0.3055
 4653TIP3    H235519   1.521   5.352   7.472  0.2277  0.1700  0.7184
 4654TIP3   OH235520   5.175   2.344   8.770 -0.2784  0.1856 -0.5236
 4654TIP3    H135521   5.147   2.340   8.679  0.5403 -1.3401 -0.7554
 4654TIP3    H235522   5.144   2.429   8.802 -0.7808  0.6424 -2.1431
 4655TIP3   OH235523   2.490   0.380   8.635 -0.2191  0.2207 -0.2294
 4655TIP3    H135524   2.548   0.437   8.684 -0.3230  0.8638 -0.8413
 4655TIP3    H235525   2.533   0.370   8.550 -0.3846 -0.3201 -0.2555
 4656TIP3   OH235526   0.843   1.889   7.169 -0.2739 -0.2068 -0.3290
 4656TIP3    H135527   0.836   1.819   7.104  0.0682 -0.2333 -0.3401
 4656TIP3    H235528   0.787   1.861   7.241 -0.4460 -0.3043 -0.4970
 4657TIP3   OH235529   3.200   6.427   1.180 -0.1172  0.0299  0.0947
 4657TIP3    H135530   3.144   6.505   1.175  0.9587  0.7696 -0.9810
 4657TIP3    H235531   3.148   6.357   1.140 -0.0116  0.8982 -1.6861
 4658TIP3   OH235532   3.380   2.791   2.195 -0.7226 -0.0393  0.2790
 4658TIP3    H135533   3.308   2.827   2.247  0.6425  1.4522  1.2566
 4658TIP3    H235534   3.378   2.840   2.113 -0.6599  0.2179  0.4282
 4659TIP3   OH235535   1.602   2.924   7.713  0.4080  0.0121  0.1391
 4659TIP3    H135536   1.585   2.920   7.807 -0.6608  0.3842 -0.0200
 4659TIP3    H235537   1.668   2.857   7.697  1.7623  1.0028  1.3906
 4660TIP3   OH235538   1.943   2.441   2.142 -0.2290 -0.3032 -0.3307
 4660TIP3    H135539   2.011   2.451   2.076  3.4563  0.0495  3.1210
 4660TIP3    H235540   1.950   2.519   2.197 -1.8441 -1.3409  1.5273
 4661TIP3   OH235541   0.898   4.373   8.788 -0.4055  0.3096  0.8483
 4661TIP3    H135542   0.978   4.350   8.741 -1.7764 -1.8112 -0.6154
 4661TIP3    H235543   0.853   4.434   8.730 -1.8190 -1.8580 -0.4840
 4662TIP3   OH235544   1.121   3.916   7.296 -0.2743  0.0472 -0.6882
 4662TIP3    H135545   1.143   3.964   7.216  1.1664 -0.1007 -0.4188
 4662TIP3    H235546   1.115   3.825   7.269  1.3374 -0.1557 -0.4744
 4663TIP3   OH235547   2.276   3.627   1.081 -0.5105 -0.4086  0.2747
 4663TIP3    H135548   2.343   3.607   1.146 -0.1483  0.0728  0.0490
 4663TIP3    H235549   2.316   3.692   1.023 -1.1772 -0.0935  0.1558
 4664TIP3   OH235550   1.361   6.019   1.495 -0.2034 -0.5635 -0.1250
 4664TIP3    H135551   1.366   5.978   1.409 -1.6016 -0.4715 -0.2885
 4664TIP3    H235552   1.276   6.065   1.494  0.1360  0.1272  0.9964
 4665TIP3   OH235553   1.125   3.909   0.632 -0.3542 -0.1166  0.1115
 4665TIP3    H135554   1.179   3.937   0.558 -0.1628 -0.1217  0.2484
 4665TIP3    H235555   1.084   3.990   0.663  0.0916 -0.0035  0.4201
 4666TIP3   OH235556   1.047   4.026   2.120 -0.0146 -0.2825 -0.2308
 4666TIP3    H135557   0.957   4.055   2.114  0.0054  0.0874  0.9158
 4666TIP3    H235558   1.041   3.933   2.142 -0.1475 -0.0221  0.8992
 4667TIP3   OH235559   2.602   5.998   1.449 -0.1690  0.9547  0.1549
 4667TIP3    H135560   2.651   6.005   1.531  0.6436 -3.3310  0.2422
 4667TIP3    H235561   2.522   5.951   1.472 -0.8193  1.3102 -1.2536
 4668TIP3   OH235562   4.217   1.678   0.123  0.3866 -0.3910 -0.0689
 4668TIP3    H135563   4.153   1.633   0.069  1.0123 -0.8249 -0.4623
 4668TIP3    H235564   4.301   1.654   0.085  0.7975 -0.1080  0.6468
 4669TIP3   OH235565   2.616   4.584   8.800 -0.3343 -0.0846  0.0086
 4669TIP3    H135566   2.581   4.672   8.783  0.0309  0.1530  0.4759
 4669TIP3    H235567   2.709   4.598   8.817  0.1406 -0.7638 -1.7746
 4670TIP3   OH235568   5.674   1.721   6.798 -0.1672 -0.2293  0.2273
 4670TIP3    H135569   5.585   1.758   6.802  0.5540  1.7133 -0.3105
 4670TIP3    H235570   5.695   1.697   6.888 -0.5386  1.1558  0.7197
 4671TIP3   OH235571   4.738   5.198   7.759 -0.5790  0.0424 -0.0628
 4671TIP3    H135572   4.825   5.174   7.793 -1.1698 -1.2942  0.5905
 4671TIP3    H235573   4.755   5.231   7.671  0.6022 -0.0459  0.1103
 4672TIP3   OH235574   5.700   0.960   1.784  0.3671  0.0038  0.1056
 4672TIP3    H135575   5.716   0.940   1.876  1.6559 -0.1483 -0.1312
 4672TIP3    H235576   5.633   1.028   1.786 -0.1450 -0.5073  1.1230
 4673TIP3   OH235577   3.847   4.000   8.827  1.0819 -0.3825 -0.5731
 4673TIP3    H135578   3.937   3.975   8.850  0.8486 -0.9805 -0.2649
 4673TIP3    H235579   3.821   3.938   8.759  0.4919 -1.0113  0.1990
 4674TIP3   OH235580   6.067   3.763   1.294  0.0482  0.1781 -0.3567
 4674TIP3    H135581   6.071   3.712   1.374  2.6575 -2.2287 -1.8534
 4674TIP3    H235582   6.022   3.706   1.231  1.9456  0.1138 -1.7352
 4675TIP3   OH235583   5.692   6.724   8.533  0.0392 -0.4386  0.1193
 4675TIP3    H135584   5.743   6.793   8.575 -0.1154 -0.1196 -0.2220
 4675TIP3    H235585   5.738   6.706   8.451  0.5179 -1.2778  0.5482
 4676TIP3   OH235586   2.922   3.606   8.254 -0.2919 -0.3722 -0.6380
 4676TIP3    H135587   2.975   3.545   8.202 -1.9568 -0.7372 -1.9926
 4676TIP3    H235588   2.986   3.669   8.289  1.4485 -2.6820  0.5952
 4677TIP3   OH235589   5.884   6.158   0.867 -0.0314  0.5425  0.4741
 4677TIP3    H135590   5.944   6.159   0.941  1.5176  0.7259 -0.7187
 4677TIP3    H235591   5.926   6.214   0.801 -0.7272 -0.5836 -0.9982
 4678TIP3   OH235592   4.448   0.546   2.126  0.1886 -0.3193  0.4438
 4678TIP3    H135593   4.365   0.539   2.173  0.8945 -0.9663  1.6488
 4678TIP3    H235594   4.428   0.520   2.036 -1.0758  0.3791  0.4999
 4679TIP3   OH235595   0.009   6.560   7.572  0.0301 -0.5757  0.1239
 4679TIP3    H135596   0.037   6.603   7.491 -0.0064 -0.3096  0.2516
 4679TIP3    H235597   0.080   6.577   7.634  1.3433 -3.0233 -0.5811
 4680TIP3   OH235598   1.758   2.822   2.707  0.0959  0.6538  0.5900
 4680TIP3    H135599   1.833   2.791   2.656 -1.2720  0.6503 -1.5630
 4680TIP3    H235600   1.789   2.823   2.798  2.1299 -1.0233 -0.0058
 4681TIP3   OH235601   2.638   4.426   6.811 -0.8123  0.2051  0.4085
 4681TIP3    H135602   2.650   4.489   6.740  0.5283  0.8781  1.1940
 4681TIP3    H235603   2.573   4.364   6.778 -0.6786  0.8611 -1.1482
 4682TIP3   OH235604   4.847   4.974   1.089  0.2621 -0.5851 -0.0240
 4682TIP3    H135605   4.774   4.993   1.148  0.2383 -1.9560  0.4193
 4682TIP3    H235606   4.918   4.947   1.147  1.4822  1.6444 -0.3737
 4683TIP3   OH235607   2.849   2.881   0.298 -0.1286 -0.1904  0.0644
 4683TIP3    H135608   2.886   2.967   0.280 -1.5818  0.6824  1.0562
 4683TIP3    H235609   2.885   2.856   0.383 -2.3807  1.1004  1.5138
 4684TIP3   OH235610   4.285   2.504   1.238  0.1833 -0.1898 -0.7055
 4684TIP3    H135611   4.290   2.564   1.313 -0.8356  0.4222 -1.1031
 4684TIP3    H235612   4.297   2.417   1.276  1.2129  0.2194 -0.0473
 4685TIP3   OH235613   2.897   2.100   8.206  0.3511 -0.2959 -0.2485
 4685TIP3    H135614   2.898   2.178   8.150  0.5968 -0.0691  0.0739
 4685TIP3    H235615   2.985   2.096   8.244  0.2228 -0.5177  0.0272
 4686TIP3   OH235616   5.367   0.672   0.776 -0.5514 -0.2490 -0.6491
 4686TIP3    H135617   5.345   0.688   0.867 -2.6902 -1.8511 -0.8209
 4686TIP3    H235618   5.425   0.745   0.752  0.9836 -0.3741  2.2489
 4687TIP3   OH235619   1.551   5.262   0.694  0.2624  0.2796 -0.1143
 4687TIP3    H135620   1.516   5.230   0.612  0.6343  0.6539 -0.4255
 4687TIP3    H235621   1.477   5.304   0.738 -0.2638 -1.0847  0.3577
 4688TIP3   OH235622   4.346   1.853   0.781  0.2358  0.6228  0.3267
 4688TIP3    H135623   4.341   1.772   0.730 -0.1610  0.5711  0.4438
 4688TIP3    H235624   4.311   1.920   0.723 -1.1609  0.3966  0.8681
 4689TIP3   OH235625   4.152   1.933   8.840  0.0589 -0.0296 -0.8425
 4689TIP3    H135626   4.118   1.852   8.878  0.8109 -0.2782 -0.6884
 4689TIP3    H235627   4.236   1.908   8.802  0.7283  0.8703  0.0020
 4690TIP3   OH235628   2.053   1.652   7.423  0.0503 -0.1872 -0.2376
 4690TIP3    H135629   1.977   1.632   7.367  0.3947 -1.5302 -0.2766
 4690TIP3    H235630   2.129   1.624   7.372  0.4158 -0.8245  0.6206
 4691TIP3   OH235631   5.139   3.416   7.506 -0.0304  0.2231 -0.3721
 4691TIP3    H135632   5.100   3.495   7.468  1.2747  0.3309 -1.5794
 4691TIP3    H235633   5.233   3.428   7.493  0.2939 -0.7818  0.9533
 4692TIP3   OH235634   3.077   5.791   1.067 -0.5603 -0.3163 -0.9638
 4692TIP3    H135635   2.999   5.843   1.083  0.6773  0.9492  1.6696
 4692TIP3    H235636   3.061   5.709   1.112 -0.1136  0.2611  0.2994
 4693TIP3   OH235637   0.015   6.636   6.952  0.1845  0.1931 -0.4995
 4693TIP3    H135638   0.094   6.690   6.947  0.5816 -0.4135 -0.9315
 4693TIP3    H235639  -0.043   6.673   6.885  0.9929 -0.7282 -1.7779
 4694TIP3   OH235640   6.766   5.194   1.548  0.3005 -0.4041 -0.3888
 4694TIP3    H135641   6.767   5.153   1.634  1.3149 -2.0818 -1.1543
 4694TIP3    H235642   6.831   5.264   1.553  0.5060 -0.6346  0.1330
 4695TIP3   OH235643   2.928   3.156   0.336 -0.0870 -0.1566  0.1009
 4695TIP3    H135644   3.022   3.144   0.347  0.5050  0.6148 -3.0370
 4695TIP3    H235645   2.912   3.247   0.361  0.2809  0.0869 -0.5129
 4696TIP3   OH235646   0.351   6.595   1.293  0.1004 -0.1321 -0.0230
 4696TIP3    H135647   0.298   6.589   1.373 -0.8869  2.8429 -0.3314
 4696TIP3    H235648   0.289   6.620   1.225  1.5953  1.9317 -0.7316
 4697TIP3   OH235649   5.235   4.142   1.211  0.2969 -0.0635  0.6668
 4697TIP3    H135650   5.245   4.068   1.151  0.6082 -0.2545  0.9534
 4697TIP3    H235651   5.243   4.219   1.154 -1.9784 -0.2317  0.0438
 4698TIP3   OH235652   6.341   6.338   0.977  0.1251  0.3454 -0.8309
 4698TIP3    H135653   6.367   6.246   0.982  1.2839  0.6689 -0.5865
 4698TIP3    H235654   6.258   6.342   1.024 -0.0348 -0.6079 -1.0175
 4699TIP3   OH235655   0.124   2.988   1.471  0.1468  0.3229 -0.1591
 4699TIP3    H135656   0.200   2.965   1.525  1.8432  0.7544 -2.2191
 4699TIP3    H235657   0.162   3.023   1.390 -2.2747  1.9136 -0.7126
 4700TIP3   OH235658   3.286   2.804   6.927  0.6834 -0.4412  0.1480
 4700TIP3    H135659   3.208   2.759   6.958  0.3508  1.1920  1.8465
 4700TIP3    H235660   3.253   2.872   6.868  0.9010 -0.2778  0.2126
 4701TIP3   OH235661   5.423   0.572   1.585 -0.3586 -0.1919 -0.4222
 4701TIP3    H135662   5.496   0.511   1.598 -0.0918  0.4083  1.0665
 4701TIP3    H235663   5.355   0.519   1.545  0.0689 -1.3549  0.3312
 4702TIP3   OH235664   1.261   2.400   0.372 -0.8448 -0.2790  0.4623
 4702TIP3    H135665   1.343   2.434   0.406 -0.7350  0.6861 -0.7014
 4702TIP3    H235666   1.195   2.428   0.436 -0.7317  2.0237 -0.3674
 4703TIP3   OH235667   4.648   0.119   8.358 -0.1703 -0.0347 -0.2167
 4703TIP3    H135668   4.655   0.026   8.339  0.5098 -0.0579  0.1105
 4703TIP3    H235669   4.727   0.157   8.319  0.0282  0.2594  0.4498
 4704TIP3   OH235670   3.936   4.044   1.032 -0.2823 -0.3022  0.5863
 4704TIP3    H135671   3.906   4.133   1.016 -0.3597 -0.1609  1.4736
 4704TIP3    H235672   3.855   3.993   1.040 -0.2439 -0.7700 -1.4992
 4705TIP3   OH235673   0.449   5.367   0.315  0.0332 -0.1486  0.6475
 4705TIP3    H135674   0.505   5.439   0.345  0.4507 -0.5775  0.8994
 4705TIP3    H235675   0.420   5.324   0.396  0.4317 -0.7557  0.4705
 4706TIP3   OH235676   2.409   0.706   2.500  0.4642  0.3516 -0.7948
 4706TIP3    H135677   2.377   0.721   2.589 -0.6663 -0.1950 -1.0955
 4706TIP3    H235678   2.504   0.698   2.510  0.1999 -1.7165  0.6527
 4707TIP3   OH235679   4.144   6.613   1.926 -0.3277  0.1979 -0.0255
 4707TIP3    H135680   4.132   6.697   1.970 -1.4583  0.1433 -0.1976
 4707TIP3    H235681   4.116   6.548   1.991  1.1884 -0.1008  0.3501
 4708TIP3   OH235682   2.625   5.229   7.317 -0.1643 -0.5320 -0.4636
 4708TIP3    H135683   2.709   5.195   7.287 -0.2418 -0.1615 -1.1100
 4708TIP3    H235684   2.648   5.290   7.387 -0.0136 -1.7297  0.5780
 4709TIP3   OH235685   0.773   5.855   7.941  0.6262 -0.0817 -0.0566
 4709TIP3    H135686   0.713   5.864   8.016  0.5822  0.0908 -0.1130
 4709TIP3    H235687   0.725   5.801   7.879  0.2479  0.6215 -0.3916
 4710TIP3   OH235688   5.312   4.562   0.492  0.3250  0.0198 -0.0733
 4710TIP3    H135689   5.247   4.612   0.543 -1.1176 -0.5268 -1.2925
 4710TIP3    H235690   5.274   4.557   0.404  2.7880  0.9995 -1.2702
 4711TIP3   OH235691   2.176   5.533   1.424 -0.0264  0.2727  0.6043
 4711TIP3    H135692   2.189   5.445   1.458  0.4850 -0.4321 -1.2846
 4711TIP3    H235693   2.086   5.533   1.391  0.6034 -0.2740 -1.2619
 4712TIP3   OH235694   0.405   1.016   2.217  0.1031 -0.0921  0.2784
 4712TIP3    H135695   0.415   1.055   2.304 -2.0108 -2.4009  1.6871
 4712TIP3    H235696   0.487   0.970   2.201  1.4463  2.2708 -0.0979
 4713TIP3   OH235697   2.284   0.438   2.783 -0.5620  0.1488  0.3255
 4713TIP3    H135698   2.287   0.422   2.688 -2.1986 -1.8423  0.5434
 4713TIP3    H235699   2.335   0.518   2.795  0.0650  0.2168 -2.1779
 4714TIP3   OH235700   0.943   1.976   1.771  0.6785  0.2630  0.1349
 4714TIP3    H135701   1.007   1.917   1.812  0.0939 -1.6681 -1.5514
 4714TIP3    H235702   0.996   2.035   1.717  1.1554 -1.7725 -1.8137
 4715TIP3   OH235703   1.983   2.001   7.922 -0.0197  0.5305  0.3534
 4715TIP3    H135704   1.912   2.049   7.878  0.0741  0.1625 -0.2157
 4715TIP3    H235705   1.978   1.912   7.885  1.1330  0.6622 -0.1709
 4716TIP3   OH235706   5.309   1.151   1.193 -0.1911 -0.2301  0.5606
 4716TIP3    H135707   5.319   1.101   1.112 -0.9169 -0.3175  0.5158
 4716TIP3    H235708   5.317   1.242   1.165 -0.8270 -0.2426  0.3209
 4717TIP3   OH235709   1.903   0.853   0.938 -0.0794  0.0080  0.2401
 4717TIP3    H135710   1.837   0.913   0.904 -0.4062 -0.2186  0.4635
 4717TIP3    H235711   1.965   0.841   0.866  0.5767  1.4360  0.5308
 4718TIP3   OH235712   1.977   1.743   0.033 -0.0145 -0.1916  0.1677
 4718TIP3    H135713   1.881   1.743   0.028 -0.0883 -3.4388 -0.7268
 4718TIP3    H235714   1.997   1.678   0.101  1.5889  0.9253  0.8116
 4719TIP3   OH235715   5.069   1.802   1.472  0.6676 -0.1341 -0.5787
 4719TIP3    H135716   5.091   1.724   1.522 -0.7046 -0.2619 -0.1629
 4719TIP3    H235717   4.980   1.787   1.440  0.5647  1.0473 -0.9059
 4720TIP3   OH235718   2.134   4.091   8.580 -0.1112 -0.0190 -0.6570
 4720TIP3    H135719   2.117   4.177   8.619  0.8111 -0.8133  1.6459
 4720TIP3    H235720   2.172   4.111   8.495  1.0419  1.9149  0.2366
 4721TIP3   OH235721   5.507   1.016   7.456  0.1493 -0.1880 -0.3817
 4721TIP3    H135722   5.546   1.103   7.445 -0.3090  0.1313  0.4884
 4721TIP3    H235723   5.582   0.956   7.452  0.6267  0.3440  0.3034
 4722TIP3   OH235724   1.671   4.741   7.479  1.1011  0.0346  0.1009
 4722TIP3    H135725   1.728   4.718   7.406  0.7987 -1.2709  0.2495
 4722TIP3    H235726   1.583   4.715   7.450  0.3446  2.9365 -0.5353
 4723TIP3   OH235727   3.135   4.284   1.917  0.2464  0.6195  0.2891
 4723TIP3    H135728   3.072   4.219   1.885  2.2843 -0.2856 -2.3137
 4723TIP3    H235729   3.153   4.258   2.007  0.7179 -2.3187 -0.5386
 4724TIP3   OH235730   5.833   3.298   1.133 -0.6425 -0.1006 -0.1563
 4724TIP3    H135731   5.772   3.316   1.061 -0.1033 -0.3557 -0.6896
 4724TIP3    H235732   5.791   3.228   1.183 -1.0757  0.1554 -0.1545
 4725TIP3   OH235733   0.205   3.809   0.373  0.3233 -0.2777  0.3749
 4725TIP3    H135734   0.214   3.716   0.393 -0.1158 -0.1567  1.1707
 4725TIP3    H235735   0.151   3.844   0.444 -2.1979 -0.0072 -1.5072
 4726TIP3   OH235736   5.300   4.625   8.868  0.0084  0.4375  0.6795
 4726TIP3    H135737   5.315   4.662   8.781  0.7682  0.9402  1.0186
 4726TIP3    H235738   5.243   4.689   8.911 -1.4137 -0.4179  0.1397
 4727TIP3   OH235739   1.109   4.980   2.170  0.1175 -0.1544 -0.1394
 4727TIP3    H135740   1.138   4.899   2.128 -0.9466 -0.6190  0.0001
 4727TIP3    H235741   1.027   4.957   2.213  0.0876  0.8620  0.3781
 4728TIP3   OH235742   1.441   6.007   8.754  0.2448 -0.0423  0.6155
 4728TIP3    H135743   1.370   6.014   8.817 -1.8254 -1.0014 -1.4747
 4728TIP3    H235744   1.499   6.080   8.775 -0.2617 -0.4067  3.6498
 4729TIP3   OH235745   1.325   4.315   8.298  0.2254  0.1219  0.0541
 4729TIP3    H135746   1.418   4.314   8.278  0.0407  1.0667 -0.9437
 4729TIP3    H235747   1.303   4.408   8.306 -0.6350 -0.0872  0.2888
 4730TIP3   OH235748   6.639   4.712   0.405  0.2213 -0.0578  0.5572
 4730TIP3    H135749   6.710   4.766   0.440 -0.3981  0.9516  0.2716
 4730TIP3    H235750   6.684   4.648   0.348  0.9182  0.4485  0.5270
 4731TIP3   OH235751   2.636   3.698   7.100  0.3586  0.0296 -0.2119
 4731TIP3    H135752   2.724   3.713   7.064  0.8508  1.6273  1.5294
 4731TIP3    H235753   2.607   3.617   7.058  2.6538 -0.5373 -0.8517
 4732TIP3   OH235754   6.741   5.261   0.803  0.2054 -0.4425  0.3978
 4732TIP3    H135755   6.759   5.219   0.719  0.8130  0.4675  0.0465
 4732TIP3    H235756   6.687   5.337   0.780  0.8653  0.1454  0.7385
 4733TIP3   OH235757   6.057   4.792   0.971  0.4866  0.0115  0.1047
 4733TIP3    H135758   6.020   4.704   0.976  3.0949 -1.1498  0.5341
 4733TIP3    H235759   6.132   4.784   0.912  1.5707  1.6323  1.1686
 4734TIP3   OH235760   6.446   3.201   7.583 -0.3383 -0.5310  0.1937
 4734TIP3    H135761   6.447   3.154   7.500 -1.1166 -0.0584 -0.1015
 4734TIP3    H235762   6.529   3.248   7.586 -0.9427  0.6819 -1.0664
 4735TIP3   OH235763   3.953   5.514   8.010  0.3414  0.1875  0.3153
 4735TIP3    H135764   4.040   5.522   8.049  0.5401 -1.4879  0.2885
 4735TIP3    H235765   3.956   5.432   7.960 -0.5157  1.2993 -1.6739
 4736TIP3   OH235766   3.182   4.984   7.461  0.1682 -0.3905  0.1611
 4736TIP3    H135767   3.103   4.955   7.416  0.1414  2.0204 -1.5590
 4736TIP3    H235768   3.250   4.984   7.394  1.0905 -0.2776  1.0541
 4737TIP3   OH235769   2.611   1.903   1.869 -0.4030  0.2402 -0.2789
 4737TIP3    H135770   2.523   1.939   1.878 -0.5636 -0.4684  1.4107
 4737TIP3    H235771   2.657   1.934   1.947  0.4056 -0.5794 -0.4130
 4738TIP3   OH235772   4.360   6.179   8.497  0.3518  0.4210  0.1388
 4738TIP3    H135773   4.405   6.094   8.499 -2.1653 -1.3198 -3.6384
 4738TIP3    H235774   4.401   6.226   8.424  0.3717  1.5871  0.8864
 4739TIP3   OH235775   4.598   4.775   1.009 -0.6890 -0.2448 -0.1819
 4739TIP3    H135776   4.549   4.696   1.031 -0.0881 -0.1060  1.8846
 4739TIP3    H235777   4.533   4.833   0.970 -2.1617 -0.1711  2.2059
 4740TIP3   OH235778   3.488   1.069   0.898  0.1738  0.1805  0.0231
 4740TIP3    H135779   3.442   0.986   0.896 -0.1324  0.0485  4.1002
 4740TIP3    H235780   3.451   1.120   0.826 -0.2405 -2.8338 -2.0293
 4741TIP3   OH235781   1.693   1.611   2.787  0.6741 -0.0781 -0.0360
 4741TIP3    H135782   1.771   1.575   2.744  0.3119 -1.2539  0.2530
 4741TIP3    H235783   1.651   1.535   2.827 -0.7964  0.4973 -0.4527
 4742TIP3   OH235784   3.254   0.833   8.930  0.1892  0.2565 -0.3830
 4742TIP3    H135785   3.220   0.833   8.840  2.1921  1.9061 -1.2154
 4742TIP3    H235786   3.189   0.883   8.980 -1.5496 -1.6807 -0.5861
 4743TIP3   OH235787   1.371   1.934   8.807  0.2302 -0.8491  0.0766
 4743TIP3    H135788   1.352   1.874   8.879  0.2922 -1.3079 -0.2773
 4743TIP3    H235789   1.467   1.932   8.800  0.1723 -1.8469 -0.8552
 4744TIP3   OH235790   2.655   4.650   6.978  0.1076  0.0122 -0.7425
 4744TIP3    H135791   2.639   4.563   6.942  0.4829 -0.0111 -0.8612
 4744TIP3    H235792   2.709   4.693   6.911 -2.3840  1.3352 -2.0360
 4745TIP3   OH235793   3.165   4.555   0.624 -0.0135 -0.2675  0.1062
 4745TIP3    H135794   3.261   4.559   0.630  0.2333 -2.4880 -1.1422
 4745TIP3    H235795   3.141   4.631   0.571  0.9004  0.9752  1.4000
 4746TIP3   OH235796   6.059   1.551   0.444 -0.3767  0.5696 -0.1370
 4746TIP3    H135797   6.077   1.511   0.529  0.3636  0.6815 -0.2286
 4746TIP3    H235798   6.022   1.480   0.392  0.5345  0.0913 -0.1657
 4747TIP3   OH235799   5.935   1.393   1.272 -0.5783 -0.4591  0.0462
 4747TIP3    H135800   5.946   1.396   1.367 -1.7111 -1.8602  0.2530
 4747TIP3    H235801   5.939   1.300   1.250 -3.0475 -0.3991 -0.9041
 4748TIP3   OH235802   5.200   0.697   2.149 -0.4516 -0.3097  0.0491
 4748TIP3    H135803   5.205   0.746   2.231  2.2504 -1.0990  0.4706
 4748TIP3    H235804   5.226   0.761   2.082 -1.3471 -0.0197 -0.0337
 4749TIP3   OH235805   1.608   2.054   7.883 -0.0187  0.0133 -0.3291
 4749TIP3    H135806   1.521   2.071   7.919 -0.3197 -1.2951 -0.3988
 4749TIP3    H235807   1.644   1.985   7.938  0.6558 -0.0248 -0.8026
 4750TIP3   OH235808   0.199   5.747   6.948 -0.3907  0.2342 -0.8486
 4750TIP3    H135809   0.186   5.733   7.042  2.3327  0.0729 -0.4085
 4750TIP3    H235810   0.203   5.660   6.910  1.8393  0.1239 -0.5027
 4751TIP3   OH235811   5.385   2.033   1.218 -0.1111 -0.2035  0.0761
 4751TIP3    H135812   5.452   2.097   1.244 -0.3075  0.7619 -1.6361
 4751TIP3    H235813   5.309   2.055   1.272  1.2154 -2.0814  2.9367
 4752TIP3   OH235814   3.052   5.374   8.837 -0.0733 -0.2688 -0.4139
 4752TIP3    H135815   2.987   5.427   8.792 -1.3475  0.2044  1.8632
 4752TIP3    H235816   3.137   5.409   8.808 -0.8035 -0.0072 -2.3727
 4753TIP3   OH235817   3.346   5.089   0.910 -0.4063  0.5638 -0.7969
 4753TIP3    H135818   3.374   5.176   0.937 -1.2213  0.6716 -0.2663
 4753TIP3    H235819   3.338   5.040   0.992  1.4086 -0.4464 -1.1883
 4754TIP3   OH235820   2.000   3.202   8.360 -0.2516 -0.5591 -0.0324
 4754TIP3    H135821   2.095   3.188   8.353 -0.4478 -1.4180 -1.4273
 4754TIP3    H235822   1.967   3.185   8.271 -1.9291 -2.0955  0.8268
 4755TIP3   OH235823   6.618   0.636   1.404  0.1090  0.0236 -0.2495
 4755TIP3    H135824   6.676   0.706   1.435 -1.3753  1.4798 -0.6405
 4755TIP3    H235825   6.547   0.634   1.468 -0.3181 -0.5191 -0.7373
 4756TIP3   OH235826   5.198   1.633   6.631  0.1358 -0.5198  0.2897
 4756TIP3    H135827   5.160   1.615   6.544 -0.0840  2.0551 -0.2381
 4756TIP3    H235828   5.258   1.561   6.647 -1.8690 -2.5353 -0.7399
 4757TIP3   OH235829   2.483   3.153   7.799 -0.0843  0.1451 -0.2762
 4757TIP3    H135830   2.500   3.140   7.892 -1.9254 -0.5351  0.0183
 4757TIP3    H235831   2.444   3.070   7.771 -0.8323  0.8292 -1.3199
 4758TIP3   OH235832   1.409   3.495   0.502 -0.1089  0.2852  0.5085
 4758TIP3    H135833   1.334   3.527   0.451  0.7948  1.6519 -0.0321
 4758TIP3    H235834   1.431   3.411   0.462 -0.2910  0.6840 -0.4520
 4759TIP3   OH235835   3.818   2.368   8.135  0.5777 -0.3135 -0.0425
 4759TIP3    H135836   3.864   2.304   8.190  0.6800 -0.4954 -0.3415
 4759TIP3    H235837   3.730   2.332   8.125  0.4204 -0.0560  0.3774
 4760TIP3   OH235838   1.779   5.828   1.154  0.3903 -0.8843  0.2474
 4760TIP3    H135839   1.846   5.760   1.150  0.7429 -0.5094 -0.3614
 4760TIP3    H235840   1.698   5.784   1.130  1.0580 -0.5457 -3.2138
 4761TIP3   OH235841   6.309   6.740   0.440 -0.0418 -0.1764 -0.2948
 4761TIP3    H135842   6.251   6.778   0.373 -1.9601  0.2169  1.4749
 4761TIP3    H235843   6.254   6.676   0.485 -0.0547  1.9017  3.0423
 4762TIP3   OH235844   0.983   4.918   7.453 -0.2090 -0.5066  0.9565
 4762TIP3    H135845   0.960   4.950   7.366 -0.1588 -0.0694  1.1001
 4762TIP3    H235846   0.936   4.836   7.462  1.9496 -2.0054 -0.5640
 4763TIP3   OH235847   1.407   1.091   1.294 -0.6232  0.2918 -0.0663
 4763TIP3    H135848   1.414   1.042   1.376 -1.2711  1.2019  0.5522
 4763TIP3    H235849   1.313   1.089   1.274 -0.3222 -1.1529 -1.5746
 4764TIP3   OH235850   4.932   0.582   7.374 -0.3576 -0.0138  0.1647
 4764TIP3    H135851   4.849   0.600   7.330 -0.5933  1.2118  1.0512
 4764TIP3    H235852   4.954   0.664   7.419  2.2375  0.3198 -1.4595
 4765TIP3   OH235853   1.660   0.942   7.904 -0.5036 -0.2000 -0.4327
 4765TIP3    H135854   1.735   0.917   7.959 -0.6454  1.1213  0.4135
 4765TIP3    H235855   1.699   0.980   7.826 -0.2785  0.2784 -0.0945
 4766TIP3   OH235856   2.982   6.709   8.706 -0.8076 -0.0158 -0.2155
 4766TIP3    H135857   2.928   6.771   8.657 -0.8814  0.0796 -0.0118
 4766TIP3    H235858   2.926   6.679   8.777 -0.0607  1.3828  1.0343
 4767TIP3   OH235859   0.870   1.424   1.466 -0.4147  0.3371 -0.4218
 4767TIP3    H135860   0.872   1.406   1.560 -2.1156 -1.3656 -0.6496
 4767TIP3    H235861   0.840   1.515   1.459 -2.1284 -0.0973  0.6932
 4768TIP3   OH235862   2.787   0.050   0.437 -0.2635 -0.1541  0.5027
 4768TIP3    H135863   2.840  -0.017   0.481  0.1263  0.9988  1.8502
 4768TIP3    H235864   2.839   0.074   0.360  1.5755  1.4203  2.1324
 4769TIP3   OH235865   5.231   2.483   2.906 -0.0453  0.4653 -0.4053
 4769TIP3    H135866   5.299   2.478   2.974 -1.3355  1.7689  1.0428
 4769TIP3    H235867   5.248   2.407   2.850  0.9135 -0.8176  1.5183
 4770TIP3   OH235868   6.124   1.462   7.274  0.5011 -0.0371 -0.1691
 4770TIP3    H135869   6.171   1.516   7.337 -0.6981 -0.3396  1.0133
 4770TIP3    H235870   6.127   1.513   7.192 -2.3554  2.9298  1.3404
 4771TIP3   OH235871   6.431   3.779   2.130  0.6710  0.1163 -0.5780
 4771TIP3    H135872   6.375   3.759   2.205  0.9513  0.7775 -0.1832
 4771TIP3    H235873   6.421   3.704   2.072 -0.6405  0.2330 -0.5332
 4772TIP3   OH235874   4.062   2.624   1.683 -0.3846  0.4765  0.8860
 4772TIP3    H135875   3.971   2.600   1.667  0.3367 -2.5918  0.8574
 4772TIP3    H235876   4.105   2.542   1.709  2.6623  1.5063 -0.3951
 4773TIP3   OH235877   4.156   4.718   0.747  0.7558  0.5480  0.2020
 4773TIP3    H135878   4.069   4.754   0.760  1.2186  2.5159 -1.4474
 4773TIP3    H235879   4.143   4.624   0.736 -1.0863  0.7507  0.4376
 4774TIP3   OH235880   5.306   5.736   7.849 -0.6162 -0.5553  0.8898
 4774TIP3    H135881   5.364   5.662   7.834 -2.0459 -1.4057 -0.8525
 4774TIP3    H235882   5.329   5.767   7.936  0.3660 -2.7241  1.4705
 4775TIP3   OH235883   3.442   4.203   1.814 -0.2223 -0.6130 -0.2917
 4775TIP3    H135884   3.392   4.172   1.889  2.8887  0.7123  2.5499
 4775TIP3    H235885   3.432   4.133   1.748 -5.5261 -0.4772 -0.0579
 4776TIP3   OH235886   6.379   5.701   0.609 -0.1456 -0.4660  0.3199
 4776TIP3    H135887   6.452   5.748   0.648 -0.3331 -1.2329  1.6801
 4776TIP3    H235888   6.309   5.765   0.602  0.0320 -0.2110  0.8685
 4777TIP3   OH235889   3.719   2.995   0.067 -0.4564  0.4664  0.1776
 4777TIP3    H135890   3.770   3.035  -0.003 -1.8412  1.9411 -0.0346
 4777TIP3    H235891   3.628   3.011   0.043 -1.0474 -1.5405  0.8758
 4778TIP3   OH235892   4.195   4.608   7.762 -0.0843 -0.2267  0.3437
 4778TIP3    H135893   4.144   4.681   7.728  1.3781  0.6213 -0.1113
 4778TIP3    H235894   4.178   4.536   7.701 -0.0627  0.2913 -0.2712
 4779TIP3   OH235895   2.321   4.092   1.279 -0.8384 -0.4978  0.1695
 4779TIP3    H135896   2.397   4.127   1.325 -1.2471  1.1659 -0.3687
 4779TIP3    H235897   2.306   4.153   1.207 -1.4526 -1.9285 -0.9597
 4780TIP3   OH235898   5.836   1.368   0.565  0.0486  0.3369 -0.1452
 4780TIP3    H135899   5.756   1.410   0.531 -0.0199 -0.1202 -0.5633
 4780TIP3    H235900   5.865   1.311   0.494  0.8590  0.6361 -0.0661
 4781TIP3   OH235901   0.029   1.596   0.229 -0.3767 -0.6261  0.1815
 4781TIP3    H135902   0.060   1.508   0.247 -2.0428 -1.0150  1.3494
 4781TIP3    H235903  -0.008   1.626   0.312 -0.1497  1.0533 -0.2867
 4782TIP3   OH235904   6.322   2.960   1.633 -0.3057 -0.5839 -0.6794
 4782TIP3    H135905   6.279   3.043   1.611  0.4411 -0.3402 -1.2880
 4782TIP3    H235906   6.400   2.987   1.682 -1.0135 -1.0354  0.7512
 4783TIP3   OH235907   5.846   3.449   2.808 -0.1856 -0.4538  0.2517
 4783TIP3    H135908   5.874   3.388   2.876  1.1269 -1.1007 -0.8296
 4783TIP3    H235909   5.900   3.527   2.823 -1.2009  0.1203  1.0552
 4784TIP3   OH235910   1.263   0.634   0.709  0.1108  0.0637 -1.1061
 4784TIP3    H135911   1.236   0.696   0.641  1.5180  0.4285 -1.3684
 4784TIP3    H235912   1.314   0.686   0.771 -1.6470 -0.1414  0.6002
 4785TIP3   OH235913   6.127   1.719   7.848  0.0026  0.5544  0.0351
 4785TIP3    H135914   6.163   1.639   7.810  2.0307  0.3211  2.2298
 4785TIP3    H235915   6.132   1.783   7.777 -2.0381 -1.2645 -1.8895
 4786TIP3   OH235916   0.967   5.213   7.305 -0.5813  0.0348  0.6037
 4786TIP3    H135917   0.927   5.178   7.385 -1.4044  0.7095  0.5057
 4786TIP3    H235918   0.895   5.259   7.261  0.4589  1.9744  0.7977
 4787TIP3   OH235919   1.819   2.210   7.776  0.3253  0.4574  0.3867
 4787TIP3    H135920   1.767   2.134   7.803  0.3446  0.7175  1.1772
 4787TIP3    H235921   1.777   2.285   7.819  0.9929  0.7479  0.5430
 4788TIP3   OH235922   2.255   5.741   0.626 -0.2458 -0.1655 -0.2854
 4788TIP3    H135923   2.188   5.753   0.694  0.1176 -1.5000  0.3459
 4788TIP3    H235924   2.326   5.800   0.653 -0.5925  0.2224 -0.1951
 4789TIP3   OH235925   2.814   6.569   1.165 -0.2531  0.0599 -0.7420
 4789TIP3    H135926   2.792   6.613   1.083 -2.9559 -1.9811 -1.2723
 4789TIP3    H235927   2.810   6.475   1.144 -0.4783 -0.5245  1.5732
 4790TIP3   OH235928   6.196   3.061   0.551  0.3034  0.3619  0.0183
 4790TIP3    H135929   6.202   3.154   0.530 -0.3673  0.3798 -0.1033
 4790TIP3    H235930   6.133   3.056   0.622  2.1331  0.2377  1.7130
 4791TIP3   OH235931   0.143   1.816   6.730 -0.5749  0.2319 -0.0434
 4791TIP3    H135932   0.098   1.832   6.813  0.5241  1.2334  0.3773
 4791TIP3    H235933   0.154   1.721   6.727 -0.6531  0.1839  0.9360
 4792TIP3   OH235934   4.766   5.816   7.917  0.6010 -0.2707 -0.1616
 4792TIP3    H135935   4.843   5.823   7.860  0.9582 -1.0272  0.2129
 4792TIP3    H235936   4.786   5.875   7.990  1.0544 -0.8357  0.1786
 4793TIP3   OH235937   5.474   5.025   8.374  0.0699  0.4840  0.4130
 4793TIP3    H135938   5.524   5.071   8.307 -0.7641  2.1805  0.8980
 4793TIP3    H235939   5.424   4.959   8.325 -0.1190  1.3242 -0.5543
 4794TIP3   OH235940   4.349   2.449   2.085  0.6498 -0.0148  0.3580
 4794TIP3    H135941   4.300   2.417   2.009 -3.0908  0.6313  2.2268
 4794TIP3    H235942   4.347   2.376   2.147  1.3886  0.3151  0.7832
 4795TIP3   OH235943   4.446   2.406   7.965 -0.7385  0.3008  0.5093
 4795TIP3    H135944   4.356   2.374   7.964 -0.4194 -0.7069  1.6225
 4795TIP3    H235945   4.494   2.344   7.910 -0.5909  0.3962  0.5287
 4796TIP3   OH235946   0.098   5.675   2.760 -0.0496 -0.5109  0.4364
 4796TIP3    H135947   0.163   5.680   2.831  0.2301 -0.1581  0.1594
 4796TIP3    H235948   0.137   5.615   2.697  0.3428  0.2509 -0.0633
 4797TIP3   OH235949   3.450   3.084   0.052  0.0740  1.2640 -0.5291
 4797TIP3    H135950   3.376   3.110   0.107  0.3202  2.6430 -0.8209
 4797TIP3    H235951   3.413   3.074  -0.035 -0.2262 -0.4743 -0.2338
 4798TIP3   OH235952   2.181   1.204   0.088 -0.0366  0.1062  0.3577
 4798TIP3    H135953   2.244   1.133   0.093 -0.5137 -0.4503 -1.0305
 4798TIP3    H235954   2.232   1.280   0.060  0.1257 -0.2218 -0.2613
 4799TIP3   OH235955   2.716   2.278   2.007 -0.1279 -0.0154 -0.5270
 4799TIP3    H135956   2.672   2.218   2.066  0.8674 -0.3525 -0.0929
 4799TIP3    H235957   2.751   2.222   1.937  0.7660  0.0347 -0.1436
 4800TIP3   OH235958   1.189   2.077   1.522 -0.1634  0.3364  0.4811
 4800TIP3    H135959   1.173   2.023   1.600 -0.8319 -0.2126 -0.0198
 4800TIP3    H235960   1.269   2.125   1.542  0.1125 -0.3911  1.1916
 4801TIP3   OH235961   2.414   5.304   2.563  0.1092  0.3552 -0.5508
 4801TIP3    H135962   2.454   5.364   2.500 -0.7657  0.5458 -0.9397
 4801TIP3    H235963   2.347   5.357   2.608 -0.3360 -0.1893 -0.5556
 4802TIP3   OH235964   2.380   0.142   0.789 -0.2460 -0.2870  0.7910
 4802TIP3    H135965   2.345   0.063   0.829 -0.0169 -1.6198 -1.4497
 4802TIP3    H235966   2.311   0.172   0.730 -0.2944  1.1672  1.5462
 4803TIP3   OH235967   6.690   2.753   1.384  0.0638  0.0686 -0.0023
 4803TIP3    H135968   6.601   2.777   1.361  0.1113  0.1827 -0.0652
 4803TIP3    H235969   6.738   2.836   1.387  0.3747 -0.0729 -0.8597
 4804TIP3   OH235970   0.312   0.496   0.701 -0.7565  0.1773  0.3212
 4804TIP3    H135971   0.223   0.479   0.671 -0.7870  1.0526 -0.1284
 4804TIP3    H235972   0.305   0.503   0.796 -0.9499 -0.9675  0.3998
 4805TIP3   OH235973   4.027   6.725   0.032 -0.2331  0.1398  1.0032
 4805TIP3    H135974   4.102   6.738   0.090  0.8840  1.0029 -0.5953
 4805TIP3    H235975   4.065   6.692  -0.050 -1.3822  2.1238 -0.3943
 4806TIP3   OH235976   3.529   6.542   7.864  0.1264 -0.2059 -0.0339
 4806TIP3    H135977   3.499   6.602   7.795 -0.9428 -1.0171 -0.3032
 4806TIP3    H235978   3.535   6.457   7.821 -0.2690 -0.6711  0.8000
 4807TIP3   OH235979   0.812   0.677   1.356  0.1943 -0.1850 -0.6179
 4807TIP3    H135980   0.800   0.584   1.339 -1.1693 -0.1024 -0.2443
 4807TIP3    H235981   0.759   0.694   1.434  0.2823  0.9355 -0.7842
 4808TIP3   OH235982   1.338   0.802   2.034 -0.4974  0.3108 -0.5395
 4808TIP3    H135983   1.371   0.855   1.961 -1.4800  2.6110  0.5862
 4808TIP3    H235984   1.330   0.714   1.998 -1.0030  1.3620 -3.2173
 4809TIP3   OH235985   2.890   3.227   7.976  0.1753 -0.0080 -0.3556
 4809TIP3    H135986   2.837   3.244   8.054 -1.9991  0.5933 -1.8522
 4809TIP3    H235987   2.922   3.138   7.988 -0.3472 -0.0347  1.0955
 4810TIP3   OH235988   3.164   5.061   2.297  0.2734 -0.0788  0.5110
 4810TIP3    H135989   3.097   5.071   2.365  1.1962 -1.5409  1.7167
 4810TIP3    H235990   3.166   4.967   2.280 -0.3994  0.3096 -2.0962
 4811TIP3   OH235991   0.384   0.891   8.035  0.3218  0.6984  0.7127
 4811TIP3    H135992   0.330   0.816   8.060  2.4122 -0.5084  1.9094
 4811TIP3    H235993   0.355   0.961   8.093 -2.4324  1.2807 -1.1683
 4812TIP3   OH235994   0.040   6.383   0.510  0.0560 -0.0076 -0.5964
 4812TIP3    H135995  -0.022   6.344   0.449  0.6973  1.6886 -2.4277
 4812TIP3    H235996  -0.015   6.435   0.569 -0.3888  0.3876 -1.3426
 4813TIP3   OH235997   6.580   1.358   7.371 -0.0568  0.1817 -0.5041
 4813TIP3    H135998   6.494   1.321   7.388  0.4861 -0.8462  0.0841
 4813TIP3    H235999   6.617   1.303   7.302  0.3137  0.3156 -0.4174
 4814TIP3   OH236000   0.064   1.855   0.889 -0.2778 -0.4954  0.1610
 4814TIP3    H136001   0.030   1.898   0.810 -0.7619 -0.6363  0.2859
 4814TIP3    H236002  -0.014   1.834   0.940  0.1057  1.1031  1.4904
 4815TIP3   OH236003   5.231   6.362   2.125 -0.2880 -0.1199  0.2329
 4815TIP3    H136004   5.178   6.440   2.107  1.3479  0.4568 -2.7760
 4815TIP3    H236005   5.319   6.396   2.143  0.4185 -1.2123 -0.9910
 4816TIP3   OH236006   1.080   0.470   1.186 -0.2131  0.5716 -0.3376
 4816TIP3    H136007   1.070   0.442   1.095  0.3480 -0.3031 -0.1456
 4816TIP3    H236008   0.991   0.477   1.219 -0.3941 -0.9581 -0.4299
 4817TIP3   OH236009   6.478   0.260   1.081  0.1997 -0.2712  0.5550
 4817TIP3    H136010   6.561   0.278   1.126  1.1998  0.3766 -1.4208
 4817TIP3    H236011   6.414   0.313   1.128  1.0264 -0.2101  1.6724
 4818TIP3   OH236012   1.460   3.106   2.712 -0.2003 -0.5348 -0.2879
 4818TIP3    H136013   1.369   3.085   2.730 -0.3283 -0.4281 -0.7945
 4818TIP3    H236014   1.500   3.118   2.798 -0.9545  0.6808 -0.0899
 4819TIP3   OH236015   6.677   0.716   0.623  0.2896 -0.2204  0.1452
 4819TIP3    H136016   6.745   0.698   0.688  0.1610  1.1864  0.6975
 4819TIP3    H236017   6.679   0.640   0.564  0.6381 -1.3731  1.5820
 4820TIP3   OH236018   0.303   6.295   1.408  0.1052  0.1866 -0.5894
 4820TIP3    H136019   0.318   6.384   1.440  0.3252  0.0132 -0.2085
 4820TIP3    H236020   0.235   6.305   1.341 -0.2275  0.5799 -0.1972
 4821TIP3   OH236021   0.572   3.975   8.873 -0.3298  0.0412 -0.4462
 4821TIP3    H136022   0.598   3.940   8.788 -0.9846  2.5909 -1.8017
 4821TIP3    H236023   0.646   3.957   8.931  0.6671 -0.6597 -1.8844
 4822TIP3   OH236024   2.890   4.672   8.831 -0.0722  0.3382 -0.5489
 4822TIP3    H136025   2.931   4.714   8.907 -1.0153  0.6700 -0.1973
 4822TIP3    H236026   2.926   4.583   8.830  0.0519  0.3699  0.2265
 4823TIP3   OH236027   4.474   1.943   0.142  0.5511 -0.3191 -0.3024
 4823TIP3    H136028   4.537   1.992   0.195 -1.8657  0.0966  2.4332
 4823TIP3    H236029   4.514   1.857   0.130  1.9236  0.1404  0.7470
 4824TIP3   OH236030   0.573   4.568   2.407  0.6364 -0.4638  0.8329
 4824TIP3    H136031   0.642   4.625   2.439  1.6019 -1.3390  0.3863
 4824TIP3    H236032   0.619   4.489   2.377 -0.6405 -1.4825  1.4387
 4825TIP3   OH236033   3.678   4.910   8.683  0.3620  0.2969  0.0993
 4825TIP3    H136034   3.678   4.993   8.636  2.0246  0.6269  0.6242
 4825TIP3    H236035   3.640   4.930   8.768  0.8851  0.5728  0.2752
 4826TIP3   OH236036   1.344   2.753   7.617  0.1051 -0.7891 -0.2160
 4826TIP3    H136037   1.351   2.843   7.649  1.2568 -0.0462 -2.3693
 4826TIP3    H236038   1.260   2.751   7.571  0.2924 -0.6683 -0.5661
 4827TIP3   OH236039   6.477   2.993   0.364 -0.0035 -0.0822 -0.0087
 4827TIP3    H136040   6.384   3.004   0.344  0.0939 -0.7344 -0.8837
 4827TIP3    H236041   6.478   2.946   0.447 -0.4746 -0.5421 -0.2539
 4828TIP3   OH236042   3.325   0.379   3.111  0.5235 -0.1726  0.3851
 4828TIP3    H136043   3.375   0.299   3.126  1.0774  0.5051  2.4366
 4828TIP3    H236044   3.271   0.389   3.190  0.3459  1.3803  0.1096
 4829TIP3   OH236045   2.294   3.913   7.326 -0.4483 -0.1899  0.3098
 4829TIP3    H136046   2.253   3.998   7.338 -0.1002  0.0074  0.1211
 4829TIP3    H236047   2.245   3.854   7.384 -0.4009  0.2321  0.7858
 4830TIP3   OH236048   2.113   6.608   7.575 -0.3114  0.0609  0.0557
 4830TIP3    H136049   2.034   6.661   7.564 -0.6724 -0.5326 -0.3055
 4830TIP3    H236050   2.090   6.524   7.534  0.2488 -0.3662  0.6137
 4831TIP3   OH236051   6.228   5.642   0.008 -0.3361 -0.3731 -0.0253
 4831TIP3    H136052   6.210   5.730   0.043  2.2368  0.2883 -0.1145
 4831TIP3    H236053   6.172   5.584   0.059 -1.5744  1.2313  0.5556
 4832TIP3   OH236054   1.254   5.034   0.687  0.0240 -0.3909 -0.2719
 4832TIP3    H136055   1.286   5.084   0.612  1.3143 -0.1797  0.3848
 4832TIP3    H236056   1.333   5.002   0.729 -0.5783  0.6689  1.8043
 4833TIP3   OH236057   1.643   5.741   1.836  0.2769 -0.3337 -0.1046
 4833TIP3    H136058   1.561   5.707   1.801  0.1195 -0.9303  0.8058
 4833TIP3    H236059   1.625   5.833   1.856  0.1717 -0.1670 -0.9389
 4834TIP3   OH236060   5.515   2.695   3.000 -0.0318  0.2065  0.0234
 4834TIP3    H136061   5.515   2.683   2.905 -1.8001 -0.3748  0.0586
 4834TIP3    H236062   5.479   2.613   3.034  1.1731  0.1509  1.2670
 4835TIP3   OH236063   5.305   5.701   8.677  0.2218 -0.5290 -0.9342
 4835TIP3    H136064   5.396   5.713   8.650 -0.1084  0.0231 -1.8375
 4835TIP3    H236065   5.254   5.752   8.614 -0.7353 -1.0412 -0.5964
 4836TIP3   OH236066   1.458   5.137   1.937 -0.1829  0.4751  0.7143
 4836TIP3    H136067   1.515   5.085   1.880 -1.1028  0.0680  0.1434
 4836TIP3    H236068   1.440   5.080   2.011  0.2307  0.6474  0.9537
 4837TIP3   OH236069   4.882   0.755   1.488 -0.1035  0.2364 -0.0803
 4837TIP3    H136070   4.822   0.709   1.430  0.6381 -3.0660  1.5741
 4837TIP3    H236071   4.829   0.779   1.564  0.1327 -0.5658  0.3455
 4838TIP3   OH236072   6.248   3.117   8.120 -0.2875  0.2240 -0.3981
 4838TIP3    H136073   6.321   3.143   8.063 -0.1499 -1.5369 -1.0569
 4838TIP3    H236074   6.275   3.147   8.207  0.5311  0.9281 -0.8767
 4839TIP3   OH236075   4.349   0.602   0.364  0.5788  0.1209  0.1466
 4839TIP3    H136076   4.272   0.639   0.408  0.2938 -0.1258 -0.1430
 4839TIP3    H236077   4.324   0.512   0.343  0.0493  0.7050 -2.0330
 4840TIP3   OH236078   2.181   1.346   0.417  0.0351 -0.0758 -0.2562
 4840TIP3    H136079   2.129   1.356   0.337  0.1611 -1.5493 -0.5549
 4840TIP3    H236080   2.188   1.251   0.429 -1.1387  0.0897  2.2975
 4841TIP3   OH236081   0.308   3.953   2.210  0.0114 -0.0900  0.2867
 4841TIP3    H136082   0.319   3.874   2.263 -3.8029 -0.0032  1.4878
 4841TIP3    H236083   0.330   3.924   2.121 -1.7957 -2.8130  0.5732
 4842TIP3   OH236084   0.976   0.193   8.536 -0.4713 -0.5935  0.8160
 4842TIP3    H136085   0.911   0.262   8.522 -2.1662 -2.1634  0.5095
 4842TIP3    H236086   0.924   0.116   8.558  1.2986 -1.9636  0.3972
 4843TIP3   OH236087   4.946   0.896   8.840 -0.5863  0.1492 -0.0885
 4843TIP3    H136088   4.949   0.901   8.745 -2.1556  1.2074 -0.1230
 4843TIP3    H236089   4.914   0.982   8.867 -1.9503 -0.7449  1.2836
 4844TIP3   OH236090   2.741   6.745   2.037  0.1311 -0.2565  0.2047
 4844TIP3    H136091   2.662   6.788   2.003  1.2464  0.9885 -0.9523
 4844TIP3    H236092   2.771   6.802   2.108  0.3793 -0.3097  0.1456
 4845TIP3   OH236093   6.348   5.186   0.018 -0.4479 -0.2916  0.0483
 4845TIP3    H136094   6.287   5.248   0.057  0.5453  0.2778  0.7409
 4845TIP3    H236095   6.433   5.211   0.053  0.1296 -1.3332 -0.5635
 4846TIP3   OH236096   0.439   6.000   0.029 -0.2409 -0.1255 -0.3985
 4846TIP3    H136097   0.489   5.991  -0.052 -0.6990  1.3972 -0.8896
 4846TIP3    H236098   0.476   6.077   0.072 -1.3552  0.3071 -0.1794
 4847TIP3   OH236099   2.716   1.270   3.235  0.3370 -0.3006 -0.1040
 4847TIP3    H136100   2.798   1.264   3.186 -0.7002  1.5561 -2.2742
 4847TIP3    H236101   2.733   1.223   3.316  3.3286 -0.4999 -0.7269
 4848TIP3   OH236102   2.453   4.704   1.531 -0.0307 -0.3270 -0.1390
 4848TIP3    H136103   2.508   4.633   1.498 -0.2614  0.4383 -2.3577
 4848TIP3    H236104   2.510   4.752   1.591  0.9109 -0.9868 -0.4687
 4849TIP3   OH236105   0.486   3.700   7.940 -0.0319  0.2018 -0.3143
 4849TIP3    H136106   0.392   3.683   7.933 -0.2959  1.8840 -1.9231
 4849TIP3    H236107   0.494   3.755   8.018 -0.7542  1.9030 -1.3769
 4850TIP3   OH236108   3.914   2.896   7.510 -0.0889  0.6090  0.2836
 4850TIP3    H136109   3.974   2.821   7.513  1.1478  1.5560  0.2749
 4850TIP3    H236110   3.953   2.954   7.444 -2.2577  0.2689 -1.4105
 4851TIP3   OH236111   4.556   1.791   7.514 -0.6120 -0.5730  0.2903
 4851TIP3    H136112   4.629   1.777   7.575  0.7007 -1.2961 -1.3891
 4851TIP3    H236113   4.501   1.714   7.525 -0.3646 -0.7193  0.5329
 4852TIP3   OH236114   5.570   1.300   8.254  0.7386 -0.1108  0.0384
 4852TIP3    H136115   5.594   1.238   8.186  1.8410  0.0183  0.3032
 4852TIP3    H236116   5.553   1.246   8.331  1.3068 -0.1136  0.1610
 4853TIP3   OH236117   0.025   0.605   1.077 -0.7113 -0.0719 -0.3931
 4853TIP3    H136118   0.050   0.658   1.152 -0.8851 -1.3573  0.5941
 4853TIP3    H236119  -0.013   0.668   1.015  1.4955  1.3666 -0.4044
 4854TIP3   OH236120   5.928   0.638   8.835  0.0131  0.0003 -0.0035
 4854TIP3    H136121   5.956   0.714   8.784  0.4158 -0.1358  0.0093
 4854TIP3    H236122   5.889   0.579   8.771  3.0338 -1.4247 -0.7013
 4855TIP3   OH236123   0.803   5.093   1.518  0.1884 -0.4048 -0.0452
 4855TIP3    H136124   0.879   5.126   1.470  1.2043 -1.5116  0.7430
 4855TIP3    H236125   0.764   5.172   1.556  0.1330  0.3338 -1.5536
 4856TIP3   OH236126   3.713   5.389   8.426 -0.0796  0.1524  0.6337
 4856TIP3    H136127   3.632   5.438   8.440  0.0708  0.1905  1.3722
 4856TIP3    H236128   3.769   5.448   8.375 -0.6090  0.0252 -0.1192
 4857TIP3   OH236129   6.474   3.471   2.453 -0.3476 -0.3809 -0.1347
 4857TIP3    H136130   6.558   3.429   2.432 -0.7958 -0.6968 -1.3336
 4857TIP3    H236131   6.476   3.480   2.548  0.0528 -2.5167  0.1080
 4858TIP3   OH236132   0.401   2.789   0.027 -0.0861 -0.2505  0.2719
 4858TIP3    H136133   0.326   2.830   0.070 -0.2795 -0.3698  0.0544
 4858TIP3    H236134   0.390   2.695   0.044 -0.5967 -0.3769 -0.6965
 4859TIP3   OH236135   2.475   2.838   0.136 -0.1874  0.1481  0.1069
 4859TIP3    H136136   2.509   2.776   0.201 -2.2957 -0.2417  0.9397
 4859TIP3    H236137   2.380   2.824   0.138 -0.5608  2.1608 -0.9943
 4860TIP3   OH236138   2.542   5.139   0.682 -0.1158 -0.4392 -0.1442
 4860TIP3    H136139   2.612   5.090   0.727  1.5700  2.2560  0.3938
 4860TIP3    H236140   2.467   5.133   0.741  1.1109  0.3862  1.5977
 4861TIP3   OH236141   6.545   0.714   2.862 -0.3899  0.6591  0.0556
 4861TIP3    H136142   6.542   0.764   2.781 -0.4993  1.1773  0.3705
 4861TIP3    H236143   6.519   0.625   2.837  1.4110  0.3258 -0.8102
 4862TIP3   OH236144   5.402   5.958   0.703  0.1905  0.2098 -0.1382
 4862TIP3    H136145   5.392   6.045   0.665 -0.3067  0.1064 -0.2456
 4862TIP3    H236146   5.486   5.962   0.750  0.4298  0.5736 -0.5949
 4863TIP3   OH236147   0.022   6.355   7.951 -0.0873  0.3059  0.2991
 4863TIP3    H136148  -0.009   6.268   7.927 -0.8329  0.8744 -0.8937
 4863TIP3    H236149   0.109   6.361   7.911  1.0611 -0.7499  2.4322
 4864TIP3   OH236150   0.101   1.681   8.793 -1.1775 -0.0076  0.1048
 4864TIP3    H136151   0.086   1.595   8.754 -3.7427  0.7569 -0.7820
 4864TIP3    H236152   0.196   1.685   8.805 -0.9292 -2.7849 -0.1505
 4865TIP3   OH236153   1.176   2.511   2.893  0.4464 -0.2984 -0.1160
 4865TIP3    H136154   1.213   2.429   2.925  0.3060 -0.2710  0.1131
 4865TIP3    H236155   1.082   2.503   2.908  0.2815 -0.6147 -1.2608
 4866TIP3   OH236156   5.232   6.232   0.930 -0.5438 -0.0987 -0.4187
 4866TIP3    H136157   5.251   6.270   1.016  0.8695 -1.9825  0.1625
 4866TIP3    H236158   5.165   6.290   0.892 -0.3284  1.4470  1.4344
 4867TIP3   OH236159   5.122   6.009   0.816  0.7557 -0.5136  0.3164
 4867TIP3    H136160   5.197   5.975   0.767  0.6001 -1.2852  0.6068
 4867TIP3    H236161   5.159   6.078   0.871  0.7105  1.4397 -1.9218
 4868TIP3   OH236162   6.217   2.811   1.441  0.1973  0.6845  0.1394
 4868TIP3    H136163   6.247   2.861   1.517 -0.3736 -1.6188  2.0252
 4868TIP3    H236164   6.150   2.753   1.477  0.8075 -1.3821 -1.8731
 4869TIP3   OH236165   6.420   0.239   1.631  0.1522 -0.0183 -0.0049
 4869TIP3    H136166   6.501   0.223   1.583  0.7207  0.1315  0.8851
 4869TIP3    H236167   6.363   0.282   1.568  0.6324 -0.4464 -0.7450
 4870TIP3   OH236168   5.132   0.748   1.840 -0.5118  0.0665  0.5993
 4870TIP3    H136169   5.200   0.728   1.776  0.7390 -0.6473  2.0806
 4870TIP3    H236170   5.077   0.813   1.796  0.1019 -0.6070 -1.2902
 4871TIP3   OH236171   0.735   3.023   7.900  0.2853  0.3653 -0.5852
 4871TIP3    H136172   0.736   3.015   7.805  0.3180 -1.5536 -0.4664
 4871TIP3    H236173   0.826   3.006   7.926 -0.1417 -1.3822 -0.1141
 4872TIP3   OH236174   5.998   6.022   0.637 -0.5130 -0.1794 -0.3510
 4872TIP3    H136175   5.946   6.023   0.717  0.9403  0.1110  0.6184
 4872TIP3    H236176   5.953   6.083   0.578 -1.4224 -0.1613  0.3391
 4873TIP3   OH236177   2.628   2.116   7.966  0.4090  0.1478  1.2073
 4873TIP3    H136178   2.626   2.128   7.871  1.8769 -3.6840  0.5191
 4873TIP3    H236179   2.700   2.171   7.996  0.7294  0.4500 -0.0651
 4874TIP3   OH236180   0.406   2.074   8.276 -0.4336  0.6543  0.1165
 4874TIP3    H136181   0.406   2.001   8.213 -1.7199  1.4069 -0.7986
 4874TIP3    H236182   0.489   2.118   8.261 -0.4362  0.4356 -0.6134
 4875TIP3   OH236183   0.152   3.753   8.132 -1.2156  0.7342 -0.3664
 4875TIP3    H136184   0.208   3.795   8.197 -0.3711  0.6089 -0.9935
 4875TIP3    H236185   0.158   3.810   8.055 -1.1793  0.2161 -0.7527
 4876TIP3   OH236186   5.034   5.094   0.644  0.0351 -0.3370  0.1061
 4876TIP3    H136187   5.039   5.137   0.559  0.4102  1.2830  0.9113
 4876TIP3    H236188   4.996   5.008   0.625 -0.3179  0.1594 -1.6196
 4877TIP3   OH236189   5.008   5.798   0.407 -0.7702  0.4645  0.1277
 4877TIP3    H136190   4.951   5.860   0.453 -0.9600 -0.7712  1.6451
 4877TIP3    H236191   5.092   5.844   0.402 -0.6302  0.5295  2.1001
 4878TIP3   OH236192   3.414   4.435   7.642 -0.3998  0.0376  0.4501
 4878TIP3    H136193   3.323   4.465   7.652 -0.4516  0.6004 -1.2724
 4878TIP3    H236194   3.407   4.339   7.642 -1.2295  0.0556 -1.0740
 4879TIP3   OH236195   2.160   3.822   2.824  0.4292  0.0230  0.3807
 4879TIP3    H136196   2.205   3.745   2.858  0.1037 -0.2020  0.3045
 4879TIP3    H236197   2.141   3.875   2.901 -2.3414 -1.5385  0.8973
 4880TIP3   OH236198   4.856   4.670   0.427 -0.3227 -0.4530  0.3250
 4880TIP3    H136199   4.811   4.613   0.489  1.1561 -0.4148  1.4795
 4880TIP3    H236200   4.924   4.616   0.388  0.0155  0.0563  0.1916
 4881TIP3   OH236201   2.470   2.954   8.393 -0.2591  0.2944 -0.2836
 4881TIP3    H136202   2.517   3.029   8.428  1.9072 -1.6602  1.2440
 4881TIP3    H236203   2.380   2.965   8.425 -0.0259  2.2261 -0.1647
 4882TIP3   OH236204   3.818   0.387   0.918  0.2289  0.8636 -0.3079
 4882TIP3    H136205   3.800   0.479   0.938 -0.4217  0.7043 -0.1499
 4882TIP3    H236206   3.830   0.386   0.823  1.7409  1.3537 -0.1533
 4883TIP3   OH236207   2.794   4.106   7.628  0.1896 -0.1977 -0.5798
 4883TIP3    H136208   2.852   4.073   7.559  1.0976  0.8609 -0.3649
 4883TIP3    H236209   2.770   4.194   7.599 -1.5803 -0.7102 -0.7950
 4884TIP3   OH236210   4.804   2.523   1.591  0.4722 -0.2712 -0.0548
 4884TIP3    H136211   4.872   2.456   1.601  2.7637  1.9796  0.6229
 4884TIP3    H236212   4.764   2.531   1.677  0.5944 -0.3872  0.0121
 4885TIP3   OH236213   6.095   3.241   1.571  0.0129  0.3899 -0.6922
 4885TIP3    H136214   6.061   3.321   1.612  0.0247  0.2662 -0.4421
 4885TIP3    H236215   6.087   3.257   1.477 -0.0147  0.6733 -0.6416
 4886TIP3   OH236216   1.796   5.275   7.329  0.0068 -0.1946 -0.0200
 4886TIP3    H136217   1.891   5.274   7.340  0.2881 -1.2894 -2.0649
 4886TIP3    H236218   1.768   5.187   7.355 -0.0761 -0.7269 -1.7455
 4887TIP3   OH236219   6.292   2.808   0.757  0.3393  0.1035 -0.5376
 4887TIP3    H136220   6.201   2.786   0.735  0.4286 -0.5613 -0.2612
 4887TIP3    H236221   6.342   2.733   0.727  0.4869 -0.8158  1.8429
 4888TIP3   OH236222   4.078   4.358   1.215 -0.1797 -1.0098  0.0297
 4888TIP3    H136223   4.037   4.358   1.128  0.3293 -0.9383 -0.2154
 4888TIP3    H236224   4.116   4.445   1.223 -0.2192 -1.0206  0.3237
 4889TIP3   OH236225   5.646   2.050   7.751 -0.0260 -0.1214 -0.1765
 4889TIP3    H136226   5.600   1.992   7.691  2.0127 -0.5514 -1.3997
 4889TIP3    H236227   5.646   2.002   7.835 -1.7624 -0.0882 -0.1286
 4890TIP3   OH236228   5.809   1.403   0.061  0.1262 -0.3751 -0.4549
 4890TIP3    H136229   5.804   1.377  -0.031 -0.8757 -0.6495 -0.3419
 4890TIP3    H236230   5.864   1.481   0.062 -1.5452  0.8997 -1.5963
 4891TIP3   OH236231   0.870   2.585   1.016 -0.1538 -0.4263  0.2536
 4891TIP3    H136232   0.920   2.666   1.010 -0.2315 -0.5025 -2.4489
 4891TIP3    H236233   0.925   2.520   0.973 -1.7994 -0.8514 -1.3265
 4892TIP3   OH236234   1.881   6.644   1.015 -0.1698  0.1217  0.0382
 4892TIP3    H136235   1.876   6.686   1.101  0.2238  0.7755 -0.2545
 4892TIP3    H236236   1.851   6.711   0.954  0.2281 -0.1087 -0.4105
 4893TIP3   OH236237   1.914   0.436   1.243  0.0170 -0.0281  0.1512
 4893TIP3    H136238   1.971   0.364   1.269 -0.1327 -0.4226 -0.5882
 4893TIP3    H236239   1.970   0.495   1.194 -0.2652 -0.5912 -0.8841
 4894TIP3   OH236240   2.550   0.656   1.768 -0.0436  0.2321 -0.5695
 4894TIP3    H136241   2.533   0.662   1.863  0.8743  0.7320 -0.4259
 4894TIP3    H236242   2.467   0.681   1.728 -0.9369 -1.4926  0.0772
 4895TIP3   OH236243   2.185   2.150   6.838 -0.4169 -0.1365 -0.4079
 4895TIP3    H136244   2.098   2.173   6.806  0.0437 -1.5559 -2.9039
 4895TIP3    H236245   2.170   2.075   6.895 -0.8569 -0.2608 -0.6792
 4896TIP3   OH236246   0.220   5.729   8.645 -0.7810  0.3029 -0.0031
 4896TIP3    H136247   0.169   5.792   8.696 -0.0973  0.0145  1.0774
 4896TIP3    H236248   0.156   5.684   8.590 -1.0422  3.7973 -2.9740
 4897TIP3   OH236249   3.851   1.349   1.204  0.1245 -0.3542  0.1463
 4897TIP3    H136250   3.860   1.436   1.243  1.0476 -0.5110  0.3119
 4897TIP3    H236251   3.846   1.290   1.279 -1.7239 -0.3603  0.0575
 4898TIP3   OH236252   6.131   4.754   8.652 -0.5775 -0.2440  0.3941
 4898TIP3    H136253   6.149   4.693   8.580 -0.1564 -0.5183  0.7267
 4898TIP3    H236254   6.099   4.699   8.723  1.5120 -0.3508  1.3203
 4899TIP3   OH236255   0.044   0.471   8.657  0.5947  0.2332 -0.0528
 4899TIP3    H136256   0.059   0.384   8.695  2.8146  1.3512  1.9308
 4899TIP3    H236257   0.124   0.489   8.608  0.8269  1.7204  0.8230
 4900TIP3   OH236258   3.092   2.812   8.396 -0.4587 -0.3918  0.2475
 4900TIP3    H136259   3.101   2.718   8.379  2.0020 -0.2981  0.6701
 4900TIP3    H236260   3.045   2.845   8.320 -0.2223 -1.7643 -0.5392
 4901TIP3   OH236261   4.965   2.769   0.112 -0.0822  1.0714 -0.5019
 4901TIP3    H136262   4.998   2.780   0.201  1.3633 -1.6501 -0.5925
 4901TIP3    H236263   4.994   2.847   0.065  0.8894  1.6042  0.9466
 4902TIP3   OH236264   2.425   1.117   0.236  0.0465 -0.1906  0.2538
 4902TIP3    H136265   2.477   1.038   0.250  0.4483  0.0067 -0.1292
 4902TIP3    H236266   2.358   1.113   0.305  0.9331 -0.1360  1.1439
 4903TIP3   OH236267   5.217   4.672   0.720 -0.3550 -0.2398 -0.0454
 4903TIP3    H136268   5.189   4.701   0.807  2.2819  3.4498 -0.1983
 4903TIP3    H236269   5.276   4.599   0.736 -0.8049 -0.3678  1.1088
 4904TIP3   OH236270   3.244   3.119   1.326  0.4826 -0.0147  0.4770
 4904TIP3    H136271   3.153   3.105   1.298  1.0343 -0.4993 -1.2051
 4904TIP3    H236272   3.238   3.187   1.392 -0.9835  1.0764 -0.6961
 4905TIP3   OH236273   1.632   4.288   8.286  0.3490 -0.4451 -0.2458
 4905TIP3    H136274   1.701   4.250   8.232  1.9695 -2.7605  3.0829
 4905TIP3    H236275   1.666   4.374   8.312  0.1771  0.0795 -1.6896
 4906TIP3   OH236276   3.704   1.585   7.389 -0.3056 -0.5573  0.0937
 4906TIP3    H136277   3.664   1.502   7.413 -2.3449  0.5438  0.7481
 4906TIP3    H236278   3.753   1.612   7.466  1.0251 -1.4664 -0.3884
 4907TIP3   OH236279   6.134   2.126   7.141 -0.0840 -0.4682  0.0794
 4907TIP3    H136280   6.038   2.118   7.139 -0.0530 -0.9730  0.4003
 4907TIP3    H236281   6.163   2.084   7.061 -0.0730 -1.2886  0.5051
 4908TIP3   OH236282   0.075   6.484   8.749 -0.5378  0.1829 -0.0244
 4908TIP3    H136283   0.037   6.404   8.712 -0.6552  0.1199  0.2296
 4908TIP3    H236284   0.167   6.481   8.725 -0.6299  0.1778 -0.3738
 4909TIP3   OH236285   4.023   6.476   2.157 -1.0348 -0.0519  0.5975
 4909TIP3    H136286   4.021   6.452   2.250  1.6610 -2.3869  0.1927
 4909TIP3    H236287   4.022   6.392   2.110  1.9685  0.7702 -1.2489
 4910TIP3   OH236288   4.552   3.630   7.736 -0.4169 -0.4476 -0.3847
 4910TIP3    H136289   4.517   3.680   7.662 -0.5846  1.1572  0.7373
 4910TIP3    H236290   4.638   3.600   7.706 -0.4637  0.1965 -1.2072
 4911TIP3   OH236291   2.734   5.981   0.270 -0.3608 -0.7344 -0.2046
 4911TIP3    H136292   2.796   5.910   0.284  0.0420 -0.2589  0.4866
 4911TIP3    H236293   2.765   6.025   0.190  0.2116 -0.4852  0.1490
 4912TIP3   OH236294   2.188   3.684   0.134 -0.1501  0.3419  0.4409
 4912TIP3    H136295   2.163   3.740   0.061 -2.8864 -1.4443 -0.1034
 4912TIP3    H236296   2.168   3.736   0.212  0.1832  1.2087 -0.0361
 4913TIP3   OH236297   4.003   1.617   1.541 -0.8149 -0.4252  0.1833
 4913TIP3    H136298   4.013   1.527   1.573 -0.8005 -0.1994  0.8132
 4913TIP3    H236299   4.018   1.672   1.617  0.3077  0.1601 -0.4390
 4914TIP3   OH236300   4.940   0.059   1.412 -0.1427  0.5782  0.5456
 4914TIP3    H136301   4.884   0.136   1.416 -1.3796 -0.2432 -0.3251
 4914TIP3    H236302   4.933   0.019   1.499 -1.8668 -0.1391  0.1163
 4915TIP3   OH236303   0.387   1.551   7.671  0.4253 -0.2907 -0.7476
 4915TIP3    H136304   0.372   1.614   7.742 -0.0950  0.5917 -1.6095
 4915TIP3    H236305   0.483   1.544   7.666  0.5524  1.3472 -1.3789
 4916TIP3   OH236306   1.342   3.873   2.120 -0.3073  0.3687  0.8184
 4916TIP3    H136307   1.310   3.955   2.083 -1.1730  1.3723  3.5877
 4916TIP3    H236308   1.266   3.815   2.119 -0.4419  0.5348  1.3908
 4917TIP3   OH236309   3.612   2.745   1.283 -0.6327 -0.0231  0.0103
 4917TIP3    H136310   3.567   2.824   1.251 -0.8300 -0.0219  0.2886
 4917TIP3    H236311   3.568   2.673   1.238 -1.3975 -0.0776  0.8065
 4918TIP3   OH236312   3.941   5.404   1.188  0.3077 -0.1161 -0.3568
 4918TIP3    H136313   3.938   5.404   1.092 -0.5301 -1.5764 -0.3540
 4918TIP3    H236314   3.993   5.328   1.210 -1.7329 -1.3984  0.3448
 4919TIP3   OH236315   0.211   2.866   7.204  0.0537  0.2121 -0.3772
 4919TIP3    H136316   0.192   2.868   7.110 -1.0665  1.2368 -0.1468
 4919TIP3    H236317   0.226   2.958   7.227 -1.4195  0.1972  0.7702
 4920TIP3   OH236318   4.160   3.450   8.720 -0.0287 -0.6050  0.2407
 4920TIP3    H136319   4.180   3.357   8.728  2.0198 -0.1770  0.6058
 4920TIP3    H236320   4.206   3.490   8.793  2.4892  1.1337 -2.1091
 4921TIP3   OH236321   2.596   4.391   8.582  0.0232 -0.3036  0.1906
 4921TIP3    H136322   2.587   4.427   8.670  1.5009 -0.8224  0.5815
 4921TIP3    H236323   2.678   4.428   8.549 -0.7109  0.1889 -1.1299
 4922TIP3   OH236324   1.088   2.899   2.113  0.3082  0.3359  0.2101
 4922TIP3    H136325   1.131   2.980   2.086  1.1888 -0.2411 -0.1577
 4922TIP3    H236326   1.153   2.854   2.167  0.1698 -0.5394 -0.3358
 4923TIP3   OH236327   4.642   0.257   0.677  0.3960 -0.1732 -0.0252
 4923TIP3    H136328   4.627   0.226   0.588  1.1190 -0.6530  0.0140
 4923TIP3    H236329   4.717   0.316   0.670  1.4306 -1.3862  0.4892
 4924TIP3   OH236330   3.083   1.962   7.873 -0.7614  0.4678  0.1004
 4924TIP3    H136331   3.116   1.910   7.800 -0.3473 -0.7217  1.1007
 4924TIP3    H236332   3.035   2.034   7.832  0.3181  0.4086 -1.3496
 4925TIP3   OH236333   5.320   3.894   1.841  0.2655 -0.5775 -0.0917
 4925TIP3    H136334   5.230   3.896   1.807 -0.0243  0.6363  0.6665
 4925TIP3    H236335   5.314   3.843   1.921  0.7309 -2.4715 -1.2030
 4926TIP3   OH236336   1.585   1.181   1.661  0.4422 -0.3124 -0.3182
 4926TIP3    H136337   1.556   1.224   1.581 -0.4843 -0.0350  0.1523
 4926TIP3    H236338   1.546   1.233   1.732  1.6891 -0.2338  0.3341
 4927TIP3   OH236339   4.751   2.846   0.394  0.4124  0.7058  0.0066
 4927TIP3    H136340   4.729   2.888   0.311  0.3588  1.4705  0.3959
 4927TIP3    H236341   4.802   2.912   0.442  1.7258 -0.2488 -0.0057
 4928TIP3   OH236342   6.613   6.009   0.344 -0.2999 -0.0119 -0.6579
 4928TIP3    H136343   6.619   6.103   0.330  1.2172 -0.0013 -0.1790
 4928TIP3    H236344   6.626   5.997   0.438  0.3117 -0.7349 -0.8192
 4929TIP3   OH236345   2.997   4.504   1.448  0.3360  0.0058  0.0762
 4929TIP3    H136346   3.078   4.530   1.404  0.9408 -0.6926  0.7574
 4929TIP3    H236347   2.963   4.431   1.396  1.9470 -1.9756  1.6311
 4930TIP3   OH236348   4.163   6.400   0.026 -0.2680 -0.2621  0.0428
 4930TIP3    H136349   4.203   6.329   0.076  0.2716 -0.9498 -1.2975
 4930TIP3    H236350   4.116   6.356  -0.045 -0.5813  0.6940 -0.3608
 4931TIP3   OH236351   2.516   2.935   1.226 -0.0131 -0.2414  0.3199
 4931TIP3    H136352   2.560   2.850   1.219 -1.5765 -1.0641  0.0880
 4931TIP3    H236353   2.424   2.914   1.241 -0.4980  1.4154 -0.0649
 4932TIP3   OH236354   0.695   2.820   0.023  0.0892 -0.0147  0.2202
 4932TIP3    H136355   0.601   2.815   0.039 -0.0694  1.8523  0.1694
 4932TIP3    H236356   0.703   2.807  -0.072  0.0719 -1.7885  0.4416
 4933TIP3   OH236357   5.773   4.524   7.207  0.2733 -0.1588 -0.4599
 4933TIP3    H136358   5.709   4.567   7.265  3.6676  2.7239  1.5885
 4933TIP3    H236359   5.732   4.526   7.121 -2.3331  1.6861  0.6903
 4934TIP3   OH236360   4.895   0.022   0.752  0.1911 -0.3691 -0.3499
 4934TIP3    H136361   4.844   0.017   0.833  0.1771 -1.3440 -0.4123
 4934TIP3    H236362   4.975   0.069   0.777 -0.3158  0.3589 -0.0464
 4935TIP3   OH236363   3.162   2.124   8.269  0.2883  0.0293  0.0968
 4935TIP3    H136364   3.151   2.187   8.341  2.5110  0.5777  0.0406
 4935TIP3    H236365   3.172   2.179   8.191  1.0045 -0.4196 -0.1426
 4936TIP3   OH236366   5.129   5.492   8.707 -0.0440 -0.1008 -0.4232
 4936TIP3    H136367   5.092   5.554   8.770 -1.0807 -0.3824 -0.7322
 4936TIP3    H236368   5.220   5.518   8.698 -0.2783  0.9084  0.0231
 4937TIP3   OH236369   5.898   3.528   7.544 -0.0407 -0.1435 -0.2952
 4937TIP3    H136370   5.919   3.612   7.502 -0.8013  0.5334  0.6397
 4937TIP3    H236371   5.971   3.470   7.519  1.3661  1.2476  0.3660
 4938TIP3   OH236372   4.215   4.858   1.636  0.1265 -0.1818  0.1316
 4938TIP3    H136373   4.288   4.865   1.697 -0.1389 -0.8076  0.5318
 4938TIP3    H236374   4.150   4.806   1.682 -0.4337  0.0703 -0.3552
 4939TIP3   OH236375   2.438   4.526   7.335  0.3907 -0.4835  0.4011
 4939TIP3    H136376   2.507   4.475   7.293 -0.5356 -0.2751 -1.4829
 4939TIP3    H236377   2.434   4.607   7.283 -0.6201 -0.0975  1.0617
 4940TIP3   OH236378   1.516   0.650   2.439 -0.3608  0.6209  0.2637
 4940TIP3    H136379   1.552   0.563   2.426 -0.5748  0.8636 -2.8128
 4940TIP3    H236380   1.586   0.700   2.480  0.9020 -0.2368 -0.7935
 4941TIP3   OH236381   0.499   0.557   1.736 -0.4816 -0.4149 -0.5375
 4941TIP3    H136382   0.469   0.604   1.659 -1.2507 -0.1350 -0.0776
 4941TIP3    H236383   0.594   0.563   1.733 -0.5525  0.7982 -0.7180
 4942TIP3   OH236384   5.670   4.398   6.926  0.1349 -0.3379 -0.2035
 4942TIP3    H136385   5.666   4.350   6.844 -0.5190 -0.7062  0.0332
 4942TIP3    H236386   5.590   4.450   6.927  1.2368  1.4513 -0.8604
 4943TIP3   OH236387   2.653   6.141   8.378  0.1015 -0.5266 -0.3215
 4943TIP3    H136388   2.741   6.104   8.369  0.6479  0.2099  1.5718
 4943TIP3    H236389   2.660   6.226   8.334  1.2949  0.8723  2.3462
 4944TIP3   OH236390   2.280   5.335   8.362 -0.0133  0.0887  0.1547
 4944TIP3    H136391   2.303   5.245   8.339 -0.1714  0.0452  0.1688
 4944TIP3    H236392   2.345   5.360   8.428  1.5714  0.8347 -1.5987
 4945TIP3   OH236393   4.971   1.148   0.078 -0.1850  0.4742 -0.0049
 4945TIP3    H136394   5.061   1.171   0.052 -0.0967  1.0935  0.7843
 4945TIP3    H236395   4.946   1.218   0.139 -1.4763  0.6968 -0.7758
 4946TIP3   OH236396   2.290   3.992   8.100 -0.0181  0.8970 -0.8206
 4946TIP3    H136397   2.312   3.899   8.105 -1.2781  0.6473  1.3979
 4946TIP3    H236398   2.234   3.999   8.022 -4.0912 -1.3167  1.5041
 4947TIP3   OH236399   0.566   6.445   8.143 -0.4639 -0.3078 -0.3274
 4947TIP3    H136400   0.533   6.534   8.155 -1.1492 -0.6816  0.7094
 4947TIP3    H236401   0.488   6.390   8.143  0.0306 -1.0387  0.4194
 4948TIP3   OH236402   1.204   5.971   1.212 -0.2037  0.5541  0.2420
 4948TIP3    H136403   1.139   6.035   1.184  0.1601  0.3304 -1.1965
 4948TIP3    H236404   1.166   5.930   1.290 -0.1779  2.9134  1.5760
 4949TIP3   OH236405   0.969   6.012   0.580 -0.4582 -0.3736  0.2515
 4949TIP3    H136406   0.912   5.941   0.553  1.9842 -1.4588 -2.6555
 4949TIP3    H236407   1.058   5.975   0.576  0.9837  2.7802 -1.8473
 4950TIP3   OH236408   4.080   3.423   1.796  0.1278 -0.2418 -0.1597
 4950TIP3    H136409   4.037   3.364   1.735 -2.1090  1.6722 -0.5788
 4950TIP3    H236410   4.114   3.494   1.741  0.2356  0.2890  0.5735
 4951TIP3   OH236411   3.792   2.361   8.813 -0.9575  0.2647 -0.3380
 4951TIP3    H136412   3.831   2.357   8.725 -2.5140 -0.8353 -1.0130
 4951TIP3    H236413   3.842   2.297   8.864 -1.6893 -0.9666 -1.1324
 4952TIP3   OH236414   6.195   4.422   1.562 -1.0168  0.0173 -0.2231
 4952TIP3    H136415   6.218   4.360   1.493 -2.1456 -0.9675  0.2427
 4952TIP3    H236416   6.152   4.494   1.516  1.4175  1.1451 -0.9178
 4953TIP3   OH236417   5.313   3.208   1.533  0.1841 -0.4983  0.0071
 4953TIP3    H136418   5.327   3.194   1.439  0.6280 -1.7997  0.2436
 4953TIP3    H236419   5.392   3.254   1.562 -0.3000  0.6057 -0.3858
 4954TIP3   OH236420   0.793   0.516   3.133  0.3449  0.1353 -0.1328
 4954TIP3    H136421   0.747   0.538   3.214  1.1034 -1.8327  0.9075
 4954TIP3    H236422   0.726   0.478   3.077 -0.0677  0.9772 -0.2284
 4955TIP3   OH236423   2.815   3.919   8.170  0.7817 -0.1356 -0.1870
 4955TIP3    H136424   2.904   3.896   8.142 -0.1651 -1.1161 -2.7066
 4955TIP3    H236425   2.827   3.972   8.249  3.5464 -0.8893 -0.0093
 4956TIP3   OH236426   1.421   0.357   8.603  0.2059  0.0510 -0.3445
 4956TIP3    H136427   1.445   0.437   8.649  0.3552  1.0456 -2.0626
 4956TIP3    H236428   1.351   0.383   8.543  0.3476 -1.0680 -1.0399
 4957TIP3   OH236429   2.229   3.453   8.918 -0.1807 -0.3263  0.7075
 4957TIP3    H136430   2.238   3.374   8.970 -1.1696 -1.2254 -0.4087
 4957TIP3    H236431   2.239   3.525   8.980 -0.0796 -1.3405  1.8932
 4958TIP3   OH236432   3.285   2.569   8.642 -0.6905  0.0955  0.2823
 4958TIP3    H136433   3.348   2.567   8.715 -1.7261 -3.4147  1.2844
 4958TIP3    H236434   3.324   2.512   8.576 -0.8430  1.4174 -0.9885
 4959TIP3   OH236435   0.156   3.281   8.236  0.1563  0.2470 -0.0350
 4959TIP3    H136436   0.196   3.207   8.282 -0.4916  1.2446  2.2738
 4959TIP3    H236437   0.215   3.354   8.252 -0.2889  0.7081 -0.4732
 4960TIP3   OH236438   0.100   0.913   0.967  0.4176 -0.3270 -0.2454
 4960TIP3    H136439   0.020   0.895   1.016 -0.3652 -1.5979 -1.8905
 4960TIP3    H236440   0.134   0.994   1.006 -0.1882 -1.1953  2.2682
 4961TIP3   OH236441   0.515   0.581   8.886 -0.0609  0.3459 -0.0595
 4961TIP3    H136442   0.426   0.544   8.889  0.0809 -0.2753 -1.8519
 4961TIP3    H236443   0.529   0.601   8.793  2.1576 -0.8631 -0.0671
 4962TIP3   OH236444   4.171   4.802   8.471 -0.1080  0.1452 -0.1785
 4962TIP3    H136445   4.111   4.799   8.544 -0.1911  0.1530 -0.2463
 4962TIP3    H236446   4.213   4.888   8.477 -0.9097  0.5921 -0.7706
 4963TIP3   OH236447   3.214   2.048   1.426 -0.6867  0.3776  0.3416
 4963TIP3    H136448   3.214   1.952   1.432  1.1157 -0.0719 -3.5519
 4963TIP3    H236449   3.285   2.076   1.483  1.0259 -1.0302 -0.9762
 4964TIP3   OH236450   4.574   6.127   2.041  0.1024  0.2650  0.0727
 4964TIP3    H136451   4.628   6.196   2.002 -0.8438  0.2768 -1.3016
 4964TIP3    H236452   4.598   6.127   2.134 -0.2922  2.8417  0.2516
 4965TIP3   OH236453   5.019   1.471   1.139 -0.0512 -0.7149  0.3361
 4965TIP3    H136454   4.965   1.439   1.067 -0.4996  0.8057 -0.0272
 4965TIP3    H236455   4.996   1.563   1.148  0.0175 -0.8449  2.4085
 4966TIP3   OH236456   3.510   1.568   0.751  0.1531  0.3488 -0.0330
 4966TIP3    H136457   3.518   1.614   0.834 -0.8147 -1.0584  0.8813
 4966TIP3    H236458   3.598   1.534   0.734  0.1318 -0.2377  0.9611
 4967TIP3   OH236459   3.829   1.189   1.426  0.4301 -0.0416  0.0473
 4967TIP3    H136460   3.861   1.105   1.458  0.9175  0.4072  0.7680
 4967TIP3    H236461   3.792   1.231   1.503 -0.7498 -0.0127 -0.5107
 4968TIP3   OH236462   3.947   4.254   6.802  0.5776  0.5505  0.0637
 4968TIP3    H136463   4.008   4.237   6.874 -0.7383  1.0436  1.3467
 4968TIP3    H236464   3.942   4.170   6.755  1.6580  0.2990  0.3563
 4969TIP3   OH236465   3.280   5.880   7.394  0.0911  0.4321  0.3581
 4969TIP3    H136466   3.257   5.812   7.457 -2.2139  0.2568 -0.5873
 4969TIP3    H236467   3.214   5.948   7.408  0.5391  1.1177 -0.7601
 4970TIP3   OH236468   6.525   1.079   8.170  0.6456  0.3861  0.2672
 4970TIP3    H136469   6.557   1.130   8.096 -0.1567  0.0840 -0.3082
 4970TIP3    H236470   6.440   1.118   8.190  0.9413  0.5816  1.1518
 4971TIP3   OH236471   5.548   6.691   1.223  0.4808  0.1620 -0.2894
 4971TIP3    H136472   5.479   6.652   1.277  1.4752 -1.0576  0.1542
 4971TIP3    H236473   5.505   6.764   1.179 -0.9644 -0.2542  0.3511
 4972TIP3   OH236474   4.093   4.906   2.101  0.5806 -0.2764 -0.6405
 4972TIP3    H136475   4.093   4.812   2.083  3.3733 -0.1720 -1.6564
 4972TIP3    H236476   4.116   4.912   2.194  0.2984 -0.5803 -0.5461
 4973TIP3   OH236477   4.072   3.194   0.467 -0.5744 -0.1800 -0.3410
 4973TIP3    H136478   4.105   3.279   0.438  1.3503 -0.7550  0.0196
 4973TIP3    H236479   4.072   3.140   0.388  1.4512 -0.7696 -0.0075
 4974TIP3   OH236480   4.202   3.404   8.045 -0.0364  0.5215 -0.0492
 4974TIP3    H136481   4.204   3.494   8.014  1.9500  0.2491 -0.8717
 4974TIP3    H236482   4.136   3.361   7.989 -1.0389  1.4396  0.3896
 4975TIP3   OH236483   4.280   3.940   2.218 -0.1091 -0.0676  0.2547
 4975TIP3    H136484   4.367   3.959   2.253  0.0469  0.9715 -0.6491
 4975TIP3    H236485   4.230   4.020   2.233 -0.0192  0.4556 -1.8589
 4976TIP3   OH236486   6.080   5.678   7.537  0.3502 -0.3070  0.2653
 4976TIP3    H136487   6.167   5.667   7.498  0.3585  0.7672 -0.0429
 4976TIP3    H236488   6.019   5.665   7.465  0.3490  1.1861 -0.0356
 4977TIP3   OH236489   6.163   0.239   8.716 -0.1432  0.3027  0.0501
 4977TIP3    H136490   6.217   0.291   8.656 -1.6876  3.5076  1.2155
 4977TIP3    H236491   6.092   0.206   8.662  0.9876 -0.9089 -0.7614
 4978TIP3   OH236492   1.231   4.434   1.878 -0.1734 -0.2068 -0.0789
 4978TIP3    H136493   1.175   4.405   1.806 -2.1964  0.9506  0.9457
 4978TIP3    H236494   1.307   4.472   1.835 -1.0452 -0.0830 -1.5904
 4979TIP3   OH236495   2.107   3.368   1.275 -0.0445 -0.2822  1.3535
 4979TIP3    H136496   2.163   3.422   1.219  0.7346 -0.9540  1.4758
 4979TIP3    H236497   2.086   3.425   1.349 -0.4100  0.3341  0.7879
 4980TIP3   OH236498   3.028   5.230   0.571  0.3324 -0.0506 -0.6287
 4980TIP3    H136499   3.038   5.301   0.635  1.2081 -1.3489  0.7247
 4980TIP3    H236500   3.036   5.150   0.622 -0.6673 -1.1603 -2.1217
 4981TIP3   OH236501   3.260   5.772   7.941  0.3843  0.5402 -0.0261
 4981TIP3    H136502   3.278   5.816   8.024 -0.9333  2.2852 -0.5837
 4981TIP3    H236503   3.343   5.734   7.914  0.9315  0.3293  1.8648
 4982TIP3   OH236504   1.900   5.851   1.553 -0.0562 -0.9262 -0.0670
 4982TIP3    H136505   1.944   5.839   1.469  0.3859 -1.8401  0.2706
 4982TIP3    H236506   1.919   5.941   1.578 -0.2926 -0.6073 -0.9905
 4983TIP3   OH236507   0.985   3.859   8.629  0.7478  0.4850  0.8691
 4983TIP3    H136508   0.976   3.933   8.689  2.3972  0.2077  1.5034
 4983TIP3    H236509   1.016   3.787   8.684 -0.5146 -0.6070  0.2027
 4984TIP3   OH236510   3.211   5.477   8.571 -0.0041 -0.2120  0.5465
 4984TIP3    H136511   3.177   5.401   8.525 -0.9012 -0.0160  0.8530
 4984TIP3    H236512   3.301   5.485   8.542  0.0231 -1.2417  0.3233
 4985TIP3   OH236513   0.083   0.267   0.436 -0.6148 -0.3442 -0.7181
 4985TIP3    H136514   0.003   0.247   0.387 -1.0054  0.5276 -0.4604
 4985TIP3    H236515   0.065   0.235   0.524 -0.4319 -0.7184 -0.8169
 4986TIP3   OH236516   1.183   5.272   8.905 -0.5688 -0.5641 -0.2333
 4986TIP3    H136517   1.245   5.339   8.875 -3.3553  1.3882 -2.0888
 4986TIP3    H236518   1.130   5.316   8.971 -2.8039 -0.6654 -1.8607
 4987TIP3   OH236519   2.594   4.482   1.468 -0.0639  0.5708  0.1376
 4987TIP3    H136520   2.575   4.430   1.546 -0.4019  1.0057  0.3449
 4987TIP3    H236521   2.571   4.424   1.395  1.4295 -0.3134  0.3121
 4988TIP3   OH236522   0.698   0.868   7.720  0.1471  0.6848 -0.2662
 4988TIP3    H136523   0.662   0.808   7.786  1.3430 -0.1343 -0.3272
 4988TIP3    H236524   0.621   0.907   7.679 -0.6610  2.7813  2.9420
 4989TIP3   OH236525   3.690   0.463   3.030 -0.1899  0.5395  0.3856
 4989TIP3    H136526   3.670   0.509   2.949 -0.4035  0.3853  0.3513
 4989TIP3    H236527   3.700   0.371   3.005 -0.0058  0.5278  0.4937
 4990TIP3   OH236528   6.528   5.766   2.136 -0.2157  0.1711 -0.6173
 4990TIP3    H136529   6.549   5.857   2.118  0.2593  0.1967  0.0707
 4990TIP3    H236530   6.608   5.718   2.115 -0.7265 -0.2119 -1.8280
 4991TIP3   OH236531   2.938   1.087   2.078 -0.1823 -0.1104  0.3027
 4991TIP3    H136532   2.909   1.052   2.162 -0.2019  0.7807  0.6827
 4991TIP3    H236533   2.944   1.011   2.021 -0.3833 -0.6997  1.0497
 4992TIP3   OH236534   4.815   3.463   1.145 -0.5350  0.4429  0.5686
 4992TIP3    H136535   4.867   3.528   1.098 -1.2541  0.1749 -0.6320
 4992TIP3    H236536   4.729   3.503   1.156 -0.4466  0.4146  1.4832
 4993TIP3   OH236537   3.202   1.470   8.300  0.1865  0.3381  0.3068
 4993TIP3    H136538   3.194   1.558   8.338 -1.7894  0.9734 -1.3361
 4993TIP3    H236539   3.248   1.484   8.217  0.5223 -0.3017  0.3820
 4994TIP3   OH236540   6.133   3.587   1.535 -0.3857 -0.4304  0.4812
 4994TIP3    H136541   6.137   3.509   1.589  2.2965 -0.2553  0.6957
 4994TIP3    H236542   6.206   3.641   1.566  0.4240  0.2744 -2.3707
 4995TIP3   OH236543   0.565   2.700   7.630  0.6625 -0.2410 -0.0731
 4995TIP3    H136544   0.518   2.730   7.708  1.3936  1.9615 -0.4050
 4995TIP3    H236545   0.497   2.664   7.573 -0.1920  0.1611  0.6716
 4996TIP3   OH236546   5.951   6.760   7.870  0.9512  0.5289  0.4270
 4996TIP3    H136547   5.975   6.667   7.865  0.2712  0.1504  2.8933
 4996TIP3    H236548   5.870   6.766   7.821  1.8628  0.1947 -1.1816
 4997TIP3   OH236549   6.626   0.822   1.880 -0.3460 -0.0091  0.3655
 4997TIP3    H136550   6.638   0.732   1.909  0.0295 -0.3351 -0.7189
 4997TIP3    H236551   6.538   0.845   1.907 -1.5194 -1.6744 -1.6844
 4998TIP3   OH236552   4.152   3.713   2.300  0.7153 -0.2261 -0.4384
 4998TIP3    H136553   4.133   3.740   2.390 -0.4287 -1.4909 -0.2791
 4998TIP3    H236554   4.176   3.795   2.256  1.4537  0.3967  1.0271
 4999TIP3   OH236555   1.989   1.627   8.181 -0.0271  0.3142 -0.1671
 4999TIP3    H136556   1.951   1.584   8.104 -0.8270  0.8547 -0.0818
 4999TIP3    H236557   2.080   1.599   8.181 -0.6599 -1.9243  0.2565
 5000TIP3   OH236558   0.400   1.654   2.881  0.8978 -0.3854 -0.4029
 5000TIP3    H136559   0.425   1.665   2.972  1.8565 -1.3725 -0.5351
 5000TIP3    H236560   0.355   1.570   2.878  1.4712 -0.6786 -0.9564
 5001TIP3   OH236561   1.326   4.732   0.394 -0.0843 -0.5978 -0.1321
 5001TIP3    H136562   1.413   4.763   0.369 -1.3292  2.1587 -1.4966
 5001TIP3    H236563   1.284   4.709   0.311 -1.3396  0.2295  0.2321
 5002TIP3   OH236564   1.096   1.235   7.396  0.0264  0.4245 -0.3168
 5002TIP3    H136565   1.141   1.210   7.476  3.5591  2.8015 -1.3068
 5002TIP3    H236566   1.075   1.328   7.408 -1.4676  0.2495 -1.3007
 5003TIP3   OH236567   1.764   1.155   1.008 -0.0981  0.0043 -0.0887
 5003TIP3    H136568   1.712   1.232   1.032  0.1707  0.4369 -0.8676
 5003TIP3    H236569   1.724   1.083   1.056 -0.7775  0.5109  0.1134
 5004TIP3   OH236570   6.607   4.353   7.606  0.4369 -0.2206  0.5017
 5004TIP3    H136571   6.524   4.320   7.641  1.4259 -0.9457  2.2856
 5004TIP3    H236572   6.611   4.317   7.518  0.4339 -3.1462  1.5839
 5005TIP3   OH236573   6.750   1.065   8.305 -0.6630 -0.1877 -0.6309
 5005TIP3    H136574   6.708   1.015   8.375 -0.0754  0.4586  0.2036
 5005TIP3    H236575   6.678   1.091   8.248 -0.9927 -1.8416 -0.9957
 5006TIP3   OH236576   5.350   0.260   1.627  0.5678 -0.4807 -0.0668
 5006TIP3    H136577   5.415   0.241   1.694  2.5918  3.0272 -0.7702
 5006TIP3    H236578   5.378   0.210   1.550  0.6682 -1.2798  0.4848
 5007TIP3   OH236579   2.396   2.329   1.087 -0.7099  0.4352  0.5040
 5007TIP3    H136580   2.381   2.406   1.032  0.2818 -0.2133 -0.7253
 5007TIP3    H236581   2.308   2.300   1.112 -1.2235  0.5633 -1.0329
 5008TIP3   OH236582   6.083   5.297   8.303 -0.1212  0.0446  0.5877
 5008TIP3    H136583   6.148   5.259   8.362  1.3525 -0.0417 -1.0193
 5008TIP3    H236584   6.119   5.384   8.281  1.1716 -1.1473 -2.7310
 5009TIP3   OH236585   0.183   0.957   1.673  0.6154  0.2461  0.0023
 5009TIP3    H136586   0.197   0.898   1.747  1.1358  1.0896  0.6044
 5009TIP3    H236587   0.114   1.017   1.703  0.0859 -0.0502 -0.6008
 5010TIP3   OH236588   1.796   3.112   0.167  0.1357 -0.1279 -0.2749
 5010TIP3    H136589   1.883   3.117   0.127  1.9711 -0.0795  3.3183
 5010TIP3    H236590   1.795   3.184   0.230 -2.4260 -0.3508  0.0305
 5011TIP3   OH236591   2.203   5.557   7.437 -0.1852  0.4656 -0.4253
 5011TIP3    H136592   2.292   5.544   7.405  0.3437  1.1714  0.6677
 5011TIP3    H236593   2.181   5.647   7.411 -1.0812 -0.1240 -1.7919
 5012TIP3   OH236594   4.205   1.363   1.298  0.0895  0.0727 -0.1730
 5012TIP3    H136595   4.110   1.375   1.300 -0.0259 -0.7766 -0.2589
 5012TIP3    H236596   4.237   1.441   1.252 -0.4368  1.0371  1.0490
 5013TIP3   OH236597   4.928   5.137   0.211  0.3908  0.0901 -0.0253
 5013TIP3    H136598   5.015   5.151   0.174 -0.3342 -0.1354 -1.8847
 5013TIP3    H236599   4.927   5.045   0.236 -0.1251 -0.5961 -2.3614
 5014TIP3   OH236600   0.986   2.870   8.847 -0.1252 -0.0665 -0.3591
 5014TIP3    H136601   1.038   2.907   8.775 -0.6258  1.4373  0.0376
 5014TIP3    H236602   1.052   2.838   8.909  0.4143 -3.7432 -2.4997
 5015TIP3   OH236603   4.655   1.751   8.858 -0.1736  0.0980  0.6978
 5015TIP3    H136604   4.702   1.699   8.794 -0.7510 -0.1554  0.4764
 5015TIP3    H236605   4.686   1.841   8.844 -0.3853  0.0610 -0.0125
 5016TIP3   OH236606   4.412   1.629   8.879 -0.6982  1.2694 -0.3518
 5016TIP3    H136607   4.493   1.680   8.870 -0.0770  0.3117 -0.4266
 5016TIP3    H236608   4.380   1.618   8.789 -0.6229  1.2065 -0.3713
 5017TIP3   OH236609   4.971   1.218   7.330  0.3166 -0.2481 -0.3934
 5017TIP3    H136610   4.951   1.125   7.317 -0.5590 -0.1618  0.2487
 5017TIP3    H236611   4.886   1.259   7.344  0.8609  0.2891  1.6130
 5018TIP3   OH236612   0.480   3.814   6.767  0.0983  0.1768  0.2726
 5018TIP3    H136613   0.463   3.773   6.852 -2.9396  1.2948  0.3186
 5018TIP3    H236614   0.575   3.819   6.761  0.4178 -1.0203  3.0646
 5019TIP3   OH236615   0.328   2.531   0.117  0.3216 -0.4672 -0.1334
 5019TIP3    H136616   0.285   2.549   0.200 -0.5145  2.0992 -1.0492
 5019TIP3    H236617   0.399   2.470   0.139 -0.2808 -0.3502  2.3162
 5020TIP3   OH236618   3.463   1.686   8.256  0.3478  0.2756  0.1321
 5020TIP3    H136619   3.407   1.758   8.285  0.2223 -0.0695  0.7895
 5020TIP3    H236620   3.443   1.675   8.164 -2.1358 -1.0969  0.7377
 5021TIP3   OH236621   2.519   6.333   1.801 -0.0721  0.2030  0.4837
 5021TIP3    H136622   2.597   6.317   1.855  0.2609 -2.2723 -0.5893
 5021TIP3    H236623   2.487   6.246   1.779 -1.5614  1.1519 -1.3825
 5022TIP3   OH236624   2.358   5.963   8.161  0.5418 -0.1910  0.7604
 5022TIP3    H136625   2.287   5.964   8.225 -0.8474  0.2094 -0.6994
 5022TIP3    H236626   2.330   6.026   8.094  0.9416 -1.9890 -1.2217
 5023TIP3   OH236627   4.107   0.338   0.757  0.4977  0.6181  0.2422
 5023TIP3    H136628   4.083   0.245   0.755  1.2417  0.3887 -2.8506
 5023TIP3    H236629   4.033   0.382   0.715  0.5718  1.3244  0.8442
 5024TIP3   OH236630   4.097   4.605   1.385 -0.2649 -0.0812  0.0693
 5024TIP3    H136631   4.128   4.690   1.352  1.1055 -0.0235  1.3871
 5024TIP3    H236632   4.006   4.621   1.410  0.7749  2.0092  3.2743
 5025TIP3   OH236633   0.625   2.665   0.652  0.4657  0.0247  0.0661
 5025TIP3    H136634   0.581   2.621   0.725 -1.3628  0.9768 -0.3982
 5025TIP3    H236635   0.570   2.646   0.576 -0.2273  2.7494 -0.2141
 5026TIP3   OH236636   2.624   6.445   8.294  0.1689 -0.2264  0.2343
 5026TIP3    H136637   2.699   6.464   8.350  0.1593 -0.9177  0.5022
 5026TIP3    H236638   2.649   6.478   8.207  0.8131 -0.5162  0.3048
 5027TIP3   OH236639   1.243   3.908   8.843 -0.1007 -0.0311 -0.3483
 5027TIP3    H136640   1.263   3.983   8.899 -2.0480  2.1062 -2.2412
 5027TIP3    H236641   1.326   3.885   8.803  0.5015  1.4884 -0.0523
 5028TIP3   OH236642   1.801   6.105   8.934 -0.9358  0.3408 -0.0470
 5028TIP3    H136643   1.779   6.019   8.897  1.1481 -0.2539 -0.0123
 5028TIP3    H236644   1.717   6.151   8.939 -1.9499 -1.3031 -1.0500
 5029TIP3   OH236645   6.222   1.664   7.477  0.2016 -0.1260  0.1956
 5029TIP3    H136646   6.190   1.753   7.464 -0.5700 -0.4067  0.0656
 5029TIP3    H236647   6.312   1.674   7.506  0.1541  0.6924  0.0825
 5030TIP3   OH236648   0.628   1.569   8.541 -0.6525 -0.2490  0.0358
 5030TIP3    H136649   0.546   1.521   8.539 -0.0757 -1.2379 -0.1514
 5030TIP3    H236650   0.669   1.552   8.456 -0.0507 -0.1187  0.2925
 5031TIP3   OH236651   4.744   2.051   6.987  0.5942 -0.2207 -0.4973
 5031TIP3    H136652   4.833   2.017   6.990  0.1605 -1.3670 -0.0011
 5031TIP3    H236653   4.740   2.103   6.907  2.1027  0.9907  0.1655
 5032TIP3   OH236654   4.547   1.608   0.689  0.1126 -0.5152  0.4163
 5032TIP3    H136655   4.569   1.669   0.619  0.7566 -1.0116  0.1707
 5032TIP3    H236656   4.628   1.559   0.704 -0.0613 -0.5167  1.4044
 5033TIP3   OH236657   0.956   0.011   1.327  0.0477 -0.6510  0.2424
 5033TIP3    H136658   0.892   0.010   1.398 -0.7929 -1.9420 -0.5005
 5033TIP3    H236659   0.907   0.041   1.251  0.7682  0.0379  0.0392
 5034TIP3   OH236660   1.429   2.167   0.837 -0.2386 -0.3881  0.0108
 5034TIP3    H136661   1.487   2.146   0.764 -0.8625  0.9933 -0.9173
 5034TIP3    H236662   1.341   2.160   0.801 -0.5429  3.1517 -0.3042
 5035TIP3   OH236663   0.099   2.264   0.315 -0.4541  0.6351 -0.1233
 5035TIP3    H136664   0.190   2.245   0.335 -0.1128  1.1302 -1.1138
 5035TIP3    H236665   0.054   2.180   0.324  0.0383  0.4432  0.6301
 5036TIP3   OH236666   5.232   2.957   0.226 -0.4352  0.1457  0.1041
 5036TIP3    H136667   5.293   2.914   0.167  0.6296 -0.7208  1.7487
 5036TIP3    H236668   5.229   3.048   0.197 -1.6222 -0.6438 -2.5693
 5037TIP3   OH236669   1.041   3.381   2.107  0.5242  0.4787  0.4767
 5037TIP3    H136670   0.987   3.379   2.185  0.2798  0.6658  0.3151
 5037TIP3    H236671   1.130   3.390   2.140  0.6078 -1.3119  0.7956
 5038TIP3   OH236672   2.098   1.428   7.941  0.0819 -0.2101 -0.2055
 5038TIP3    H136673   2.192   1.433   7.958 -0.0803  1.7880  0.3195
 5038TIP3    H236674   2.092   1.390   7.853  1.3632 -0.4784 -0.2016
 5039TIP3   OH236675   1.832   4.164   2.206  0.8032  0.1567  0.2550
 5039TIP3    H136676   1.825   4.077   2.168  1.1970  0.4078 -0.3974
 5039TIP3    H236677   1.748   4.178   2.251  0.4370 -0.2377 -0.3087
 5040TIP3   OH236678   0.290   6.756   2.015 -0.2918  0.1529  0.7599
 5040TIP3    H136679   0.367   6.798   2.053 -0.0450 -0.8696  1.4305
 5040TIP3    H236680   0.260   6.817   1.948  0.5409  1.0004  1.1378
 5041TIP3   OH236681   3.493   6.313   0.901  0.2998 -0.0147  0.6757
 5041TIP3    H136682   3.587   6.300   0.888  0.4584  0.4104  1.3929
 5041TIP3    H236683   3.457   6.224   0.906  0.3797 -0.2226 -1.4374
 5042TIP3   OH236684   3.883   4.331   7.117  0.1067  0.3079  0.5675
 5042TIP3    H136685   3.816   4.361   7.056  1.1572 -0.8924 -1.3085
 5042TIP3    H236686   3.951   4.294   7.060  0.8597 -1.5032  2.5116
 5043TIP3   OH236687   0.708   0.545   0.132  0.3131  0.1528  0.3858
 5043TIP3    H136688   0.633   0.517   0.080 -0.2542  2.8726 -0.4402
 5043TIP3    H236689   0.693   0.509   0.219 -1.2633 -0.4494 -0.1092
 5044TIP3   OH236690   5.874   6.359   7.613 -0.0141  0.5449  0.3026
 5044TIP3    H136691   5.837   6.438   7.575 -1.1533  0.1518  0.5515
 5044TIP3    H236692   5.938   6.329   7.548 -2.4929 -0.5703 -1.7760
 5045TIP3   OH236693   3.350   0.789   2.552 -0.5881  0.2891 -0.0591
 5045TIP3    H136694   3.294   0.866   2.543 -0.5214  0.1501 -2.3838
 5045TIP3    H236695   3.433   0.822   2.585 -1.0081  0.9798  0.3220
 5046TIP3   OH236696   0.825   1.971   2.177 -0.2477 -0.1017  0.1006
 5046TIP3    H136697   0.845   2.037   2.243  1.4972 -1.0972  0.6267
 5046TIP3    H236698   0.791   2.020   2.102  3.4990  1.7739 -0.5716
 5047TIP3   OH236699   0.610   0.447   2.515 -0.2668 -0.1954 -0.4487
 5047TIP3    H136700   0.693   0.412   2.550  0.5484  1.0206 -1.1111
 5047TIP3    H236701   0.551   0.372   2.514  1.0584 -1.2703 -0.6690
 5048TIP3   OH236702   0.976   1.176   7.128  0.9657  0.5495 -0.8979
 5048TIP3    H136703   0.917   1.198   7.056  2.3870 -2.1809 -3.1220
 5048TIP3    H236704   1.028   1.255   7.142 -0.3633  1.6296 -1.7854
 5049TIP3   OH236705   0.979   6.037   1.764 -0.4404 -0.1986  0.3731
 5049TIP3    H136706   0.919   6.112   1.766 -2.1057 -1.4837  0.7333
 5049TIP3    H236707   0.974   6.001   1.853  2.4533  0.8040  1.0518
 5050TIP3   OH236708   0.487   2.429   1.380  0.1445  0.0670  0.0478
 5050TIP3    H136709   0.560   2.369   1.398 -0.7940 -1.9739 -2.4155
 5050TIP3    H236710   0.521   2.489   1.313 -0.4396 -1.0365 -1.2787
 5051TIP3   OH236711   1.692   4.234   7.886  0.6349  0.7063  0.2650
 5051TIP3    H136712   1.713   4.159   7.941  0.2073  1.4351  1.4736
 5051TIP3    H236713   1.666   4.302   7.948  0.6077  1.7212 -0.8223
 5052TIP3   OH236714   3.475   4.097   7.865  0.7937 -0.4223 -0.2233
 5052TIP3    H136715   3.535   4.024   7.857  2.1034  0.7239 -1.4045
 5052TIP3    H236716   3.453   4.121   7.775  0.2275  0.5102  0.1378
 5053TIP3   OH236717   4.501   5.100   7.043 -0.5986 -0.6544  0.6321
 5053TIP3    H136718   4.573   5.063   7.094 -0.2963 -0.2071  0.5343
 5053TIP3    H236719   4.428   5.038   7.056 -0.2221 -1.0728  0.7863
 5054TIP3   OH236720   2.357   5.914   2.923  0.3975  0.4241  0.2793
 5054TIP3    H136721   2.401   5.850   2.979  0.6373 -0.8382 -1.2740
 5054TIP3    H236722   2.388   5.999   2.954  1.3900 -0.2921  1.3224
 5055TIP3   OH236723   3.800   4.357   2.151 -0.5397 -0.1846 -0.4441
 5055TIP3    H136724   3.831   4.273   2.182 -2.3633 -0.3549  1.0923
 5055TIP3    H236725   3.706   4.345   2.139 -0.5853  1.1887 -1.7767
 5056TIP3   OH236726   3.652   0.174   8.349  0.7134  0.5751  0.5150
 5056TIP3    H136727   3.662   0.079   8.351 -0.1175  0.4392 -0.5063
 5056TIP3    H236728   3.638   0.199   8.440 -0.7734 -0.5063  0.6236
 5057TIP3   OH236729   6.645   2.919   6.690 -0.7608  0.1206 -0.7060
 5057TIP3    H136730   6.680   3.008   6.685 -0.6512  0.0668 -0.9252
 5057TIP3    H236731   6.669   2.879   6.606  1.4122 -0.9270  0.3458
 5058TIP3   OH236732   3.805   0.623   1.521 -0.6659 -0.4264 -0.0599
 5058TIP3    H136733   3.744   0.557   1.553 -0.2364 -0.8923 -0.1818
 5058TIP3    H236734   3.887   0.604   1.567 -0.4581 -0.1576 -0.3108
 5059TIP3   OH236735   6.139   2.924   0.955  0.5576  0.1766 -0.3775
 5059TIP3    H136736   6.200   2.887   0.891 -1.1550  0.1089 -2.0442
 5059TIP3    H236737   6.194   2.947   1.030  2.6113  0.0695 -1.7788
 5060TIP3   OH236738   1.586   0.973   1.120  0.3961  0.1608  0.0279
 5060TIP3    H136739   1.518   1.017   1.170 -0.2679 -0.8889  0.0796
 5060TIP3    H236740   1.540   0.901   1.075  1.2332  0.2082 -0.9428
 5061TIP3   OH236741   0.148   2.386   7.425  0.3238  0.0774  0.1560
 5061TIP3    H136742   0.110   2.312   7.473  0.0289  0.0545 -0.1028
 5061TIP3    H236743   0.120   2.371   7.335 -0.1167  0.7414  0.1770
 5062TIP3   OH236744   4.481   4.143   3.186 -0.1676  0.0233 -0.1147
 5062TIP3    H136745   4.575   4.126   3.175 -0.0373  1.3762 -1.4683
 5062TIP3    H236746   4.455   4.188   3.106 -1.4206  1.9157  1.2501
 5063TIP3   OH236747   0.571   4.605   1.317  0.6770 -0.5468  0.0897
 5063TIP3    H136748   0.555   4.526   1.265  0.1705 -0.3165 -0.1147
 5063TIP3    H236749   0.519   4.592   1.396  1.7286 -1.0564  0.7135
 5064TIP3   OH236750   3.092   3.735   1.402  0.1158 -0.2449 -0.3348
 5064TIP3    H136751   3.169   3.787   1.423 -0.0534  0.0813 -0.5174
 5064TIP3    H236752   3.127   3.650   1.374  0.4165 -0.0370 -0.6011
 5065TIP3   OH236753   3.346   4.359   0.499  0.0798 -0.0085  0.2446
 5065TIP3    H136754   3.360   4.362   0.404 -1.6017  0.6266 -0.0181
 5065TIP3    H236755   3.329   4.266   0.517  0.0776 -0.0847 -0.1347
 5066TIP3   OH236756   1.954   0.842   0.177 -0.8227 -0.1468 -0.2719
 5066TIP3    H136757   1.898   0.770   0.206 -0.1053 -0.5671  0.0760
 5066TIP3    H236758   1.924   0.862   0.088 -1.1295 -0.7575 -0.3063
 5067TIP3   OH236759   3.797   1.084   8.817  0.2379  0.3509  0.4620
 5067TIP3    H136760   3.887   1.056   8.801  0.3993  0.2400  1.4654
 5067TIP3    H236761   3.745   1.040   8.750  0.8081 -0.3771  0.4890
 5068TIP3   OH236762   0.697   3.564   2.833 -0.4284  0.4473 -0.1077
 5068TIP3    H136763   0.707   3.533   2.743 -0.8037  0.3016 -0.1009
 5068TIP3    H236764   0.692   3.484   2.886 -0.8207  0.5220 -0.0263
 5069TIP3   OH236765   3.733   2.661   8.136 -0.3082  0.7046  0.1978
 5069TIP3    H136766   3.646   2.683   8.103 -1.1912 -0.0491  1.8925
 5069TIP3    H236767   3.761   2.588   8.080 -1.0016  0.5979 -0.0257
 5070TIP3   OH236768   2.857   0.949   7.984  0.1151 -0.8711  0.1141
 5070TIP3    H136769   2.814   0.954   7.898  1.8689 -1.1690 -0.8139
 5070TIP3    H236770   2.787   0.922   8.043 -0.9530 -1.5633 -1.3791
 5071TIP3   OH236771   1.894   3.155   7.390  0.5323 -0.0871 -0.6244
 5071TIP3    H136772   1.906   3.061   7.378  0.2472 -0.4558  1.6379
 5071TIP3    H236773   1.921   3.193   7.306  0.2632 -2.1865 -1.7280
 5072TIP3   OH236774   4.698   1.020   1.687 -0.4311 -1.0503  0.3485
 5072TIP3    H136775   4.676   1.111   1.708 -4.2038 -2.2255  2.6010
 5072TIP3    H236776   4.671   1.009   1.596 -1.1128 -0.2083  0.4342
 5073TIP3   OH236777   3.111   0.772   8.707 -0.1733 -0.1060  0.3616
 5073TIP3    H136778   3.083   0.697   8.653  0.0052 -0.8579  1.2801
 5073TIP3    H236779   3.182   0.812   8.656  0.1217 -0.9183  0.1029
 5074TIP3   OH236780   6.441   6.444   8.515  0.0382  0.4674 -0.7180
 5074TIP3    H136781   6.357   6.404   8.538 -0.3720 -0.2481 -3.2460
 5074TIP3    H236782   6.423   6.537   8.512 -0.3933  0.4064 -0.2624
 5075TIP3   OH236783   0.827   2.644   0.435  0.1655  0.5650  0.3904
 5075TIP3    H136784   0.736   2.657   0.463  0.4742  0.7785  1.3463
 5075TIP3    H236785   0.855   2.730   0.404  0.0919  0.5368  0.2455
 5076TIP3   OH236786   2.194   1.093   1.819  0.2453  0.6020  0.3134
 5076TIP3    H136787   2.269   1.150   1.828  0.9530 -0.2426 -0.0369
 5076TIP3    H236788   2.171   1.067   1.908  1.3688 -0.3692  0.3463
 5077TIP3   OH236789   1.347   0.251   0.321 -0.6834 -0.2199 -0.0882
 5077TIP3    H136790   1.339   0.255   0.226 -0.7672 -2.3217 -0.2243
 5077TIP3    H236791   1.256   0.243   0.352 -0.7608  1.6461  0.3041
 5078TIP3   OH236792   1.329   0.539   0.178  0.5716 -0.0877  0.3429
 5078TIP3    H136793   1.256   0.480   0.162  0.9901 -0.2683 -1.0600
 5078TIP3    H236794   1.289   0.624   0.198 -0.0194 -0.4970  0.8943
 5079TIP3   OH236795   6.066   5.085   0.881  0.1120  0.8204 -0.0470
 5079TIP3    H136796   6.061   4.995   0.914 -1.0501  1.0199  0.3679
 5079TIP3    H236797   6.151   5.090   0.838 -0.1597 -0.7403 -0.8357
 5080TIP3   OH236798   4.345   0.640   7.434  0.0787 -0.2973 -0.1615
 5080TIP3    H136799   4.322   0.689   7.355 -0.1101 -0.8866 -0.4791
 5080TIP3    H236800   4.383   0.705   7.493 -1.7358  0.5763  0.1042
 5081TIP3   OH236801   3.687   4.142   6.859  0.0813 -0.1430 -0.1789
 5081TIP3    H136802   3.731   4.226   6.871 -2.6718  1.4426 -0.3190
 5081TIP3    H236803   3.635   4.129   6.938 -2.1394  0.0439 -1.5102
 5082TIP3   OH236804   3.557   5.995   2.030  0.6942  0.0853  0.0198
 5082TIP3    H136805   3.602   5.982   1.946  0.8706 -1.2844  0.3168
 5082TIP3    H236806   3.465   6.004   2.006  0.6574 -0.9560 -0.2850
 5083TIP3   OH236807   6.139   6.572   1.387 -0.3170 -0.0050 -0.3102
 5083TIP3    H136808   6.074   6.503   1.375 -0.9711  0.7915 -1.5551
 5083TIP3    H236809   6.218   6.526   1.414 -0.9942 -1.1315 -0.1818
 5084TIP3   OH236810   2.535   5.495   1.705  0.0889 -0.2485  0.0384
 5084TIP3    H136811   2.448   5.476   1.741 -0.0130 -0.9675 -0.5647
 5084TIP3    H236812   2.569   5.409   1.678  0.0946  0.2854 -1.7369
 5085TIP3   OH236813   6.614   3.947   7.778  0.1445  0.9606 -0.0343
 5085TIP3    H136814   6.617   3.863   7.732 -0.8944  0.0074  1.5003
 5085TIP3    H236815   6.520   3.967   7.784  0.3459  1.8261  0.2802
 5086TIP3   OH236816   0.701   3.587   7.279  0.0477  0.0969  0.1903
 5086TIP3    H136817   0.719   3.541   7.197  1.2658 -2.1545  1.6413
 5086TIP3    H236818   0.641   3.529   7.326  0.4860  0.6785  1.5019
 5087TIP3   OH236819   3.285   0.847   7.928 -0.4019  0.6254  0.0134
 5087TIP3    H136820   3.302   0.910   7.858  1.2552 -1.1213 -1.2560
 5087TIP3    H236821   3.310   0.762   7.891 -1.2838 -0.6234  2.1040
 5088TIP3   OH236822   1.458   1.588   0.972 -0.1969  0.1907  0.4475
 5088TIP3    H136823   1.397   1.590   0.899  0.5274 -1.1568 -0.2524
 5088TIP3    H236824   1.421   1.648   1.037 -0.8228  1.4614 -1.0345
 5089TIP3   OH236825   3.440   0.599   7.888 -0.4390 -0.1003  0.1420
 5089TIP3    H136826   3.394   0.640   7.815 -1.0063 -0.2901  0.3892
 5089TIP3    H236827   3.419   0.506   7.881 -0.2000 -0.1705  0.3338
 5090TIP3   OH236828   5.218   3.816   8.358 -0.1000  0.2946  0.0958
 5090TIP3    H136829   5.245   3.755   8.426  1.4601  2.8985  2.0252
 5090TIP3    H236830   5.293   3.823   8.299  0.7736  2.0934  1.3180
 5091TIP3   OH236831   5.374   4.800   8.238 -0.3179 -0.2245  0.1386
 5091TIP3    H136832   5.371   4.770   8.148 -0.5633  0.8787 -0.2430
 5091TIP3    H236833   5.305   4.751   8.283 -0.9750  0.0596 -0.5452
 5092TIP3   OH236834   4.240   5.360   8.686 -0.0729 -0.2395 -0.2323
 5092TIP3    H136835   4.248   5.314   8.770 -0.2137 -0.9603 -0.6155
 5092TIP3    H236836   4.300   5.435   8.695 -0.2103 -0.2174  0.5737
 5093TIP3   OH236837   2.441   6.076   0.288  0.3125  0.1717 -0.0505
 5093TIP3    H136838   2.458   6.015   0.360 -0.5841 -1.0444 -0.8448
 5093TIP3    H236839   2.528   6.104   0.259  0.6956  0.4473  1.2890
 5094TIP3   OH236840   0.569   6.105   7.894 -0.4331 -0.4472 -0.0598
 5094TIP3    H136841   0.600   6.087   7.805 -2.5040  2.2338 -1.4729
 5094TIP3    H236842   0.521   6.026   7.919  1.5121 -1.8848 -0.5905
 5095TIP3   OH236843   0.183   4.248   0.887 -0.5110  0.6047  0.4528
 5095TIP3    H136844   0.238   4.262   0.810  0.0850 -1.4811  0.4429
 5095TIP3    H236845   0.245   4.229   0.957 -1.1400 -1.3017  0.5508
 5096TIP3   OH236846   0.845   6.568   0.642 -0.3042  0.3177 -0.2084
 5096TIP3    H136847   0.903   6.519   0.700 -0.6814 -0.3004 -0.3439
 5096TIP3    H236848   0.817   6.643   0.693 -0.4238 -0.0809  0.3170
 5097TIP3   OH236849   2.360   6.382   0.704  0.0358 -0.0800  0.3365
 5097TIP3    H136850   2.278   6.403   0.660  0.4643  0.9700  0.0119
 5097TIP3    H236851   2.428   6.410   0.642  0.6371 -0.0682  0.9913
 5098TIP3   OH236852   5.999   3.101   7.709  0.3720  0.2068 -0.4253
 5098TIP3    H136853   5.932   3.104   7.640 -0.8031 -1.3234  0.5756
 5098TIP3    H236854   6.076   3.065   7.666 -0.7442 -2.0355 -0.7213
 5099TIP3   OH236855   3.682   6.162   2.379  0.0148  0.1647  0.2646
 5099TIP3    H136856   3.734   6.167   2.459 -0.6316  0.7573  0.6561
 5099TIP3    H236857   3.591   6.152   2.410 -0.1157 -0.8025 -0.4048
 5100TIP3   OH236858   6.493   2.215   7.370 -0.4096 -0.2351 -0.0434
 5100TIP3    H136859   6.561   2.280   7.356  0.0371 -0.4447  1.0541
 5100TIP3    H236860   6.491   2.202   7.465 -0.5112 -1.8021 -0.2306
 5101TIP3   OH236861   4.466   0.008   7.175 -0.0260  0.3599 -0.1711
 5101TIP3    H136862   4.452   0.096   7.138 -0.0959  1.6520  2.6554
 5101TIP3    H236863   4.407   0.004   7.250  0.6044 -1.8105  0.2784
 5102TIP3   OH236864   1.015   6.249   2.447  0.0033  0.3419 -0.3917
 5102TIP3    H136865   0.921   6.241   2.461  0.2296  0.1904  1.2395
 5102TIP3    H236866   1.046   6.304   2.520  1.2448 -0.0173 -0.6167
 5103TIP3   OH236867   2.516   3.647   2.720 -0.4338  0.5707 -0.0960
 5103TIP3    H136868   2.432   3.622   2.760 -0.6943  1.1767 -0.2383
 5103TIP3    H236869   2.576   3.655   2.794 -0.2085 -0.9296 -0.0966
 5104TIP3   OH236870   5.167   6.660   1.860  0.4798 -0.0450  0.2281
 5104TIP3    H136871   5.170   6.596   1.788 -2.1501  0.7555 -0.7192
 5104TIP3    H236872   5.110   6.729   1.827  0.0563  0.8751  2.7202
 5105TIP3   OH236873   3.912   5.087   8.803  0.0189 -0.3946  0.1198
 5105TIP3    H136874   3.827   5.109   8.840  0.6487  1.3766  0.6083
 5105TIP3    H236875   3.933   5.161   8.746  1.4222 -0.5724  0.3731
 5106TIP3   OH236876   0.313   2.349   2.650  0.2429 -0.5258  0.3814
 5106TIP3    H136877   0.229   2.373   2.610  0.0425 -0.7885  0.6355
 5106TIP3    H236878   0.372   2.335   2.576  0.7670  2.0395  0.1994
 5107TIP3   OH236879   5.605   4.950   8.852 -0.3410  0.1007 -0.6195
 5107TIP3    H136880   5.563   4.965   8.768  1.5785  1.2333 -1.4569
 5107TIP3    H236881   5.667   5.023   8.861  1.6175 -1.5805  0.3891
 5108TIP3   OH236882   3.758   4.516   8.414 -0.4382 -0.3402 -0.1528
 5108TIP3    H136883   3.849   4.486   8.408  0.0290  1.1465 -1.1318
 5108TIP3    H236884   3.759   4.581   8.484 -0.5040  0.4491 -0.8739
 5109TIP3   OH236885   0.732   4.400   6.949 -0.0583 -0.2469 -0.6796
 5109TIP3    H136886   0.700   4.382   6.860 -0.7268  0.6401 -0.6308
 5109TIP3    H236887   0.663   4.369   7.006  0.1795 -0.4106 -0.4794
 5110TIP3   OH236888   1.759   2.934   8.762 -0.2431 -0.1691  0.7433
 5110TIP3    H136889   1.788   2.871   8.696 -0.4628 -0.2458  0.7191
 5110TIP3    H236890   1.840   2.967   8.801 -0.0893  0.2010  0.1293
 5111TIP3   OH236891   0.355   2.736   1.412 -0.3043  0.2165 -0.6096
 5111TIP3    H136892   0.342   2.678   1.487  0.5232 -1.8530 -1.9758
 5111TIP3    H236893   0.418   2.802   1.443 -0.0088 -0.5732  0.5138
 5112TIP3   OH236894   2.203   5.995   1.883  0.2247  0.0787  0.0406
 5112TIP3    H136895   2.261   5.919   1.889 -0.5143 -0.6656 -1.5021
 5112TIP3    H236896   2.129   5.974   1.941  0.2049 -0.2174 -0.0900
 5113TIP3   OH236897   5.005   0.658   0.034 -1.0093 -0.3636  0.3634
 5113TIP3    H136898   4.998   0.747  -0.001 -0.1207 -1.0121 -1.5685
 5113TIP3    H236899   5.005   0.601  -0.043  1.3655 -1.8428  1.3454
 5114TIP3   OH236900   4.745   0.422   1.150  0.4809 -0.5033  0.2879
 5114TIP3    H136901   4.758   0.461   1.064 -1.0999 -0.1154  0.1928
 5114TIP3    H236902   4.659   0.453   1.178  1.2828  0.0514  2.3798
 5115TIP3   OH236903   2.496   2.081   8.326 -0.4185 -0.2095 -0.3445
 5115TIP3    H136904   2.580   2.076   8.280 -0.5904 -1.4176 -0.5531
 5115TIP3    H236905   2.517   2.059   8.417 -0.1788  1.5851  0.0689
 5116TIP3   OH236906   0.089   1.314   8.713 -0.1461  0.0669  0.1568
 5116TIP3    H136907   0.161   1.280   8.660 -0.4445  1.4325 -1.2070
 5116TIP3    H236908   0.125   1.317   8.802  0.8771 -0.8977 -0.1927
 5117TIP3   OH236909   4.746   2.393   8.074 -0.7519 -0.4230  0.3893
 5117TIP3    H136910   4.833   2.426   8.100 -0.3727 -1.7786  0.9048
 5117TIP3    H236911   4.750   2.391   7.978 -0.0095 -0.9449  0.4146
 5118TIP3   OH236912   5.036   6.679   7.984  0.5406  0.7808 -0.0430
 5118TIP3    H136913   4.979   6.687   7.908  0.2701  1.3107  0.2116
 5118TIP3    H236914   5.124   6.669   7.947  0.0426 -4.4472 -0.6481
 5119TIP3   OH236915   3.259   2.846   0.024 -0.1106  0.2063 -0.7330
 5119TIP3    H136916   3.262   2.856  -0.071  0.9466  1.2333 -0.6173
 5119TIP3    H236917   3.351   2.831   0.049 -0.2526  0.8389  0.2068
 5120TIP3   OH236918   0.478   2.408   1.830 -0.4979 -0.5251 -0.2487
 5120TIP3    H136919   0.561   2.446   1.859 -0.5041 -1.3352  0.8994
 5120TIP3    H236920   0.496   2.315   1.822 -1.1741 -0.6447 -0.4349
 5121TIP3   OH236921   2.668   2.641   7.597  0.0874 -0.8883 -0.8679
 5121TIP3    H136922   2.658   2.556   7.554 -1.5928  0.7349 -3.9509
 5121TIP3    H236923   2.579   2.672   7.611  0.5992 -0.5422  2.4300
 5122TIP3   OH236924   1.403   3.209   1.001 -0.3028  0.0780  0.0359
 5122TIP3    H136925   1.344   3.134   0.997 -1.0302  0.5865  0.8512
 5122TIP3    H236926   1.346   3.285   1.013  0.4509  0.7169 -0.2365
 5123TIP3   OH236927   4.440   2.196   7.712 -0.1454  0.2251  0.0015
 5123TIP3    H136928   4.428   2.102   7.699  2.3652 -0.0831 -0.5454
 5123TIP3    H236929   4.360   2.235   7.679 -0.3806 -1.5860 -1.7489
 5124TIP3   OH236930   5.739   3.413   2.556 -0.0589  0.1130  0.7897
 5124TIP3    H136931   5.770   3.417   2.646 -0.0027  0.0711  0.7723
 5124TIP3    H236932   5.788   3.482   2.511  0.3523 -0.2668  0.6588
 5125TIP3   OH236933   5.421   1.775   2.181  0.0792  0.0895 -0.1293
 5125TIP3    H136934   5.488   1.827   2.136 -1.6570  1.5213 -1.1763
 5125TIP3    H236935   5.465   1.743   2.260  2.2158  0.3087 -1.1423
 5126TIP3   OH236936   5.237   4.973   0.274 -0.0988  0.2851  0.3924
 5126TIP3    H136937   5.253   5.067   0.260  1.2323 -0.0488 -0.4798
 5126TIP3    H236938   5.322   4.938   0.300 -0.2595 -0.9024 -0.6047
 5127TIP3   OH236939   0.367   3.456   8.277  0.3354 -0.7681  0.7199
 5127TIP3    H136940   0.367   3.503   8.194 -0.3949 -0.0792  1.0934
 5127TIP3    H236941   0.455   3.470   8.313  0.3001 -0.1266  0.5721
 5128TIP3   OH236942   4.173   5.486   7.336 -0.6762 -0.0240 -0.2352
 5128TIP3    H136943   4.143   5.421   7.272 -2.0172  1.0615 -0.7414
 5128TIP3    H236944   4.157   5.444   7.421 -0.8807 -0.6284 -0.5615
 5129TIP3   OH236945   2.585   5.428   2.075 -0.0805 -0.8654 -0.1569
 5129TIP3    H136946   2.524   5.466   2.012 -0.3126 -2.0356 -0.6660
 5129TIP3    H236947   2.607   5.342   2.039 -0.8086 -1.9019  1.7091
 5130TIP3   OH236948   2.548   1.874   0.173 -0.3347  0.1371 -0.2265
 5130TIP3    H136949   2.560   1.881   0.078  1.0504 -0.1858 -0.0982
 5130TIP3    H236950   2.637   1.872   0.208 -0.6791 -3.2912  0.8239
 5131TIP3   OH236951   5.394   5.352   2.627  0.5534  1.1816  0.2989
 5131TIP3    H136952   5.431   5.317   2.546  1.5039  1.8068  0.4527
 5131TIP3    H236953   5.405   5.281   2.691  2.1802  1.6145  0.5281
 5132TIP3   OH236954   4.093   1.773   7.677 -0.5561 -0.5691 -0.2317
 5132TIP3    H136955   4.158   1.841   7.659 -0.5765  0.3580  2.6318
 5132TIP3    H236956   4.145   1.694   7.694 -0.3673 -0.5705 -0.8004
 5133TIP3   OH236957   4.739   0.906   0.459 -0.1850 -0.6259 -0.3714
 5133TIP3    H136958   4.662   0.961   0.446  2.2283  2.8774 -1.4334
 5133TIP3    H236959   4.795   0.925   0.383  3.0352 -0.4666  1.8614
 5134TIP3   OH236960   4.513   6.273   1.439 -0.8105  0.6601  0.3647
 5134TIP3    H136961   4.500   6.246   1.530  0.8040  0.9635  0.7056
 5134TIP3    H236962   4.590   6.225   1.410 -0.1993  1.9591 -0.2471
 5135TIP3   OH236963   5.181   5.531   0.528 -0.2146 -0.1766 -0.1204
 5135TIP3    H136964   5.246   5.582   0.576  0.4279 -0.5628 -0.5783
 5135TIP3    H236965   5.172   5.576   0.444 -0.6341 -0.0516 -0.0103
 5136TIP3   OH236966   5.401   4.988   2.450  0.3457 -0.3727 -0.0158
 5136TIP3    H136967   5.387   4.897   2.423 -0.7960 -0.6851  1.5088
 5136TIP3    H236968   5.496   5.000   2.448  0.4684 -1.3755 -0.8940
 5137TIP3   OH236969   6.553   3.096   1.766 -0.0234 -0.3716  0.5512
 5137TIP3    H136970   6.633   3.044   1.760  0.2335  0.0797 -0.0957
 5137TIP3    H236971   6.525   3.087   1.857  1.1233 -0.0306  0.9529
 5138TIP3   OH236972   1.778   4.914   8.387  0.1478 -0.2855 -0.2576
 5138TIP3    H136973   1.871   4.910   8.409  0.4276 -0.2535 -1.3844
 5138TIP3    H236974   1.772   4.876   8.300 -1.1239 -1.7021  0.3993
 5139TIP3   OH236975   1.232   0.672   7.102  0.1457  0.2149  0.0725
 5139TIP3    H136976   1.304   0.609   7.095 -0.7730 -0.6727 -2.5700
 5139TIP3    H236977   1.160   0.622   7.141  0.5107  0.7100  1.4150
 5140TIP3   OH236978   2.973   1.902   2.520  0.4479 -0.5644 -0.2869
 5140TIP3    H136979   3.051   1.850   2.539  1.1327  0.0312 -1.3620
 5140TIP3    H236980   2.900   1.841   2.530  1.2086 -1.6685 -1.2141
 5141TIP3   OH236981   1.764   4.229   8.589 -0.7744  0.2966 -0.4418
 5141TIP3    H136982   1.852   4.195   8.605 -2.2281 -2.7036  2.1630
 5141TIP3    H236983   1.749   4.212   8.496  0.8917 -0.3447 -0.6370
 5142TIP3   OH236984   3.955   6.336   2.382  0.1213 -0.2914  0.2949
 5142TIP3    H136985   3.927   6.369   2.467  0.5169 -1.6821  0.9974
 5142TIP3    H236986   3.908   6.253   2.372  1.3191 -0.9524 -0.0681
 5143TIP3   OH236987   6.658   2.541   0.892  0.1611  0.6074 -0.1005
 5143TIP3    H136988   6.599   2.569   0.962 -0.0623 -0.0113 -0.0313
 5143TIP3    H236989   6.735   2.507   0.938 -0.7608 -1.6004 -0.0317
 5144TIP3   OH236990   3.424   4.363   8.395 -0.2349 -0.0696  0.5599
 5144TIP3    H136991   3.442   4.412   8.475 -0.8202 -1.6792  1.6993
 5144TIP3    H236992   3.511   4.346   8.358  0.0162  1.0824  0.5616
 5145TIP3   OH236993   3.740   4.013   0.780 -0.0620 -0.6870  1.2069
 5145TIP3    H136994   3.649   3.989   0.759 -0.3272 -0.6024  2.1858
 5145TIP3    H236995   3.751   3.987   0.872 -0.2938  2.5878  2.3045
 5146TIP3   OH236996   3.679   3.419   1.739  0.2505 -0.2713  0.8441
 5146TIP3    H136997   3.774   3.422   1.753  0.6583 -0.4911 -1.4744
 5146TIP3    H236998   3.644   3.378   1.818  2.1961 -1.0197  1.3707
 5147TIP3   OH236999   2.469   2.167   1.610  0.3715  0.5604 -0.1931
 5147TIP3    H137000   2.484   2.077   1.581  0.5426  0.6723 -0.4583
 5147TIP3    H237001   2.493   2.221   1.534 -0.8001  0.7823 -0.4287
 5148TIP3   OH237002   3.367   3.203   2.399 -0.4153 -0.5222 -0.1547
 5148TIP3    H137003   3.302   3.172   2.462  0.2693 -2.4160 -0.3116
 5148TIP3    H237004   3.343   3.294   2.382 -1.2486 -0.3003  1.9957
 5149TIP3   OH237005   5.136   1.536   1.545 -0.1792  0.1715  0.2476
 5149TIP3    H137006   5.175   1.469   1.602  1.1255  2.0294  1.6901
 5149TIP3    H237007   5.207   1.563   1.487 -1.1311 -0.7374 -1.4132
 5150TIP3   OH237008   2.707   4.845   8.098  0.5760 -1.0819 -0.0659
 5150TIP3    H137009   2.791   4.887   8.078 -0.2512  0.5277 -0.3355
 5150TIP3    H237010   2.645   4.888   8.040 -0.3869 -2.5483 -0.1782
 5151TIP3   OH237011   0.796   2.454   8.009  0.4671 -0.0092  0.2989
 5151TIP3    H137012   0.747   2.428   7.931  0.8342 -0.9105  0.3520
 5151TIP3    H237013   0.748   2.529   8.044 -2.3357 -2.2871  1.7393
 5152TIP3   OH237014   2.223   0.999   7.760 -0.3631 -0.0328  0.1531
 5152TIP3    H137015   2.185   0.945   7.690 -0.3910 -0.6102  0.6011
 5152TIP3    H237016   2.293   1.048   7.717 -0.3745 -0.3837 -0.2852
 5153TIP3   OH237017   2.013   0.564   1.869 -0.1440  0.4418 -0.1983
 5153TIP3    H137018   2.017   0.529   1.780 -1.5111  1.5423 -0.7539
 5153TIP3    H237019   2.044   0.654   1.860 -0.1263  0.5061  0.4694
 5154TIP3   OH237020   1.266   1.118   7.580 -0.1896  0.0103 -0.6326
 5154TIP3    H137021   1.355   1.107   7.614 -0.0956 -1.1184 -1.2273
 5154TIP3    H237022   1.257   1.053   7.511 -1.5214  0.0274 -0.5150
 5155TIP3   OH237023   3.284   2.916   7.289 -0.0846  0.1280 -0.2521
 5155TIP3    H137024   3.216   2.849   7.294  0.3735 -0.2877  0.7969
 5155TIP3    H237025   3.240   2.994   7.255 -1.3485  0.1779  1.3976
 5156TIP3   OH237026   5.201   3.001   7.587 -0.4946 -1.0859  0.1605
 5156TIP3    H137027   5.143   3.074   7.606  1.9587  0.4871  2.3278
 5156TIP3    H237028   5.218   3.007   7.493 -1.5954  0.1540  0.0233
 5157TIP3   OH237029   5.296   4.487   2.443 -0.0879  0.3413 -0.2509
 5157TIP3    H137030   5.372   4.487   2.502 -1.3697 -0.3426  1.4787
 5157TIP3    H237031   5.249   4.567   2.466  0.8254  1.5886 -2.3959
 5158TIP3   OH237032   0.890   4.531   0.542 -0.6850  0.2665 -0.1715
 5158TIP3    H137033   0.836   4.520   0.620  0.5006 -0.1941  0.6252
 5158TIP3    H237034   0.882   4.624   0.520 -1.3069  0.3270  0.2961
 5159TIP3   OH237035   4.311   3.519   8.931 -0.1628  0.3295  0.4975
 5159TIP3    H137036   4.324   3.489   9.020  1.8194  1.0115  0.4943
 5159TIP3    H237037   4.353   3.605   8.928 -0.4776  0.4708 -0.9976
 5160TIP3   OH237038   1.414   5.608   0.106 -0.2375 -0.4105 -0.8942
 5160TIP3    H137039   1.426   5.688   0.157 -0.7917 -0.8268 -0.0891
 5160TIP3    H237040   1.351   5.632   0.038 -1.4002 -0.4855  0.1289
 5161TIP3   OH237041   5.133   6.488   0.023  0.3384 -0.2324 -0.0746
 5161TIP3    H137042   5.125   6.562   0.083 -0.4595 -0.6836  0.3888
 5161TIP3    H237043   5.087   6.515  -0.056  0.9405  0.1635 -0.2896
 5162TIP3   OH237044   0.333   1.801   0.847 -0.0215  0.3336  0.4587
 5162TIP3    H137045   0.398   1.860   0.886 -2.3184  3.0531  0.5626
 5162TIP3    H237046   0.250   1.830   0.886 -1.5726 -1.4277 -1.3725
 5163TIP3   OH237047   1.110   1.958   8.046  0.1193 -0.4024  0.3229
 5163TIP3    H137048   1.093   2.006   7.964 -3.7012 -0.5045  0.8503
 5163TIP3    H237049   1.204   1.968   8.061  0.1388  4.0826 -1.3403
 5164TIP3   OH237050   4.651   5.913   1.480 -0.0475 -0.0073  0.4681
 5164TIP3    H137051   4.577   5.874   1.433 -0.6276 -0.3748  1.6419
 5164TIP3    H237052   4.723   5.852   1.467 -0.7453 -1.1449  1.6601
 5165TIP3   OH237053   3.707   3.460   6.986  0.2188  0.2250  0.4703
 5165TIP3    H137054   3.798   3.467   7.015 -0.0432  1.2429  1.0868
 5165TIP3    H237055   3.695   3.534   6.925 -0.0500 -0.2186 -0.0276
 5166TIP3   OH237056   3.172   0.468   7.443  0.1283 -0.3864 -0.9689
 5166TIP3    H137057   3.143   0.541   7.388 -0.7563 -1.2039 -1.6220
 5166TIP3    H237058   3.267   0.479   7.450  0.1561  0.1426 -2.0517
 5167TIP3   OH237059   2.520   6.516   2.567 -0.4445  0.0926 -0.4434
 5167TIP3    H137060   2.568   6.591   2.535  1.7164 -0.9043  0.2749
 5167TIP3    H237061   2.474   6.548   2.645  2.0843  0.2600  1.0639
 5168TIP3   OH237062   1.120   1.077   2.435  0.2337  0.2569  0.4767
 5168TIP3    H137063   1.072   1.024   2.498  1.0307 -0.7976  0.2273
 5168TIP3    H237064   1.140   1.159   2.481  0.7624 -0.4737  1.5848
 5169TIP3   OH237065   0.511   1.222   0.466 -0.3005 -0.4365 -0.2548
 5169TIP3    H137066   0.478   1.309   0.489 -0.7767 -0.3799 -1.1142
 5169TIP3    H237067   0.541   1.231   0.375  1.1194 -0.7640  0.1467
 5170TIP3   OH237068   2.062   5.166   1.306  0.1012 -0.0658 -0.2890
 5170TIP3    H137069   2.151   5.201   1.305  0.5552 -1.1851 -0.0685
 5170TIP3    H237070   2.006   5.244   1.303  1.0542  0.7947  1.9971
 5171TIP3   OH237071   6.491   5.331   2.104 -0.1506 -0.0654 -0.0179
 5171TIP3    H137072   6.415   5.300   2.054  0.0876 -0.9875  0.1680
 5171TIP3    H237073   6.469   5.311   2.195 -1.1195  2.7280  0.4487
 5172TIP3   OH237074   4.532   4.066   1.068  0.5123 -0.1752  0.0167
 5172TIP3    H137075   4.566   4.096   1.152  0.9317  0.7236 -0.4528
 5172TIP3    H237076   4.580   3.985   1.050  0.9098 -0.0142  0.3324
 5173TIP3   OH237077   3.112   1.833   1.712  0.4471  0.0007  0.0555
 5173TIP3    H137078   3.098   1.748   1.753 -2.3164  1.2835  2.0690
 5173TIP3    H237079   3.029   1.879   1.723  2.4650  3.8107  1.1257
 5174TIP3   OH237080   6.558   4.293   8.032 -0.1023  0.2548 -0.6125
 5174TIP3    H137081   6.629   4.347   8.067 -1.9232  3.1727 -1.1146
 5174TIP3    H237082   6.597   4.206   8.022  2.0097  0.4404  3.6446
 5175TIP3   OH237083   4.765   4.932   8.628 -0.3397 -0.0144  0.0909
 5175TIP3    H137084   4.737   4.878   8.554 -1.1568  1.7727 -0.9714
 5175TIP3    H237085   4.819   5.001   8.589 -0.3254  0.6515  1.2257
 5176TIP3   OH237086   6.368   4.207   0.018 -0.0805 -0.3544 -0.2277
 5176TIP3    H137087   6.355   4.282   0.077  1.3929  0.8019 -1.3052
 5176TIP3    H237088   6.281   4.193  -0.020 -0.9564 -0.8197  1.7985
 5177TIP3   OH237089   5.073   2.404   0.909  0.4263  0.1814  0.4221
 5177TIP3    H137090   5.068   2.331   0.972  2.7043 -0.1529  0.3004
 5177TIP3    H237091   5.045   2.480   0.960 -0.0740 -0.4595  1.1414
 5178TIP3   OH237092   4.428   0.759   1.049  0.0381 -0.6674  0.7984
 5178TIP3    H137093   4.445   0.684   0.992  1.5822 -0.5482  1.0444
 5178TIP3    H237094   4.432   0.723   1.138 -3.0225 -0.9847  0.8952
 5179TIP3   OH237095   1.550   1.297   2.623 -0.4785  0.2797 -0.5341
 5179TIP3    H137096   1.570   1.324   2.712 -1.9927 -2.1664  0.6559
 5179TIP3    H237097   1.590   1.364   2.568 -1.6228  3.2817  1.9876
 5180TIP3   OH237098   4.791   5.950   8.172 -0.3208  0.2742 -0.4425
 5180TIP3    H137099   4.878   5.919   8.197  0.5862  0.2111 -3.3148
 5180TIP3    H237100   4.802   6.043   8.155 -1.8956  1.2983  3.2570
 5181TIP3   OH237101   6.095   5.378   0.993 -0.5952 -0.0130  0.3601
 5181TIP3    H137102   6.096   5.285   0.969 -2.2536  0.1199 -0.3385
 5181TIP3    H237103   6.136   5.381   1.079  0.1287 -1.2920  0.0849
 5182TIP3   OH237104   3.329   0.086   0.258  0.0994 -0.4880 -0.2419
 5182TIP3    H137105   3.330   0.145   0.333 -4.3716 -0.1384 -0.1635
 5182TIP3    H237106   3.298   0.002   0.293 -0.3227 -0.8333 -1.3825
 5183TIP3   OH237107   3.206   0.435   2.386 -0.3917 -0.3441 -0.6335
 5183TIP3    H137108   3.268   0.362   2.384 -0.1295 -0.1510  0.1872
 5183TIP3    H237109   3.120   0.393   2.378 -0.3033 -0.8450  0.8568
 5184TIP3   OH237110   5.290   0.859   8.093 -0.1685 -0.7215  0.1873
 5184TIP3    H137111   5.226   0.914   8.048 -0.1811  0.2980  1.3927
 5184TIP3    H237112   5.320   0.798   8.025  0.5407  1.3535 -1.4921
 5185TIP3   OH237113   1.357   3.344   8.221  0.7565  0.2626  0.1369
 5185TIP3    H137114   1.266   3.372   8.229 -0.0103 -1.6306 -1.3525
 5185TIP3    H237115   1.375   3.294   8.301  0.3958  0.3717  0.2866
 5186TIP3   OH237116   1.356   2.220   1.713  0.3744 -0.1631  0.3305
 5186TIP3    H137117   1.421   2.275   1.669  1.3739 -1.0851  0.6160
 5186TIP3    H237118   1.300   2.282   1.760  0.2453  0.7339 -0.9458
 5187TIP3   OH237119   1.844   1.083   2.163  0.4122  0.8288  0.5466
 5187TIP3    H137120   1.766   1.085   2.220  0.4688 -1.3854  0.7797
 5187TIP3    H237121   1.887   1.167   2.180 -0.3679  0.8800  2.6406
 5188TIP3   OH237122   0.171   3.889   7.294  0.4096 -0.3337 -0.2924
 5188TIP3    H137123   0.130   3.973   7.312  0.2310 -0.7034  1.1862
 5188TIP3    H237124   0.158   3.839   7.375 -0.7887 -2.3094 -1.6183
 5189TIP3   OH237125   4.480   1.022   0.415 -0.2297  0.0710  0.2241
 5189TIP3    H137126   4.469   1.105   0.370 -0.7182  0.1914  0.5485
 5189TIP3    H237127   4.458   0.955   0.349 -0.1441  0.2122  0.0533
 5190TIP3   OH237128   1.530   6.507   0.874  0.2150 -0.2419 -0.0969
 5190TIP3    H137129   1.457   6.551   0.918  0.2985 -1.6737  1.5850
 5190TIP3    H237130   1.595   6.576   0.861 -0.7741  0.7137 -0.1510
 5191TIP3   OH237131   3.459   2.986   1.253 -0.4861 -0.5382 -0.0599
 5191TIP3    H137132   3.390   3.034   1.298  1.4335  1.8701  0.4924
 5191TIP3    H237133   3.446   3.008   1.160 -0.2930  0.1137  0.0682
 5192TIP3   OH237134   4.778   2.286   6.802  0.2572  0.1716 -0.3201
 5192TIP3    H137135   4.790   2.298   6.708 -0.1487 -2.3150 -0.7651
 5192TIP3    H237136   4.704   2.343   6.824  0.3373  0.7651 -1.5256
 5193TIP3   OH237137   2.124   1.499   1.412  0.3038  0.2127 -0.4164
 5193TIP3    H137138   2.072   1.467   1.338  0.9636 -0.1271 -0.7453
 5193TIP3    H237139   2.160   1.420   1.452  0.2865  0.4220  0.0162
 5194TIP3   OH237140   0.656   0.511   8.267  0.3471  0.0233 -0.5718
 5194TIP3    H137141   0.714   0.587   8.279  0.1401 -0.0844  1.6386
 5194TIP3    H237142   0.578   0.547   8.226 -0.3147  1.3625  1.6897
 5195TIP3   OH237143   6.729   2.038   0.333 -0.0787 -1.0406  0.3440
 5195TIP3    H137144   6.640   2.073   0.326  0.6163  0.8873  0.5910
 5195TIP3    H237145   6.717   1.943   0.341 -2.0328 -0.9793 -1.1797
 5196TIP3   OH237146   5.746   6.083   8.245 -0.1764  0.0451 -0.2846
 5196TIP3    H137147   5.706   6.104   8.330 -1.4228  0.0598 -0.8542
 5196TIP3    H237148   5.810   6.153   8.230  1.7778 -1.1734  1.6899
 5197TIP3   OH237149   2.501   4.834   0.961 -0.0587  0.0654  0.4895
 5197TIP3    H137150   2.485   4.815   1.053 -0.2696  1.2318  0.7119
 5197TIP3    H237151   2.523   4.927   0.960  2.9242 -0.5327 -0.2580
 5198TIP3   OH237152   4.993   3.254   8.671  0.6119 -0.1945 -0.1709
 5198TIP3    H137153   4.927   3.223   8.609 -0.3813 -0.0129  0.7699
 5198TIP3    H237154   5.070   3.202   8.651 -0.1932 -1.3226 -0.4422
 5199TIP3   OH237155   0.016   3.364   0.139  0.1190 -0.2725  0.1945
 5199TIP3    H137156  -0.009   3.311   0.214 -3.0592 -0.2304 -0.6979
 5199TIP3    H237157  -0.031   3.325   0.065  1.2986  1.0864 -1.3593
 5200TIP3   OH237158   5.115   6.634   1.257 -0.4006  0.3586  0.1073
 5200TIP3    H137159   5.142   6.649   1.166 -0.7372  0.1997 -0.0227
 5200TIP3    H237160   5.044   6.697   1.271 -0.5465  0.1836  0.1636
 5201TIP3   OH237161   5.734   2.506   2.288  0.0569  0.1506 -0.4689
 5201TIP3    H137162   5.760   2.598   2.298  0.4888 -0.0758  0.7221
 5201TIP3    H237163   5.803   2.457   2.334 -0.1328 -0.7824 -1.1481
 5202TIP3   OH237164   6.766   3.611   7.649  0.1485 -0.5443  0.2351
 5202TIP3    H137165   6.702   3.606   7.720  0.7896  0.6710  0.9155
 5202TIP3    H237166   6.725   3.561   7.578 -0.7534 -1.3052  1.2454
 5203TIP3   OH237167   2.796   3.255   0.699 -0.3848 -0.2479  0.3664
 5203TIP3    H137168   2.727   3.217   0.753  0.1303 -0.2657  1.0330
 5203TIP3    H237169   2.821   3.184   0.639 -1.8935  0.1983 -0.8527
 5204TIP3   OH237170   0.481   0.356   0.515 -0.2471 -0.1061 -0.1038
 5204TIP3    H137171   0.410   0.311   0.468 -1.1298  2.7445 -1.7253
 5204TIP3    H237172   0.437   0.412   0.578  0.7283 -0.2132  0.6976
 5205TIP3   OH237173   2.149   2.891   2.320 -0.1820 -0.3671  0.1227
 5205TIP3    H137174   2.093   2.852   2.253  1.0725 -1.4918 -0.3128
 5205TIP3    H237175   2.089   2.912   2.392 -0.9648 -2.9301  0.3022
 5206TIP3   OH237176   1.106   2.725   7.476  0.0422  0.1203 -0.3481
 5206TIP3    H137177   1.070   2.814   7.476  0.8262  0.4480 -0.1445
 5206TIP3    H237178   1.098   2.696   7.385  2.7342  1.6536 -1.1699
 5207TIP3   OH237179   4.369   4.863   1.399 -0.7652  0.2901 -0.3451
 5207TIP3    H137180   4.300   4.883   1.335 -0.3675 -0.8057 -1.1677
 5207TIP3    H237181   4.322   4.831   1.476 -1.2544  1.6397 -0.0510
 5208TIP3   OH237182   0.962   1.930   6.844 -0.8769  0.1305 -0.1279
 5208TIP3    H137183   0.893   1.866   6.826 -1.4071  1.4071 -3.2178
 5208TIP3    H237184   1.042   1.888   6.813 -0.5949 -0.4254  1.2840
 5209TIP3   OH237185   2.087   0.938   7.990 -0.2560  0.4463  0.1010
 5209TIP3    H137186   2.138   0.861   8.013 -1.1849 -1.5740 -3.7623
 5209TIP3    H237187   2.123   0.966   7.905 -1.0561  3.2896  0.6057
 5210TIP3   OH237188   1.697   2.545   0.188 -0.0204  0.4919  0.2675
 5210TIP3    H137189   1.705   2.560   0.094  1.7709 -0.8681  0.1425
 5210TIP3    H237190   1.669   2.454   0.196  0.1566  0.4973  1.0490
 5211TIP3   OH237191   6.386   1.402   1.931  0.1532 -0.8582 -0.3416
 5211TIP3    H137192   6.317   1.439   1.987  1.7970  0.8044  0.7285
 5211TIP3    H237193   6.429   1.479   1.893  2.0408 -1.7804 -0.1862
 5212TIP3   OH237194   3.369   4.152   7.632 -0.4516 -0.1003 -0.7153
 5212TIP3    H137195   3.426   4.124   7.560 -1.1718 -1.6320 -0.7326
 5212TIP3    H237196   3.283   4.115   7.611 -0.4400 -1.5485  1.4256
 5213TIP3   OH237197   3.209   1.776   0.960 -0.2974 -0.0265 -0.3334
 5213TIP3    H137198   3.237   1.735   1.042 -0.8354 -0.3231 -0.2906
 5213TIP3    H237199   3.274   1.750   0.896 -0.1781 -0.2541 -0.1220
 5214TIP3   OH237200   6.642   6.661   8.684  0.0429  0.2380  0.5488
 5214TIP3    H137201   6.678   6.660   8.772  2.2191  1.3105 -0.2478
 5214TIP3    H237202   6.619   6.570   8.666  1.4819 -0.3448  1.5032
 5215TIP3   OH237203   4.036   4.286   1.785 -0.0243 -0.0286 -0.0214
 5215TIP3    H137204   4.112   4.341   1.804  0.8271 -1.6332  1.4985
 5215TIP3    H237205   4.060   4.240   1.704  0.7652 -0.7159  0.5852
 5216TIP3   OH237206   0.558   0.676   7.471  0.1182 -0.1756  0.4057
 5216TIP3    H137207   0.536   0.674   7.564  0.5311 -1.0511  0.4882
 5216TIP3    H237208   0.531   0.590   7.438  1.3152 -0.4145  0.0238
 5217TIP3   OH237209   6.702   2.688   8.411  0.6534  0.3495  0.4044
 5217TIP3    H137210   6.744   2.701   8.495 -2.6170  0.2319  2.2219
 5217TIP3    H237211   6.701   2.594   8.398  1.0940  0.3640  0.2425
 5218TIP3   OH237212   6.096   3.508   8.641  0.0829 -0.1177  0.2499
 5218TIP3    H137213   6.057   3.509   8.729  0.2592  1.6786  0.3333
 5218TIP3    H237214   6.076   3.594   8.605 -0.8829 -1.1637 -1.8973
 5219TIP3   OH237215   4.189   0.117   1.763  0.2686  0.3816 -0.3322
 5219TIP3    H137216   4.140   0.048   1.718 -0.2404  1.1018 -0.9068
 5219TIP3    H237217   4.158   0.114   1.854 -0.7577  0.7374 -0.6564
 5220TIP3   OH237218   1.358   5.812   2.132  1.1192  0.2061  0.2999
 5220TIP3    H137219   1.377   5.875   2.063  2.0516  0.5065  0.8220
 5220TIP3    H237220   1.437   5.811   2.186  0.6190 -0.4541  1.0318
 5221TIP3   OH237221   4.713   2.339   2.115  0.0876  0.2949  0.0899
 5221TIP3    H137222   4.805   2.365   2.116  0.3417 -0.5393 -1.0194
 5221TIP3    H237223   4.697   2.305   2.203  0.7914  0.5689  0.3318
 5222TIP3   OH237224   5.549   3.131   8.556 -1.0182 -0.2588  0.1309
 5222TIP3    H137225   5.520   3.040   8.563 -0.8283 -0.3178  0.1593
 5222TIP3    H237226   5.609   3.131   8.482  0.1369 -0.4650  1.0265
 5223TIP3   OH237227   0.590   5.820   2.340  0.6726 -0.4352 -0.0729
 5223TIP3    H137228   0.675   5.865   2.339  0.7787 -0.6370 -1.0027
 5223TIP3    H237229   0.572   5.806   2.433  0.5697  1.6192  0.2555
 5224TIP3   OH237230   3.430   4.650   0.294  0.3381 -0.6455  0.2934
 5224TIP3    H137231   3.443   4.714   0.364 -0.5633 -0.2797  0.1409
 5224TIP3    H237232   3.484   4.681   0.222  0.7339 -0.6492  0.5843
 5225TIP3   OH237233   0.208   4.908   7.520 -0.3489  0.0695 -0.5302
 5225TIP3    H137234   0.253   4.974   7.572  1.0978 -0.2185 -1.3841
 5225TIP3    H237235   0.145   4.958   7.467 -1.3830  0.4271  0.9753
 5226TIP3   OH237236   4.558   5.028   7.419 -0.2847  0.5701 -0.4091
 5226TIP3    H137237   4.635   5.029   7.362  0.1047 -0.3817  0.0776
 5226TIP3    H237238   4.499   4.965   7.376 -0.1360  0.1184  0.0440
 5227TIP3   OH237239   3.648   6.171   1.192 -0.0092 -1.0194 -0.0007
 5227TIP3    H137240   3.702   6.247   1.167 -0.5623 -0.4414  0.5256
 5227TIP3    H237241   3.654   6.112   1.117  0.3367 -0.4020 -0.4741
 5228TIP3   OH237242   2.289   1.316   2.151  0.2940  0.2266  0.3248
 5228TIP3    H137243   2.307   1.378   2.221  0.3953  0.2999  0.2347
 5228TIP3    H237244   2.333   1.352   2.075  1.8522 -0.8487  0.6699
 5229TIP3   OH237245   6.012   2.577   0.420  0.1543 -0.1631  0.5092
 5229TIP3    H137246   5.930   2.549   0.462  0.8462 -1.0831  1.2916
 5229TIP3    H237247   6.054   2.495   0.394 -0.2601  0.3588 -2.1020
 5230TIP3   OH237248   0.957   6.121   8.251 -0.2708 -0.3106 -0.7922
 5230TIP3    H137249   0.878   6.151   8.206  0.1246  2.5718  0.2815
 5230TIP3    H237250   0.924   6.070   8.325 -1.0196 -1.1602 -1.6808
 5231TIP3   OH237251   6.707   3.068   7.344 -0.4901  0.3896 -0.0308
 5231TIP3    H137252   6.721   3.031   7.257  0.3725 -2.4897  1.2387
 5231TIP3    H237253   6.612   3.068   7.355 -0.5292 -1.3420 -0.1660
 5232TIP3   OH237254   3.601   3.430   6.639 -0.1249 -0.4611 -0.0515
 5232TIP3    H137255   3.670   3.482   6.680  1.1583 -2.0910 -0.0317
 5232TIP3    H237256   3.524   3.488   6.638  0.9020  0.9887  1.0152
 5233TIP3   OH237257   5.348   4.703   7.993 -0.0378  0.0296 -0.4582
 5233TIP3    H137258   5.414   4.647   7.953 -0.4816 -0.3679 -0.6481
 5233TIP3    H237259   5.345   4.781   7.936  0.8214  0.4066  0.0027
 5234TIP3   OH237260   1.972   6.531   1.467 -0.0042  0.1974 -0.8956
 5234TIP3    H137261   1.951   6.459   1.406 -2.1140  1.7128 -2.0862
 5234TIP3    H237262   2.058   6.560   1.439  0.5578 -1.3443 -0.8947
 5235TIP3   OH237263   2.043   6.326   8.160  0.2062 -0.0128 -0.2105
 5235TIP3    H137264   2.100   6.346   8.086  1.4507 -0.3718  0.6106
 5235TIP3    H237265   2.104   6.303   8.231 -0.9692 -0.3543  0.7145
 5236TIP3   OH237266   0.130   2.272   2.904  0.0376  0.1725 -0.0174
 5236TIP3    H137267   0.186   2.239   2.974 -1.6918 -2.0004  0.4909
 5236TIP3    H237268   0.157   2.362   2.891  1.5292  0.1417  2.3041
 5237TIP3   OH237269   3.281   6.666   8.697 -0.4361 -0.5409  0.3886
 5237TIP3    H137270   3.197   6.700   8.727  0.2117  0.9671  0.6010
 5237TIP3    H237271   3.277   6.672   8.602 -0.0211  1.0146  0.4412
 5238TIP3   OH237272   5.622   2.153   0.093  0.0574 -0.2656 -0.4870
 5238TIP3    H137273   5.549   2.169   0.033 -0.0192 -1.9559 -0.9062
 5238TIP3    H237274   5.642   2.238   0.131 -2.3854  0.1765 -0.0614
 5239TIP3   OH237275   4.543   1.952   7.806  0.2129 -0.6191 -0.0827
 5239TIP3    H137276   4.619   1.918   7.760  1.7620 -0.0942  1.9424
 5239TIP3    H237277   4.579   2.008   7.874 -2.1075  1.7782 -0.6779
 5240TIP3   OH237278   3.328   0.473   0.607 -0.5514  0.3688  0.1190
 5240TIP3    H137279   3.233   0.475   0.617 -0.4956  0.2815  0.7627
 5240TIP3    H237280   3.346   0.397   0.553 -0.7351 -0.7855  1.6182
 5241TIP3   OH237281   4.552   6.620   1.144 -0.0624  0.1665  0.3164
 5241TIP3    H137282   4.510   6.547   1.098 -0.0823 -1.0083  2.1326
 5241TIP3    H237283   4.560   6.591   1.235  2.3688  1.3688  0.5768
 5242TIP3   OH237284   4.298   2.970   0.836  0.3639 -0.0509 -0.0105
 5242TIP3    H137285   4.332   3.017   0.912  0.5514 -0.7797  0.3615
 5242TIP3    H237286   4.325   2.879   0.849  2.7288  0.2256 -2.2492
 5243TIP3   OH237287   3.653   3.466   0.633  0.1962 -0.1418 -0.9457
 5243TIP3    H137288   3.591   3.523   0.588 -2.1849 -1.6381  0.2510
 5243TIP3    H237289   3.620   3.378   0.617  1.7891 -0.9685  0.1328
 5244TIP3   OH237290   4.842   2.224   8.541  0.5158  0.1751 -0.2564
 5244TIP3    H137291   4.884   2.306   8.515  0.5760 -0.2141 -1.4299
 5244TIP3    H237292   4.914   2.165   8.563  0.4672  0.9368  2.3880
 5245TIP3   OH237293   0.870   5.215   2.378  0.6993  0.1627 -0.8100
 5245TIP3    H137294   0.787   5.253   2.407  0.9296 -0.1494  0.2958
 5245TIP3    H237295   0.860   5.121   2.390  0.7229 -0.0058 -1.9943
 5246TIP3   OH237296   5.452   2.452   8.774  0.2554  0.0313  0.4709
 5246TIP3    H137297   5.423   2.516   8.710  1.0158  0.0957  0.1777
 5246TIP3    H237298   5.371   2.415   8.810 -0.1805  0.5757  0.0673
 5247TIP3   OH237299   0.977   5.510   8.821  0.7208  0.0144 -0.5144
 5247TIP3    H137300   0.927   5.547   8.894 -0.6550 -0.9827 -0.9085
 5247TIP3    H237301   0.913   5.460   8.771  2.2688 -1.9844 -0.6230
 5248TIP3   OH237302   3.403   5.869   7.160  0.2793  0.7922  0.0363
 5248TIP3    H137303   3.484   5.907   7.193  0.7002 -0.0981  0.0626
 5248TIP3    H237304   3.335   5.900   7.219  1.0043 -0.7412  1.7799
 5249TIP3   OH237305   6.766   2.175   1.735 -0.1278  0.2853 -0.5590
 5249TIP3    H137306   6.860   2.190   1.743 -0.2141  0.4026  0.3539
 5249TIP3    H237307   6.750   2.093   1.783 -0.4611  0.1528 -0.8889
 5250TIP3   OH237308   1.783   1.252   0.563  0.0708 -0.0766  0.2148
 5250TIP3    H137309   1.725   1.282   0.493 -0.3796 -1.6627 -0.1222
 5250TIP3    H237310   1.852   1.204   0.518  2.8339  3.2963  0.3998
 5251TIP3   OH237311   3.499   0.297   0.969  0.5539  0.2079 -0.2248
 5251TIP3    H137312   3.522   0.389   0.950 -1.8203  1.3696  2.0100
 5251TIP3    H237313   3.575   0.263   1.017  0.8938  1.4530  0.1614
 5252TIP3   OH237314   0.636   4.861   1.546  0.2120 -0.8113 -0.2369
 5252TIP3    H137315   0.714   4.916   1.545 -0.5437  0.3075  0.4750
 5252TIP3    H237316   0.574   4.904   1.487 -0.6898 -0.3785  0.9547
 5253TIP3   OH237317   2.276   0.195   1.786  0.2903 -0.2844  0.3425
 5253TIP3    H137318   2.244   0.146   1.862 -1.1623 -0.2974 -0.2302
 5253TIP3    H237319   2.233   0.153   1.712 -0.1408  1.1714 -0.2577
 5254TIP3   OH237320   1.563   0.537   1.762 -0.2327  0.0095  0.6305
 5254TIP3    H137321   1.632   0.526   1.828  1.0979  2.6322 -0.1468
 5254TIP3    H237322   1.598   0.494   1.684  1.4314  2.7174 -0.2425
 5255TIP3   OH237323   5.616   4.445   0.938  0.1325  0.6163 -0.3483
 5255TIP3    H137324   5.595   4.443   0.845 -3.4190  1.3681  0.2916
 5255TIP3    H237325   5.654   4.359   0.956 -0.0368  0.0857 -2.3034
 5256TIP3   OH237326   0.507   1.607   1.718 -0.0983 -0.3351  0.2251
 5256TIP3    H137327   0.444   1.650   1.775  1.0555 -0.5281  1.6943
 5256TIP3    H237328   0.566   1.561   1.777 -0.1601 -2.3959 -1.1989
 5257TIP3   OH237329   5.547   2.807   2.738 -0.2664  0.0383  0.7331
 5257TIP3    H137330   5.564   2.871   2.807 -1.8193  0.1143  1.0960
 5257TIP3    H237331   5.566   2.853   2.656 -0.3917  0.6312  1.0321
 5258TIP3   OH237332   4.080   1.344   8.608  0.4219 -0.0469  0.2538
 5258TIP3    H137333   4.009   1.356   8.545  0.1927  4.2797  1.0181
 5258TIP3    H237334   4.070   1.254   8.639 -2.4882 -0.7450 -2.2367
 5259TIP3   OH237335   2.213   3.210   1.906  0.0214  0.0915  0.0242
 5259TIP3    H137336   2.206   3.261   1.826 -2.5016  2.4660  1.5874
 5259TIP3    H237337   2.251   3.270   1.970 -1.3847 -0.4902  1.4862
 5260TIP3   OH237338   3.535   0.601   1.058  0.7614 -0.1727  0.3157
 5260TIP3    H137339   3.490   0.612   0.974 -0.4950  0.5221  1.0487
 5260TIP3    H237340   3.585   0.681   1.069 -0.6180  0.6246  1.0977
 5261TIP3   OH237341   6.488   1.154   2.256  0.0315 -0.5325  0.1647
 5261TIP3    H137342   6.492   1.231   2.313  0.4594 -1.3825  1.3120
 5261TIP3    H237343   6.547   1.090   2.296 -2.0469 -2.3215  0.5889
 5262TIP3   OH237344   4.487   1.141   2.822 -0.3099  0.0378 -0.2294
 5262TIP3    H137345   4.462   1.083   2.750 -0.2025  1.0897 -1.1313
 5262TIP3    H237346   4.570   1.179   2.795  0.4404 -0.5826  1.0795
 5263TIP3   OH237347   5.087   1.462   7.007 -0.1854  0.1523  0.2451
 5263TIP3    H137348   5.176   1.457   6.972 -0.9171 -1.5362 -1.5887
 5263TIP3    H237349   5.046   1.533   6.958 -0.0244  0.5474  0.6775
 5264TIP3   OH237350   1.803   0.544   2.414  0.5291  0.1577 -0.6998
 5264TIP3    H137351   1.884   0.578   2.453  0.2168  0.1605 -0.0526
 5264TIP3    H237352   1.774   0.615   2.356  0.1592  0.7989  0.2488
 5265TIP3   OH237353   1.481   6.722   7.398  0.0572  0.0070 -0.3867
 5265TIP3    H137354   1.441   6.805   7.425  1.1730  1.0013 -1.6788
 5265TIP3    H237355   1.573   6.731   7.423  0.2182 -0.7900 -0.6688
 5266TIP3   OH237356   6.197   2.927   7.589 -0.1159  0.2940 -0.1105
 5266TIP3    H137357   6.272   2.947   7.645  0.1952  1.8238 -1.0023
 5266TIP3    H237358   6.199   2.995   7.521 -1.2514 -0.7044 -1.2049
 5267TIP3   OH237359   0.781   5.382   7.199 -0.0785 -0.2412 -0.2628
 5267TIP3    H137360   0.719   5.315   7.170  1.6513 -1.5060 -1.2585
 5267TIP3    H237361   0.764   5.457   7.142 -2.1362  0.2898  0.9514
 5268TIP3   OH237362   3.327   6.096   0.763 -0.4082 -0.0530 -0.2280
 5268TIP3    H137363   3.333   6.027   0.830  1.1309  0.0186 -0.2599
 5268TIP3    H237364   3.289   6.171   0.809 -1.0581 -0.5752  0.0926
 5269TIP3   OH237365   3.740   2.464   7.815  0.3763  0.6617  0.3920
 5269TIP3    H137366   3.813   2.408   7.792  0.7651 -0.3724  3.7672
 5269TIP3    H237367   3.778   2.552   7.820  1.2361  0.2476  1.3819
 5270TIP3   OH237368   3.968   1.275   2.360  0.1766  0.2385  0.1099
 5270TIP3    H137369   3.978   1.193   2.409  0.1633  0.6250  0.7695
 5270TIP3    H237370   4.056   1.298   2.334  0.1732 -0.0196 -0.1372
 5271TIP3   OH237371   0.108   6.408   7.294 -0.5132  0.5550 -0.3565
 5271TIP3    H137372   0.184   6.450   7.253  0.2144 -1.0134 -0.7088
 5271TIP3    H237373   0.047   6.393   7.222  0.0887 -0.7647 -0.6185
 5272TIP3   OH237374   2.362   2.929   7.724  0.5510 -0.1558  0.5792
 5272TIP3    H137375   2.347   2.874   7.801 -0.6501 -0.6673 -0.0055
 5272TIP3    H237376   2.362   2.868   7.650  0.5641  0.4606  0.0615
 5273TIP3   OH237377   1.535   2.546   2.094 -0.6654  0.1007 -0.2243
 5273TIP3    H137378   1.588   2.511   2.166  1.2179 -0.9771 -2.0213
 5273TIP3    H237379   1.480   2.613   2.135  0.6610 -0.1215  2.1118
 5274TIP3   OH237380   6.305   4.411   0.199  0.0680 -0.1208 -0.0977
 5274TIP3    H137381   6.327   4.382   0.287  0.7669  0.3798 -0.0985
 5274TIP3    H237382   6.354   4.493   0.188 -1.4751  0.8138 -0.2673
 5275TIP3   OH237383   2.991   4.070   7.940  0.1825  0.1661  0.0787
 5275TIP3    H137384   2.921   4.009   7.917  0.6563 -1.0208  1.6072
 5275TIP3    H237385   3.071   4.025   7.913  0.5187  0.2482  0.9090
 5276TIP3   OH237386   2.638   4.089   2.380  0.5461  0.0035  0.2350
 5276TIP3    H137387   2.727   4.124   2.368  0.8086  0.2631  2.4425
 5276TIP3    H237388   2.591   4.159   2.425  0.3499 -1.4670  2.4816
 5277TIP3   OH237389   4.146   1.734   2.562 -0.3691  0.6088 -0.2162
 5277TIP3    H137390   4.185   1.812   2.602 -2.2982  1.7982 -0.5132
 5277TIP3    H237391   4.094   1.695   2.632 -1.2338  0.9086 -0.6795
 5278TIP3   OH237392   3.606   1.873   1.957 -0.8065 -0.3530 -0.1695
 5278TIP3    H137393   3.534   1.868   1.895 -1.1787  2.3289 -0.0864
 5278TIP3    H237394   3.568   1.910   2.037  0.1691 -1.3458  0.8122
 5279TIP3   OH237395   0.612   4.300   6.709 -0.2133 -0.0107 -0.0015
 5279TIP3    H137396   0.542   4.261   6.762 -2.0797  1.6933 -1.1070
 5279TIP3    H237397   0.616   4.245   6.631 -0.8557  0.3245 -0.2756
 5280TIP3   OH237398   0.295   5.139   1.094  0.1628 -0.0118  0.6046
 5280TIP3    H137399   0.265   5.057   1.133 -0.5920  0.5305  1.1867
 5280TIP3    H237400   0.365   5.169   1.152  1.4226 -0.9213 -0.3708
 5281TIP3   OH237401   1.213   3.834   8.497  0.0684  0.0499  0.5755
 5281TIP3    H137402   1.129   3.845   8.542 -0.5264  1.1418 -0.7191
 5281TIP3    H237403   1.273   3.893   8.544 -0.0082 -0.3214  1.1581
 5282TIP3   OH237404   3.048   6.359   2.008 -0.1697 -0.3391 -0.4594
 5282TIP3    H137405   3.070   6.296   1.940 -1.8091 -0.5648 -0.8174
 5282TIP3    H237406   3.077   6.318   2.090 -2.6894 -2.4003 -0.4707
 5283TIP3   OH237407   5.741   0.966   0.524  0.5104  0.1899 -0.4708
 5283TIP3    H137408   5.669   0.904   0.534  0.9747 -0.0313  2.2099
 5283TIP3    H237409   5.806   0.938   0.588  2.3001  1.3627 -1.6720
 5284TIP3   OH237410   6.028   1.552   7.018 -0.1832 -0.5753 -0.4612
 5284TIP3    H137411   6.040   1.646   7.009  1.3462 -0.5799  1.0050
 5284TIP3    H237412   6.021   1.519   6.928  0.3612  0.8044 -1.0289
 5285TIP3   OH237413   4.111   5.846   1.958  0.1088 -0.2094 -0.0756
 5285TIP3    H137414   4.175   5.886   1.899 -1.8103  2.2291 -0.6309
 5285TIP3    H237415   4.104   5.907   2.031  0.3474 -1.7951  1.3529
 5286TIP3   OH237416   6.282   2.693   8.879 -0.0436 -0.0369 -0.3460
 5286TIP3    H137417   6.225   2.622   8.909 -0.0972 -0.3578 -1.1709
 5286TIP3    H237418   6.352   2.697   8.944  0.4796 -1.5005 -0.7791
 5287TIP3   OH237419   5.816   3.041   7.484 -0.1829  0.5872  0.1058
 5287TIP3    H137420   5.856   3.098   7.418  0.0612 -0.2930 -0.5258
 5287TIP3    H237421   5.859   2.956   7.472 -0.8163  0.1602  0.7679
 5288TIP3   OH237422   3.296   1.750   0.139 -0.3141  0.3200  0.1451
 5288TIP3    H137423   3.271   1.680   0.079  0.3357  1.3798 -1.4280
 5288TIP3    H237424   3.343   1.705   0.210 -0.3622 -0.8759 -0.5513
 5289TIP3   OH237425   5.321   2.547   7.656 -0.4698 -0.7229 -0.2001
 5289TIP3    H137426   5.308   2.530   7.749 -0.9490 -3.1651 -0.6549
 5289TIP3    H237427   5.373   2.473   7.625  1.6790  1.1989 -1.4651
 5290TIP3   OH237428   2.612   4.385   2.269  0.1644  0.6330  0.1673
 5290TIP3    H137429   2.545   4.327   2.307  0.5328  0.7070  0.9304
 5290TIP3    H237430   2.694   4.358   2.311  0.3929  1.4817  0.2816
 5291TIP3   OH237431   0.751   1.576   7.061  0.1470 -0.1165  0.1668
 5291TIP3    H137432   0.681   1.520   7.026  1.6133 -1.9514 -0.0025
 5291TIP3    H237433   0.767   1.641   6.992 -1.1644  0.1520  0.0931
 5292TIP3   OH237434   1.759   3.360   0.275  0.6037  0.0967  0.1594
 5292TIP3    H137435   1.728   3.435   0.326  2.2438 -0.6869  2.4434
 5292TIP3    H237436   1.765   3.394   0.186 -1.4341  1.8228  0.5675
 5293TIP3   OH237437   6.248   5.604   1.938  0.2901  0.4118  0.1239
 5293TIP3    H137438   6.256   5.673   2.005  1.5989 -0.4527  0.8977
 5293TIP3    H237439   6.250   5.523   1.988 -1.2669 -0.2179 -0.7840
 5294TIP3   OH237440   2.800   6.196   8.118  0.2790 -0.1216  0.2765
 5294TIP3    H137441   2.765   6.108   8.116  0.5977 -0.2406 -0.2625
 5294TIP3    H237442   2.790   6.229   8.028 -0.0089  0.4568  0.5136
 5295TIP3   OH237443   1.739   0.001   1.921 -0.0416 -0.3873 -0.4452
 5295TIP3    H137444   1.738  -0.076   1.977 -0.8099 -0.3819 -0.4383
 5295TIP3    H237445   1.705  -0.030   1.837 -0.1559 -0.1063 -0.5047
 5296TIP3   OH237446   0.979   0.845   1.708 -0.0564 -0.1116 -0.5369
 5296TIP3    H137447   1.073   0.830   1.706 -0.1240 -0.4965 -1.1048
 5296TIP3    H237448   0.966   0.925   1.656 -0.0701 -0.2434 -0.7397
 5297TIP3   OH237449   0.044   1.886   8.295  0.3517 -0.0806 -0.2897
 5297TIP3    H137450  -0.028   1.827   8.275 -0.0457  0.7115 -1.2564
 5297TIP3    H237451   0.053   1.882   8.390  0.9356 -2.3813 -0.3617
 5298TIP3   OH237452   3.842   5.965   0.747  0.2656 -0.1878  0.4763
 5298TIP3    H137453   3.895   5.918   0.812  1.9445  2.4117  1.1372
 5298TIP3    H237454   3.905   5.987   0.678 -0.8017 -0.1482 -0.5023
 5299TIP3   OH237455   5.798   1.550   8.119  0.5081 -0.6599 -0.2802
 5299TIP3    H137456   5.741   1.573   8.192  0.5798 -1.0327 -0.1058
 5299TIP3    H237457   5.825   1.634   8.082  0.7334 -0.4631  0.3220
 5300TIP3   OH237458   2.781   2.200   0.267 -0.6100  0.4450  0.5294
 5300TIP3    H137459   2.797   2.111   0.237 -0.1884  0.1463  1.5910
 5300TIP3    H237460   2.860   2.249   0.242 -1.0718  0.6731 -0.5486
 5301TIP3   OH237461   3.326   3.500   0.099  0.5819  0.5680 -0.0139
 5301TIP3    H137462   3.390   3.510   0.029 -0.8399  0.6061 -1.3523
 5301TIP3    H237463   3.299   3.590   0.119  1.5401  0.6239  1.1673
 5302TIP3   OH237464   0.509   5.234   1.256 -0.0523  0.5155  0.0043
 5302TIP3    H137465   0.502   5.310   1.313  0.9260  0.5784  0.0611
 5302TIP3    H237466   0.601   5.233   1.228 -0.3607  0.1209 -1.0586
 5303TIP3   OH237467   4.880   2.722   6.668 -0.2733 -0.2407 -0.5647
 5303TIP3    H137468   4.788   2.741   6.685 -0.5387  0.1043 -2.1678
 5303TIP3    H237469   4.883   2.627   6.652 -0.5367 -0.1116 -1.4408
 5304TIP3   OH237470   1.106   1.649   6.694 -0.1059 -0.0051  0.1730
 5304TIP3    H137471   1.125   1.663   6.786 -2.1515 -0.8513  0.7812
 5304TIP3    H237472   1.049   1.572   6.693  0.4026 -0.4105 -1.8638
 5305TIP3   OH237473   0.507   1.730   2.486  0.7250 -0.1306  0.5483
 5305TIP3    H137474   0.464   1.791   2.546  0.1577 -0.9052  0.9332
 5305TIP3    H237475   0.537   1.658   2.542  1.9783  0.0854  0.2000
 5306TIP3   OH237476   6.378   2.246   0.731 -0.1190 -0.0554  0.0375
 5306TIP3    H137477   6.457   2.272   0.684 -0.5569 -0.5521 -1.0023
 5306TIP3    H237478   6.358   2.320   0.788 -0.3564  1.1984 -1.5905
 5307TIP3   OH237479   0.174   5.351   8.508 -0.6163  0.1797 -0.2426
 5307TIP3    H137480   0.169   5.297   8.587  0.1001 -0.1751 -0.4397
 5307TIP3    H237481   0.087   5.391   8.501 -1.1173 -0.8651 -0.0495
 5308TIP3   OH237482   4.836   2.596   1.868 -0.3617  0.3922 -0.3649
 5308TIP3    H137483   4.859   2.686   1.844 -0.4023  0.3422 -0.5959
 5308TIP3    H237484   4.912   2.564   1.916 -0.2771  0.4920 -0.4322
 5309TIP3   OH237485   1.812   4.419   2.053  0.7228 -0.1265 -0.1523
 5309TIP3    H137486   1.845   4.371   1.976 -1.1500 -0.5762 -0.7323
 5309TIP3    H237487   1.824   4.359   2.126  1.2926 -0.2146 -0.3108
 5310TIP3   OH237488   1.448   0.377   8.023  0.0778  1.0170 -0.4141
 5310TIP3    H137489   1.498   0.307   7.981  0.7648  0.7000  0.8607
 5310TIP3    H237490   1.476   0.374   8.115 -1.2194  1.7974  0.0349
 5311TIP3   OH237491   4.562   2.582   2.012  0.2949  0.0588  0.6824
 5311TIP3    H137492   4.496   2.523   2.049  0.2319 -0.1691  0.2157
 5311TIP3    H237493   4.641   2.529   2.006 -0.1552 -0.4920 -1.1991
 5312TIP3   OH237494   5.155   6.646   8.434 -0.1779 -0.0599  0.3389
 5312TIP3    H137495   5.245   6.657   8.465 -0.7494  2.5544  1.3503
 5312TIP3    H237496   5.119   6.735   8.434 -1.5915 -0.4040 -3.8395
 5313TIP3   OH237497   0.763   1.023   8.888  0.1481  0.3451 -0.1914
 5313TIP3    H137498   0.731   1.011   8.798  0.9461 -2.5058 -0.1869
 5313TIP3    H237499   0.852   1.055   8.877  1.1088 -2.1984 -0.6063
 5314TIP3   OH237500   5.881   4.572   1.027 -0.4039  0.1853  0.1869
 5314TIP3    H137501   5.867   4.543   1.117  0.1901  1.8446  0.8592
 5314TIP3    H237502   5.800   4.615   1.002 -0.1705  0.7383  0.3610
 5315TIP3   OH237503   5.017   0.486   1.942  0.5042  0.0654  0.1891
 5315TIP3    H137504   5.085   0.503   1.876  1.3418  2.1529  1.5065
 5315TIP3    H237505   5.017   0.564   1.997 -0.7965 -1.2442  2.1452
 5316TIP3   OH237506   3.444   6.271   0.375  0.4990  0.1639  0.0917
 5316TIP3    H137507   3.487   6.293   0.292 -0.0954 -0.6644 -0.4435
 5316TIP3    H237508   3.355   6.247   0.350  0.6606 -1.2927  0.8226
 5317TIP3   OH237509   4.953   5.099   8.547  0.2586 -0.5652 -0.3120
 5317TIP3    H137510   4.956   5.195   8.542  1.2883 -0.5326  0.6477
 5317TIP3    H237511   5.022   5.069   8.488  2.1314 -0.5860  1.7626
 5318TIP3   OH237512   5.814   5.197   1.696 -0.3457 -0.4285  0.3208
 5318TIP3    H137513   5.720   5.196   1.676 -0.5888  3.5530  0.5943
 5318TIP3    H237514   5.854   5.152   1.622 -2.3239 -0.0290 -1.0742
 5319TIP3   OH237515   1.059   3.970   2.689 -0.0081 -0.5265  0.6769
 5319TIP3    H137516   0.987   4.011   2.640  0.8502 -1.4395 -1.5004
 5319TIP3    H237517   1.097   4.042   2.740 -0.8310  0.5604 -0.1798
 5320TIP3   OH237518   4.743   0.634   0.398 -0.1435 -0.0519  0.6697
 5320TIP3    H137519   4.727   0.634   0.303  2.2410 -2.4374  0.1478
 5320TIP3    H237520   4.737   0.726   0.423  0.4397  0.8216 -2.0690
 5321TIP3   OH237521   0.356   1.511   1.413  0.4050 -0.2099  0.0385
 5321TIP3    H137522   0.380   1.463   1.492  1.0120  0.0074 -0.0079
 5321TIP3    H237523   0.422   1.486   1.348  1.1468  1.1850  0.2119
 5322TIP3   OH237524   4.010   3.575   1.024  0.1375 -0.0780 -0.3448
 5322TIP3    H137525   3.977   3.537   0.942 -0.4532  0.4760 -0.3744
 5322TIP3    H237526   4.081   3.632   0.997 -1.3891  1.7387 -0.7414
 5323TIP3   OH237527   3.720   6.430   8.320 -0.1619  0.1208 -0.0284
 5323TIP3    H137528   3.661   6.471   8.384 -1.3211 -0.4157 -0.7232
 5323TIP3    H237529   3.744   6.347   8.360 -1.8394 -0.7667 -0.7299
 5324TIP3   OH237530   3.783   0.936   3.343 -0.2150  0.0788  0.3112
 5324TIP3    H137531   3.758   0.865   3.283 -2.3994  0.3278  0.8370
 5324TIP3    H237532   3.835   0.995   3.289  0.8096 -1.3914 -0.4040
 5325TIP3   OH237533   4.154   3.843   0.011  0.2220  0.4435  0.0319
 5325TIP3    H137534   4.159   3.920   0.067  0.9780  0.6224 -0.2658
 5325TIP3    H237535   4.067   3.807   0.027  0.4755  0.3960  1.4196
 5326TIP3   OH237536   5.931   2.331   2.430  0.0547 -0.3753 -0.4203
 5326TIP3    H137537   5.996   2.276   2.386  0.2725  0.4956 -1.2276
 5326TIP3    H237538   5.983   2.395   2.479 -0.1016 -2.5720  2.9593
 5327TIP3   OH237539   5.029   2.631   7.804 -0.9632  0.3726  0.3574
 5327TIP3    H137540   5.058   2.571   7.872 -0.3500  1.0750  0.7257
 5327TIP3    H237541   5.040   2.582   7.722  0.0726  0.1768  0.6004
 5328TIP3   OH237542   5.102   0.224   0.852  0.5017 -0.5552  0.0754
 5328TIP3    H137543   5.080   0.242   0.943  0.1400  0.9702 -0.2925
 5328TIP3    H237544   5.198   0.231   0.849  0.4336  0.5048  0.1251
 5329TIP3   OH237545   1.393   5.868   7.258  0.1437 -0.4289  0.5660
 5329TIP3    H137546   1.407   5.866   7.163 -0.9165  0.8808  0.3500
 5329TIP3    H237547   1.307   5.829   7.271  0.4687 -0.9963  1.0358
 5330TIP3   OH237548   3.171   2.627   0.810  0.0921  0.0362 -0.1648
 5330TIP3    H137549   3.247   2.633   0.751  0.9000  1.1640  0.9465
 5330TIP3    H237550   3.209   2.619   0.897 -1.0325  1.3353  0.4898
 5331TIP3   OH237551   3.601   1.635   2.366 -0.1468  0.5240 -0.8364
 5331TIP3    H137552   3.583   1.553   2.320  0.0918  0.1986 -0.3630
 5331TIP3    H237553   3.520   1.686   2.357 -0.8338 -0.3580  0.1073
 5332TIP3   OH237554   2.568   0.002   0.646  0.0818 -0.0124 -0.0050
 5332TIP3    H137555   2.513   0.076   0.671 -0.2255 -0.3003  0.1774
 5332TIP3    H237556   2.517  -0.045   0.579 -0.5223 -1.0568  1.1450
 5333TIP3   OH237557   3.683   2.800   1.897  0.1584  0.1103 -0.0072
 5333TIP3    H137558   3.590   2.820   1.884 -0.6858 -2.4503  1.3955
 5333TIP3    H237559   3.685   2.754   1.981  2.7165  0.0276 -0.0594
 5334TIP3   OH237560   4.973   2.693   2.312 -0.2218 -0.1565  0.0022
 5334TIP3    H137561   5.009   2.753   2.377 -0.8469 -2.0093  2.2030
 5334TIP3    H237562   4.881   2.683   2.337 -0.4530 -1.0179 -1.0995
 5335TIP3   OH237563   6.338   4.585   1.910 -0.2609  0.0653 -0.8282
 5335TIP3    H137564   6.257   4.559   1.954  0.2009  0.4489  0.2910
 5335TIP3    H237565   6.309   4.628   1.830 -1.2433  1.5375  0.2576
 5336TIP3   OH237566   1.740   1.074   7.350  0.5391  0.5607  0.2861
 5336TIP3    H137567   1.798   1.144   7.321  0.2651  0.2522 -1.0599
 5336TIP3    H237568   1.719   1.025   7.271  0.9682 -1.2450  1.2257
 5337TIP3   OH237569   4.896   0.799   8.311 -0.3420 -0.8832 -0.0314
 5337TIP3    H137570   4.931   0.780   8.224  0.8782  1.9781 -0.2844
 5337TIP3    H237571   4.874   0.714   8.348  0.2300 -2.2620 -2.6692
 5338TIP3   OH237572   2.560   3.106   0.142  0.5948  0.2195  0.9004
 5338TIP3    H137573   2.642   3.082   0.099  0.5119  0.2923  0.6972
 5338TIP3    H237574   2.522   3.023   0.171  0.1563  0.0648 -0.0765
 5339TIP3   OH237575   4.237   1.418   0.457  0.6004  0.1048 -0.3077
 5339TIP3    H137576   4.174   1.395   0.526 -0.1223  0.3088 -0.8839
 5339TIP3    H237577   4.183   1.448   0.384  1.0989 -3.0942 -2.1947
 5340TIP3   OH237578   0.474   0.706   0.626 -0.0517 -0.5133 -0.0190
 5340TIP3    H137579   0.423   0.632   0.660 -0.2684  0.1817  1.2176
 5340TIP3    H237580   0.559   0.698   0.669 -0.3010  0.3255  0.6720
 5341TIP3   OH237581   3.214   1.132   1.866  0.5961  0.1678 -0.5199
 5341TIP3    H137582   3.169   1.054   1.899 -0.8479  0.6363 -1.2981
 5341TIP3    H237583   3.304   1.122   1.898  0.0578 -0.9925  0.7806
 5342TIP3   OH237584   3.783   3.629   7.706  0.2203 -0.0814 -0.5314
 5342TIP3    H137585   3.834   3.568   7.654 -0.0584 -0.9307  0.1671
 5342TIP3    H237586   3.841   3.654   7.778  0.6303  1.1396 -1.2654
 5343TIP3   OH237587   4.358   6.604   0.097  0.9491  0.2322  0.0470
 5343TIP3    H137588   4.272   6.565   0.085  1.0823 -1.6896  3.6884
 5343TIP3    H237589   4.420   6.538   0.065  1.0800  0.0412  0.6694
 5344TIP3   OH237590   6.571   1.684   0.398  0.4055  0.3248 -0.1488
 5344TIP3    H137591   6.531   1.762   0.437  0.0406  0.5346 -0.9124
 5344TIP3    H237592   6.497   1.633   0.365  0.6292 -0.4633  0.5445
 5345TIP3   OH237593   2.371   4.327   0.227 -0.1116  0.4620  0.2737
 5345TIP3    H137594   2.392   4.235   0.246 -0.1102  0.6356  1.1717
 5345TIP3    H237595   2.349   4.328   0.134  1.0976 -0.2328 -0.0446
 5346TIP3   OH237596   0.769   2.111   8.758  0.4697  0.5568  0.3505
 5346TIP3    H137597   0.801   2.042   8.700 -0.3846 -0.4703  1.0471
 5346TIP3    H237598   0.840   2.175   8.762  1.4561 -0.4821  0.0049
 5347TIP3   OH237599   6.293   1.160   7.398 -0.9025 -0.7132  0.1366
 5347TIP3    H137600   6.284   1.104   7.322 -2.5980  0.2285 -0.4050
 5347TIP3    H237601   6.203   1.181   7.424 -0.4140 -1.3088  2.6465
 5348TIP3   OH237602   0.719   2.997   8.568 -0.6126  0.3352  0.3711
 5348TIP3    H137603   0.713   3.043   8.485  0.4439 -0.3700 -0.1177
 5348TIP3    H237604   0.665   3.049   8.628 -1.2604  0.9412 -0.7005
 5349TIP3   OH237605   3.817   1.335   8.469  0.0792  0.2364 -0.8878
 5349TIP3    H137606   3.838   1.242   8.455  0.3447 -0.0760  1.1450
 5349TIP3    H237607   3.733   1.334   8.514  0.4700  0.9117 -0.1105
 5350TIP3   OH237608   6.772   4.325   8.234 -0.2863 -0.0157 -0.8533
 5350TIP3    H137609   6.769   4.384   8.158  1.2092  0.7193 -0.3851
 5350TIP3    H237610   6.818   4.247   8.201 -3.1734 -1.4569 -1.7617
 5351TIP3   OH237611   4.496   3.061   8.494 -0.7166 -0.0252  0.3771
 5351TIP3    H137612   4.536   3.147   8.495  1.2246 -0.7280 -2.8133
 5351TIP3    H237613   4.531   3.016   8.571  2.0009  0.5580 -0.4300
 5352TIP3   OH237614   3.784   6.013   2.853 -0.3441  0.2232 -0.2943
 5352TIP3    H137615   3.817   5.924   2.867 -0.6351 -0.1754 -1.9107
 5352TIP3    H237616   3.699   6.001   2.812 -0.1422  1.2340 -1.0675
 5353TIP3   OH237617   6.379   3.937   0.321  0.3985 -0.7276 -0.6163
 5353TIP3    H137618   6.437   3.863   0.305 -1.7549 -2.2595 -1.8892
 5353TIP3    H237619   6.346   3.961   0.234  0.2656  1.0817 -0.1078
 5354TIP3   OH237620   2.014   0.607   1.059 -0.3531  0.0209  0.2595
 5354TIP3    H137621   2.078   0.561   1.005  0.9124  0.4876  1.2984
 5354TIP3    H237622   1.993   0.686   1.010  1.1616  0.6880  0.6283
 5355TIP3   OH237623   1.680   0.700   1.081 -1.0309  0.4489  0.3514
 5355TIP3    H137624   1.757   0.753   1.060 -1.5022  1.3915  0.9292
 5355TIP3    H237625   1.716   0.613   1.102 -0.2742  0.4486 -0.8454
 5356TIP3   OH237626   0.325   5.696   2.953  0.2334  0.4057  0.4587
 5356TIP3    H137627   0.403   5.641   2.947 -1.0951 -1.6971  1.2856
 5356TIP3    H237628   0.340   5.752   3.029  0.7477 -0.3296  0.9059
 5357TIP3   OH237629   5.098   4.672   7.859  0.3673 -0.0509 -0.0415
 5357TIP3    H137630   5.163   4.717   7.912  1.4969 -0.2796 -1.1912
 5357TIP3    H237631   5.106   4.580   7.884  0.1540 -0.0231  0.1384
 5358TIP3   OH237632   2.098   2.151   7.143  0.1943  0.1652 -0.1032
 5358TIP3    H137633   2.130   2.239   7.162 -1.0101  0.2872  1.6733
 5358TIP3    H237634   2.172   2.094   7.161  0.6746  0.7289 -0.2443
 5359TIP3   OH237635   0.057   4.418   2.882  0.5315 -0.1051  0.4160
 5359TIP3    H137636   0.061   4.468   2.801  3.2715 -1.3873 -0.3492
 5359TIP3    H237637   0.008   4.339   2.859  1.3460 -0.4903 -0.0462
 5360TIP3   OH237638   3.108   6.255   2.244 -0.1369  0.4731  0.5176
 5360TIP3    H137639   3.062   6.180   2.283 -1.0700  0.9206  0.3012
 5360TIP3    H237640   3.125   6.313   2.318  2.3210 -0.7762  1.0323
 5361TIP3   OH237641   1.368   2.087   8.457 -0.7106  0.2529  0.5882
 5361TIP3    H137642   1.381   2.001   8.497 -1.2144  0.1384  0.5054
 5361TIP3    H237643   1.337   2.143   8.528 -2.8121 -0.2534  0.1181
 5362TIP3   OH237644   6.034   1.736   1.523 -0.1860 -0.0542  0.2448
 5362TIP3    H137645   6.083   1.668   1.476  1.5389  1.7011 -0.6466
 5362TIP3    H237646   6.089   1.757   1.599 -0.3132  0.8468  0.0981
 5363TIP3   OH237647   2.566   2.360   0.213  0.0667 -0.0172  0.3418
 5363TIP3    H137648   2.539   2.307   0.138 -1.1940 -0.1252  0.8561
 5363TIP3    H237649   2.647   2.318   0.243 -0.5136 -1.2242  0.2927
 5364TIP3   OH237650   0.499   6.105   1.740 -0.4395  0.5577 -0.2361
 5364TIP3    H137651   0.527   6.169   1.805 -1.3005  1.1356 -0.4251
 5364TIP3    H237652   0.483   6.025   1.790  1.6252  0.1665 -0.1358
 5365TIP3   OH237653   2.403   3.815   6.968  0.8104 -0.6395  0.3298
 5365TIP3    H137654   2.458   3.893   6.955  1.3340 -1.1620 -0.6963
 5365TIP3    H237655   2.462   3.749   7.002  1.3038 -1.7610 -2.4605
 5366TIP3   OH237656   2.272   2.697   7.879  0.6072 -1.0288 -0.2120
 5366TIP3    H137657   2.275   2.625   7.815 -1.0347  0.1465 -1.7436
 5366TIP3    H237658   2.179   2.705   7.900  0.5110  1.5726 -1.2834
 5367TIP3   OH237659   5.678   2.594   1.703  0.0210 -0.0470  0.1614
 5367TIP3    H137660   5.653   2.580   1.794 -1.5697  0.4916 -0.1681
 5367TIP3    H237661   5.763   2.551   1.695 -1.1748 -2.8220  1.1253
 5368TIP3   OH237662   5.989   0.975   1.076 -1.0031  0.4981  0.5055
 5368TIP3    H137663   6.003   0.881   1.065 -0.2656  0.6484  0.0517
 5368TIP3    H237664   6.039   1.015   1.005 -3.7328  1.1245 -1.2240
 5369TIP3   OH237665   1.943   6.212   2.065  0.6234 -0.4207  0.7360
 5369TIP3    H137666   1.876   6.276   2.088  1.0496 -0.8167  3.3794
 5369TIP3    H237667   1.896   6.145   2.015  0.2283  1.9366 -2.4083
 5370TIP3   OH237668   5.327   3.498   0.520  0.4129  0.0347 -0.0794
 5370TIP3    H137669   5.357   3.564   0.457  2.4270 -0.3149  0.4373
 5370TIP3    H237670   5.367   3.525   0.603 -0.8836 -0.4052  0.7045
 5371TIP3   OH237671   1.820   3.885   2.157  0.3135  0.0414 -0.0630
 5371TIP3    H137672   1.863   3.840   2.230 -2.4552 -2.1983  0.3573
 5371TIP3    H237673   1.738   3.836   2.143 -1.9411  3.6700 -1.0487
 5372TIP3   OH237674   3.497   4.916   0.429 -0.0823  0.0385  0.4266
 5372TIP3    H137675   3.483   4.960   0.513  0.0098 -0.6444  0.8101
 5372TIP3    H237676   3.585   4.881   0.435  0.3451  0.9313 -0.4073
 5373TIP3   OH237677   3.510   6.134   6.911  0.1156 -0.0290  0.0049
 5373TIP3    H137678   3.489   6.042   6.895 -0.1656 -0.0518  0.4714
 5373TIP3    H237679   3.591   6.131   6.962  1.3236  0.0598 -1.8202
 5374TIP3   OH237680   2.389   2.463   0.386  0.1103  0.6269  0.1562
 5374TIP3    H137681   2.446   2.444   0.312  0.2943  2.0980 -0.1182
 5374TIP3    H237682   2.422   2.408   0.457 -0.0908 -0.8159 -0.8490
 5375TIP3   OH237683   0.720   0.341   0.988  0.1245  0.0470  0.3307
 5375TIP3    H137684   0.669   0.300   0.918 -1.0019  0.4984  0.8564
 5375TIP3    H237685   0.801   0.371   0.946 -0.2167 -0.3363 -0.6090
 5376TIP3   OH237686   2.840   0.262   0.950  0.0569 -0.4603 -0.8608
 5376TIP3    H137687   2.831   0.304   0.865  0.5813  0.4685 -0.4654
 5376TIP3    H237688   2.751   0.261   0.986 -0.2434 -1.2543 -1.5844
 5377TIP3   OH237689   6.237   4.133   2.893 -0.4815  0.9089 -0.1356
 5377TIP3    H137690   6.157   4.138   2.945 -0.4748  0.7067 -0.1061
 5377TIP3    H237691   6.236   4.213   2.840 -1.7029 -0.0397 -1.6016
 5378TIP3   OH237692   5.733   3.040   0.898  0.3728 -0.6978  0.1871
 5378TIP3    H137693   5.702   2.998   0.978 -0.5439  1.1571  0.8610
 5378TIP3    H237694   5.667   3.107   0.879  1.2775 -0.2025 -1.3615
 5379TIP3   OH237695   2.061   3.434   0.244 -0.1910  0.3668 -0.1930
 5379TIP3    H137696   2.053   3.366   0.177  1.3360  0.7015 -0.7600
 5379TIP3    H237697   1.971   3.454   0.270 -0.7790 -0.0867 -1.8090
 5380TIP3   OH237698   5.698   2.829   8.219  0.3402  0.0531  0.1544
 5380TIP3    H137699   5.723   2.921   8.205 -0.0031  0.2125  0.5464
 5380TIP3    H237700   5.774   2.779   8.191  0.8574  0.4992  0.7166
 5381TIP3   OH237701   2.048   4.905   1.954  0.7247  0.2203 -0.1728
 5381TIP3    H137702   2.074   4.961   2.027  0.3237 -1.8608  1.6882
 5381TIP3    H237703   2.130   4.871   1.919  0.8517 -0.2846  0.6016
 5382TIP3   OH237704   2.505   4.489   8.283 -0.1977 -0.1476 -0.3936
 5382TIP3    H137705   2.581   4.461   8.332 -2.1460 -2.8707  1.3591
 5382TIP3    H237706   2.521   4.458   8.193 -0.5467 -3.9448  0.6555
 5383TIP3   OH237707   3.560   4.827   1.909 -0.1166 -0.4512  0.0375
 5383TIP3    H137708   3.465   4.822   1.920 -0.1932 -2.2506 -0.9828
 5383TIP3    H237709   3.594   4.753   1.960  0.7488  0.1583  0.3713
 5384TIP3   OH237710   3.580   0.506   0.758  0.0847 -0.2733 -0.0001
 5384TIP3    H137711   3.486   0.499   0.739  0.3006  0.5833 -1.5920
 5384TIP3    H237712   3.619   0.435   0.707  0.3982  0.0152 -0.1584
 5385TIP3   OH237713   6.081   1.263   8.598 -0.2170 -0.1228  0.3940
 5385TIP3    H137714   6.174   1.238   8.604 -0.2412 -0.3689 -0.2379
 5385TIP3    H237715   6.038   1.210   8.666  0.5367  2.2987  2.9836
 5386TIP3   OH237716   0.277   3.739   2.377 -0.1470 -0.3798 -0.5784
 5386TIP3    H137717   0.248   3.650   2.396  0.9870 -0.0823  3.7488
 5386TIP3    H237718   0.231   3.793   2.442 -1.2993  2.4154 -3.4404
 5387TIP3   OH237719   5.666   6.403   7.891  0.1923  0.0789  0.6455
 5387TIP3    H137720   5.624   6.487   7.913  2.6037  1.6067 -0.2203
 5387TIP3    H237721   5.654   6.395   7.796  0.7067 -0.1003  0.5930
 5388TIP3   OH237722   1.770   1.797   1.766 -0.0335  0.3981  0.3872
 5388TIP3    H137723   1.699   1.780   1.705  1.4707  0.2466 -1.3927
 5388TIP3    H237724   1.828   1.722   1.758  1.2652  1.3594  0.3878
 5389TIP3   OH237725   6.548   6.712   7.636  0.1884 -0.4647  0.0437
 5389TIP3    H137726   6.508   6.643   7.689  1.6859 -0.7462  0.8709
 5389TIP3    H237727   6.609   6.665   7.579  0.6357  0.1103  0.0503
 5390TIP3   OH237728   0.950   1.530   2.164 -0.2666  0.2512 -0.1745
 5390TIP3    H137729   1.027   1.535   2.221  0.1621  0.7264 -0.7654
 5390TIP3    H237730   0.893   1.465   2.204  0.7109 -0.5350 -0.0315
 5391TIP3   OH237731   1.852   3.284   8.557 -0.0349  0.3938  0.4636
 5391TIP3    H137732   1.920   3.327   8.608  2.2775 -1.8505 -0.4736
 5391TIP3    H237733   1.899   3.249   8.480 -2.1497 -1.6313 -0.0164
 5392TIP3   OH237734   5.848   1.927   2.328 -0.7249 -0.6081  0.6633
 5392TIP3    H137735   5.907   1.989   2.285 -0.2522 -1.0268  0.6953
 5392TIP3    H237736   5.791   1.981   2.382 -0.5283 -0.1777  0.4420
 5393TIP3   OH237737   6.148   4.394   7.781 -0.1771  0.1841  0.3375
 5393TIP3    H137738   6.199   4.364   7.705 -0.2812 -1.0112  0.7342
 5393TIP3    H237739   6.204   4.375   7.856 -0.8616 -0.3501  0.7089
 5394TIP3   OH237740   0.009   0.074   3.244 -0.3316 -0.5019  0.1168
 5394TIP3    H137741   0.001   0.159   3.288 -3.4797 -0.7093  0.1484
 5394TIP3    H237742   0.011   0.095   3.151  0.5725 -0.3435  0.1630
 5395TIP3   OH237743   2.583   2.444   7.863 -0.4910 -0.6176 -0.4904
 5395TIP3    H137744   2.527   2.436   7.786  0.1298  0.3371 -1.0739
 5395TIP3    H237745   2.657   2.386   7.844  0.6319  1.0542 -1.5659
 5396TIP3   OH237746   5.584   2.261   1.310 -0.4293 -0.1494 -0.0064
 5396TIP3    H137747   5.593   2.165   1.311  0.5040 -0.0794 -0.3226
 5396TIP3    H237748   5.669   2.293   1.342 -0.6897  0.5711 -0.0328
 5397TIP3   OH237749   1.943   2.595   2.372  0.5278 -0.1980 -0.4878
 5397TIP3    H137750   1.999   2.589   2.449 -1.9004 -2.9789  1.2676
 5397TIP3    H237751   1.923   2.689   2.364  0.2865  0.1442  2.7759
 5398TIP3   OH237752   0.647   6.141   7.230  0.3603  0.3269  0.5799
 5398TIP3    H137753   0.733   6.105   7.254  0.9204  0.0870 -1.6219
 5398TIP3    H237754   0.667   6.213   7.170 -0.9859 -0.5093 -0.9483
 5399TIP3   OH237755   5.426   4.481   0.168 -0.8897 -0.4621  0.3079
 5399TIP3    H137756   5.407   4.550   0.232  0.5016  0.4303 -0.2045
 5399TIP3    H237757   5.397   4.516   0.084 -0.7092 -0.7338  0.1270
 5400TIP3   OH237758   5.117   4.202   2.415  0.6375  0.5581 -0.2809
 5400TIP3    H137759   5.125   4.272   2.350 -1.0138 -0.0017 -1.1401
 5400TIP3    H237760   5.164   4.235   2.491  2.2172  1.4392 -1.5764
 5401TIP3   OH237761   4.973   0.979   1.289  0.3341  0.4274 -0.2424
 5401TIP3    H137762   4.993   1.018   1.373  1.2219 -0.3105 -0.1001
 5401TIP3    H237763   4.958   0.886   1.308 -2.4629  0.7287 -0.4550
 5402TIP3   OH237764   2.942   4.044   7.403 -0.0858 -0.0368 -0.3912
 5402TIP3    H137765   2.970   4.132   7.426  0.4332 -0.2836 -0.0677
 5402TIP3    H237766   2.992   4.022   7.324  1.2146 -0.7571  0.5979
 5403TIP3   OH237767   2.002   4.041   1.626 -0.2678 -0.5658 -0.2681
 5403TIP3    H137768   1.995   4.012   1.718  1.7860 -1.9123 -0.4671
 5403TIP3    H237769   1.960   3.971   1.576 -0.2857 -0.4340 -0.4363
 5404TIP3   OH237770   3.908   4.566   0.827 -0.2692  0.3909 -0.5336
 5404TIP3    H137771   3.823   4.587   0.789 -1.5250 -2.3105  0.5195
 5404TIP3    H237772   3.945   4.501   0.767  0.5570  0.7150 -0.3843
 5405TIP3   OH237773   2.306   3.140   2.795 -0.0585  0.3013  0.9045
 5405TIP3    H137774   2.244   3.212   2.804  0.4745  0.7310  1.1477
 5405TIP3    H237775   2.252   3.065   2.771 -0.4017  1.2041 -1.3282
 5406TIP3   OH237776   2.064   5.643   0.049  0.0872 -0.3930  0.1178
 5406TIP3    H137777   2.071   5.690   0.132 -0.3183 -0.7424  0.3499
 5406TIP3    H237778   2.155   5.623   0.025  0.1311 -1.5480  1.1946
 5407TIP3   OH237779   3.483   0.605   3.171  0.6307  0.1323 -0.2114
 5407TIP3    H137780   3.539   0.543   3.126  2.3485  1.3680  0.1342
 5407TIP3    H237781   3.409   0.552   3.203 -0.8327 -0.8068 -4.5030
 5408TIP3   OH237782   4.890   1.760   0.187  0.0417 -0.0388 -0.7347
 5408TIP3    H137783   4.925   1.689   0.242  0.7450  0.4159 -0.5785
 5408TIP3    H237784   4.898   1.727   0.098  0.6954 -0.0189 -0.6859
 5409TIP3   OH237785   6.110   6.304   1.104  0.1468 -0.3323 -0.0839
 5409TIP3    H137786   6.080   6.359   1.177  0.0618 -1.6741  0.9129
 5409TIP3    H237787   6.087   6.215   1.129  1.5589 -1.0047 -1.0382
 5410TIP3   OH237788   6.735   1.725   1.846  0.1630  0.8507  0.0661
 5410TIP3    H137789   6.756   1.653   1.905  0.0455  1.7077  1.1898
 5410TIP3    H237790   6.779   1.703   1.764 -2.3205 -2.0511 -0.7026
 5411TIP3   OH237791   0.812   0.847   0.401  0.2195  0.2446  0.3625
 5411TIP3    H137792   0.766   0.901   0.465  3.1790  4.9897 -0.9185
 5411TIP3    H237793   0.756   0.848   0.323 -1.4653 -1.9963  1.4383
 5412TIP3   OH237794   0.721   1.579   8.921  0.3400 -0.2016  0.3481
 5412TIP3    H137795   0.805   1.614   8.952  0.4981 -0.9299  0.7620
 5412TIP3    H237796   0.684   1.650   8.868  0.7544  0.5126  0.9850
 5413TIP3   OH237797   2.115   2.243   8.080  0.2509  0.1355 -0.5288
 5413TIP3    H137798   2.205   2.225   8.054  0.5038 -2.0530  1.4382
 5413TIP3    H237799   2.070   2.159   8.069 -0.7951  0.4111  1.2004
 5414TIP3   OH237800   4.732   0.618   0.126  0.6957 -0.0455 -0.1648
 5414TIP3    H137801   4.696   0.550   0.070  1.3360  0.9681 -1.9241
 5414TIP3    H237802   4.823   0.626   0.097  0.7261  1.3042  0.2353
 5415TIP3   OH237803   4.021   4.860   8.706 -0.4416 -0.5442  0.2466
 5415TIP3    H137804   4.113   4.885   8.712  0.2958 -2.8744 -0.4060
 5415TIP3    H237805   3.973   4.939   8.731  1.7173 -0.3510  4.9518
 5416TIP3   OH237806   2.771   2.054   0.687 -0.2706  0.0582  0.4979
 5416TIP3    H137807   2.829   2.097   0.624 -0.1709 -1.8620 -0.8521
 5416TIP3    H237808   2.831   2.013   0.750 -0.1698 -0.6665 -0.0386
 5417TIP3   OH237809   1.028   6.299   0.544 -0.1285  0.2794  0.4073
 5417TIP3    H137810   1.015   6.217   0.592 -0.9164  0.0552 -0.1685
 5417TIP3    H237811   1.036   6.366   0.612 -0.0455 -0.2011  0.8733
 5418TIP3   OH237812   1.180   1.418   3.008  0.2056  0.2906  0.4827
 5418TIP3    H137813   1.092   1.381   3.004 -0.3870  1.5875  0.9879
 5418TIP3    H237814   1.189   1.469   2.928  0.7919 -0.4311  0.0763
 5419TIP3   OH237815   6.654   2.005   2.307 -0.1964  0.3352  0.1506
 5419TIP3    H137816   6.581   1.942   2.308 -0.4653  0.5524  3.2500
 5419TIP3    H237817   6.619   2.083   2.350  0.8071  1.8972 -1.6856
 5420TIP3   OH237818   6.672   0.788   2.599  0.0856  0.1673  0.0887
 5420TIP3    H137819   6.682   0.724   2.529  0.0594  0.3338 -0.0681
 5420TIP3    H237820   6.759   0.793   2.639  0.1492  0.2164 -0.0570
 5421TIP3   OH237821   2.374   5.009   7.789 -0.1876  0.1139 -0.1112
 5421TIP3    H137822   2.333   4.952   7.724 -1.8719  1.5469 -0.3786
 5421TIP3    H237823   2.368   5.097   7.751  0.4135  0.7483  1.2087
 5422TIP3   OH237824   2.808   0.835   2.186  0.0456  0.8104  0.1510
 5422TIP3    H137825   2.713   0.825   2.188 -0.2318  2.5246 -1.7297
 5422TIP3    H237826   2.839   0.765   2.129 -0.1489  0.6652  0.2239
 5423TIP3   OH237827   2.006   5.625   2.549  0.0113 -0.1858  0.0284
 5423TIP3    H137828   1.965   5.711   2.548 -0.3126 -0.3341 -1.7098
 5423TIP3    H237829   1.995   5.591   2.460  2.3838 -0.9619 -0.0405
 5424TIP3   OH237830   0.814   1.153   7.474 -0.1534 -0.3170  0.5988
 5424TIP3    H137831   0.874   1.218   7.436 -0.8588  0.2779  0.4884
 5424TIP3    H237832   0.790   1.097   7.400  1.4332 -1.4967  0.9357
 5425TIP3   OH237833   1.115   2.993   1.273 -0.0711  0.0646 -0.4393
 5425TIP3    H137834   1.182   2.983   1.340 -0.8370 -1.4299  0.1681
 5425TIP3    H237835   1.067   3.072   1.297  0.1634 -0.0245  0.3312
 5426TIP3   OH237836   6.245   1.946   1.386  0.5693  0.3466  0.1518
 5426TIP3    H137837   6.249   2.035   1.421 -0.4695  0.6616 -0.4869
 5426TIP3    H237838   6.173   1.905   1.434  0.8787 -0.0693  0.2615
 5427TIP3   OH237839   5.003   5.265   0.430 -0.0579  0.5703 -0.5910
 5427TIP3    H137840   4.963   5.195   0.378 -1.3264  0.7311  0.1214
 5427TIP3    H237841   4.977   5.346   0.385  0.7481  0.6334 -0.9666
 5428TIP3   OH237842   0.165   0.743   1.288 -0.2565  0.0241 -0.1821
 5428TIP3    H137843   0.234   0.807   1.303 -0.4127 -0.0160  0.8052
 5428TIP3    H237844   0.087   0.782   1.328 -0.1514 -1.1402  1.2646
 5429TIP3   OH237845   5.631   6.264   8.759  0.4161  0.4375  0.0790
 5429TIP3    H137846   5.619   6.356   8.737 -0.8123  0.1551 -0.5213
 5429TIP3    H237847   5.544   6.234   8.787  0.7990 -0.5261  0.2975
 5430TIP3   OH237848   2.274   1.549   8.222  0.3342  0.3260 -0.6486
 5430TIP3    H137849   2.344   1.612   8.241  0.6739 -0.0688 -0.5691
 5430TIP3    H237850   2.311   1.493   8.154  0.4618 -0.4805  0.0678
 5431TIP3   OH237851   4.547   5.637   0.047  0.2214  0.5074  0.3631
 5431TIP3    H137852   4.567   5.730   0.060  0.9924  0.5363 -0.9276
 5431TIP3    H237853   4.632   5.596   0.028 -0.4647  0.0995 -2.1760
 5432TIP3   OH237854   1.334   3.090   8.096  0.0975 -0.5555  0.6408
 5432TIP3    H137855   1.284   3.077   8.176 -0.0732  0.6202  0.7452
 5432TIP3    H237856   1.343   3.185   8.088 -0.5412 -0.5921 -1.1179
 5433TIP3   OH237857   4.600   5.119   8.328 -0.8728 -0.0594  0.2199
 5433TIP3    H137858   4.621   5.096   8.237  1.7829  0.8780  0.5226
 5433TIP3    H237859   4.612   5.214   8.332 -1.6381  0.0075  1.4165
 5434TIP3   OH237860   3.526   1.318   0.108  0.5362 -0.2146 -0.4007
 5434TIP3    H137861   3.475   1.276   0.038  0.1862  0.4852 -0.5783
 5434TIP3    H237862   3.592   1.253   0.132  0.6546 -0.4701 -1.3790
 5435TIP3   OH237863   5.503   3.507   8.343  0.2096 -0.2015 -0.6634
 5435TIP3    H137864   5.496   3.486   8.250 -1.3880 -4.6461  0.1956
 5435TIP3    H237865   5.574   3.451   8.375  0.2372  0.6694  0.9181
 5436TIP3   OH237866   1.855   6.657   8.296  0.4477  0.3369  0.0298
 5436TIP3    H137867   1.767   6.627   8.274  1.3308 -1.7754 -0.8576
 5436TIP3    H237868   1.855   6.663   8.391 -0.6136  0.2404  0.0497
 5437TIP3   OH237869   3.714   1.287   1.948 -0.4739  0.4416  0.4648
 5437TIP3    H137870   3.746   1.377   1.945 -0.6577  0.5588  1.5498
 5437TIP3    H237871   3.774   1.242   2.007  1.2281 -0.8574 -2.0866
 5438TIP3   OH237872   3.630   6.360   7.616 -0.3040 -0.2269  0.9817
 5438TIP3    H137873   3.696   6.399   7.560 -0.9071 -0.4510  0.0857
 5438TIP3    H237874   3.679   6.309   7.681  0.3949 -0.5299  0.2253
 5439TIP3   OH237875   2.455   4.358   1.675  0.1213 -0.2141  0.0048
 5439TIP3    H137876   2.410   4.422   1.731  0.3205  0.2391 -0.3465
 5439TIP3    H237877   2.385   4.303   1.641 -0.1299  0.2574 -0.2473
 5440TIP3   OH237878   5.198   2.957   7.319 -0.3830  0.2141 -0.1363
 5440TIP3    H137879   5.117   2.973   7.271 -0.7386  0.4527  0.5329
 5440TIP3    H237880   5.246   2.894   7.265 -0.9501  0.1777 -0.6020
 5441TIP3   OH237881   1.567   0.778   8.361  0.6951  0.1638  0.1064
 5441TIP3    H137882   1.534   0.818   8.280  0.4362 -0.3497 -0.0446
 5441TIP3    H237883   1.567   0.850   8.424  0.2073  0.4020 -0.1540
 5442TIP3   OH237884   5.010   4.433   8.600 -0.1713 -0.2020  0.0502
 5442TIP3    H137885   5.026   4.344   8.568  3.2304  0.4477 -0.4617
 5442TIP3    H237886   4.931   4.461   8.554  0.8573 -1.6363 -2.8849
 5443TIP3   OH237887   1.517   4.500   7.806  0.4457  0.0038  0.2413
 5443TIP3    H137888   1.510   4.477   7.713  0.7525 -0.2323  0.2751
 5443TIP3    H237889   1.450   4.447   7.849 -0.1299  0.5904  0.0726
 5444TIP3   OH237890   3.199   5.931   2.199 -0.0435  0.0450  0.0695
 5444TIP3    H137891   3.180   6.023   2.217  0.4469  0.1473  0.0848
 5444TIP3    H237892   3.205   5.926   2.104 -1.4067 -0.2495 -0.0288
 5445TIP3   OH237893   3.259   2.956   7.591  0.4087  0.4266  0.0701
 5445TIP3    H137894   3.179   2.948   7.643  0.5701  0.5167  0.3389
 5445TIP3    H237895   3.229   2.970   7.502  0.1245  0.0735  0.1103
 5446TIP3   OH237896   6.410   3.379   8.527 -0.0118  0.1298  0.1902
 5446TIP3    H137897   6.348   3.347   8.592  1.1721 -0.7635  0.9052
 5446TIP3    H237898   6.385   3.335   8.446  1.1504 -2.1876  1.0015
 5447TIP3   OH237899   3.436   2.545   2.342  0.6795  0.1489 -0.1576
 5447TIP3    H137900   3.504   2.586   2.396  1.8828 -0.7201 -0.9379
 5447TIP3    H237901   3.406   2.615   2.283  0.9821  0.5183  0.1221
 5448TIP3   OH237902   1.757   1.060   0.153  0.8699  0.8455  0.8059
 5448TIP3    H137903   1.775   1.141   0.201  1.7564  0.2595  1.4721
 5448TIP3    H237904   1.753   0.992   0.220  2.2710 -0.0153  0.0696
 5449TIP3   OH237905   2.569   2.806   7.996 -0.1766 -0.4239  0.2926
 5449TIP3    H137906   2.522   2.729   8.027 -1.3167 -1.4397 -3.4948
 5449TIP3    H237907   2.502   2.860   7.955  0.9534  1.6218  0.9962
 5450TIP3   OH237908   4.887   1.988   1.698  0.1643  0.4683 -0.1520
 5450TIP3    H137909   4.823   1.928   1.659  1.4908 -0.2287 -1.3586
 5450TIP3    H237910   4.907   2.051   1.629 -0.7674  1.9941  0.9117
 5451TIP3   OH237911   4.326   3.058   0.560 -0.2282 -0.6520 -0.2916
 5451TIP3    H137912   4.312   3.150   0.584 -2.0509 -0.3636 -2.2509
 5451TIP3    H237913   4.285   3.008   0.631 -2.3413  0.1258 -0.8965
 5452TIP3   OH237914   1.501   2.114   2.687  0.4037  0.3115  0.2671
 5452TIP3    H137915   1.423   2.170   2.679  0.7649  0.7307 -0.3684
 5452TIP3    H237916   1.527   2.123   2.778 -1.4640 -1.4115  1.0612
 5453TIP3   OH237917   5.994   3.542   0.349  0.1173  0.5396 -0.0220
 5453TIP3    H137918   6.053   3.607   0.311 -0.1308  0.7501 -0.0509
 5453TIP3    H237919   6.010   3.462   0.299  1.7385  0.0560  1.1748
 5454TIP3   OH237920   1.294   0.978   8.478  0.0854 -0.8358  0.0495
 5454TIP3    H137921   1.381   1.008   8.503  0.0829 -0.6196 -0.1950
 5454TIP3    H237922   1.268   1.036   8.406 -1.7647  1.5755  2.4493
 5455TIP3   OH237923   4.975   3.987   2.343  0.4832 -0.6448 -0.0899
 5455TIP3    H137924   5.029   4.066   2.344  0.9239 -0.9106 -0.9791
 5455TIP3    H237925   4.950   3.973   2.434 -0.6214  1.1924 -0.0573
 5456TIP3   OH237926   0.185   3.814   7.593 -0.2065 -0.0949  0.3211
 5456TIP3    H137927   0.156   3.902   7.618  1.5753  0.5326  0.3602
 5456TIP3    H237928   0.113   3.756   7.618 -0.7858  1.1707  1.7059
 5457TIP3   OH237929   6.429   3.426   7.246 -0.5536 -0.3787  0.5650
 5457TIP3    H137930   6.351   3.371   7.243 -0.2780 -0.7413 -1.9678
 5457TIP3    H237931   6.396   3.515   7.243 -0.9293 -0.3639  2.9268
 5458TIP3   OH237932   3.169   3.965   8.730  0.3377  0.0104 -0.0029
 5458TIP3    H137933   3.143   3.873   8.728  2.6916 -0.7187  0.3805
 5458TIP3    H237934   3.221   3.974   8.810 -0.7001  1.9726  0.5381
 5459TIP3   OH237935   3.422   4.294   0.230  0.6991 -0.8515  0.5380
 5459TIP3    H137936   3.371   4.324   0.154  1.4174 -0.1956  0.2995
 5459TIP3    H237937   3.375   4.217   0.262  0.2830 -1.0265 -0.4607
 5460TIP3   OH237938   5.274   1.151   0.339  0.4933 -0.3696  0.6722
 5460TIP3    H137939   5.342   1.189   0.395  2.0309  0.4296 -1.6120
 5460TIP3    H237940   5.214   1.223   0.321 -0.3561 -0.7828  1.7298
 5461TIP3   OH237941   4.617   4.186   0.314  0.2774 -0.2923  0.7880
 5461TIP3    H137942   4.665   4.172   0.232 -0.5650 -0.1081  0.2528
 5461TIP3    H237943   4.563   4.108   0.324 -1.7484  0.9044 -0.3345
 5462TIP3   OH237944   5.664   5.791   8.760 -0.5207  0.0713 -0.1832
 5462TIP3    H137945   5.592   5.748   8.805 -1.1140 -1.7978 -2.6720
 5462TIP3    H237946   5.623   5.827   8.680  0.9282  0.8666 -0.6052
 5463TIP3   OH237947   2.387   4.059   0.297  0.0095 -0.5389  0.0616
 5463TIP3    H137948   2.398   4.039   0.390  0.4746  0.4156  0.2253
 5463TIP3    H237949   2.303   4.019   0.273 -0.7396  0.2817  1.2079
 5464TIP3   OH237950   5.315   2.240   8.160  0.1427 -0.0796 -0.0723
 5464TIP3    H137951   5.401   2.200   8.172 -0.6530 -1.9495 -0.2038
 5464TIP3    H237952   5.332   2.321   8.113  1.6438 -1.6717 -2.4987
 5465TIP3   OH237953   6.437   1.856   2.311  0.3206  0.2408 -1.0444
 5465TIP3    H137954   6.376   1.902   2.253  0.7113 -0.0911 -1.7439
 5465TIP3    H237955   6.449   1.770   2.269  0.8907  0.1253 -0.6612
 5466TIP3   OH237956   2.699   3.040   2.111  0.4163  0.1934 -0.2828
 5466TIP3    H137957   2.765   3.107   2.127  0.8112 -0.5697  1.4085
 5466TIP3    H237958   2.744   2.957   2.127 -1.1523 -0.3188  1.9404
 5467TIP3   OH237959   3.786   5.549   7.790 -0.1396 -0.2721  1.1245
 5467TIP3    H137960   3.843   5.576   7.861  0.8661 -0.9684  0.6047
 5467TIP3    H237961   3.714   5.502   7.833  1.0668 -1.7361  1.6243
 5468TIP3   OH237962   5.015   3.590   0.132  0.0552  0.1421 -0.1991
 5468TIP3    H137963   5.102   3.552   0.116  0.2402  0.2611  0.4962
 5468TIP3    H237964   4.990   3.555   0.217 -0.2248  0.7716 -0.0241
 5469TIP3   OH237965   6.651   3.319   8.300 -0.3239 -0.0150 -0.3654
 5469TIP3    H137966   6.669   3.402   8.344 -1.2548 -0.8004  1.6181
 5469TIP3    H237967   6.738   3.286   8.277  0.0741  1.3848 -1.0219
 5470TIP3   OH237968   3.673   4.372   0.264  0.0925 -0.0794  0.2134
 5470TIP3    H137969   3.580   4.395   0.259  0.2583  0.4270 -0.5866
 5470TIP3    H237970   3.719   4.453   0.244  0.7036 -0.5377 -0.2539
 5471TIP3   OH237971   2.772   0.416   1.781  0.2133  0.1603  0.2074
 5471TIP3    H137972   2.844   0.353   1.786  1.2066  1.2948  0.6445
 5471TIP3    H237973   2.715   0.394   1.855 -2.7308 -3.9400 -2.7676
 5472TIP3   OH237974   6.452   3.026   0.767  0.3974  0.2723  0.0163
 5472TIP3    H137975   6.421   3.112   0.797  0.1914  0.9736 -2.0439
 5472TIP3    H237976   6.374   2.984   0.731  1.0751  0.5582 -1.8871
 5473TIP3   OH237977   2.856   5.830   8.344 -0.1838  0.0907  0.2547
 5473TIP3    H137978   2.928   5.889   8.320 -2.0605  1.0328 -3.8552
 5473TIP3    H237979   2.883   5.744   8.310 -0.6418  0.3152 -0.7285
 5474TIP3   OH237980   1.306   3.262   1.783 -0.0912  0.4583 -0.2017
 5474TIP3    H137981   1.385   3.223   1.747 -0.4207  0.3488 -0.8311
 5474TIP3    H237982   1.333   3.350   1.809  0.2122  0.4647 -0.5227
 5475TIP3   OH237983   1.199   5.850   0.558 -0.6089 -0.5163  0.8322
 5475TIP3    H137984   1.188   5.833   0.652  1.2714 -2.2687  0.7948
 5475TIP3    H237985   1.287   5.887   0.550 -1.5745  1.7646 -0.0523
 5476TIP3   OH237986   1.195   6.660   8.361  1.1410 -0.4842  0.3540
 5476TIP3    H137987   1.188   6.708   8.444 -1.3601  0.0208 -0.0827
 5476TIP3    H237988   1.138   6.584   8.373  1.0039 -0.5798 -0.7904
 5477TIP3   OH237989   2.412   0.553   1.426 -0.3508  0.1458 -0.1829
 5477TIP3    H137990   2.423   0.557   1.331 -1.6470 -1.4753 -0.4447
 5477TIP3    H237991   2.464   0.477   1.453 -1.0915 -0.2274  0.2133
 5478TIP3   OH237992   1.028   0.467   0.643 -0.3333  0.3285 -0.3796
 5478TIP3    H137993   0.947   0.516   0.628 -0.1494  1.4557  1.9326
 5478TIP3    H237994   1.097   0.533   0.640  0.6829 -0.7015 -2.9223
 5479TIP3   OH237995   6.507   3.842   2.551 -0.3038 -0.1881 -0.0086
 5479TIP3    H137996   6.475   3.754   2.573 -1.2588  0.6553  2.2987
 5479TIP3    H237997   6.569   3.863   2.620  0.1664  0.8470 -0.7260
 5480TIP3   OH237998   0.099   6.236   0.742  0.1272 -0.0288 -0.2390
 5480TIP3    H137999   0.048   6.168   0.786  0.4192  0.4234  0.8224
 5480TIP3    H238000   0.061   6.241   0.654 -0.8386 -0.5547  0.1344
 5481TIP3   OH238001   6.163   0.136   2.565  0.0251 -0.2508 -0.0133
 5481TIP3    H138002   6.250   0.152   2.603 -0.6428  1.1281  1.0174
 5481TIP3    H238003   6.168   0.176   2.478  0.5788 -0.6282 -0.1610
 5482TIP3   OH238004   2.804   1.044   8.324 -0.4021 -0.2304  0.0319
 5482TIP3    H138005   2.844   1.026   8.409 -0.0125  1.8732  0.3536
 5482TIP3    H238006   2.878   1.065   8.267 -0.5354 -2.8409 -1.2368
 5483TIP3   OH238007   6.380   3.628   1.664  0.3927  0.1079 -0.2320
 5483TIP3    H138008   6.407   3.540   1.691 -2.2977 -0.6898  0.1441
 5483TIP3    H238009   6.351   3.670   1.745  1.3936  1.3129 -0.4508
 5484TIP3   OH238010   4.743   0.538   0.902 -0.3168 -0.2364 -0.6860
 5484TIP3    H138011   4.652   0.561   0.921 -0.4182  0.0885 -1.5293
 5484TIP3    H238012   4.762   0.581   0.818  0.2572 -1.2289 -1.0863
 5485TIP3   OH238013   3.717   5.664   2.362 -0.2593  0.0648 -0.9487
 5485TIP3    H138014   3.687   5.583   2.402 -2.3741  1.9918  1.7300
 5485TIP3    H238015   3.793   5.690   2.413  0.3211 -0.0938 -1.7046
 5486TIP3   OH238016   0.641   2.927   1.923  0.2913 -0.2533  0.4949
 5486TIP3    H138017   0.675   2.881   1.846  1.2985  1.9508 -0.4831
 5486TIP3    H238018   0.558   2.883   1.943 -0.6019 -0.2197 -2.5992
 5487TIP3   OH238019   4.984   1.736   2.649 -0.0313 -0.3861  0.4426
 5487TIP3    H138020   4.915   1.731   2.715 -1.4669 -1.0415 -1.0395
 5487TIP3    H238021   5.019   1.647   2.646 -1.5866 -1.0093 -1.2604
 5488TIP3   OH238022   3.992   0.463   2.475  0.1487 -0.1414 -0.2501
 5488TIP3    H138023   3.978   0.554   2.501 -1.0913 -0.4997  0.3775
 5488TIP3    H238024   4.068   0.467   2.416 -0.5606  1.4462 -1.1362
 5489TIP3   OH238025   0.966   4.113   0.675 -0.5394 -0.5109  0.3675
 5489TIP3    H138026   1.014   4.176   0.620  0.3044 -1.2750  0.2019
 5489TIP3    H238027   0.874   4.129   0.654 -0.3383  0.5607  0.2179
 5490TIP3   OH238028   1.071   4.824   0.205  0.0827  0.0896 -0.0739
 5490TIP3    H138029   1.131   4.750   0.204 -0.0137 -0.0174  1.2347
 5490TIP3    H238030   1.072   4.856   0.295 -1.8885  0.0100  0.0345
 5491TIP3   OH238031   2.516   3.748   8.874 -0.5160  0.4348 -0.0275
 5491TIP3    H138032   2.599   3.733   8.919 -0.9897  1.1219  1.1361
 5491TIP3    H238033   2.502   3.842   8.880 -2.2084  0.1580  1.4079
 5492TIP3   OH238034   3.372   2.346   1.005  0.2417  0.4789  0.5355
 5492TIP3    H138035   3.352   2.263   0.962  0.9110  0.2877  0.5870
 5492TIP3    H238036   3.453   2.376   0.963  1.2043  0.0300  1.9774
 5493TIP3   OH238037   4.659   6.109   8.718 -0.2163  0.0675 -0.2716
 5493TIP3    H138038   4.568   6.119   8.745 -0.5653 -0.3322 -1.2647
 5493TIP3    H238039   4.661   6.139   8.627  0.7082  0.3690 -0.1609
 5494TIP3   OH238040   0.629   4.036   8.530  0.0618  0.0509 -0.1607
 5494TIP3    H138041   0.560   4.063   8.470 -0.6534 -2.2628 -0.4790
 5494TIP3    H238042   0.708   4.036   8.477 -0.5553 -1.9105 -1.1827
 5495TIP3   OH238043   0.548   0.929   1.858  0.2071  0.1735  0.8003
 5495TIP3    H138044   0.453   0.941   1.851  0.3768  2.4128  1.6467
 5495TIP3    H238045   0.580   1.013   1.892  2.1321 -1.5983  3.7818
 5496TIP3   OH238046   0.838   4.174   0.082  0.0248 -0.3831  0.0865
 5496TIP3    H138047   0.770   4.242   0.087 -0.2798 -0.5528 -1.2581
 5496TIP3    H238048   0.858   4.154   0.173 -0.8068  0.5905  0.5150
 5497TIP3   OH238049   2.210   1.084   8.501 -0.0792 -0.0508 -0.9732
 5497TIP3    H138050   2.212   1.152   8.568 -1.6147 -1.0577  0.1546
 5497TIP3    H238051   2.118   1.083   8.472  0.2517 -0.6432 -2.0261
 5498TIP3   OH238052   1.122   3.030   8.663 -0.4659 -0.4881  0.5432
 5498TIP3    H138053   1.204   3.041   8.711  1.0768  2.3096 -2.4120
 5498TIP3    H238054   1.137   2.954   8.607 -0.2831 -0.5291  0.6462
 5499TIP3   OH238055   6.221   6.267   8.561 -0.5115  0.2195  0.3526
 5499TIP3    H138056   6.149   6.250   8.621 -0.3203 -1.6922  0.1201
 5499TIP3    H238057   6.194   6.227   8.478  0.6365 -0.2002  0.1552
 5500TIP3   OH238058   2.568   0.884   0.300 -0.0635  0.4523 -0.3289
 5500TIP3    H138059   2.637   0.839   0.348 -0.5096  1.3154  1.1671
 5500TIP3    H238060   2.525   0.814   0.250  0.1777 -0.5454  0.8233
 5501TIP3   OH238061   3.695   1.329   3.092 -0.1517  0.1015  0.1178
 5501TIP3    H138062   3.759   1.267   3.127 -0.9486 -1.0884 -0.4952
 5501TIP3    H238063   3.618   1.318   3.148  0.3222  1.9686  1.2409
 5502TIP3   OH238064   4.124   0.366   8.502  0.3216  0.0254  0.1013
 5502TIP3    H138065   4.149   0.345   8.412  0.5078 -0.7845  0.3374
 5502TIP3    H238066   4.113   0.461   8.502 -1.2607 -0.1281 -1.1713
 5503TIP3   OH238067   0.949   3.431   8.602 -0.0680  0.3853  0.5718
 5503TIP3    H138068   0.875   3.416   8.661 -0.5922 -1.2418 -0.4462
 5503TIP3    H238069   0.980   3.344   8.578  0.7273  1.0098 -0.8283
 5504TIP3   OH238070   2.444   0.079   8.456 -0.2895 -0.0251  0.7925
 5504TIP3    H138071   2.534   0.089   8.425 -0.2444 -3.4593 -0.6617
 5504TIP3    H238072   2.450   0.012   8.525 -1.8872 -2.1263 -0.9819
 5505TIP3   OH238073   0.232   2.448   2.211  0.7798 -0.6404  0.1137
 5505TIP3    H138074   0.249   2.355   2.223  0.1344 -0.7375  0.3265
 5505TIP3    H238075   0.188   2.475   2.292 -1.8314 -0.8538 -1.1425
 5506TIP3   OH238076   4.074   3.935   8.613 -0.1263  0.1038  0.0096
 5506TIP3    H138077   4.135   3.998   8.651 -1.6653  1.3589  0.5209
 5506TIP3    H238078   4.122   3.896   8.540  0.7032  2.3374 -0.7267
 5507TIP3   OH238079   1.774   1.226   8.165 -0.2372  0.6130  0.2352
 5507TIP3    H138080   1.773   1.131   8.158 -2.5626  0.6203 -0.2434
 5507TIP3    H238081   1.867   1.249   8.165  0.3694 -1.5347 -1.3195
 5508TIP3   OH238082   1.045   2.097   0.926 -0.3680  0.2870  0.1066
 5508TIP3    H138083   1.080   2.127   0.842  2.5694 -0.5723  0.8927
 5508TIP3    H238084   1.078   2.007   0.934 -0.9598  0.2027  1.9745
 5509TIP3   OH238085   0.194   4.997   8.002  0.0542  0.4368  0.0682
 5509TIP3    H138086   0.132   5.017   7.932  1.6050 -0.8995 -1.7881
 5509TIP3    H238087   0.246   5.077   8.012 -1.2306  1.2074  0.9263
 5510TIP3   OH238088   0.573   5.719   1.681 -0.6872  0.0111 -0.2284
 5510TIP3    H138089   0.655   5.752   1.644 -0.4761  0.3238  0.4963
 5510TIP3    H238090   0.598   5.688   1.768 -1.2546 -0.3212 -0.1823
 5511TIP3   OH238091   5.530   1.380   8.654  0.0243 -0.1654 -0.4453
 5511TIP3    H138092   5.549   1.474   8.649 -1.1444  0.5098  3.7478
 5511TIP3    H238093   5.613   1.340   8.680 -0.0331  0.0899  0.1431
 5512TIP3   OH238094   6.427   2.669   1.049  0.4098 -0.1858  0.2534
 5512TIP3    H138095   6.384   2.605   0.993 -1.6897 -0.1861  1.7507
 5512TIP3    H238096   6.421   2.631   1.137  0.0443  1.5744  1.0245
 5513TIP3   OH238097   3.604   4.092   7.470  0.0587 -0.2596 -0.3638
 5513TIP3    H138098   3.598   4.032   7.396 -3.1207  1.1821 -1.4698
 5513TIP3    H238099   3.665   4.160   7.440 -1.0463  0.2156 -1.6809
 5514TIP3   OH238100   5.799   6.342   8.113  0.2324 -0.5007  0.2488
 5514TIP3    H138101   5.747   6.382   8.183 -1.2558 -2.4553  0.3426
 5514TIP3    H238102   5.750   6.363   8.033 -1.0812 -2.7440  0.3825
 5515TIP3   OH238103   2.853   6.221   8.870  0.7827  0.7936  0.4843
 5515TIP3    H138104   2.939   6.201   8.835  1.5643  1.3618  1.9991
 5515TIP3    H238105   2.820   6.291   8.813  1.6786  1.1536  0.3896
 5516TIP3   OH238106   3.155   5.342   2.007  0.3379  0.2041 -0.4653
 5516TIP3    H138107   3.239   5.375   1.976 -0.3308  1.1482 -1.3345
 5516TIP3    H238108   3.154   5.250   1.980  2.2343 -0.6569  2.0146
 5517TIP3   OH238109   3.994   2.184   2.603 -0.3490 -0.1853  0.1836
 5517TIP3    H138110   3.968   2.230   2.683 -2.3464 -0.4706 -0.2405
 5517TIP3    H238111   3.922   2.123   2.586  0.6824 -1.1009 -1.0904
 5518TIP3   OH238112   5.680   0.426   1.262 -0.4298  0.0930 -0.0476
 5518TIP3    H138113   5.626   0.386   1.330 -1.0302 -1.0476 -1.1529
 5518TIP3    H238114   5.768   0.391   1.277 -0.9261 -1.6333 -0.9351
 5519TIP3   OH238115   4.336   0.054   8.398  0.0648 -0.6368  0.5899
 5519TIP3    H138116   4.384   0.007   8.330 -0.7223  0.0597 -0.4741
 5519TIP3    H238117   4.391   0.130   8.417 -0.7963  0.4359 -0.9932
 5520TIP3   OH238118   1.096   4.314   8.137  0.1542 -0.3231 -0.1679
 5520TIP3    H138119   1.071   4.405   8.121  1.1148 -0.2059 -1.1168
 5520TIP3    H238120   1.142   4.316   8.221 -1.9152 -0.3618  1.0346
 5521TIP3   OH238121   3.568   3.467   1.036  0.1185  0.1680 -0.0155
 5521TIP3    H138122   3.503   3.466   0.966  0.8207  0.0884 -0.6662
 5521TIP3    H238123   3.633   3.402   1.010 -0.2807 -0.8215  1.3480
 5522TIP3   OH238124   0.312   6.360   0.457 -0.5140  0.5238 -0.6254
 5522TIP3    H138125   0.305   6.275   0.414 -1.6123 -0.2628  1.0022
 5522TIP3    H238126   0.221   6.385   0.474 -0.1402  0.7857  1.1896
 5523TIP3   OH238127   3.821   5.579   7.143  0.2459 -0.1407 -0.1993
 5523TIP3    H138128   3.831   5.484   7.156 -0.7482 -0.1178  0.8403
 5523TIP3    H238129   3.735   5.589   7.102 -0.5099  0.4194  1.4495
 5524TIP3   OH238130   6.112   6.413   1.743  0.1597  0.2101 -0.4279
 5524TIP3    H138131   6.192   6.425   1.795  0.3180  0.7427 -0.7836
 5524TIP3    H238132   6.057   6.355   1.796  0.4703  0.4440  0.1579
 5525TIP3   OH238133   4.349   1.624   1.668 -0.0857  0.1515  0.0699
 5525TIP3    H138134   4.382   1.552   1.614  0.4852  0.3235  0.1823
 5525TIP3    H238135   4.283   1.584   1.724  0.7253 -0.4374  0.6355
 5526TIP3   OH238136   2.559   2.389   0.646  0.4003  0.2374 -0.1098
 5526TIP3    H138137   2.605   2.394   0.730  1.2014  0.7240 -0.5647
 5526TIP3    H238138   2.596   2.312   0.603  0.5112  0.4092 -0.3216
 5527TIP3   OH238139   1.625   1.483   0.223 -0.1266  0.1455 -0.0420
 5527TIP3    H138140   1.596   1.569   0.192  0.9771  0.7083  0.4430
 5527TIP3    H238141   1.612   1.426   0.147  0.6140  1.0756 -0.8973
 5528TIP3   OH238142   3.778   5.564   8.244 -0.1424 -0.0771 -0.1008
 5528TIP3    H138143   3.848   5.627   8.223 -1.2379  1.1417 -0.2299
 5528TIP3    H238144   3.738   5.544   8.159 -1.0448  0.5813  0.1575
 5529TIP3   OH238145   3.054   6.607   0.393  0.3874  0.4403 -0.5777
 5529TIP3    H138146   3.046   6.586   0.300 -0.6774 -0.8527 -0.2209
 5529TIP3    H238147   3.141   6.576   0.417  0.2288 -0.2838 -0.9000
 5530TIP3   OH238148   6.375   6.400   1.839 -0.5058 -0.0208 -0.2592
 5530TIP3    H138149   6.363   6.430   1.929 -2.0239 -0.9055 -0.1230
 5530TIP3    H238150   6.433   6.324   1.846 -0.0290  0.3556 -0.1191
 5531TIP3   OH238151   2.882   4.317   7.860  0.6562 -0.6439 -0.6625
 5531TIP3    H138152   2.912   4.236   7.902 -1.0998 -0.4514  1.1276
 5531TIP3    H238153   2.826   4.287   7.788  0.1740 -1.0427 -0.1313
 5532TIP3   OH238154   4.757   1.797   7.689  0.5305 -0.2747 -0.1960
 5532TIP3    H138155   4.780   1.807   7.781  1.9000  1.3721 -0.6504
 5532TIP3    H238156   4.831   1.751   7.650 -0.4261 -1.7328 -0.3463
 5533TIP3   OH238157   6.569   5.103   7.534 -0.1735 -0.2107 -0.2009
 5533TIP3    H138158   6.659   5.134   7.522  0.5526 -2.1127  0.0137
 5533TIP3    H238159   6.540   5.145   7.615  0.6009  0.2734 -0.1654
 5534TIP3   OH238160   6.094   3.744   8.461  0.5129  0.1558  0.9726
 5534TIP3    H138161   6.179   3.736   8.417 -0.1515 -0.2233 -0.2878
 5534TIP3    H238162   6.042   3.800   8.403 -0.8596 -1.5169  0.4929
 5535TIP3   OH238163   1.215   3.627   7.102 -0.2162  0.2803 -0.1127
 5535TIP3    H138164   1.279   3.681   7.054 -2.4240  3.0254 -0.2382
 5535TIP3    H238165   1.245   3.631   7.193  0.4814  0.4608 -0.3432
 5536TIP3   OH238166   2.699   1.917   8.281 -0.1770 -0.3014 -0.1406
 5536TIP3    H138167   2.757   1.849   8.316  0.3233  0.4857  0.5954
 5536TIP3    H238168   2.758   1.985   8.251 -0.7019  0.2470  0.0493
 5537TIP3   OH238169   6.272   2.217   8.650 -0.1747  0.0708 -0.1858
 5537TIP3    H138170   6.336   2.280   8.683  0.2250 -0.9222  1.0061
 5537TIP3    H238171   6.242   2.170   8.728 -1.8786  0.0601 -0.8066
 5538TIP3   OH238172   4.645   0.987   0.034 -0.6067 -0.3721  0.3172
 5538TIP3    H138173   4.688   0.998  -0.051  0.2684 -2.8315  0.3605
 5538TIP3    H238174   4.557   1.021   0.021  0.1204  1.1477 -0.9496
 5539TIP3   OH238175   4.630   2.167   0.002 -0.4384  0.2246  0.3085
 5539TIP3    H138176   4.685   2.135  -0.069  0.6578  2.5593  0.0031
 5539TIP3    H238177   4.565   2.098   0.015  0.1426 -0.8753 -2.0328
 5540TIP3   OH238178   5.709   1.561   1.672  0.8065  0.1206 -0.5914
 5540TIP3    H138179   5.650   1.630   1.639  1.9392  0.7005 -1.4595
 5540TIP3    H238180   5.785   1.565   1.614  0.4853 -2.5489 -1.2934
 5541TIP3   OH238181   4.472   6.729   8.171  0.0855 -0.0147  0.9120
 5541TIP3    H138182   4.531   6.795   8.134  1.1113 -1.5733 -0.3769
 5541TIP3    H238183   4.528   6.653   8.187 -1.5443 -1.6123 -0.4928
 5542TIP3   OH238184   6.006   0.123   0.555  0.0829  1.1026  0.3053
 5542TIP3    H138185   5.990   0.034   0.588  0.7089  1.8668  2.8674
 5542TIP3    H238186   5.925   0.170   0.572 -0.2509  1.0628 -1.0569
 5543TIP3   OH238187   6.502   2.375   8.696 -0.1054 -0.1393  0.0638
 5543TIP3    H138188   6.556   2.448   8.666  0.1320 -0.5775 -0.6029
 5543TIP3    H238189   6.486   2.394   8.788  1.4498 -0.1540  0.3714
 5544TIP3   OH238190   4.019   0.577   7.496  0.0934  0.3900  0.4145
 5544TIP3    H138191   4.113   0.579   7.476  0.1826 -0.1616  0.7517
 5544TIP3    H238192   3.977   0.557   7.413  0.3955 -0.9769  0.5761
 5545TIP3   OH238193   2.262   2.230   1.416  0.4644 -0.5930  0.5131
 5545TIP3    H138194   2.262   2.142   1.379 -0.8303 -0.7563  0.8604
 5545TIP3    H238195   2.319   2.223   1.493  0.2901 -1.1575  0.5945
 5546TIP3   OH238196   5.714   4.877   7.954 -0.6846  0.2769  0.3358
 5546TIP3    H138197   5.651   4.810   7.928 -0.0934  0.5005 -1.8765
 5546TIP3    H238198   5.790   4.828   7.984 -0.7403 -0.0226 -0.0097
 5547TIP3   OH238199   3.835   6.103   2.607  0.0621  0.3865  0.0156
 5547TIP3    H138200   3.830   6.056   2.690 -0.3884 -0.2841 -0.3842
 5547TIP3    H238201   3.831   6.196   2.632  1.9714  0.2724  0.8851
 5548TIP3   OH238202   2.025   4.534   8.851 -0.8373  0.4563  0.3714
 5548TIP3    H138203   2.039   4.442   8.828 -1.3759  0.6687 -0.8724
 5548TIP3    H238204   2.112   4.573   8.847 -1.0078  0.7385 -2.6149
 5549TIP3   OH238205   1.292   1.244   6.465 -0.0369  0.4844  0.2524
 5549TIP3    H138206   1.312   1.337   6.452  0.6751  0.2828 -0.1294
 5549TIP3    H238207   1.213   1.244   6.518  0.1384  1.3129  0.5281
 5550TIP3   OH238208   3.073   5.063   2.028 -0.3277 -0.1256 -0.0454
 5550TIP3    H138209   2.994   5.020   2.060  0.3225 -0.7683  0.7552
 5550TIP3    H238210   3.118   5.093   2.107  0.3268  0.0598 -0.4793
 5551TIP3   OH238211   6.118   0.186   0.076  0.8908  0.0369 -0.0831
 5551TIP3    H138212   6.045   0.247   0.084  0.4917 -0.6099  1.5910
 5551TIP3    H238213   6.159   0.208  -0.008 -0.2318  1.4892 -0.2828
 5552TIP3   OH238214   0.411   2.312   7.402 -0.1610  0.0132 -0.5649
 5552TIP3    H138215   0.316   2.317   7.411 -0.0985  0.7711 -0.2683
 5552TIP3    H238216   0.430   2.363   7.323  0.2711  2.7658  1.1632
 5553TIP3   OH238217   2.074   1.724   0.415 -0.0709  0.5369  0.3338
 5553TIP3    H138218   2.165   1.736   0.388 -0.2774  0.8669 -0.2431
 5553TIP3    H238219   2.034   1.810   0.401 -0.6466  0.1957 -0.1307
 5554TIP3   OH238220   5.356   6.313   1.171  0.0502  0.4654 -0.2658
 5554TIP3    H138221   5.282   6.257   1.194  0.7011 -0.2660  0.0959
 5554TIP3    H238222   5.393   6.341   1.254  1.1193 -0.4576 -0.4018
 5555TIP3   OH238223   0.496   0.163   2.150  0.8823 -0.6426 -0.2413
 5555TIP3    H138224   0.525   0.084   2.194 -0.2681 -0.2357  1.3334
 5555TIP3    H238225   0.455   0.216   2.219  0.6049  0.8200 -1.4630
 5556TIP3   OH238226   1.681   1.363   8.880 -0.6687 -0.3802  0.7286
 5556TIP3    H138227   1.596   1.345   8.839 -1.0768 -1.0381  1.8380
 5556TIP3    H238228   1.739   1.297   8.842 -0.0146  1.4786 -1.8085
 5557TIP3   OH238229   0.359   4.205   8.139 -0.0719  0.5814  0.0043
 5557TIP3    H138230   0.405   4.200   8.055  0.2773 -1.6580  0.2753
 5557TIP3    H238231   0.293   4.273   8.127  1.1107  1.5162 -1.4939
 5558TIP3   OH238232   3.893   1.073   8.462 -0.2023 -0.7993 -0.4062
 5558TIP3    H138233   3.834   1.002   8.488 -0.9340 -0.4028 -0.9356
 5558TIP3    H238234   3.971   1.060   8.515  0.8152 -3.6369 -2.3298
 5559TIP3   OH238235   1.267   4.665   8.037  0.2043 -0.0717  0.4228
 5559TIP3    H138236   1.192   4.724   8.030  1.3488  1.4543  0.5097
 5559TIP3    H238237   1.246   4.593   7.976 -0.5583  1.1915 -0.8778
 5560TIP3   OH238238   0.259   0.440   0.012  0.5656  0.2455  0.5786
 5560TIP3    H138239   0.282   0.399   0.095 -0.9754 -1.4976  0.2313
 5560TIP3    H238240   0.228   0.367  -0.042 -1.2134  1.7279 -0.5054
 5561TIP3   OH238241   3.766   0.369   7.776  0.1661  0.0476 -0.0068
 5561TIP3    H138242   3.704   0.339   7.710 -1.0883  0.1667  1.0725
 5561TIP3    H238243   3.852   0.354   7.737 -0.5299  0.3983 -1.7669
 5562TIP3   OH238244   6.479   4.937   2.294  0.3599  0.0275 -0.2731
 5562TIP3    H138245   6.548   5.003   2.287  0.9378 -0.4243  0.8495
 5562TIP3    H238246   6.458   4.914   2.204  1.5013  0.3558 -0.6406
 5563TIP3   OH238247   5.743   6.104   8.517  0.2740 -0.5868  0.3375
 5563TIP3    H138248   5.650   6.122   8.532 -0.2099 -1.9276 -0.8859
 5563TIP3    H238249   5.782   6.190   8.506 -0.7587  0.0183  1.1267
 5564TIP3   OH238250   5.361   3.403   8.754  0.0985 -0.5090 -0.2238
 5564TIP3    H138251   5.417   3.452   8.694  1.1195 -0.3785  0.7839
 5564TIP3    H238252   5.314   3.341   8.699  1.1178 -0.5043 -1.1276
 5565TIP3   OH238253   1.427   2.592   6.543  0.1308  0.1617  0.6462
 5565TIP3    H138254   1.331   2.584   6.548  0.2835 -1.0166  3.3501
 5565TIP3    H238255   1.451   2.641   6.621  1.8660 -1.0436  0.9191
 5566TIP3   OH238256   5.407   3.199   7.689 -0.0395 -0.2769  0.3125
 5566TIP3    H138257   5.498   3.171   7.680  0.4095 -0.3633  3.8159
 5566TIP3    H238258   5.356   3.119   7.680  0.3133 -0.4478 -0.2652
 5567TIP3   OH238259   1.678   3.976   8.043  0.7667 -0.0981  0.5468
 5567TIP3    H138260   1.691   3.998   8.136 -1.6459  1.7173  0.5271
 5567TIP3    H238261   1.654   3.883   8.045  0.4007 -0.0052  1.8087
 5568TIP3   OH238262   0.635   3.419   0.134  0.4904 -0.3795  0.2658
 5568TIP3    H138263   0.588   3.465   0.202  0.3984 -0.2181  0.0939
 5568TIP3    H238264   0.585   3.436   0.054  0.8248 -0.2239  0.0878
 5569TIP3   OH238265   6.226   6.271   2.237 -0.2543  0.6478 -0.0316
 5569TIP3    H138266   6.212   6.294   2.329  1.4903  2.6878 -0.1848
 5569TIP3    H238267   6.139   6.245   2.205 -0.9285  0.0402  2.1160
 5570TIP3   OH238268   1.522   3.231   8.732  0.0898 -0.1353  0.4548
 5570TIP3    H138269   1.484   3.308   8.690 -1.4739 -0.1743  1.7034
 5570TIP3    H238270   1.559   3.180   8.660  0.2330  1.2682 -0.5019
 5571TIP3   OH238271   0.205   5.720   7.651  0.1247  0.6351 -0.2058
 5571TIP3    H138272   0.176   5.660   7.583 -0.0273  0.3185  0.1329
 5571TIP3    H238273   0.208   5.666   7.731  0.3540  0.9842  0.0244
 5572TIP3   OH238274   0.854   2.330   8.512  0.1132 -1.0369  0.1190
 5572TIP3    H138275   0.803   2.320   8.431 -1.5718 -4.0557  1.3447
 5572TIP3    H238276   0.798   2.382   8.569  1.6299  1.7557 -0.7709
 5573TIP3   OH238277   4.406   5.240   6.801  0.3634 -0.8478  0.1261
 5573TIP3    H138278   4.429   5.194   6.882  2.1215  0.0903  0.2144
 5573TIP3    H238279   4.377   5.171   6.742  0.3311 -1.7193  1.1211
 5574TIP3   OH238280   2.396   2.582   7.606  0.2768  0.2715 -0.6972
 5574TIP3    H138281   2.436   2.540   7.530  2.5604 -0.0818  0.6201
 5574TIP3    H238282   2.356   2.662   7.571  0.3203 -0.4318 -2.4174
 5575TIP3   OH238283   0.533   6.088   1.464 -0.2916 -0.2551  0.0671
 5575TIP3    H138284   0.516   6.102   1.557 -2.2237 -0.7017 -0.1711
 5575TIP3    H238285   0.456   6.125   1.420 -0.8108 -2.6195 -1.1664
 5576TIP3   OH238286   5.999   2.897   7.339 -0.7183  0.1826  0.3240
 5576TIP3    H138287   6.044   2.814   7.356 -0.2826  0.7991  2.5436
 5576TIP3    H238288   6.068   2.963   7.351 -1.4706  0.9477  0.4674
 5577TIP3   OH238289   4.558   0.915   8.431  0.2101 -0.0981 -0.1647
 5577TIP3    H138290   4.634   0.897   8.486 -1.2536  1.1904  2.4840
 5577TIP3    H238291   4.581   0.997   8.386  0.6163 -0.0195  0.1709
 5578TIP3   OH238292   1.547   2.278   2.226 -0.3625  0.2874 -0.3086
 5578TIP3    H138293   1.570   2.253   2.137  1.0601 -0.4881  0.2426
 5578TIP3    H238294   1.608   2.348   2.248 -0.8576  0.6331 -0.0128
 5579TIP3   OH238295   6.503   5.620   8.922  0.3856 -0.3566 -0.1070
 5579TIP3    H138296   6.539   5.646   9.007  0.9142 -0.8143 -0.1813
 5579TIP3    H238297   6.419   5.665   8.917  0.1953 -0.5789  0.8058
 5580TIP3   OH238298   1.078   4.494   1.094  0.1736  0.4304 -0.4395
 5580TIP3    H138299   1.074   4.480   1.000  0.8968  0.7086 -0.5194
 5580TIP3    H238300   1.112   4.583   1.104 -0.8713  0.7937  0.0860
 5581TIP3   OH238301   5.199   4.310   2.676 -0.3031  0.4789 -0.6777
 5581TIP3    H138302   5.159   4.397   2.684 -1.5286 -0.1054  0.0235
 5581TIP3    H238303   5.145   4.255   2.733  1.7597 -0.3087  0.6152
 5582TIP3   OH238304   3.678   2.209   1.690  0.1346 -0.2935 -0.3128
 5582TIP3    H138305   3.763   2.251   1.679  0.4550 -0.5973  0.8368
 5582TIP3    H238306   3.622   2.276   1.729  0.0865 -0.3348 -0.3099
 5583TIP3   OH238307   5.783   4.218   8.523 -0.5397  0.5007  0.1767
 5583TIP3    H138308   5.780   4.208   8.618 -2.0301 -0.1499  0.0773
 5583TIP3    H238309   5.732   4.297   8.504 -1.4251 -0.1404 -0.1726
 5584TIP3   OH238310   5.761   3.285   7.179 -0.1182 -0.5185 -0.0634
 5584TIP3    H138311   5.839   3.264   7.231 -0.5966  1.3437  1.5250
 5584TIP3    H238312   5.746   3.207   7.125  2.1775 -1.3491  0.3935
 5585TIP3   OH238313   1.343   4.815   1.011 -0.0407  0.2939 -0.3540
 5585TIP3    H138314   1.385   4.836   0.928  0.5725 -0.8799 -0.3548
 5585TIP3    H238315   1.269   4.759   0.987  0.3120 -0.2899 -0.0947
 5586TIP3   OH238316   5.986   1.318   7.782 -0.6282  0.1607  0.1906
 5586TIP3    H138317   5.901   1.350   7.752  0.2681  1.7081 -0.8327
 5586TIP3    H238318   6.040   1.397   7.790  0.5383 -0.7239  1.4376
 5587TIP3   OH238319   1.657   1.468   1.911 -0.1031 -0.6187 -0.2590
 5587TIP3    H138320   1.668   1.492   1.819 -0.8802  0.1667 -0.1610
 5587TIP3    H238321   1.625   1.548   1.953 -2.1125 -1.6058  0.2115
 5588TIP3   OH238322   2.862   5.295   2.189  0.2070 -0.5448  0.0890
 5588TIP3    H138323   2.875   5.300   2.095  0.8364 -1.0625  0.1396
 5588TIP3    H238324   2.780   5.341   2.205  0.0030 -0.6175 -0.7295
 5589TIP3   OH238325   6.583   0.144   8.599 -0.7907 -0.7155  0.0821
 5589TIP3    H138326   6.603   0.052   8.620 -1.0705 -0.6300  0.7189
 5589TIP3    H238327   6.566   0.185   8.684  2.1882  0.6221  0.1688
 5590TIP3   OH238328   2.965   4.004   1.173  0.3840 -0.3520 -0.1949
 5590TIP3    H138329   3.051   4.043   1.189 -0.3865  1.3354  0.0176
 5590TIP3    H238330   2.979   3.910   1.183  1.9143 -0.0190  1.1634
 5591TIP3   OH238331   6.253   0.851   2.174  0.0893  0.3425  0.3759
 5591TIP3    H138332   6.199   0.841   2.252  0.2849  1.5818  0.6947
 5591TIP3    H238333   6.193   0.885   2.108  0.8129  3.9118  1.3469
 5592TIP3   OH238334   4.095   5.708   1.449  0.4787 -0.4334  0.2787
 5592TIP3    H138335   4.164   5.660   1.495  1.0168 -0.4820 -0.5646
 5592TIP3    H238336   4.135   5.790   1.423  0.4748 -0.7820 -0.9015
 5593TIP3   OH238337   6.422   2.718   8.302 -0.1164 -0.4766  0.1873
 5593TIP3    H138338   6.417   2.623   8.318 -0.5614 -0.4612  0.1417
 5593TIP3    H238339   6.509   2.742   8.333  0.1610 -0.9757 -0.1772
 5594TIP3   OH238340   0.470   3.739   2.104  0.3441 -0.6617  0.3625
 5594TIP3    H138341   0.505   3.701   2.024 -0.7200  1.4584 -1.2364
 5594TIP3    H238342   0.376   3.719   2.101  0.0663  0.5447  0.3616
 5595TIP3   OH238343   2.152   3.616   1.394 -0.1477  0.5731  0.0584
 5595TIP3    H138344   2.246   3.599   1.391 -0.4420 -1.3388  0.7047
 5595TIP3    H238345   2.133   3.631   1.486 -0.2772  2.5101 -0.2330
 5596TIP3   OH238346   2.757   1.158   1.093  0.4456 -0.0260 -0.6453
 5596TIP3    H138347   2.760   1.107   1.174  1.5745 -1.2431 -1.4105
 5596TIP3    H238348   2.681   1.215   1.103 -0.6956 -1.6598  0.3820
 5597TIP3   OH238349   3.248   1.614   0.657 -0.4603  0.0739 -0.0185
 5597TIP3    H138350   3.224   1.528   0.623 -1.4781  0.0285  0.7517
 5597TIP3    H238351   3.336   1.602   0.693 -1.5752 -1.3973  2.4785
 5598TIP3   OH238352   5.140   2.314   0.588  0.0292 -0.2021 -0.6142
 5598TIP3    H138353   5.182   2.361   0.660 -2.0673  1.3292 -0.3036
 5598TIP3    H238354   5.211   2.293   0.528  1.3346  1.6093  0.2230
 5599TIP3   OH238355   0.655   0.901   8.088 -0.4543  0.2588 -0.1020
 5599TIP3    H138356   0.663   0.814   8.049  0.7940  0.6011 -0.6765
 5599TIP3    H238357   0.571   0.934   8.056 -0.3514 -0.2445 -0.9269
 5600TIP3   OH238358   2.811   2.720   8.509  0.1617  0.4061  0.1625
 5600TIP3    H138359   2.758   2.707   8.431 -0.8478  0.7360  0.7691
 5600TIP3    H238360   2.844   2.633   8.531  0.6189  0.3492 -0.7373
 5601TIP3   OH238361   1.086   3.610   6.874 -0.0121 -0.3570 -0.3610
 5601TIP3    H138362   1.078   3.514   6.878 -1.7348 -0.2169  1.8828
 5601TIP3    H238363   1.132   3.633   6.955 -0.1502  0.7460 -0.5938
 5602TIP3   OH238364   1.336   1.098   0.568  0.3505 -0.2259  0.3840
 5602TIP3    H138365   1.332   1.063   0.480 -0.9231  1.2948 -0.2123
 5602TIP3    H238366   1.424   1.137   0.574  0.4797 -0.4218 -0.1652
 5603TIP3   OH238367   0.055   4.376   6.628 -0.5532 -0.2873 -0.2083
 5603TIP3    H138368  -0.004   4.427   6.684  0.5466  0.0756  0.6532
 5603TIP3    H238369   0.030   4.285   6.644 -0.9856 -0.1298  0.0289
 5604TIP3   OH238370   1.396   5.922   1.032  0.3593 -0.3950  0.3858
 5604TIP3    H138371   1.334   5.931   1.105 -1.2175  0.6838 -1.0125
 5604TIP3    H238372   1.445   6.004   1.032  1.2227 -0.8982  0.9611
 5605TIP3   OH238373   0.860   2.844   0.234 -0.1374 -0.2491 -0.2391
 5605TIP3    H138374   0.819   2.804   0.157 -0.2667  0.6438 -0.6427
 5605TIP3    H238375   0.804   2.919   0.255  0.6477  0.3136 -0.0986
 5606TIP3   OH238376   4.025   0.803   2.356 -0.2143 -0.2953 -0.0276
 5606TIP3    H138377   4.011   0.896   2.336  0.7416 -0.0305  0.4774
 5606TIP3    H238378   3.976   0.788   2.436  0.1659 -0.0460  0.2593
 5607TIP3   OH238379   3.275   4.799   8.105 -0.2438  0.2980 -0.4026
 5607TIP3    H138380   3.313   4.717   8.073 -0.2323 -0.3996  1.3146
 5607TIP3    H238381   3.349   4.859   8.112  0.1591 -0.2992  0.5929
 5608TIP3   OH238382   4.215   0.185   0.552 -0.6497  0.1896 -0.3224
 5608TIP3    H138383   4.293   0.133   0.572 -1.1370 -1.3031 -2.0521
 5608TIP3    H238384   4.201   0.238   0.631  0.4532 -1.5879  1.1462
 5609TIP3   OH238385   3.872   3.413   8.181  0.6444  0.2187 -0.0066
 5609TIP3    H138386   3.904   3.328   8.209  0.8588  0.5410  0.7461
 5609TIP3    H238387   3.856   3.403   8.087  1.2289 -0.4675 -0.0367
 5610TIP3   OH238388   3.502   4.519   7.401  0.2859 -0.7515  0.4648
 5610TIP3    H138389   3.505   4.497   7.495  1.2075  0.6807  0.8094
 5610TIP3    H238390   3.517   4.436   7.356  0.9912 -1.2763  1.6219
 5611TIP3   OH238391   4.851   4.915   1.552 -0.0148 -0.4654 -0.0999
 5611TIP3    H138392   4.914   4.984   1.571  0.3570  0.0169 -2.6758
 5611TIP3    H238393   4.766   4.958   1.551 -0.6962 -1.2649  4.2077
 5612TIP3   OH238394   2.722   6.626   1.623  0.1731  0.2540  0.6226
 5612TIP3    H138395   2.751   6.575   1.547  0.1956 -0.5009  1.1255
 5612TIP3    H238396   2.788   6.609   1.690 -0.0639  0.5859  0.9476
 5613TIP3   OH238397   6.307   0.602   8.443 -0.1200 -0.2683 -0.4288
 5613TIP3    H138398   6.375   0.626   8.380 -0.7244  2.4879 -0.1649
 5613TIP3    H238399   6.330   0.513   8.471  2.1321 -0.2320 -1.9187
 5614TIP3   OH238400   0.295   0.109   1.753  0.4513  0.1075  0.1644
 5614TIP3    H138401   0.296   0.204   1.738  0.0774  0.1326  0.2729
 5614TIP3    H238402   0.212   0.081   1.714  0.6234 -0.1956  0.0162
 5615TIP3   OH238403   2.923   3.316   8.730 -0.3934 -0.3380 -0.4935
 5615TIP3    H138404   2.966   3.324   8.815  0.8942 -1.6262 -0.9727
 5615TIP3    H238405   2.830   3.323   8.749 -0.1755 -1.4709  1.1560
 5616TIP3   OH238406   5.392   1.667   7.015  0.1970  0.2458  0.6727
 5616TIP3    H138407   5.313   1.720   7.027 -0.2124 -0.1182 -0.2973
 5616TIP3    H238408   5.359   1.580   6.992  0.8290  0.6233 -1.9652
 5617TIP3   OH238409   4.467   1.349   8.595  0.3086 -0.2486 -0.6675
 5617TIP3    H138410   4.518   1.390   8.665 -1.7499 -0.9511  1.3812
 5617TIP3    H238411   4.533   1.319   8.532  2.2097  1.1624  0.5250
 5618TIP3   OH238412   4.234   0.080   0.235  0.2168  0.0067 -0.1030
 5618TIP3    H138413   4.303   0.129   0.189 -0.0368  1.8699  1.3885
 5618TIP3    H238414   4.280   0.028   0.300  0.3764 -0.6960 -0.7610
 5619TIP3   OH238415   1.078   0.537   1.634  0.7405 -0.5563 -0.4365
 5619TIP3    H138416   1.113   0.610   1.684 -1.2176  0.1944 -0.0751
 5619TIP3    H238417   1.105   0.556   1.543  0.4466  0.5004 -0.3181
 5620TIP3   OH238418   4.251   1.999   8.002 -0.1627 -0.0738  0.4709
 5620TIP3    H138419   4.296   1.941   7.941  2.3393 -0.6455  2.6491
 5620TIP3    H238420   4.194   1.940   8.053 -0.4585  0.0234  0.2577
 5621TIP3   OH238421   5.561   3.576   2.767 -0.8950  0.1888 -0.2006
 5621TIP3    H138422   5.654   3.558   2.781 -0.3905  0.1452 -3.0807
 5621TIP3    H238423   5.518   3.491   2.779 -0.2852 -0.2023 -0.7541
 5622TIP3   OH238424   5.037   5.445   0.085 -0.6833  0.1007 -0.4506
 5622TIP3    H138425   4.988   5.511   0.036 -2.8531 -0.2673  1.1015
 5622TIP3    H238426   5.027   5.365   0.034  0.5715  0.5695 -1.4854
 5623TIP3   OH238427   0.414   1.054   6.859 -0.5804 -0.2021  0.1612
 5623TIP3    H138428   0.396   1.141   6.895 -0.3247 -0.0030 -0.1893
 5623TIP3    H238429   0.445   1.070   6.770 -1.1231 -0.6916 -0.1244
 5624TIP3   OH238430   3.800   6.153   2.079  0.5087  0.2124  0.0728
 5624TIP3    H138431   3.889   6.123   2.065  0.4505  0.2320 -0.3367
 5624TIP3    H238432   3.776   6.198   1.998 -1.4743 -3.6598 -1.7829
 5625TIP3   OH238433   5.539   2.769   7.247 -0.4014  0.0101 -0.3232
 5625TIP3    H138434   5.553   2.813   7.331  2.0126  0.4349 -0.8484
 5625TIP3    H238435   5.628   2.759   7.211 -1.1573 -2.2986 -1.7561
 5626TIP3   OH238436   0.282   3.435   0.183 -0.0075  0.1925 -0.5094
 5626TIP3    H138437   0.322   3.349   0.173 -0.0368  0.2904 -1.5196
 5626TIP3    H238438   0.190   3.423   0.157 -0.1699  0.3941 -0.0492
 5627TIP3   OH238439   5.601   0.648   1.844  0.6308 -0.9047  0.2028
 5627TIP3    H138440   5.600   0.648   1.748  2.4786 -2.0159  0.1369
 5627TIP3    H238441   5.544   0.721   1.868  0.0830 -0.6333 -1.7305
 5628TIP3   OH238442   6.328   4.975   8.053 -0.0265 -0.2480 -0.4573
 5628TIP3    H138443   6.280   4.971   8.135 -0.0260  1.4255 -0.3552
 5628TIP3    H238444   6.403   5.031   8.072 -0.5195  0.9228 -1.8345
 5629TIP3   OH238445   1.569   2.130   7.471 -0.2341 -0.0752  0.1521
 5629TIP3    H138446   1.492   2.079   7.446 -1.1038  1.8115 -1.2593
 5629TIP3    H238447   1.607   2.159   7.388  2.2873 -1.2562  0.7854
 5630TIP3   OH238448   5.691   0.267   7.497  0.2330  0.0274  0.2032
 5630TIP3    H138449   5.677   0.263   7.402 -0.9720  0.5490  0.3369
 5630TIP3    H238450   5.723   0.356   7.513  0.2211  0.0143  0.3041
 5631TIP3   OH238451   0.085   5.700   7.175 -0.0246  0.0766  0.1096
 5631TIP3    H138452   0.033   5.621   7.169 -0.4482  0.4348 -1.1500
 5631TIP3    H238453   0.022   5.772   7.170  0.4806  0.5070 -0.2258
 5632TIP3   OH238454   4.214   5.490   8.125 -0.1313  0.5073  0.1463
 5632TIP3    H138455   4.268   5.430   8.176  0.8645  1.8678  0.7595
 5632TIP3    H238456   4.216   5.572   8.175 -3.8541  0.2880  0.9317
 5633TIP3   OH238457   2.673   0.848   8.647 -0.2445 -0.0657  0.6903
 5633TIP3    H138458   2.615   0.922   8.628 -2.3803 -1.2966  1.9994
 5633TIP3    H238459   2.761   0.887   8.651 -0.8214  1.7778 -1.9553
 5634TIP3   OH238460   0.308   3.080   8.507  0.3662  0.5516  0.2966
 5634TIP3    H138461   0.261   3.019   8.564  0.2713  0.3021 -0.0455
 5634TIP3    H238462   0.379   3.028   8.469  0.4633  0.7312  0.2271
 5635TIP3   OH238463   4.261   5.230   8.912 -0.2409 -0.0452  0.4246
 5635TIP3    H138464   4.316   5.248   8.989  0.9642 -0.1945 -0.3779
 5635TIP3    H238465   4.290   5.144   8.882  0.3638  0.6591 -1.0705
 5636TIP3   OH238466   1.603   1.364   2.891  0.0397  0.0684  0.0089
 5636TIP3    H138467   1.544   1.300   2.931 -0.5789  0.5390 -0.1279
 5636TIP3    H238468   1.660   1.392   2.962 -0.1681 -0.0930  0.2402
 5637TIP3   OH238469   6.246   4.566   2.333 -0.2340 -0.7704  0.2860
 5637TIP3    H138470   6.271   4.517   2.255  4.3628  0.6761  0.5634
 5637TIP3    H238471   6.216   4.500   2.395  1.5451 -2.7199 -0.8003
 5638TIP3   OH238472   1.889   2.943   8.467 -0.0684  0.7134 -0.2734
 5638TIP3    H138473   1.859   3.026   8.429 -1.0349  1.1308  1.3293
 5638TIP3    H238474   1.935   2.968   8.547  0.9992 -0.2161 -0.5726
 5639TIP3   OH238475   5.005   1.968   8.507  0.3743 -0.0966  0.2249
 5639TIP3    H138476   5.099   1.984   8.520  0.9535 -1.1065 -2.1826
 5639TIP3    H238477   4.984   1.900   8.571  1.7850 -1.2068 -0.4267
 5640TIP3   OH238478   1.990   6.469   6.765  0.2596 -0.0623 -0.5650
 5640TIP3    H138479   2.000   6.386   6.812 -1.9038 -0.1706 -0.1906
 5640TIP3    H238480   2.030   6.534   6.822  3.1887 -0.9528 -1.4696
 5641TIP3   OH238481   6.355   1.419   0.779  0.0695 -0.8722  0.5633
 5641TIP3    H138482   6.269   1.414   0.821  0.6118 -0.3775  1.7802
 5641TIP3    H238483   6.350   1.498   0.725 -0.3032 -0.9547  0.4722
 5642TIP3   OH238484   4.173   2.582   0.440  0.2486  0.3487  0.0191
 5642TIP3    H138485   4.225   2.657   0.414 -0.3795  0.1428 -2.0194
 5642TIP3    H238486   4.224   2.506   0.410  0.4768 -0.0292  1.2996
 5643TIP3   OH238487   5.790   0.292   0.657  0.2116  0.3049 -0.1649
 5643TIP3    H138488   5.785   0.284   0.752  1.4753 -2.0605 -0.2159
 5643TIP3    H238489   5.705   0.260   0.626  0.5146 -0.8046  0.1248
 5644TIP3   OH238490   5.810   4.299   8.790  0.1332  0.4428 -0.2244
 5644TIP3    H138491   5.890   4.291   8.842 -0.6786 -1.7989  0.7893
 5644TIP3    H238492   5.743   4.324   8.853 -0.1497  1.5175 -0.9293
 5645TIP3   OH238493   1.586   6.551   8.362  0.2497  0.0512  0.6531
 5645TIP3    H138494   1.649   6.480   8.371 -0.1053 -0.1473  1.6881
 5645TIP3    H238495   1.579   6.588   8.450  0.8921  1.7796  0.0079
 5646TIP3   OH238496   1.388   4.813   7.636 -0.8634  0.1504  0.3315
 5646TIP3    H138497   1.456   4.792   7.571 -2.2380  0.7257 -1.3609
 5646TIP3    H238498   1.348   4.729   7.657  2.0209 -0.6851  3.4626
 5647TIP3   OH238499   0.966   6.247   2.891  0.4486  0.0486 -0.3397
 5647TIP3    H138500   0.952   6.194   2.813  1.8224  1.3149 -1.5277
 5647TIP3    H238501   0.891   6.306   2.895  0.4470  0.0816 -0.8143
 5648TIP3   OH238502   6.474   2.833   7.418 -0.1915  0.1977  0.6128
 5648TIP3    H138503   6.553   2.819   7.367 -0.1021  1.6069  0.3180
 5648TIP3    H238504   6.430   2.748   7.419  0.5426 -0.2112 -0.5400
 5649TIP3   OH238505   5.546   2.445   8.330  0.6889 -0.0558  0.1702
 5649TIP3    H138506   5.634   2.483   8.335  1.1299 -0.7830 -1.4110
 5649TIP3    H238507   5.551   2.365   8.384  1.0314 -0.1552 -0.0082
 5650TIP3   OH238508   2.104   3.889   1.205  0.3269  0.3528 -0.2376
 5650TIP3    H138509   2.177   3.827   1.200 -0.3847 -0.6933  1.5198
 5650TIP3    H238510   2.141   3.967   1.248  0.1869 -0.6312  1.7767
 5651TIP3   OH238511   3.637   0.993   8.273 -0.2275  0.2942  0.0853
 5651TIP3    H138512   3.715   0.997   8.218 -0.6123 -2.0378 -0.7675
 5651TIP3    H238513   3.574   0.944   8.220 -1.5758  0.3949  1.5390
 5652TIP3   OH238514   1.024   0.836   7.781  0.4182 -0.1324  0.6298
 5652TIP3    H138515   1.056   0.919   7.817 -0.6146 -0.1824  1.7369
 5652TIP3    H238516   0.929   0.845   7.781  0.3047 -1.2217  0.5223
 5653TIP3   OH238517   2.540   5.273   0.428  0.3666  0.5655  0.2263
 5653TIP3    H138518   2.564   5.194   0.380  2.4430  0.9237  0.5709
 5653TIP3    H238519   2.512   5.241   0.514 -0.0662  0.1350 -0.0692
 5654TIP3   OH238520   4.737   0.061   2.398 -0.4760 -0.7665  0.2857
 5654TIP3    H138521   4.721   0.117   2.321  2.1325 -0.8965 -0.4397
 5654TIP3    H238522   4.776   0.120   2.462 -1.1626 -1.0086  0.9356
 5655TIP3   OH238523   0.732   4.407   0.974 -0.6202  0.5574 -0.4038
 5655TIP3    H138524   0.773   4.480   0.928 -0.0285 -0.1607 -1.0369
 5655TIP3    H238525   0.803   4.346   0.992 -1.0180  0.3520  0.5728
 5656TIP3   OH238526   2.203   4.729   8.437  0.5364 -0.0485  0.2212
 5656TIP3    H138527   2.241   4.659   8.490 -0.5755 -0.7380  0.1363
 5656TIP3    H238528   2.246   4.720   8.352 -0.9073 -1.8708 -0.3853
 5657TIP3   OH238529   3.615   2.361   0.246  0.5336  0.0017  0.7510
 5657TIP3    H138530   3.526   2.395   0.255  0.2789 -0.1061 -1.0381
 5657TIP3    H238531   3.661   2.429   0.197  1.3642 -0.0825  1.3998
 5658TIP3   OH238532   1.921   6.007   0.902  0.3172 -0.4710 -0.1533
 5658TIP3    H138533   1.880   6.044   0.981 -0.3719 -1.4727 -0.0096
 5658TIP3    H238534   1.856   6.021   0.833 -0.4646 -2.3244  0.1363
 5659TIP3   OH238535   5.690   6.288   0.161  0.7207 -0.2937 -0.3894
 5659TIP3    H138536   5.610   6.306   0.110 -0.9233  0.9585  2.3535
 5659TIP3    H238537   5.684   6.349   0.235  2.2240 -2.8590  2.0202
 5660TIP3   OH238538   0.730   1.389   7.645 -0.1556  0.2348  0.2143
 5660TIP3    H138539   0.753   1.455   7.710  0.5922  0.1084  0.0803
 5660TIP3    H238540   0.790   1.316   7.662 -0.5939 -0.1825 -0.0062
 5661TIP3   OH238541   3.174   4.323   8.588  0.1670  0.4189  0.5468
 5661TIP3    H138542   3.142   4.235   8.568  0.5411  0.2207  0.8005
 5661TIP3    H238543   3.252   4.308   8.641  0.4261  0.9014  0.3055
 5662TIP3   OH238544   6.214   1.435   0.139 -0.6554  0.5069 -0.2789
 5662TIP3    H138545   6.243   1.478   0.058  2.1303 -1.9164 -0.7666
 5662TIP3    H238546   6.201   1.344   0.113  0.2250 -0.3074  1.9407
 5663TIP3   OH238547   1.382   1.221   0.082  0.7449  0.2093  0.3468
 5663TIP3    H138548   1.297   1.224   0.125 -0.0730 -1.1864 -1.1086
 5663TIP3    H238549   1.383   1.298   0.025 -0.4911 -0.9136 -1.2670
 5664TIP3   OH238550   1.503   4.584   8.592 -0.2377 -0.2658  0.0420
 5664TIP3    H138551   1.542   4.615   8.674 -1.5775 -3.6737  2.1431
 5664TIP3    H238552   1.447   4.656   8.563  3.0890  2.5494 -0.1174
 5665TIP3   OH238553   0.693   1.756   8.141  0.3074 -0.1641  0.1405
 5665TIP3    H138554   0.689   1.671   8.185  0.4263 -0.5018 -0.4932
 5665TIP3    H238555   0.775   1.755   8.092  1.0805  0.9294  1.3432
 5666TIP3   OH238556   3.181   2.256   7.442  0.1349 -0.4551  0.0932
 5666TIP3    H138557   3.218   2.321   7.383  0.9712  0.6025  1.6899
 5666TIP3    H238558   3.087   2.274   7.442  0.2773  0.3296  0.0082
 5667TIP3   OH238559   2.748   0.762   0.454 -0.5538 -0.4577 -0.8842
 5667TIP3    H138560   2.808   0.837   0.450 -0.9084 -0.0738  0.5715
 5667TIP3    H238561   2.755   0.730   0.544 -0.2939 -2.2981 -1.5158
 5668TIP3   OH238562   2.329   1.879   8.029 -0.5006 -0.3514  0.6708
 5668TIP3    H138563   2.342   1.973   8.017  2.8886 -0.7156  0.3858
 5668TIP3    H238564   2.350   1.865   8.122 -0.1763 -0.9091  0.5150
 5669TIP3   OH238565   3.551   6.014   0.595 -0.8317 -0.7270  0.2714
 5669TIP3    H138566   3.637   6.055   0.606 -1.0915 -0.1890  0.3259
 5669TIP3    H238567   3.499   6.047   0.668 -1.8381  0.9259 -1.1220
 5670TIP3   OH238568   0.477   6.728   8.156 -0.8492  0.3225 -0.1194
 5670TIP3    H138569   0.424   6.804   8.176 -0.9382  0.4074 -0.6500
 5670TIP3    H238570   0.564   6.764   8.138 -0.7824  0.2552  0.0726
 5671TIP3   OH238571   5.031   3.505   1.446  0.6543  0.1393 -0.4248
 5671TIP3    H138572   5.067   3.462   1.369  0.2191 -1.0982  0.0453
 5671TIP3    H238573   4.987   3.583   1.411  0.0994 -0.6229 -1.4848
 5672TIP3   OH238574   3.981   5.319   1.508 -0.8379 -0.1335 -0.2637
 5672TIP3    H138575   4.034   5.250   1.548 -1.0779  0.7043  1.5715
 5672TIP3    H238576   4.000   5.312   1.414  1.2649 -0.8887  0.1619
 5673TIP3   OH238577   5.355   0.612   0.089  0.3362  0.2120  0.0237
 5673TIP3    H138578   5.399   0.695   0.108  1.6447 -0.5215  0.3540
 5673TIP3    H238579   5.325   0.581   0.174 -0.0790  0.3071 -0.0879
 5674TIP3   OH238580   3.084   1.155   2.763  0.5005  0.0647  0.5019
 5674TIP3    H138581   3.084   1.251   2.759 -1.1996  0.1044  0.8337
 5674TIP3    H238582   3.061   1.134   2.854 -2.8317 -0.5807 -0.3578
 5675TIP3   OH238583   6.318   5.526   0.412 -0.1405  0.4761 -0.1752
 5675TIP3    H138584   6.324   5.569   0.327 -0.0418  1.0187  0.1012
 5675TIP3    H238585   6.351   5.590   0.474  1.2009 -0.4617  0.1136
 5676TIP3   OH238586   2.281   4.904   8.774  0.2713 -0.5160  0.1478
 5676TIP3    H138587   2.363   4.889   8.726 -0.2295  0.7294 -1.1361
 5676TIP3    H238588   2.270   4.999   8.774 -0.2449 -0.5490  1.9293
 5677TIP3   OH238589   0.106   1.302   1.572 -0.1097  0.4457  0.4426
 5677TIP3    H138590   0.142   1.272   1.656 -0.8977  1.1748  1.0675
 5677TIP3    H238591   0.181   1.339   1.526  0.8464 -2.1316 -0.2504
 5678TIP3   OH238592   6.277   4.770   0.760  0.3310  0.7430  0.3059
 5678TIP3    H138593   6.328   4.707   0.710 -0.0586  0.4080  0.3210
 5678TIP3    H238594   6.248   4.834   0.696 -3.0343 -1.4895 -0.6510
 5679TIP3   OH238595   5.249   0.576   8.756  0.6305 -0.5488  0.2734
 5679TIP3    H138596   5.224   0.666   8.736  1.6438 -0.6979 -1.8408
 5679TIP3    H238597   5.285   0.581   8.845  1.7869  1.3622 -0.2472
 5680TIP3   OH238598   3.380   3.750   2.200 -0.5470 -0.2563 -0.7638
 5680TIP3    H138599   3.310   3.735   2.136 -1.4896 -2.8586  0.7181
 5680TIP3    H238600   3.335   3.780   2.279 -0.1869 -2.4740  0.3840
 5681TIP3   OH238601   6.505   0.242   1.914  0.3385  0.9955 -0.2011
 5681TIP3    H138602   6.465   0.238   1.827  0.9119 -1.4544 -0.3999
 5681TIP3    H238603   6.599   0.232   1.898  0.3543 -0.6379  0.7424
 5682TIP3   OH238604   1.413   2.602   1.279  0.7172  1.0560 -0.7289
 5682TIP3    H138605   1.446   2.691   1.294 -1.1175  1.6566 -0.0392
 5682TIP3    H238606   1.323   2.615   1.249 -0.0910 -0.5986  0.8379
 5683TIP3   OH238607   4.143   4.644   2.487 -0.2643 -0.1732 -0.2821
 5683TIP3    H138608   4.083   4.593   2.431  0.9529  1.1322 -2.9529
 5683TIP3    H238609   4.087   4.678   2.557 -2.3291 -0.3570 -1.7495
 5684TIP3   OH238610   4.670   4.452   6.756  0.5948  0.5309  0.2838
 5684TIP3    H138611   4.628   4.515   6.813 -2.3650 -1.4178  0.4744
 5684TIP3    H238612   4.698   4.503   6.680 -1.8730  2.0830  0.3238
 5685TIP3   OH238613   3.176   2.283   8.495 -0.1505 -0.1978  0.4497
 5685TIP3    H138614   3.106   2.309   8.555 -1.7686  0.8790 -1.7998
 5685TIP3    H238615   3.224   2.216   8.543 -1.2508  0.6945  3.0019
 5686TIP3   OH238616   3.643   3.659   6.809  0.1849 -1.0133 -0.1472
 5686TIP3    H138617   3.661   3.749   6.781  1.2003 -1.5980 -1.4847
 5686TIP3    H238618   3.548   3.657   6.824  0.4195  0.8346  2.0969
 5687TIP3   OH238619   2.492   5.879   0.448 -0.4118  0.2408 -0.2381
 5687TIP3    H138620   2.443   5.797   0.442 -1.3371  0.6485  1.1443
 5687TIP3    H238621   2.556   5.863   0.518  0.4515  0.2091 -1.0146
 5688TIP3   OH238622   6.465   1.417   1.607 -0.5212 -0.4573  0.3411
 5688TIP3    H138623   6.382   1.388   1.568 -0.0767 -0.3923 -0.6765
 5688TIP3    H238624   6.514   1.454   1.534  0.2129 -0.0475  1.0296
 5689TIP3   OH238625   1.558   3.640   7.132 -0.2472 -0.0284  0.0233
 5689TIP3    H138626   1.524   3.718   7.088  1.0931 -0.0029 -1.0240
 5689TIP3    H238627   1.589   3.672   7.217  0.2974  0.5908 -0.4009
 5690TIP3   OH238628   3.160   0.625   8.286  0.5178 -0.2066  0.2629
 5690TIP3    H138629   3.122   0.608   8.372 -1.2683  0.3757 -0.3537
 5690TIP3    H238630   3.094   0.679   8.242  0.3435 -2.2670 -2.2414
 5691TIP3   OH238631   5.059   1.878   1.088 -0.0747 -0.1744  0.3373
 5691TIP3    H138632   5.135   1.850   1.138  0.9900 -0.7516 -1.5256
 5691TIP3    H238633   5.077   1.969   1.066  0.3557 -0.4740 -0.5761
 5692TIP3   OH238634   6.495   6.038   8.046  0.4539  0.2782  0.1044
 5692TIP3    H138635   6.468   6.004   8.131  1.1537 -1.6011 -0.3845
 5692TIP3    H238636   6.421   6.019   7.988  0.6178  0.0928 -0.0456
 5693TIP3   OH238637   3.430   0.494   0.227 -0.3680 -0.1390  0.2561
 5693TIP3    H138638   3.495   0.424   0.217 -1.3704 -1.1793  0.7740
 5693TIP3    H238639   3.464   0.566   0.174  0.9689 -0.8177  0.1493
 5694TIP3   OH238640   1.347   1.162   7.950  0.2562 -0.1447 -0.1899
 5694TIP3    H138641   1.412   1.148   7.881 -1.7660 -0.7044 -2.0649
 5694TIP3    H238642   1.264   1.172   7.904 -0.5577  5.2401  1.7025
 5695TIP3   OH238643   4.452   2.671   0.420  0.6067  0.2229 -0.2782
 5695TIP3    H138644   4.523   2.646   0.479  1.1070 -0.0947 -1.0063
 5695TIP3    H238645   4.466   2.619   0.341  0.7190  1.5909 -1.1965
 5696TIP3   OH238646   0.177   2.535   0.389  0.3989  0.0367  0.2713
 5696TIP3    H138647   0.138   2.448   0.401  1.3078 -0.3601  0.4101
 5696TIP3    H238648   0.115   2.582   0.333  0.1708 -0.8795 -0.2490
 5697TIP3   OH238649   5.532   1.286   1.578  0.0685 -0.4323 -0.2714
 5697TIP3    H138650   5.569   1.369   1.545  0.6017 -0.1360  0.9987
 5697TIP3    H238651   5.552   1.222   1.509 -1.3567  0.6874 -1.8067
 5698TIP3   OH238652   3.878   1.285   8.082  0.1973 -0.4936  0.4072
 5698TIP3    H138653   3.818   1.342   8.034 -1.2145 -1.4050  1.0351
 5698TIP3    H238654   3.915   1.341   8.150 -1.3133 -0.3282  1.1333
 5699TIP3   OH238655   6.700   1.047   8.748  0.1664 -0.7638  0.4746
 5699TIP3    H138656   6.738   1.131   8.774 -0.7406 -0.1449 -0.1734
 5699TIP3    H238657   6.616   1.044   8.793  0.3435 -1.4881  0.7700
 5700TIP3   OH238658   5.586   0.386   2.293  0.1652  0.0414  0.0106
 5700TIP3    H138659   5.631   0.363   2.375  1.3575 -0.0767 -0.6601
 5700TIP3    H238660   5.526   0.456   2.318 -0.5753 -1.0017  1.2806
 5701TIP3   OH238661   0.488   1.774   2.196  0.1570 -0.4704 -0.0828
 5701TIP3    H138662   0.491   1.780   2.292 -0.7792 -1.8187  0.0539
 5701TIP3    H238663   0.572   1.735   2.172  1.1396  1.4767  0.0100
 5702TIP3   OH238664   5.594   4.852   1.930  0.0055  0.2990 -0.0126
 5702TIP3    H138665   5.592   4.874   2.024 -0.7625  0.8927 -0.1615
 5702TIP3    H238666   5.603   4.936   1.886 -0.7862  0.1388 -0.5069
 5703TIP3   OH238667   0.907   2.331   2.050 -0.5071  0.4004 -0.0592
 5703TIP3    H138668   0.854   2.259   2.016 -0.4356  0.8599 -1.1969
 5703TIP3    H238669   0.844   2.392   2.088 -0.9637  1.4455 -2.3258
 5704TIP3   OH238670   3.806   6.077   8.152 -0.0029  0.2658  0.0783
 5704TIP3    H138671   3.857   6.092   8.072  2.2607 -0.0427  1.3942
 5704TIP3    H238672   3.807   5.982   8.163  0.1970  0.3397  0.7553
 5705TIP3   OH238673   3.846   5.090   0.219  0.0026 -0.1703 -0.2295
 5705TIP3    H138674   3.814   5.159   0.161 -0.4547 -0.1737  0.0153
 5705TIP3    H238675   3.938   5.080   0.195  0.6540  1.9239  1.0694
 5706TIP3   OH238676   2.949   4.990   1.765  0.2903  0.0774 -0.2731
 5706TIP3    H138677   2.927   4.898   1.777 -0.1831  0.1090 -0.8732
 5706TIP3    H238678   3.005   5.011   1.840  2.3485 -1.3017 -1.3371
 5707TIP3   OH238679   3.059   3.979   2.251  0.7122  0.2931 -0.4031
 5707TIP3    H138680   3.015   4.035   2.315  0.6023 -0.1603 -0.0758
 5707TIP3    H238681   3.127   3.934   2.301  0.4957 -0.2117 -0.5592
 5708TIP3   OH238682   0.063   5.728   1.255  0.4918  0.0765 -0.6619
 5708TIP3    H138683   0.146   5.759   1.291  0.0364  0.2827  0.2445
 5708TIP3    H238684   0.079   5.636   1.234  0.5083 -0.3313  0.9886
 5709TIP3   OH238685   2.267   6.666   0.926 -0.2476 -0.6090  0.1046
 5709TIP3    H138686   2.240   6.597   0.986 -1.1998  1.4088  2.1672
 5709TIP3    H238687   2.184   6.702   0.892 -0.0447  1.6406  1.7276
 5710TIP3   OH238688   3.299   3.337   1.810  0.2876  0.2554 -0.3509
 5710TIP3    H138689   3.288   3.429   1.787  0.5629  0.7887  1.4293
 5710TIP3    H238690   3.392   3.330   1.834 -0.1533  0.0377  1.4519
 5711TIP3   OH238691   2.164   5.084   2.097 -0.0449  0.2179  0.0087
 5711TIP3    H138692   2.260   5.080   2.104 -0.1554 -2.0560  1.1085
 5711TIP3    H238693   2.140   5.165   2.143  1.3132  0.6982 -0.0664
 5712TIP3   OH238694   6.047   6.243   1.464 -0.0020 -0.4183 -0.1927
 5712TIP3    H138695   6.136   6.216   1.443 -0.5523 -2.9456  0.3552
 5712TIP3    H238696   6.006   6.165   1.501 -2.5267  0.5919 -0.6175
 5713TIP3   OH238697   4.679   4.147   1.295 -0.5238 -0.0718 -0.7387
 5713TIP3    H138698   4.742   4.216   1.279 -0.2591 -0.3891 -1.0866
 5713TIP3    H238699   4.725   4.084   1.351  0.0676 -1.1366 -2.3569
 5714TIP3   OH238700   6.713   3.653   0.509 -0.5690 -0.0499  0.5367
 5714TIP3    H138701   6.679   3.677   0.595 -1.3045  0.5188  0.1002
 5714TIP3    H238702   6.704   3.558   0.506  0.0846 -0.1534  1.3357
 5715TIP3   OH238703   0.662   6.288   0.792  0.8863  0.1585 -0.2931
 5715TIP3    H138704   0.702   6.204   0.769  0.8415 -0.0867  0.5014
 5715TIP3    H238705   0.632   6.324   0.709  2.9031  0.4301 -0.9574
 5716TIP3   OH238706   2.626   4.832   1.719 -0.1028 -0.1935 -0.0053
 5716TIP3    H138707   2.650   4.784   1.798 -0.0413 -0.8720 -0.4263
 5716TIP3    H238708   2.702   4.824   1.661 -0.0056  0.6133  0.0102
 5717TIP3   OH238709   6.718   4.008   2.215  0.1352 -0.5016  0.2646
 5717TIP3    H138710   6.729   3.923   2.173  1.8443 -0.5896  0.7873
 5717TIP3    H238711   6.740   4.071   2.146 -0.6914 -0.4930  0.0035
 5718TIP3   OH238712   3.516   4.739   8.304 -0.2312  0.4578  0.4901
 5718TIP3    H138713   3.548   4.653   8.332 -1.4796 -0.0163  0.5276
 5718TIP3    H238714   3.462   4.770   8.377 -1.0785  0.5529 -0.1659
 5719TIP3   OH238715   6.154   2.744   1.847 -0.9746  0.4764  0.0162
 5719TIP3    H138716   6.149   2.829   1.889  0.9388 -0.7491  3.0229
 5719TIP3    H238717   6.209   2.759   1.769 -1.2182  2.0637  0.1227
 5720TIP3   OH238718   6.770   1.386   7.562  0.0792 -0.0682 -0.2127
 5720TIP3    H138719   6.833   1.418   7.497  0.9445 -1.7618 -0.2649
 5720TIP3    H238720   6.698   1.351   7.510 -1.2884  2.4184 -0.1491
 5721TIP3   OH238721   4.597   6.480   2.105  0.4090  0.1021 -0.3057
 5721TIP3    H138722   4.671   6.477   2.165  0.9800  0.7025 -0.9673
 5721TIP3    H238723   4.622   6.421   2.034 -0.4597 -0.9610  0.2431
 5722TIP3   OH238724   3.712   0.360   1.625  0.1767 -0.1693  0.5469
 5722TIP3    H138725   3.768   0.310   1.566 -0.3416  1.9096 -1.8708
 5722TIP3    H238726   3.639   0.302   1.644  1.1578 -1.4618  0.4999
 5723TIP3   OH238727   6.446   2.582   7.712 -0.0674 -0.1633 -0.7325
 5723TIP3    H138728   6.394   2.608   7.788 -0.0475 -0.7168 -0.5255
 5723TIP3    H238729   6.487   2.500   7.738  2.4882  1.1746 -0.1620
 5724TIP3   OH238730   4.026   4.482   8.491  0.0817  0.7864 -0.2439
 5724TIP3    H138731   4.047   4.404   8.441 -0.5809 -0.6580  1.6147
 5724TIP3    H238732   4.060   4.465   8.579 -2.1454  1.5179  0.8550
 5725TIP3   OH238733   5.502   5.551   8.907 -0.1691  0.1357 -0.0276
 5725TIP3    H138734   5.519   5.482   8.971  0.0227  1.3277  1.2585
 5725TIP3    H238735   5.467   5.505   8.831 -0.9967 -1.2735  1.1535
 5726TIP3   OH238736   6.551   4.815   7.276  0.0510 -0.3290 -0.0146
 5726TIP3    H138737   6.483   4.872   7.311  0.0424 -0.4525  0.1664
 5726TIP3    H238738   6.632   4.845   7.318  0.3318  0.6981 -1.2230
 5727TIP3   OH238739   3.201   0.409   0.101 -0.0569 -0.2132 -0.2275
 5727TIP3    H138740   3.278   0.411   0.158  1.1748 -1.6348 -1.7177
 5727TIP3    H238741   3.127   0.396   0.160  1.0907 -0.9728  1.1073
 5728TIP3   OH238742   0.310   2.175   7.657 -0.5574 -0.4841 -0.9104
 5728TIP3    H138743   0.367   2.199   7.585 -0.3082 -0.6698 -0.7750
 5728TIP3    H238744   0.367   2.170   7.734 -0.7361 -0.7565 -0.7905
 5729TIP3   OH238745   0.864   3.424   0.844 -0.0483  0.1620 -0.0439
 5729TIP3    H138746   0.954   3.425   0.810  0.8517 -0.0222  2.1312
 5729TIP3    H238747   0.842   3.331   0.848 -0.5568  0.2317 -1.0736
 5730TIP3   OH238748   1.177   5.709   0.335 -0.0754 -0.0633  0.6009
 5730TIP3    H138749   1.094   5.742   0.301  0.7826 -0.0534 -1.6890
 5730TIP3    H238750   1.190   5.756   0.417 -2.2704 -0.0086  0.9661
 5731TIP3   OH238751   5.899   3.177   8.905 -0.3311  0.8339 -0.9283
 5731TIP3    H138752   5.985   3.198   8.870  0.1707  0.3041 -0.0603
 5731TIP3    H238753   5.912   3.170   8.999 -1.2955  0.6123 -0.7938
 5732TIP3   OH238754   2.707   1.909   1.189  0.2272 -0.1256  0.2222
 5732TIP3    H138755   2.639   1.845   1.165  0.1155  0.2090 -0.3717
 5732TIP3    H238756   2.778   1.856   1.226 -0.1884 -0.5182  0.4578
 5733TIP3   OH238757   1.225   3.007   1.023 -0.0376  0.6307  0.4505
 5733TIP3    H138758   1.158   2.965   0.969  0.8573 -0.6419  0.2675
 5733TIP3    H238759   1.194   2.995   1.113 -0.5735  1.0033  0.3182
 5734TIP3   OH238760   1.155   4.231   1.141 -0.0243  0.4982  0.0675
 5734TIP3    H138761   1.171   4.240   1.047 -2.1678 -0.8011 -0.4963
 5734TIP3    H238762   1.114   4.314   1.167 -1.6863 -0.0091 -0.7523
 5735TIP3   OH238763   5.491   0.740   2.585 -1.0573 -0.2319  0.1002
 5735TIP3    H138764   5.488   0.684   2.508 -1.7341  0.1384 -0.1526
 5735TIP3    H238765   5.532   0.821   2.555 -1.1820 -0.1431  0.1675
 5736TIP3   OH238766   2.063   6.306   0.334  0.2784 -0.1819  0.0985
 5736TIP3    H138767   2.012   6.252   0.394 -0.6025  1.1541  0.5880
 5736TIP3    H238768   2.016   6.302   0.252 -1.2342  1.7971  0.7883
 5737TIP3   OH238769   5.391   2.404   1.918 -0.0692  0.0809  0.3789
 5737TIP3    H138770   5.342   2.321   1.916 -2.4053  1.2890  2.0197
 5737TIP3    H238771   5.468   2.385   1.972  0.3622 -1.4165 -0.7031
 5738TIP3   OH238772   6.374   2.382   0.996  0.0121  0.3209  0.1702
 5738TIP3    H138773   6.395   2.374   1.089 -0.3760  2.7666  0.5349
 5738TIP3    H238774   6.286   2.344   0.988  0.3274 -0.5283  0.6484
 5739TIP3   OH238775   5.923   3.699   7.832 -0.1918  0.5244  0.0703
 5739TIP3    H138776   5.843   3.650   7.813 -0.0880  0.9024 -1.4303
 5739TIP3    H238777   5.924   3.771   7.769  0.1193  1.9630  1.6327
 5740TIP3   OH238778   0.145   6.688   1.067  0.5561  0.1357 -0.1116
 5740TIP3    H138779   0.051   6.709   1.068  0.4044 -0.4865  1.4931
 5740TIP3    H238780   0.150   6.600   1.030  0.1518 -1.0669  2.4512
 5741TIP3   OH238781   1.497   4.318   8.641  0.0290  0.4829 -0.3294
 5741TIP3    H138782   1.498   4.409   8.610  0.8564  0.6823  0.2298
 5741TIP3    H238783   1.588   4.289   8.634 -0.4011 -0.6622 -1.4716
 5742TIP3   OH238784   3.800   6.235   0.910  0.2054  1.1281 -0.2811
 5742TIP3    H138785   3.809   6.291   0.832  0.6458  1.4224 -0.0249
 5742TIP3    H238786   3.784   6.148   0.874 -2.3404  1.6708 -0.6765
 5743TIP3   OH238787   6.556   0.513   1.181 -0.1462  0.3513  0.4426
 5743TIP3    H138788   6.588   0.552   1.262  1.6211 -1.0700  0.4875
 5743TIP3    H238789   6.628   0.526   1.118  0.1795 -2.0163  0.2423
 5744TIP3   OH238790   5.454   5.510   7.828  0.3697 -0.3315 -0.0108
 5744TIP3    H138791   5.532   5.470   7.788 -0.2384 -1.9767  0.3765
 5744TIP3    H238792   5.455   5.479   7.918 -0.0990  0.6366  0.3385
 5745TIP3   OH238793   5.407   3.799   8.162  0.2037 -0.0863 -0.4621
 5745TIP3    H138794   5.487   3.756   8.192  1.0456  1.6832 -0.0373
 5745TIP3    H238795   5.431   3.840   8.079 -0.9270 -1.3837 -1.4816
 5746TIP3   OH238796   5.410   4.376   8.309 -0.3230 -0.3533 -0.1684
 5746TIP3    H138797   5.351   4.302   8.301  0.1031 -0.7284  0.1125
 5746TIP3    H238798   5.354   4.453   8.297 -0.1827 -0.7013 -4.7209
 5747TIP3   OH238799   6.597   5.635   1.141 -0.2912  0.0024  0.4317
 5747TIP3    H138800   6.670   5.661   1.197 -0.8948  1.4173  0.5989
 5747TIP3    H238801   6.528   5.698   1.161 -0.9132 -0.1613 -1.0846
 5748TIP3   OH238802   6.374   4.591   1.336  0.0586 -0.7835  0.1942
 5748TIP3    H138803   6.446   4.644   1.302 -0.1568 -0.1994  0.6124
 5748TIP3    H238804   6.309   4.590   1.265  0.6224 -1.6256 -0.3257
 5749TIP3   OH238805   2.234   1.086   0.502 -0.6286 -0.1424  0.0449
 5749TIP3    H138806   2.224   1.001   0.461  0.7298 -0.7464  0.8993
 5749TIP3    H238807   2.285   1.069   0.581 -1.3948  1.2878  0.8955
 5750TIP3   OH238808   5.676   2.929   7.931  0.0205  0.3448  0.1078
 5750TIP3    H138809   5.659   2.838   7.906  1.2832  0.1207 -0.0286
 5750TIP3    H238810   5.601   2.954   7.984 -0.4076 -0.7394  0.0445
 5751TIP3   OH238811   2.948   1.877   0.871 -0.4042 -0.0884 -0.0219
 5751TIP3    H138812   3.020   1.877   0.934 -0.7854 -0.3455  0.4154
 5751TIP3    H238813   2.884   1.816   0.907 -1.0540  0.4926 -0.1662
 5752TIP3   OH238814   5.099   3.397   1.685 -0.1587 -0.2177  0.3228
 5752TIP3    H138815   5.144   3.320   1.650 -2.7261 -1.6461 -0.0741
 5752TIP3    H238816   5.096   3.459   1.612  2.3660  0.5569  0.7898
 5753TIP3   OH238817   2.394   1.256   1.713  0.4012 -0.6112  0.0314
 5753TIP3    H138818   2.451   1.201   1.660  0.8523  0.0929 -0.2269
 5753TIP3    H238819   2.331   1.293   1.652 -0.1567 -1.1453  0.2688
 5754TIP3   OH238820   5.781   4.669   2.226  0.0465 -0.0627 -0.1150
 5754TIP3    H138821   5.698   4.717   2.225 -0.2276 -0.5311 -1.1568
 5754TIP3    H238822   5.819   4.689   2.312 -1.6503 -0.7238  0.8528
 5755TIP3   OH238823   2.916   5.575   0.608 -0.4805 -1.0394 -0.1952
 5755TIP3    H138824   2.956   5.622   0.682 -0.0870  0.7262 -1.4719
 5755TIP3    H238825   2.840   5.531   0.646  0.8687 -1.8898  1.6695
 5756TIP3   OH238826   5.927   2.601   2.577  0.3324 -0.3622 -0.3599
 5756TIP3    H138827   5.883   2.642   2.503 -0.6841  2.0105  1.4437
 5756TIP3    H238828   5.855   2.567   2.631  1.0305 -1.5519 -0.1504
 5757TIP3   OH238829   2.817   3.098   1.775 -0.2621  0.8512  0.2322
 5757TIP3    H138830   2.723   3.081   1.781 -0.1916  0.8930  2.2777
 5757TIP3    H238831   2.859   3.017   1.806  0.3678  1.0793  0.0067
 5758TIP3   OH238832   2.540   2.736   2.574  0.5497 -0.1692  0.5062
 5758TIP3    H138833   2.585   2.813   2.607  0.0040  0.6874 -0.6655
 5758TIP3    H238834   2.460   2.730   2.626  1.2624 -0.8120  1.5677
 5759TIP3   OH238835   2.593   4.039   0.111 -0.1817 -0.3390 -0.8475
 5759TIP3    H138836   2.527   4.039   0.180  0.9267  1.6682  0.3257
 5759TIP3    H238837   2.543   4.036   0.030 -1.7540  1.0741  0.0024
 5760TIP3   OH238838   1.234   5.029   8.472  0.3894 -0.2595 -0.1146
 5760TIP3    H138839   1.190   5.073   8.545  0.0909  1.4451 -1.2359
 5760TIP3    H238840   1.291   5.097   8.435  1.4512 -1.4516 -0.7305
 5761TIP3   OH238841   2.903   3.787   2.172  0.1298  0.3642  0.5109
 5761TIP3    H138842   2.963   3.857   2.199 -0.3582 -0.0429  2.8822
 5761TIP3    H238843   2.818   3.830   2.165  0.2320  0.4454 -0.4237
 5762TIP3   OH238844   4.898   2.281   0.446 -0.5067 -0.5604 -0.1209
 5762TIP3    H138845   4.960   2.218   0.408 -1.5596 -1.3848 -0.5105
 5762TIP3    H238846   4.949   2.326   0.514  0.5984 -1.0118 -0.6135
 5763TIP3   OH238847   0.205   0.189   1.153  0.4551 -0.4186  0.2255
 5763TIP3    H138848   0.197   0.186   1.249 -1.7544  0.9256  0.1547
 5763TIP3    H238849   0.173   0.104   1.123 -1.1771  0.0001  0.6417
 5764TIP3   OH238850   3.182   6.391   2.482 -0.3061 -0.7246  0.3849
 5764TIP3    H138851   3.190   6.486   2.484  0.0311 -0.7491  0.1852
 5764TIP3    H238852   3.271   6.358   2.490 -0.2821 -1.0051 -0.7597
 5765TIP3   OH238853   6.481   0.028   0.968  0.2515  0.2277 -0.1380
 5765TIP3    H138854   6.490   0.112   1.012 -0.5670  0.4071 -0.2891
 5765TIP3    H238855   6.413   0.043   0.902  0.1040 -0.5411 -0.1707
 5766TIP3   OH238856   5.579   2.875   1.094 -0.0175  0.1571 -0.3955
 5766TIP3    H138857   5.544   2.790   1.122 -0.5158  0.7207  0.7715
 5766TIP3    H238858   5.502   2.929   1.080  0.2394  0.0828 -2.3849
 5767TIP3   OH238859   5.155   0.719   1.449  0.0879  0.1043 -0.1954
 5767TIP3    H138860   5.178   0.629   1.429 -0.9013 -0.5638  1.4314
 5767TIP3    H238861   5.060   0.718   1.461  0.0882  1.2976  0.1415
 5768TIP3   OH238862   1.536   0.350   0.492  0.5867  0.0970 -0.1389
 5768TIP3    H138863   1.461   0.346   0.433 -0.5634 -0.3540  1.2807
 5768TIP3    H238864   1.498   0.374   0.577  2.0348 -0.2887  0.6474
 5769TIP3   OH238865   5.211   3.084   7.979 -0.0920  0.4543  0.0087
 5769TIP3    H138866   5.195   3.175   7.953 -1.4859  0.0648 -0.5792
 5769TIP3    H238867   5.154   3.070   8.054 -0.9747 -0.3329 -0.7781
 5770TIP3   OH238868   5.421   4.614   2.942  1.0335 -0.2874 -0.4138
 5770TIP3    H138869   5.422   4.544   2.877 -1.1936 -0.0098 -0.8200
 5770TIP3    H238870   5.480   4.583   3.011 -0.2146 -2.7988 -0.3623
 5771TIP3   OH238871   3.458   1.552   0.242  0.3302  0.2974  0.1618
 5771TIP3    H138872   3.546   1.586   0.254  0.4678  0.3261 -0.8359
 5771TIP3    H238873   3.470   1.474   0.187 -0.1586 -0.3384  0.9359
 5772TIP3   OH238874   1.038   0.103   8.193 -0.0610 -0.3431 -0.3356
 5772TIP3    H138875   1.068   0.012   8.180  1.2306 -0.0186  0.1478
 5772TIP3    H238876   1.100   0.139   8.256 -1.7688  0.2858  1.0548
 5773TIP3   OH238877   3.424   3.526   1.604  0.5613  0.0234  0.3326
 5773TIP3    H138878   3.392   3.575   1.679 -0.5706 -1.5202  0.9207
 5773TIP3    H238879   3.510   3.494   1.631  0.6381  0.3961  0.5287
 5774TIP3   OH238880   5.385   3.492   7.429 -0.4577  0.1709 -0.4902
 5774TIP3    H138881   5.459   3.449   7.473 -0.5027 -2.0542 -2.4271
 5774TIP3    H238882   5.390   3.462   7.338 -1.8939  2.5362 -1.4532
 5775TIP3   OH238883   3.393   4.052   0.386  0.1312 -0.6238 -0.5145
 5775TIP3    H138884   3.318   3.994   0.384 -0.4701 -0.1497  2.7721
 5775TIP3    H238885   3.463   4.000   0.425  0.8502 -0.3820 -1.4537
 5776TIP3   OH238886   2.553   3.497   0.414  0.1347 -0.5232 -0.4674
 5776TIP3    H138887   2.631   3.495   0.469 -0.5314 -0.3794  0.5201
 5776TIP3    H238888   2.486   3.453   0.466 -0.7415  0.3770 -0.7922
 5777TIP3   OH238889   4.039   6.248   8.766 -0.3903 -0.3712  0.2023
 5777TIP3    H138890   3.961   6.206   8.728  0.1545 -0.0862 -1.3114
 5777TIP3    H238891   4.076   6.299   8.694  0.4065  0.6545  1.2933
 5778TIP3   OH238892   2.873   0.764   0.146  0.4193 -0.7623  0.5009
 5778TIP3    H138893   2.958   0.746   0.186  0.4853  0.7525  1.0899
 5778TIP3    H238894   2.833   0.829   0.203  0.5126  1.5364 -1.8739
 5779TIP3   OH238895   4.980   6.572   8.245  0.2913  0.2553  0.4424
 5779TIP3    H138896   5.003   6.624   8.168 -0.6514  1.0805  0.6930
 5779TIP3    H238897   5.036   6.608   8.315  0.3154  0.2986  0.4015
 5780TIP3   OH238898   6.754   1.940   2.613 -0.7778 -0.1851 -0.3375
 5780TIP3    H138899   6.733   2.031   2.633 -0.5770 -0.4343  1.0907
 5780TIP3    H238900   6.708   1.889   2.680  0.3843 -1.0270 -0.1531
 5781TIP3   OH238901   3.919   6.021   7.871  0.1004  0.4767  0.3501
 5781TIP3    H138902   3.853   5.978   7.816 -0.3009  0.8403  0.5379
 5781TIP3    H238903   3.960   5.949   7.920 -0.7508  0.3253  0.8613
 5782TIP3   OH238904   1.058   2.572   8.620  0.1084 -0.1640  0.1741
 5782TIP3    H138905   1.014   2.518   8.685  1.4434  0.1815  1.4065
 5782TIP3    H238906   0.989   2.629   8.586 -0.6657 -0.5169  1.1145
 5783TIP3   OH238907   1.143   5.028   1.246 -0.4457  0.4812 -0.3552
 5783TIP3    H138908   1.091   5.098   1.287 -1.5291  0.6574 -1.9458
 5783TIP3    H238909   1.202   4.999   1.315 -0.3939  2.5414  0.5479
 5784TIP3   OH238910   4.897   1.201   7.743  0.0655  0.2546  0.6693
 5784TIP3    H138911   4.815   1.232   7.705  0.2581 -0.9248 -0.8103
 5784TIP3    H238912   4.953   1.279   7.746  1.0427  0.0720 -4.2649
 5785TIP3   OH238913   4.071   0.625   8.443  0.6858 -0.5055 -0.3517
 5785TIP3    H138914   4.098   0.701   8.391  1.5758 -1.6368 -1.6304
 5785TIP3    H238915   3.997   0.589   8.394  0.6543 -0.8073 -0.0808
 5786TIP3   OH238916   2.424   1.485   0.487 -0.3179  0.0897 -0.9390
 5786TIP3    H138917   2.341   1.443   0.465 -1.0916  1.4659 -0.7653
 5786TIP3    H238918   2.468   1.422   0.544 -0.8124 -1.0690 -1.8103
 5787TIP3   OH238919   0.612   3.770   8.637 -0.0828 -0.0286 -0.6606
 5787TIP3    H138920   0.620   3.858   8.600  1.8412 -0.3103 -0.9935
 5787TIP3    H238921   0.518   3.755   8.642 -0.4764  2.1607 -0.3140
 5788TIP3   OH238922   0.088   5.615   0.800  0.3586  0.3393  0.4359
 5788TIP3    H138923   0.011   5.566   0.773  1.2252 -0.4646 -0.6390
 5788TIP3    H238924   0.120   5.656   0.720  0.5619  1.3839  1.0316
 5789TIP3   OH238925   2.038   6.315   7.765  0.3344  0.2261  0.2489
 5789TIP3    H138926   2.098   6.311   7.691 -1.1213  3.1664 -1.2525
 5789TIP3    H238927   1.967   6.255   7.741  0.3620  0.3966 -0.2667
 5790TIP3   OH238928   3.726   2.809   8.568  0.2854 -0.3336 -0.1058
 5790TIP3    H138929   3.820   2.791   8.563  0.3507  0.1839 -1.0361
 5790TIP3    H238930   3.689   2.761   8.494 -0.0827  0.0704 -0.1850
 5791TIP3   OH238931   0.917   5.030   8.249 -0.1648 -0.2808  0.2315
 5791TIP3    H138932   1.003   4.995   8.271  0.9868  1.7275 -0.7713
 5791TIP3    H238933   0.860   5.000   8.320  1.1556 -2.3020  0.5248
 5792TIP3   OH238934   0.762   2.793   1.716  0.1757  0.1789 -0.0579
 5792TIP3    H138935   0.756   2.744   1.634 -1.1427  0.4383 -0.1341
 5792TIP3    H238936   0.792   2.880   1.690  1.3351 -0.2019 -0.0595
 5793TIP3   OH238937   0.350   0.188   8.229  0.1326  0.0370  0.7293
 5793TIP3    H138938   0.396   0.270   8.212  1.9712 -1.1216 -0.2687
 5793TIP3    H238939   0.266   0.198   8.185  1.0203  0.7654 -0.9003
 5794TIP3   OH238940   6.315   6.289   7.035 -0.1832  0.4290 -0.8397
 5794TIP3    H138941   6.300   6.199   7.006 -1.7654  0.3489  0.1027
 5794TIP3    H238942   6.254   6.342   6.982 -2.3635  0.3938  1.4348
 5795TIP3   OH238943   5.050   6.350   8.100 -0.2145  0.1451  0.6230
 5795TIP3    H138944   5.035   6.443   8.117  0.0335  0.5137 -1.0041
 5795TIP3    H238945   5.138   6.346   8.062 -1.0765 -0.4239 -1.4745
 5796TIP3   OH238946   0.145   2.858   2.660  0.2411 -0.0762 -0.8182
 5796TIP3    H138947   0.160   2.811   2.742 -2.1267 -1.1653 -0.9207
 5796TIP3    H238948   0.071   2.916   2.679  1.9158  2.3448 -1.2355
 5797TIP3   OH238949   6.437   2.735   0.160  0.3550  0.4270  0.1599
 5797TIP3    H138950   6.454   2.829   0.157 -0.9885  0.7353  1.2097
 5797TIP3    H238951   6.447   2.711   0.252  1.2058 -0.5786 -0.1768
 5798TIP3   OH238952   3.624   5.693   7.623  1.0524  0.0035 -0.6991
 5798TIP3    H138953   3.717   5.675   7.637  1.3965  2.4413  0.7338
 5798TIP3    H238954   3.621   5.736   7.537  1.3250  0.3138 -0.5558
 5799TIP3   OH238955   0.202   4.419   1.596 -0.3915  0.1827 -0.0463
 5799TIP3    H138956   0.147   4.371   1.658  0.4556 -0.4116  0.2540
 5799TIP3    H238957   0.200   4.367   1.516  0.8925 -0.6336  0.4193
 5800TIP3   OH238958   5.039   2.275   2.844 -0.3660  0.0484  0.2130
 5800TIP3    H138959   5.127   2.285   2.809  1.4172 -1.0909  3.9123
 5800TIP3    H238960   5.028   2.349   2.903 -1.2202 -0.6940  1.0099
 5801TIP3   OH238961   0.154   4.805   1.915 -0.4309 -0.1987 -0.2575
 5801TIP3    H138962   0.193   4.746   1.850 -1.1215 -2.1703  1.0183
 5801TIP3    H238963   0.229   4.839   1.964 -0.0706 -1.1372 -0.1259
 5802TIP3   OH238964   4.775   3.263   7.413 -0.1131 -0.0977  0.0391
 5802TIP3    H138965   4.790   3.238   7.322 -2.8817 -0.0101 -0.5329
 5802TIP3    H238966   4.740   3.353   7.408  1.0386  0.4587  1.3206
 5803TIP3   OH238967   1.089   1.512   7.363 -0.5288 -0.0585  0.0781
 5803TIP3    H138968   1.052   1.600   7.370 -1.2370 -0.2749 -0.7321
 5803TIP3    H238969   1.085   1.493   7.269 -0.7522 -1.1166  0.3012
 5804TIP3   OH238970   1.597   0.597   0.189  0.1538  0.1979 -0.0830
 5804TIP3    H138971   1.561   0.654   0.257 -1.6541  0.1657 -0.9475
 5804TIP3    H238972   1.521   0.550   0.154  1.0151  0.1745 -2.0795
 5805TIP3   OH238973   1.122   1.711   2.326 -0.1865  0.2664 -0.6175
 5805TIP3    H138974   1.180   1.747   2.259  1.0607 -2.6038 -1.2410
 5805TIP3    H238975   1.181   1.671   2.390 -1.4370  0.7917  0.9537
 5806TIP3   OH238976   1.771   6.052   0.692 -0.2340 -0.3091  0.0414
 5806TIP3    H138977   1.702   6.118   0.690 -0.2329 -0.3226 -2.0830
 5806TIP3    H238978   1.751   5.994   0.619  2.4001  0.0808 -1.0781
 5807TIP3   OH238979   3.609   2.455   1.496 -0.2091  0.7273  0.2620
 5807TIP3    H138980   3.562   2.520   1.443 -1.2088 -0.1948 -0.0238
 5807TIP3    H238981   3.552   2.441   1.572  0.4719  0.8863  0.8139
 5808TIP3   OH238982   4.924   1.307   8.794  0.2570 -0.2765  0.1151
 5808TIP3    H138983   5.015   1.337   8.805  0.0681  0.1555  0.5333
 5808TIP3    H238984   4.919   1.229   8.849  0.1840  0.0991  0.6463
 5809TIP3   OH238985   4.790   4.394   7.392 -0.1084 -0.5899 -0.2499
 5809TIP3    H138986   4.718   4.456   7.403 -1.6882 -2.0835 -1.5036
 5809TIP3    H238987   4.859   4.444   7.347  0.0263  1.0954  1.7073
 5810TIP3   OH238988   6.611   3.740   0.742  0.0886 -0.0542  0.4772
 5810TIP3    H138989   6.620   3.692   0.824 -0.4239  1.4377  1.4557
 5810TIP3    H238990   6.518   3.738   0.723 -0.3715  2.5927  1.9122
 5811TIP3   OH238991   1.735   3.756   8.640  0.3193 -0.2961  0.2928
 5811TIP3    H138992   1.701   3.680   8.591  0.6540 -0.2832  0.0363
 5811TIP3    H238993   1.783   3.807   8.574  0.7727 -0.2749  0.6409
 5812TIP3   OH238994   3.847   0.154   2.171 -0.4071 -0.1370 -0.4335
 5812TIP3    H138995   3.895   0.098   2.233  0.1114 -0.1740 -0.8639
 5812TIP3    H238996   3.773   0.188   2.222 -1.1880 -1.8305 -0.3739
 5813TIP3   OH238997   0.593   6.735   2.291  0.3287 -0.2853 -0.1935
 5813TIP3    H138998   0.678   6.714   2.251  0.1958  0.9739 -1.2013
 5813TIP3    H238999   0.551   6.650   2.302  0.9996 -0.8037 -1.3665
 5814TIP3   OH239000   5.727   4.521   8.013 -0.5227 -0.0374 -0.0065
 5814TIP3    H139001   5.762   4.433   7.999 -0.9915 -0.1363 -0.6225
 5814TIP3    H239002   5.692   4.546   7.928 -1.5243  0.2386  0.4767
 5815TIP3   OH239003   6.168   2.782   8.374  0.2872 -0.2536 -0.1039
 5815TIP3    H139004   6.168   2.719   8.446 -0.0019  1.5301  1.5264
 5815TIP3    H239005   6.260   2.784   8.345  0.4862 -0.6843  0.4700
 5816TIP3   OH239006   3.630   5.345   2.094  0.5313  0.4160  0.3102
 5816TIP3    H139007   3.722   5.319   2.090  0.1941 -1.0762  1.4159
 5816TIP3    H239008   3.602   5.322   2.182 -0.6725  1.7521  0.3232
 5817TIP3   OH239009   4.287   2.156   0.094 -0.2683  0.1931  0.1486
 5817TIP3    H139010   4.266   2.157   0.001 -2.3565 -0.9235  0.5241
 5817TIP3    H239011   4.347   2.082   0.104  1.7210  1.6197 -0.5443
 5818TIP3   OH239012   6.638   1.107   7.902 -0.6052 -0.3809 -0.1195
 5818TIP3    H139013   6.666   1.198   7.893 -1.2178  0.1830  2.7008
 5818TIP3    H239014   6.547   1.107   7.871  0.1198 -0.6311 -2.4148
 5819TIP3   OH239015   6.497   4.086   7.451  0.1570  0.8071  0.5914
 5819TIP3    H139016   6.550   4.007   7.441 -2.1653 -0.6588 -1.6308
 5819TIP3    H239017   6.528   4.146   7.383 -1.1147 -0.1937 -0.9532
 5820TIP3   OH239018   4.794   3.168   8.486 -0.2356 -0.5274  0.2585
 5820TIP3    H139019   4.721   3.219   8.520  0.2355 -0.3959  1.0898
 5820TIP3    H239020   4.832   3.223   8.418  1.1748  0.9273  2.1296
 5821TIP3   OH239021   5.221   4.966   0.905 -0.3789  0.2045  0.2755
 5821TIP3    H139022   5.196   4.880   0.941  0.1825  0.5491  1.5286
 5821TIP3    H239023   5.243   5.018   0.982  1.1051  0.8992 -0.5891
 5822TIP3   OH239024   5.090   5.641   8.471 -0.4018 -0.3089  0.2027
 5822TIP3    H139025   5.114   5.568   8.528 -2.5616 -0.1081  1.4973
 5822TIP3    H239026   5.054   5.707   8.531 -2.3828  0.0955 -1.3120
 5823TIP3   OH239027   5.630   4.577   0.374  0.3530  0.5681 -0.2485
 5823TIP3    H139028   5.698   4.517   0.342 -1.1194 -1.0810 -0.4607
 5823TIP3    H239029   5.670   4.622   0.448  2.1899  0.8514 -1.3593
 5824TIP3   OH239030   3.303   1.321   2.482  0.2322 -0.3767  0.2943
 5824TIP3    H139031   3.257   1.383   2.538  0.3503  0.1630 -0.1952
 5824TIP3    H239032   3.251   1.240   2.487  0.2823 -0.3532  1.2231
 5825TIP3   OH239033   0.770   3.770   7.900  0.4163  0.1123 -0.6611
 5825TIP3    H139034   0.746   3.736   7.986 -2.0856  0.8753 -1.0058
 5825TIP3    H239035   0.815   3.852   7.918 -2.3577  1.6119 -0.0564
 5826TIP3   OH239036   0.807   1.960   1.400 -0.5848 -0.2417 -0.1568
 5826TIP3    H139037   0.886   1.990   1.355  0.0156  1.2310  1.7394
 5826TIP3    H239038   0.740   2.025   1.377  0.0503  1.2464  1.9399
 5827TIP3   OH239039   4.124   3.466   1.468  0.4286 -0.2954  0.0786
 5827TIP3    H139040   4.135   3.557   1.441  1.5208 -0.2320  0.6538
 5827TIP3    H239041   4.040   3.439   1.430  0.9513  0.3725 -1.6502
 5828TIP3   OH239042   1.556   4.066   8.401 -0.5060 -0.4050 -0.1589
 5828TIP3    H139043   1.544   4.152   8.361  0.3284  0.1410  0.7151
 5828TIP3    H239044   1.645   4.040   8.379 -0.3410 -0.4946  0.5656
 5829TIP3   OH239045   2.012   4.021   0.181  0.3941  0.3986  0.3274
 5829TIP3    H139046   2.050   4.001   0.266 -0.1278  1.0144  0.7142
 5829TIP3    H239047   1.923   3.985   0.186  0.8405 -0.8987 -0.5127
 5830TIP3   OH239048   3.329   3.847   8.298  0.3845 -0.1726 -0.3928
 5830TIP3    H139049   3.391   3.825   8.368  0.5629  0.6706 -0.2831
 5830TIP3    H239050   3.247   3.866   8.343  1.2119  3.2157 -0.1070
 5831TIP3   OH239051   1.639   6.320   1.833 -0.2132  0.1854  0.1755
 5831TIP3    H139052   1.591   6.356   1.908 -1.4751 -1.9370  0.4611
 5831TIP3    H239053   1.681   6.242   1.867  1.4206  0.6258 -0.7287
 5832TIP3   OH239054   6.529   3.595   1.447  0.5065 -0.0089  0.0479
 5832TIP3    H139055   6.474   3.629   1.376  1.5208 -0.5527 -1.0364
 5832TIP3    H239056   6.476   3.606   1.526  0.0161  2.2807 -0.5103
 5833TIP3   OH239057   4.004   1.095   2.575 -0.9234 -0.0471  0.6002
 5833TIP3    H139058   3.925   1.046   2.594 -0.7880 -0.7236 -0.4731
 5833TIP3    H239059   4.072   1.054   2.628 -0.7839 -1.1353 -0.3879
 5834TIP3   OH239060   2.116   2.430   1.780 -0.7483  0.6170 -0.2435
 5834TIP3    H139061   2.026   2.402   1.796 -0.9870  1.0988 -0.7146
 5834TIP3    H239062   2.162   2.349   1.756 -0.4565 -0.0847  2.3457
 5835TIP3   OH239063   5.331   0.877   0.489 -0.0326  0.3578  0.6896
 5835TIP3    H139064   5.303   0.961   0.525 -1.9830 -0.3987  1.0285
 5835TIP3    H239065   5.300   0.878   0.399  1.5080  0.6783  0.1200
 5836TIP3   OH239066   1.717   6.120   7.988 -0.3815  0.1060 -0.7901
 5836TIP3    H139067   1.703   6.027   7.973 -1.9222 -0.4784  3.0174
 5836TIP3    H239068   1.808   6.127   8.017 -0.9529 -0.7946  1.4819
 5837TIP3   OH239069   3.755   1.966   8.848  0.3656 -0.0465 -0.2155
 5837TIP3    H139070   3.791   1.924   8.926 -1.7546 -2.3158 -0.3516
 5837TIP3    H239071   3.673   2.005   8.878  0.1133  0.0935 -1.0700
 5838TIP3   OH239072   1.045   0.842   8.281  0.0454 -0.4962  0.0159
 5838TIP3    H139073   1.122   0.794   8.251  0.9728  2.0440 -2.0005
 5838TIP3    H239074   1.081   0.919   8.325 -1.3981 -0.6128  1.5045
 5839TIP3   OH239075   6.065   4.219   1.176  0.3667  0.3530  0.2570
 5839TIP3    H139076   6.099   4.168   1.102 -0.3143 -1.2346  1.0040
 5839TIP3    H239077   6.076   4.310   1.149 -0.3596 -0.1850 -2.0303
 5840TIP3   OH239078   5.088   4.406   2.212 -0.8404 -0.4711 -0.4635
 5840TIP3    H139079   5.057   4.490   2.245  0.5387 -0.5126  1.0253
 5840TIP3    H239080   5.151   4.428   2.144 -1.0798 -0.3280 -0.6410
 5841TIP3   OH239081   3.738   2.365   1.259  0.2819  0.5110  0.5777
 5841TIP3    H139082   3.714   2.414   1.338 -1.5675 -0.4813  0.6835
 5841TIP3    H239083   3.744   2.274   1.287 -1.5430 -0.0284 -0.5810
 5842TIP3   OH239084   4.367   2.487   8.255  0.6489 -0.9604 -0.3029
 5842TIP3    H139085   4.289   2.535   8.282  0.5058  0.2733 -2.6657
 5842TIP3    H239086   4.406   2.540   8.185  2.4526 -2.5664 -0.6231
 5843TIP3   OH239087   4.166   5.398   0.298  0.0584 -0.1611 -0.3348
 5843TIP3    H139088   4.102   5.456   0.339  2.4069  1.0466  1.8679
 5843TIP3    H239089   4.201   5.450   0.225 -1.4266 -0.8652 -1.6136
 5844TIP3   OH239090   0.005   3.654   8.344 -0.6380 -0.0652 -0.2915
 5844TIP3    H139091   0.081   3.693   8.301 -0.5926  0.9137  0.6351
 5844TIP3    H239092   0.041   3.599   8.413 -0.7461 -0.3024 -0.4242
 5845TIP3   OH239093   1.737   2.914   2.329 -0.0194  0.4005  0.0818
 5845TIP3    H139094   1.803   2.981   2.312  0.2476  0.2570  0.5215
 5845TIP3    H239095   1.658   2.947   2.286  0.4024  0.4448 -0.6787
 5846TIP3   OH239096   0.327   5.744   1.521 -0.3592 -0.1182  0.6917
 5846TIP3    H139097   0.411   5.762   1.562 -0.5042  0.9867  0.5470
 5846TIP3    H239098   0.325   5.801   1.444 -0.6643 -1.1451 -0.0928
 5847TIP3   OH239099   6.707   5.094   7.864 -0.0171  0.0425 -0.4104
 5847TIP3    H139100   6.687   5.186   7.847 -1.1820 -0.2662 -0.7782
 5847TIP3    H239101   6.686   5.049   7.782 -0.2796 -0.6693  0.0358
 5848TIP3   OH239102   6.520   1.988   1.650  0.2302 -0.4579 -0.1454
 5848TIP3    H139103   6.605   1.946   1.638  1.1927  1.3343  0.0371
 5848TIP3    H239104   6.540   2.080   1.669 -1.7661  0.2075 -0.8944
 5849TIP3   OH239105   6.733   0.559   1.979  0.1245 -0.2734 -0.5200
 5849TIP3    H139106   6.687   0.486   2.020 -1.6522  2.0929  2.1390
 5849TIP3    H239107   6.807   0.577   2.038  0.1182  0.4912 -0.7269
 5850TIP3   OH239108   2.273   6.483   8.536  0.2749  0.3919 -0.0618
 5850TIP3    H139109   2.229   6.561   8.502 -1.8712  0.5349  2.7266
 5850TIP3    H239110   2.204   6.418   8.545  1.1259 -0.3211  1.8662
 5851TIP3   OH239111   6.351   1.558   1.067  0.0078  0.4915  0.2072
 5851TIP3    H139112   6.279   1.581   1.009 -0.0970 -2.2443 -0.9083
 5851TIP3    H239113   6.427   1.604   1.031 -0.5942  1.0324 -0.3998
 5852TIP3   OH239114   2.459   4.745   7.570  0.2636 -0.7559  0.6365
 5852TIP3    H139115   2.470   4.836   7.543 -0.6324  0.0171  2.6215
 5852TIP3    H239116   2.411   4.704   7.498 -0.6536  0.7506  0.3434
 5853TIP3   OH239117   4.437   4.269   7.501  0.5172 -0.1082 -0.3565
 5853TIP3    H139118   4.422   4.200   7.566  0.2328  1.2953  1.1474
 5853TIP3    H239119   4.352   4.278   7.457 -0.0632  0.6007  0.8339
 5854TIP3   OH239120   4.890   1.578   8.788 -0.0372 -0.0392  0.1008
 5854TIP3    H139121   4.876   1.490   8.822 -0.3921 -0.2617 -0.6315
 5854TIP3    H239122   4.957   1.615   8.846 -2.3083  0.4640  2.6090
 5855TIP3   OH239123   3.591   5.665   7.037 -0.8978  0.6236  0.4020
 5855TIP3    H139124   3.585   5.700   6.948 -1.1767 -0.2782  0.0588
 5855TIP3    H239125   3.513   5.700   7.081 -1.1503  0.4777  0.0759
 5856TIP3   OH239126   4.909   6.104   0.660  0.2166  0.7835  0.1192
 5856TIP3    H139127   4.956   6.179   0.697  0.5161 -0.0153  1.4289
 5856TIP3    H239128   4.939   6.029   0.712 -0.8379 -0.0845 -0.4861
 5857TIP3   OH239129   4.987   0.643   2.821 -0.1366 -0.2350 -0.7868
 5857TIP3    H139130   5.064   0.600   2.785 -0.4584 -1.0278 -0.5556
 5857TIP3    H239131   4.944   0.683   2.746  1.3620  1.6588 -0.7009
 5858TIP3   OH239132   5.264   3.393   2.666  0.7288  0.3701  0.0835
 5858TIP3    H139133   5.177   3.372   2.630  0.8407  0.2882 -0.1408
 5858TIP3    H239134   5.264   3.488   2.675  0.1514  0.2758  1.2639
 5859TIP3   OH239135   1.178   2.070   2.506 -0.2420 -0.0270  0.7046
 5859TIP3    H139136   1.163   2.113   2.590 -1.7783  1.0047 -0.0540
 5859TIP3    H239137   1.221   2.136   2.452 -1.1169  0.0261  0.0521
 5860TIP3   OH239138   3.726   5.224   1.705 -0.4563 -0.3247 -0.3952
 5860TIP3    H139139   3.798   5.259   1.652 -0.2488  0.4220  0.3504
 5860TIP3    H239140   3.648   5.243   1.654 -0.2786  0.5686 -0.3614
 5861TIP3   OH239141   4.379   3.050   1.089  0.8239 -0.0902  0.3852
 5861TIP3    H139142   4.404   2.971   1.136 -1.0619 -0.0011  1.6710
 5861TIP3    H239143   4.383   3.120   1.154 -0.9470  0.2016  0.2486
 5862TIP3   OH239144   0.951   4.515   8.050 -0.0945  0.5545  0.1991
 5862TIP3    H139145   0.989   4.511   7.962  1.3415  1.3811  0.7586
 5862TIP3    H239146   0.920   4.605   8.059  1.0219  0.8766  1.0253
 5863TIP3   OH239147   0.191   0.305   2.064  0.4672 -0.0285  0.6021
 5863TIP3    H139148   0.254   0.272   2.128 -0.0543 -0.1123  1.0740
 5863TIP3    H239149   0.208   0.399   2.061  0.2442  0.0300  1.1374
 5864TIP3   OH239150   6.064   4.085   0.180  0.6761 -0.4322  0.1322
 5864TIP3    H139151   6.019   4.170   0.186  3.4192  1.2031 -0.9800
 5864TIP3    H239152   6.087   4.065   0.270 -0.3556 -0.2501  0.4596
 5865TIP3   OH239153   3.324   5.685   1.282  0.1922  0.0466 -0.2261
 5865TIP3    H139154   3.360   5.715   1.365 -0.5017 -0.1225  0.1476
 5865TIP3    H239155   3.286   5.599   1.302  1.5096 -0.7898 -1.1037
 5866TIP3   OH239156   5.726   3.377   8.402 -0.4741  0.1637 -0.4344
 5866TIP3    H139157   5.771   3.295   8.422 -0.7324  0.6553  2.5825
 5866TIP3    H239158   5.791   3.429   8.354 -0.5575 -1.9751 -3.1163
 5867TIP3   OH239159   1.106   1.075   2.125  0.3496  0.2865 -0.1491
 5867TIP3    H139160   1.016   1.098   2.099 -0.2330 -1.0811  0.5665
 5867TIP3    H239161   1.097   1.041   2.214  0.9730 -3.3748 -1.3222
 5868TIP3   OH239162   3.099   3.021   7.932  0.6256 -0.0962  0.0535
 5868TIP3    H139163   3.112   3.020   8.027  2.2044  1.5757 -0.1041
 5868TIP3    H239164   3.163   3.083   7.900  0.1960 -0.7261 -2.1500
 5869TIP3   OH239165   2.375   1.039   7.330 -0.5213 -0.4292 -0.4069
 5869TIP3    H139166   2.340   1.077   7.249 -1.5778 -0.0605  0.2038
 5869TIP3    H239167   2.435   1.105   7.363 -1.9145  0.5170  0.3507
 5870TIP3   OH239168   5.874   3.623   7.155  0.3430 -0.5806  0.2610
 5870TIP3    H139169   5.840   3.694   7.101 -1.0730  0.0440  1.8773
 5870TIP3    H239170   5.970   3.631   7.148  0.1974  0.4859 -0.8181
 5871TIP3   OH239171   2.958   2.995   2.418  0.0950  0.5136  0.1240
 5871TIP3    H139172   2.952   3.084   2.382  1.4990  0.4928 -0.1969
 5871TIP3    H239173   2.964   3.009   2.513 -1.0824  0.6806  0.1895
 5872TIP3   OH239174   5.030   4.089   7.388 -0.4147 -0.3355 -0.0140
 5872TIP3    H139175   5.059   4.179   7.402 -2.5944  0.3380  0.7042
 5872TIP3    H239176   5.091   4.053   7.324 -0.2111  2.0614 -1.2722
 5873TIP3   OH239177   2.021   0.052   8.651 -0.0970  0.0445  0.2910
 5873TIP3    H139178   2.072   0.021   8.577 -0.3929  0.7375 -0.2148
 5873TIP3    H239179   2.065   0.016   8.728 -0.6882 -2.0142 -0.2686
 5874TIP3   OH239180   0.315   3.008   1.991 -0.0970  1.0700 -0.1018
 5874TIP3    H139181   0.341   3.080   2.049  0.8517  0.8896 -0.3026
 5874TIP3    H239182   0.268   2.947   2.048  4.7081 -1.4243  1.6808
 5875TIP3   OH239183   0.699   4.209   0.586  0.0050 -0.1439 -0.3225
 5875TIP3    H139184   0.671   4.300   0.586  1.1154  0.2374  1.6775
 5875TIP3    H239185   0.630   4.163   0.538 -3.0865  1.0400  2.5912
 5876TIP3   OH239186   5.175   2.061   1.418 -0.2125 -0.1598 -0.1711
 5876TIP3    H139187   5.093   2.110   1.424 -1.5382 -2.3962  2.8128
 5876TIP3    H239188   5.149   1.969   1.429  2.6113 -1.0254  0.1497
 5877TIP3   OH239189   0.629   3.531   1.420 -0.1063  0.1587  0.6142
 5877TIP3    H139190   0.674   3.510   1.502  0.4313 -3.3582 -0.4123
 5877TIP3    H239191   0.686   3.495   1.352 -1.1282  1.8976 -1.2544
 5878TIP3   OH239192   1.038   5.229   1.393 -0.2024 -0.0354  0.1568
 5878TIP3    H139193   1.059   5.228   1.486  0.7873 -1.6132 -0.0568
 5878TIP3    H239194   1.068   5.315   1.363  2.1596 -0.6042  0.7289
 5879TIP3   OH239195   2.217   1.665   8.838 -0.0542  0.6865 -0.3463
 5879TIP3    H139196   2.248   1.628   8.921 -0.4575  1.9991  0.4200
 5879TIP3    H239197   2.133   1.705   8.860 -1.8846 -1.8525 -2.1387
 5880TIP3   OH239198   3.569   6.207   8.230  0.3895  0.0658  0.1247
 5880TIP3    H139199   3.651   6.166   8.204  2.1570  3.6307 -0.5410
 5880TIP3    H239200   3.550   6.169   8.316  1.8824 -1.9185 -0.3337
 5881TIP3   OH239201   4.522   5.933   8.933 -0.3554  0.2059 -0.3887
 5881TIP3    H139202   4.570   5.975   9.004  1.1407 -1.2367 -0.4842
 5881TIP3    H239203   4.576   5.947   8.856 -0.4710 -0.7469 -0.6588
 5882TIP3   OH239204   5.885   0.357   0.952 -0.2887 -0.8179 -0.1043
 5882TIP3    H139205   5.875   0.269   0.989  1.0412 -0.8557  0.1836
 5882TIP3    H239206   5.932   0.406   1.018 -0.8414  0.0741 -0.3586
 5883TIP3   OH239207   5.235   0.503   0.330 -0.3763 -0.1457 -0.4506
 5883TIP3    H139208   5.187   0.583   0.350  0.5835  0.8091 -1.7806
 5883TIP3    H239209   5.267   0.472   0.415  0.0320  1.4151 -0.0032
 5884TIP3   OH239210   3.699   5.027   7.888  0.1358  0.6776  0.5887
 5884TIP3    H139211   3.668   5.085   7.818 -1.7736  1.2086  1.8008
 5884TIP3    H239212   3.759   4.967   7.845 -1.6861  0.3667 -1.7162
 5885TIP3   OH239213   4.734   0.780   0.720 -0.1469  0.0374  0.3126
 5885TIP3    H139214   4.762   0.836   0.648  0.4004 -0.6626 -0.0426
 5885TIP3    H239215   4.646   0.750   0.695 -0.0784  0.0325  0.0786
 5886TIP3   OH239216   2.375   1.375   8.011 -0.1166  0.7123 -0.3251
 5886TIP3    H139217   2.383   1.341   7.922  1.1405 -0.6850  0.2821
 5886TIP3    H239218   2.465   1.377   8.044 -0.7080 -0.3897  1.4786
 5887TIP3   OH239219   1.883   4.270   8.107  0.1619 -0.2599  0.1432
 5887TIP3    H139220   1.925   4.314   8.180  0.1124  0.4409 -0.2355
 5887TIP3    H239221   1.826   4.337   8.069 -0.1966 -0.7670 -0.2219
 5888TIP3   OH239222   2.266   0.691   7.585  0.0727 -0.1537  0.0313
 5888TIP3    H139223   2.216   0.611   7.602  0.2894 -0.2503  0.2292
 5888TIP3    H239224   2.348   0.660   7.546 -0.3505  0.0552 -1.0637
 5889TIP3   OH239225   4.623   0.855   7.882  0.6262  0.8555 -0.4489
 5889TIP3    H139226   4.560   0.836   7.952  1.8677 -0.1915  0.4213
 5889TIP3    H239227   4.705   0.874   7.928  0.9072  2.5659 -1.5446
 5890TIP3   OH239228   1.326   0.628   3.017 -0.3888 -0.1096 -0.1098
 5890TIP3    H139229   1.252   0.679   2.984  0.4667 -0.4625 -2.7516
 5890TIP3    H239230   1.286   0.547   3.050 -1.4197  0.9062  1.2888
 5891TIP3   OH239231   0.438   6.032   8.250 -0.3235  0.6580  0.0435
 5891TIP3    H139232   0.369   6.060   8.190 -1.9569  0.2363  1.6283
 5891TIP3    H239233   0.394   5.971   8.310  1.9696 -1.5643 -0.3321
 5892TIP3   OH239234   5.277   6.728   7.816  0.4159  0.0321 -0.2129
 5892TIP3    H139235   5.211   6.750   7.750 -0.1995 -0.5632  0.1899
 5892TIP3    H239236   5.333   6.805   7.820 -0.7284  0.8916 -0.0020
 5893TIP3   OH239237   1.364   0.829   0.896 -0.4067 -0.4041 -0.5726
 5893TIP3    H139238   1.285   0.883   0.888  1.2708  2.1838 -0.9681
 5893TIP3    H239239   1.366   0.803   0.988 -1.2295  0.3264 -0.3339
 5894TIP3   OH239240   5.475   6.754   8.778  0.2894 -0.0374  0.2858
 5894TIP3    H139241   5.421   6.790   8.848  1.2337  0.9332  0.5416
 5894TIP3    H239242   5.463   6.815   8.705 -0.1897 -0.6966 -0.2049
 5895TIP3   OH239243   1.836   3.656   8.857  0.2404 -0.5351  0.6061
 5895TIP3    H139244   1.789   3.683   8.778  1.3165  0.3458  0.2552
 5895TIP3    H239245   1.923   3.695   8.849  0.0633  0.4718  2.7096
 5896TIP3   OH239246   0.056   3.938   0.573 -0.0573  0.2393  0.1960
 5896TIP3    H139247  -0.011   3.892   0.622 -0.1098  0.6415  0.5086
 5896TIP3    H239248   0.008   4.003   0.522  0.1483  1.0594  1.0158
 5897TIP3   OH239249   0.150   2.912   0.498 -0.4575 -0.0516  0.4344
 5897TIP3    H139250   0.169   2.818   0.500  0.9134  0.1052 -1.6715
 5897TIP3    H239251   0.090   2.926   0.571 -0.8010 -2.5770  0.7300
 5898TIP3   OH239252   2.325   5.657   1.236 -0.0692  0.1371  0.2801
 5898TIP3    H139253   2.296   5.605   1.311 -1.0367  0.1037 -0.0992
 5898TIP3    H239254   2.255   5.648   1.172  0.9343 -0.1601 -0.8016
 5899TIP3   OH239255   0.147   4.287   8.519 -0.2343  0.1511 -0.0423
 5899TIP3    H139256   0.195   4.241   8.588 -1.3712  0.7720  1.1932
 5899TIP3    H239257   0.056   4.258   8.529 -0.9618  2.4551  0.6445
 5900TIP3   OH239258   4.788   4.574   8.053  0.5395  0.8734  0.4039
 5900TIP3    H139259   4.848   4.526   7.996  0.8148  1.9292 -0.2186
 5900TIP3    H239260   4.836   4.653   8.077 -0.4028  1.4783  0.3278
 5901TIP3   OH239261   5.000   3.950   8.438 -0.5860  0.0973  0.3286
 5901TIP3    H139262   4.923   3.904   8.405 -0.3801  0.2875 -0.4461
 5901TIP3    H239263   5.073   3.891   8.417 -0.1607  1.2835 -1.8528
 5902TIP3   OH239264   5.985   4.859   8.066 -0.3232  0.0040  0.2549
 5902TIP3    H139265   5.974   4.951   8.042 -3.1210 -0.4876 -0.6983
 5902TIP3    H239266   6.041   4.823   7.998  2.0329  1.2212  1.4203
 5903TIP3   OH239267   5.932   4.940   8.521 -0.3139  0.1558  0.1406
 5903TIP3    H139268   6.011   4.901   8.558 -0.2587 -0.3385 -0.4827
 5903TIP3    H239269   5.901   4.876   8.457 -2.0120 -0.3077  1.3607
 5904TIP3   OH239270   3.610   0.798   8.001  0.4784  0.1988  0.6087
 5904TIP3    H139271   3.563   0.771   7.922  1.7100  1.1974 -0.5235
 5904TIP3    H239272   3.550   0.779   8.073 -0.1908 -1.9164 -0.4342
 5905TIP3   OH239273   1.648   0.248   8.473 -0.2339 -0.1820  0.0887
 5905TIP3    H139274   1.574   0.229   8.531  0.6515  0.1146  1.3524
 5905TIP3    H239275   1.632   0.337   8.443  0.1787  0.3191  1.2937
 5906TIP3   OH239276   6.612   2.444   7.325  0.7072 -0.2741  0.1085
 5906TIP3    H139277   6.636   2.487   7.244  2.6548 -1.2338  0.1174
 5906TIP3    H239278   6.653   2.496   7.394  0.4431 -0.3885  0.3584
 5907TIP3   OH239279   5.923   2.912   1.529  0.0886 -0.2074 -0.5503
 5907TIP3    H139280   5.947   2.823   1.557  1.6926  0.1894 -0.5326
 5907TIP3    H239281   5.999   2.942   1.480 -1.2203  0.4578 -2.2550
 5908TIP3   OH239282   4.245   3.718   0.951 -0.0106  0.4172  0.8042
 5908TIP3    H139283   4.337   3.696   0.967  0.7458  2.7327  0.1328
 5908TIP3    H239284   4.244   3.814   0.947 -2.1524  0.4095 -0.9647
 5909TIP3   OH239285   2.348   6.319   8.238 -0.2573  0.1057 -0.4716
 5909TIP3    H139286   2.319   6.265   8.311 -0.3231 -0.1108 -0.6559
 5909TIP3    H239287   2.430   6.358   8.268 -1.2555  1.6022  0.4882
 5910TIP3   OH239288   1.091   4.757   1.258 -0.2278 -0.1458  0.0411
 5910TIP3    H139289   1.107   4.846   1.228 -0.8056  0.6951  2.0776
 5910TIP3    H239290   0.999   4.741   1.237 -0.9504  0.8511  2.1549
 5911TIP3   OH239291   2.117   2.466   7.923 -0.2185 -0.0040 -0.2795
 5911TIP3    H139292   2.088   2.392   7.976  0.7358 -0.5936 -0.5506
 5911TIP3    H239293   2.064   2.539   7.953  0.2164 -0.3444  1.4270
 5912TIP3   OH239294   4.382   3.920   1.953 -0.6441 -0.0248 -0.1367
 5912TIP3    H139295   4.306   3.918   1.893 -1.0401 -0.9185  0.3848
 5912TIP3    H239296   4.344   3.912   2.040 -0.2722  3.4751  0.4826
 5913TIP3   OH239297   5.059   4.705   1.592 -0.2983  0.0983 -0.2642
 5913TIP3    H139298   5.122   4.762   1.547 -0.1779  1.1048  1.1250
 5913TIP3    H239299   4.974   4.748   1.578 -0.2729  0.3620  0.3806
 5914TIP3   OH239300   3.899   6.583   2.982  0.8067  0.0535  0.3215
 5914TIP3    H139301   3.829   6.550   3.039  0.7871  0.8642  0.7896
 5914TIP3    H239302   3.854   6.609   2.902  0.7243 -0.4041  0.2196
 5915TIP3   OH239303   4.713   4.324   8.250 -0.2864  0.3542 -0.0198
 5915TIP3    H139304   4.789   4.325   8.309 -0.2401 -1.4279 -0.0186
 5915TIP3    H239305   4.665   4.245   8.273 -0.5113 -0.1575 -2.0609
 5916TIP3   OH239306   1.574   3.124   1.736  0.9042 -0.0244 -0.5943
 5916TIP3    H139307   1.618   3.189   1.791  2.0062 -1.6535  0.5561
 5916TIP3    H239308   1.626   3.122   1.655  1.8200 -0.5589 -0.0084
 5917TIP3   OH239309   2.318   0.735   1.125  0.0713 -0.9528 -0.0704
 5917TIP3    H139310   2.280   0.658   1.168  0.7773 -2.4031 -1.8969
 5917TIP3    H239311   2.408   0.739   1.158 -0.9348  1.3419  2.7881
 5918TIP3   OH239312   2.546   5.044   7.990 -0.6090  0.0310  0.1913
 5918TIP3    H139313   2.475   5.021   7.930 -1.8427  2.7307  0.4792
 5918TIP3    H239314   2.592   5.116   7.946  0.3040  0.0892  1.2031
 5919TIP3   OH239315   1.340   3.146   0.216  0.1433 -0.2131 -0.5352
 5919TIP3    H139316   1.353   3.055   0.243 -0.2221 -0.5356 -1.4049
 5919TIP3    H239317   1.293   3.139   0.133  1.3746  0.7280 -1.3467
 5920TIP3   OH239318   4.458   0.367   1.186 -0.7599 -0.0169  0.1053
 5920TIP3    H139319   4.494   0.279   1.196 -0.7203  0.0376  0.4530
 5920TIP3    H239320   4.435   0.373   1.094  1.2628  0.3592 -0.4248
 5921TIP3   OH239321   6.138   4.225   1.768 -0.0766  0.3675 -0.3595
 5921TIP3    H139322   6.058   4.254   1.810  0.9065  0.8755  1.2538
 5921TIP3    H239323   6.179   4.306   1.737 -0.0066  0.1444 -0.8664
 5922TIP3   OH239324   4.251   3.616   2.645 -0.0406  0.2875 -0.3251
 5922TIP3    H139325   4.257   3.630   2.739  4.5440  0.2169 -0.3608
 5922TIP3    H239326   4.206   3.694   2.612 -0.7685  0.8413  1.8013
 5923TIP3   OH239327   4.430   4.715   0.649 -0.0553  0.0860  0.3129
 5923TIP3    H139328   4.339   4.733   0.672  0.3753 -1.1997  3.4894
 5923TIP3    H239329   4.481   4.779   0.700  0.8975  1.8439 -2.5865
 5924TIP3   OH239330   6.668   4.581   1.289  0.2906  0.6304 -0.5286
 5924TIP3    H139331   6.647   4.672   1.268  1.0464  0.5608 -1.7144
 5924TIP3    H239332   6.737   4.587   1.355 -0.9132  0.8780  0.7504
 5925TIP3   OH239333   6.576   0.310   7.787  0.5298  0.3520 -0.4753
 5925TIP3    H139334   6.603   0.369   7.857  1.6201  1.0805 -1.4777
 5925TIP3    H239335   6.523   0.365   7.729 -0.6411 -0.3236 -0.0919
 5926TIP3   OH239336   0.546   5.787   8.787 -0.2361 -0.2244  0.2753
 5926TIP3    H139337   0.583   5.760   8.703 -0.5958 -0.2863  0.1371
 5926TIP3    H239338   0.487   5.716   8.812 -2.8870  1.3126 -1.1335
 5927TIP3   OH239339   6.196   0.903   1.430  0.1821 -0.3384 -0.3457
 5927TIP3    H139340   6.173   0.986   1.388  0.6879 -0.8717 -1.7228
 5927TIP3    H239341   6.291   0.898   1.424  0.6764  0.9083  3.5225
 5928TIP3   OH239342   2.591   0.654   1.204  0.5263 -0.2236  0.1729
 5928TIP3    H139343   2.677   0.668   1.164  0.4965  0.1198  0.2193
 5928TIP3    H239344   2.594   0.706   1.285  0.4827 -0.6771  0.4662
 5929TIP3   OH239345   1.448   6.000   1.951  0.3483 -0.0991  0.6717
 5929TIP3    H139346   1.405   5.981   1.867  0.7671 -2.4890  0.9193
 5929TIP3    H239347   1.419   6.088   1.974 -1.1931 -0.0883 -1.1121
 5930TIP3   OH239348   3.377   0.895   1.740  0.1777 -0.1142 -0.4080
 5930TIP3    H139349   3.346   0.900   1.830 -0.9657 -0.6290 -0.7544
 5930TIP3    H239350   3.379   0.801   1.720  1.3951 -0.0575 -0.6015
 5931TIP3   OH239351   0.158   4.287   0.226  0.2059 -0.5401  0.2013
 5931TIP3    H139352   0.223   4.227   0.263  1.9615  0.7472 -0.6688
 5931TIP3    H239353   0.170   4.280   0.132 -2.7792 -2.2101 -0.1949
 5932TIP3   OH239354   3.718   2.118   1.378  0.6242  0.2739 -0.1588
 5932TIP3    H139355   3.690   2.126   1.470  0.2859 -1.7273 -0.0345
 5932TIP3    H239356   3.701   2.026   1.356  0.0796  0.8581 -2.4460
 5933TIP3   OH239357   5.755   5.160   0.031 -0.0599  1.0377 -0.1308
 5933TIP3    H139358   5.803   5.078   0.040 -1.2909  0.2871 -0.0861
 5933TIP3    H239359   5.792   5.202  -0.046  0.0156  0.0265 -0.6556
 5934TIP3   OH239360   3.553   0.135   1.609  0.4935  0.1429  0.1574
 5934TIP3    H139361   3.471   0.085   1.607 -0.0952  1.0152  1.6520
 5934TIP3    H239362   3.621   0.069   1.598 -0.3824 -0.5536 -1.5743
 5935TIP3   OH239363   1.190   3.688   7.598 -0.2259  0.6390 -0.3544
 5935TIP3    H139364   1.254   3.649   7.657  0.2559  1.7139 -0.1269
 5935TIP3    H239365   1.105   3.669   7.638  0.0960  1.3715  0.7347
 5936TIP3   OH239366   2.944   4.658   6.531 -0.1981  0.1526 -0.2799
 5936TIP3    H139367   2.994   4.601   6.590 -0.5343 -0.2416 -0.3654
 5936TIP3    H239368   2.972   4.630   6.443 -1.1228 -0.6102 -0.3530
 5937TIP3   OH239369   2.025   1.042   1.605  0.2231 -0.3926  0.0120
 5937TIP3    H139370   1.948   0.995   1.636 -0.3368  0.6733  0.3030
 5937TIP3    H239371   2.067   1.074   1.685  0.7733 -0.6619 -0.1649
 5938TIP3   OH239372   4.221   2.668   2.231  0.3767 -1.2627  0.2481
 5938TIP3    H139373   4.272   2.631   2.158  1.2478 -0.3155  0.3716
 5938TIP3    H239374   4.286   2.693   2.296 -0.3135 -0.8533  0.7888
 5939TIP3   OH239375   1.892   3.203   7.834 -0.5318 -0.1026  0.1574
 5939TIP3    H139376   1.898   3.193   7.928 -1.1987  1.2941  0.3820
 5939TIP3    H239377   1.957   3.143   7.798 -0.4018 -0.7783  1.4920
 5940TIP3   OH239378   1.971   1.993   0.385  0.7069 -0.1201  0.4237
 5940TIP3    H139379   1.974   2.037   0.299  1.4387 -0.1753  0.4149
 5940TIP3    H239380   1.886   1.949   0.386  0.9422 -0.6312 -0.5376
 5941TIP3   OH239381   3.618   3.853   7.820  1.0044 -0.1070  0.6935
 5941TIP3    H139382   3.668   3.800   7.757  1.9053 -0.1163  1.3890
 5941TIP3    H239383   3.591   3.790   7.887  0.6813  0.0295  0.6916
 5942TIP3   OH239384   0.384   0.243   0.929  0.5172 -1.0704 -0.1699
 5942TIP3    H139385   0.350   0.215   1.015  1.7619  0.6778  0.9653
 5942TIP3    H239386   0.309   0.282   0.885  0.3652  0.3870  1.2493
 5943TIP3   OH239387   6.164   5.588   8.243 -0.6170  0.1280 -0.6997
 5943TIP3    H139388   6.199   5.593   8.154  1.8047  0.1552  0.1794
 5943TIP3    H239389   6.232   5.628   8.297 -2.2465  0.5465  1.1317
 5944TIP3   OH239390   1.221   4.577   8.302  0.8241 -0.3382 -0.5033
 5944TIP3    H139391   1.211   4.648   8.239  0.3152 -0.6836 -0.8158
 5944TIP3    H239392   1.261   4.619   8.379  1.4021  0.0951 -1.0257
 5945TIP3   OH239393   1.604   4.160   0.123 -0.2522 -0.0299  0.7874
 5945TIP3    H139394   1.531   4.146   0.063  0.7706  0.9404 -0.7385
 5945TIP3    H239395   1.634   4.071   0.144 -1.7755 -0.4516  1.4048
 5946TIP3   OH239396   4.518   5.951   8.458  0.1298 -0.3595 -0.1867
 5946TIP3    H139397   4.594   6.008   8.453  3.1644 -3.9678  0.3055
 5946TIP3    H239398   4.497   5.930   8.367  1.5261 -1.3520 -0.3201
 5947TIP3   OH239399   5.946   4.270   0.687 -0.1641  0.2606  0.4024
 5947TIP3    H139400   6.015   4.329   0.656 -0.5259 -0.5518 -2.1647
 5947TIP3    H239401   5.924   4.303   0.774  1.0937  2.6245 -0.0914
 5948TIP3   OH239402   6.279   4.047   1.962 -0.0313  0.4379  0.2594
 5948TIP3    H139403   6.224   4.068   2.038 -0.7540 -0.8972  0.1263
 5948TIP3    H239404   6.233   4.086   1.888 -0.7552 -0.5581  0.1673
 5949TIP3   OH239405   2.344   5.300   2.201 -0.1733  0.3824  0.0826
 5949TIP3    H139406   2.413   5.348   2.246  0.3670  1.4682 -1.7949
 5949TIP3    H239407   2.359   5.317   2.108 -1.3457 -1.5927 -0.5399
 5950TIP3   OH239408   6.134   4.317   8.236  0.2221 -0.1888 -0.4181
 5950TIP3    H139409   6.096   4.244   8.189 -2.7454  0.8031  0.2222
 5950TIP3    H239410   6.075   4.391   8.219  2.9396  2.0579 -0.8572
 5951TIP3   OH239411   1.753   4.279   2.690 -0.1159  0.0094  0.0327
 5951TIP3    H139412   1.819   4.331   2.735  0.5462 -1.8863  1.3805
 5951TIP3    H239413   1.802   4.223   2.630 -0.9964  2.7047 -3.5079
 5952TIP3   OH239414   4.283   5.735   8.259  0.2413  0.2063  0.4285
 5952TIP3    H139415   4.370   5.706   8.285  0.5143  0.2814 -0.3841
 5952TIP3    H239416   4.287   5.831   8.262 -0.2119  0.2102  1.6468
 5953TIP3   OH239417   6.479   4.430   1.559  0.2280 -0.3064 -0.0180
 5953TIP3    H139418   6.500   4.351   1.609 -0.0921 -0.3252  0.0916
 5953TIP3    H239419   6.393   4.456   1.591  0.2528 -0.0166 -0.1852
 5954TIP3   OH239420   5.057   0.261   7.821  0.5956  0.6590 -0.5911
 5954TIP3    H139421   5.095   0.199   7.759 -1.8326 -0.6515 -0.8701
 5954TIP3    H239422   4.963   0.248   7.814  0.1331  2.2586  1.5742
 5955TIP3   OH239423   4.478   5.233   7.581  0.6516  0.3787 -0.1239
 5955TIP3    H139424   4.561   5.275   7.603  0.3598 -0.7675  3.9426
 5955TIP3    H239425   4.503   5.148   7.544  1.1662  1.3363 -2.1684
 5956TIP3   OH239426   3.099   5.610   2.776 -0.6985  0.1574 -0.2581
 5956TIP3    H139427   3.117   5.698   2.742  0.6961 -1.0205 -2.8483
 5956TIP3    H239428   3.007   5.614   2.802 -0.8466  2.2247 -0.8621
 5957TIP3   OH239429   6.033   4.601   1.392  0.3946 -0.0074  0.2414
 5957TIP3    H139430   6.050   4.562   1.307  0.3452 -0.4138  0.4192
 5957TIP3    H239431   5.946   4.571   1.416  0.0159  0.8808  0.0073
 5958TIP3   OH239432   5.683   1.732   0.204 -0.6840 -0.0185 -0.4956
 5958TIP3    H139433   5.770   1.770   0.196  1.3062 -3.5433  1.5478
 5958TIP3    H239434   5.646   1.772   0.283 -0.4779  0.7338 -0.7777
 5959TIP3   OH239435   1.687   2.489   6.491 -0.1705 -0.1437  0.7806
 5959TIP3    H139436   1.671   2.407   6.443  0.6147  0.0936  0.0852
 5959TIP3    H239437   1.600   2.526   6.505 -0.4148  0.2906 -1.4251
 5960TIP3   OH239438   2.235   3.213   0.126 -0.1210  0.1051 -0.2444
 5960TIP3    H139439   2.324   3.180   0.140  0.6943  1.6893 -1.2579
 5960TIP3    H239440   2.179   3.136   0.130  1.3521 -0.9923  0.0545
 5961TIP3   OH239441   5.830   5.092   1.010  0.0594 -0.8631 -0.1671
 5961TIP3    H139442   5.830   5.173   1.062 -0.8709 -1.4396  0.7726
 5961TIP3    H239443   5.916   5.091   0.967  0.1027  0.5966 -0.1597
 5962TIP3   OH239444   2.622   4.333   8.049  0.3721  0.0714 -0.1317
 5962TIP3    H139445   2.678   4.410   8.038 -0.1103  0.9936  2.9200
 5962TIP3    H239446   2.679   4.259   8.026  2.2603  1.0866  1.0109
 5963TIP3   OH239447   5.507   4.107   1.899  0.5586  0.1894  0.1433
 5963TIP3    H139448   5.447   4.035   1.879  0.7402 -0.0029  0.2829
 5963TIP3    H239449   5.467   4.152   1.974  1.0401 -0.4817  0.8091
 5964TIP3   OH239450   0.013   3.151   7.076 -0.0014 -0.0358  0.1967
 5964TIP3    H139451  -0.040   3.229   7.058  1.5497  1.0419  0.0577
 5964TIP3    H239452  -0.006   3.092   7.003 -3.5018 -1.1718  1.8145
 5965TIP3   OH239453   5.496   3.505   0.224 -0.6327 -0.3998 -0.3711
 5965TIP3    H139454   5.589   3.499   0.200 -0.9456  0.5681 -1.9519
 5965TIP3    H239455   5.479   3.599   0.230 -1.1890 -0.5729  1.4043
 5966TIP3   OH239456   2.718   5.477   8.295 -0.5151  0.4201  0.6392
 5966TIP3    H139457   2.734   5.383   8.307 -0.7626  0.6839  3.6339
 5966TIP3    H239458   2.645   5.480   8.232 -0.1911 -1.3409  0.1136
 5967TIP3   OH239459   5.728   1.339   1.840  0.0814 -0.0157  0.3824
 5967TIP3    H139460   5.704   1.411   1.782 -0.0790  0.5178  1.1000
 5967TIP3    H239461   5.812   1.364   1.877 -0.2113  0.0420  1.0176
 5968TIP3   OH239462   2.912   0.452   1.365  0.0848  0.4806 -0.2097
 5968TIP3    H139463   2.911   0.453   1.269 -0.7697 -0.5084 -0.2360
 5968TIP3    H239464   2.977   0.386   1.387  0.0259  0.4541 -0.1176
 5969TIP3   OH239465   3.197   4.283   6.974 -0.2668  0.1143 -0.0152
 5969TIP3    H139466   3.275   4.260   6.922 -1.1325 -1.0946 -0.8278
 5969TIP3    H239467   3.231   4.341   7.042  1.6979 -1.8356  0.8104
 5970TIP3   OH239468   0.854   2.517   2.451  0.0487 -0.2527 -0.1975
 5970TIP3    H139469   0.904   2.446   2.491  0.1888  0.3505  0.7297
 5970TIP3    H239470   0.791   2.544   2.519  0.5714  1.0721 -0.2062
 5971TIP3   OH239471   2.037   5.438   8.441 -0.1012  0.0719  0.1236
 5971TIP3    H139472   1.965   5.375   8.436  0.9706 -1.1420 -0.5831
 5971TIP3    H239473   2.115   5.388   8.417  0.7712  1.6938 -0.6145
 5972TIP3   OH239474   0.570   0.697   7.048  0.0552 -0.0390  0.2228
 5972TIP3    H139475   0.659   0.662   7.052 -0.1297 -0.3928  2.0130
 5972TIP3    H239476   0.514   0.620   7.056 -0.4031  0.2915  0.1867
 5973TIP3   OH239477   5.224   2.739   0.394  0.1444 -0.4565  0.0243
 5973TIP3    H139478   5.144   2.757   0.444  0.6143 -1.6049  1.2172
 5973TIP3    H239479   5.237   2.818   0.341 -0.8511  0.4293  1.0598
 5974TIP3   OH239480   4.355   6.264   1.204 -0.5830  0.9599  0.4002
 5974TIP3    H139481   4.417   6.268   1.276 -0.1109  0.9053  0.0006
 5974TIP3    H239482   4.270   6.282   1.245 -0.5452 -0.5560  1.2452
 5975TIP3   OH239483   5.192   5.969   7.170  0.0415 -0.3584 -0.2285
 5975TIP3    H139484   5.287   5.956   7.166 -0.0475 -0.7246 -1.8446
 5975TIP3    H239485   5.182   6.059   7.201  0.8748 -0.5986  0.8292
 5976TIP3   OH239486   2.077   1.369   8.401  0.3746 -0.0455  0.1085
 5976TIP3    H139487   2.146   1.398   8.460  0.3828  0.3141 -0.0762
 5976TIP3    H239488   2.114   1.383   8.313  0.7364 -1.4563  0.0133
 5977TIP3   OH239489   6.637   1.691   8.231  0.0650  0.0731 -0.2083
 5977TIP3    H139490   6.553   1.669   8.190  0.7057  0.9907 -2.1140
 5977TIP3    H239491   6.655   1.617   8.288 -1.5115 -0.6571 -0.5892
 5978TIP3   OH239492   5.616   5.840   7.872 -0.5867  0.0930  0.5961
 5978TIP3    H139493   5.691   5.886   7.835 -0.3483  1.2606  2.3964
 5978TIP3    H239494   5.546   5.852   7.808  0.5064 -0.3377 -0.7328
 5979TIP3   OH239495   0.949   4.624   8.396  0.0079  0.0692 -0.2009
 5979TIP3    H139496   1.035   4.600   8.362  0.4501  0.7860  0.3779
 5979TIP3    H239497   0.908   4.541   8.421  0.8929 -0.2009  0.3760
 5980TIP3   OH239498   2.631   3.920   1.394  0.4988 -0.5318 -0.1567
 5980TIP3    H139499   2.644   3.924   1.299  0.6288  0.9122 -0.0895
 5980TIP3    H239500   2.607   3.828   1.410 -0.0463 -0.6859 -1.6489
 5981TIP3   OH239501   0.837   4.678   0.139  0.2696  0.0954  0.2322
 5981TIP3    H139502   0.917   4.724   0.161  1.9180 -2.3449 -0.2017
 5981TIP3    H239503   0.842   4.596   0.188 -1.0962 -0.8803 -1.1374
 5982TIP3   OH239504   0.303   1.682   0.426 -0.9369 -0.4837 -0.3658
 5982TIP3    H139505   0.227   1.702   0.481 -0.3818  1.0067 -0.0949
 5982TIP3    H239506   0.334   1.767   0.396  0.2192 -1.1151 -1.0319
 5983TIP3   OH239507   2.183   4.597   7.946 -0.1379  0.3346  0.3677
 5983TIP3    H139508   2.251   4.654   7.981  0.5208  0.4310 -0.9846
 5983TIP3    H239509   2.226   4.550   7.874 -0.6084 -2.0289  1.5366
 5984TIP3   OH239510   3.950   4.910   6.902 -0.2524 -0.4182  0.8809
 5984TIP3    H139511   3.982   4.821   6.914  0.3022 -0.5636 -1.2609
 5984TIP3    H239512   3.901   4.929   6.982  1.0800 -1.9768  2.1359
 5985TIP3   OH239513   5.468   6.594   0.570 -0.0014 -0.3773  0.0208
 5985TIP3    H139514   5.471   6.575   0.664  0.9294  2.0743  0.5586
 5985TIP3    H239515   5.382   6.564   0.543  0.4652 -3.0511  1.1556
 5986TIP3   OH239516   2.518   3.794   1.966 -0.0651  0.1733  0.3033
 5986TIP3    H139517   2.563   3.845   2.033  0.2241  0.1500  0.1276
 5986TIP3    H239518   2.585   3.734   1.932  0.6965  2.2468 -2.1736
 5987TIP3   OH239519   5.483   6.145   1.470 -0.2570 -0.2805 -0.2545
 5987TIP3    H139520   5.547   6.141   1.541  0.1398 -1.1465 -0.6381
 5987TIP3    H239521   5.454   6.236   1.468  0.5862  0.0092  0.2631
 5988TIP3   OH239522   4.105   5.787   7.928  0.4024  0.1916  0.2191
 5988TIP3    H139523   4.114   5.816   7.837  0.2508  2.3894  0.8448
 5988TIP3    H239524   4.196   5.775   7.957  0.4470 -0.6826 -0.2531
 5989TIP3   OH239525   4.842   2.856   1.568  0.1875  0.5859  0.0828
 5989TIP3    H139526   4.901   2.890   1.501 -0.3453 -1.9497 -1.8562
 5989TIP3    H239527   4.889   2.781   1.605 -1.2043 -0.6758 -0.5761
 5990TIP3   OH239528   0.464   3.949   0.418  0.5921  0.9333  0.1251
 5990TIP3    H139529   0.385   3.913   0.378  1.3608 -1.3121  0.5036
 5990TIP3    H239530   0.535   3.924   0.359  1.1320  2.4834  0.0524
 5991TIP3   OH239531   1.266   0.279   1.909  0.1512 -0.1424 -0.1330
 5991TIP3    H139532   1.204   0.240   1.847  0.6114  2.0105 -2.0647
 5991TIP3    H239533   1.349   0.234   1.890 -0.5088 -2.4827  1.9382
 5992TIP3   OH239534   2.566   3.176   8.088  0.4241 -0.1748 -0.3252
 5992TIP3    H139535   2.525   3.250   8.133  1.2820  1.3893 -1.9741
 5992TIP3    H239536   2.643   3.155   8.141  0.1104  0.0455  0.2170
 5993TIP3   OH239537   5.056   1.096   1.536 -0.2957 -0.1648 -0.6272
 5993TIP3    H139538   5.012   1.178   1.514 -0.6438 -0.0528  0.4404
 5993TIP3    H239539   5.136   1.097   1.483  0.1657  1.3110  0.0498
 5994TIP3   OH239540   0.098   6.121   1.500  0.3651  0.1618  0.3857
 5994TIP3    H139541   0.121   6.177   1.574  3.4294  0.0495 -0.3408
 5994TIP3    H239542   0.157   6.148   1.430 -0.2395 -1.8468 -1.0014
 5995TIP3   OH239543   4.239   2.181   8.732  0.3083 -0.1721 -0.1051
 5995TIP3    H139544   4.213   2.198   8.641 -0.9806  0.1674  0.3035
 5995TIP3    H239545   4.204   2.094   8.751  2.4402 -1.1857 -0.5796
 5996TIP3   OH239546   1.412   2.530   2.563  0.7312  0.2798 -0.1655
 5996TIP3    H139547   1.329   2.570   2.540 -0.5913 -2.6593 -0.9578
 5996TIP3    H239548   1.477   2.578   2.512 -0.7125  1.3763 -1.0381
 5997TIP3   OH239549   1.706   3.608   1.807 -0.6610  0.3702  0.9294
 5997TIP3    H139550   1.658   3.673   1.857  0.2476  0.2130  2.0458
 5997TIP3    H239551   1.740   3.657   1.732 -0.5672  1.0294  1.3933
 5998TIP3   OH239552   0.466   3.197   1.410  0.2301 -0.4699 -0.6500
 5998TIP3    H139553   0.426   3.193   1.323 -1.1028 -2.0441 -0.0050
 5998TIP3    H239554   0.549   3.244   1.395 -0.1828 -0.2644 -2.6628
 5999TIP3   OH239555   2.033   2.925   7.354 -0.3331 -0.4612  0.0063
 5999TIP3    H139556   2.051   2.912   7.447  0.2084 -0.2707 -0.0646
 5999TIP3    H239557   2.120   2.941   7.315 -0.6644  0.5207 -0.3543
 6000TIP3   OH239558   3.678   2.204   1.022  0.3433 -0.8073 -0.6048
 6000TIP3    H139559   3.688   2.273   1.087 -0.5406 -0.6339 -0.6403
 6000TIP3    H239560   3.717   2.239   0.942 -2.4350  0.7699 -1.3875
 6001TIP3   OH239561   1.145   6.670   2.710  0.3814  0.3042  0.7044
 6001TIP3    H139562   1.217   6.678   2.772 -0.1932  0.5180  1.3623
 6001TIP3    H239563   1.165   6.734   2.642  1.4007 -0.4584  0.2592
 6002TIP3   OH239564   3.374   4.111   6.877  0.3029  0.0019  0.0473
 6002TIP3    H139565   3.455   4.146   6.840  0.2001 -0.2957 -0.4646
 6002TIP3    H239566   3.385   4.016   6.875  0.1936 -0.0205  0.5496
 6003TIP3   OH239567   1.721   0.572   8.481 -0.1176  0.3627 -0.1934
 6003TIP3    H139568   1.800   0.531   8.447 -0.7906 -0.6624 -0.5742
 6003TIP3    H239569   1.708   0.650   8.427  0.4953  0.4059 -0.2804
 6004TIP3   OH239570   2.384   2.202   8.059  0.3505  0.4764 -0.0724
 6004TIP3    H139571   2.476   2.199   8.035  0.2711 -0.0752 -0.3430
 6004TIP3    H239572   2.384   2.198   8.155  0.5775 -1.2071 -0.1077
 6005TIP3   OH239573   1.755   1.522   2.201  0.3262 -0.1214  0.2198
 6005TIP3    H139574   1.745   1.609   2.162 -0.4341  0.1547  0.9792
 6005TIP3    H239575   1.789   1.467   2.131 -0.6593  0.4334 -0.7185
 6006TIP3   OH239576   6.018   0.586   8.403  0.8738  0.1196 -0.1959
 6006TIP3    H139577   5.995   0.494   8.418 -0.4346  0.6485  1.3478
 6006TIP3    H239578   6.110   0.592   8.428  0.2058 -0.2203  2.7014
 6007TIP3   OH239579   4.376   0.004   8.707 -0.2636  0.9245  0.3059
 6007TIP3    H139580   4.417  -0.058   8.768 -1.4998  0.4225  0.6531
 6007TIP3    H239581   4.448   0.060   8.679  0.6526  0.1101  0.9396
 6008TIP3   OH239582   1.825   2.367   1.758 -0.3481 -0.2901 -0.2681
 6008TIP3    H139583   1.766   2.312   1.706 -1.5858  1.3067 -0.6529
 6008TIP3    H239584   1.795   2.355   1.848  0.6875 -1.7402 -0.0859
 6009TIP3   OH239585   2.532   2.364   1.812 -0.1999 -0.6267 -0.3321
 6009TIP3    H139586   2.472   2.324   1.749 -1.2731 -0.5493  0.5949
 6009TIP3    H239587   2.568   2.290   1.860  1.2061 -0.7404 -1.5017
 6010TIP3   OH239588   6.615   4.252   2.749  0.4621 -0.2146 -0.5640
 6010TIP3    H139589   6.522   4.271   2.742  0.5022  0.0771 -0.2684
 6010TIP3    H239590   6.635   4.202   2.669  0.1054 -0.0783 -0.7386
 6011TIP3   OH239591   3.759   6.597   7.986  0.3617 -0.3988 -0.2325
 6011TIP3    H139592   3.800   6.511   7.977 -0.9992 -0.9636 -1.3767
 6011TIP3    H239593   3.682   6.593   7.928  0.6073  1.7973 -0.7786
 6012TIP3   OH239594   4.427   1.079   7.766  0.1161  0.0831 -0.2163
 6012TIP3    H139595   4.518   1.051   7.772 -0.8389 -3.1172  1.3521
 6012TIP3    H239596   4.409   1.123   7.849  0.3282  1.2671 -0.7693
 6013TIP3   OH239597   2.454   4.190   8.258 -0.2698 -0.0888  0.2365
 6013TIP3    H139598   2.530   4.224   8.210 -1.1428  0.6873 -0.6171
 6013TIP3    H239599   2.419   4.120   8.203 -1.5563  1.1200 -0.5508
 6014TIP3   OH239600   4.920   6.093   2.068  0.3394  0.0422 -0.4947
 6014TIP3    H139601   4.938   6.081   2.162 -0.9747 -0.0787 -0.2430
 6014TIP3    H239602   4.922   6.004   2.033  1.5370  0.1478 -0.7328
 6015TIP3   OH239603   5.369   2.906   0.727 -0.6943 -0.1002 -0.2157
 6015TIP3    H139604   5.447   2.859   0.755  0.1038  0.1753 -1.8687
 6015TIP3    H239605   5.398   2.960   0.654 -2.7281 -1.2003 -1.9598
 6016TIP3   OH239606   0.097   0.211   8.777 -0.1547  0.5562  0.0794
 6016TIP3    H139607   0.027   0.216   8.841 -0.6483 -0.2360 -0.3805
 6016TIP3    H239608   0.132   0.122   8.787  0.6807  0.8788  0.1843
 6017TIP3   OH239609   5.450   3.270   2.866  0.6832 -0.4709 -0.0776
 6017TIP3    H139610   5.457   3.183   2.828  0.9386 -1.5762  2.2975
 6017TIP3    H239611   5.359   3.295   2.853  0.7832 -0.7476 -1.4359
 6018TIP3   OH239612   3.370   4.066   2.299 -0.0752 -0.4027  0.6479
 6018TIP3    H139613   3.349   4.116   2.377  1.0225  0.7287  0.2466
 6018TIP3    H239614   3.339   3.977   2.318  0.4226 -0.2196  2.4694
 6019TIP3   OH239615   2.630   5.307   7.892  0.0126  0.1887  0.3376
 6019TIP3    H139616   2.587   5.372   7.947 -0.1105 -1.4686  2.3252
 6019TIP3    H239617   2.721   5.335   7.888 -0.4049  1.5282 -0.5314
 6020TIP3   OH239618   6.366   1.964   8.241 -0.1578 -0.1242  0.6482
 6020TIP3    H139619   6.396   1.979   8.151  0.7392 -2.3931  0.5125
 6020TIP3    H239620   6.271   1.961   8.235 -0.0940 -0.5003 -0.2667
 6021TIP3   OH239621   6.646   4.631   2.253 -0.0560  0.0699  0.8049
 6021TIP3    H139622   6.731   4.675   2.260  0.2163 -0.5794  1.9026
 6021TIP3    H239623   6.599   4.680   2.186  1.9797 -0.8587 -1.4455
 6022TIP3   OH239624   1.125   1.054   1.222  0.4768  0.3694  0.3116
 6022TIP3    H139625   1.041   1.093   1.242  0.2639  0.0204  0.1115
 6022TIP3    H239626   1.113   0.961   1.241  0.0142 -0.1384 -2.1447
 6023TIP3   OH239627   6.296   1.839   1.652  0.4831 -0.3266  0.2855
 6023TIP3    H139628   6.364   1.903   1.630  0.7136 -1.0958 -1.3923
 6023TIP3    H239629   6.335   1.785   1.720  0.4900  0.9441  1.3268
 6024TIP3   OH239630   0.055   3.779   8.674 -0.1158  0.9546 -0.5438
 6024TIP3    H139631   0.048   3.840   8.747  0.7073  1.2552 -0.7053
 6024TIP3    H239632  -0.010   3.711   8.693  2.6123 -1.0586  2.4596
 6025TIP3   OH239633   6.174   1.833   0.288  0.5909 -0.1779 -0.0176
 6025TIP3    H139634   6.208   1.843   0.199  1.0541 -0.0332  0.1765
 6025TIP3    H239635   6.242   1.870   0.344  0.8848 -1.4603  0.4930
 6026TIP3   OH239636   2.475   5.667   0.836  0.1688  0.0203 -0.2673
 6026TIP3    H139637   2.456   5.592   0.779 -0.2632  0.0836 -0.2110
 6026TIP3    H239638   2.459   5.633   0.925  1.1511 -0.1770 -0.1477
 6027TIP3   OH239639   0.429   4.820   1.219 -0.0415  0.1505 -0.3175
 6027TIP3    H139640   0.467   4.900   1.255  2.0151 -0.9825  0.1496
 6027TIP3    H239641   0.483   4.749   1.253 -1.6577 -1.4625 -0.8987
 6028TIP3   OH239642   6.053   2.695   7.670 -0.8507 -0.0642  0.4413
 6028TIP3    H139643   6.032   2.718   7.760  1.9930  1.2971  0.8731
 6028TIP3    H239644   6.091   2.774   7.633 -0.5691 -1.0368 -1.5033
 6029TIP3   OH239645   4.097   2.284   2.364  0.0419 -1.4913 -0.0290
 6029TIP3    H139646   4.038   2.355   2.341  1.3670 -0.8330 -1.6671
 6029TIP3    H239647   4.075   2.261   2.454  0.4744  1.9274  1.0933
 6030TIP3   OH239648   0.857   1.854   0.300  0.3903 -0.1215  0.2764
 6030TIP3    H139649   0.790   1.893   0.356  0.2960 -0.3439  0.3196
 6030TIP3    H239650   0.808   1.796   0.241  0.3814  0.8388 -0.6817
 6031TIP3   OH239651   2.645   3.284   0.991  0.2672  0.2775 -0.4719
 6031TIP3    H139652   2.596   3.262   1.071 -0.1452  0.9891 -0.5256
 6031TIP3    H239653   2.632   3.209   0.934  1.4314 -0.7313  0.5080
 6032TIP3   OH239654   6.129   2.484   7.968 -0.2097  0.1973 -0.3958
 6032TIP3    H139655   6.038   2.487   7.996 -0.7347  0.8721 -2.0402
 6032TIP3    H239656   6.173   2.428   8.032 -2.2003 -1.8649 -0.7299
 6033TIP3   OH239657   2.052   6.600   7.023 -0.0825  1.0444 -0.0457
 6033TIP3    H139658   2.049   6.504   7.028  1.8714  0.9363 -0.2211
 6033TIP3    H239659   1.979   6.629   7.078 -0.4571 -0.5287  0.3420
 6034TIP3   OH239660   2.986   3.766   7.465 -0.4841  0.2765 -0.3132
 6034TIP3    H139661   2.978   3.732   7.376 -0.7070  2.2661 -1.1020
 6034TIP3    H239662   2.946   3.853   7.461  0.9534  1.0663  1.3461
 6035TIP3   OH239663   1.962   1.507   1.178 -0.8032  0.3217  0.2809
 6035TIP3    H139664   1.990   1.545   1.094  0.4168  0.9202  0.9365
 6035TIP3    H239665   1.893   1.566   1.208 -0.6830  0.5740  0.0737
 6036TIP3   OH239666   1.916   4.720   0.518 -0.1178  0.0092  0.1848
 6036TIP3    H139667   1.972   4.789   0.552  0.4317 -0.7713  0.8867
 6036TIP3    H239668   1.960   4.690   0.439  0.9364 -1.1886  1.1930
 6037TIP3   OH239669   2.188   6.478   7.949  0.5401 -0.0086  0.1540
 6037TIP3    H139670   2.255   6.530   7.906 -0.6205  0.3215 -1.3526
 6037TIP3    H239671   2.148   6.427   7.879 -1.7984  0.9663  0.6609
 6038TIP3   OH239672   2.990   6.062   7.797 -0.2878 -0.3607 -0.6908
 6038TIP3    H139673   3.013   6.141   7.846 -0.7866 -0.9431  0.5264
 6038TIP3    H239674   2.958   6.094   7.713 -0.7253  0.7405 -0.1157
 6039TIP3   OH239675   3.757   6.719   1.561 -0.5733 -0.5404  0.0679
 6039TIP3    H139676   3.720   6.663   1.493 -1.9598  0.8401 -0.3737
 6039TIP3    H239677   3.818   6.663   1.608 -0.2665 -1.7914 -1.7230
 6040TIP3   OH239678   3.279   4.067   8.493  0.2339 -0.0286  0.4008
 6040TIP3    H139679   3.356   4.104   8.536 -1.1138  0.7861  2.2212
 6040TIP3    H239680   3.228   4.028   8.564 -0.7223 -1.1720 -0.8619
 6041TIP3   OH239681   3.010   2.387   1.629  0.3663  0.5537 -0.1384
 6041TIP3    H139682   3.012   2.461   1.569  1.8982  0.3252 -0.4155
 6041TIP3    H239683   2.959   2.320   1.584  0.7157  0.7138 -0.7811
 6042TIP3   OH239684   5.803   1.430   6.812  0.0276  0.4395  0.1536
 6042TIP3    H139685   5.708   1.421   6.823 -0.0593 -1.5658 -1.4995
 6042TIP3    H239686   5.813   1.482   6.732  0.2512 -0.5967 -0.5162
 6043TIP3   OH239687   6.687   1.357   7.827  0.0231  0.0178 -0.6249
 6043TIP3    H139688   6.724   1.436   7.865  1.3989 -0.7295 -0.3531
 6043TIP3    H239689   6.715   1.358   7.736  0.5800 -0.4670 -0.4615
 6044TIP3   OH239690   2.219   4.520   8.219  0.6864  0.5239  0.3419
 6044TIP3    H139691   2.314   4.504   8.227  0.2932 -1.7368  1.2501
 6044TIP3    H239692   2.207   4.542   8.127  1.9020 -1.0952 -0.2713
 6045TIP3   OH239693   2.476   3.872   7.879  0.5301  0.0442  0.0314
 6045TIP3    H139694   2.410   3.806   7.899 -0.2372  1.3380  2.2849
 6045TIP3    H239695   2.431   3.934   7.822  0.8111 -0.6323 -0.9464
 6046TIP3   OH239696   3.839   0.392   0.066  0.3543  0.2263 -0.2423
 6046TIP3    H139697   3.763   0.386   0.124  0.7714  0.4917  0.3545
 6046TIP3    H239698   3.863   0.301   0.049 -1.6537  0.0461 -2.5938
 6047TIP3   OH239699   1.992   5.451   0.423 -0.1720  0.4219  0.0728
 6047TIP3    H139700   2.075   5.405   0.413 -0.1697  0.3935  0.2260
 6047TIP3    H239701   1.933   5.408   0.361  0.3895  1.5469 -1.3097
 6048TIP3   OH239702   3.802   3.305   0.296  0.0114  0.1278 -0.2882
 6048TIP3    H139703   3.710   3.291   0.274 -0.4159  0.4706  1.1482
 6048TIP3    H239704   3.835   3.219   0.321 -0.0889  0.1142 -0.2048
 6049TIP3   OH239705   0.123   2.233   8.334  0.0128 -0.1937 -0.4247
 6049TIP3    H139706   0.064   2.185   8.275  1.0855 -0.0953 -1.6009
 6049TIP3    H239707   0.199   2.176   8.343  0.4540  0.4211 -0.2502
 6050TIP3   OH239708   4.773   5.772   7.463 -0.0377 -0.1941 -0.2659
 6050TIP3    H139709   4.809   5.685   7.479 -0.1658 -0.1469  0.3107
 6050TIP3    H239710   4.830   5.810   7.397  2.0005  0.5090  1.7983
 6051TIP3   OH239711   6.423   3.052   8.386 -0.3105 -0.3266  0.2406
 6051TIP3    H139712   6.502   3.007   8.355  0.7819  1.3720  0.4748
 6051TIP3    H239713   6.435   3.143   8.360 -2.9228 -0.2530 -1.1071
 6052TIP3   OH239714   2.076   4.554   1.203  0.2295  0.6435 -0.0614
 6052TIP3    H139715   2.050   4.599   1.123  2.1672 -0.2080 -1.2289
 6052TIP3    H239716   2.025   4.473   1.202 -0.5507  1.1167  0.1584
 6053TIP3   OH239717   0.825   3.095   8.934 -0.1730 -0.2552  1.0768
 6053TIP3    H139718   0.898   3.051   8.891  0.1269  0.4145  0.8853
 6053TIP3    H239719   0.770   3.024   8.967  0.1176 -0.7735  0.4686
 6054TIP3   OH239720   2.421   1.395   1.045  0.1560 -0.5194 -0.3619
 6054TIP3    H139721   2.392   1.458   1.112 -0.3187 -2.1484  1.0523
 6054TIP3    H239722   2.485   1.443   0.993 -0.6045  1.3038  0.2753
 6055TIP3   OH239723   2.153   5.573   1.798  0.2719 -0.2798 -0.2898
 6055TIP3    H139724   2.120   5.484   1.810  1.1208 -0.7164 -1.1153
 6055TIP3    H239725   2.075   5.625   1.778  0.1502 -1.5797 -3.7769
 6056TIP3   OH239726   2.280   0.531   8.523 -0.1962 -0.0191  0.1203
 6056TIP3    H139727   2.266   0.468   8.452  1.2922  0.0397 -0.2659
 6056TIP3    H239728   2.338   0.485   8.584 -1.2571  0.0227  1.1965
 6057TIP3   OH239729   3.743   0.686   7.301 -0.3463 -0.3626  0.0658
 6057TIP3    H139730   3.782   0.755   7.355  0.2226 -1.5346  1.2285
 6057TIP3    H239731   3.745   0.721   7.212  3.0183 -0.1265  0.0890
 6058TIP3   OH239732   6.401   3.581   8.706  0.3955 -0.3272  0.2978
 6058TIP3    H139733   6.329   3.564   8.767 -0.0362 -0.8043 -0.3271
 6058TIP3    H239734   6.388   3.517   8.635 -0.7023  1.9382 -1.6818
 6059TIP3   OH239735   6.267   2.977   8.888 -0.0206 -0.3779 -0.3198
 6059TIP3    H139736   6.239   3.029   8.813 -0.9927 -1.3861 -0.6836
 6059TIP3    H239737   6.291   2.892   8.852  0.0215 -0.7071  0.4510
 6060TIP3   OH239738   3.675   2.983   0.773  0.1112 -0.3044  0.3521
 6060TIP3    H139739   3.737   3.043   0.732 -1.0855  1.8839  1.5478
 6060TIP3    H239740   3.720   2.952   0.852  1.5622 -2.7953 -1.3279
 6061TIP3   OH239741   0.924   0.305   1.635 -0.1799 -0.6653  0.6536
 6061TIP3    H139742   0.844   0.340   1.596  0.7227  0.8165  0.0044
 6061TIP3    H239743   0.986   0.378   1.630  0.5044 -0.9437  3.3777
 6062TIP3   OH239744   6.411   0.905   0.955  0.6974  0.1933  0.2349
 6062TIP3    H139745   6.398   0.916   0.860 -0.2787 -0.3147  0.2981
 6062TIP3    H239746   6.358   0.829   0.977 -1.1523  1.8069  1.6428
 6063TIP3   OH239747   0.051   2.911   7.732 -0.0158 -0.8292  0.0215
 6063TIP3    H139748   0.090   2.896   7.646 -0.7173  3.1990 -1.1847
 6063TIP3    H239749  -0.043   2.914   7.716 -0.1996 -0.6643  1.0704
 6064TIP3   OH239750   2.577   6.306   1.440  0.0363  0.0955  0.2515
 6064TIP3    H139751   2.556   6.288   1.532  2.3974 -2.0973  0.4871
 6064TIP3    H239752   2.579   6.219   1.399  2.7148  0.6302 -0.9492
 6065TIP3   OH239753   3.440   2.387   0.503 -0.2025  0.0885  0.3763
 6065TIP3    H139754   3.527   2.350   0.515  0.1182  0.5835 -0.3209
 6065TIP3    H239755   3.396   2.326   0.442 -0.1332  0.1564  0.2583
 6066TIP3   OH239756   1.552   1.309   1.432 -0.2757 -0.2647  0.1399
 6066TIP3    H139757   1.499   1.254   1.375  2.0462 -2.2488 -0.2678
 6066TIP3    H239758   1.588   1.376   1.374  0.3460 -0.9746 -0.3131
 6067TIP3   OH239759   4.926   2.820   8.003 -0.4264  0.3536 -0.0915
 6067TIP3    H139760   4.934   2.762   7.927 -2.0556  1.0114 -0.8028
 6067TIP3    H239761   4.920   2.908   7.966 -2.0709  0.6221  0.6921
 6068TIP3   OH239762   4.668   3.612   6.706 -0.1127 -0.1460  0.0915
 6068TIP3    H139763   4.589   3.608   6.760  0.2588 -0.6649  0.6296
 6068TIP3    H239764   4.722   3.679   6.748  0.3979 -0.9122  0.7076
 6069TIP3   OH239765   3.433   5.782   1.040 -0.7030  0.2886 -0.6227
 6069TIP3    H139766   3.384   5.761   1.120 -0.4318  0.1784 -0.4843
 6069TIP3    H239767   3.375   5.756   0.969 -1.5113  1.6084 -0.4844
 6070TIP3   OH239768   5.290   0.906   2.311  0.0761 -0.6205 -0.0082
 6070TIP3    H139769   5.361   0.899   2.248 -0.6516  1.0040 -1.0959
 6070TIP3    H239770   5.330   0.945   2.388  0.7777 -1.6762  0.1686
 6071TIP3   OH239771   5.556   1.962   1.704  0.1826 -0.2980  0.1732
 6071TIP3    H139772   5.606   2.043   1.698  1.0773 -0.9327 -1.7190
 6071TIP3    H239773   5.598   1.914   1.775  0.0892  0.5809  0.8380
 6072TIP3   OH239774   2.447   1.266   0.726  0.4508  0.0447  0.2604
 6072TIP3    H139775   2.407   1.179   0.720  0.9919 -0.2296  0.5944
 6072TIP3    H239776   2.387   1.316   0.782  0.1783 -0.1316  0.1285
 6073TIP3   OH239777   0.811   1.662   2.915 -0.2723 -0.2007  0.1196
 6073TIP3    H139778   0.869   1.706   2.853 -2.1456  1.6048 -0.4659
 6073TIP3    H239779   0.831   1.701   3.000  0.7356 -1.0537  0.2911
 6074TIP3   OH239780   6.614   5.192   7.249  0.5786 -0.3896 -0.3023
 6074TIP3    H139781   6.629   5.248   7.173 -0.5435  0.6601  0.2061
 6074TIP3    H239782   6.550   5.240   7.302  2.4325 -0.3587  2.0594
 6075TIP3   OH239783   6.662   5.493   0.284 -0.3239  0.3432 -0.3078
 6075TIP3    H139784   6.589   5.551   0.307  0.7903  1.5375  0.3791
 6075TIP3    H239785   6.719   5.547   0.229  1.7303  0.6424  1.9312
 6076TIP3   OH239786   4.436   2.033   1.143 -0.0744  0.0980 -0.2689
 6076TIP3    H139787   4.468   1.958   1.193  0.2457  1.2519  1.3276
 6076TIP3    H239788   4.377   1.994   1.078 -0.2549 -1.5037  0.7817
 6077TIP3   OH239789   6.376   1.398   2.768 -0.2900  0.2599  0.0826
 6077TIP3    H139790   6.321   1.453   2.712 -0.3045  0.8052  0.6266
 6077TIP3    H239791   6.453   1.379   2.715 -0.8594 -0.2706 -0.5844
 6078TIP3   OH239792   0.588   6.493   1.438  0.2658  0.4723  0.5457
 6078TIP3    H139793   0.518   6.475   1.501  0.5390  1.7991  1.2581
 6078TIP3    H239794   0.545   6.542   1.368 -0.4368 -2.5305 -1.2989
 6079TIP3   OH239795   4.621   4.052   0.645  0.3876 -0.0115 -0.2546
 6079TIP3    H139796   4.539   4.093   0.618  0.3845  1.0735  1.2752
 6079TIP3    H239797   4.661   4.116   0.704  1.7505 -1.0547 -0.0098
 6080TIP3   OH239798   5.914   6.324   0.627  0.2102 -0.1572 -0.3296
 6080TIP3    H139799   6.007   6.330   0.603  0.2983 -1.7228 -0.4436
 6080TIP3    H239800   5.869   6.314   0.543 -0.1225  1.0485 -0.3099
 6081TIP3   OH239801   5.261   3.512   7.073 -0.6787 -0.9978 -0.0117
 6081TIP3    H139802   5.269   3.442   7.008 -0.2530 -0.3370 -0.6829
 6081TIP3    H239803   5.330   3.573   7.051 -0.5755 -0.7253  1.0372
 6082TIP3   OH239804   1.142   0.258   8.743 -0.1372  0.4164  0.0850
 6082TIP3    H139805   1.092   0.258   8.662  0.5677 -0.8166 -0.3796
 6082TIP3    H239806   1.086   0.213   8.806  0.7933 -2.0864 -0.7547
 6083TIP3   OH239807   5.012   5.692   8.866  0.5600  0.0557  0.1633
 6083TIP3    H139808   4.944   5.759   8.870  1.1945  0.6812  1.0415
 6083TIP3    H239809   5.091   5.737   8.896  0.9725 -1.1186  0.9115
 6084TIP3   OH239810   4.302   3.520   1.157 -0.1314  0.2151 -0.2687
 6084TIP3    H139811   4.219   3.567   1.158 -0.7169 -0.7955  0.8535
 6084TIP3    H239812   4.281   3.432   1.188  1.1679 -0.4070 -1.0568
 6085TIP3   OH239813   0.338   4.704   8.701  0.4945 -0.4261  0.2931
 6085TIP3    H139814   0.370   4.615   8.691  0.4341 -0.2266 -2.3309
 6085TIP3    H239815   0.248   4.702   8.667  0.1180  0.4298  1.1720
 6086TIP3   OH239816   4.504   2.407   8.833 -0.2317  0.8799 -0.1011
 6086TIP3    H139817   4.410   2.391   8.825 -0.1015  0.1979 -0.3814
 6086TIP3    H239818   4.535   2.339   8.893  0.0287  1.3226  0.2755
 6087TIP3   OH239819   4.702   5.947   7.660 -0.4728  0.1720  0.3966
 6087TIP3    H139820   4.732   5.882   7.596  1.2346 -0.1168  1.4326
 6087TIP3    H239821   4.671   6.020   7.606  3.1256  0.9712 -0.9132
 6088TIP3   OH239822   1.789   2.059   3.018  0.1494  0.3746 -0.2917
 6088TIP3    H139823   1.717   2.122   3.017 -1.2211 -1.1206 -0.5573
 6088TIP3    H239824   1.760   1.989   2.960  1.1381 -0.9824  0.7813
 6089TIP3   OH239825   2.678   1.268   7.688  0.6310 -0.3071  0.5459
 6089TIP3    H139826   2.661   1.177   7.663 -0.4208 -0.0002  0.0719
 6089TIP3    H239827   2.715   1.262   7.776  0.5856 -1.1949  0.5169
 6090TIP3   OH239828   3.259   5.036   8.391  0.2838  0.3498  0.3529
 6090TIP3    H139829   3.253   4.953   8.344 -0.1911  0.0952  0.8497
 6090TIP3    H239830   3.315   5.018   8.466  1.9313  1.0265 -0.6614
 6091TIP3   OH239831   1.340   5.086   0.209 -0.0445 -0.0925  0.1156
 6091TIP3    H139832   1.346   5.174   0.172  0.6073  0.8153  2.2030
 6091TIP3    H239833   1.272   5.042   0.157 -0.1536  1.5262 -1.1797
 6092TIP3   OH239834   0.766   0.197   2.370  0.7074 -0.6359  0.6097
 6092TIP3    H139835   0.685   0.145   2.374  2.1667 -3.1240  0.1011
 6092TIP3    H239836   0.826   0.144   2.319  2.0603  2.1105 -0.8586
 6093TIP3   OH239837   2.897   2.668   0.147  0.3155  0.2334 -0.0746
 6093TIP3    H139838   2.860   2.750   0.179 -0.8379 -0.4627  0.4495
 6093TIP3    H239839   2.984   2.664   0.186  0.3299  1.1384  0.0076
 6094TIP3   OH239840   3.559   3.500   7.802 -0.2020 -0.3846  0.0150
 6094TIP3    H139841   3.625   3.548   7.753 -0.5510 -1.0560 -1.1414
 6094TIP3    H239842   3.476   3.523   7.760 -0.7294  0.4657  1.4606
 6095TIP3   OH239843   1.443   4.930   2.115 -0.1932  0.4082  0.0351
 6095TIP3    H139844   1.417   4.865   2.051 -2.0418  0.8232  0.3113
 6095TIP3    H239845   1.402   4.902   2.197  1.5131  0.2846  0.9069
 6096TIP3   OH239846   6.060   0.930   1.999  0.0069  0.2116 -0.6604
 6096TIP3    H139847   6.087   0.970   1.916  1.3773 -0.2418 -0.4714
 6096TIP3    H239848   5.997   0.992   2.037  0.9500  1.4628 -1.0625
 6097TIP3   OH239849   6.734   2.946   0.075 -0.6672 -0.3732  0.0974
 6097TIP3    H139850   6.698   3.033   0.057  0.6147  0.0346 -0.6002
 6097TIP3    H239851   6.725   2.898  -0.007 -0.8847 -0.7327  0.3269
 6098TIP3   OH239852   5.872   3.372   8.075  0.1267  0.1073  0.1253
 6098TIP3    H139853   5.958   3.333   8.057  0.9891  1.0615  1.8842
 6098TIP3    H239854   5.888   3.430   8.149 -2.0530  0.3392  0.4657
 6099TIP3   OH239855   1.212   3.049   6.900 -0.3386 -0.0820 -0.0915
 6099TIP3    H139856   1.200   3.126   6.845 -0.2819 -0.9502 -1.3672
 6099TIP3    H239857   1.307   3.033   6.900 -0.2115  0.5416  1.1824
 6100TIP3   OH239858   4.634   6.451   8.083  0.1805  0.2278 -0.1000
 6100TIP3    H139859   4.687   6.373   8.070 -2.2984 -1.8583  1.2665
 6100TIP3    H239860   4.622   6.487   7.995  0.3157 -1.7014 -0.9613
 6101TIP3   OH239861   0.050   0.918   7.914  0.0666 -0.1014 -0.1157
 6101TIP3    H139862  -0.014   0.989   7.918 -1.6943 -1.6716  1.4703
 6101TIP3    H239863   0.128   0.958   7.875 -0.6296  2.8489  1.2636
 6102TIP3   OH239864   4.831   2.873   0.942 -0.1910 -0.1247 -0.2926
 6102TIP3    H139865   4.877   2.791   0.928 -0.5058 -0.1843 -1.0015
 6102TIP3    H239866   4.738   2.849   0.942 -0.3308  0.3756 -1.5698
 6103TIP3   OH239867   1.464   1.789   8.388 -0.5408  0.8988 -0.1295
 6103TIP3    H139868   1.417   1.798   8.305 -1.0379  2.1337  0.2643
 6103TIP3    H239869   1.497   1.699   8.387 -0.3713  0.9507 -1.7457
 6104TIP3   OH239870   0.287   4.206   2.137 -0.2809 -0.1436 -0.4204
 6104TIP3    H139871   0.335   4.217   2.056  1.5197 -0.2769  0.5871
 6104TIP3    H239872   0.286   4.111   2.152 -1.6448 -0.2243 -0.8575
 6105TIP3   OH239873   3.832   0.991   0.355 -0.0625  0.0214  0.2721
 6105TIP3    H139874   3.741   0.985   0.327  0.2415  0.5179 -0.8779
 6105TIP3    H239875   3.829   1.046   0.434 -0.8522 -0.8054  0.8420
 6106TIP3   OH239876   1.943   2.024   1.835 -0.3451  0.0645 -0.1900
 6106TIP3    H139877   2.033   1.992   1.839 -0.3500 -0.1931 -1.5815
 6106TIP3    H239878   1.894   1.953   1.793 -0.9448  0.7232 -0.6354
 6107TIP3   OH239879   2.682   1.763   1.650  0.1952  0.3397 -0.4133
 6107TIP3    H139880   2.716   1.686   1.694  1.7027  0.9515 -0.4327
 6107TIP3    H239881   2.647   1.818   1.720 -1.1918 -0.4625 -0.4303
 6108TIP3   OH239882   3.803   5.173   8.127  0.2074  0.1769 -0.3639
 6108TIP3    H139883   3.762   5.133   8.204  0.3619 -1.0096 -0.8652
 6108TIP3    H239884   3.770   5.121   8.053  0.6559  0.8058 -1.0208
 6109TIP3   OH239885   4.104   0.870   8.312  0.2491  0.7428  0.4943
 6109TIP3    H139886   4.126   0.919   8.233  2.7935  0.2809  0.8496
 6109TIP3    H239887   4.165   0.902   8.378  0.6816 -1.5044  1.2583
 6110TIP3   OH239888   4.677   3.377   8.887 -0.5909 -0.3660  0.1055
 6110TIP3    H139889   4.611   3.339   8.944  0.6037 -0.6968  1.3309
 6110TIP3    H239890   4.760   3.351   8.927  0.2831 -0.3640 -1.6390
 6111TIP3   OH239891   1.390   5.660   0.729 -0.0080 -0.4677  0.1336
 6111TIP3    H139892   1.350   5.619   0.653  0.0815  1.2843 -0.9041
 6111TIP3    H239893   1.390   5.591   0.796 -0.9645 -1.7505 -1.1258
 6112TIP3   OH239894   1.360   1.559   1.981  0.3015 -0.2550 -0.4847
 6112TIP3    H139895   1.364   1.489   2.046  1.1983  0.8906  0.7534
 6112TIP3    H239896   1.338   1.638   2.032 -2.2008  0.1728 -2.0183
 6113TIP3   OH239897   3.909   3.703   7.931  0.4178  0.4171  0.1326
 6113TIP3    H139898   3.866   3.760   7.995 -0.2264  0.9087 -0.7085
 6113TIP3    H239899   3.972   3.760   7.887 -0.2883  0.5270 -0.7688
 6114TIP3   OH239900   1.321   5.903   8.342 -0.4380  0.0113  0.0455
 6114TIP3    H139901   1.386   5.837   8.365  1.8046  1.6250 -1.2723
 6114TIP3    H239902   1.253   5.855   8.295  0.8837 -1.4375 -0.4820
 6115TIP3   OH239903   5.090   0.406   8.589  0.4469  0.2944 -0.3006
 6115TIP3    H139904   5.127   0.459   8.660 -3.0969  2.7321 -0.0156
 6115TIP3    H239905   5.112   0.454   8.510  0.2335  0.2751 -0.3722
 6116TIP3   OH239906   0.365   1.265   7.725 -0.5637 -0.1604 -0.2695
 6116TIP3    H139907   0.371   1.357   7.752  0.3857  0.1922 -1.5407
 6116TIP3    H239908   0.297   1.228   7.780 -1.2431  1.4085  0.0133
 6117TIP3   OH239909   5.316   1.298   8.523  0.4054 -0.0806 -0.1974
 6117TIP3    H139910   5.406   1.322   8.543  0.8221 -1.4101 -0.3701
 6117TIP3    H239911   5.287   1.361   8.457  0.8934  0.9039  0.5029
 6118TIP3   OH239912   2.365   5.099   8.218  0.2706  0.6786  0.2777
 6118TIP3    H139913   2.303   5.048   8.166  0.2331  0.4204  0.5714
 6118TIP3    H239914   2.449   5.088   8.174  0.2331  0.4897  0.2534
 6119TIP3   OH239915   2.610   1.173   7.367  0.7928  0.6990 -0.1036
 6119TIP3    H139916   2.628   1.228   7.292  1.1911  1.1395  0.3073
 6119TIP3    H239917   2.689   1.119   7.378  1.0972  1.2557  0.5200
 6120TIP3   OH239918   1.012   4.876   6.949 -0.5591 -0.0304  0.0662
 6120TIP3    H139919   0.923   4.858   6.921 -0.2644  0.7901 -1.5226
 6120TIP3    H239920   1.067   4.827   6.887  0.1705  3.4923 -2.3972
 6121TIP3   OH239921   2.118   6.296   1.858 -0.1734  0.1682  0.0141
 6121TIP3    H139922   2.044   6.309   1.919  0.1182  1.0329  0.2048
 6121TIP3    H239923   2.161   6.217   1.890 -0.0868  0.5479  0.8891
 6122TIP3   OH239924   1.539   1.774   1.605 -0.2408  0.0322 -0.6090
 6122TIP3    H139925   1.484   1.696   1.608 -1.1606  0.6304 -1.2474
 6122TIP3    H239926   1.503   1.825   1.532  0.0866  1.2256  0.0420
 6123TIP3   OH239927   5.115   0.194   2.471 -0.2553 -0.1235  0.6451
 6123TIP3    H139928   5.152   0.105   2.471  0.6190  0.2266  0.0108
 6123TIP3    H239929   5.136   0.229   2.385 -0.7158  0.6527  0.8393
 6124TIP3   OH239930   5.948   1.394   0.986 -0.0613 -0.2209  0.5055
 6124TIP3    H139931   5.867   1.426   0.947 -0.5581 -2.0447 -0.0659
 6124TIP3    H239932   5.928   1.388   1.080 -1.1046 -1.8951  0.2332
 6125TIP3   OH239933   5.769   1.258   8.704  0.2231  1.1502 -0.1452
 6125TIP3    H139934   5.812   1.296   8.627  1.4798  0.7815  0.3527
 6125TIP3    H239935   5.834   1.200   8.742 -0.5727  0.9075  0.9022
 6126TIP3   OH239936   0.793   3.654   3.074 -0.2130 -0.0869 -0.0116
 6126TIP3    H139937   0.872   3.704   3.054  0.6578 -1.2955  0.2774
 6126TIP3    H239938   0.765   3.620   2.989  0.0299 -0.2900 -0.0127
 6127TIP3   OH239939   3.304   1.269   1.025  0.1409  0.1851  0.3387
 6127TIP3    H139940   3.210   1.277   1.007 -0.4334 -2.4385  1.7134
 6127TIP3    H239941   3.318   1.320   1.104 -0.1301  0.5078  0.1829
 6128TIP3   OH239942   2.066   6.694   8.047  0.1731  0.6299 -0.2328
 6128TIP3    H139943   2.135   6.632   8.025  0.6083  0.9560  0.2096
 6128TIP3    H239944   2.033   6.665   8.132 -1.9455 -1.0138 -1.4984
 6129TIP3   OH239945   4.054   0.447   1.084  0.3116 -0.1334 -0.0570
 6129TIP3    H139946   4.123   0.381   1.086 -0.8229 -1.3798 -0.8099
 6129TIP3    H239947   4.004   0.428   1.004 -1.2946  0.3249  0.7974
 6130TIP3   OH239948   4.127   4.830   0.352 -0.5104  0.6201  0.4046
 6130TIP3    H139949   4.123   4.864   0.263  0.1592  1.0065  0.5205
 6130TIP3    H239950   4.198   4.879   0.394  0.3769 -0.7983  0.6202
 6131TIP3   OH239951   4.967   3.122   8.233 -0.2449  0.2920 -0.3040
 6131TIP3    H139952   4.941   3.213   8.251 -2.6789 -0.4105  0.1336
 6131TIP3    H239953   4.900   3.069   8.275  0.2227 -1.7050 -1.8860
 6132TIP3   OH239954   0.744   2.506   2.204  0.2546  0.3171  0.0613
 6132TIP3    H139955   0.799   2.501   2.282 -0.0965 -1.4936  0.2275
 6132TIP3    H239956   0.656   2.518   2.237 -0.0311 -1.4326  0.0402
 6133TIP3   OH239957   1.295   5.962   0.109  0.1997 -0.5307 -0.1042
 6133TIP3    H139958   1.315   5.911   0.187  0.0461 -1.6656 -0.7836
 6133TIP3    H239959   1.201   5.948   0.094  0.0224  0.4383  0.0289
 6134TIP3   OH239960   6.223   6.492   0.567 -0.0550  0.7086 -0.6665
 6134TIP3    H139961   6.301   6.441   0.589  0.1329  1.4753  0.5319
 6134TIP3    H239962   6.197   6.459   0.481  0.3217 -1.0579 -0.1430
 6135TIP3   OH239963   6.298   3.832   8.285 -0.1324  0.3914  0.7007
 6135TIP3    H139964   6.322   3.919   8.316  2.3972 -0.0658  0.2221
 6135TIP3    H239965   6.366   3.774   8.321 -1.3100 -1.2894  0.3646
 6136TIP3   OH239966   3.164   3.744   1.983 -0.0624  0.6104 -0.0084
 6136TIP3    H139967   3.077   3.723   2.018  0.6831  0.8933  2.1568
 6136TIP3    H239968   3.181   3.673   1.921 -0.3719 -1.5956  2.2160
 6137TIP3   OH239969   0.809   4.736   1.269 -0.1700  0.0306 -0.3837
 6137TIP3    H139970   0.730   4.682   1.276  0.3664 -0.7655 -0.3945
 6137TIP3    H239971   0.782   4.810   1.215 -1.0192 -0.0291 -0.0568
 6138TIP3   OH239972   5.243   5.731   8.236  0.6591 -0.1826  0.1579
 6138TIP3    H139973   5.322   5.679   8.250 -0.2640 -1.9412 -0.7690
 6138TIP3    H239974   5.183   5.702   8.304  0.7914  1.1926  0.8985
 6139TIP3   OH239975   2.767   2.867   1.440  0.1296 -0.3871  0.0825
 6139TIP3    H139976   2.700   2.805   1.412 -0.0586  0.2316 -0.8794
 6139TIP3    H239977   2.831   2.866   1.368  0.0118  0.6848 -0.0502
 6140TIP3   OH239978   1.490   2.556   7.741  0.2748  0.0868 -0.2874
 6140TIP3    H139979   1.459   2.639   7.705 -0.9757  0.2004  0.9320
 6140TIP3    H239980   1.465   2.490   7.677 -0.4720  0.4467 -0.3729
 6141TIP3   OH239981   1.584   5.136   1.398  0.0491 -0.1197 -0.1760
 6141TIP3    H139982   1.580   5.230   1.412 -1.1537 -0.0848 -0.6617
 6141TIP3    H239983   1.665   5.123   1.348 -0.5877  0.8626 -1.5227
 6142TIP3   OH239984   0.836   2.156   7.274  0.3092 -0.0699 -0.4959
 6142TIP3    H139985   0.802   2.234   7.230 -1.9487 -1.3848 -1.2384
 6142TIP3    H239986   0.848   2.092   7.204  1.7441 -0.5675  0.1522
 6143TIP3   OH239987   6.669   1.366   1.792 -0.5142  0.0168 -0.4103
 6143TIP3    H139988   6.582   1.369   1.753 -0.4775 -0.2543 -0.5139
 6143TIP3    H239989   6.721   1.313   1.732 -0.6286 -0.9828  0.3318
 6144TIP3   OH239990   6.176   4.367   6.866  0.5637 -0.0436 -0.2499
 6144TIP3    H139991   6.122   4.348   6.943  2.2881  0.3573  1.1206
 6144TIP3    H239992   6.168   4.289   6.811 -0.6850 -0.3486  0.3289
 6145TIP3   OH239993   2.218   0.443   0.331  0.2402 -0.6340 -0.9372
 6145TIP3    H139994   2.185   0.498   0.260  1.1248  0.3341 -0.6260
 6145TIP3    H239995   2.279   0.383   0.288  1.0305  0.1726 -0.9659
 6146TIP3   OH239996   3.713   6.332   8.815  0.1459 -0.1469  0.0526
 6146TIP3    H139997   3.761   6.404   8.775 -0.2589  0.7591  1.1686
 6146TIP3    H239998   3.759   6.253   8.784  0.7960  0.5796 -0.9082
 6147TIP3   OH239999   4.046   1.610   2.783 -0.0917 -0.0408  0.5075
 6147TIP3    H140000   3.971   1.597   2.842  1.1089  0.0042  2.0898
 6147TIP3    H240001   4.072   1.522   2.757 -0.8263 -0.0478 -0.2746
 6148TIP3   OH240002   5.515   4.148   0.359 -0.6738 -0.9285 -0.2290
 6148TIP3    H140003   5.513   4.242   0.341  0.5101 -0.8657 -0.1082
 6148TIP3    H240004   5.461   4.110   0.290 -2.1460 -0.0826  0.4021
 6149TIP3   OH240005   3.635   4.403   8.683 -0.5798 -0.3536 -0.3663
 6149TIP3    H140006   3.693   4.362   8.748  1.4673 -0.7535 -2.2982
 6149TIP3    H240007   3.675   4.488   8.664 -1.8428  0.2953 -0.2207
 6150TIP3   OH240008   3.013   3.485   2.251 -0.7984  0.2659  0.2466
 6150TIP3    H140009   2.987   3.567   2.208 -1.6140  0.6323  1.3968
 6150TIP3    H240010   2.932   3.435   2.259 -0.5938  0.0362  0.9781
 6151TIP3   OH240011   1.585   3.456   2.090  0.1975 -0.0731 -0.2519
 6151TIP3    H140012   1.633   3.424   2.166 -1.0449 -0.4249  0.4151
 6151TIP3    H240013   1.596   3.551   2.093 -0.2654 -0.0364  0.6823
 6152TIP3   OH240014   0.909   0.163   0.422 -0.3526 -0.1032 -0.2327
 6152TIP3    H140015   0.904   0.191   0.513 -1.1981 -0.5355 -0.1359
 6152TIP3    H240016   0.845   0.218   0.377 -1.1848 -1.0485 -0.2462
 6153TIP3   OH240017   4.972   1.539   8.481  0.1133 -0.5845 -0.0826
 6153TIP3    H140018   5.012   1.555   8.567 -0.6508 -1.2391  0.4010
 6153TIP3    H240019   5.039   1.567   8.419  0.2908  0.8926  0.7112
 6154TIP3   OH240020   5.566   3.028   7.418  0.2539  0.3112  0.2109
 6154TIP3    H140021   5.562   3.108   7.365 -0.9758  0.4773  0.5178
 6154TIP3    H240022   5.659   3.017   7.438  0.5594  1.0636 -0.7379
 6155TIP3   OH240023   6.607   3.058   2.512  0.3150 -0.3935 -0.2602
 6155TIP3    H140024   6.538   3.008   2.556 -0.3354 -1.0925 -1.9738
 6155TIP3    H240025   6.676   3.068   2.578  0.0941 -2.8339  0.4334
 6156TIP3   OH240026   6.705   0.019   2.148 -0.3415 -0.2441 -0.6492
 6156TIP3    H140027   6.633   0.058   2.199 -0.9261 -1.1195 -0.7771
 6156TIP3    H240028   6.777   0.012   2.211 -0.8759 -0.7883 -0.0720
 6157TIP3   OH240029   0.347   6.431   8.619 -0.0862 -0.2230  0.1513
 6157TIP3    H140030   0.343   6.414   8.525 -2.1485  1.5134 -0.1569
 6157TIP3    H240031   0.394   6.513   8.626 -0.7376  0.1238  0.5390
 6158TIP3   OH240032   6.427   5.644   6.625 -0.4222  0.0663 -0.1062
 6158TIP3    H140033   6.428   5.554   6.659 -1.4577 -0.2295 -0.7966
 6158TIP3    H240034   6.487   5.642   6.551  1.5995  0.6357  1.4304
 6159TIP3   OH240035   5.403   5.433   8.081  0.0709  0.1081  0.4649
 6159TIP3    H140036   5.314   5.440   8.117  0.5039 -0.0354  1.6237
 6159TIP3    H240037   5.404   5.349   8.035 -0.1237 -0.3700  1.2986
 6160TIP3   OH240038   3.466   2.559   7.736  0.3775 -0.3117 -0.5451
 6160TIP3    H140039   3.403   2.561   7.809 -0.0042  0.8213 -0.8871
 6160TIP3    H240040   3.545   2.522   7.774 -0.1596 -0.7498  0.1731
 6161TIP3   OH240041   2.413   0.316   2.240 -0.5249  0.2714 -0.1444
 6161TIP3    H140042   2.501   0.311   2.276 -1.1689 -2.1797  1.2980
 6161TIP3    H240043   2.427   0.323   2.145  1.1774  2.3749  0.1985
 6162TIP3   OH240044   1.516   2.371   0.552  0.0686  0.1307 -0.3225
 6162TIP3    H140045   1.583   2.326   0.500  1.3043  0.0700  1.2244
 6162TIP3    H240046   1.551   2.370   0.641 -1.8658  0.4147  0.4863
 6163TIP3   OH240047   4.119   6.603   1.071 -0.1090 -0.8694 -1.0713
 6163TIP3    H140048   4.112   6.510   1.048  1.9669 -1.5733  0.7172
 6163TIP3    H240049   4.031   6.628   1.098 -0.2845 -3.0039  0.6057
 6164TIP3   OH240050   4.392   4.514   2.532 -0.3312 -0.2113 -0.0051
 6164TIP3    H140051   4.315   4.565   2.507 -0.6283 -0.8695 -0.4799
 6164TIP3    H240052   4.370   4.477   2.617  0.0079  0.6804  0.4845
 6165TIP3   OH240053   1.051   5.330   8.401  0.2307 -0.1666  0.4904
 6165TIP3    H140054   1.127   5.304   8.349  0.2325  0.2650  0.2713
 6165TIP3    H240055   1.079   5.320   8.492  0.5571  0.0158  0.4110
 6166TIP3   OH240056   6.726   3.129   8.539 -0.4268 -0.4077  0.1510
 6166TIP3    H140057   6.822   3.132   8.539 -0.1624 -4.1270 -0.7286
 6166TIP3    H240058   6.700   3.191   8.472  1.4539 -0.2756 -0.5070
 6167TIP3   OH240059   0.457   5.145   8.086 -0.1807 -0.4063 -0.4767
 6167TIP3    H140060   0.436   5.204   8.159  1.0384  2.7530 -2.4388
 6167TIP3    H240061   0.546   5.116   8.104 -0.6889 -1.4926  0.3687
 6168TIP3   OH240062   4.681   3.824   1.970 -0.2453 -0.5349  0.2289
 6168TIP3    H140063   4.633   3.907   1.979 -2.4553 -1.5470 -1.4419
 6168TIP3    H240064   4.766   3.842   2.010 -1.2353  2.0154  1.4359
 6169TIP3   OH240065   3.222   5.538   0.613  0.0888  0.3554  0.1826
 6169TIP3    H140066   3.176   5.472   0.666  1.0276 -0.8219 -0.4170
 6169TIP3    H240067   3.249   5.605   0.676 -3.2968  1.6883  0.4570
 6170TIP3   OH240068   4.433   1.263   7.979 -0.2227 -0.2045 -0.7796
 6170TIP3    H140069   4.428   1.340   7.922 -0.7340  0.9000  0.6776
 6170TIP3    H240070   4.345   1.255   8.016  0.3299 -0.2509  0.6027
 6171TIP3   OH240071   5.209   6.641   0.441  0.0114  0.0519 -0.1863
 6171TIP3    H140072   5.198   6.546   0.435 -0.3934  0.1746 -1.9528
 6171TIP3    H240073   5.178   6.674   0.356  0.0924  1.7674  0.4174
 6172TIP3   OH240074   4.720   2.695   7.143  0.8011 -0.2769  0.9907
 6172TIP3    H140075   4.756   2.765   7.197  0.1651  0.3244  0.6577
 6172TIP3    H240076   4.627   2.717   7.134  1.3267  1.4153 -2.7976
 6173TIP3   OH240077   1.208   0.587   1.407  0.1648 -0.1778 -0.3970
 6173TIP3    H140078   1.201   0.551   1.319 -0.4881  0.1764 -0.4915
 6173TIP3    H240079   1.299   0.570   1.432  0.4395 -0.0250 -1.2496
 6174TIP3   OH240080   3.531   4.309   2.158  0.4975  0.6214  0.4867
 6174TIP3    H140081   3.569   4.224   2.139 -0.3418  0.4292 -0.4433
 6174TIP3    H240082   3.444   4.289   2.194  0.6377  1.0699  1.0876
 6175TIP3   OH240083   3.840   4.082   2.268 -0.2323  0.3117 -0.8842
 6175TIP3    H140084   3.900   4.093   2.341  0.2288 -1.0542 -1.0217
 6175TIP3    H240085   3.864   3.997   2.230 -2.8080 -0.7454 -0.3836
 6176TIP3   OH240086   1.786   4.371   7.458  0.0804  0.2052  0.4446
 6176TIP3    H140087   1.763   4.411   7.374 -0.2965  1.8088  1.2653
 6176TIP3    H240088   1.880   4.355   7.452 -0.2984 -1.7278 -1.0661
 6177TIP3   OH240089   6.768   3.607   2.516 -0.3329  0.0883  0.0054
 6177TIP3    H140090   6.813   3.687   2.543 -0.0091 -0.2756  0.5715
 6177TIP3    H240091   6.838   3.542   2.505 -0.4871  0.1391 -1.4589
 6178TIP3   OH240092   3.613   4.276   2.476  0.1969  0.8668 -0.0393
 6178TIP3    H140093   3.623   4.289   2.382 -0.8119 -0.3487 -0.3411
 6178TIP3    H240094   3.529   4.318   2.498 -0.6752 -0.7438 -0.1301
 6179TIP3   OH240095   0.147   5.554   1.482  0.1320 -0.2540  0.0197
 6179TIP3    H140096   0.165   5.480   1.539 -0.6159  0.8293  1.7291
 6179TIP3    H240097   0.220   5.614   1.496 -0.1968  0.1427  0.0526
 6180TIP3   OH240098   6.473   3.713   7.652  0.2526 -0.4700  0.1220
 6180TIP3    H140099   6.479   3.658   7.730 -0.4096 -1.5254 -0.5586
 6180TIP3    H240100   6.380   3.734   7.644  0.6163  1.7286  1.0095
 6181TIP3   OH240101   5.852   2.742   6.736 -0.4752 -0.2245  0.3267
 6181TIP3    H140102   5.906   2.817   6.762  0.2365 -0.9804  1.0588
 6181TIP3    H240103   5.904   2.665   6.760 -1.4439 -0.9640  0.1099
 6182TIP3   OH240104   6.404   4.266   8.277  0.1477 -0.2291 -0.3662
 6182TIP3    H140105   6.318   4.296   8.246  0.2078 -0.1433 -0.4509
 6182TIP3    H240106   6.462   4.281   8.202  0.3722  0.3284 -0.0823
 6183TIP3   OH240107   6.286   3.509   8.135 -0.7185 -0.3231 -0.0407
 6183TIP3    H140108   6.358   3.534   8.076  0.6106  0.0716  1.6608
 6183TIP3    H240109   6.218   3.574   8.118  0.2047  0.6417 -0.1493
 6184TIP3   OH240110   1.206   4.234   2.878 -0.4671  0.2863  0.3072
 6184TIP3    H140111   1.120   4.265   2.906 -0.1930  0.1457  1.3608
 6184TIP3    H240112   1.230   4.292   2.806 -2.3543 -0.9969 -1.4934
 6185TIP3   OH240113   4.687   5.572   6.949 -0.6680 -0.2068  0.0512
 6185TIP3    H140114   4.616   5.564   6.885 -0.2032  1.7071 -0.7694
 6185TIP3    H240115   4.767   5.555   6.899 -0.4675 -1.8210  0.8563
 6186TIP3   OH240116   5.353   1.839   7.297 -0.1161 -0.4594  0.1043
 6186TIP3    H140117   5.392   1.752   7.311 -1.9169 -1.1764  1.0292
 6186TIP3    H240118   5.305   1.831   7.214  0.1489 -0.1873 -0.0742
 6187TIP3   OH240119   5.575   2.796   0.456 -0.3756 -0.0463 -0.0388
 6187TIP3    H140120   5.530   2.879   0.471 -1.3866 -0.4754 -0.5670
 6187TIP3    H240121   5.606   2.769   0.542 -0.0422  0.8690  0.1341
 6188TIP3   OH240122   6.440   2.283   1.266  0.3768 -0.3406 -0.1805
 6188TIP3    H140123   6.478   2.339   1.334 -0.4503 -2.0261  1.7997
 6188TIP3    H240124   6.476   2.196   1.284  0.6179 -0.7348 -2.3505
 6189TIP3   OH240125   5.430   0.909   8.618  0.1819 -0.3856  0.2514
 6189TIP3    H140126   5.361   0.935   8.679 -1.8458  0.1792 -2.1148
 6189TIP3    H240127   5.383   0.891   8.536  2.6134 -2.3831 -0.8042
 6190TIP3   OH240128   2.807   0.887   2.662 -0.3823  0.0276 -0.1967
 6190TIP3    H140129   2.718   0.886   2.697  0.1630 -1.5616  1.2750
 6190TIP3    H240130   2.863   0.881   2.739  1.1016  2.3240 -0.9851
 6191TIP3   OH240131   0.102   5.628   8.410  0.3516 -0.1993  0.2454
 6191TIP3    H140132   0.156   5.697   8.372  0.8730 -0.4174  0.5673
 6191TIP3    H240133   0.012   5.657   8.397  0.5565  0.3298 -0.0108
 6192TIP3   OH240134   2.343   2.946   3.074 -0.1360  0.9183 -0.3214
 6192TIP3    H140135   2.419   2.904   3.116 -1.2334  1.2606  2.2323
 6192TIP3    H240136   2.321   2.888   3.001  1.7573  0.0982 -0.2993
 6193TIP3   OH240137   3.202   2.077   2.335  0.4129  0.2825 -0.2077
 6193TIP3    H140138   3.214   2.171   2.351  0.8665  0.1900  0.0294
 6193TIP3    H240139   3.133   2.072   2.269  0.0321  0.7611  0.1513
 6194TIP3   OH240140   0.324   1.472   8.799 -0.3209 -0.3814  0.4288
 6194TIP3    H140141   0.370   1.445   8.719 -1.8692  1.6337 -1.2775
 6194TIP3    H240142   0.354   1.562   8.815 -0.7720 -0.4094  1.5457
 6195TIP3   OH240143   3.982   4.063   0.201  0.2258 -0.5707  0.2172
 6195TIP3    H140144   4.065   4.032   0.237  0.7707  1.9497  1.3008
 6195TIP3    H240145   3.993   4.158   0.193 -2.2235 -0.2913 -0.5217
 6196TIP3   OH240146   5.477   3.411   1.615  0.0391 -0.0957 -0.5806
 6196TIP3    H140147   5.435   3.422   1.700  1.0348 -1.8322  0.1801
 6196TIP3    H240148   5.432   3.474   1.558  0.6982  2.6470  1.6616
 6197TIP3   OH240149   0.050   2.587   1.699 -0.3272 -0.0474 -0.4252
 6197TIP3    H140150   0.120   2.591   1.634 -1.1021  1.3039 -1.2298
 6197TIP3    H240151   0.092   2.552   1.777  0.7627 -1.1656 -1.4726
 6198TIP3   OH240152   3.232   1.423   1.247  0.5370 -0.4377 -0.9570
 6198TIP3    H140153   3.270   1.418   1.335 -0.7575  1.6401 -0.2140
 6198TIP3    H240154   3.149   1.375   1.254  0.0018  0.4843 -0.7479
 6199TIP3   OH240155   6.312   5.469   0.715 -0.1772  0.3829  0.0523
 6199TIP3    H140156   6.247   5.508   0.773  0.8734 -0.0291  1.5729
 6199TIP3    H240157   6.356   5.543   0.674  3.0026  1.2035  4.2023
 6200TIP3   OH240158   4.413   3.988   2.854  0.8150 -0.0841  0.3325
 6200TIP3    H140159   4.399   4.060   2.916  1.9555  0.1726  0.3043
 6200TIP3    H240160   4.481   4.020   2.795  1.1350 -1.0778  0.1463
 6201TIP3   OH240161   2.462   5.710   2.134 -0.7214  0.1055  0.6165
 6201TIP3    H140162   2.538   5.691   2.188 -0.1900 -0.2837 -0.2406
 6201TIP3    H240163   2.451   5.804   2.139  1.3001  0.5084 -1.1324
 6202TIP3   OH240164   2.529   0.803   2.272 -0.0368 -0.4008  0.1461
 6202TIP3    H140165   2.538   0.799   2.367  0.0724  0.7855  0.2090
 6202TIP3    H240166   2.465   0.873   2.257  1.0059  0.4201 -0.6717
 6203TIP3   OH240167   1.082   1.665   8.814  0.4570  0.1399 -0.3145
 6203TIP3    H140168   1.002   1.669   8.761 -0.8524  3.4134  1.6394
 6203TIP3    H240169   1.138   1.733   8.777  0.0567  1.5567  1.5419
 6204TIP3   OH240170   4.424   1.423   8.297 -0.2505 -0.2582 -0.4116
 6204TIP3    H140171   4.372   1.470   8.362  0.0091  0.4906 -0.7425
 6204TIP3    H240172   4.505   1.472   8.290  0.4391 -1.3142 -0.0515
 6205TIP3   OH240173   1.198   1.344   6.748 -0.1855  0.4669  0.5393
 6205TIP3    H140174   1.239   1.259   6.767 -1.4941 -0.9785 -2.3298
 6205TIP3    H240175   1.270   1.399   6.715  0.2468 -0.5218 -0.2365
 6206TIP3   OH240176   3.451   4.786   1.229 -0.1367 -0.7647  0.0401
 6206TIP3    H140177   3.484   4.699   1.252 -1.0111 -0.7459  1.4830
 6206TIP3    H240178   3.527   4.831   1.190  0.8685 -1.5184  1.0637
 6207TIP3   OH240179   3.814   4.505   6.802 -0.1032 -0.1638 -0.0865
 6207TIP3    H140180   3.878   4.437   6.780 -0.2030 -1.0649  2.1133
 6207TIP3    H240181   3.746   4.459   6.852 -0.7289  1.3519  0.5382
 6208TIP3   OH240182   5.248   6.133   0.355 -1.1530  0.6526  0.2720
 6208TIP3    H140183   5.155   6.142   0.333 -1.4823  0.7327  1.6280
 6208TIP3    H240184   5.275   6.221   0.380 -1.1232  0.3520  1.3517
 6209TIP3   OH240185   6.612   6.312   0.340  0.4752 -0.0685 -0.2350
 6209TIP3    H140186   6.643   6.297   0.251  0.4760  1.4642 -0.5253
 6209TIP3    H240187   6.561   6.393   0.334 -1.0044 -0.8825  0.8332
 6210TIP3   OH240188   4.048   1.409   8.259  0.0665  0.1294 -0.0569
 6210TIP3    H140189   4.083   1.327   8.293 -0.3314  0.4536  1.1940
 6210TIP3    H240190   4.102   1.477   8.299  0.3392  0.5011 -1.0155
 6211TIP3   OH240191   0.816   2.448   0.179 -0.1354 -0.0080 -0.1327
 6211TIP3    H140192   0.859   2.494   0.107 -0.3634  2.4825  1.2325
 6211TIP3    H240193   0.823   2.507   0.254 -0.2254 -2.3185  1.8601
 6212TIP3   OH240194   4.691   2.963   7.720 -0.6175  0.1795  0.0830
 6212TIP3    H140195   4.657   2.999   7.802 -0.8596  1.3447 -0.5097
 6212TIP3    H240196   4.785   2.955   7.734 -0.7564 -0.4345  0.7584
 6213TIP3   OH240197   4.709   5.695   1.833  0.0467 -1.1773 -0.5280
 6213TIP3    H140198   4.693   5.782   1.798 -0.8775 -0.7720  0.8436
 6213TIP3    H240199   4.782   5.706   1.894 -1.1269 -0.9883  0.9035
 6214TIP3   OH240200   6.664   5.639   8.664  0.5445 -0.3801 -0.5256
 6214TIP3    H140201   6.736   5.699   8.687 -0.3852  0.3077  0.6849
 6214TIP3    H240202   6.621   5.620   8.747 -1.0916 -0.2452 -1.3009
 6215TIP3   OH240203   1.267   6.496   8.902 -0.3325 -0.3407  0.6837
 6215TIP3    H140204   1.286   6.402   8.909  0.3260 -0.2770 -0.2091
 6215TIP3    H240205   1.221   6.505   8.819 -1.4879 -0.0298  1.3268
 6216TIP3   OH240206   0.427   0.293   7.869 -0.4120  0.0832  0.2831
 6216TIP3    H140207   0.340   0.289   7.908 -0.6978  0.8739 -0.2591
 6216TIP3    H240208   0.412   0.294   7.775  0.2919 -2.6120  0.0440
 6217TIP3   OH240209   5.185   1.671   0.280 -0.5246  0.2641  0.2942
 6217TIP3    H140210   5.269   1.625   0.281 -0.6102  0.0873 -0.2772
 6217TIP3    H240211   5.180   1.714   0.366 -1.1534 -2.0917  1.5235
 6218TIP3   OH240212   3.031   5.378   0.807  0.3034 -0.0931 -0.0242
 6218TIP3    H140213   3.023   5.317   0.880  0.2846 -0.7663 -0.5870
 6218TIP3    H240214   2.941   5.404   0.786  0.1754 -1.1584 -0.8590
 6219TIP3   OH240215   6.491   3.146   8.673 -0.4861 -0.1227 -0.0825
 6219TIP3    H140216   6.508   3.085   8.602 -0.7536 -0.8108  0.4310
 6219TIP3    H240217   6.508   3.233   8.635 -0.0851 -0.5111 -0.8122
 6220TIP3   OH240218   3.843   1.274   7.441  0.0244  0.0705 -0.2242
 6220TIP3    H140219   3.891   1.258   7.523  0.0907  1.0999 -0.0446
 6220TIP3    H240220   3.912   1.280   7.375 -0.1152 -2.2134 -0.6341
 6221TIP3   OH240221   1.097   2.017   1.279  0.1900  0.0953  0.1401
 6221TIP3    H140222   1.125   2.010   1.370  2.4364 -1.8419 -0.5928
 6221TIP3    H240223   1.078   1.927   1.252 -0.6343  0.6488 -1.2625
 6222TIP3   OH240224   4.804   2.933   2.001  0.1038 -0.4396 -0.5628
 6222TIP3    H140225   4.809   2.992   1.926  1.5554 -1.4683 -1.3273
 6222TIP3    H240226   4.893   2.932   2.036  0.0652 -2.0371 -0.4731
 6223TIP3   OH240227   1.298   3.605   6.618 -0.2114 -0.1200  0.0551
 6223TIP3    H140228   1.298   3.659   6.539  0.0515  1.1533  0.8930
 6223TIP3    H240229   1.231   3.539   6.603  1.8238 -1.8277 -2.4747
 6224TIP3   OH240230   3.059   2.507   8.771 -0.0299 -0.0677 -0.6744
 6224TIP3    H140231   3.143   2.535   8.734  0.9969  0.1008  1.6250
 6224TIP3    H240232   3.079   2.484   8.862 -2.1194 -1.9353 -0.5968
 6225TIP3   OH240233   2.890   4.556   7.211  0.1777 -0.1184 -0.5774
 6225TIP3    H140234   2.895   4.578   7.305  0.6970  0.0575 -0.6466
 6225TIP3    H240235   2.798   4.531   7.198  0.4135 -1.5276  0.2764
 6226TIP3   OH240236   6.321   2.324   8.142  0.5454  0.3496 -0.7212
 6226TIP3    H140237   6.344   2.248   8.090 -1.7252 -0.2617 -0.9110
 6226TIP3    H240238   6.302   2.289   8.229  0.3851  0.8274 -0.5593
 6227TIP3   OH240239   3.023   1.204   1.142 -0.6872  0.1799  0.3568
 6227TIP3    H140240   2.929   1.215   1.126 -0.6242  0.6192  0.2710
 6227TIP3    H240241   3.057   1.170   1.060 -1.1822 -2.5886  1.1993
 6228TIP3   OH240242   1.042   5.233   1.656  0.1922 -0.9576  0.2636
 6228TIP3    H140243   1.065   5.184   1.734 -1.5841 -0.7224  0.9746
 6228TIP3    H240244   0.950   5.257   1.668 -0.1809 -1.0298 -1.9492
 6229TIP3   OH240245   1.168   3.041   7.694  0.2573 -0.5431  0.4708
 6229TIP3    H140246   1.228   3.048   7.620 -1.5194 -4.8175 -1.7009
 6229TIP3    H240247   1.094   3.098   7.670  0.5808 -0.3316 -0.0438
 6230TIP3   OH240248   3.900   3.466   7.450  0.4946  0.1532 -0.0159
 6230TIP3    H140249   3.866   3.553   7.430  0.1350  0.0917  0.3200
 6230TIP3    H240250   3.952   3.442   7.373  0.6830  0.7064 -0.0673
 6231TIP3   OH240251   0.978   3.676   7.223 -0.3099  0.0976  0.5509
 6231TIP3    H140252   1.060   3.650   7.183 -0.5012 -0.2918  0.4067
 6231TIP3    H240253   0.919   3.693   7.150 -0.8753 -1.3116  0.6509
 6232TIP3   OH240254   4.303   4.489   1.514 -0.0506 -0.5771 -0.0521
 6232TIP3    H140255   4.341   4.445   1.438  0.3454 -0.2508 -0.0445
 6232TIP3    H240256   4.220   4.524   1.482 -0.5197 -1.5841  0.0221
 6233TIP3   OH240257   3.882   0.272   8.200  0.3650  0.2898  0.6249
 6233TIP3    H140258   3.966   0.250   8.239  0.8994  0.1503 -0.5530
 6233TIP3    H240259   3.818   0.224   8.252  1.2292 -1.5368  0.0845
 6234TIP3   OH240260   1.017   2.324   2.540  0.3324  0.3747 -0.3244
 6234TIP3    H140261   0.980   2.289   2.621  0.2729 -1.8602 -1.2424
 6234TIP3    H240262   1.111   2.323   2.555  0.3620 -0.6710 -0.4777
 6235TIP3   OH240263   3.215   5.031   7.883 -0.8277 -0.2253 -0.1721
 6235TIP3    H140264   3.209   4.939   7.908  1.0976 -0.5738 -0.7557
 6235TIP3    H240265   3.287   5.066   7.937  0.4197  0.1344 -1.9629
 6236TIP3   OH240266   0.325   6.394   8.348 -0.3043  0.1466 -0.6150
 6236TIP3    H140267   0.308   6.481   8.311 -1.8596 -0.1266 -0.5938
 6236TIP3    H240268   0.239   6.352   8.352  0.1537 -0.7094  1.1448
 6237TIP3   OH240269   1.825   3.977   0.691 -0.7494  0.3085  0.0759
 6237TIP3    H140270   1.757   4.042   0.701 -1.3163 -0.0986 -1.0499
 6237TIP3    H240271   1.807   3.934   0.608 -1.2201 -2.2318  1.3743
 6238TIP3   OH240272   4.942   6.475   7.731 -0.0498 -0.5992  0.2889
 6238TIP3    H140273   4.940   6.569   7.747  0.0588 -0.6128  0.3895
 6238TIP3    H240274   4.947   6.466   7.636  2.0806 -0.4639  0.3476
 6239TIP3   OH240275   0.593   3.284   6.809 -0.1219  0.3518 -0.6006
 6239TIP3    H140276   0.547   3.352   6.859  1.7095  1.1660  0.0403
 6239TIP3    H240277   0.600   3.210   6.869 -1.0398  0.0020 -0.8948
 6240TIP3   OH240278   5.571   0.123   0.582 -0.0575  0.6792  0.5135
 6240TIP3    H140279   5.490   0.073   0.594  0.7879 -1.6553 -2.3158
 6240TIP3    H240280   5.639   0.068   0.620  0.3843  2.0396  1.7467
 6241TIP3   OH240281   2.316   6.330   0.230  0.1833  0.3839  0.4019
 6241TIP3    H140282   2.347   6.243   0.253  0.7228  0.1739 -1.0125
 6241TIP3    H240283   2.225   6.332   0.262 -0.1372 -1.0305 -0.3296
 6242TIP3   OH240284   2.564   3.051   1.866 -0.0712  0.6451  0.1503
 6242TIP3    H140285   2.593   3.041   1.957 -0.0379  2.7535  0.4218
 6242TIP3    H240286   2.498   3.120   1.869 -1.1638 -0.2842 -1.2473
 6243TIP3   OH240287   5.809   2.240   8.367  0.1863  0.9035 -0.0505
 6243TIP3    H140288   5.878   2.222   8.431  0.7426  2.3969 -0.1994
 6243TIP3    H240289   5.779   2.328   8.388 -1.4424  0.4216 -0.2306
 6244TIP3   OH240290   3.388   5.350   0.154  0.0524  0.4261  0.5458
 6244TIP3    H140291   3.464   5.296   0.176  0.7962  0.8507 -0.8550
 6244TIP3    H240292   3.313   5.300   0.185  0.7368 -1.3216 -0.4546
 6245TIP3   OH240293   3.307   1.645   2.635  0.1594 -0.1082  0.1772
 6245TIP3    H140294   3.271   1.678   2.552 -0.1728 -1.1263 -0.0953
 6245TIP3    H240295   3.374   1.709   2.659 -0.7144  0.9563 -0.1445
 6246TIP3   OH240296   4.527   5.294   7.898 -0.0319 -0.5528 -0.4165
 6246TIP3    H140297   4.515   5.246   7.979 -0.0270 -2.4443 -1.4888
 6246TIP3    H240298   4.586   5.240   7.846  0.3873  0.8695 -1.4772
 6247TIP3   OH240299   4.094   5.040   0.107  0.1029 -0.1833  0.3033
 6247TIP3    H140300   4.166   5.099   0.085  0.1596 -0.2701  0.2532
 6247TIP3    H240301   4.049   5.026   0.024 -1.1378  1.4015  0.6612
 6248TIP3   OH240302   3.443   2.587   1.171 -0.0266  0.0129  0.2792
 6248TIP3    H140303   3.356   2.604   1.136 -0.0084 -1.6294 -0.6508
 6248TIP3    H240304   3.457   2.493   1.157  2.0899  0.3267 -0.0473
 6249TIP3   OH240305   0.689   6.592   0.408  0.2399  0.7790 -0.2167
 6249TIP3    H140306   0.757   6.571   0.471  0.1406  0.5468 -0.1867
 6249TIP3    H240307   0.689   6.688   0.403  2.0989  0.7643 -1.8554
 6250TIP3   OH240308   4.518   0.648   0.598  0.3808  0.1208 -0.2181
 6250TIP3    H140309   4.481   0.642   0.510  0.9715  1.2400 -0.5617
 6250TIP3    H240310   4.464   0.589   0.651 -0.2604 -0.2253 -1.2328
 6251TIP3   OH240311   0.371   1.724   8.863  0.4920 -0.5623  0.1854
 6251TIP3    H140312   0.457   1.755   8.833 -0.5065  1.2396 -1.0018
 6251TIP3    H240313   0.347   1.784   8.934  0.1602 -0.9511  0.4035
 6252TIP3   OH240314   6.689   1.055   1.769  0.0509  0.7845 -0.7237
 6252TIP3    H140315   6.685   0.966   1.803  0.9035  1.3537  1.0079
 6252TIP3    H240316   6.612   1.098   1.807 -0.7164  0.6716 -2.0615
 6253TIP3   OH240317   4.536   3.146   7.899 -0.2371 -0.5447  0.0057
 6253TIP3    H140318   4.537   3.124   7.992 -0.4608 -1.5192 -0.2062
 6253TIP3    H240319   4.502   3.235   7.895 -1.4081 -0.9458  0.7748
 6254TIP3   OH240320   6.033   2.080   0.842  0.4491  0.3936  0.0506
 6254TIP3    H140321   5.942   2.051   0.843 -0.2584  2.4051 -0.5785
 6254TIP3    H240322   6.049   2.107   0.751  0.7620  2.5501  0.6774
 6255TIP3   OH240323   1.057   2.588   7.730  0.3634  0.5127  0.1372
 6255TIP3    H140324   1.047   2.627   7.644  0.5552  1.0059  0.3357
 6255TIP3    H240325   1.002   2.510   7.728  1.0272  0.0565 -0.7111
 6256TIP3   OH240326   2.854   6.505   8.540  0.6225  0.0365  1.2750
 6256TIP3    H140327   2.838   6.598   8.556  0.4404  0.4683 -1.0361
 6256TIP3    H240328   2.789   6.460   8.594 -0.6472  1.3471  0.9075
 6257TIP3   OH240329   1.355   6.184   7.477  0.4707  0.2757  0.3891
 6257TIP3    H140330   1.288   6.239   7.517  1.0908  0.3319  1.3781
 6257TIP3    H240331   1.429   6.242   7.464 -0.5671  1.0550 -3.5659
 6258TIP3   OH240332   2.663   5.429   7.536  0.3040 -0.3674 -0.5084
 6258TIP3    H140333   2.746   5.431   7.585  0.6618  0.2273 -1.1189
 6258TIP3    H240334   2.614   5.504   7.569  0.3916 -0.1810 -0.8057
 6259TIP3   OH240335   0.146   4.509   0.509  0.2370  0.4090 -0.3605
 6259TIP3    H140336   0.165   4.584   0.452  0.8759  0.1087 -0.5552
 6259TIP3    H240337   0.141   4.546   0.597 -1.3602  0.9759 -0.6572
 6260TIP3   OH240338   1.556   2.875   8.928  0.1480 -0.0559  0.0435
 6260TIP3    H140339   1.636   2.904   8.883 -1.0550  1.1336 -1.4178
 6260TIP3    H240340   1.576   2.887   9.021  1.8310 -0.2152 -0.2572
 6261TIP3   OH240341   3.644   6.611   2.341 -0.3661  0.0104  0.3753
 6261TIP3    H140342   3.691   6.559   2.276 -1.5679 -0.3515 -0.2287
 6261TIP3    H240343   3.564   6.562   2.357 -0.6662  0.7458  1.1987
 6262TIP3   OH240344   4.383   5.819   2.150  0.7443  0.0333  0.2363
 6262TIP3    H140345   4.455   5.769   2.188 -0.1058 -1.9392 -0.6018
 6262TIP3    H240346   4.351   5.873   2.223  1.4856 -0.9203  1.3094
 6263TIP3   OH240347   0.445   2.032   2.084 -0.6349 -0.0490 -0.4166
 6263TIP3    H140348   0.374   1.976   2.052 -1.4423 -0.5347  2.0358
 6263TIP3    H240349   0.500   1.974   2.136  0.4800  0.7345 -0.6866
 6264TIP3   OH240350   4.986   2.424   8.436 -0.2621  0.2236 -0.1622
 6264TIP3    H140351   4.997   2.418   8.341  1.3858  1.8050 -0.1227
 6264TIP3    H240352   4.989   2.518   8.455  0.7325 -0.1088  1.5721
 6265TIP3   OH240353   0.472   4.971   0.311 -0.3088 -0.1629 -0.3435
 6265TIP3    H140354   0.535   5.022   0.261 -0.7771 -1.0379 -1.8758
 6265TIP3    H240355   0.506   4.882   0.310 -1.3598 -0.5806 -0.8840
 6266TIP3   OH240356   5.376   6.355   8.318  0.0691 -0.0714 -0.3919
 6266TIP3    H140357   5.452   6.410   8.334  0.6461 -0.9386 -0.0685
 6266TIP3    H240358   5.369   6.352   8.222  1.0495 -0.7713 -0.4586
 6267TIP3   OH240359   2.604   1.479   8.458 -0.0581 -0.4899  0.0586
 6267TIP3    H140360   2.670   1.415   8.433 -1.1015 -0.6783 -2.4845
 6267TIP3    H240361   2.654   1.558   8.479  1.0245 -0.3729 -2.5928
 6268TIP3   OH240362   1.433   6.225   2.097 -0.1689 -0.4425 -0.0297
 6268TIP3    H140363   1.341   6.226   2.122 -0.3666  0.4123 -0.7286
 6268TIP3    H240364   1.477   6.174   2.165 -1.1515 -0.8145  0.3293
 6269TIP3   OH240365   2.933   2.702   1.202 -0.6277  0.7499  0.4327
 6269TIP3    H140366   2.893   2.629   1.154 -0.1057  0.8781 -0.2082
 6269TIP3    H240367   2.944   2.771   1.136 -1.0772  1.3905  1.0275
 6270TIP3   OH240368   6.387   5.439   7.672 -0.4328  0.2612 -0.3397
 6270TIP3    H140369   6.434   5.511   7.714 -0.3243 -0.1170  0.1984
 6270TIP3    H240370   6.299   5.474   7.655 -0.4913  0.4077  0.2479
 6271TIP3   OH240371   2.770   3.714   0.855 -0.2321 -0.2289  0.4362
 6271TIP3    H140372   2.724   3.785   0.899  0.7725  1.6376 -1.3732
 6271TIP3    H240373   2.702   3.669   0.805 -0.6388  0.3742  0.4362
 6272TIP3   OH240374   4.227   1.382   1.914 -0.1370 -0.7090 -0.1003
 6272TIP3    H140375   4.210   1.346   2.001 -0.5358  0.4606  0.3375
 6272TIP3    H240376   4.167   1.336   1.856  0.9631 -2.3457  0.0128
 6273TIP3   OH240377   0.499   0.583   8.614 -0.8719  0.3573 -0.1038
 6273TIP3    H140378   0.517   0.489   8.617 -0.8270  0.3286 -1.1022
 6273TIP3    H240379   0.418   0.591   8.564 -1.1250  0.8242  0.3647
 6274TIP3   OH240380   6.763   4.792   6.807 -0.4068  0.4276 -0.2805
 6274TIP3    H140381   6.786   4.705   6.776  0.4801  0.4584  0.2676
 6274TIP3    H240382   6.842   4.844   6.795 -1.3063  1.5328 -1.8568
 6275TIP3   OH240383   2.359   5.400   1.884 -0.0903 -0.2514  0.3139
 6275TIP3    H140384   2.333   5.321   1.837 -0.4333 -1.1162  1.8746
 6275TIP3    H240385   2.279   5.454   1.887 -0.0725 -0.2049 -0.0768
 6276TIP3   OH240386   3.240   2.311   0.715 -0.1215  0.1161  0.0664
 6276TIP3    H140387   3.184   2.369   0.767 -0.3268 -0.4420  0.4827
 6276TIP3    H240388   3.308   2.368   0.679  0.3497  0.4342  1.4141
 6277TIP3   OH240389   6.139   5.919   8.189  0.2167 -0.4715  0.1454
 6277TIP3    H140390   6.214   5.935   8.246  0.0465 -1.5122  0.6881
 6277TIP3    H240391   6.063   5.943   8.242  0.1134 -0.2657 -0.0905
 6278TIP3   OH240392   3.217   3.068   0.278 -0.1257 -0.2134  0.2405
 6278TIP3    H140393   3.207   3.140   0.216 -0.7816 -1.5066 -1.2324
 6278TIP3    H240394   3.212   3.109   0.365  0.7763  1.6413 -0.5422
 6279TIP3   OH240395   4.187   3.478   2.075  0.5731  0.1662 -0.4082
 6279TIP3    H140396   4.159   3.431   1.995  1.6133 -1.5405  0.1693
 6279TIP3    H240397   4.277   3.450   2.088  0.6746  1.0642  0.9271
 6280TIP3   OH240398   3.119   0.422   8.112 -0.0668  0.1993 -0.7582
 6280TIP3    H140399   3.130   0.489   8.179 -0.9575  1.5377 -1.8628
 6280TIP3    H240400   3.197   0.368   8.118  0.2845  0.8234  0.7447
 6281TIP3   OH240401   6.672   0.286   0.007 -0.3581  0.1214 -0.0515
 6281TIP3    H140402   6.682   0.217   0.073 -0.7789 -0.9744 -1.1064
 6281TIP3    H240403   6.713   0.363   0.047 -1.1956 -0.3242  1.7670
 6282TIP3   OH240404   0.194   0.202   7.305  0.4803  0.4531  0.0038
 6282TIP3    H140405   0.107   0.200   7.265  0.0272  0.7097  0.9268
 6282TIP3    H240406   0.189   0.134   7.373  0.8852  0.6924  0.2749
 6283TIP3   OH240407   0.512   1.262   3.081  0.3262 -0.6427  0.5260
 6283TIP3    H140408   0.515   1.321   3.005 -0.7485  0.1616  1.0720
 6283TIP3    H240409   0.583   1.292   3.138  0.0865 -0.1694  0.5815
 6284TIP3   OH240410   1.777   4.491   7.973  0.0887 -0.0619 -0.1406
 6284TIP3    H140411   1.753   4.540   7.895  0.9622  0.3910 -0.1290
 6284TIP3    H240412   1.732   4.536   8.044 -0.5070 -0.3288 -0.3358
 6285TIP3   OH240413   4.599   0.646   1.493 -0.0224 -0.3575  0.2324
 6285TIP3    H140414   4.669   0.592   1.457 -1.6771 -1.5717 -1.2978
 6285TIP3    H240415   4.583   0.610   1.580 -0.4118 -1.7242 -0.3779
 6286TIP3   OH240416   0.869   2.170   2.338 -0.0231  0.4190  0.1274
 6286TIP3    H140417   0.900   2.219   2.414 -1.2974  1.0803  0.2476
 6286TIP3    H240418   0.785   2.211   2.316 -1.4676 -2.0724  0.6162
 6287TIP3   OH240419   0.878   5.164   7.682 -0.6258  0.1660  0.1467
 6287TIP3    H140420   0.940   5.094   7.702 -0.0770  0.8478  0.8920
 6287TIP3    H240421   0.835   5.135   7.602  0.6442 -0.3296 -0.3806
 6288TIP3   OH240422   6.524   5.632   7.864  0.0596  0.5334 -0.0169
 6288TIP3    H140423   6.482   5.687   7.930  0.7867  0.0109  0.9045
 6288TIP3    H240424   6.617   5.634   7.887 -0.0745 -2.4984  1.1443
 6289TIP3   OH240425   1.765   2.080   2.040 -0.0167 -0.0322  0.5602
 6289TIP3    H140426   1.832   2.067   1.973 -0.9010 -0.6470 -0.2263
 6289TIP3    H240427   1.691   2.117   1.993 -0.1077  1.0335  1.4997
 6290TIP3   OH240428   3.098   3.728   7.726  0.1123  0.5805  0.6851
 6290TIP3    H140429   3.031   3.768   7.782  0.3686  1.2850  0.4995
 6290TIP3    H240430   3.058   3.725   7.639  1.0135  2.9039  0.1103
 6291TIP3   OH240431   1.711   3.330   1.873  0.3559  0.4615 -0.1311
 6291TIP3    H140432   1.661   3.357   1.951  1.5878  1.1022  0.4597
 6291TIP3    H240433   1.704   3.404   1.813  0.1218  0.3100 -0.2959
 6292TIP3   OH240434   3.167   3.145   2.603  0.5504  0.3425  0.3824
 6292TIP3    H140435   3.177   3.174   2.694 -1.0153  0.1486  0.6565
 6292TIP3    H240436   3.097   3.200   2.568 -0.3217 -0.9772 -0.0343
 6293TIP3   OH240437   0.856   4.687   7.573  0.4381  0.3867  0.2468
 6293TIP3    H140438   0.866   4.645   7.487 -0.5728  0.6359 -0.0137
 6293TIP3    H240439   0.808   4.623   7.625 -1.1358  1.1572 -0.1608
 6294TIP3   OH240440   4.073   1.589   7.997 -0.3022 -0.1121 -0.0752
 6294TIP3    H140441   4.121   1.573   7.916  2.3271  0.4485  1.2420
 6294TIP3    H240442   4.097   1.516   8.054  0.9820  1.3578  1.3983
 6295TIP3   OH240443   1.060   6.079   1.505 -0.1064  0.5784  0.1823
 6295TIP3    H140444   1.052   6.062   1.599  0.4498  1.5976  0.4322
 6295TIP3    H240445   0.970   6.086   1.474 -0.3249 -0.7825  0.4251
 6296TIP3   OH240446   3.978   1.196   0.674 -0.0039  0.3444  0.1698
 6296TIP3    H140447   4.058   1.151   0.700  0.0698  0.0447 -0.5522
 6296TIP3    H240448   3.957   1.253   0.748  1.7248  1.5807 -0.2449
 6297TIP3   OH240449   2.274   3.137   0.671 -0.6363 -0.4264 -0.0450
 6297TIP3    H140450   2.246   3.055   0.711 -1.9964 -0.8502 -1.7442
 6297TIP3    H240451   2.195   3.173   0.631  0.2280  0.9792 -0.5757
 6298TIP3   OH240452   6.667   1.286   0.154 -0.1088  0.2759  0.1166
 6298TIP3    H140453   6.760   1.284   0.133  0.1642  0.3339  1.2622
 6298TIP3    H240454   6.663   1.309   0.246 -1.1903 -1.2546  0.4991
 6299TIP3   OH240455   1.029   1.550   8.215  0.0891  0.5572  0.3141
 6299TIP3    H140456   1.092   1.602   8.266  0.7410 -0.2307  0.3392
 6299TIP3    H240457   1.039   1.461   8.248 -0.1488  0.2001 -0.5423
 6300TIP3   OH240458   1.743   4.079   7.625  0.1412  0.3303 -0.2564
 6300TIP3    H140459   1.800   4.011   7.661 -1.4647 -0.9169  0.0698
 6300TIP3    H240460   1.731   4.140   7.697  1.9119  1.2229 -0.6713
 6301TIP3   OH240461   6.710   2.436   0.217 -0.1439  0.2391  0.4336
 6301TIP3    H140462   6.750   2.478   0.140 -0.0249  0.8982  0.8471
 6301TIP3    H240463   6.769   2.364   0.238 -0.8744 -0.8044 -0.8957
 6302TIP3   OH240464   1.050   5.357   7.980 -0.3544  0.5049  0.1228
 6302TIP3    H140465   0.996   5.431   7.955 -0.9154 -0.5700 -2.1051
 6302TIP3    H240466   1.004   5.316   8.054 -0.8367  1.4579  0.3587
 6303TIP3   OH240467   1.223   2.272   1.121  0.7103 -0.0700 -0.1490
 6303TIP3    H140468   1.178   2.330   1.059  1.8450 -1.3268 -2.2636
 6303TIP3    H240469   1.172   2.191   1.119  0.6015 -0.0279  0.7993
 6304TIP3   OH240470   2.385   2.749   2.905 -0.2421 -0.2164 -0.2705
 6304TIP3    H140471   2.355   2.711   2.822 -3.0207 -0.1488  0.6215
 6304TIP3    H240472   2.479   2.764   2.891 -0.4874 -0.7247 -3.1835
 6305TIP3   OH240473   0.257   4.649   7.795 -0.7497  0.3210 -0.2687
 6305TIP3    H140474   0.195   4.581   7.767  0.4127 -1.1944  0.6963
 6305TIP3    H240475   0.246   4.653   7.890  1.5709 -0.9873  0.1061
 6306TIP3   OH240476   1.698   4.629   1.425 -0.0887  0.3846 -0.1499
 6306TIP3    H140477   1.665   4.686   1.355 -1.1473  1.6325  1.2819
 6306TIP3    H240478   1.740   4.689   1.487 -0.5110 -0.4654  1.0032
 6307TIP3   OH240479   5.278   3.236   0.373 -1.0759 -0.1627 -0.3930
 6307TIP3    H140480   5.268   3.321   0.414  0.3322 -0.1650  0.0092
 6307TIP3    H240481   5.241   3.247   0.285 -1.6632  0.6073 -0.0618
 6308TIP3   OH240482   2.094   2.095   1.050  0.4328 -0.3586  0.0388
 6308TIP3    H140483   2.143   2.096   0.968  0.1420 -1.0533 -0.1460
 6308TIP3    H240484   2.088   2.187   1.075 -1.9591  0.2300 -2.2011
 6309TIP3   OH240485   0.960   5.943   2.031 -0.1857 -0.3610 -0.0174
 6309TIP3    H140486   0.899   5.868   2.034  0.8459 -1.1974  0.8140
 6309TIP3    H240487   0.946   5.988   2.114 -2.3936  1.7556 -1.3809
 6310TIP3   OH240488   0.955   4.149   0.940 -0.1497 -0.3147  0.6734
 6310TIP3    H140489   0.970   4.100   0.859 -0.4172 -1.3762  1.2446
 6310TIP3    H240490   0.944   4.082   1.007 -0.7127  0.5311  1.4599
 6311TIP3   OH240491   4.125   0.243   2.337 -0.5966  0.2685  0.1949
 6311TIP3    H140492   4.101   0.151   2.347  0.6921 -0.0588  0.4738
 6311TIP3    H240493   4.213   0.240   2.299 -0.8751  1.4011 -0.5717
 6312TIP3   OH240494   4.604   4.958   1.223 -0.2445  0.5275  0.6165
 6312TIP3    H140495   4.537   4.921   1.280  0.7543  0.0843  1.5478
 6312TIP3    H240496   4.602   4.904   1.145 -4.0218  3.2068 -1.4591
 6313TIP3   OH240497   6.358   1.645   0.640  0.6991 -0.1107 -0.0483
 6313TIP3    H140498   6.353   1.741   0.635  0.0625 -0.2007 -1.4096
 6313TIP3    H240499   6.364   1.616   0.549 -1.7773 -1.4814  0.1559
 6314TIP3   OH240500   1.858   4.841   8.646 -0.2125 -0.1513  0.0100
 6314TIP3    H140501   1.794   4.848   8.575  0.9624 -0.2803 -1.1104
 6314TIP3    H240502   1.934   4.891   8.615 -0.0323  0.6270  1.6243
 6315TIP3   OH240503   6.750   6.338   2.018  0.1880  0.0574 -0.3450
 6315TIP3    H140504   6.804   6.259   2.019 -0.4227 -0.3754  0.9987
 6315TIP3    H240505   6.671   6.314   2.067 -0.6205  1.0921 -1.0820
 6316TIP3   OH240506   3.383   2.822   8.347 -0.7080  0.4842 -0.4790
 6316TIP3    H140507   3.301   2.838   8.393 -1.5091  0.8240 -1.9486
 6316TIP3    H240508   3.418   2.910   8.331 -0.7398  0.4093 -0.9948
 6317TIP3   OH240509   6.198   0.087   7.854  0.3158 -0.0726  0.2133
 6317TIP3    H140510   6.110   0.050   7.864  0.6787 -0.6169  1.6805
 6317TIP3    H240511   6.183   0.179   7.831 -0.6131 -0.6440 -1.6403
 6318TIP3   OH240512   0.671   2.868   1.218 -0.0067 -0.1960  0.6523
 6318TIP3    H140513   0.698   2.925   1.146 -1.8581 -0.9228 -0.6829
 6318TIP3    H240514   0.751   2.856   1.270  0.7751  2.4120  0.1961
 6319TIP3   OH240515   0.863   1.114   7.771  0.0913 -0.3187  0.4827
 6319TIP3    H140516   0.781   1.101   7.820 -0.0800 -1.4155 -0.0600
 6319TIP3    H240517   0.852   1.061   7.692  0.9160  0.3458 -0.0903
 6320TIP3   OH240518   4.797   3.976   7.533 -0.2996  0.3190  0.5493
 6320TIP3    H140519   4.884   4.009   7.510 -0.2714  0.5920  1.0251
 6320TIP3    H240520   4.813   3.891   7.572 -0.2238  0.4744  0.8577
 6321TIP3   OH240521   0.809   0.714   8.329 -0.4382  0.2566 -0.1850
 6321TIP3    H140522   0.900   0.734   8.306 -0.2580  1.2358  1.2531
 6321TIP3    H240523   0.804   0.731   8.423 -2.2463  0.7283 -0.3426
 6322TIP3   OH240524   0.508   2.838   8.361  0.6354  0.3603 -0.3619
 6322TIP3    H140525   0.478   2.775   8.296 -1.5707  1.2328 -0.2397
 6322TIP3    H240526   0.488   2.797   8.445 -0.7369  1.1560 -0.2814
 6323TIP3   OH240527   0.240   5.770   1.009 -0.3627 -0.3270  0.2418
 6323TIP3    H140528   0.320   5.806   0.971  0.5081  0.2517  2.4846
 6323TIP3    H240529   0.199   5.722   0.937  2.1050 -0.8376 -0.9368
 6324TIP3   OH240530   5.214   3.976   0.432 -0.1670  0.4136  0.4686
 6324TIP3    H140531   5.238   4.000   0.343 -0.8164  1.2602  0.5166
 6324TIP3    H240532   5.119   3.986   0.435 -0.2647 -0.5394  0.9825
 6325TIP3   OH240533   4.335   3.957   0.607  0.1583  0.7264 -0.3212
 6325TIP3    H140534   4.317   4.044   0.571  0.2524  0.7923 -0.2138
 6325TIP3    H240535   4.320   3.967   0.701 -1.0558  0.2964 -0.4626
 6326TIP3   OH240536   3.196   5.217   0.365  0.1290  0.2745 -0.4203
 6326TIP3    H140537   3.135   5.237   0.436  2.1077  2.2343  0.8834
 6326TIP3    H240538   3.212   5.123   0.372 -1.4674  0.0275  0.2240
 6327TIP3   OH240539   6.234   5.438   2.200  0.3174 -0.3574  0.0506
 6327TIP3    H140540   6.248   5.520   2.248 -0.3386  0.7245 -1.5237
 6327TIP3    H240541   6.249   5.370   2.265 -1.7038  1.0301  2.1362
 6328TIP3   OH240542   0.474   2.594   2.955 -0.8059 -0.0429  0.2012
 6328TIP3    H140543   0.498   2.517   2.903 -1.3996 -1.9323  2.5309
 6328TIP3    H240544   0.552   2.649   2.953  1.1974 -2.6012  1.6628
 6329TIP3   OH240545   4.801   0.339   8.623 -0.1727  0.1259 -1.1320
 6329TIP3    H140546   4.884   0.342   8.576 -0.1889 -0.1540 -1.1806
 6329TIP3    H240547   4.778   0.431   8.638  0.3049  0.1960 -0.8312
 6330TIP3   OH240548   0.566   0.675   2.950  0.1421  0.1392 -0.6860
 6330TIP3    H140549   0.482   0.696   2.911  0.7868  2.1429 -1.1254
 6330TIP3    H240550   0.551   0.681   3.044 -0.2969  0.0790 -0.7497
 6331TIP3   OH240551   6.123   0.211   1.411  0.3049  0.0231  0.3809
 6331TIP3    H140552   6.201   0.168   1.378  0.2735  0.6252 -0.5066
 6331TIP3    H240553   6.156   0.287   1.460  0.3468 -0.8141  1.7128
 6332TIP3   OH240554   2.676   3.619   1.270 -0.0760 -0.4434 -0.2510
 6332TIP3    H140555   2.718   3.564   1.203 -0.4232 -1.1303  0.0773
 6332TIP3    H240556   2.730   3.606   1.348 -1.6526 -2.5033  0.5992
 6333TIP3   OH240557   4.717   0.017   7.980  0.1933  0.4256 -0.0571
 6333TIP3    H140558   4.690   0.107   7.962 -0.4034  0.5794  1.4557
 6333TIP3    H240559   4.705  -0.028   7.897  0.2778  1.6775 -0.7800
 6334TIP3   OH240560   5.599   4.280   6.672  0.0686 -0.2414  0.3123
 6334TIP3    H140561   5.518   4.233   6.651  0.8880 -1.0714 -1.1680
 6334TIP3    H240562   5.597   4.358   6.617  0.7735 -0.8525 -0.6298
 6335TIP3   OH240563   2.424   2.879   1.663  0.3568 -1.3223  0.0885
 6335TIP3    H140564   2.446   2.803   1.608  2.0413 -1.1694  0.4981
 6335TIP3    H240565   2.496   2.884   1.726 -0.8598 -0.6942  1.4763
 6336TIP3   OH240566   5.359   6.213   1.761 -0.4914  0.2959 -0.7447
 6336TIP3    H140567   5.328   6.212   1.670 -1.2520 -2.2615 -0.5358
 6336TIP3    H240568   5.278   6.215   1.813 -0.4632 -4.0143 -0.2006
 6337TIP3   OH240569   1.373   2.424   8.827 -0.1770 -0.3823 -0.1416
 6337TIP3    H140570   1.379   2.518   8.845 -1.9101 -0.0920 -0.9282
 6337TIP3    H240571   1.379   2.417   8.732  0.2074 -1.1056 -0.0725
 6338TIP3   OH240572   0.309   2.463   0.655  0.1009  0.3402 -0.1017
 6338TIP3    H140573   0.290   2.432   0.566  0.7438 -2.6341  0.7028
 6338TIP3    H240574   0.404   2.474   0.657 -0.1312  3.3608 -0.5553
 6339TIP3   OH240575   6.166   2.281   1.278  0.2184 -1.0152 -0.7588
 6339TIP3    H140576   6.130   2.277   1.189  0.3822 -0.9466 -0.8291
 6339TIP3    H240577   6.258   2.302   1.265  0.3869 -1.6600 -0.5981
 6340TIP3   OH240578   5.018   1.789   1.807 -0.0412 -0.4973 -0.7488
 6340TIP3    H140579   4.957   1.765   1.877  0.3216  0.7935  0.0259
 6340TIP3    H240580   4.978   1.865   1.765  0.1742 -0.7295 -1.3916
 6341TIP3   OH240581   0.442   4.131   1.911  0.6097  0.0074  0.1613
 6341TIP3    H140582   0.441   4.219   1.873  0.6100  0.2746  0.7789
 6341TIP3    H240583   0.535   4.114   1.928  0.4071  1.2974  3.2465
 6342TIP3   OH240584   4.601   2.779   1.476  0.1307  0.0267  0.1141
 6342TIP3    H140585   4.668   2.833   1.518 -0.5406  0.8788  0.1200
 6342TIP3    H240586   4.583   2.709   1.539  0.3624  0.3206  0.5107
 6343TIP3   OH240587   0.110   0.460   7.834  0.1842  0.2202 -0.0053
 6343TIP3    H140588   0.111   0.432   7.743 -2.1432 -2.5331  0.6785
 6343TIP3    H240589   0.036   0.519   7.840  1.3922  1.8310 -0.1654
 6344TIP3   OH240590   1.148   4.391   0.854  0.2872 -0.4595 -0.0462
 6344TIP3    H140591   1.222   4.414   0.798 -0.6908 -1.2327 -1.7315
 6344TIP3    H240592   1.110   4.314   0.812 -2.1774  0.6027  0.1014
 6345TIP3   OH240593   3.551   1.339   8.504 -0.2899  0.0374 -0.0817
 6345TIP3    H140594   3.476   1.396   8.522 -1.4715 -1.2117 -0.8348
 6345TIP3    H240595   3.542   1.316   8.411  1.7467  0.8354 -0.5344
 6346TIP3   OH240596   0.533   5.470   8.095 -0.3180 -0.2946  0.3491
 6346TIP3    H140597   0.526   5.423   8.012 -1.1022 -0.9933  0.7965
 6346TIP3    H240598   0.495   5.410   8.159 -3.1638  1.6568  0.6563
 6347TIP3   OH240599   2.954   5.191   2.416 -0.2080  0.1200  0.8079
 6347TIP3    H140600   2.926   5.217   2.328  2.5707  1.7892  0.3118
 6347TIP3    H240601   2.893   5.237   2.474 -2.3371 -1.3211 -0.1342
 6348TIP3   OH240602   6.013   3.814   0.124 -0.3516 -0.0255 -0.0532
 6348TIP3    H140603   6.028   3.908   0.131  1.0000 -0.2961  1.2149
 6348TIP3    H240604   5.969   3.803   0.040  1.3501  1.5275 -1.2140
 6349TIP3   OH240605   3.680   5.552   0.752  0.0320  0.4695 -0.2991
 6349TIP3    H140606   3.637   5.592   0.676 -0.9766  0.2346  0.1317
 6349TIP3    H240607   3.693   5.461   0.727 -1.2139  0.1442  0.1607
 6350TIP3   OH240608   0.878   1.094   1.624  0.4988  0.5344  0.6348
 6350TIP3    H140609   0.893   1.139   1.540 -0.0838  2.7896  1.6472
 6350TIP3    H240610   0.800   1.040   1.608  0.3429  0.9944 -0.2624
 6351TIP3   OH240611   6.762   5.960   1.125 -0.1575  0.0006  0.7276
 6351TIP3    H140612   6.792   5.881   1.170 -0.6880 -0.4073  0.3925
 6351TIP3    H240613   6.716   6.010   1.192  0.6936  0.3127  1.0817
 6352TIP3   OH240614   6.199   4.894   0.113  0.1598  0.1318 -0.4347
 6352TIP3    H140615   6.291   4.917   0.116  0.5146 -1.2630 -0.0629
 6352TIP3    H240616   6.175   4.902   0.021  0.5928  0.6627 -0.5053
 6353TIP3   OH240617   3.133   5.201   1.391 -0.8643 -0.3958  0.3984
 6353TIP3    H140618   3.180   5.126   1.355  0.5553 -0.4629  2.2155
 6353TIP3    H240619   3.071   5.163   1.454 -2.0339 -0.1715 -0.5721
 6354TIP3   OH240620   3.534   3.124   1.650 -0.6784 -0.1423  0.5970
 6354TIP3    H140621   3.509   3.116   1.742 -0.0635 -0.2836  0.7538
 6354TIP3    H240622   3.502   3.043   1.610 -2.0288  0.4457  0.4211
 6355TIP3   OH240623   5.855   5.697   8.038  0.2025  0.8237 -0.0085
 6355TIP3    H140624   5.793   5.769   8.027  0.1152  0.7417 -0.0652
 6355TIP3    H240625   5.799   5.622   8.058  0.0831  0.2386 -2.2468
 6356TIP3   OH240626   1.841   5.218   0.941 -0.7372 -0.0421 -0.6651
 6356TIP3    H140627   1.929   5.208   0.906 -0.9691 -1.9770 -0.7981
 6356TIP3    H240628   1.803   5.291   0.892 -0.2731 -1.2004 -2.8525
 6357TIP3   OH240629   6.222   0.298   0.481  0.3608 -0.1813  0.0839
 6357TIP3    H140630   6.183   0.215   0.507 -0.2108 -0.5565 -1.8282
 6357TIP3    H240631   6.188   0.362   0.543  0.7180 -1.3415  1.5126
 6358TIP3   OH240632   2.034   0.088   7.522  0.2843  0.7712  0.3917
 6358TIP3    H140633   2.013   0.166   7.470  0.3050  1.9303  2.0746
 6358TIP3    H240634   1.998   0.106   7.609 -1.2845 -1.8372  0.4056
 6359TIP3   OH240635   6.299   3.290   0.809  0.0334  0.3793 -0.0386
 6359TIP3    H140636   6.237   3.359   0.785 -0.6005 -0.5166 -1.0199
 6359TIP3    H240637   6.384   3.334   0.813  0.1770  0.6969 -3.6796
 6360TIP3   OH240638   4.577   5.653   2.308 -0.1204 -0.4959 -0.1095
 6360TIP3    H140639   4.509   5.586   2.297 -0.7577  0.1769 -0.3492
 6360TIP3    H240640   4.597   5.652   2.401 -0.0621 -1.0777 -0.1220
 6361TIP3   OH240641   4.368   4.272   0.958  0.1352  0.1143 -1.1464
 6361TIP3    H140642   4.420   4.196   0.984 -0.7371  0.1176  0.8560
 6361TIP3    H240643   4.381   4.280   0.864  2.3298 -0.9132 -0.9948
 6362TIP3   OH240644   0.932   3.179   1.325 -0.0103 -0.0087 -0.2512
 6362TIP3    H140645   0.998   3.247   1.337  0.4045 -0.1067 -1.7298
 6362TIP3    H240646   0.865   3.198   1.391  1.0472  0.6460  0.6555
 6363TIP3   OH240647   0.342   3.261   1.634  0.4532 -0.0798  0.0069
 6363TIP3    H140648   0.383   3.262   1.548  1.4398  0.9586  0.4765
 6363TIP3    H240649   0.343   3.168   1.659  0.1306 -0.4016 -1.0883
 6364TIP3   OH240650   3.470   2.908   7.847  0.2835 -0.1573  0.4231
 6364TIP3    H140651   3.406   2.970   7.812 -0.3073 -0.1235  1.5291
 6364TIP3    H240652   3.540   2.907   7.781 -0.0812  1.0485 -0.0168
 6365TIP3   OH240653   2.201   4.280   7.801 -0.2208  0.3497 -0.0110
 6365TIP3    H140654   2.129   4.227   7.836  0.0928  0.4610  0.8378
 6365TIP3    H240655   2.250   4.219   7.746 -0.6558  0.1303 -0.1666
 6366TIP3   OH240656   0.092   2.194   7.176  0.0206 -0.9181 -0.1827
 6366TIP3    H140657   0.060   2.234   7.095  0.0221 -1.0568 -0.2520
 6366TIP3    H240658   0.049   2.109   7.180  0.2218 -1.0194 -0.1710
 6367TIP3   OH240659   5.786   6.030   8.873 -0.7096 -0.3306  0.4883
 6367TIP3    H140660   5.763   5.943   8.838  0.6670 -0.0819 -1.1774
 6367TIP3    H240661   5.716   6.087   8.841 -0.8855 -0.5858  0.4110
 6368TIP3   OH240662   4.364   0.737   8.036  0.0058  0.2148  0.0831
 6368TIP3    H140663   4.283   0.686   8.049 -0.7383  1.8143  2.3157
 6368TIP3    H240664   4.422   0.707   8.106 -0.5766  2.5610  1.6629
 6369TIP3   OH240665   1.208   0.858   8.892  0.2819  0.0558 -0.0540
 6369TIP3    H140666   1.296   0.894   8.905  0.5437 -0.5135 -0.1930
 6369TIP3    H240667   1.217   0.801   8.816 -0.2520  0.1322 -0.1754
 6370TIP3   OH240668   2.821   2.319   8.068  0.0182 -0.3626  0.1637
 6370TIP3    H140669   2.754   2.364   8.120  0.2732  0.0649  0.1260
 6370TIP3    H240670   2.871   2.390   8.027 -0.0876 -0.6864 -0.5483
 6371TIP3   OH240671   6.088   0.698   1.318 -0.4117 -0.2635 -0.1868
 6371TIP3    H140672   6.030   0.675   1.391 -0.4627  1.6633  0.4354
 6371TIP3    H240673   6.160   0.746   1.359  0.0760 -0.0221 -1.2976
 6372TIP3   OH240674   5.103   4.422   8.023  0.3511  0.7054  0.6163
 6372TIP3    H140675   5.167   4.373   7.971  0.2240  2.1412 -0.9526
 6372TIP3    H240676   5.024   4.368   8.020  0.3112  0.8043 -0.7951
 6373TIP3   OH240677   3.646   5.724   1.704  0.8903  0.0167  0.1891
 6373TIP3    H140678   3.709   5.786   1.740  1.5793 -0.7200  0.2827
 6373TIP3    H240679   3.676   5.638   1.734 -0.5096 -0.3149  0.7542
 6374TIP3   OH240680   1.273   0.199   8.334 -0.8240  0.2288 -0.0298
 6374TIP3    H140681   1.313   0.283   8.355 -0.4923 -0.2858  1.5383
 6374TIP3    H240682   1.345   0.145   8.302 -0.6035 -0.0962  0.9716
 6375TIP3   OH240683   0.001   6.729   1.884 -0.7175 -0.4379 -0.2517
 6375TIP3    H140684  -0.057   6.656   1.863 -0.5401 -0.1987 -1.7299
 6375TIP3    H240685  -0.032   6.764   1.966 -1.8326 -1.1445 -0.3760
 6376TIP3   OH240686   4.195   3.100   8.490 -0.3001  0.0688  0.1589
 6376TIP3    H140687   4.289   3.090   8.505 -0.1222 -1.5991 -1.6551
 6376TIP3    H240688   4.155   3.082   8.575  0.9739 -0.0635  0.7553
 6377TIP3   OH240689   5.728   2.999   1.876 -0.6409  0.5742 -0.2612
 6377TIP3    H140690   5.790   3.043   1.817 -0.4153  1.0254  0.3039
 6377TIP3    H240691   5.776   2.922   1.908 -0.3619  0.9243  0.1776
 6378TIP3   OH240692   5.947   2.647   8.177 -0.0949  0.0874 -0.2688
 6378TIP3    H140693   5.947   2.612   8.088  1.8523  0.0420 -0.3091
 6378TIP3    H240694   5.992   2.732   8.169 -0.5492  0.4205  0.5640
 6379TIP3   OH240695   2.887   3.340   7.705 -0.0787  0.0334 -0.0143
 6379TIP3    H140696   2.881   3.433   7.728  1.0979 -0.0194  0.5669
 6379TIP3    H240697   2.872   3.294   7.787  0.1860 -0.2621 -0.1321
 6380TIP3   OH240698   4.834   6.446   1.118  0.6694  0.2338  0.1759
 6380TIP3    H140699   4.886   6.428   1.196 -1.2845  0.3470  1.5698
 6380TIP3    H240700   4.777   6.519   1.143 -1.3434 -0.9632 -0.6475
 6381TIP3   OH240701   5.538   2.037   7.359  0.5064 -0.0555 -0.0242
 6381TIP3    H140702   5.489   1.957   7.342  2.7194 -1.5377  0.1841
 6381TIP3    H240703   5.571   2.063   7.273 -1.9335  1.9506 -0.4798
 6382TIP3   OH240704   2.657   3.738   7.539  0.3178  0.1888  0.2233
 6382TIP3    H140705   2.632   3.794   7.467  1.5092 -0.6357 -0.8831
 6382TIP3    H240706   2.722   3.788   7.588 -0.1347  0.5575  0.4530
 6383TIP3   OH240707   3.822   5.537   1.495  0.0495  0.0648  0.1620
 6383TIP3    H140708   3.851   5.615   1.544 -0.2206 -1.7413  3.4804
 6383TIP3    H240709   3.893   5.474   1.506 -1.7766 -1.8519  2.0255
 6384TIP3   OH240710   2.655   5.572   3.038 -0.0592  0.2082 -0.2179
 6384TIP3    H140711   2.725   5.576   2.973  0.7935 -1.4268  0.5391
 6384TIP3    H240712   2.594   5.507   3.004 -0.8569  1.0899 -0.5115
 6385TIP3   OH240713   4.578   1.560   7.878 -0.2086 -0.9492 -0.4699
 6385TIP3    H140714   4.673   1.552   7.881 -0.0422  0.3543 -1.5990
 6385TIP3    H240715   4.555   1.548   7.785 -0.9695  0.4131 -0.4794
 6386TIP3   OH240716   1.669   6.503   1.532 -0.2465 -0.3918 -0.2720
 6386TIP3    H140717   1.722   6.469   1.460  0.1413 -3.3036  1.1940
 6386TIP3    H240718   1.579   6.492   1.503 -0.0965 -0.0004 -0.9092
 6387TIP3   OH240719   0.877   4.911   1.994 -0.3353  0.8453 -0.0368
 6387TIP3    H140720   0.960   4.865   2.005 -0.6254  0.0958 -0.8128
 6387TIP3    H240721   0.879   4.942   1.903 -0.7372  1.1754  0.0650
 6388TIP3   OH240722   0.087   2.534   1.373 -0.1300 -0.7675  0.4893
 6388TIP3    H140723   0.154   2.597   1.344  0.6493 -1.1697  1.3446
 6388TIP3    H240724   0.012   2.588   1.397  0.7708 -0.0732  1.8701
 6389TIP3   OH240725   4.049   2.893   1.498 -0.1972 -0.1951 -0.2978
 6389TIP3    H140726   3.995   2.950   1.444  3.0076 -0.5592 -4.5096
 6389TIP3    H240727   3.995   2.816   1.514 -1.2336 -0.3917 -3.9131
 6390TIP3   OH240728   0.091   0.690   0.799  0.0132 -0.0432 -0.5285
 6390TIP3    H140729   0.154   0.662   0.866 -2.4178  1.7999  2.8370
 6390TIP3    H240730   0.092   0.786   0.804 -1.6644  0.0820 -1.7645
 6391TIP3   OH240731   5.349   1.881   6.746  0.3190 -0.7251 -0.7815
 6391TIP3    H140732   5.302   1.806   6.710  0.9445 -1.3889 -0.2510
 6391TIP3    H240733   5.298   1.907   6.822  0.3103 -0.8485 -0.7456
 6392TIP3   OH240734   5.339   6.014   7.975  0.2289 -0.4889 -0.0543
 6392TIP3    H140735   5.394   6.012   7.896 -1.0713 -3.4290 -1.0478
 6392TIP3    H240736   5.254   6.046   7.944  0.3550  0.6611  0.7229
 6393TIP3   OH240737   4.211   4.221   2.077  0.3421  0.0746 -0.0492
 6393TIP3    H140738   4.189   4.212   2.169 -0.8355  1.3340 -0.1769
 6393TIP3    H240739   4.158   4.154   2.033 -0.3066  0.5264  0.0378
 6394TIP3   OH240740   0.948   3.173   8.484 -0.4694  0.3763  0.1772
 6394TIP3    H140741   0.949   3.129   8.399  1.2572  1.8530 -0.6486
 6394TIP3    H240742   0.969   3.105   8.547 -1.1812 -0.6243 -0.6320
 6395TIP3   OH240743   3.347   5.353   7.773 -0.6481  0.0536  0.1381
 6395TIP3    H140744   3.326   5.442   7.747  0.8734  1.0081  1.9354
 6395TIP3    H240745   3.357   5.357   7.868  4.2510 -0.8589 -0.0886
 6396TIP3   OH240746   2.722   6.197   0.453  0.1820 -0.6900 -0.5718
 6396TIP3    H140747   2.749   6.264   0.390  0.7232 -1.7986 -1.5582
 6396TIP3    H240748   2.736   6.114   0.407 -2.7193 -1.4350 -0.3025
 6397TIP3   OH240749   6.309   6.771   1.257  0.1079 -0.1575 -0.4105
 6397TIP3    H140750   6.244   6.741   1.320  2.0507  1.9771  2.9486
 6397TIP3    H240751   6.352   6.691   1.227 -1.7027 -1.3386 -0.0079
 6398TIP3   OH240752   2.378   5.630   0.346 -0.1587 -0.7332  0.2507
 6398TIP3    H140753   2.282   5.629   0.353 -0.0918 -1.1829  1.3006
 6398TIP3    H240754   2.398   5.555   0.290 -0.4396 -0.3369 -0.3932
 6399TIP3   OH240755   2.655   2.241   1.039  0.4854  0.0149 -1.1022
 6399TIP3    H140756   2.576   2.294   1.046  0.1716 -0.6232  0.9136
 6399TIP3    H240757   2.625   2.157   1.004 -0.2996 -1.0919  1.8473
 6400TIP3   OH240758   5.897   4.785   8.306 -0.1874 -0.8984  0.2282
 6400TIP3    H140759   5.816   4.737   8.287  0.0150 -1.5538  0.9832
 6400TIP3    H240760   5.927   4.816   8.220 -1.4588 -0.2710 -0.0150
 6401TIP3   OH240761   1.135   5.640   8.558 -0.1880 -0.0635  0.4023
 6401TIP3    H140762   1.046   5.606   8.546  0.7044 -2.0533 -1.2059
 6401TIP3    H240763   1.142   5.655   8.653 -1.7993 -1.1374  0.7367
 6402TIP3   OH240764   2.572   3.098   3.031  0.1257 -0.2127  0.3751
 6402TIP3    H140765   2.575   3.088   2.936  0.2500  0.7630  0.2733
 6402TIP3    H240766   2.490   3.055   3.057 -0.7874  1.0076 -0.3711
 6403TIP3   OH240767   5.376   0.409   0.563  0.1641  0.1625  0.6490
 6403TIP3    H140768   5.314   0.357   0.615 -0.6725  1.5152  1.0417
 6403TIP3    H240769   5.419   0.466   0.626 -2.1529  3.1250 -0.2268
 6404TIP3   OH240770   5.704   3.632   1.126  0.0933 -0.3723 -0.0952
 6404TIP3    H140771   5.744   3.646   1.212  1.0477 -1.0360 -0.4144
 6404TIP3    H240772   5.626   3.688   1.127  1.5375  1.7447  0.1716
 6405TIP3   OH240773   0.600   5.223   1.984  0.1744 -0.2585 -0.3571
 6405TIP3    H140774   0.681   5.240   2.032 -0.6288 -0.7176  1.2327
 6405TIP3    H240775   0.548   5.302   1.996 -0.5806 -0.8921  0.7454
 6406TIP3   OH240776   5.907   1.127   2.116  0.1512  0.1790  0.7257
 6406TIP3    H140777   5.891   1.208   2.067 -1.2284 -0.3623  0.2385
 6406TIP3    H240778   5.851   1.135   2.194 -0.2253 -0.4371  0.5202
 6407TIP3   OH240779   3.915   1.842   8.662 -0.0270 -0.3398  0.2518
 6407TIP3    H140780   3.887   1.923   8.704 -0.0831  0.4505 -1.2519
 6407TIP3    H240781   3.923   1.779   8.734  0.7654  1.1859  1.5557
 6408TIP3   OH240782   5.869   5.181   0.390  0.3521 -0.0589  0.3657
 6408TIP3    H140783   5.958   5.213   0.402  0.0329  0.5335  1.2252
 6408TIP3    H240784   5.861   5.166   0.296  0.4243  2.6636 -0.1420
 6409TIP3   OH240785   0.210   6.528   1.869 -0.7937 -0.5057  0.4866
 6409TIP3    H140786   0.243   6.605   1.916  0.8167 -1.4372  0.9394
 6409TIP3    H240787   0.118   6.523   1.894 -0.4241  0.1011  2.0934
 6410TIP3   OH240788   4.590   6.530   1.387  0.0581 -0.2828  0.1426
 6410TIP3    H140789   4.582   6.583   1.467 -3.1992  0.4502 -0.5311
 6410TIP3    H240790   4.558   6.443   1.412  0.8211 -0.5936  0.0651
 6411TIP3   OH240791   2.370   3.356   6.892 -0.4764 -0.2727 -0.2997
 6411TIP3    H140792   2.297   3.385   6.837 -1.1365 -2.2227 -0.5349
 6411TIP3    H240793   2.372   3.261   6.881  0.6358 -0.5144  1.5288
 6412TIP3   OH240794   5.647   3.731   7.441  1.2347  0.4536  0.2522
 6412TIP3    H140795   5.645   3.706   7.348  2.0608  1.2187  0.0104
 6412TIP3    H240796   5.672   3.652   7.487 -0.1414 -0.1948 -0.0640
 6413TIP3   OH240797   2.551   1.069   0.506 -0.3889  0.2569  0.5975
 6413TIP3    H140798   2.581   1.015   0.433 -1.8652 -2.0397  1.5883
 6413TIP3    H240799   2.587   1.028   0.584  1.7382  3.0759  1.2582
 6414TIP3   OH240800   4.273   2.069   8.318 -0.3958  0.1216 -0.2992
 6414TIP3    H140801   4.344   2.047   8.257  0.5951  0.6815  0.6175
 6414TIP3    H240802   4.266   1.993   8.375 -1.0758 -0.2547 -0.8804
 6415TIP3   OH240803   4.716   2.347   0.218 -0.1287 -0.5626 -0.1456
 6415TIP3    H140804   4.774   2.315   0.287 -0.9480  0.3455  0.9883
 6415TIP3    H240805   4.712   2.275   0.155  0.2261 -1.6185  1.0057
 6416TIP3   OH240806   6.587   1.610   0.807  1.0894 -0.4117 -0.1858
 6416TIP3    H140807   6.560   1.520   0.828 -0.2922  0.1180  0.4984
 6416TIP3    H240808   6.531   1.635   0.734  2.9245 -0.7732 -1.8030
 6417TIP3   OH240809   6.200   5.552   7.230 -0.0176  0.1799  0.2701
 6417TIP3    H140810   6.255   5.596   7.294 -0.0404 -0.6044  0.8327
 6417TIP3    H240811   6.114   5.593   7.240 -0.2782 -0.5955  1.4383
 6418TIP3   OH240812   0.162   1.078   0.734 -0.0183  0.3961 -0.0200
 6418TIP3    H140813   0.162   1.158   0.681 -0.5149  0.4327  0.0278
 6418TIP3    H240814   0.121   1.103   0.816  1.1671  0.4490  0.5761
 6419TIP3   OH240815   3.705   4.305   7.337  0.2951  0.3047  0.2064
 6419TIP3    H140816   3.626   4.317   7.284 -0.4844 -0.1629  1.2479
 6419TIP3    H240817   3.774   4.345   7.284 -0.6668  0.9423 -0.6185
 6420TIP3   OH240818   4.928   3.037   7.497  0.2806 -0.4392 -0.4967
 6420TIP3    H140819   4.937   3.131   7.512 -1.0103 -0.4178  0.3366
 6420TIP3    H240820   4.931   3.028   7.402  2.5453  0.1616 -0.5389
 6421TIP3   OH240821   4.075   0.664   7.083  0.0469  0.2618  0.2343
 6421TIP3    H140822   4.136   0.639   7.014 -1.6477  0.0333 -1.2533
 6421TIP3    H240823   4.082   0.593   7.147  0.9390 -0.0419 -0.1872
 6422TIP3   OH240824   0.205   5.398   0.130  0.0687 -0.2323 -0.0817
 6422TIP3    H140825   0.231   5.426   0.218 -0.4705  2.5741 -0.7187
 6422TIP3    H240826   0.287   5.382   0.084  0.3592 -2.1657  0.9758
 6423TIP3   OH240827   2.308   5.064   0.820 -0.4606  0.5210  0.3710
 6423TIP3    H140828   2.279   4.977   0.793  3.4607  0.0904 -3.4964
 6423TIP3    H240829   2.230   5.119   0.812 -2.4327 -2.0816  0.3682
 6424TIP3   OH240830   1.392   3.033   7.508 -0.1447 -0.0416  0.2819
 6424TIP3    H140831   1.478   2.992   7.513 -0.6379 -1.0985  0.3278
 6424TIP3    H240832   1.349   2.990   7.435 -0.5374  0.6908  0.0708
 6425TIP3   OH240833   2.902   3.608   1.896 -0.2096  0.0720  0.2280
 6425TIP3    H140834   2.909   3.513   1.883 -0.3100  0.1011 -0.0475
 6425TIP3    H240835   2.957   3.645   1.827  1.5819  0.1716  1.6467
 6426TIP3   OH240836   5.639   4.682   8.556 -0.3178  0.9441 -0.5441
 6426TIP3    H140837   5.734   4.689   8.547 -0.2662  0.1445 -0.7447
 6426TIP3    H240838   5.610   4.643   8.474 -0.5004 -1.1887  0.4653
 6427TIP3   OH240839   4.174   0.803   0.374  0.0555  0.2657 -0.0297
 6427TIP3    H140840   4.087   0.765   0.362  0.4965 -1.3214  1.5331
 6427TIP3    H240841   4.182   0.816   0.468  0.7804  2.2941 -0.3229
 6428TIP3   OH240842   0.769   3.494   7.035  0.6122 -0.1663 -0.2343
 6428TIP3    H140843   0.808   3.578   7.008  1.5507 -0.3619  0.4267
 6428TIP3    H240844   0.688   3.488   6.986  0.6272  1.0452 -0.4462
 6429TIP3   OH240845   4.944   3.759   1.973 -0.1468  0.2301 -0.4451
 6429TIP3    H140846   4.981   3.700   1.907 -1.3174 -0.5869 -0.3993
 6429TIP3    H240847   5.013   3.767   2.039  0.0246 -1.1525 -0.4267
 6430TIP3   OH240848   2.138   0.803   1.824 -0.0506 -0.0043 -0.1345
 6430TIP3    H140849   2.207   0.764   1.771  2.9068  2.1041  1.8046
 6430TIP3    H240850   2.134   0.894   1.795 -0.8597  0.3231  0.9199
 6431TIP3   OH240851   5.844   3.729   0.513  0.2383  0.4579  0.2106
 6431TIP3    H140852   5.787   3.801   0.487 -0.7892 -0.5044 -0.3183
 6431TIP3    H240853   5.899   3.713   0.437 -0.5934 -0.2962 -0.2511
 6432TIP3   OH240854   5.104   0.292   1.118 -0.2948 -0.3866 -0.3505
 6432TIP3    H140855   5.158   0.282   1.196 -0.4897 -0.9799 -0.2880
 6432TIP3    H240856   5.082   0.385   1.116 -0.3977 -0.3913  0.3785
 6433TIP3   OH240857   3.397   0.610   7.205 -0.0339 -0.0242  0.4401
 6433TIP3    H140858   3.310   0.648   7.199  0.0206 -0.0254 -0.4514
 6433TIP3    H240859   3.454   0.674   7.162  0.1371 -0.8410 -0.5773
 6434TIP3   OH240860   2.634   1.942   6.995 -0.0045 -0.6957 -0.3161
 6434TIP3    H140861   2.607   1.968   7.083  1.5123 -0.0299 -0.0301
 6434TIP3    H240862   2.728   1.927   7.001  0.2102 -0.2315 -1.9134
 6435TIP3   OH240863   2.609   1.530   0.872 -0.0624  0.2472  0.0725
 6435TIP3    H140864   2.634   1.445   0.836 -1.9238 -0.5980  0.6616
 6435TIP3    H240865   2.580   1.581   0.796 -1.9072 -0.7647  0.0575
 6436TIP3   OH240866   5.982   4.040   8.367  0.8810  0.0214  0.7332
 6436TIP3    H140867   5.998   4.038   8.273  1.4127  0.3015  0.8167
 6436TIP3    H240868   5.982   4.133   8.389  2.1640 -0.0924  1.2473
 6437TIP3   OH240869   6.633   0.968   0.224  0.7056  0.3816  0.6456
 6437TIP3    H140870   6.641   0.979   0.318 -1.5665 -1.0876  1.0817
 6437TIP3    H240871   6.713   1.008   0.188  1.8635  0.5163  3.1806
 6438TIP3   OH240872   6.129   1.207   7.047  0.4070 -0.1439  0.0589
 6438TIP3    H140873   6.101   1.246   7.130 -0.8390  0.7718 -0.7613
 6438TIP3    H240874   6.140   1.114   7.067  0.4376  0.1165  1.3166
 6439TIP3   OH240875   4.745   4.938   2.228  0.2239  0.2622 -0.1106
 6439TIP3    H140876   4.787   4.906   2.308 -3.5248 -2.0504  1.1912
 6439TIP3    H240877   4.688   5.009   2.256  0.5423  0.9783 -1.1892
 6440TIP3   OH240878   1.078   6.747   0.884 -0.5894 -0.8671 -0.2171
 6440TIP3    H140879   1.091   6.766   0.791  0.1181 -0.7536 -0.1085
 6440TIP3    H240880   0.986   6.765   0.900 -0.6212 -0.4746 -0.8069
 6441TIP3   OH240881   4.065   6.430   8.483 -0.6097  0.0200  0.2964
 6441TIP3    H140882   4.158   6.438   8.464 -0.8180  1.0619 -0.3317
 6441TIP3    H240883   4.021   6.454   8.401 -1.4375 -0.2139  0.6600
 6442TIP3   OH240884   6.672   3.782   2.335 -0.0493  0.3048  0.3314
 6442TIP3    H140885   6.673   3.706   2.393 -0.9133  0.2729  0.3163
 6442TIP3    H240886   6.614   3.757   2.263 -0.8345  1.1946  0.6336
 6443TIP3   OH240887   1.853   0.551   2.839  0.2832 -0.2511  0.0390
 6443TIP3    H140888   1.881   0.642   2.832  0.9096 -0.4664 -0.5090
 6443TIP3    H240889   1.758   0.553   2.826  0.3445  0.2889 -0.3724
 6444TIP3   OH240890   6.498   0.967   1.415 -0.0406  0.5861  0.8362
 6444TIP3    H140891   6.447   1.011   1.347  0.4889  0.3674  0.2897
 6444TIP3    H240892   6.561   1.033   1.444  0.2922  0.4182  0.5094
 6445TIP3   OH240893   3.200   6.427   1.521  0.6095  0.2643  0.3880
 6445TIP3    H140894   3.263   6.389   1.461  0.6360 -0.7098  1.0012
 6445TIP3    H240895   3.183   6.357   1.585 -1.9830  0.0286 -0.4288
 6446TIP3   OH240896   1.047   0.646   2.440 -0.1218 -0.1842 -0.0708
 6446TIP3    H140897   1.115   0.665   2.374 -1.1705 -2.3505 -1.9007
 6446TIP3    H240898   1.055   0.718   2.503  2.7967  0.4989 -1.0439
 6447TIP3   OH240899   6.461   1.189   0.971  0.4061  0.1299  0.0947
 6447TIP3    H140900   6.378   1.226   0.941  0.1467  0.3900  1.0967
 6447TIP3    H240901   6.447   1.095   0.972  0.0453  0.1872  0.4709
 6448TIP3   OH240902   5.099   5.319   1.126  0.0133  0.2535  0.8995
 6448TIP3    H140903   5.047   5.246   1.160 -0.7871 -0.5746 -1.7890
 6448TIP3    H240904   5.039   5.364   1.067  1.4593  1.1603  0.0730
 6449TIP3   OH240905   5.580   2.552   6.771 -0.4085 -0.0501  0.0282
 6449TIP3    H140906   5.657   2.607   6.759 -1.6080  1.3824 -1.6141
 6449TIP3    H240907   5.519   2.607   6.820 -0.5488 -1.0135  0.9542
 6450TIP3   OH240908   6.418   3.379   1.723 -0.2196  0.6469 -0.4329
 6450TIP3    H140909   6.467   3.306   1.762 -1.1003  0.3091  0.0655
 6450TIP3    H240910   6.398   3.350   1.634 -0.0111  0.5557 -0.4508
 6451TIP3   OH240911   4.822   3.235   0.185  0.4255  0.2565  0.4964
 6451TIP3    H140912   4.829   3.302   0.253  2.0752 -0.1265  0.7396
 6451TIP3    H240913   4.728   3.217   0.179 -0.0635  2.5584  0.4248
 6452TIP3   OH240914   0.356   2.153   0.306  0.6089 -0.3590 -0.4742
 6452TIP3    H140915   0.415   2.078   0.295  0.7431 -0.1951 -0.8803
 6452TIP3    H240916   0.400   2.225   0.261 -0.8880 -0.7339 -2.6845
 6453TIP3   OH240917   4.967   0.916   7.823  0.2745 -0.1437  0.4189
 6453TIP3    H140918   4.916   0.995   7.802 -0.0580 -0.4063  0.2384
 6453TIP3    H240919   5.047   0.950   7.865  0.5302  0.3331 -0.4390
 6454TIP3   OH240920   5.972   0.389   1.910 -0.3490  0.4947 -0.1395
 6454TIP3    H140921   6.058   0.416   1.943 -0.2589  1.5404 -1.1652
 6454TIP3    H240922   5.987   0.363   1.820 -1.1335  0.8969 -0.4013
 6455TIP3   OH240923   1.543   6.640   8.660 -0.0267 -0.0558  0.1215
 6455TIP3    H140924   1.593   6.659   8.740  0.1542  0.7431 -0.1820
 6455TIP3    H240925   1.480   6.711   8.653  0.1181  0.0101 -0.5814
 6456TIP3   OH240926   3.688   0.841   1.105 -0.3637 -0.0313 -0.1343
 6456TIP3    H140927   3.777   0.805   1.099 -1.2675 -2.8246  1.2674
 6456TIP3    H240928   3.685   0.883   1.191 -1.0499 -2.2716  1.0216
 6457TIP3   OH240929   4.351   1.153   1.524 -0.1398 -0.0367  0.3551
 6457TIP3    H140930   4.354   1.068   1.569  0.9213  0.1035  0.5582
 6457TIP3    H240931   4.260   1.182   1.536 -0.4898 -1.0730  0.3981
 6458TIP3   OH240932   1.354   5.833   7.796 -0.1661  0.0296  0.1890
 6458TIP3    H140933   1.390   5.815   7.883 -0.3271 -3.0524 -0.2936
 6458TIP3    H240934   1.423   5.882   7.751  2.2212 -2.9054  0.3749
 6459TIP3   OH240935   6.765   3.333   8.004  0.1138  0.6057 -0.1285
 6459TIP3    H140936   6.824   3.322   8.079  0.3657  0.8330 -0.2942
 6459TIP3    H240937   6.723   3.247   7.995 -0.5304  0.8109  0.7854
 6460TIP3   OH240938   0.335   2.187   2.288 -0.1077 -0.1273  0.2460
 6460TIP3    H140939   0.376   2.127   2.225  1.6376  1.2788 -0.0515
 6460TIP3    H240940   0.365   2.155   2.373 -0.5883 -0.6695  0.2181
 6461TIP3   OH240941   4.884   1.747   2.951  0.3911 -0.1066 -0.4066
 6461TIP3    H140942   4.929   1.831   2.942  0.2101  0.3656  2.1656
 6461TIP3    H240943   4.953   1.681   2.945  0.6689  0.2697 -1.5129
 6462TIP3   OH240944   1.585   3.649   0.036  0.4217 -0.5226 -0.0232
 6462TIP3    H140945   1.677   3.628   0.021  0.6594 -2.7212  3.4124
 6462TIP3    H240946   1.548   3.568   0.072 -2.8476  0.3758 -0.9966
 6463TIP3   OH240947   3.216   5.742   8.636 -0.2915 -0.3998 -0.2472
 6463TIP3    H140948   3.219   5.647   8.624 -1.6916 -0.6715  1.1619
 6463TIP3    H240949   3.123   5.762   8.641 -0.0403  0.5427  2.6541
 6464TIP3   OH240950   5.468   6.021   7.712 -0.3726  0.1138 -0.5542
 6464TIP3    H140951   5.412   6.054   7.642 -0.5038  0.8074 -0.1247
 6464TIP3    H240952   5.557   6.047   7.686 -0.2401 -0.9107 -1.1914
 6465TIP3   OH240953   4.588   3.228   8.221 -0.0340 -0.5738 -0.2701
 6465TIP3    H140954   4.607   3.136   8.198  0.4900 -0.5363 -0.0065
 6465TIP3    H240955   4.498   3.227   8.251  0.2496 -1.1729  0.6003
 6466TIP3   OH240956   4.120   6.703   8.699  0.0024  0.1355  0.3527
 6466TIP3    H140957   4.205   6.746   8.690 -0.1408  0.7860  1.8866
 6466TIP3    H240958   4.056   6.773   8.689 -0.2860 -0.0049  1.1568
 6467TIP3   OH240959   2.461   4.507   1.058 -0.3891 -0.1763  0.5523
 6467TIP3    H140960   2.420   4.582   1.100  1.6404  1.7588 -0.7173
 6467TIP3    H240961   2.393   4.439   1.059 -1.7362  1.0692  3.2436
 6468TIP3   OH240962   2.461   3.408   8.251  0.1624 -0.4696 -0.4732
 6468TIP3    H140963   2.552   3.416   8.279  0.3084 -2.5955 -0.1497
 6468TIP3    H240964   2.420   3.490   8.278  1.4199 -0.4506  1.5984
 6469TIP3   OH240965   3.396   2.031   7.319  0.2061 -0.1330  0.2144
 6469TIP3    H140966   3.327   1.965   7.310  0.7526 -0.5705 -0.9142
 6469TIP3    H240967   3.474   1.990   7.282  0.7015  0.9361  0.0218
 6470TIP3   OH240968   0.307   1.401   0.262 -0.4712  0.0498  0.5145
 6470TIP3    H140969   0.289   1.481   0.311  0.0478  0.0903  0.6498
 6470TIP3    H240970   0.393   1.416   0.223 -1.2983  0.4142 -1.2503
 6471TIP3   OH240971   0.810   0.608   8.653 -0.0768 -0.0457 -0.3739
 6471TIP3    H140972   0.716   0.620   8.667  0.0026  2.2999 -1.3323
 6471TIP3    H240973   0.817   0.523   8.610 -1.6162 -0.8077  0.7530
 6472TIP3   OH240974   0.530   4.514   0.597 -0.3382  0.5632  0.2274
 6472TIP3    H140975   0.477   4.474   0.528 -0.3558  0.4286  0.3170
 6472TIP3    H240976   0.487   4.486   0.678  0.3735 -0.2797  0.3309
 6473TIP3   OH240977   2.058   0.669   8.601  0.2378 -0.5000 -1.4161
 6473TIP3    H140978   2.026   0.582   8.577  1.5025 -1.5728  0.5177
 6473TIP3    H240979   2.153   0.661   8.598  0.4165  0.1371  0.8455
 6474TIP3   OH240980   5.827   6.145   0.435 -0.1439  0.1313 -0.1493
 6474TIP3    H140981   5.858   6.107   0.353  1.3399 -0.1814  0.5236
 6474TIP3    H240982   5.734   6.119   0.440  0.5194 -2.5936 -0.2317
 6475TIP3   OH240983   2.289   3.338   0.411 -0.0205  0.8027  0.3734
 6475TIP3    H140984   2.227   3.359   0.342 -0.3081  0.1825  0.4347
 6475TIP3    H240985   2.308   3.245   0.399 -0.3431  0.5926  1.3353
 6476TIP3   OH240986   0.222   6.244   1.740 -0.2471  0.2332 -0.1145
 6476TIP3    H140987   0.231   6.292   1.823  0.0099  0.7907 -0.4631
 6476TIP3    H240988   0.312   6.227   1.712 -0.3332 -0.4026 -0.0338
 6477TIP3   OH240989   6.098   5.186   1.374  0.2579  0.2363 -0.1773
 6477TIP3    H140990   6.191   5.171   1.391  0.1548  0.8651  1.0454
 6477TIP3    H240991   6.054   5.117   1.423 -0.0031  1.4282  1.3297
 6478TIP3   OH240992   3.752   3.694   1.697  0.1863  0.2144  0.3131
 6478TIP3    H140993   3.724   3.604   1.681 -0.3530  0.3105  0.6772
 6478TIP3    H240994   3.812   3.714   1.625  0.2083 -0.3888  0.1573
 6479TIP3   OH240995   6.226   2.844   2.360 -0.3581 -0.1300  0.2893
 6479TIP3    H140996   6.267   2.899   2.427 -0.2287 -0.5175  0.5304
 6479TIP3    H240997   6.279   2.765   2.359 -2.0238 -1.3370  1.7536
 6480TIP3   OH240998   2.011   6.044   7.906 -0.3990 -0.3600  0.0608
 6480TIP3    H140999   2.025   6.138   7.912 -1.0703 -0.2648  0.1992
 6480TIP3    H241000   1.996   6.016   7.996 -0.4155 -0.5601 -0.0041
 6481TIP3   OH241001   4.279   2.418   1.660 -0.1213  0.2641 -0.3527
 6481TIP3    H141002   4.252   2.386   1.746  1.2407  1.1223  0.4229
 6481TIP3    H241003   4.282   2.340   1.605 -2.2568 -0.1229 -0.0034
 6482TIP3   OH241004   0.342   0.805   8.358  0.1285  0.4393 -0.3608
 6482TIP3    H141005   0.278   0.842   8.299  0.1071  2.2537  0.7288
 6482TIP3    H241006   0.413   0.870   8.361  1.5580 -1.0231 -0.7197
 6483TIP3   OH241007   2.056   0.323   8.655 -0.5186  0.1773 -0.4311
 6483TIP3    H141008   2.123   0.351   8.716 -1.4510  0.3811  0.5136
 6483TIP3    H241009   2.038   0.232   8.679 -1.7642  0.6231  0.4443
 6484TIP3   OH241010   5.998   3.942   8.662  0.4825 -0.2719 -0.4577
 6484TIP3    H141011   6.078   3.890   8.676  0.5759  0.0488  0.2616
 6484TIP3    H241012   6.008   3.978   8.574  2.8284  2.6144  0.8194
 6485TIP3   OH241013   0.637   1.461   2.297 -0.0802 -0.9932  0.4398
 6485TIP3    H141014   0.561   1.408   2.276 -1.0365 -0.1813  1.7280
 6485TIP3    H241015   0.629   1.539   2.241 -1.4104  0.1063  2.0628
 6486TIP3   OH241016   2.549   5.608   1.102 -0.0480  0.2294  0.2344
 6486TIP3    H141017   2.599   5.527   1.115  0.2198  0.2467 -0.6386
 6486TIP3    H241018   2.490   5.611   1.178 -0.6553 -1.2340 -0.1311
 6487TIP3   OH241019   6.714   2.302   7.628 -0.1758 -0.1849  0.5346
 6487TIP3    H141020   6.632   2.339   7.662 -0.7253 -0.5728 -0.3382
 6487TIP3    H241021   6.740   2.237   7.694 -1.3162 -1.0491  0.1668
 6488TIP3   OH241022   1.673   0.226   8.120 -0.3599  0.0247 -0.0730
 6488TIP3    H141023   1.644   0.169   8.192 -1.6196  0.7795  0.0546
 6488TIP3    H241024   1.764   0.201   8.104 -0.0701 -0.1981  1.7472
 6489TIP3   OH241025   3.423   2.563   0.214  0.1228 -0.0552 -0.5459
 6489TIP3    H141026   3.330   2.574   0.235  0.0103  0.6661 -1.3457
 6489TIP3    H241027   3.459   2.652   0.221  0.6779 -0.2715 -0.6021
 6490TIP3   OH241028   1.060   0.874   0.636 -0.0299  0.2106  0.0854
 6490TIP3    H141029   1.054   0.889   0.730 -1.4280 -0.0358  0.0575
 6490TIP3    H241030   1.041   0.960   0.597 -2.0750 -0.2187  0.0197
 6491TIP3   OH241031   0.856   3.818   8.198 -0.0670  0.4140  0.4288
 6491TIP3    H141032   0.889   3.894   8.246 -0.8143 -0.6133  2.7130
 6491TIP3    H241033   0.882   3.742   8.251 -1.8180 -0.7334 -0.2305
 6492TIP3   OH241034   3.170   5.858   1.913 -0.6926 -0.1076  0.1100
 6492TIP3    H141035   3.250   5.805   1.916 -0.3914  0.3329  2.4997
 6492TIP3    H241036   3.163   5.886   1.822  1.4057 -0.8759 -0.3555
 6493TIP3   OH241037   2.546   1.303   0.088 -0.6087  0.6063 -0.3324
 6493TIP3    H141038   2.485   1.331   0.020 -2.0634  0.7307  0.9606
 6493TIP3    H241039   2.494   1.246   0.145  0.7099  0.0662  0.3839
 6494TIP3   OH241040   2.926   6.590   1.893 -0.2153 -0.0046 -0.1592
 6494TIP3    H141041   2.964   6.535   1.961  1.7025 -0.8200 -1.7684
 6494TIP3    H241042   2.842   6.618   1.928  0.6463 -0.4544  2.4713
 6495TIP3   OH241043   1.804   3.030   1.974  0.2530 -0.2836 -0.4621
 6495TIP3    H141044   1.812   2.964   1.906  3.6068  0.0028 -0.5165
 6495TIP3    H241045   1.809   3.114   1.927 -2.3551  0.0847 -0.2401
 6496TIP3   OH241046   3.217   4.668   0.917 -0.0154 -0.5171 -0.0632
 6496TIP3    H141047   3.227   4.711   0.832 -0.5314 -0.7010 -0.2204
 6496TIP3    H241048   3.293   4.610   0.924  0.0849 -0.4195 -0.3482
 6497TIP3   OH241049   6.105   2.286   1.016 -0.1627 -0.5737 -0.1877
 6497TIP3    H141050   6.040   2.355   1.011 -0.7284 -0.9327  1.7510
 6497TIP3    H241051   6.068   2.215   0.963  0.2500  0.3907 -1.8705
 6498TIP3   OH241052   0.204   2.010   6.578  0.3595 -0.1903 -0.0095
 6498TIP3    H141053   0.300   2.013   6.584  0.4158  0.3028 -0.9722
 6498TIP3    H241054   0.178   1.948   6.646  1.2414  0.9367  1.4361
 6499TIP3   OH241055   6.002   3.471   1.750  0.4874 -0.2986  0.2824
 6499TIP3    H141056   6.066   3.512   1.808  1.2164  0.1162 -0.7945
 6499TIP3    H241057   5.927   3.531   1.751  0.7828  0.0702  0.2179
 6500TIP3   OH241058   1.743   5.549   7.341 -0.5612  0.4447  0.1091
 6500TIP3    H141059   1.746   5.464   7.298 -1.4713  0.0662  0.7577
 6500TIP3    H241060   1.802   5.540   7.416  0.2936  0.7956 -0.5128
 6501TIP3   OH241061   0.814   2.760   7.451  0.0816 -0.0141 -0.4080
 6501TIP3    H141062   0.743   2.758   7.515  1.5841  2.0183  1.5070
 6501TIP3    H241063   0.832   2.668   7.432 -2.5144 -0.5978 -0.3927
 6502TIP3   OH241064   3.481   5.951   2.318  0.1849  0.0636  0.1067
 6502TIP3    H141065   3.454   6.008   2.390 -0.8034  0.4108 -0.5173
 6502TIP3    H241066   3.404   5.898   2.298  1.2402 -1.9196  1.0280
 6503TIP3   OH241067   1.819   4.059   8.287  0.3335 -0.7135  0.0683
 6503TIP3    H141068   1.895   4.092   8.238 -0.8660  1.6645 -0.2966
 6503TIP3    H241069   1.849   3.975   8.322  2.9068 -0.1735 -0.6070
 6504TIP3   OH241070   2.901   4.746   8.548  0.6722 -0.1050 -0.7919
 6504TIP3    H141071   2.815   4.758   8.507  0.7299  0.1412 -0.8471
 6504TIP3    H241072   2.884   4.756   8.642  0.4684 -1.0995 -0.7172
 6505TIP3   OH241073   0.076   6.421   0.135  0.0522 -0.4143 -0.3891
 6505TIP3    H141074   0.107   6.390   0.051 -0.1443 -0.3901 -0.4717
 6505TIP3    H241075   0.005   6.482   0.114  1.3296  1.1764 -0.2989
 6506TIP3   OH241076   3.086   6.128   7.386  0.1010  0.1108 -0.2622
 6506TIP3    H141077   3.066   6.115   7.293 -0.6241  0.5076 -0.1619
 6506TIP3    H241078   3.093   6.223   7.395  2.8815  0.0128 -0.4667
 6507TIP3   OH241079   3.621   2.708   2.486 -0.3396 -0.1597 -0.2026
 6507TIP3    H141080   3.699   2.653   2.481 -1.2182 -1.4527 -0.4015
 6507TIP3    H241081   3.592   2.700   2.577  0.0969  0.8059  0.0227
 6508TIP3   OH241082   0.061   3.107   2.221  0.9103 -0.0316 -0.9076
 6508TIP3    H141083   0.071   3.058   2.302  0.8953 -0.5141 -1.1886
 6508TIP3    H241084   0.056   3.039   2.153 -4.0416 -0.0506 -0.9289
 6509TIP3   OH241085   6.385   6.247   0.512  0.4314 -0.0586  0.1635
 6509TIP3    H141086   6.353   6.224   0.425  2.9639  1.2438 -1.2033
 6509TIP3    H241087   6.477   6.269   0.499  0.7668  0.6453  3.1078
 6510TIP3   OH241088   5.471   1.158   0.095  0.0258 -0.4783  0.0808
 6510TIP3    H141089   5.555   1.120   0.068  1.4460  1.4853  1.4330
 6510TIP3    H241090   5.470   1.149   0.190  0.4226  2.6187  0.4736
 6511TIP3   OH241091   2.232   3.635   1.866 -0.1213 -0.3838 -0.2198
 6511TIP3    H141092   2.141   3.620   1.842 -0.3212 -0.7375  0.7215
 6511TIP3    H241093   2.263   3.551   1.900 -0.3953  0.4644  2.3876
 6512TIP3   OH241094   6.462   0.494   7.645 -0.1564 -0.0752 -0.4502
 6512TIP3    H141095   6.452   0.446   7.563  0.6466  0.7055 -1.0309
 6512TIP3    H241096   6.403   0.569   7.638 -1.0411 -0.6945  0.2419
 6513TIP3   OH241097   1.739   3.068   1.231 -0.0388  0.6601 -0.0397
 6513TIP3    H141098   1.767   3.019   1.154  1.0368  0.9693  0.1289
 6513TIP3    H241099   1.708   3.152   1.197 -2.3805 -0.2653 -0.3791
 6514TIP3   OH241100   1.757   2.209   0.988 -0.3108 -1.3209 -0.6626
 6514TIP3    H141101   1.783   2.128   1.031 -1.7888 -2.0068 -1.0041
 6514TIP3    H241102   1.671   2.229   1.025  0.1174  0.2269 -0.4220
 6515TIP3   OH241103   2.621   3.870   0.417 -0.0978 -0.4709  0.3836
 6515TIP3    H141104   2.569   3.801   0.376  0.4810 -0.5156 -0.3045
 6515TIP3    H241105   2.559   3.921   0.468 -0.8366 -0.4593 -0.5093
 6516TIP3   OH241106   5.718   4.678   8.841  0.2439  0.0814 -0.4499
 6516TIP3    H141107   5.722   4.688   8.746  3.8393 -1.6900 -0.6404
 6516TIP3    H241108   5.767   4.752   8.876 -0.5332  0.3865  0.0329
 6517TIP3   OH241109   6.683   3.553   8.744 -0.2076  0.0042 -0.6878
 6517TIP3    H141110   6.708   3.554   8.836  0.4551 -0.2118 -0.8622
 6517TIP3    H241111   6.594   3.590   8.743 -0.6536 -0.9896  0.1686
 6518TIP3   OH241112   0.594   2.248   2.177  0.2924 -0.0567  1.1303
 6518TIP3    H141113   0.569   2.326   2.128 -1.4950 -0.5683  1.1496
 6518TIP3    H241114   0.548   2.176   2.133  2.8628 -1.3289  0.3530
 6519TIP3   OH241115   1.289   1.792   7.222 -0.1088  0.2570  0.1460
 6519TIP3    H141116   1.321   1.882   7.220  0.8257 -0.0735 -0.2738
 6519TIP3    H241117   1.269   1.771   7.131 -0.5323  0.1103  0.2703
 6520TIP3   OH241118   0.257   3.446   1.973 -0.2581 -0.0080  0.4288
 6520TIP3    H141119   0.253   3.369   2.030  1.0134  0.0042  0.5646
 6520TIP3    H241120   0.284   3.517   2.031 -0.5920  0.3626  0.1355
 6521TIP3   OH241121   0.482   2.727   1.694  0.3413 -0.5010  0.1871
 6521TIP3    H141122   0.506   2.654   1.636 -0.7950  0.6987 -1.8998
 6521TIP3    H241123   0.565   2.772   1.711  0.8962 -1.6381  0.6463
 6522TIP3   OH241124   5.940   2.782   7.922  0.6984 -0.0942 -0.0231
 6522TIP3    H141125   5.998   2.844   7.967  0.0207  1.5092 -1.2652
 6522TIP3    H241126   5.857   2.828   7.914 -0.5228 -1.9931  0.8899
 6523TIP3   OH241127   1.300   6.636   1.005 -0.0551 -0.1534 -0.1927
 6523TIP3    H141128   1.362   6.703   1.035  0.3123 -1.2973  1.7595
 6523TIP3    H241129   1.238   6.684   0.950  0.3006  1.7500  0.9919
 6524TIP3   OH241130   4.846   1.011   2.087 -0.3748 -0.1787 -0.3538
 6524TIP3    H141131   4.813   0.952   2.019  2.2916 -1.5499 -0.5944
 6524TIP3    H241132   4.903   0.956   2.140  0.7229  1.7726  0.5851
 6525TIP3   OH241133   0.264   3.970   0.719  0.1312  0.1098  0.0522
 6525TIP3    H141134   0.197   3.978   0.651 -0.4282  1.7792  0.7512
 6525TIP3    H241135   0.230   3.903   0.778  0.6026 -1.3262 -1.2321
 6526TIP3   OH241136   0.246   5.102   8.661 -0.0093  0.1263 -0.2386
 6526TIP3    H141137   0.275   5.100   8.753  0.6643 -1.6150 -0.4424
 6526TIP3    H241138   0.306   5.043   8.616 -1.5580 -0.6374 -1.4090
 6527TIP3   OH241139   4.853   4.304   1.017  0.3053 -0.1415 -1.1182
 6527TIP3    H141140   4.935   4.354   1.011 -1.0551  2.1736 -1.9419
 6527TIP3    H241141   4.809   4.340   1.094 -1.0232  0.4921 -2.1373
 6528TIP3   OH241142   6.363   6.683   8.455 -0.9282  0.1833  0.1285
 6528TIP3    H141143   6.384   6.775   8.440  2.3466 -0.3157  0.8126
 6528TIP3    H241144   6.360   6.644   8.367  0.5013  0.4892 -0.0894
 6529TIP3   OH241145   6.345   1.884   8.679  0.2536 -0.1128 -0.0929
 6529TIP3    H141146   6.395   1.912   8.603 -0.7897 -2.6048 -1.8044
 6529TIP3    H241147   6.385   1.802   8.706 -0.3260 -0.0242  1.1406
 6530TIP3   OH241148   0.626   4.931   7.045 -0.2782  0.3019  0.3216
 6530TIP3    H141149   0.642   4.924   6.951 -0.3739 -0.6122  0.3703
 6530TIP3    H241150   0.530   4.930   7.053 -0.3375  2.0157  0.3223
 6531TIP3   OH241151   0.756   4.640   2.105  0.6542 -0.2920  0.8714
 6531TIP3    H141152   0.775   4.609   2.016 -2.2413 -0.7938  0.3151
 6531TIP3    H241153   0.736   4.561   2.154 -2.6007  0.1850  0.5639
 6532TIP3   OH241154   2.451   5.037   7.510 -0.9877  0.1782 -0.4850
 6532TIP3    H141155   2.487   5.074   7.429  0.7013  1.3065  0.7330
 6532TIP3    H241156   2.356   5.039   7.496 -0.8725  2.6583 -1.5081
 6533TIP3   OH241157   5.303   0.092   0.018 -0.2216  0.2552 -0.0724
 6533TIP3    H141158   5.257   0.163  -0.028 -1.6303 -0.5897 -0.0222
 6533TIP3    H241159   5.339   0.134   0.095 -1.2874  0.8911  0.1107
 6534TIP3   OH241160   0.315   6.515   1.584  0.3720 -0.8138  0.0831
 6534TIP3    H141161   0.320   6.601   1.627 -1.4059  0.4802 -2.1032
 6534TIP3    H241162   0.265   6.461   1.645 -0.1817  0.3101  0.6693
 6535TIP3   OH241163   2.141   1.785   1.418 -0.5658  0.6647 -0.0153
 6535TIP3    H141164   2.126   1.691   1.426  0.3477  0.5040 -0.0621
 6535TIP3    H241165   2.212   1.804   1.479 -0.9995  1.3960  0.2712
 6536TIP3   OH241166   0.271   0.204   8.480  0.3261  0.1980  0.1827
 6536TIP3    H141167   0.183   0.236   8.459  1.1741  2.4788 -0.2311
 6536TIP3    H241168   0.306   0.175   8.395  0.9765  2.0969 -0.2511
 6537TIP3   OH241169   4.154   2.656   8.307  0.9240 -0.3491 -0.1891
 6537TIP3    H141170   4.154   2.749   8.282 -0.9684  0.0620  1.1284
 6537TIP3    H241171   4.110   2.612   8.234  0.2661  0.0432 -0.0301
 6538TIP3   OH241172   1.302   3.395   2.193 -0.6960 -0.1011  0.5272
 6538TIP3    H141173   1.321   3.421   2.283  0.4758 -0.5662  0.4232
 6538TIP3    H241174   1.377   3.424   2.142 -0.3703 -1.6630  0.0465
 6539TIP3   OH241175   6.523   6.369   7.318  0.5082 -0.0471  0.5951
 6539TIP3    H141176   6.510   6.310   7.243 -2.5606  1.4831 -0.2683
 6539TIP3    H241177   6.571   6.443   7.282  0.2264  0.0753  0.4646
 6540TIP3   OH241178   1.859   6.098   7.628  0.5600 -0.2208  0.1428
 6540TIP3    H141179   1.920   6.027   7.609 -0.6605 -1.1695 -0.3905
 6540TIP3    H241180   1.862   6.154   7.551  0.4124 -0.5079 -0.0689
 6541TIP3   OH241181   5.390   4.748   1.640  0.2226  0.0790  1.1509
 6541TIP3    H141182   5.381   4.670   1.585 -0.6301  1.0023 -0.0832
 6541TIP3    H241183   5.449   4.805   1.591 -1.1356  1.2278  0.8062
 6542TIP3   OH241184   1.831   6.718   7.153 -0.0107  0.2371  0.2127
 6542TIP3    H141185   1.761   6.696   7.092 -0.3206  1.4025  0.1253
 6542TIP3    H241186   1.785   6.747   7.232  0.3861 -1.0505  0.9560
 6543TIP3   OH241187   1.452   3.402   7.240  0.2464 -0.1315  0.3110
 6543TIP3    H141188   1.409   3.403   7.326 -1.3216  0.4445 -0.4425
 6543TIP3    H241189   1.447   3.492   7.209  1.0622 -0.2727 -0.2668
 6544TIP3   OH241190   4.744   4.049   0.123 -0.6953 -0.1659  0.3804
 6544TIP3    H141191   4.794   4.115   0.075 -1.0758  1.9452  2.6246
 6544TIP3    H241192   4.809   3.983   0.148 -0.0324 -0.0036 -0.8651
 6545TIP3   OH241193   5.698   1.988   1.120 -0.2940  0.2583  0.3300
 6545TIP3    H141194   5.673   1.921   1.184  0.8627 -1.4179 -0.8672
 6545TIP3    H241195   5.787   2.013   1.146 -0.0391 -0.0100 -0.2727
 6546TIP3   OH241196   1.804   1.351   8.570 -1.1305  0.3863  0.1021
 6546TIP3    H141197   1.885   1.372   8.525 -0.7883 -0.6102  0.2165
 6546TIP3    H241198   1.824   1.270   8.618 -1.4503  1.4096  2.0786
 6547TIP3   OH241199   2.267   1.163   7.105  0.2970 -0.1184  0.1696
 6547TIP3    H141200   2.232   1.249   7.084  1.6483  0.3221 -0.3614
 6547TIP3    H241201   2.298   1.128   7.021 -0.4274 -1.2292  0.3358
 6548TIP3   OH241202   1.991   3.658   6.826  0.1670  0.3310  0.1308
 6548TIP3    H141203   1.998   3.576   6.776 -0.8749  0.7558 -0.7609
 6548TIP3    H241204   1.968   3.724   6.760  0.7855  1.3082  0.8704
 6549TIP3   OH241205   5.095   3.132   0.838 -0.4147 -0.3155  0.2770
 6549TIP3    H141206   5.094   3.132   0.743 -0.0680 -1.1487  0.2640
 6549TIP3    H241207   5.111   3.223   0.862 -0.5356 -0.0951 -0.4572
 6550TIP3   OH241208   1.987   2.684   0.303 -0.0255  0.0248 -0.3897
 6550TIP3    H141209   1.918   2.620   0.320 -0.2738  0.1690 -0.8395
 6550TIP3    H241210   1.940   2.761   0.270  0.2211  0.5962  0.5253
 6551TIP3   OH241211   5.908   5.987   1.704  0.1981 -0.5258 -0.7220
 6551TIP3    H141212   5.893   5.909   1.757 -0.0063 -1.1614 -1.6826
 6551TIP3    H241213   5.973   5.959   1.639  0.2145  0.1419 -0.9998
 6552TIP3   OH241214   2.379   3.651   8.417 -0.0044  0.2109  0.3559
 6552TIP3    H141215   2.422   3.737   8.414  2.3013 -0.8641  0.0176
 6552TIP3    H241216   2.394   3.621   8.507  1.4905 -0.8535 -0.2059
 6553TIP3   OH241217   6.748   4.222   8.917 -0.2884 -0.1436 -0.1851
 6553TIP3    H141218   6.675   4.188   8.865 -0.3197 -1.9227  0.9484
 6553TIP3    H241219   6.734   4.188   9.005  2.2042 -1.0821 -0.0526
 6554TIP3   OH241220   6.006   5.879   1.470 -0.2684  0.2766  0.4278
 6554TIP3    H141221   6.013   5.788   1.440 -0.0276 -0.1585  1.7095
 6554TIP3    H241222   6.097   5.909   1.476 -0.3555  0.6803 -0.1885
 6555TIP3   OH241223   1.275   6.334   1.059  1.1461  0.0754 -0.1099
 6555TIP3    H141224   1.298   6.427   1.055  2.5701 -0.2360  0.3476
 6555TIP3    H241225   1.263   6.316   1.152  0.7099 -0.1676 -0.2094
 6556TIP3   OH241226   2.059   5.801   0.821  0.3318  0.4416 -0.4782
 6556TIP3    H141227   2.008   5.882   0.825  1.1178  0.9589 -0.6768
 6556TIP3    H241228   2.081   5.781   0.912 -2.0679 -1.0091 -0.1508
 6557TIP3   OH241229   6.543   4.444   7.049  0.1462  0.2674 -0.1729
 6557TIP3    H141230   6.632   4.426   7.080 -0.1276 -1.4599 -0.3399
 6557TIP3    H241231   6.551   4.449   6.954  0.2921  1.5828 -0.1113
 6558TIP3   OH241232   4.962   0.589   7.665 -0.2083 -0.5738  0.2830
 6558TIP3    H141233   4.936   0.557   7.751  1.1664 -1.1406  0.5156
 6558TIP3    H241234   4.985   0.681   7.680 -4.5200  0.8719 -0.4580
 6559TIP3   OH241235   6.646   0.847   1.134  0.1533 -0.4386  0.4685
 6559TIP3    H141236   6.644   0.838   1.229  1.7080  1.2380  0.7224
 6559TIP3    H241237   6.554   0.854   1.108 -0.2595  1.9788  2.2205
 6560TIP3   OH241238   1.730   3.833   0.460  0.3212 -0.1955 -0.6190
 6560TIP3    H141239   1.642   3.856   0.433  0.2976  1.2512  0.5252
 6560TIP3    H241240   1.734   3.738   0.453 -1.0743 -0.2151 -1.4021
 6561TIP3   OH241241   3.798   4.686   8.626  0.0064 -0.1518  0.0828
 6561TIP3    H141242   3.888   4.706   8.650 -0.4576 -0.1333  1.9614
 6561TIP3    H241243   3.751   4.768   8.636 -0.1000  0.0570 -1.7467
 6562TIP3   OH241244   4.031   0.809   2.040 -0.3202 -0.3451 -0.5117
 6562TIP3    H141245   4.070   0.723   2.023  1.9956  0.4101  0.5939
 6562TIP3    H241246   4.007   0.807   2.133  0.0368  0.3120 -0.4030
 6563TIP3   OH241247   0.319   1.882   8.514  0.0501  0.3156  0.4149
 6563TIP3    H141248   0.370   1.945   8.464  1.4018  0.0422  1.3836
 6563TIP3    H241249   0.334   1.798   8.470 -1.4583  0.5695 -0.6594
 6564TIP3   OH241250   3.591   5.877   1.296  0.2918 -0.0682  0.0322
 6564TIP3    H141251   3.535   5.844   1.367  0.5830 -0.2178  0.1962
 6564TIP3    H241252   3.643   5.801   1.269  0.2013 -0.0056 -0.3252
 6565TIP3   OH241253   5.800   2.129   0.440  0.1646  0.3504  0.8234
 6565TIP3    H141254   5.758   2.044   0.451 -1.5395  0.5515 -2.6228
 6565TIP3    H241255   5.893   2.109   0.433 -0.2580 -1.3823 -0.5922
 6566TIP3   OH241256   2.274   5.475   0.647 -0.1443 -0.0186 -0.1057
 6566TIP3    H141257   2.210   5.494   0.715 -0.5246 -0.5372 -0.3142
 6566TIP3    H241258   2.288   5.559   0.602 -0.4780  0.1508  0.1091
 6567TIP3   OH241259   4.819   6.151   7.811 -0.2846  0.6642  0.2970
 6567TIP3    H141260   4.857   6.203   7.740 -0.1996 -0.3140 -0.3918
 6567TIP3    H241261   4.793   6.069   7.770 -1.2345  0.4976  1.1888
 6568TIP3   OH241262   4.677   2.956   8.152 -0.0385  0.1751  0.3758
 6568TIP3    H141263   4.646   2.885   8.209 -1.0068 -1.4996 -2.0653
 6568TIP3    H241264   4.756   2.921   8.111 -0.1219  0.8127 -0.3385
 6569TIP3   OH241265   1.280   5.624   1.480  0.7481 -0.9150 -0.1118
 6569TIP3    H141266   1.362   5.577   1.466  0.0015 -2.6440  0.9997
 6569TIP3    H241267   1.285   5.655   1.571  0.3137 -0.7320 -0.1492
 6570TIP3   OH241268   0.017   4.718   7.580 -0.4827  0.6746 -0.1900
 6570TIP3    H141269  -0.000   4.713   7.674 -0.4242 -1.0091 -0.2458
 6570TIP3    H241270   0.088   4.782   7.572  0.8547 -0.5817  1.1249
 6571TIP3   OH241271   2.607   1.374   8.157  0.2104  0.5915  0.0419
 6571TIP3    H141272   2.633   1.418   8.238 -1.4111  0.7341  0.5341
 6571TIP3    H241273   2.573   1.289   8.186 -0.4405  0.6701 -0.4664
 6572TIP3   OH241274   4.590   4.503   7.580 -0.2761  0.3413 -0.6869
 6572TIP3    H141275   4.555   4.415   7.568 -1.9502 -0.0696  4.6548
 6572TIP3    H241276   4.518   4.561   7.555 -1.7919 -0.2036  2.0801
 6573TIP3   OH241277   0.342   0.966   8.872  0.5952  0.9147  0.4744
 6573TIP3    H141278   0.290   0.927   8.801 -0.4268  2.9148  0.0417
 6573TIP3    H241279   0.405   1.023   8.826  0.1066  2.0156  1.1504
 6574TIP3   OH241280   4.823   1.598   0.721  0.8251  0.5306  0.6263
 6574TIP3    H141281   4.850   1.510   0.748  1.4104  0.1625 -1.0676
 6574TIP3    H241282   4.897   1.654   0.745  0.6715  0.4849  1.2235
 6575TIP3   OH241283   6.448   4.406   1.096 -0.4256  0.1942 -0.0660
 6575TIP3    H141284   6.502   4.474   1.056 -0.7932  1.5284  1.5737
 6575TIP3    H241285   6.413   4.356   1.022  2.6796 -0.4974 -1.2011
 6576TIP3   OH241286   2.604   1.032   8.900 -0.2785  0.5456 -0.6266
 6576TIP3    H141287   2.605   1.101   8.967 -1.6626  1.1030 -1.1487
 6576TIP3    H241288   2.682   1.049   8.847 -0.3777  1.4637 -0.4897
 6577TIP3   OH241289   6.567   4.201   2.486 -0.5384 -0.0825  0.2215
 6577TIP3    H141290   6.561   4.264   2.415 -0.1257  0.7544  0.9083
 6577TIP3    H241291   6.489   4.217   2.539 -2.3234 -2.5504 -1.4665
 6578TIP3   OH241292   6.556   4.600   7.524 -0.4795  0.4142 -0.1706
 6578TIP3    H141293   6.592   4.517   7.557 -2.0043  0.7956  2.8212
 6578TIP3    H241294   6.630   4.661   7.528  0.6044 -0.6787 -2.2165
 6579TIP3   OH241295   5.701   0.653   1.088 -0.0948 -0.5486 -0.0148
 6579TIP3    H141296   5.679   0.600   1.164 -0.6359 -0.8322 -0.3632
 6579TIP3    H241297   5.629   0.716   1.080  0.1774 -0.2305 -0.0351
 6580TIP3   OH241298   4.693   4.734   0.057  0.2054  0.5061  0.0893
 6580TIP3    H141299   4.668   4.685   0.136 -0.3818 -0.3195 -0.5909
 6580TIP3    H241300   4.752   4.675   0.011 -0.6346  0.3618 -0.8204
 6581TIP3   OH241301   6.539   3.413   0.777  0.5845  0.0396  0.5257
 6581TIP3    H141302   6.629   3.443   0.790  1.3731 -1.6378 -0.6500
 6581TIP3    H241303   6.493   3.488   0.741  2.0584  0.3445 -0.8050
 6582TIP3   OH241304   2.441   0.664   8.717 -0.2948  0.0316  0.0240
 6582TIP3    H141305   2.534   0.681   8.705  0.2734 -0.8342  2.5537
 6582TIP3    H241306   2.401   0.751   8.725  0.7820  0.4227  1.6896
 6583TIP3   OH241307   3.442   1.378   0.457  0.2438  0.3916  0.1399
 6583TIP3    H141308   3.454   1.438   0.384  1.2014  0.6188  0.4699
 6583TIP3    H241309   3.463   1.429   0.534 -1.5121  0.3779  0.6705
 6584TIP3   OH241310   6.635   5.540   7.311  0.0112 -0.4056 -0.5408
 6584TIP3    H141311   6.577   5.591   7.254  0.5522 -2.2488 -2.8770
 6584TIP3    H241312   6.585   5.461   7.331 -0.0963  0.1292  1.4711
 6585TIP3   OH241313   2.609   5.270   0.935 -0.5545  0.1380  0.3551
 6585TIP3    H141314   2.564   5.204   0.883  1.0069  1.0983 -2.4471
 6585TIP3    H241315   2.675   5.221   0.984 -0.6118 -0.5976 -0.2849
 6586TIP3   OH241316   4.652   3.778   7.256  0.1808  0.7359 -0.1997
 6586TIP3    H141317   4.736   3.818   7.234  0.4085  0.1206 -0.4751
 6586TIP3    H241318   4.598   3.791   7.177 -0.2755  1.8634  0.2723
 6587TIP3   OH241319   0.669   3.533   8.275 -0.8831  1.0002  0.2782
 6587TIP3    H141320   0.728   3.603   8.304 -0.9445  0.8253  0.8524
 6587TIP3    H241321   0.634   3.496   8.357  0.6966 -1.0429  0.1232
 6588TIP3   OH241322   0.256   4.329   6.843 -0.3768 -0.3826 -0.2987
 6588TIP3    H141323   0.206   4.361   6.768  0.1273  0.0092 -0.4777
 6588TIP3    H241324   0.232   4.237   6.852  0.3519 -0.7211 -1.6057
 6589TIP3   OH241325   3.483   4.529   0.950  0.3839  0.2534  0.2380
 6589TIP3    H141326   3.549   4.589   0.983  0.5140 -0.4676  1.3332
 6589TIP3    H241327   3.504   4.519   0.857  2.0083 -0.2062  0.6291
 6590TIP3   OH241328   1.638   4.753   8.777 -0.1140  0.4433 -0.4901
 6590TIP3    H141329   1.661   4.704   8.856  0.7667  3.1465  1.0635
 6590TIP3    H241330   1.722   4.780   8.741 -0.5724  1.3725 -0.8913
 6591TIP3   OH241331   0.394   1.099   1.560 -0.1571  0.2020  0.2640
 6591TIP3    H141332   0.319   1.059   1.605 -1.2488  0.7399 -1.0261
 6591TIP3    H241333   0.374   1.193   1.559 -1.6871  0.0160 -3.8525
 6592TIP3   OH241334   2.654   4.788   8.384 -0.2903  0.4999 -0.4975
 6592TIP3    H141335   2.667   4.828   8.297  0.2287  0.6663 -0.3511
 6592TIP3    H241336   2.575   4.735   8.375 -1.6550  2.4207 -0.4002
 6593TIP3   OH241337   6.609   3.704   8.135  0.6064 -0.3206 -0.3476
 6593TIP3    H141338   6.563   3.693   8.218 -0.0465  0.5993 -0.5615
 6593TIP3    H241339   6.702   3.695   8.156  0.4678  0.2851  0.5523
 6594TIP3   OH241340   0.719   5.448   2.219 -0.5417 -0.7745  0.0891
 6594TIP3    H141341   0.775   5.382   2.178 -0.7305 -0.4449 -0.7367
 6594TIP3    H241342   0.668   5.400   2.285  0.6232 -1.0951  0.7722
 6595TIP3   OH241343   1.330   0.565   1.902 -0.2055 -0.0574  0.1678
 6595TIP3    H141344   1.396   0.555   1.833 -0.0230  1.8491 -0.0092
 6595TIP3    H241345   1.307   0.476   1.927  2.0747 -0.7902 -0.1093
 6596TIP3   OH241346   3.202   2.749   1.108  0.0372 -0.0013  0.2030
 6596TIP3    H141347   3.141   2.810   1.067 -0.7573 -0.7175  0.2873
 6596TIP3    H241348   3.148   2.697   1.167  0.7765 -0.4829  0.4749
 6597TIP3   OH241349   5.800   4.620   2.724  0.1333  0.5729 -0.4198
 6597TIP3    H141350   5.805   4.568   2.644  0.5653  1.1763 -0.7910
 6597TIP3    H241351   5.762   4.703   2.697  0.0757  0.7035  0.0447
 6598TIP3   OH241352   1.865   4.966   0.029  0.2136  0.0521 -0.4247
 6598TIP3    H141353   1.773   4.958   0.055  0.0187  0.3183 -1.0325
 6598TIP3    H241354   1.867   5.037  -0.035  0.4923 -1.3566 -2.0656
 6599TIP3   OH241355   6.200   2.667   6.979  0.1019 -0.3282  0.2085
 6599TIP3    H141356   6.168   2.742   6.928 -1.2205 -1.6233 -0.9427
 6599TIP3    H241357   6.165   2.682   7.067 -2.6844 -1.0083 -0.6965
 6600TIP3   OH241358   1.713   1.502   1.640  0.6011 -1.2237 -0.2317
 6600TIP3    H141359   1.734   1.563   1.569 -0.4345 -0.3358  0.1937
 6600TIP3    H241360   1.681   1.423   1.595 -0.1042 -0.6483 -0.7730
 6601TIP3   OH241361   3.073   2.341   2.038 -0.3258 -0.7885 -0.5466
 6601TIP3    H141362   3.054   2.257   2.081 -2.5466  0.4511  1.0675
 6601TIP3    H241363   3.158   2.366   2.074  1.3774 -3.1743 -2.5563
 6602TIP3   OH241364   6.633   2.933   8.243 -0.9152  0.5563  0.0742
 6602TIP3    H141365   6.697   2.966   8.179 -1.7368  0.0981 -1.0084
 6602TIP3    H241366   6.671   2.851   8.274 -0.2148  1.0854  0.6664
 6603TIP3   OH241367   1.894   5.493   7.559  0.7514 -0.2623 -0.1040
 6603TIP3    H141368   1.884   5.484   7.654  0.5880  2.5524  0.2269
 6603TIP3    H241369   1.963   5.431   7.537  0.4570 -1.3370  1.7569
 6604TIP3   OH241370   1.702   6.084   1.087 -0.2803  0.5319 -0.1870
 6604TIP3    H141371   1.723   5.994   1.114 -1.2780  0.4232  0.2549
 6604TIP3    H241372   1.668   6.126   1.166 -3.0006  0.2891 -1.1289
 6605TIP3   OH241373   3.327   3.765   2.865  0.6427 -0.0065 -0.5472
 6605TIP3    H141374   3.291   3.677   2.879  2.2414 -1.0057 -2.3124
 6605TIP3    H241375   3.291   3.792   2.781  1.6797  0.1906 -0.9421
 6606TIP3   OH241376   1.407   3.428   0.153  0.1027  0.1203 -0.0743
 6606TIP3    H141377   1.388   3.342   0.115  1.5172 -0.5766  0.7027
 6606TIP3    H241378   1.322   3.463   0.177 -0.7011 -0.0753 -2.4411
 6607TIP3   OH241379   2.971   2.179   2.504 -0.1261  0.3738  0.2059
 6607TIP3    H141380   2.993   2.088   2.487  0.3046  0.3114  1.0194
 6607TIP3    H241381   2.910   2.176   2.578 -1.4050  0.6627 -0.8126
 6608TIP3   OH241382   1.916   2.354   7.268  0.0119  0.1928  0.2254
 6608TIP3    H141383   1.886   2.324   7.182 -2.1430  2.3094  0.1177
 6608TIP3    H241384   1.922   2.274   7.321 -0.0481 -0.9879 -1.4856
 6609TIP3   OH241385   2.014   4.307   0.993  0.2808 -0.0336 -0.0588
 6609TIP3    H141386   1.966   4.239   1.041 -0.8045  0.6170 -0.2043
 6609TIP3    H241387   2.031   4.268   0.907  3.4747 -1.7688  1.1672
 6610TIP3   OH241388   0.656   0.953   1.597 -0.6417 -0.1231  0.4787
 6610TIP3    H141389   0.571   0.992   1.577 -0.0686  1.8775  1.6941
 6610TIP3    H241390   0.641   0.902   1.677 -1.6098 -3.4292 -1.5982
 6611TIP3   OH241391   6.083   3.256   7.939 -0.2285  0.1090  0.1199
 6611TIP3    H141392   6.138   3.195   7.988 -1.7817 -0.5004  1.2142
 6611TIP3    H241393   6.045   3.203   7.869  0.0324  0.3396 -0.1940
 6612TIP3   OH241394   6.645   6.749   1.416  0.1143 -0.0596 -0.3315
 6612TIP3    H141395   6.609   6.791   1.338 -0.4932  0.0673  0.0138
 6612TIP3    H241396   6.568   6.716   1.463  0.4340  0.3577  0.5001
 6613TIP3   OH241397   6.039   6.082   7.746 -0.0292 -0.0941 -0.6149
 6613TIP3    H141398   6.085   6.007   7.782 -1.4685 -1.2034 -1.0117
 6613TIP3    H241399   5.946   6.064   7.762 -0.5029  0.8965 -2.0156
 6614TIP3   OH241400   4.516   3.326   2.922 -1.0591  0.2387  0.2290
 6614TIP3    H141401   4.563   3.396   2.969 -0.3502  1.3375 -1.9900
 6614TIP3    H241402   4.557   3.245   2.953 -1.1791  0.8198  2.0617
 6615TIP3   OH241403   5.413   4.487   1.564  0.0418  0.1760  0.3467
 6615TIP3    H141404   5.359   4.449   1.634 -0.0167 -0.1474  0.1271
 6615TIP3    H241405   5.436   4.413   1.509  0.5361  0.3497  0.3196
 6616TIP3   OH241406   3.224   3.925   7.859  0.1312  0.5158  0.4051
 6616TIP3    H141407   3.214   3.844   7.808  0.5884 -0.3197  1.5847
 6616TIP3    H241408   3.315   3.950   7.845  0.4298 -0.0410  1.2221
 6617TIP3   OH241409   3.552   4.131   8.904  0.4733  0.4470  0.7691
 6617TIP3    H141410   3.643   4.151   8.883  0.4253  0.7046  0.8012
 6617TIP3    H241411   3.539   4.169   8.991  0.0388  1.3506  0.3311
 6618TIP3   OH241412   1.051   1.449   1.183 -0.1946 -0.1016  0.4321
 6618TIP3    H141413   1.145   1.435   1.192 -0.3362 -1.1064  0.4776
 6618TIP3    H241414   1.012   1.387   1.245 -0.9257 -0.9925 -0.8683
 6619TIP3   OH241415   4.051   4.970   7.977  0.8347 -0.5556 -0.0372
 6619TIP3    H141416   4.088   5.051   7.943 -1.6033  1.4375  1.6304
 6619TIP3    H241417   4.003   4.932   7.904 -1.0619  1.5573  0.0100
 6620TIP3   OH241418   1.928   0.589   7.927  0.5672  0.7468  0.1651
 6620TIP3    H141419   1.877   0.564   8.004 -1.2954  3.3123 -0.0947
 6620TIP3    H241420   1.954   0.506   7.888 -1.6274 -0.6959  1.5284
 6621TIP3   OH241421   4.708   1.490   1.373  0.1919  0.5210 -0.4752
 6621TIP3    H141422   4.753   1.408   1.394 -1.1921 -0.0633  0.4002
 6621TIP3    H241423   4.620   1.478   1.409 -0.2166  2.1762 -0.8523
 6622TIP3   OH241424   0.485   3.404   7.640  0.0977  0.2092  0.3456
 6622TIP3    H141425   0.433   3.397   7.720 -2.1901  0.6586 -0.9967
 6622TIP3    H241426   0.529   3.489   7.648 -1.5649  1.1056  0.3668
 6623TIP3   OH241427   2.063   1.280   2.298  0.1846  0.4001  0.1048
 6623TIP3    H141428   2.133   1.282   2.232  1.8439  1.0453  1.8021
 6623TIP3    H241429   2.040   1.372   2.310 -2.2666  0.1022 -1.6882
 6624TIP3   OH241430   5.477   4.440   1.156  0.4682 -0.5027  0.5130
 6624TIP3    H141431   5.526   4.474   1.081  0.4560  1.4821  1.3335
 6624TIP3    H241432   5.424   4.369   1.120  1.3310 -0.3676 -1.1035
 6625TIP3   OH241433   5.849   5.990   8.004 -0.6032  0.2219 -0.0809
 6625TIP3    H141434   5.923   5.942   8.039 -2.3380 -2.0791  0.6740
 6625TIP3    H241435   5.791   6.002   8.079 -1.3470  1.3097 -0.7955
 6626TIP3   OH241436   1.753   3.908   2.621  0.6958  0.3047  0.2416
 6626TIP3    H141437   1.814   3.981   2.609 -0.7831  1.3718 -1.0282
 6626TIP3    H241438   1.680   3.946   2.669  1.4438 -1.2421  2.8254
 6627TIP3   OH241439   3.005   1.456   2.504  0.3010 -0.5702 -0.5794
 6627TIP3    H141440   2.998   1.547   2.476 -1.3297  0.0780  1.6154
 6627TIP3    H241441   2.953   1.407   2.441 -1.8460  0.5792  0.2090
 6628TIP3   OH241442   4.594   4.938   8.859 -0.3868 -0.0709  0.0705
 6628TIP3    H141443   4.637   4.871   8.911  0.3259  1.3818  1.4143
 6628TIP3    H241444   4.651   4.950   8.783  0.0601 -0.1820  0.3885
 6629TIP3   OH241445   0.065   6.444   0.944  0.3099 -0.1853 -0.3999
 6629TIP3    H141446  -0.003   6.498   0.903 -0.5734  1.1344  2.5857
 6629TIP3    H241447   0.103   6.395   0.871 -3.0640 -0.1704 -2.3918
 6630TIP3   OH241448   2.660   4.100   1.808  0.0217 -0.2879 -0.0115
 6630TIP3    H141449   2.596   4.094   1.738 -0.6222 -0.1241  0.5475
 6630TIP3    H241450   2.724   4.031   1.789  1.1494  1.2065 -2.0052
 6631TIP3   OH241451   0.331   5.027   1.706  0.2693 -0.2762  0.2942
 6631TIP3    H141452   0.255   5.025   1.763 -0.0635 -0.4391 -0.1472
 6631TIP3    H241453   0.361   4.936   1.700  0.6385 -0.1804  0.6492
 6632TIP3   OH241454   1.677   3.246   2.850  0.1140 -0.2384  0.0207
 6632TIP3    H141455   1.725   3.329   2.852  0.7285 -0.5572 -0.7655
 6632TIP3    H241456   1.694   3.211   2.763  0.7957 -1.7322  0.7205
 6633TIP3   OH241457   4.888   3.364   0.738 -0.1348  0.1756  0.6344
 6633TIP3    H141458   4.826   3.418   0.788 -1.4401 -0.6733 -0.0011
 6633TIP3    H241459   4.861   3.274   0.756 -0.5485 -0.1530 -1.4520
 6634TIP3   OH241460   0.192   0.993   2.554 -0.0717  0.0777  0.1399
 6634TIP3    H141461   0.155   0.936   2.622 -0.2286 -0.2367 -0.2035
 6634TIP3    H241462   0.122   1.000   2.489 -0.6454  1.9325  0.8920
 6635TIP3   OH241463   5.566   5.835   1.276 -0.1229 -0.4332 -0.6435
 6635TIP3    H141464   5.488   5.864   1.230 -0.0480  0.2698 -0.3417
 6635TIP3    H241465   5.614   5.916   1.295 -0.3604 -0.6427  1.0226
 6636TIP3   OH241466   0.854   0.033   2.152  0.4261  0.1279  0.1306
 6636TIP3    H141467   0.794   0.044   2.078 -0.6593  1.3181  1.1502
 6636TIP3    H241468   0.941   0.040   2.113 -0.1205  3.0633 -0.7697
 6637TIP3   OH241469   0.740   2.075   0.109 -0.1167 -0.0525  0.3678
 6637TIP3    H141470   0.820   2.104   0.154 -0.8953  1.3223  0.9346
 6637TIP3    H241471   0.748   2.111   0.021 -0.5565  0.9885  0.7318
 6638TIP3   OH241472   0.610   0.149   8.836 -0.3351  0.0816 -0.2030
 6638TIP3    H141473   0.553   0.083   8.875 -3.6185  2.4827 -0.4313
 6638TIP3    H241474   0.641   0.201   8.910 -2.0665  1.3111 -0.2640
 6639TIP3   OH241475   1.318   2.165   0.212 -0.4209  0.0175 -0.5014
 6639TIP3    H141476   1.295   2.079   0.246 -1.9881 -0.7054 -3.1136
 6639TIP3    H241477   1.279   2.226   0.275  0.1341 -1.1313  1.0215
 6640TIP3   OH241478   0.259   0.598   7.380 -0.1095  0.3004  0.5212
 6640TIP3    H141479   0.327   0.535   7.359  1.9838  2.9554 -1.3432
 6640TIP3    H241480   0.202   0.552   7.442  1.9873 -2.8683  0.3249
 6641TIP3   OH241481   4.071   1.644   0.837  0.0371 -0.3813  0.1040
 6641TIP3    H141482   4.044   1.564   0.881 -2.3533 -0.3719 -1.2234
 6641TIP3    H241483   4.146   1.618   0.783  0.8200 -1.1222  1.4734
 6642TIP3   OH241484   0.334   2.510   1.596 -0.0986  0.2167 -0.6080
 6642TIP3    H141485   0.371   2.481   1.679  1.2735 -0.3998 -1.4047
 6642TIP3    H241486   0.387   2.467   1.529 -1.1630  0.7023 -1.8185
 6643TIP3   OH241487   0.859   1.356   2.407 -0.2306  0.2763 -0.1356
 6643TIP3    H141488   0.843   1.319   2.494  0.1537  0.7528  0.1426
 6643TIP3    H241489   0.771   1.373   2.372 -0.3939 -0.2246  0.0249
 6644TIP3   OH241490   1.546   1.177   7.747 -0.4145  0.0361 -0.0760
 6644TIP3    H141491   1.595   1.098   7.724 -1.2290 -0.7697  0.8622
 6644TIP3    H241492   1.611   1.236   7.783  0.2167 -0.1826 -0.8275
 6645TIP3   OH241493   3.804   6.288   7.958 -0.0776 -0.3151 -0.0583
 6645TIP3    H141494   3.785   6.203   7.920 -0.8825 -0.7260  1.2101
 6645TIP3    H241495   3.744   6.296   8.033  0.0501  1.3115 -0.0804
 6646TIP3   OH241496   5.211   2.293   8.473  0.5625 -0.5668 -0.1185
 6646TIP3    H141497   5.240   2.293   8.382 -0.3288 -1.0984 -0.4071
 6646TIP3    H241498   5.130   2.344   8.472  0.5841 -0.5181  0.3942
 6647TIP3   OH241499   4.070   1.061   8.689 -0.1629  0.1410 -0.1808
 6647TIP3    H141500   4.159   1.094   8.678 -0.4294  1.0860  0.3415
 6647TIP3    H241501   4.078   0.992   8.754 -0.0732  1.6607  1.5103
 6648TIP3   OH241502   6.563   4.889   8.370 -0.0934 -0.0713 -0.1394
 6648TIP3    H141503   6.523   4.802   8.366  1.5723 -1.0393  2.0511
 6648TIP3    H241504   6.613   4.896   8.289 -1.0495 -0.6865 -0.8147
 6649TIP3   OH241505   1.923   5.428   1.259 -0.1749  0.3007  0.0593
 6649TIP3    H141506   1.979   5.487   1.209 -0.8550  0.8817 -0.0325
 6649TIP3    H241507   1.836   5.439   1.221 -0.3588 -0.5831  0.2053
 6650TIP3   OH241508   4.477   0.630   8.768 -0.3563 -0.4459 -0.0980
 6650TIP3    H141509   4.438   0.586   8.844 -0.2615 -0.8952 -0.3072
 6650TIP3    H241510   4.403   0.654   8.713 -0.4266 -0.1090  0.1363
 6651TIP3   OH241511   4.272   4.066   0.191 -0.1681 -0.2970  0.0726
 6651TIP3    H141512   4.344   4.008   0.214 -0.6997 -0.9173  0.2135
 6651TIP3    H241513   4.284   4.083   0.098  1.4125  1.4099  0.5271
 6652TIP3   OH241514   4.043   3.001   7.305 -0.1899 -0.2946  0.4361
 6652TIP3    H141515   3.983   3.017   7.232  0.4844  0.2571 -0.0034
 6652TIP3    H241516   4.078   3.087   7.328  0.4897 -0.6158  0.6424
 6653TIP3   OH241517   2.454   1.376   2.689  0.0416  0.3697  0.3326
 6653TIP3    H141518   2.516   1.447   2.673  0.1273  0.2059 -0.0748
 6653TIP3    H241519   2.369   1.420   2.699  0.1508  0.5564  0.4484
 6654TIP3   OH241520   2.774   3.187   8.259 -0.4712  0.5014  0.3062
 6654TIP3    H141521   2.772   3.271   8.304  0.3201  0.9939 -0.5414
 6654TIP3    H241522   2.793   3.123   8.327  0.9682  1.2532  0.6504
 6655TIP3   OH241523   0.697   4.383   2.194 -0.2643  0.5279  0.7506
 6655TIP3    H141524   0.733   4.355   2.278  0.1696  0.7700  0.6495
 6655TIP3    H241525   0.667   4.303   2.153 -0.5726  0.4179  1.1793
 6656TIP3   OH241526   5.065   1.714   0.852  0.6175  0.1885 -0.7725
 6656TIP3    H141527   5.082   1.792   0.800 -2.9236  2.1355  0.6538
 6656TIP3    H241528   5.094   1.737   0.940  0.0927 -0.3103 -0.4608
 6657TIP3   OH241529   4.227   1.847   2.002  0.1327 -0.8148  0.5502
 6657TIP3    H141530   4.300   1.900   1.971 -1.6899  2.4513  1.2963
 6657TIP3    H241531   4.267   1.765   2.031  3.1101 -0.1425 -1.2227
 6658TIP3   OH241532   3.585   1.335   7.476 -0.3463  0.1707 -0.6521
 6658TIP3    H141533   3.552   1.251   7.506  0.0599 -0.3413 -1.6242
 6658TIP3    H241534   3.679   1.321   7.463 -0.0595  1.0863  0.2388
 6659TIP3   OH241535   1.360   3.987   1.792  0.4437  0.4052  0.0425
 6659TIP3    H141536   1.309   4.003   1.712  0.0489 -3.1788 -0.5750
 6659TIP3    H241537   1.335   4.059   1.850 -2.2790  0.9869 -1.6568
 6660TIP3   OH241538   5.506   2.331   7.732  0.2949  0.0719  0.2256
 6660TIP3    H141539   5.481   2.255   7.784 -1.5233  1.0627  0.8845
 6660TIP3    H241540   5.572   2.376   7.785 -0.5092  0.3109  1.0473
 6661TIP3   OH241541   5.581   0.683   7.525 -0.1289  0.6559  0.5570
 6661TIP3    H141542   5.619   0.760   7.482  0.0982 -0.3107 -1.0346
 6661TIP3    H241543   5.650   0.617   7.523 -0.0141  0.6338  2.7050
 6662TIP3   OH241544   2.579   3.489   0.774  0.5334  0.0151  0.2686
 6662TIP3    H141545   2.578   3.411   0.719  1.4956 -0.3369  0.7331
 6662TIP3    H241546   2.585   3.456   0.864 -1.3730  0.5736  0.6473
 6663TIP3   OH241547   6.102   1.089   1.783  0.0213 -0.0948 -0.0278
 6663TIP3    H141548   6.028   1.139   1.747 -0.8109 -1.3137 -0.0746
 6663TIP3    H241549   6.166   1.156   1.808 -0.3968  0.9066 -1.5048
 6664TIP3   OH241550   4.064   2.502   8.089 -0.2416 -0.6695 -0.1261
 6664TIP3    H141551   3.986   2.453   8.115 -0.6134 -1.0199 -1.8074
 6664TIP3    H241552   4.126   2.435   8.062 -0.4766 -0.2769 -1.7136
 6665TIP3   OH241553   3.046   2.728   2.785 -0.4381  0.6105  0.1052
 6665TIP3    H141554   2.996   2.684   2.854  0.3848  0.9736  0.9522
 6665TIP3    H241555   3.133   2.688   2.789  0.0739  1.7080  0.3184
 6666TIP3   OH241556   5.798   5.297   2.218  0.2694 -0.0862  0.3948
 6666TIP3    H141557   5.883   5.325   2.184  0.5609 -1.2807  0.0940
 6666TIP3    H241558   5.734   5.334   2.156  0.7270 -1.2133 -0.7919
 6667TIP3   OH241559   3.910   6.531   8.681 -0.3027 -0.2877 -0.5734
 6667TIP3    H141560   3.996   6.560   8.711 -0.9358  1.1220 -0.0430
 6667TIP3    H241561   3.927   6.490   8.596  1.1058 -1.6194  0.3100
 6668TIP3   OH241562   2.052   5.468   8.729  0.2431  0.0199 -0.3710
 6668TIP3    H141563   2.089   5.473   8.641 -0.9268  0.8699 -0.8281
 6668TIP3    H241564   2.009   5.552   8.743 -0.8100 -0.6177  0.4525
 6669TIP3   OH241565   2.827   5.832   1.251 -0.2137  0.0645  0.2926
 6669TIP3    H141566   2.758   5.802   1.310 -0.6524  1.0425  0.2940
 6669TIP3    H241567   2.786   5.832   1.164  0.3239 -1.0310  0.0181
 6670TIP3   OH241568   1.993   1.446   8.797  0.2503  1.0288 -0.3465
 6670TIP3    H141569   1.986   1.520   8.857 -0.6251  0.8552 -0.2305
 6670TIP3    H241570   1.905   1.436   8.761  0.1982 -0.3853  0.1414
 6671TIP3   OH241571   6.158   1.640   6.788  0.5380  0.3231 -0.2471
 6671TIP3    H141572   6.124   1.702   6.724 -1.1051 -0.1151  0.1595
 6671TIP3    H241573   6.206   1.575   6.736 -0.3959  0.2172 -1.0032
 6672TIP3   OH241574   5.745   0.257   2.534 -0.0354 -0.0730 -0.3977
 6672TIP3    H141575   5.774   0.166   2.541 -0.1057 -0.0157  0.8718
 6672TIP3    H241576   5.825   0.307   2.518  0.4034 -0.0911  1.5181
 6673TIP3   OH241577   2.900   5.488   8.640 -0.1103  0.0304  0.4475
 6673TIP3    H141578   2.916   5.582   8.635 -0.9209  0.2184  1.1082
 6673TIP3    H241579   2.833   5.472   8.574  0.6357 -0.2419 -0.2602
 6674TIP3   OH241580   1.477   5.833   0.532 -0.2758 -0.4184  0.0914
 6674TIP3    H141581   1.559   5.884   0.538 -0.6701  0.3205 -0.6106
 6674TIP3    H241582   1.478   5.778   0.610 -1.0352  2.4973  2.3723
 6675TIP3   OH241583   1.010   1.054   8.807 -0.0408  0.3307 -0.5584
 6675TIP3    H141584   1.023   1.083   8.716 -2.3243 -1.4493 -1.5549
 6675TIP3    H241585   1.082   0.992   8.822  0.6323  0.9935 -0.9424
 6676TIP3   OH241586   5.310   5.106   1.594  0.2467 -0.0686  0.3327
 6676TIP3    H141587   5.243   5.169   1.620 -0.4264 -1.1226  1.2091
 6676TIP3    H241588   5.388   5.132   1.643  1.2001  2.4388 -2.2154
 6677TIP3   OH241589   6.044   1.307   6.817 -0.5536 -0.1520  0.3014
 6677TIP3    H141590   5.956   1.346   6.813 -1.2204 -1.6180 -0.0583
 6677TIP3    H241591   6.063   1.302   6.910  0.5974  3.1782  0.3546
 6678TIP3   OH241592   5.947   5.307   7.394  0.3690 -0.0627  0.0929
 6678TIP3    H141593   5.851   5.298   7.390  0.4834 -1.1484 -0.7075
 6678TIP3    H241594   5.965   5.386   7.344 -0.0593 -0.4100 -0.6474
 6679TIP3   OH241595   1.475   3.049   6.912 -0.6745 -0.5882 -0.0668
 6679TIP3    H141596   1.511   3.078   6.996 -2.1508  1.7490 -0.1605
 6679TIP3    H241597   1.541   3.075   6.848 -0.2485 -0.9682  0.2104
 6680TIP3   OH241598   0.066   5.662   0.163  0.6790 -0.2562  0.1757
 6680TIP3    H141599   0.134   5.601   0.133  0.9107 -0.5016  1.1574
 6680TIP3    H241600   0.103   5.748   0.146  2.2077 -0.3271  2.5797
 6681TIP3   OH241601   3.181   1.009   2.554  0.1582  0.0423  0.5064
 6681TIP3    H141602   3.119   0.963   2.499  0.1007  0.5083  0.1732
 6681TIP3    H241603   3.128   1.044   2.626  0.6738 -3.3443  2.7777
 6682TIP3   OH241604   2.135   6.482   1.063 -0.2803 -0.1713  0.3217
 6682TIP3    H141605   2.150   6.402   1.114 -1.2902 -0.1436  0.6779
 6682TIP3    H241606   2.061   6.461   1.006  0.5201 -0.0325 -0.7905
 6683TIP3   OH241607   2.867   5.207   8.359  0.0395  0.1334 -0.3501
 6683TIP3    H141608   2.896   5.169   8.276  1.5430 -1.4584  0.8390
 6683TIP3    H241609   2.945   5.252   8.393 -0.4018  0.2950  0.4735
 6684TIP3   OH241610   2.852   0.682   1.099 -0.1357  0.2804  0.4339
 6684TIP3    H141611   2.917   0.753   1.090  0.8769 -0.5653  0.8561
 6684TIP3    H241612   2.903   0.602   1.091 -0.6746 -0.4715  3.2832
 6685TIP3   OH241613   0.540   0.740   2.254  0.1862 -0.2192  0.3591
 6685TIP3    H141614   0.629   0.716   2.277  0.1746 -1.5065 -0.7925
 6685TIP3    H241615   0.485   0.682   2.307  0.1118 -1.1913 -0.7327
 6686TIP3   OH241616   6.293   1.471   8.796  0.0442 -0.0102 -0.2958
 6686TIP3    H141617   6.328   1.385   8.771 -0.8465 -0.0226 -1.6221
 6686TIP3    H241618   6.370   1.528   8.800  0.5881 -0.7478  0.1160
 6687TIP3   OH241619   5.549   3.979   0.832 -0.3466 -0.0136  0.4305
 6687TIP3    H141620   5.517   3.962   0.744  0.5698  1.2688 -0.1964
 6687TIP3    H241621   5.473   3.968   0.889 -1.9034  2.6611 -0.9388
 6688TIP3   OH241622   6.556   0.977   3.011  0.0788 -0.1097  0.3664
 6688TIP3    H141623   6.647   1.006   2.997  1.2893 -2.9738  1.5771
 6688TIP3    H241624   6.557   0.884   2.989 -2.5438 -0.2756  0.6528
 6689TIP3   OH241625   2.525   2.279   1.332  0.0812 -0.4373  0.0205
 6689TIP3    H141626   2.467   2.293   1.257 -0.5165  0.3917  0.6231
 6689TIP3    H241627   2.547   2.186   1.327 -1.0254 -0.7005 -0.4328
 6690TIP3   OH241628   5.089   4.021   0.770  0.3648 -0.1948  0.4968
 6690TIP3    H141629   5.162   3.992   0.826  1.7524  2.2747  0.1539
 6690TIP3    H241630   5.129   4.085   0.711 -1.1167 -2.3789 -3.1345
 6691TIP3   OH241631   5.139   3.794   2.176 -0.3043 -0.1486 -0.1219
 6691TIP3    H141632   5.228   3.823   2.195 -0.1630  0.1573 -1.1995
 6691TIP3    H241633   5.083   3.850   2.230  0.1674 -0.8314  1.1232
 6692TIP3   OH241634   3.769   4.905   0.416  0.1168 -0.4818 -0.3006
 6692TIP3    H141635   3.829   4.898   0.490  0.5841  0.3388 -0.5877
 6692TIP3    H241636   3.809   4.970   0.359 -0.0471 -1.3757 -1.4726
 6693TIP3   OH241637   1.909   6.557   0.475  0.0672  0.3424  0.3030
 6693TIP3    H141638   1.837   6.496   0.460  1.3258 -0.8354 -1.2063
 6693TIP3    H241639   1.948   6.570   0.389  3.0925 -0.8900  1.3524
 6694TIP3   OH241640   4.719   1.035   8.714  0.3039  0.3783  0.7072
 6694TIP3    H141641   4.663   1.094   8.663 -0.0336  0.1537  0.8159
 6694TIP3    H241642   4.800   1.030   8.664 -0.5180 -0.9531 -0.5822
 6695TIP3   OH241643   2.371   5.860   1.499  0.2581 -0.2839 -0.1827
 6695TIP3    H141644   2.288   5.827   1.532 -0.3426 -1.3128 -2.4895
 6695TIP3    H241645   2.353   5.883   1.408  2.5145 -0.6647 -0.7990
 6696TIP3   OH241646   5.499   0.047   0.871 -0.0490 -0.0435  0.0798
 6696TIP3    H141647   5.452  -0.031   0.842  1.3357 -0.1173 -2.1943
 6696TIP3    H241648   5.591   0.029   0.849  0.3534  2.0901 -0.2189
 6697TIP3   OH241649   0.545   4.592   8.002 -0.0826  0.4391  0.4520
 6697TIP3    H141650   0.464   4.603   8.052 -0.2429  1.3174  0.0061
 6697TIP3    H241651   0.583   4.679   7.997  0.6969  0.1023  0.3134
 6698TIP3   OH241652   6.561   3.736   0.289  0.0085 -0.3019  0.2101
 6698TIP3    H141653   6.625   3.746   0.360  0.9990  0.9589 -0.8278
 6698TIP3    H241654   6.613   3.722   0.210 -0.8560  2.4681 -0.9557
 6699TIP3   OH241655   6.508   0.813   8.096  0.4457  1.0428  0.5904
 6699TIP3    H141656   6.517   0.756   8.173  0.4085  1.3095  0.7937
 6699TIP3    H241657   6.511   0.902   8.132 -2.0327  1.1945  0.6044
 6700TIP3   OH241658   5.307   2.673   2.683  0.0355  0.2692 -0.1463
 6700TIP3    H141659   5.335   2.586   2.657  0.5387  0.3695  0.0476
 6700TIP3    H241660   5.388   2.722   2.696 -0.2350  1.1583 -1.5565
 6701TIP3   OH241661   0.783   5.297   1.195  0.1610  0.3326  0.6030
 6701TIP3    H141662   0.847   5.259   1.134  0.5989 -0.3003  1.4453
 6701TIP3    H241663   0.739   5.364   1.143 -1.8030 -2.3348 -1.5048
 6702TIP3   OH241664   2.902   1.690   7.037  0.1059 -0.0736  0.1411
 6702TIP3    H141665   2.808   1.686   7.055 -0.0614 -0.3059 -0.7238
 6702TIP3    H241666   2.923   1.784   7.043 -0.3341  0.0641 -0.3557
 6703TIP3   OH241667   2.676   5.296   0.101  0.2264 -0.0112 -0.1273
 6703TIP3    H141668   2.594   5.247   0.105  0.6880 -0.7661  0.3314
 6703TIP3    H241669   2.716   5.284   0.187 -0.1379  2.0818  0.3841
 6704TIP3   OH241670   5.748   1.068   1.012 -0.1482  0.3581  0.0240
 6704TIP3    H141671   5.832   1.056   1.057 -0.1380  1.4237  0.3180
 6704TIP3    H241672   5.772   1.089   0.922 -0.1460 -0.8576 -0.2696
 6705TIP3   OH241673   3.010   6.612   2.235  0.2273 -0.2090  0.3341
 6705TIP3    H141674   2.950   6.686   2.245 -0.9031 -1.3552  2.6765
 6705TIP3    H241675   3.070   6.620   2.310 -0.0893 -1.7829  0.7836
 6706TIP3   OH241676   4.637   4.102   8.409  0.2625 -0.1238 -0.0819
 6706TIP3    H141677   4.637   4.007   8.404 -2.3365 -0.2530  0.9204
 6706TIP3    H241678   4.630   4.121   8.503 -1.0153  0.9907 -0.3784
 6707TIP3   OH241679   4.740   4.677   1.397  0.1056 -0.3395  0.1491
 6707TIP3    H141680   4.766   4.765   1.423 -0.3548 -0.3473  0.6481
 6707TIP3    H241681   4.666   4.656   1.453 -0.0768 -0.8711 -0.2811
 6708TIP3   OH241682   2.677   0.062   8.319  0.4635  0.2097  0.4867
 6708TIP3    H141683   2.712  -0.027   8.322 -0.7696 -0.3388 -0.4633
 6708TIP3    H241684   2.682   0.086   8.226 -2.3676 -0.2215  0.1436
 6709TIP3   OH241685   0.156   1.636   8.487  0.2277  0.5804  0.5345
 6709TIP3    H141686   0.114   1.551   8.495 -0.9489  0.9586 -1.1814
 6709TIP3    H241687   0.094   1.698   8.526  0.2549  0.8660  0.1284
 6710TIP3   OH241688   3.799   0.879   1.375  0.2529 -0.4479  0.0607
 6710TIP3    H141689   3.881   0.908   1.416  1.1052 -1.1884 -1.0513
 6710TIP3    H241690   3.788   0.789   1.407  1.2799 -1.2750 -1.7533
 6711TIP3   OH241691   5.503   1.938   8.308  0.1988 -0.2107  0.5641
 6711TIP3    H141692   5.563   1.964   8.379  0.5639  1.2593 -0.2343
 6711TIP3    H241693   5.520   1.845   8.295  1.9261  0.0352  0.7479
 6712TIP3   OH241694   5.070   0.140   8.456 -0.1613 -0.0081  0.0732
 6712TIP3    H141695   5.091   0.216   8.511 -0.0545  0.9042 -1.1946
 6712TIP3    H241696   5.091   0.168   8.367 -1.9547 -0.8428 -0.6538
 6713TIP3   OH241697   5.386   1.028   0.950 -0.5750  0.4322  0.1875
 6713TIP3    H141698   5.303   0.989   0.979  0.6820 -1.2595  1.6828
 6713TIP3    H241699   5.440   0.953   0.925  2.0352  1.0044  3.4139
 6714TIP3   OH241700   1.128   1.608   1.822 -0.1418 -0.0512  0.0350
 6714TIP3    H141701   1.079   1.681   1.861  2.0051  0.9493  1.0140
 6714TIP3    H241702   1.205   1.597   1.878  1.0763 -1.1712 -1.7282
 6715TIP3   OH241703   6.718   4.877   8.078 -0.5756  0.1009  0.1169
 6715TIP3    H141704   6.662   4.952   8.099 -0.5682 -0.0044  0.5302
 6715TIP3    H241705   6.807   4.908   8.099 -0.3221  0.6609 -1.6067
 6716TIP3   OH241706   0.064   6.355   6.982 -0.3702  0.0747 -0.1964
 6716TIP3    H141707  -0.023   6.316   6.976 -1.3820  2.1171  0.3178
 6716TIP3    H241708   0.060   6.432   6.925  1.6562 -0.6689 -1.4281
 6717TIP3   OH241709   2.006   2.713   7.947 -0.0522 -0.6817  0.0162
 6717TIP3    H141710   1.969   2.795   7.981  0.5177 -0.3934 -0.0432
 6717TIP3    H241711   1.942   2.682   7.883 -0.7784 -0.8324  0.7963
 6718TIP3   OH241712   4.652   2.841   6.828  0.1655 -0.2362  0.0343
 6718TIP3    H141713   4.570   2.888   6.815  0.2838 -0.1619 -0.4963
 6718TIP3    H241714   4.670   2.848   6.921  0.4167  1.1762 -0.0949
 6719TIP3   OH241715   6.641   1.973   1.974 -0.1890  0.1238 -0.4898
 6719TIP3    H141716   6.676   1.985   2.062  1.6197  1.5537 -1.3285
 6719TIP3    H241717   6.658   1.881   1.953 -0.1620 -0.0922  0.4317
 6720TIP3   OH241718   6.479   5.435   0.969 -0.2506  0.2069 -0.0211
 6720TIP3    H141719   6.426   5.480   0.904 -0.0861  0.5846  0.1041
 6720TIP3    H241720   6.507   5.504   1.029  0.5653  0.0526 -0.2108
 6721TIP3   OH241721   3.407   6.061   1.023 -0.0640 -0.9561 -0.1568
 6721TIP3    H141722   3.322   6.077   1.064 -0.1384  1.1869 -1.0332
 6721TIP3    H241723   3.462   6.028   1.095 -0.0790  2.9263  1.8932
 6722TIP3   OH241724   0.999   0.403   2.254 -0.2920 -0.7139 -0.5496
 6722TIP3    H141725   0.929   0.346   2.282 -0.3921 -0.8692 -1.0968
 6722TIP3    H241726   1.061   0.405   2.327 -1.6184  0.6989  0.6005
 6723TIP3   OH241727   1.747   4.242   1.125 -0.6073  0.0189  0.6143
 6723TIP3    H141728   1.652   4.245   1.125 -0.7035 -1.8346  0.4360
 6723TIP3    H241729   1.772   4.262   1.215 -1.2437 -0.7136  0.9627
 6724TIP3   OH241730   0.007   2.825   0.906  0.1771 -0.3208  0.2112
 6724TIP3    H141731   0.085   2.770   0.900 -0.3393 -0.9681 -1.1142
 6724TIP3    H241732  -0.066   2.763   0.913 -0.2683  0.2599  0.8303
 6725TIP3   OH241733   1.293   1.061   7.114  0.4341  0.0701 -0.3397
 6725TIP3    H141734   1.302   1.059   7.018 -0.2540  0.2501 -0.4124
 6725TIP3    H241735   1.375   1.101   7.145  0.6641  0.0025 -0.8469
 6726TIP3   OH241736   0.788   0.422   1.276  0.8142  0.9483 -0.4592
 6726TIP3    H141737   0.794   0.338   1.232 -0.3748 -0.5186  1.9660
 6726TIP3    H241738   0.698   0.450   1.263  1.0660  1.6258 -0.8147
 6727TIP3   OH241739   1.092   6.690   8.625 -0.0269  0.0830 -0.3422
 6727TIP3    H141740   1.000   6.711   8.642 -0.4518  0.0744 -2.3600
 6727TIP3    H241741   1.098   6.595   8.639 -0.8058 -0.2398 -1.9850
 6728TIP3   OH241742   3.279   4.847   2.005 -0.5499  0.0598 -0.4487
 6728TIP3    H141743   3.234   4.930   1.988  0.6456  0.3604 -2.5113
 6728TIP3    H241744   3.280   4.840   2.100 -0.9859  2.2616 -0.2145
 6729TIP3   OH241745   6.179   5.207   7.834  0.0038 -0.1865 -0.1176
 6729TIP3    H141746   6.128   5.205   7.753 -1.3435  0.3937  0.6817
 6729TIP3    H241747   6.198   5.300   7.849 -0.3505 -0.2207  0.5830
 6730TIP3   OH241748   6.551   3.990   2.844 -0.2756  0.1558 -0.8004
 6730TIP3    H141749   6.556   4.081   2.873  0.8138 -0.2194  0.3041
 6730TIP3    H241750   6.628   3.978   2.788  1.9743 -1.0855  2.2823
 6731TIP3   OH241751   3.256   5.012   1.621 -0.5465  0.2915 -0.1727
 6731TIP3    H141752   3.264   5.035   1.528 -2.8417 -0.7545 -0.7167
 6731TIP3    H241753   3.302   4.929   1.629  2.3243  1.8009  0.4045
 6732TIP3   OH241754   6.767   4.236   2.020  0.2837  0.5578  0.2178
 6732TIP3    H141755   6.680   4.274   2.010  0.4579  1.3572  1.5120
 6732TIP3    H241756   6.821   4.307   2.055  1.6683  0.3077 -1.2798
 6733TIP3   OH241757   3.938   6.361   0.236  0.1617  0.5377  0.5054
 6733TIP3    H141758   3.899   6.434   0.188  0.0427  1.1439  1.4868
 6733TIP3    H241759   3.988   6.313   0.170 -1.4449  0.2769 -0.5952
 6734TIP3   OH241760   5.889   2.983   7.066  0.0040 -0.4584 -0.3102
 6734TIP3    H141761   5.885   2.993   7.161  0.7456  0.3980 -0.3505
 6734TIP3    H241762   5.982   2.991   7.045 -0.3634  2.7247 -1.3949
 6735TIP3   OH241763   5.051   4.418   0.742 -0.2579 -0.0403  0.8675
 6735TIP3    H141764   5.070   4.404   0.835  2.0165  0.1841  0.4947
 6735TIP3    H241765   5.060   4.331   0.703 -1.3974 -0.1696  0.8452
 6736TIP3   OH241766   0.980   0.441   0.938  0.4589 -0.6002  0.3474
 6736TIP3    H141767   1.022   0.418   0.855 -0.6992  0.1512 -0.4736
 6736TIP3    H241768   0.987   0.537   0.943  2.2616 -0.7439  2.1039
 6737TIP3   OH241769   1.529   4.210   2.088 -0.2257 -0.1884  0.7221
 6737TIP3    H141770   1.441   4.207   2.052  0.2686 -0.6310 -0.4918
 6737TIP3    H241771   1.582   4.250   2.019  0.5642 -0.0828  1.3721
 6738TIP3   OH241772   1.104   0.722   0.173 -0.2087  0.0089  0.2301
 6738TIP3    H141773   1.071   0.641   0.134 -0.0642 -0.1627  0.4654
 6738TIP3    H241774   1.131   0.776   0.097 -1.8004  0.5002 -0.0149
 6739TIP3   OH241775   6.180   1.393   1.745  0.6806 -0.0484  0.1701
 6739TIP3    H141776   6.199   1.413   1.653 -0.5853 -0.4700 -0.2011
 6739TIP3    H241777   6.266   1.389   1.787  1.2662  0.3142 -0.9557
 6740TIP3   OH241778   3.650   2.977   2.274 -0.4109 -0.5974 -0.2105
 6740TIP3    H141779   3.746   2.975   2.273 -0.3647  0.5712  0.2208
 6740TIP3    H241780   3.624   2.918   2.204  0.6510 -0.0311 -1.1111
 6741TIP3   OH241781   4.877   3.495   2.234  0.1550  0.7636  0.3745
 6741TIP3    H141782   4.959   3.450   2.252  0.1442  0.9272  0.8707
 6741TIP3    H241783   4.869   3.495   2.139  0.5634  0.4546  0.3378
 6742TIP3   OH241784   1.720   5.413   8.470 -0.1541  0.2733  0.7338
 6742TIP3    H141785   1.669   5.448   8.543 -0.6235  1.0310  0.0536
 6742TIP3    H241786   1.694   5.320   8.465 -0.2541  0.2613  1.4081
 6743TIP3   OH241787   4.125   2.834   0.155  0.5203 -0.8510 -0.5241
 6743TIP3    H141788   4.100   2.744   0.175  0.8649 -1.3055 -2.0001
 6743TIP3    H241789   4.172   2.864   0.233  0.0538 -1.8049  0.1391
 6744TIP3   OH241790   0.616   1.754   8.728  0.1072 -0.6654 -0.0393
 6744TIP3    H141791   0.613   1.683   8.664 -0.2735  0.0667 -0.8553
 6744TIP3    H241792   0.694   1.805   8.705  0.3920 -0.8173  0.5533
 6745TIP3   OH241793   1.322   5.498   0.506 -0.0036  0.0184 -0.5551
 6745TIP3    H141794   1.247   5.439   0.500  0.4623 -0.6091 -0.3432
 6745TIP3    H241795   1.311   5.558   0.433  0.0650 -0.9767 -1.4078
 6746TIP3   OH241796   2.191   3.650   0.417 -0.5250  0.0224  0.5920
 6746TIP3    H141797   2.154   3.573   0.376 -0.4071  0.7543 -0.9796
 6746TIP3    H241798   2.279   3.623   0.445 -0.6707 -0.5402  0.5092
 6747TIP3   OH241799   3.258   0.504   8.786  0.3518 -0.1415 -0.1497
 6747TIP3    H141800   3.247   0.468   8.874 -1.9918 -1.9330 -1.0631
 6747TIP3    H241801   3.196   0.577   8.782 -1.4893 -1.6765 -1.0432
 6748TIP3   OH241802   5.315   1.069   1.453 -0.4892 -0.2081 -0.4254
 6748TIP3    H141803   5.302   1.096   1.362  0.5814  1.7338 -0.0627
 6748TIP3    H241804   5.361   0.986   1.447 -0.0220  0.1173 -1.6794
 6749TIP3   OH241805   3.392   3.467   8.495 -0.4076  0.3662  0.2646
 6749TIP3    H141806   3.430   3.541   8.542 -1.3128  0.0146  1.6096
 6749TIP3    H241807   3.431   3.390   8.536  0.2012  0.0619 -0.8326
 6750TIP3   OH241808   5.939   1.073   0.199  0.1071  0.4141 -0.4393
 6750TIP3    H141809   5.972   0.983   0.195 -0.4474  0.1785  0.0738
 6750TIP3    H241810   5.846   1.065   0.178 -0.4523  0.5474  1.7174
 6751TIP3   OH241811   5.196   4.953   7.450  0.1782  0.5389 -0.4586
 6751TIP3    H141812   5.221   4.986   7.536 -0.4456 -1.9149  0.7581
 6751TIP3    H241813   5.114   4.997   7.430 -0.9344 -0.5827  1.3661
 6752TIP3   OH241814   0.284   2.871   1.181  0.0498  0.1181 -0.4169
 6752TIP3    H141815   0.330   2.955   1.181 -2.4172  1.6762  2.2842
 6752TIP3    H241816   0.316   2.827   1.260  0.2279 -0.8430 -1.0136
 6753TIP3   OH241817   2.799   3.576   8.712  0.0470  0.0971 -0.2478
 6753TIP3    H141818   2.868   3.553   8.773 -0.0065  0.1657 -0.1616
 6753TIP3    H241819   2.834   3.652   8.665 -0.5020  0.9788  0.7202
 6754TIP3   OH241820   3.240   3.329   1.517 -0.6983  0.1259  0.0373
 6754TIP3    H141821   3.266   3.287   1.599  0.5862  0.8929  0.0518
 6754TIP3    H241822   3.305   3.398   1.503  0.8732 -1.7272 -3.0292
 6755TIP3   OH241823   2.008   0.222   1.615 -0.0417 -0.0300 -0.8101
 6755TIP3    H141824   1.985   0.216   1.708  0.6031  0.8506 -0.5826
 6755TIP3    H241825   2.067   0.149   1.600  1.3062  0.8766 -0.0683
 6756TIP3   OH241826   2.315   1.587   1.231  0.6473  0.0174 -0.2884
 6756TIP3    H141827   2.225   1.579   1.261  0.7310  1.3556  0.3853
 6756TIP3    H241828   2.367   1.547   1.301  0.5506 -1.8253 -1.2037
 6757TIP3   OH241829   0.632   3.101   8.322  1.2045  0.7067 -0.3666
 6757TIP3    H141830   0.618   3.150   8.241  0.5481 -0.8557 -1.2418
 6757TIP3    H241831   0.569   3.029   8.318  1.5513  0.2646  1.2752
 6758TIP3   OH241832   2.466   6.553   0.277  0.2504  0.3286 -0.7364
 6758TIP3    H141833   2.404   6.486   0.249 -1.8714  1.3638  1.1938
 6758TIP3    H241834   2.496   6.593   0.195 -2.2220  0.2707 -1.7673
 6759TIP3   OH241835   5.252   0.922   7.402 -0.3988  0.2350  0.1724
 6759TIP3    H141836   5.334   0.971   7.399  0.3591 -1.0035 -0.0520
 6759TIP3    H241837   5.251   0.885   7.491 -0.1946 -0.5849 -0.1576
 6760TIP3   OH241838   4.551   0.935   7.217 -0.3387 -0.3655 -0.0528
 6760TIP3    H141839   4.565   0.870   7.148 -1.0065 -0.5787 -0.0017
 6760TIP3    H241840   4.554   1.019   7.172  0.5253 -0.4283 -0.1226
 6761TIP3   OH241841   1.815   4.240   1.413 -0.2529  0.5840  0.6337
 6761TIP3    H141842   1.836   4.153   1.449 -1.1792  0.7165  1.5269
 6761TIP3    H241843   1.891   4.294   1.437 -1.0880  0.8154  2.9823
 6762TIP3   OH241844   4.941   5.644   8.094  0.0229  0.8810 -0.0821
 6762TIP3    H141845   4.981   5.730   8.109 -1.4527  1.3233  1.6478
 6762TIP3    H241846   4.880   5.659   8.022  0.8667  0.8928 -0.8092
 6763TIP3   OH241847   4.423   2.871   0.085  0.1614 -0.1905  0.4717
 6763TIP3    H141848   4.422   2.850   0.178 -1.3236  0.2073  0.5743
 6763TIP3    H241849   4.345   2.829   0.049  0.8266 -0.5294 -0.6560
 6764TIP3   OH241850   3.522   0.606   7.463 -0.1319  0.1364  0.0619
 6764TIP3    H141851   3.500   0.610   7.370  0.3099 -0.8499 -0.0939
 6764TIP3    H241852   3.617   0.612   7.466 -0.1469  0.2381  0.4572
 6765TIP3   OH241853   2.597   2.164   0.464 -0.3437  0.7933  0.2143
 6765TIP3    H141854   2.616   2.102   0.534 -1.7986  0.2555  0.1701
 6765TIP3    H241855   2.680   2.174   0.418  0.0009 -0.8739  0.4101
 6766TIP3   OH241856   2.463   4.745   0.697 -0.6427 -0.1066 -0.0045
 6766TIP3    H141857   2.520   4.744   0.774  0.0216  0.7665 -0.4643
 6766TIP3    H241858   2.404   4.819   0.712  0.9143  1.4907 -1.2881
 6767TIP3   OH241859   1.413   0.404   0.720 -0.4908 -0.5906  0.2785
 6767TIP3    H141860   1.340   0.344   0.739 -0.0207 -2.1367 -2.2561
 6767TIP3    H241861   1.371   0.486   0.695 -1.6391 -1.9302 -2.7977
 6768TIP3   OH241862   0.040   1.320   8.377 -0.5234 -0.3540  0.3702
 6768TIP3    H141863  -0.047   1.350   8.403  0.0764  1.4641  0.4267
 6768TIP3    H241864   0.032   1.225   8.369 -2.1768 -0.3564  1.6159
 6769TIP3   OH241865   6.210   3.418   1.948 -0.2783  0.6747 -0.4982
 6769TIP3    H141866   6.255   3.431   2.031 -0.5147 -0.2361 -0.2208
 6769TIP3    H241867   6.278   3.387   1.888 -0.1797  1.0033 -0.5605
 6770TIP3   OH241868   1.516   2.751   6.754 -0.1438  0.4235  0.0535
 6770TIP3    H141869   1.558   2.708   6.828  0.3695  0.4422 -0.2220
 6770TIP3    H241870   1.589   2.786   6.702 -0.3846 -1.2697 -1.5021
 6771TIP3   OH241871   4.309   0.038   1.117  0.2942  0.2222  0.3759
 6771TIP3    H141872   4.239  -0.026   1.102 -0.3632  1.1297 -0.5548
 6771TIP3    H241873   4.375  -0.010   1.167 -0.5021 -0.9712  0.3187
 6772TIP3   OH241874   6.477   6.149   7.533 -0.1970 -0.2219  0.5904
 6772TIP3    H141875   6.489   6.128   7.441  0.6413  0.6273  0.4863
 6772TIP3    H241876   6.549   6.210   7.553 -0.7176  0.0667  1.6440
 6773TIP3   OH241877   3.031   6.096   2.438  0.0923  0.3715 -0.0827
 6773TIP3    H141878   3.112   6.083   2.486 -0.0078 -1.1225 -0.2742
 6773TIP3    H241879   2.962   6.064   2.497 -0.0970 -0.7709 -0.8888
 6774TIP3   OH241880   6.377   5.409   8.021 -0.1476  0.0604  0.6921
 6774TIP3    H141881   6.438   5.447   7.958  1.9475  0.2073  2.6864
 6774TIP3    H241882   6.373   5.473   8.092 -0.2129 -1.3364  1.9875
 6775TIP3   OH241883   3.209   5.270   8.133 -0.2968  0.0307 -0.2136
 6775TIP3    H141884   3.279   5.226   8.086 -0.9141  0.0791 -1.2059
 6775TIP3    H241885   3.221   5.244   8.224  1.3272  0.4802 -0.2766
 6776TIP3   OH241886   0.403   3.603   1.116 -0.1964 -0.3769 -0.2874
 6776TIP3    H141887   0.387   3.654   1.195 -2.6473  1.0419 -1.5672
 6776TIP3    H241888   0.487   3.635   1.083 -0.4272  0.9362  0.3469
 6777TIP3   OH241889   1.016   3.408   7.883  0.2263  0.1527  0.0871
 6777TIP3    H141890   0.955   3.335   7.872 -0.3368  0.7308 -0.7560
 6777TIP3    H241891   0.986   3.474   7.821  0.9872  0.9364  0.5295
 6778TIP3   OH241892   2.904   3.956   0.370  0.3609 -0.0694 -0.4464
 6778TIP3    H141893   2.888   4.010   0.293 -0.6363 -0.8880 -0.8395
 6778TIP3    H241894   2.819   3.919   0.392  0.0613  2.1133  2.6334
 6779TIP3   OH241895   3.004   5.110   0.087  0.0111  0.0731  0.4200
 6779TIP3    H141896   3.071   5.177   0.093  0.1447 -0.0456  0.2440
 6779TIP3    H241897   2.936   5.139   0.148  1.3234 -1.0848  2.5549
 6780TIP3   OH241898   0.645   3.466   7.993  0.3158  0.0743 -0.0443
 6780TIP3    H141899   0.655   3.487   8.086  0.3606  0.4725 -0.1372
 6780TIP3    H241900   0.589   3.536   7.958 -0.3840 -0.5256 -0.1455
 6781TIP3   OH241901   5.338   1.890   0.512 -0.7502  0.3483  0.3371
 6781TIP3    H141902   5.254   1.861   0.477 -1.5414  2.3305  0.4303
 6781TIP3    H241903   5.363   1.964   0.456  0.6604  0.1639  0.6746
 6782TIP3   OH241904   5.473   2.810   1.994  0.1711  0.0195  0.1260
 6782TIP3    H141905   5.424   2.759   1.930  0.1022 -0.8343  0.8296
 6782TIP3    H241906   5.564   2.781   1.983  0.5055  1.4098 -0.9998
 6783TIP3   OH241907   3.096   1.599   8.851  0.4498 -0.2566  0.1099
 6783TIP3    H141908   3.132   1.539   8.785 -0.5435 -1.6110  0.7481
 6783TIP3    H241909   3.110   1.686   8.814 -0.9355 -0.9835 -2.3676
 6784TIP3   OH241910   1.526   6.067   2.304  0.6144  0.4653 -0.3972
 6784TIP3    H141911   1.592   6.101   2.364  1.0687  0.9890 -1.1706
 6784TIP3    H241912   1.564   5.986   2.269  0.4337  0.2632 -0.1275
 6785TIP3   OH241913   1.567   5.748   8.334 -0.4101  0.4354  0.2952
 6785TIP3    H141914   1.520   5.665   8.334 -0.7536  0.5407 -2.3298
 6785TIP3    H241915   1.655   5.726   8.367 -1.0200 -0.5767  1.2959
 6786TIP3   OH241916   1.958   1.179   7.231  0.7880 -0.0221  0.1768
 6786TIP3    H141917   1.950   1.265   7.190 -0.2141  0.3521  1.1235
 6786TIP3    H241918   2.000   1.125   7.164  0.7588  1.0044 -0.7034
 6787TIP3   OH241919   4.915   0.773   0.923 -0.4485 -0.2489 -0.4884
 6787TIP3    H141920   4.971   0.713   0.872 -0.8848  0.0345 -1.3141
 6787TIP3    H241921   4.835   0.781   0.871 -0.8805  0.0984  0.2203
 6788TIP3   OH241922   0.112   0.849   8.214 -0.0715 -0.3840  0.0674
 6788TIP3    H141923   0.082   0.840   8.124 -0.3619 -1.1411  0.2371
 6788TIP3    H241924   0.052   0.912   8.253  0.6629  0.7176 -0.5313
 6789TIP3   OH241925   3.663   5.753   7.318 -0.1268 -0.1391 -0.0620
 6789TIP3    H141926   3.697   5.699   7.247 -0.4778 -1.2474  0.5813
 6789TIP3    H241927   3.652   5.840   7.280  0.4808 -0.5144 -1.1193
 6790TIP3   OH241928   5.018   5.146   1.677  0.0722 -0.7910  0.5637
 6790TIP3    H141929   5.074   5.223   1.691 -0.5867  0.3207 -2.1161
 6790TIP3    H241930   4.931   5.174   1.706 -0.1021 -0.5840 -0.1202
 6791TIP3   OH241931   5.128   2.888   8.176  0.1239  0.3452 -0.7620
 6791TIP3    H141932   5.071   2.848   8.111 -0.1396  0.4324 -0.5833
 6791TIP3    H241933   5.070   2.940   8.231  0.1239 -0.8292  0.4185
 6792TIP3   OH241934   2.748   2.587   6.987  0.3172 -0.3196 -0.1137
 6792TIP3    H141935   2.692   2.588   7.064  0.2317 -1.0878 -0.1598
 6792TIP3    H241936   2.739   2.499   6.951  2.7076 -1.0020  0.7526
 6793TIP3   OH241937   1.134   2.160   7.344 -0.1304 -0.6188 -0.0439
 6793TIP3    H141938   1.222   2.131   7.318 -0.3274 -0.7059 -0.6325
 6793TIP3    H241939   1.099   2.203   7.265  0.5269  2.1670  1.0575
 6794TIP3   OH241940   2.816   1.628   1.135 -0.0966 -0.3074  0.4608
 6794TIP3    H141941   2.721   1.638   1.128  0.0560  1.0871  0.1313
 6794TIP3    H241942   2.840   1.577   1.058 -0.5988 -0.8975  0.6836
 6795TIP3   OH241943   5.305   1.759   1.863 -0.6240 -0.2771 -0.1377
 6795TIP3    H141944   5.217   1.746   1.829 -0.1637 -1.2738 -0.9880
 6795TIP3    H241945   5.316   1.854   1.866 -0.9387 -0.1475 -2.1201
 6796TIP3   OH241946   1.040   6.625   8.028  0.3021 -0.5022  0.2939
 6796TIP3    H141947   1.103   6.632   7.956 -2.1757 -1.6426 -2.1500
 6796TIP3    H241948   1.016   6.532   8.031 -0.0283 -0.4144  2.3536
 6797TIP3   OH241949   2.647   6.262   7.378 -0.2074 -0.3063 -0.7199
 6797TIP3    H141950   2.694   6.345   7.383 -0.8905  0.1105 -1.0426
 6797TIP3    H241951   2.664   6.220   7.462 -0.8522  0.7218 -0.0393
 6798TIP3   OH241952   5.199   1.402   8.760  0.2780  0.0893 -0.3092
 6798TIP3    H141953   5.257   1.366   8.692  0.9614  1.0810 -0.2692
 6798TIP3    H241954   5.165   1.482   8.723  1.2707  1.0603  0.7846
 6799TIP3   OH241955   6.369   4.772   8.799 -0.2915  0.0508  0.2705
 6799TIP3    H141956   6.379   4.677   8.805  2.3768  0.2570 -0.0815
 6799TIP3    H241957   6.279   4.785   8.769 -1.0505 -2.3016  1.3359
 6800TIP3   OH241958   5.886   3.132   1.672 -0.2849  0.0298 -0.1848
 6800TIP3    H141959   5.880   3.063   1.607  1.1362 -1.0674  0.7968
 6800TIP3    H241960   5.976   3.164   1.665 -0.1719  0.0259  1.1081
 6801TIP3   OH241961   4.170   3.580   0.730  0.4133  0.6253  0.3403
 6801TIP3    H141962   4.075   3.574   0.743  0.4054  1.5497  0.8106
 6801TIP3    H241963   4.201   3.631   0.805  1.3671 -0.1294  0.4910
 6802TIP3   OH241964   0.871   5.540   7.436 -0.2083  1.1900  0.1916
 6802TIP3    H141965   0.869   5.621   7.386 -0.2115  0.2602 -1.3925
 6802TIP3    H241966   0.868   5.471   7.369  2.0079 -0.1373  1.3302
 6803TIP3   OH241967   4.325   4.335   1.755 -0.1605 -0.0687 -0.0268
 6803TIP3    H141968   4.322   4.247   1.719  1.4864  0.0134 -0.4524
 6803TIP3    H241969   4.322   4.393   1.679 -1.2553  0.2667  0.2511
 6804TIP3   OH241970   4.947   5.330   7.942  0.0230  0.0433  0.2878
 6804TIP3    H141971   4.986   5.263   7.886  0.5163  1.3606 -1.0122
 6804TIP3    H241972   4.917   5.398   7.881  1.5335  2.0381  1.6174
 6805TIP3   OH241973   3.688   1.107   0.637 -0.7450  0.5357  0.0217
 6805TIP3    H141974   3.684   1.019   0.675 -0.9376 -0.3412 -1.9143
 6805TIP3    H241975   3.781   1.128   0.634 -0.4647 -0.7061 -1.7767
 6806TIP3   OH241976   5.978   4.053   0.485 -0.3222 -1.0211 -0.2435
 6806TIP3    H141977   5.899   4.034   0.435 -0.3690  3.3503 -2.2542
 6806TIP3    H241978   5.949   4.109   0.557  0.5076 -2.7864  1.5704
 6807TIP3   OH241979   0.694   3.568   0.993 -0.0382  0.5943  0.1387
 6807TIP3    H141980   0.748   3.566   1.072  0.7233  0.8516 -0.3727
 6807TIP3    H241981   0.741   3.514   0.930 -1.2384 -0.6058  0.2136
 6808TIP3   OH241982   5.877   1.781   7.991  0.0195 -0.3276 -0.1990
 6808TIP3    H141983   5.898   1.875   7.995 -3.7289  0.7044 -1.0944
 6808TIP3    H241984   5.938   1.746   7.926  1.7654  1.3474  0.4206
 6809TIP3   OH241985   0.226   4.713   1.663  0.2890 -0.0295 -0.1934
 6809TIP3    H141986   0.201   4.752   1.580  1.3238 -0.4244 -0.7010
 6809TIP3    H241987   0.179   4.630   1.666  0.8895 -0.3948 -0.7705
 6810TIP3   OH241988   1.182   5.873   0.831 -0.7536 -0.4001  0.3459
 6810TIP3    H141989   1.180   5.962   0.864  0.9234 -0.5804  1.0198
 6810TIP3    H241990   1.271   5.843   0.847 -0.8391 -1.6695 -1.2929
 6811TIP3   OH241991   4.818   4.546   8.439  0.3812  0.1124  0.4509
 6811TIP3    H141992   4.816   4.626   8.386  0.6256  0.0898  0.4073
 6811TIP3    H241993   4.780   4.572   8.523  2.3753  0.8223  1.1925
 6812TIP3   OH241994   6.248   0.984   7.132  0.0300  0.1055 -0.3330
 6812TIP3    H141995   6.261   0.891   7.147  0.9619 -0.1303 -2.2171
 6812TIP3    H241996   6.332   1.014   7.097 -0.2536  1.6623  0.2306
 6813TIP3   OH241997   0.474   6.290   7.404  0.6501  0.3828 -0.1199
 6813TIP3    H141998   0.471   6.328   7.317  0.4110  2.3821  0.6956
 6813TIP3    H241999   0.514   6.204   7.392  0.9076  0.7379 -2.1365
 6814TIP3   OH242000   5.963   1.284   2.439 -0.0186  0.3711 -0.0257
 6814TIP3    H142001   5.901   1.214   2.419  1.2837 -0.6152 -0.7859
 6814TIP3    H242002   5.911   1.351   2.483 -1.7327 -0.1358 -1.1992
 6815TIP3   OH242003   4.930   1.285   8.377 -0.1969  0.6017 -0.5471
 6815TIP3    H142004   4.950   1.376   8.397 -0.8750  0.2650  1.9954
 6815TIP3    H242005   5.007   1.237   8.406 -1.0232  0.1337  0.9966
 6816TIP3   OH242006   6.411   2.925   2.667  0.2536 -0.2105  0.1945
 6816TIP3    H142007   6.334   2.871   2.687 -0.4331  1.1901  1.5414
 6816TIP3    H242008   6.384   3.014   2.688  1.6243  0.5719 -1.2137
 6817TIP3   OH242009   1.656   3.701   0.868  0.4960  0.1059  0.1908
 6817TIP3    H142010   1.695   3.663   0.948  1.8111 -2.4455 -1.5034
 6817TIP3    H242011   1.706   3.781   0.853  0.9507  0.0625  1.3513
 6818TIP3   OH242012   0.017   5.195   8.230 -0.5049 -0.0759 -0.3803
 6818TIP3    H142013   0.049   5.153   8.310 -3.2809 -0.2763  0.7140
 6818TIP3    H242014  -0.038   5.266   8.261 -1.2925  0.1151 -2.1333
 6819TIP3   OH242015   2.321   0.041   2.048 -0.9657 -0.3147  0.5973
 6819TIP3    H142016   2.274   0.079   2.122  0.6851  0.5682  1.2502
 6819TIP3    H242017   2.410   0.077   2.055  0.2716 -3.0529  0.2957
 6820TIP3   OH242018   3.564   1.944   0.340  0.0265 -0.3997 -0.4680
 6820TIP3    H142019   3.517   1.985   0.267 -0.1457 -0.2291 -0.2613
 6820TIP3    H242020   3.495   1.905   0.393 -0.1513  1.9830  1.2019
 6821TIP3   OH242021   1.716   4.525   8.370 -0.3463  0.1590  0.1998
 6821TIP3    H142022   1.784   4.556   8.430  0.9288  0.0735 -1.1616
 6821TIP3    H242023   1.635   4.564   8.404  0.2675 -0.1282  2.1332
 6822TIP3   OH242024   0.493   2.635   0.402 -0.2672  0.1265 -0.3089
 6822TIP3    H142025   0.401   2.611   0.418  0.0694 -0.3730  0.9600
 6822TIP3    H242026   0.491   2.678   0.316 -1.6982  0.1945 -0.2760
 6823TIP3   OH242027   6.749   4.450   1.045  0.3215 -0.0127 -0.1929
 6823TIP3    H142028   6.736   4.493   1.130 -0.0685 -0.4180 -0.0451
 6823TIP3    H242029   6.837   4.413   1.050  0.6313  0.6900 -0.2871
 6824TIP3   OH242030   1.772   3.056   1.540  0.4009  0.3671 -0.5240
 6824TIP3    H142031   1.838   2.988   1.547  0.4848  0.1432 -2.8155
 6824TIP3    H242032   1.747   3.057   1.448 -1.7848  1.4064 -0.0038
 6825TIP3   OH242033   2.089   4.695   6.625 -0.4190  0.1867 -0.2707
 6825TIP3    H142034   2.177   4.714   6.591  0.1872  0.2725  1.2439
 6825TIP3    H242035   2.062   4.616   6.578  0.6453 -0.0653 -0.4970
 6826TIP3   OH242036   2.109   5.712   0.315 -0.3330  0.3636 -0.3155
 6826TIP3    H142037   2.069   5.671   0.391 -0.5018 -0.7930 -1.0121
 6826TIP3    H242038   2.088   5.805   0.325  0.3514  0.3653  1.4669
 6827TIP3   OH242039   1.250   0.214   7.078  0.0691 -0.3630 -0.1162
 6827TIP3    H142040   1.184   0.276   7.047 -2.6975 -2.8326  0.4309
 6827TIP3    H242041   1.321   0.270   7.110 -2.5676  2.5923  1.1823
 6828TIP3   OH242042   2.439   5.282   7.677  0.0031  0.8004  0.4922
 6828TIP3    H142043   2.495   5.272   7.601 -0.3271 -2.8032  0.5186
 6828TIP3    H242044   2.499   5.300   7.749  0.6249  1.3510 -0.1530
 6829TIP3   OH242045   5.000   2.999   1.099 -0.4948  0.1136 -0.2819
 6829TIP3    H142046   5.035   3.077   1.056  1.7842 -1.7790 -2.1258
 6829TIP3    H242047   4.939   2.962   1.036 -1.6687  0.3992  0.6415
 6830TIP3   OH242048   3.293   0.177   0.784 -0.6305 -0.1374  0.1932
 6830TIP3    H142049   3.220   0.172   0.846 -1.3909  0.5106 -0.6222
 6830TIP3    H242050   3.357   0.232   0.828 -1.2536  0.4967  0.3340
 6831TIP3   OH242051   0.516   1.264   7.485 -0.5111  0.3718 -0.2402
 6831TIP3    H142052   0.477   1.276   7.572  0.0075  0.0663  0.0358
 6831TIP3    H242053   0.606   1.295   7.494 -0.1967 -0.4489 -0.4401
 6832TIP3   OH242054   6.466   0.483   2.711  0.0785 -0.0760  0.0855
 6832TIP3    H142055   6.529   0.420   2.746 -0.5332 -1.2731 -0.9131
 6832TIP3    H242056   6.434   0.444   2.630 -2.1217  0.3561  0.6625
 6833TIP3   OH242057   0.908   2.722   2.711  0.8934  0.0292 -0.5869
 6833TIP3    H142058   0.878   2.659   2.646  0.8157  1.0880 -1.6107
 6833TIP3    H242059   0.875   2.806   2.679  1.6897  0.7016  0.3168
 6834TIP3   OH242060   3.607   0.412   1.913  0.0337  0.3191  0.1295
 6834TIP3    H142061   3.654   0.334   1.885  0.2905 -0.0873  1.6092
 6834TIP3    H242062   3.568   0.388   1.997 -1.7477  1.0700 -0.4322
 6835TIP3   OH242063   5.630   5.884   2.240 -0.5501 -0.3778 -0.3894
 6835TIP3    H142064   5.544   5.918   2.218 -1.3796 -0.8033  1.8582
 6835TIP3    H242065   5.612   5.816   2.306  1.5775  1.0162  1.8069
 6836TIP3   OH242066   0.325   3.369   8.608 -0.3099  0.0992  0.0113
 6836TIP3    H142067   0.331   3.283   8.650  1.2996  0.4905  0.6550
 6836TIP3    H242068   0.385   3.364   8.534 -1.3111  0.2208 -0.8391
 6837TIP3   OH242069   3.265   0.139   8.130  0.2134 -0.0154 -0.1818
 6837TIP3    H142070   3.306   0.097   8.055 -1.7015 -0.6752 -0.9244
 6837TIP3    H242071   3.320   0.215   8.149  2.5049 -1.5870 -0.2208
 6838TIP3   OH242072   3.525   6.720   8.840  0.0708  0.2082  0.1766
 6838TIP3    H142073   3.522   6.671   8.922 -0.5218 -0.7340 -0.3917
 6838TIP3    H242074   3.446   6.693   8.793 -0.6934  2.3137  0.1655
 6839TIP3   OH242075   1.817   6.598   8.559  0.2425 -0.3191  0.1561
 6839TIP3    H142076   1.815   6.541   8.636 -0.6351 -0.0344  0.3555
 6839TIP3    H242077   1.857   6.679   8.591 -1.4999  0.3572  0.7307
 6840TIP3   OH242078   5.988   1.081   2.764  0.3296 -0.1591 -0.7229
 6840TIP3    H142079   6.038   1.135   2.703 -1.6612 -0.1390 -2.4207
 6840TIP3    H242080   6.048   1.069   2.839  2.6137  0.3361 -2.3551
 6841TIP3   OH242081   5.123   1.669   0.002 -0.1912 -0.4356 -0.1157
 6841TIP3    H142082   5.214   1.647  -0.017 -0.0614  0.8621 -1.1226
 6841TIP3    H242083   5.120   1.682   0.097  0.5969 -0.7573 -0.0423
 6842TIP3   OH242084   3.116   1.397   0.568  0.1110  0.2819  0.6421
 6842TIP3    H142085   3.076   1.315   0.598  0.3788 -0.5293 -1.0739
 6842TIP3    H242086   3.079   1.410   0.481  0.1439  1.9754  0.8567
 6843TIP3   OH242087   0.403   0.944   0.732 -0.3667 -0.1639 -0.3215
 6843TIP3    H142088   0.395   0.851   0.713  0.2272 -0.4574  0.8011
 6843TIP3    H242089   0.316   0.969   0.764  0.1020 -0.9120  1.6818
 6844TIP3   OH242090   6.769   0.030   7.971 -0.7316  0.3205 -0.4945
 6844TIP3    H142091   6.778  -0.013   8.056 -0.0889  0.4368 -0.4977
 6844TIP3    H242092   6.675   0.027   7.952 -0.8629  0.1758  0.1574
 6845TIP3   OH242093   3.237   1.394   2.175  0.2529  0.1371 -0.3980
 6845TIP3    H142094   3.270   1.342   2.248  2.3372 -2.1656 -2.7715
 6845TIP3    H242095   3.144   1.407   2.195  0.0800 -2.8343  1.3271
 6846TIP3   OH242096   6.485   5.594   8.248  0.8191 -0.1095 -0.0945
 6846TIP3    H142097   6.506   5.687   8.237 -0.3081  0.1112 -0.4805
 6846TIP3    H242098   6.442   5.589   8.333  0.6760 -0.2488 -0.1753
 6847TIP3   OH242099   1.172   0.759   0.437 -0.2736  0.1346 -0.2489
 6847TIP3    H142100   1.155   0.783   0.346 -0.5993  0.7963 -0.0228
 6847TIP3    H242101   1.114   0.816   0.488 -0.6904 -0.7798  0.3411
 6848TIP3   OH242102   1.674   0.410   0.821 -0.5070  0.1924 -0.5744
 6848TIP3    H142103   1.709   0.361   0.895 -1.1275  0.9696  0.2585
 6848TIP3    H242104   1.581   0.388   0.820 -0.8337  1.4866 -0.0631
 6849TIP3   OH242105   5.548   5.189   0.981  0.0082 -0.9300  0.0102
 6849TIP3    H142106   5.639   5.159   0.991  0.8140  0.9056 -1.2414
 6849TIP3    H242107   5.526   5.167   0.891 -0.4192 -0.4239 -0.0094
 6850TIP3   OH242108   0.715   5.723   0.066 -0.6602 -0.1468  0.5590
 6850TIP3    H142109   0.706   5.729  -0.029  0.9966  1.3170  0.4523
 6850TIP3    H242110   0.630   5.750   0.100 -0.7333  1.0239 -0.4929
 6851TIP3   OH242111   1.411   3.542   1.803  0.4950  0.0781  0.0213
 6851TIP3    H142112   1.452   3.628   1.807 -1.0442  0.8140  0.7469
 6851TIP3    H242113   1.379   3.535   1.713  0.0963  0.5223  0.1277
 6852TIP3   OH242114   3.551   0.653   1.741  0.1089  0.1756 -0.1582
 6852TIP3    H142115   3.612   0.615   1.678  0.3013 -0.9720  0.6968
 6852TIP3    H242116   3.543   0.587   1.810 -0.2975  1.2868  0.8976
 6853TIP3   OH242117   0.712   0.399   0.387 -0.2481 -0.3876 -0.4138
 6853TIP3    H142118   0.748   0.477   0.431  0.1188  0.1004 -1.5434
 6853TIP3    H242119   0.625   0.389   0.424 -0.9691  1.5649 -1.4154
 6854TIP3   OH242120   4.986   3.566   2.499  0.1546  0.0550 -0.2674
 6854TIP3    H142121   4.980   3.470   2.493  0.6968  0.0798 -1.5670
 6854TIP3    H242122   5.000   3.594   2.409  0.3948  1.3392  0.1594
 6855TIP3   OH242123   4.007   6.770   1.438 -0.3124  0.1416  0.4371
 6855TIP3    H142124   3.999   6.729   1.525 -0.4876  0.0616  0.3828
 6855TIP3    H242125   3.931   6.828   1.431 -0.8472 -0.6050 -0.0660
 6856TIP3   OH242126   0.598   4.400   8.781  0.0855 -0.3064  0.3143
 6856TIP3    H142127   0.554   4.397   8.866  0.3585 -0.3203  0.4596
 6856TIP3    H242128   0.651   4.320   8.779 -1.0370 -1.0615 -0.4933
 6857TIP3   OH242129   1.964   2.177   2.211 -0.1507  0.4507  0.1758
 6857TIP3    H142130   1.941   2.262   2.173 -0.9855  0.4187  0.5753
 6857TIP3    H242131   1.902   2.116   2.172 -0.7936  0.3598  1.3046
 6858TIP3   OH242132   5.826   4.274   7.945  0.3364  0.4042 -0.0040
 6858TIP3    H142133   5.893   4.227   7.895  1.0876 -0.2569  1.5777
 6858TIP3    H242134   5.820   4.227   8.028 -1.1901  1.2264  0.3916
 6859TIP3   OH242135   2.765   4.738   0.745 -0.1527 -0.1752 -0.0964
 6859TIP3    H142136   2.816   4.747   0.826  0.0591  2.1567 -0.4290
 6859TIP3    H242137   2.710   4.661   0.760  0.3485 -0.1927  1.9950
 6860TIP3   OH242138   5.402   1.631   8.925  0.0132  0.0783  0.2114
 6860TIP3    H142139   5.433   1.647   8.836  1.4525  1.2844  0.8936
 6860TIP3    H242140   5.430   1.541   8.944  0.3191  0.0566 -0.3054
 6861TIP3   OH242141   6.578   2.482   8.078  0.2233 -0.2735 -0.0106
 6861TIP3    H142142   6.529   2.453   8.155  2.0580 -1.7509  0.6675
 6861TIP3    H242143   6.596   2.575   8.094 -1.8399  0.1890 -0.0566
 6862TIP3   OH242144   1.143   4.675   0.878  0.4985 -0.0166 -0.0919
 6862TIP3    H142145   1.131   4.584   0.852  0.8148  0.2979 -1.4304
 6862TIP3    H242146   1.167   4.720   0.797 -0.4751  1.4175  0.3659
 6863TIP3   OH242147   1.306   0.310   1.239  0.1907  0.0229 -0.4177
 6863TIP3    H142148   1.252   0.382   1.205 -0.1158 -0.1620 -0.3263
 6863TIP3    H242149   1.242   0.245   1.269  0.4599  0.1072  0.3571
 6864TIP3   OH242150   3.196   3.415   2.445  0.4219  0.3959 -0.1589
 6864TIP3    H142151   3.139   3.422   2.368 -0.4431  0.2568  0.4601
 6864TIP3    H242152   3.191   3.501   2.487  0.5610  0.3415 -0.0284
 6865TIP3   OH242153   1.991   1.298   0.230  0.1748  0.6026 -0.4085
 6865TIP3    H142154   2.048   1.273   0.158  1.3123  0.5295  0.4872
 6865TIP3    H242155   1.966   1.215   0.272 -0.3906  0.6506 -0.6383
 6866TIP3   OH242156   3.948   0.791   1.763 -0.4344  0.3234 -0.3878
 6866TIP3    H142157   3.932   0.697   1.765 -0.3627  0.2446 -2.1415
 6866TIP3    H242158   3.942   0.819   1.855  1.3410 -1.6739  0.4117
 6867TIP3   OH242159   5.972   0.298   8.401 -0.2837 -0.0566  0.6044
 6867TIP3    H142160   6.054   0.324   8.358 -0.1499  0.4125  1.1327
 6867TIP3    H242161   5.944   0.220   8.353  1.5418 -1.4692  1.6792
 6868TIP3   OH242162   2.829   1.068   2.440  0.1106 -0.7661 -0.1403
 6868TIP3    H142163   2.842   1.018   2.520  0.3557 -1.2228 -0.4612
 6868TIP3    H242164   2.813   1.158   2.470 -1.0519 -1.1524  0.4801
 6869TIP3   OH242165   5.922   1.309   0.311 -0.2064  0.1884 -0.6395
 6869TIP3    H142166   5.966   1.235   0.269 -2.5790 -1.5243 -0.2486
 6869TIP3    H242167   5.860   1.341   0.245 -1.1243  0.0552  0.1455
 6870TIP3   OH242168   0.604   3.642   7.691 -0.0312  0.0591  0.4133
 6870TIP3    H142169   0.695   3.667   7.706 -0.8052  3.2573  0.5990
 6870TIP3    H242170   0.560   3.659   7.774 -0.9452 -0.7961  0.1291
 6871TIP3   OH242171   2.475   5.115   0.166 -0.1652  0.0170  0.7548
 6871TIP3    H142172   2.431   5.049   0.219  0.0645  0.1712  1.1395
 6871TIP3    H242173   2.541   5.067   0.117 -0.7922 -0.2251  0.1280
 6872TIP3   OH242174   2.102   5.830   8.625 -0.4392  0.0390 -0.3814
 6872TIP3    H142175   2.146   5.781   8.694 -0.2252  0.3413 -0.3018
 6872TIP3    H242176   2.049   5.895   8.671 -0.8372 -0.2108 -0.4825
 6873TIP3   OH242177   3.435   3.351   8.217 -0.4730  0.0208 -0.5314
 6873TIP3    H142178   3.500   3.335   8.286  0.2347 -0.3267 -1.2600
 6873TIP3    H242179   3.475   3.316   8.138 -0.9234  1.1473 -1.2883
 6874TIP3   OH242180   5.163   6.626   0.913  0.1275 -0.9261 -0.1318
 6874TIP3    H142181   5.084   6.572   0.918 -0.5252  0.0742  0.8269
 6874TIP3    H242182   5.168   6.652   0.821 -2.5769  1.6992  0.3208
 6875TIP3   OH242183   2.301   3.982   1.873 -0.4925 -0.1112  0.1099
 6875TIP3    H142184   2.337   4.006   1.788 -1.6823 -0.0439 -0.4042
 6875TIP3    H242185   2.359   3.914   1.906 -0.8904 -1.2831 -1.4899
 6876TIP3   OH242186   1.844   0.955   8.133 -0.3322  0.2153  0.2813
 6876TIP3    H142187   1.873   0.889   8.196  0.1586  0.6391  0.5121
 6876TIP3    H242188   1.924   0.982   8.088 -0.5486  0.5384  0.0817
 6877TIP3   OH242189   1.982   2.798   2.108  0.0831  0.3579  0.0569
 6877TIP3    H142190   1.909   2.859   2.100 -1.5393 -1.6230 -1.4201
 6877TIP3    H242191   1.987   2.755   2.023  0.1972 -2.5430  1.4027
 6878TIP3   OH242192   3.734   6.294   1.417  0.2304 -0.1760  0.4679
 6878TIP3    H142193   3.788   6.223   1.452  0.4940 -0.3777 -0.3240
 6878TIP3    H242194   3.687   6.254   1.344 -0.4773  0.1774  0.7264
 6879TIP3   OH242195   1.809   2.271   8.611  0.3174  0.7867  0.0629
 6879TIP3    H142196   1.752   2.212   8.660 -0.7444  0.9128 -0.9785
 6879TIP3    H242197   1.751   2.314   8.548  1.4883  1.2309 -0.7486
 6880TIP3   OH242198   2.514   1.930   8.796 -0.0936  0.1374 -0.3766
 6880TIP3    H142199   2.438   1.955   8.744 -0.7676  0.8922  0.9239
 6880TIP3    H242200   2.584   1.918   8.732 -0.2113  3.4603 -1.3146
 6881TIP3   OH242201   2.997   2.094   2.165 -0.6868 -0.1108 -0.4131
 6881TIP3    H142202   2.959   2.006   2.159  1.3802 -1.1037 -0.1500
 6881TIP3    H242203   2.946   2.138   2.233 -0.9282 -1.6170  0.4434
 6882TIP3   OH242204   3.142   1.962   2.960 -0.2317  0.5495 -0.2707
 6882TIP3    H142205   3.193   1.968   2.879  0.8177  1.1094  0.4077
 6882TIP3    H242206   3.188   2.019   3.022 -1.2918  0.5208  0.5836
 6883TIP3   OH242207   3.417   3.696   1.828 -0.0436 -0.1763 -0.2803
 6883TIP3    H142208   3.502   3.740   1.824 -0.4400  0.5471 -0.8553
 6883TIP3    H242209   3.353   3.766   1.824 -0.6878 -0.7882 -0.9417
 6884TIP3   OH242210   6.663   2.716   2.155  0.3115 -0.1877  0.2987
 6884TIP3    H142211   6.612   2.796   2.169 -0.7194 -0.8540  0.5024
 6884TIP3    H242212   6.630   2.680   2.073  1.7574  0.3083 -0.5264
 6885TIP3   OH242213   1.692   4.687   0.347  0.2222 -0.0169 -0.5880
 6885TIP3    H142214   1.744   4.708   0.270 -0.7402  0.6170 -1.0848
 6885TIP3    H242215   1.746   4.715   0.421  1.5665 -1.4896 -0.9457
 6886TIP3   OH242216   1.272   2.294   2.651 -0.0011  0.6705 -0.0848
 6886TIP3    H142217   1.276   2.309   2.746  1.0256  1.3834 -0.2286
 6886TIP3    H242218   1.325   2.364   2.613  1.4914 -0.8935 -1.0540
 6887TIP3   OH242219   2.644   3.296   1.293 -0.1023  0.2776 -0.0848
 6887TIP3    H142220   2.600   3.328   1.372 -0.2743  2.2156 -0.9130
 6887TIP3    H242221   2.724   3.254   1.326 -1.1801 -0.8253  1.2361
 6888TIP3   OH242222   5.694   6.130   1.645  0.2871 -0.3362 -0.1226
 6888TIP3    H142223   5.772   6.078   1.661  1.2940  0.5871 -1.7253
 6888TIP3    H242224   5.681   6.180   1.725  3.7347  2.4222 -1.0478
 6889TIP3   OH242225   6.441   6.612   2.304 -0.2261 -0.4081 -0.3423
 6889TIP3    H142226   6.474   6.699   2.283 -1.1289 -0.0734 -0.4142
 6889TIP3    H242227   6.519   6.561   2.324  0.4706 -0.0911 -2.0993
 6890TIP3   OH242228   1.383   0.603   7.889  0.3370  0.3907 -0.1976
 6890TIP3    H142229   1.427   0.660   7.952  1.9235  0.5703 -1.4137
 6890TIP3    H242230   1.418   0.516   7.906  0.3679  0.3458 -0.4834
 6891TIP3   OH242231   3.837   0.116   0.105 -0.0038 -0.0925 -0.6149
 6891TIP3    H142232   3.846   0.115   0.201 -2.7938 -1.3569 -0.2657
 6891TIP3    H242233   3.906   0.058   0.074  1.6263  1.1582  0.5005
 6892TIP3   OH242234   1.786   0.031   1.263 -0.3997  0.0023 -0.2259
 6892TIP3    H142235   1.748   0.071   1.341 -0.4363 -0.1246 -0.1788
 6892TIP3    H242236   1.756  -0.059   1.265  1.8152 -0.7879  1.0991
 6893TIP3   OH242237   5.157   4.512   6.879 -0.2166  0.1676  0.0885
 6893TIP3    H142238   5.210   4.447   6.926 -2.7800 -0.3399  2.5840
 6893TIP3    H242239   5.072   4.470   6.868 -1.1659  2.1504 -0.6281
 6894TIP3   OH242240   3.810   3.706   1.444  0.1630  0.1922 -0.2630
 6894TIP3    H142241   3.787   3.665   1.360 -0.9419 -0.9378  0.5479
 6894TIP3    H242242   3.902   3.729   1.435  0.8972 -2.5704 -0.7910
 6895TIP3   OH242243   3.728   3.910   6.703 -0.5425  0.1068 -0.1193
 6895TIP3    H142244   3.819   3.931   6.681 -1.2775  0.8201 -2.7348
 6895TIP3    H242245   3.703   3.977   6.766  1.3638 -1.4703  2.5442
 6896TIP3   OH242246   2.474   1.454   1.431 -0.1891 -0.7661 -0.4384
 6896TIP3    H142247   2.569   1.440   1.428 -0.3590 -1.9867 -0.9416
 6896TIP3    H242248   2.462   1.524   1.494  0.9772 -1.3023  0.4249
 6897TIP3   OH242249   0.465   0.481   8.074 -0.1683  0.3532  0.0600
 6897TIP3    H142250   0.387   0.526   8.044 -0.6296  1.1293  2.2043
 6897TIP3    H242251   0.479   0.411   8.010 -1.1321  1.7235 -1.7324
 6898TIP3   OH242252   6.208   1.855   0.734 -0.5659  0.1074 -0.7034
 6898TIP3    H142253   6.229   1.890   0.647  0.6286 -0.0866 -0.5058
 6898TIP3    H242254   6.167   1.929   0.780  1.3419  1.1057 -0.5028
 6899TIP3   OH242255   4.287   1.097   1.217 -0.0151 -0.1160 -0.2754
 6899TIP3    H142256   4.271   1.033   1.286  1.3295 -1.0223 -0.7682
 6899TIP3    H242257   4.302   1.179   1.264  0.8698 -0.7167  0.5325
 6900TIP3   OH242258   1.670   1.723   0.698  0.3642  0.2333  0.2694
 6900TIP3    H142259   1.689   1.660   0.628  0.5879 -0.5287  0.9905
 6900TIP3    H242260   1.579   1.747   0.686  1.1882  2.6282 -2.2273
 6901TIP3   OH242261   5.204   0.544   8.380 -0.7292  0.3555  0.6860
 6901TIP3    H142262   5.165   0.631   8.389 -2.2827 -0.4174  1.7761
 6901TIP3    H242263   5.290   0.552   8.422 -0.4479  1.5850 -0.0610
 6902TIP3   OH242264   0.937   2.205   0.261 -0.5238 -0.2024 -0.1225
 6902TIP3    H142265   0.906   2.292   0.235  3.4080  1.1320 -0.9931
 6902TIP3    H242266   0.945   2.210   0.356  0.9681  0.9513 -0.2735
 6903TIP3   OH242267   6.435   4.044   8.434  0.2904  0.1853  0.3167
 6903TIP3    H142268   6.443   4.127   8.388  0.4099  0.4710  0.8378
 6903TIP3    H242269   6.525   4.011   8.439  0.1881 -0.1956 -0.2798
 6904TIP3   OH242270   4.226   0.368   0.269 -0.2477 -0.3073  0.2650
 6904TIP3    H142271   4.243   0.282   0.309  1.5588  0.4623  1.2623
 6904TIP3    H242272   4.257   0.358   0.179 -0.1198 -0.7249  0.3501
 6905TIP3   OH242273   1.704   2.484   2.270  0.9269  0.2077  0.2551
 6905TIP3    H142274   1.712   2.556   2.332  1.3111 -0.0533  0.5158
 6905TIP3    H242275   1.793   2.470   2.237  1.2534 -1.4537  1.7174
 6906TIP3   OH242276   2.012   2.436   0.679  0.4725  0.0123 -0.6066
 6906TIP3    H142277   2.107   2.445   0.688  1.0980 -2.3117 -3.4010
 6906TIP3    H242278   1.999   2.422   0.585 -2.3481 -2.3335  0.0135
 6907TIP3   OH242279   5.512   1.095   2.179  0.2285  0.1639  0.1233
 6907TIP3    H142280   5.484   1.065   2.092  0.5492 -0.2006  0.1420
 6907TIP3    H242281   5.582   1.159   2.160 -0.4581  0.9190  0.0836
 6908TIP3   OH242282   2.801   3.237   7.077 -0.3406 -0.3604 -0.1506
 6908TIP3    H142283   2.741   3.211   7.008  1.0737  1.5376 -2.2754
 6908TIP3    H242284   2.887   3.209   7.046  0.8613  3.7604 -1.2078
 6909TIP3   OH242285   5.546   6.702   1.586  0.1139  0.0014 -0.7097
 6909TIP3    H142286   5.458   6.672   1.606 -0.1721  1.4683  0.4965
 6909TIP3    H242287   5.594   6.691   1.668  0.6203  0.5757 -0.9179
 6910TIP3   OH242288   3.136   4.498   1.753  0.4911 -0.1701 -0.1956
 6910TIP3    H142289   3.130   4.414   1.799 -0.8246 -0.6783 -1.2165
 6910TIP3    H242290   3.105   4.478   1.664 -0.4700  1.5397 -0.2685
 6911TIP3   OH242291   0.947   4.531   7.032 -0.4890  0.2171 -0.1225
 6911TIP3    H142292   0.993   4.581   6.965  1.3107 -0.2222  0.7147
 6911TIP3    H242293   0.873   4.491   6.986 -0.3547  1.3667 -1.4124
 6912TIP3   OH242294   2.326   1.721   0.899 -0.7779  0.3538  0.4654
 6912TIP3    H142295   2.397   1.672   0.859  0.1879 -0.1605  2.6513
 6912TIP3    H242296   2.307   1.791   0.837  0.8924 -0.1314 -0.6635
 6913TIP3   OH242297   1.723   3.944   1.379 -0.2513  0.6070 -0.0163
 6913TIP3    H142298   1.640   3.986   1.356 -0.0632  1.3900  0.6850
 6913TIP3    H242299   1.728   3.867   1.322 -1.8688  0.0559  0.5424
 6914TIP3   OH242300   4.360   3.415   7.533 -0.0469  0.4235 -0.1961
 6914TIP3    H142301   4.433   3.363   7.567 -0.2051  1.2852  1.5792
 6914TIP3    H242302   4.378   3.504   7.562 -2.4958  0.4257  1.5762
 6915TIP3   OH242303   4.134   4.728   7.315  0.2018  0.3954  0.0556
 6915TIP3    H142304   4.124   4.651   7.258 -0.8619  0.4647  0.1478
 6915TIP3    H242305   4.129   4.802   7.255  3.5228  0.4174 -0.3991
 6916TIP3   OH242306   3.423   5.031   0.654  0.1928  0.5145  0.0599
 6916TIP3    H142307   3.459   5.120   0.661 -0.0335  0.6739 -0.7382
 6916TIP3    H242308   3.418   5.000   0.744  1.4876  0.8301  0.2577
 6917TIP3   OH242309   1.075   3.379   0.660 -0.2962  0.2155  0.5459
 6917TIP3    H142310   1.082   3.473   0.679 -1.7538  0.6335 -0.7561
 6917TIP3    H242311   1.004   3.373   0.595 -1.1388 -1.9293  1.5846
 6918TIP3   OH242312   3.374   5.224   7.461 -0.1346  0.4982 -0.1904
 6918TIP3    H142313   3.370   5.316   7.484  0.5098  0.4186  0.2642
 6918TIP3    H242314   3.285   5.192   7.474 -0.4554  1.1427 -0.7409
 6919TIP3   OH242315   5.087   2.532   8.928  0.2223  0.0056 -0.1214
 6919TIP3    H142316   5.148   2.514   8.999  0.8334 -2.2255 -1.1116
 6919TIP3    H242317   5.043   2.613   8.953  0.1026 -0.8968  2.9803
 6920TIP3   OH242318   6.773   5.258   7.593  0.2933 -0.3378 -0.0223
 6920TIP3    H142319   6.849   5.204   7.613 -1.8100 -2.4323  3.2956
 6920TIP3    H242320   6.780   5.332   7.653  0.5850  0.4904 -1.0381
 6921TIP3   OH242321   3.246   3.755   0.151 -0.0342  0.0864 -0.3788
 6921TIP3    H142322   3.200   3.810   0.088 -1.9694 -0.7338  0.2647
 6921TIP3    H242323   3.247   3.806   0.231  0.1591  0.0923 -0.3849
 6922TIP3   OH242324   1.783   3.479   8.131 -0.3029 -0.1106  1.0022
 6922TIP3    H142325   1.705   3.433   8.161 -2.2331  2.4420  0.2762
 6922TIP3    H242326   1.780   3.470   8.035 -0.5530  1.2141  0.8747
 6923TIP3   OH242327   3.641   2.048   8.394  0.4115 -0.0591 -0.0111
 6923TIP3    H142328   3.602   2.045   8.306 -0.7238  0.6989  0.4414
 6923TIP3    H242329   3.645   2.141   8.415 -2.1151 -0.2707  1.8969
 6924TIP3   OH242330   0.029   6.026   8.494  0.8564  0.5610  0.3374
 6924TIP3    H142331  -0.055   6.072   8.496  1.4801  1.7948  3.1235
 6924TIP3    H242332   0.040   5.992   8.583  2.7643 -0.5947 -0.2771
 6925TIP3   OH242333   6.656   6.095   1.329 -0.3547 -0.7354 -0.3019
 6925TIP3    H142334   6.730   6.101   1.390 -0.4580  0.1688 -0.2571
 6925TIP3    H242335   6.621   6.184   1.324 -1.4607 -1.1494 -0.3046
 6926TIP3   OH242336   1.260   1.305   2.603 -0.6006 -0.5521  0.0769
 6926TIP3    H142337   1.354   1.309   2.586 -0.3521  1.0549  1.5056
 6926TIP3    H242338   1.242   1.383   2.656 -2.5075 -1.4795  0.9050
 6927TIP3   OH242339   2.244   4.823   0.368 -0.3598  0.3160  0.7297
 6927TIP3    H142340   2.213   4.864   0.288 -1.0923  0.2758  0.9884
 6927TIP3    H242341   2.224   4.730   0.357  1.1856  0.0122  0.1973
 6928TIP3   OH242342   2.185   3.443   0.651 -0.2437  0.7858 -0.2867
 6928TIP3    H142343   2.228   3.398   0.578  1.5187  0.4767  0.8673
 6928TIP3    H242344   2.104   3.393   0.666  1.3502 -1.7317  0.5637
 6929TIP3   OH242345   0.579   1.474   2.597 -0.5462  0.0543 -0.3574
 6929TIP3    H142346   0.486   1.449   2.594 -0.3839 -0.5101 -2.5258
 6929TIP3    H242347   0.609   1.465   2.506  1.1602  2.0886 -0.0673
 6930TIP3   OH242348   2.144   3.701   8.617 -0.5308 -0.2976  0.0546
 6930TIP3    H142349   2.227   3.670   8.652 -1.6455 -2.1005  1.2935
 6930TIP3    H242350   2.148   3.680   8.524  0.7186  0.4774 -0.0915
 6931TIP3   OH242351   1.051   0.795   1.276  0.0392 -0.3418 -0.2376
 6931TIP3    H142352   1.101   0.732   1.328  1.3951  0.8361 -0.0647
 6931TIP3    H242353   0.960   0.777   1.298  0.4994 -0.9684  1.2725
 6932TIP3   OH242354   3.541   3.689   1.419  0.0547  0.1202  0.5068
 6932TIP3    H142355   3.620   3.696   1.472  0.8528  2.2100 -0.8397
 6932TIP3    H242356   3.480   3.639   1.474  2.2244 -1.4924  1.6179
 6933TIP3   OH242357   3.819   4.903   1.647  0.1969 -0.1374  0.1310
 6933TIP3    H142358   3.898   4.942   1.610  1.2929 -0.6813  1.8006
 6933TIP3    H242359   3.830   4.809   1.634  0.6362 -0.3412  1.8443
 6934TIP3   OH242360   4.597   1.683   1.887  0.0964 -0.1439  0.3304
 6934TIP3    H142361   4.509   1.654   1.912  0.2086  1.0385  2.2643
 6934TIP3    H242362   4.656   1.634   1.945  0.5308  0.8920  0.7827
 6935TIP3   OH242363   3.642   2.434   2.007  0.0987 -0.0917 -0.3377
 6935TIP3    H142364   3.629   2.380   2.085 -3.4526  1.5370  0.4460
 6935TIP3    H242365   3.643   2.524   2.040  0.6476  0.5531 -2.0084
 6936TIP3   OH242366   0.882   3.923   1.078 -0.2945 -0.3612 -0.1571
 6936TIP3    H142367   0.792   3.946   1.099 -1.0671 -1.0139 -2.4839
 6936TIP3    H242368   0.880   3.896   0.986  2.2904 -0.3339 -0.3107
 6937TIP3   OH242369   6.769   6.736   0.344 -0.1975  0.7729  0.0677
 6937TIP3    H142370   6.724   6.821   0.344  0.4678  1.2286 -2.4501
 6937TIP3    H242371   6.698   6.672   0.349 -0.7737  1.4588  1.0809
 6938TIP3   OH242372   5.240   2.830   2.945  0.1132  0.3286  0.5918
 6938TIP3    H142373   5.257   2.909   2.894 -2.8629  1.8713  1.8077
 6938TIP3    H242374   5.325   2.809   2.984  1.6726  1.0996 -2.0735
 6939TIP3   OH242375   0.361   6.398   8.893  0.2334 -0.2667  0.1948
 6939TIP3    H142376   0.388   6.393   8.801 -0.6693  2.1469 -0.2709
 6939TIP3    H242377   0.299   6.326   8.903  1.9799 -1.9513 -0.4203
 6940TIP3   OH242378   4.049   3.238   7.898  0.3522  0.3843 -0.4317
 6940TIP3    H142379   4.059   3.153   7.941  1.9890  0.4495 -0.6182
 6940TIP3    H242380   4.048   3.217   7.805  0.1825  0.5164 -0.4584
 6941TIP3   OH242381   4.102   5.200   1.228 -0.1266 -0.3791  0.0283
 6941TIP3    H142382   4.198   5.203   1.235 -0.1761 -1.2463  1.3998
 6941TIP3    H242383   4.079   5.109   1.249 -1.3910  0.3444  2.0040
 6942TIP3   OH242384   5.976   3.238   1.923 -0.4973  0.7329  0.3552
 6942TIP3    H142385   6.051   3.296   1.909 -0.9461  0.7458 -2.7668
 6942TIP3    H242386   5.921   3.252   1.846 -3.2886  0.0342  2.0752
 6943TIP3   OH242387   4.517   5.408   1.734 -0.1251  0.1257 -0.2264
 6943TIP3    H142388   4.506   5.387   1.641 -0.0907 -1.4844  0.1051
 6943TIP3    H242389   4.437   5.375   1.775  0.2931 -0.0533  0.4480
 6944TIP3   OH242390   3.756   5.662   1.251  0.1705 -0.2109  0.4285
 6944TIP3    H142391   3.803   5.610   1.317 -0.0037  0.4761  1.0995
 6944TIP3    H242392   3.803   5.644   1.170 -0.2409 -1.8782  0.5258
 6945TIP3   OH242393   3.810   4.535   1.477  0.2545  0.3480 -0.3901
 6945TIP3    H142394   3.748   4.583   1.531  1.1800  0.6648  0.4264
 6945TIP3    H242395   3.758   4.500   1.405 -1.3582 -1.4412  1.5198
 6946TIP3   OH242396   4.147   1.907   8.509  0.3547  0.3378  0.8992
 6946TIP3    H142397   4.221   1.860   8.548 -0.2100 -1.1495  0.2211
 6946TIP3    H242398   4.074   1.892   8.569  0.5234  1.6865  1.4910
 6947TIP3   OH242399   3.827   1.641   7.613  0.7829  0.0036  0.0800
 6947TIP3    H142400   3.898   1.701   7.589  0.7931  0.5066  1.2895
 6947TIP3    H242401   3.871   1.568   7.657  0.4733  1.2131  2.5716
 6948TIP3   OH242402   1.277   6.470   8.134 -0.7835  0.1434 -0.1611
 6948TIP3    H142403   1.260   6.538   8.199  2.4269  1.4755 -0.5163
 6948TIP3    H242404   1.238   6.391   8.172 -0.5979  1.2223  2.5406
 6949TIP3   OH242405   0.587   3.201   8.082  0.1983 -0.1750 -0.4648
 6949TIP3    H142406   0.604   3.282   8.034 -1.1616  1.2489  1.3257
 6949TIP3    H242407   0.602   3.131   8.018  2.1015  1.4184 -1.8626
 6950TIP3   OH242408   1.067   2.586   8.068  0.2173 -0.3325  0.1208
 6950TIP3    H142409   1.008   2.527   8.023  1.4996 -1.4937 -0.0897
 6950TIP3    H242410   1.098   2.646   8.000  0.6385 -0.8489 -0.1513
 6951TIP3   OH242411   0.229   3.945   7.964 -0.5450 -0.2436  0.2046
 6951TIP3    H142412   0.160   3.966   7.901  1.3332 -0.4029 -2.0471
 6951TIP3    H242413   0.293   4.015   7.952  1.5398 -2.2131 -0.7365
 6952TIP3   OH242414   4.324   1.127   8.717 -0.0533 -0.0336  0.4859
 6952TIP3    H142415   4.363   1.123   8.805  1.7662 -1.2411 -0.3262
 6952TIP3    H242416   4.364   1.204   8.677  1.3691 -1.0913 -0.2332
 6953TIP3   OH242417   1.435   1.917   1.399  0.0856 -0.0564  0.4108
 6953TIP3    H142418   1.501   1.984   1.418 -1.3608  1.8998 -1.0319
 6953TIP3    H242419   1.351   1.962   1.412 -0.9723 -1.9591  0.5179
 6954TIP3   OH242420   4.593   2.528   6.627  0.0422  0.9203  0.0152
 6954TIP3    H142421   4.598   2.545   6.721 -0.6740 -0.8458  0.4156
 6954TIP3    H242422   4.503   2.549   6.603  0.1613  1.1505 -0.2512
 6955TIP3   OH242423   4.420   4.367   2.276 -0.3141 -0.0344 -0.3124
 6955TIP3    H142424   4.423   4.425   2.351 -0.0936 -0.5597  0.0906
 6955TIP3    H242425   4.372   4.290   2.306  0.3906 -0.5540 -0.4789
 6956TIP3   OH242426   1.968   0.026   0.171  0.4862  0.0783  0.3210
 6956TIP3    H142427   1.894  -0.023   0.207  1.8965 -0.6971  2.3454
 6956TIP3    H242428   2.010   0.065   0.247  0.4753  3.0163 -1.0730
 6957TIP3   OH242429   1.159   6.427   8.648  0.4078  0.4788 -0.1950
 6957TIP3    H142430   1.219   6.418   8.573 -0.7948 -1.3237 -1.0305
 6957TIP3    H242431   1.109   6.345   8.647 -1.0759  1.3245  1.3379
 6958TIP3   OH242432   5.353   6.541   6.965 -0.1193 -0.2311 -0.2998
 6958TIP3    H142433   5.445   6.553   6.990 -0.5669  0.0068  1.3241
 6958TIP3    H242434   5.356   6.471   6.900  1.1156 -1.0697  0.5949
 6959TIP3   OH242435   5.968   5.445   2.397 -0.5883  0.0170  0.2234
 6959TIP3    H142436   5.887   5.407   2.362 -0.3156 -0.8755  0.5259
 6959TIP3    H242437   6.010   5.372   2.442  0.3700  0.4841  0.0989
 6960TIP3   OH242438   4.308   5.877   1.373  0.2194 -0.2466 -0.2134
 6960TIP3    H142439   4.307   5.933   1.451 -0.2252 -1.3458  0.5995
 6960TIP3    H242440   4.378   5.814   1.390 -0.2578 -0.8491 -0.4311
 6961TIP3   OH242441   6.690   2.205   8.142 -0.1105  0.3262 -0.0282
 6961TIP3    H142442   6.690   2.295   8.111 -1.2919  0.5742  0.6516
 6961TIP3    H242443   6.606   2.169   8.116  0.0512 -0.3572  0.3461
 6962TIP3   OH242444   3.038   1.529   0.306  0.0585 -0.6279 -0.1700
 6962TIP3    H142445   2.964   1.514   0.247  0.8575  2.1673 -2.0509
 6962TIP3    H242446   3.116   1.507   0.254  0.6960 -0.7869  0.8146
 6963TIP3   OH242447   2.668   5.828   0.673 -0.2542  0.3654  0.1448
 6963TIP3    H142448   2.725   5.902   0.698  0.6539 -0.3924  0.3852
 6963TIP3    H242449   2.629   5.799   0.755  1.9302 -1.4672  0.6330
 6964TIP3   OH242450   5.585   2.634   8.915  0.9239 -0.2921 -0.8788
 6964TIP3    H142451   5.580   2.626   9.010  0.4310  0.4668 -0.8269
 6964TIP3    H242452   5.549   2.552   8.881 -1.7242  0.5870 -0.4099
 6965TIP3   OH242453   5.736   3.921   8.420 -0.3822 -0.2015  0.3492
 6965TIP3    H142454   5.724   3.949   8.511 -0.3058 -0.1361  0.3396
 6965TIP3    H242455   5.825   3.948   8.399 -0.3341 -0.3875  0.3147
 6966TIP3   OH242456   1.314   0.070   8.598 -0.2140 -0.8386  0.2310
 6966TIP3    H142457   1.227   0.034   8.618 -1.3385 -0.1447 -2.7389
 6966TIP3    H242458   1.298   0.129   8.524  3.0312 -2.0332 -1.6441
 6967TIP3   OH242459   4.855   0.959   0.229  0.1768 -0.2771  0.6849
 6967TIP3    H142460   4.921   1.004   0.175 -2.3945  3.6102  0.4509
 6967TIP3    H242461   4.793   0.924   0.165  0.2071 -0.9221  1.0050
 6968TIP3   OH242462   0.288   1.104   8.171 -0.5257 -0.1710 -0.7160
 6968TIP3    H142463   0.252   1.181   8.128 -0.5081  0.7859  0.9005
 6968TIP3    H242464   0.214   1.068   8.222  0.5641  1.7040  2.4832
 6969TIP3   OH242465   6.749   0.202   8.385  0.0938 -0.3492  0.3636
 6969TIP3    H142466   6.716   0.189   8.474 -2.3693  0.8681 -0.3079
 6969TIP3    H242467   6.725   0.122   8.339  0.2706 -0.4655  0.4692
 6970TIP3   OH242468   1.634   2.110   1.413  0.0923  0.3862 -0.4440
 6970TIP3    H142469   1.593   2.192   1.385  0.1845 -0.3114 -2.8035
 6970TIP3    H242470   1.728   2.125   1.402  0.3002  0.7148  1.4037
 6971TIP3   OH242471   3.484   0.741   0.126 -0.4319 -0.3366  0.5102
 6971TIP3    H142472   3.391   0.750   0.104 -0.1600  1.2022 -0.0953
 6971TIP3    H242473   3.523   0.701   0.048 -0.3120  0.5273  0.1250
 6972TIP3   OH242474   4.602   3.494   7.364  0.1675  0.1366  0.2091
 6972TIP3    H142475   4.569   3.580   7.391  2.7650  0.9667  1.1584
 6972TIP3    H242476   4.591   3.493   7.269 -1.7848  0.6082  0.3843
 6973TIP3   OH242477   3.600   4.643   1.611 -0.0467 -0.4429  0.6189
 6973TIP3    H142478   3.524   4.700   1.627 -0.6794 -1.1857  0.3091
 6973TIP3    H242479   3.603   4.585   1.687  0.6547  0.0458  0.9778
 6974TIP3   OH242480   3.229   0.875   1.989  0.7418  0.9092  0.7046
 6974TIP3    H142481   3.208   0.782   1.981 -0.1242  1.2148 -0.9302
 6974TIP3    H242482   3.246   0.887   2.083 -0.2771 -0.6575  1.1387
 6975TIP3   OH242483   0.126   6.351   1.207  0.6443  0.3608 -0.3441
 6975TIP3    H142484   0.095   6.430   1.250 -1.9487  1.0973 -3.1836
 6975TIP3    H242485   0.122   6.371   1.113 -2.2875 -3.6817 -1.3949
 6976TIP3   OH242486   3.376   1.029   0.194  0.4117 -0.2966  0.1635
 6976TIP3    H142487   3.440   0.969   0.232 -0.4797 -0.4794  1.4394
 6976TIP3    H242488   3.360   0.995   0.106  2.2008 -0.1260 -0.2645
 6977TIP3   OH242489   3.955   3.302   0.039  0.2412 -0.0713 -0.7011
 6977TIP3    H142490   4.047   3.290   0.062  0.0328 -0.7485 -0.2155
 6977TIP3    H242491   3.918   3.353   0.111 -0.3475 -1.9675  0.4025
 6978TIP3   OH242492   6.621   4.544   6.752  0.3857 -0.0270  0.1449
 6978TIP3    H142493   6.535   4.558   6.790  0.0359 -0.8211 -0.3387
 6978TIP3    H242494   6.637   4.623   6.700  1.2553  1.5056  2.5490
 6979TIP3   OH242495   4.176   6.320   7.220  0.3125  0.2189 -0.1659
 6979TIP3    H142496   4.127   6.387   7.172 -1.1543  0.0291  1.0165
 6979TIP3    H242497   4.268   6.341   7.203 -0.1446  1.1682 -1.6417
 6980TIP3   OH242498   2.017   5.880   1.302  0.0573 -0.1550  1.0371
 6980TIP3    H142499   1.942   5.920   1.257  0.5028 -0.8620 -0.3905
 6980TIP3    H242500   2.044   5.808   1.245  1.0429 -0.7161  2.1610
 6981TIP3   OH242501   1.810   3.542   7.083  0.1675  0.1865  0.3446
 6981TIP3    H142502   1.726   3.585   7.094 -0.7338 -1.7337  1.5381
 6981TIP3    H242503   1.798   3.455   7.122  2.5964 -0.2798  0.2272
 6982TIP3   OH242504   4.301   1.006   8.445 -0.4538  0.0985  0.0022
 6982TIP3    H142505   4.304   1.027   8.539 -1.2498  1.8824 -0.3119
 6982TIP3    H242506   4.386   0.968   8.426  0.6365  1.8626  1.0207
 6983TIP3   OH242507   4.373   0.202   2.204  0.1897  0.1704  0.0766
 6983TIP3    H142508   4.383   0.107   2.201 -0.7176  0.0511 -2.9931
 6983TIP3    H242509   4.461   0.237   2.192  0.6024 -0.2486  1.7985
 6984TIP3   OH242510   5.474   4.726   2.399 -0.8661 -0.5543  0.7571
 6984TIP3    H142511   5.508   4.669   2.468  1.1436  0.7401  0.9226
 6984TIP3    H242512   5.477   4.673   2.319  0.9494 -0.7585  0.9150
 6985TIP3   OH242513   1.609   6.081   1.387 -0.2148  1.0362 -0.6273
 6985TIP3    H142514   1.518   6.088   1.417 -0.7169 -0.2742 -1.7155
 6985TIP3    H242515   1.641   6.000   1.425  0.6648  1.7077  0.1022
 6986TIP3   OH242516   2.564   4.860   6.667  1.0254  0.0344 -0.0621
 6986TIP3    H142517   2.629   4.887   6.602  2.4828 -0.7083  0.9989
 6986TIP3    H242518   2.576   4.922   6.739  0.5398 -0.1154  0.1506
 6987TIP3   OH242519   3.891   4.509   1.929 -0.1581 -0.1998  0.1394
 6987TIP3    H142520   3.919   4.430   1.884  1.5103 -0.2137  1.1091
 6987TIP3    H242521   3.848   4.478   2.008 -1.1506 -0.1482 -0.3717
 6988TIP3   OH242522   1.183   6.118   2.130 -0.0213 -0.0295  0.3910
 6988TIP3    H142523   1.173   6.025   2.112 -0.2010 -0.1322  1.0049
 6988TIP3    H242524   1.122   6.136   2.202  0.7170  0.3546  0.9336
 6989TIP3   OH242525   2.911   1.510   8.192  0.5011  0.7175 -0.3513
 6989TIP3    H142526   2.887   1.468   8.110 -1.3375  0.1605  0.4289
 6989TIP3    H242527   3.006   1.501   8.196  0.5100 -0.2857 -1.8387
 6990TIP3   OH242528   2.906   4.955   7.415 -0.7093 -0.4655  0.1213
 6990TIP3    H142529   2.901   5.039   7.369 -0.3185  0.1346  1.1389
 6990TIP3    H242530   2.828   4.953   7.469 -0.4743 -0.5367  0.4575
 6991TIP3   OH242531   5.007   0.838   7.527  0.0437 -0.2644  0.0682
 6991TIP3    H142532   5.017   0.909   7.590 -0.3579 -0.7962  0.7396
 6991TIP3    H242533   5.094   0.828   7.488  0.2757  0.1136  0.4793
 6992TIP3   OH242534   5.893   5.215   8.478 -0.1491  0.1669 -0.4111
 6992TIP3    H142535   5.965   5.245   8.422  0.8919  0.7335  1.1453
 6992TIP3    H242536   5.920   5.128   8.507 -1.2382 -0.6312 -1.6584
 6993TIP3   OH242537   6.461   0.456   2.098 -0.8710  0.2858  0.3313
 6993TIP3    H142538   6.455   0.397   2.023  0.3539  0.4752  0.0533
 6993TIP3    H242539   6.542   0.430   2.142 -0.5266  1.4784  0.4350
 6994TIP3   OH242540   5.300   4.933   0.585 -0.5396 -0.5709 -0.5978
 6994TIP3    H142541   5.246   4.863   0.623 -0.0797  0.5636  2.4447
 6994TIP3    H242542   5.364   4.886   0.532 -2.0729 -2.2192 -1.1079
 6995TIP3   OH242543   4.063   6.728   0.610  0.3653 -0.2182 -0.0186
 6995TIP3    H142544   4.152   6.758   0.591  0.5211 -1.1903 -0.8927
 6995TIP3    H242545   4.064   6.634   0.590 -0.1427 -0.8313  2.4890
 6996TIP3   OH242546   2.995   4.778   0.541 -0.3335  0.1391 -0.1993
 6996TIP3    H142547   2.938   4.730   0.601 -0.3771  1.1218  0.5563
 6996TIP3    H242548   2.942   4.851   0.511 -0.5071 -0.6232 -1.8919
 6997TIP3   OH242549   5.780   2.410   2.734 -0.5027  0.1228 -0.0496
 6997TIP3    H142550   5.744   2.337   2.684  0.2803  0.3887 -1.0212
 6997TIP3    H242551   5.863   2.377   2.768 -0.2935  0.4530 -0.2338
 6998TIP3   OH242552   6.699   3.372   2.622 -0.0191  0.2478 -0.1104
 6998TIP3    H142553   6.699   3.438   2.553 -0.4562 -0.8811 -1.2353
 6998TIP3    H242554   6.784   3.329   2.614 -0.2570 -0.2002 -0.2616
 6999TIP3   OH242555   2.640   4.744   2.461  0.2603  1.1087 -0.2679
 6999TIP3    H142556   2.724   4.778   2.492  1.2269 -0.6946 -0.7992
 6999TIP3    H242557   2.596   4.714   2.541  1.7633 -1.3783 -0.2556
 7000TIP3   OH242558   1.165   2.742   2.593  0.7566  0.1574  0.4066
 7000TIP3    H142559   1.172   2.831   2.629 -1.1207 -0.0367  1.3752
 7000TIP3    H242560   1.148   2.687   2.669 -0.5559 -0.6612 -0.4507
 7001TIP3   OH242561   2.631   0.459   0.517 -0.4197 -0.3522  0.3081
 7001TIP3    H142562   2.582   0.381   0.492  0.3019 -0.4878 -0.7106
 7001TIP3    H242563   2.615   0.521   0.446  1.8955 -0.8500 -0.7367
 7002TIP3   OH242564   4.565   2.716   0.712 -0.5600 -0.1091 -0.1981
 7002TIP3    H142565   4.571   2.633   0.665  0.6149  0.1070 -0.4658
 7002TIP3    H242566   4.475   2.746   0.697 -0.9052 -1.1838 -0.3342
 7003TIP3   OH242567   6.334   2.464   1.801 -0.3005  0.2365 -0.0267
 7003TIP3    H142568   6.361   2.378   1.768  2.9149  0.4774  1.5378
 7003TIP3    H242569   6.350   2.524   1.729  1.8677  0.0688  0.2293
 7004TIP3   OH242570   3.914   3.838   2.162  0.2542 -0.1896 -0.1602
 7004TIP3    H142571   3.964   3.762   2.133  0.0491  1.2955 -5.4244
 7004TIP3    H242572   3.828   3.803   2.185 -0.0620 -1.6975 -3.1141
 7005TIP3   OH242573   1.255   5.360   1.873  0.1846 -0.5673 -0.0612
 7005TIP3    H142574   1.189   5.376   1.805  0.9563  0.8922 -0.5115
 7005TIP3    H242575   1.333   5.334   1.824  0.8047  0.6937  0.2182
 7006TIP3   OH242576   3.953   1.369   0.913 -0.0371  0.2948  0.0743
 7006TIP3    H142577   3.909   1.350   0.996 -0.3604 -0.3976 -0.2440
 7006TIP3    H242578   4.046   1.355   0.931  0.0170  1.2749  0.6208
 7007TIP3   OH242579   0.863   2.265   0.795  0.6468 -0.0782  0.4920
 7007TIP3    H142580   0.889   2.185   0.841  1.0521 -0.6583 -0.7068
 7007TIP3    H242581   0.779   2.289   0.834 -0.2508 -1.9729 -0.1917
 7008TIP3   OH242582   5.960   1.485   1.876  0.8155  0.0222  0.2544
 7008TIP3    H142583   6.029   1.455   1.817  2.4936  0.5247  1.8479
 7008TIP3    H242584   6.000   1.557   1.925 -0.7350  0.1004  1.4960
 7009TIP3   OH242585   1.112   4.746   2.039  0.1571 -0.2654  0.3838
 7009TIP3    H142586   1.200   4.748   2.003 -0.4093  0.6187 -1.0597
 7009TIP3    H242587   1.098   4.655   2.066  0.9427 -0.7634 -0.8334
 7010TIP3   OH242588   5.062   3.380   1.190  0.2698  0.4324  0.1224
 7010TIP3    H142589   4.969   3.400   1.186 -0.1109 -1.1752  0.0643
 7010TIP3    H242590   5.092   3.386   1.099 -0.2646 -0.9874 -0.1848
 7011TIP3   OH242591   3.793   0.390   8.651 -0.0699 -0.0275 -0.6578
 7011TIP3    H142592   3.807   0.466   8.709  1.0516 -0.3283 -0.4966
 7011TIP3    H242593   3.797   0.426   8.563 -1.7199  0.4260 -0.5769
 7012TIP3   OH242594   0.674   4.868   7.998 -0.2787  0.0105  0.7058
 7012TIP3    H142595   0.714   4.893   8.081  0.7923  1.0876 -0.0931
 7012TIP3    H242596   0.705   4.934   7.936 -0.3431 -1.2617 -0.7437
 7013TIP3   OH242597   3.519   5.492   1.188 -0.0764 -0.0037  0.3412
 7013TIP3    H142598   3.512   5.584   1.162  0.7314  0.0126  0.1436
 7013TIP3    H242599   3.538   5.494   1.281  0.3363  0.0509  0.2598
 7014TIP3   OH242600   2.135   0.500   8.190 -0.6693  0.2667  0.2720
 7014TIP3    H142601   2.149   0.571   8.127 -0.1760 -0.2572 -0.2174
 7014TIP3    H242602   2.178   0.424   8.151 -0.6666 -0.1565  1.0742
 7015TIP3   OH242603   0.380   3.550   1.520 -0.0451  0.4084  0.2406
 7015TIP3    H142604   0.464   3.569   1.477  0.5090 -2.5284 -0.1572
 7015TIP3    H242605   0.338   3.485   1.464 -0.5516 -1.5034  2.6755
 7016TIP3   OH242606   0.989   3.834   0.330  0.2850  0.0533  0.4003
 7016TIP3    H142607   0.969   3.817   0.238 -1.2960  1.7536  0.3582
 7016TIP3    H242608   0.983   3.748   0.372 -2.0952 -0.3462 -0.5851
 7017TIP3   OH242609   6.389   1.184   0.348  0.1265 -0.7189 -0.0621
 7017TIP3    H142610   6.347   1.113   0.299 -0.2274 -1.2756  1.0144
 7017TIP3    H242611   6.473   1.148   0.375  1.8849  0.7386 -3.0902
 7018TIP3   OH242612   2.187   0.358   7.362  0.2499 -0.0305  0.4124
 7018TIP3    H142613   2.139   0.286   7.322 -0.1578  0.4224  0.0699
 7018TIP3    H242614   2.242   0.392   7.291 -1.5306  1.6983 -0.2212
 7019TIP3   OH242615   3.366   4.098   8.186  0.2049 -0.8034  0.0835
 7019TIP3    H142616   3.343   4.009   8.212  0.2006 -0.9040 -0.2573
 7019TIP3    H242617   3.462   4.097   8.180  0.2529 -0.5986  0.7358
 7020TIP3   OH242618   5.597   4.909   1.539  0.0154 -0.4329 -0.5569
 7020TIP3    H142619   5.588   4.997   1.502 -0.2135 -0.6825 -1.1080
 7020TIP3    H242620   5.643   4.859   1.471 -1.2626 -1.1587 -0.9234
 7021TIP3   OH242621   3.699   6.066   7.686  0.1693 -0.0752 -0.4869
 7021TIP3    H142622   3.636   6.020   7.630 -0.0898 -2.9218  1.8876
 7021TIP3    H242623   3.779   6.070   7.634 -0.8076 -0.0289 -2.0636
 7022TIP3   OH242624   2.408   3.072   0.400 -0.6501  0.1825  0.1525
 7022TIP3    H142625   2.413   2.996   0.341  2.2896 -0.7516  1.4246
 7022TIP3    H242626   2.345   3.045   0.467  1.4695 -1.9009  1.4417
 7023TIP3   OH242627   1.048   4.417   0.075 -0.0921  0.8558 -0.9258
 7023TIP3    H142628   0.996   4.414   0.155  0.8126 -0.2853 -0.3387
 7023TIP3    H242629   0.987   4.392   0.006 -0.3864 -0.2553 -0.2871
 7024TIP3   OH242630   6.439   6.104   2.557 -0.3058  0.5012  0.3661
 7024TIP3    H142631   6.402   6.182   2.598  0.5123  0.4567  1.2400
 7024TIP3    H242632   6.520   6.088   2.606 -0.1718 -0.5606 -0.1786
 7025TIP3   OH242633   6.359   5.808   1.176 -0.2914  0.5877 -0.2536
 7025TIP3    H142634   6.393   5.799   1.265  2.5122 -0.3135 -1.2823
 7025TIP3    H242635   6.269   5.778   1.181  0.2822 -1.0322  1.9972
 7026TIP3   OH242636   5.316   2.007   8.538  0.2263 -0.8532  0.3614
 7026TIP3    H142637   5.317   2.102   8.546  0.1755 -0.9024  1.0064
 7026TIP3    H242638   5.347   1.990   8.449 -0.7022 -0.2054 -0.1031
 7027TIP3   OH242639   3.569   0.889   0.347 -0.0162 -0.9894  0.5004
 7027TIP3    H142640   3.558   0.840   0.266 -2.2183 -0.7829  0.6122
 7027TIP3    H242641   3.568   0.822   0.415 -2.7371 -0.9445  0.6302
 7028TIP3   OH242642   6.170   1.233   2.602 -0.4027 -0.5093  0.5762
 7028TIP3    H142643   6.114   1.245   2.525 -1.1659  0.0938  1.2124
 7028TIP3    H242644   6.207   1.319   2.618 -0.7761 -0.4774  1.2830
 7029TIP3   OH242645   3.285   0.605   1.935  0.2608 -0.2303 -0.0797
 7029TIP3    H142646   3.217   0.574   1.875 -0.0706 -0.1528  0.2579
 7029TIP3    H242647   3.335   0.526   1.958 -0.9613 -0.6461  1.2734
 7030TIP3   OH242648   3.185   5.688   8.931  0.0589 -0.0972 -0.2114
 7030TIP3    H142649   3.093   5.694   8.958 -0.0316 -1.9407  0.0393
 7030TIP3    H242650   3.187   5.731   8.845 -0.8791  0.6038  0.1017
 7031TIP3   OH242651   3.416   6.424   8.198 -0.0824  0.0128 -0.4055
 7031TIP3    H142652   3.471   6.485   8.148  1.4079 -0.0786  1.0386
 7031TIP3    H242653   3.471   6.347   8.212 -1.1544 -0.7546 -0.2735
 7032TIP3   OH242654   6.348   5.705   7.403  0.5491  0.7946 -0.2910
 7032TIP3    H142655   6.404   5.747   7.337  1.7134 -0.2382  0.0078
 7032TIP3    H242656   6.392   5.723   7.486 -1.3287  2.8002  0.3888
 7033TIP3   OH242657   0.853   5.510   0.216  0.1095  0.3014 -0.1750
 7033TIP3    H142658   0.809   5.581   0.170  0.6241 -0.8335 -2.5403
 7033TIP3    H242659   0.838   5.530   0.309 -1.8229  2.1525 -0.7886
 7034TIP3   OH242660   0.780   0.647   2.344  0.0120 -0.4432  0.1460
 7034TIP3    H142661   0.872   0.644   2.371  0.9768 -0.7108 -2.7464
 7034TIP3    H242662   0.741   0.567   2.379  1.4325 -1.3155 -0.1822
 7035TIP3   OH242663   2.687   4.487   0.844  0.6211 -0.2885  0.0884
 7035TIP3    H142664   2.599   4.457   0.868  0.2681  0.4642 -0.2413
 7035TIP3    H242665   2.731   4.408   0.814 -0.3421 -0.4831 -0.9008
 7036TIP3   OH242666   5.060   2.272   7.919 -0.1499 -0.0680  0.3541
 7036TIP3    H142667   5.121   2.344   7.934  0.3659 -0.0267 -1.6755
 7036TIP3    H242668   5.088   2.233   7.837 -1.2893 -1.7157  0.6933
 7037TIP3   OH242669   0.009   0.083   7.152 -0.0219  0.0284 -0.4676
 7037TIP3    H142670   0.062   0.087   7.072  0.3894 -1.9241 -0.3457
 7037TIP3    H242671  -0.081   0.083   7.121  0.0932  0.5419 -0.8352
 7038TIP3   OH242672   0.296   6.152   1.133  0.2775  0.0801  0.2014
 7038TIP3    H142673   0.339   6.195   1.059 -1.2427 -0.8129 -1.2604
 7038TIP3    H242674   0.223   6.210   1.155  1.9278  1.4499  2.4937
 7039TIP3   OH242675   2.875   5.084   6.805 -0.1393 -0.2493  0.0489
 7039TIP3    H142676   2.793   5.120   6.838 -0.4199 -1.1521  0.3751
 7039TIP3    H242677   2.887   5.125   6.719 -2.0885 -1.7308 -1.0129
 7040TIP3   OH242678   3.844   6.371   0.690 -0.4502  0.3110 -0.1760
 7040TIP3    H142679   3.758   6.377   0.650 -0.0729  1.0352 -0.9078
 7040TIP3    H242680   3.905   6.397   0.621  0.2168  1.6646  0.8682
 7041TIP3   OH242681   5.696   5.758   2.031 -0.2211 -0.1621  0.9998
 7041TIP3    H142682   5.602   5.748   2.015 -0.2997  1.1807  0.5504
 7041TIP3    H242683   5.702   5.809   2.112  0.0958  0.6043  0.5059
 7042TIP3   OH242684   6.538   5.161   0.979  0.1953 -0.1923  0.5047
 7042TIP3    H142685   6.516   5.253   0.990 -0.6836 -0.5245  1.7364
 7042TIP3    H242686   6.626   5.161   0.943  0.3070  1.1224  0.7496
 7043TIP3   OH242687   4.510   3.694   0.904 -0.0094  0.1460  0.2023
 7043TIP3    H142688   4.549   3.780   0.893 -0.4281  0.3816  0.5474
 7043TIP3    H242689   4.513   3.655   0.817  0.1475  0.5180  0.0383
 7044TIP3   OH242690   5.824   1.374   8.471 -0.1631 -0.0504  0.2027
 7044TIP3    H142691   5.806   1.468   8.467  0.6196  0.1416  0.9054
 7044TIP3    H242692   5.853   1.351   8.382 -2.3635 -0.0873 -0.5713
 7045TIP3   OH242693   0.053   2.900   2.405  0.3592  0.0722 -0.7188
 7045TIP3    H142694   0.067   2.858   2.490 -0.7539  1.6364  0.2830
 7045TIP3    H242695  -0.038   2.881   2.385  0.2391  0.8454 -0.9100
 7046TIP3   OH242696   4.668   4.355   0.071  0.1339 -0.1775 -0.1313
 7046TIP3    H142697   4.645   4.404   0.150  0.5690  0.1206 -0.1839
 7046TIP3    H242698   4.716   4.418   0.017 -3.4111  0.8978 -2.4008
 7047TIP3   OH242699   6.695   2.156   2.762  0.0522  0.6378  0.1495
 7047TIP3    H142700   6.764   2.189   2.820 -0.5988  0.7897  0.8697
 7047TIP3    H242701   6.654   2.085   2.812 -0.3500  0.5959 -0.2335
 7048TIP3   OH242702   3.825   5.423   8.679 -0.1273 -0.0320  0.2070
 7048TIP3    H142703   3.759   5.398   8.615  0.1101 -1.7227  0.5630
 7048TIP3    H242704   3.905   5.437   8.628 -0.8485  2.7576 -0.3174
 7049TIP3   OH242705   2.005   2.626   1.131 -0.1579 -0.6309  0.1300
 7049TIP3    H142706   2.056   2.659   1.058 -1.9708  1.7051 -0.1958
 7049TIP3    H242707   1.938   2.571   1.090 -0.4603 -0.2716  0.1386
 7050TIP3   OH242708   3.456   2.277   2.846 -0.3211 -0.0217  0.7208
 7050TIP3    H142709   3.533   2.249   2.896  0.0088  0.4989  0.5184
 7050TIP3    H242710   3.489   2.347   2.789  0.0355 -2.4759 -2.3770
 7051TIP3   OH242711   3.719   2.473   3.051  0.3362 -0.3128 -0.1480
 7051TIP3    H142712   3.682   2.385   3.062  0.2010 -0.1114  1.2289
 7051TIP3    H242713   3.658   2.517   2.991 -0.0041 -0.9236 -0.2622
 7052TIP3   OH242714   5.298   5.308   0.250 -0.1676 -0.5551  0.3337
 7052TIP3    H142715   5.387   5.300   0.216 -0.0649  0.5715  0.2943
 7052TIP3    H242716   5.293   5.398   0.283 -0.9831 -0.9102  1.2250
 7053TIP3   OH242717   2.598   6.772   1.107  0.1819  0.0600  0.0093
 7053TIP3    H142718   2.648   6.823   1.171  0.9772 -1.0836  0.3218
 7053TIP3    H242719   2.508   6.803   1.117  0.5569  0.9951  0.5824
 7054TIP3   OH242720   6.299   1.856   7.249  0.1094 -0.0378  0.2546
 7054TIP3    H142721   6.282   1.868   7.156  0.0598 -0.8584  0.1446
 7054TIP3    H242722   6.224   1.895   7.293  0.2768  0.6208 -0.0321
 7055TIP3   OH242723   4.161   2.927   8.264  0.1100  0.2829 -0.2112
 7055TIP3    H142724   4.173   2.993   8.332  0.1132 -0.5428  0.6076
 7055TIP3    H242725   4.240   2.934   8.210 -0.8886  2.4698 -1.5175
 7056TIP3   OH242726   0.819   2.673   2.963  0.6337 -0.4630  0.2419
 7056TIP3    H142727   0.808   2.578   2.971 -1.0032 -0.3834 -0.7001
 7056TIP3    H242728   0.851   2.686   2.874  0.1226 -0.0789  0.1135
 7057TIP3   OH242729   3.243   5.010   6.582  0.3270 -0.0013  0.2818
 7057TIP3    H142730   3.314   5.007   6.646 -0.5662 -0.5110  1.2795
 7057TIP3    H242731   3.198   4.927   6.593 -1.3245  0.9058  0.7472
 7058TIP3   OH242732   4.842   3.872   8.788  0.3035  0.2926  0.1490
 7058TIP3    H142733   4.761   3.916   8.813  0.1333 -0.4303  0.8796
 7058TIP3    H242734   4.820   3.779   8.785 -0.0441  0.2875 -3.9032
 7059TIP3   OH242735   4.495   4.733   7.803 -0.0313  0.2498 -0.2502
 7059TIP3    H142736   4.410   4.725   7.846 -0.1456 -0.5849 -0.6076
 7059TIP3    H242737   4.491   4.669   7.731  1.5750 -1.1342  0.8369
 7060TIP3   OH242738   4.873   4.686   0.998  0.0242  0.0170 -0.0681
 7060TIP3    H142739   4.821   4.766   0.999 -0.6277 -0.3633 -1.5066
 7060TIP3    H242740   4.819   4.621   1.043 -0.3247 -0.1210 -0.6771
 7061TIP3   OH242741   3.021   3.154   7.576  0.7997  0.3340 -0.4425
 7061TIP3    H142742   3.101   3.194   7.541  1.1779  1.4439  1.5551
 7061TIP3    H242743   2.965   3.228   7.599  0.7867 -0.2908  1.7331
 7062TIP3   OH242744   4.096   4.470   8.128  0.6575 -0.2437 -0.6236
 7062TIP3    H142745   4.091   4.558   8.164  1.5847 -0.2094 -0.5446
 7062TIP3    H242746   4.086   4.412   8.204  1.7367 -0.1788 -0.4119
 7063TIP3   OH242747   2.600   6.507   2.113 -0.2721 -0.3920 -0.2931
 7063TIP3    H142748   2.669   6.453   2.151  0.3902 -0.1896 -1.1740
 7063TIP3    H242749   2.644   6.588   2.088 -1.6139  1.6217  3.0663
 7064LIG     O142750   3.619   0.086   7.131 -0.5328  0.6672 -0.1425
 7064LIG     O242751   3.627   0.244   7.568  0.0634  0.3447  0.6849
 7064LIG     N142752   3.682   0.020   7.537  0.1826 -0.3812 -0.2578
 7064LIG     N242753   3.739  -0.175   7.243  0.2055 -0.0493 -0.4494
 7064LIG     N342754   3.593   0.151   7.359 -0.2566  0.0596  0.2528
 7064LIG     N442755   3.771  -0.191   7.462 -0.0096 -0.0198 -1.0631
 7064LIG     C142756   3.696  -0.053   7.304 -0.1386  0.0725 -0.0789
 7064LIG     C242757   3.708  -0.078   7.440 -0.1180 -0.2073  0.2585
 7064LIG     C342758   3.638   0.063   7.252 -0.7194 -0.2574  0.5031
 7064LIG     C442759   3.640   0.145   7.490 -0.2236  0.0890 -0.0972
 7064LIG     C542760   3.788  -0.248   7.341 -0.1495  0.3957 -0.2288
 7064LIG     C642761   3.710   0.011   7.677  0.2099 -0.1301 -0.1586
 7064LIG     C742762   3.746  -0.210   7.102 -0.0267 -0.7296  0.9249
 7064LIG     C842763   3.538   0.283   7.317  0.8051 -0.4561 -0.6436
 7064LIG     H142764   3.829  -0.348   7.329 -0.0619  0.2736  0.9555
 7064LIG     H242765   3.794   0.076   7.709 -0.0012 -0.1373  0.4267
 7064LIG     H342766   3.741  -0.094   7.695 -2.3447 -0.8527  0.5665
 7064LIG     H442767   3.624   0.031   7.746  1.4365  0.5876  1.2137
 7064LIG     H542768   3.749  -0.127   7.027 -0.7649 -1.7695 -0.2940
 7064LIG     H642769   3.664  -0.269   7.056 -0.5053  1.1822 -0.8786
 7064LIG     H742770   3.842  -0.258   7.074  1.2579  0.8416  2.4007
 7064LIG     H842771   3.479   0.326   7.400  0.4836 -3.4389  0.8352
 7064LIG     H942772   3.463   0.286   7.236 -0.9702  0.8113  0.9724
 7064LIG    H1042773   3.620   0.352   7.288  0.9559  0.0432  0.8794
   6.77391   6.77391   8.93477
