Title
42773
    1SAPS     N    1   3.897   3.398   7.411  0.0198  0.1505  0.0691
    1SAPS   HN1    2   3.912   3.310   7.357  0.4846  0.0962  0.2843
    1SAPS   HN2    3   3.850   3.370   7.500  1.0663 -1.8389  0.0507
    1SAPS   HN3    4   3.838   3.465   7.359  0.2760 -0.1391 -0.6050
    1SAPS   C12    5   4.035   3.460   7.442  0.3511 -0.7523 -0.5495
    1SAPS  H12A    6   4.026   3.541   7.513 -1.3186 -0.7871 -0.6843
    1SAPS   C13    7   4.142   3.356   7.495  0.2884  0.2980 -0.8744
    1SAPS  O13A    8   4.112   3.240   7.528  0.3887 -0.3079 -0.1600
    1SAPS  O13B    9   4.257   3.401   7.521  0.4238 -0.1026  0.2578
    1SAPS   C11   10   4.088   3.524   7.305  0.0557 -0.5930  0.1742
    1SAPS  H11A   11   4.118   3.440   7.239  1.1715 -0.8117  0.9309
    1SAPS  H11B   12   4.180   3.579   7.334  0.8315 -0.4095 -2.3834
    1SAPS     P   13   4.059   3.746   7.185  0.0747 -0.1435  0.0140
    1SAPS   O13   14   3.952   3.826   7.125  0.0734 -0.3841 -0.3324
    1SAPS   O14   15   4.154   3.818   7.273 -0.0530  0.1854 -0.6266
    1SAPS   O12   16   3.995   3.619   7.255  0.2167 -0.4751  0.6639
    1SAPS   O11   17   4.140   3.681   7.064 -0.0711 -0.1993 -0.0422
    1SAPS    C1   18   4.209   3.773   6.974  0.4722 -0.1115  0.8571
    1SAPS    HA   19   4.203   3.883   6.993  2.6955  0.8233 -2.8889
    1SAPS    HB   20   4.318   3.750   6.967  0.3723 -0.5747  0.8388
    1SAPS    C2   21   4.154   3.770   6.827  0.0810 -0.3936 -0.4773
    1SAPS    HS   22   4.046   3.788   6.844 -0.1855 -2.4446  0.2839
    1SAPS   O21   23   4.178   3.639   6.768  0.2880 -0.7901  0.1919
    1SAPS   C21   24   4.089   3.611   6.668 -0.3803 -0.3933  0.0596
    1SAPS   O22   25   3.980   3.662   6.649 -0.2954  0.2542 -0.0391
    1SAPS   C22   26   4.145   3.500   6.575 -0.1008  0.0334 -0.5326
    1SAPS   H2R   27   4.254   3.514   6.561  0.1920 -0.9853  0.5479
    1SAPS   H2S   28   4.134   3.400   6.622 -0.5336 -1.2701 -3.2028
    1SAPS    C3   29   4.206   3.887   6.742 -0.5007 -0.0773 -0.5043
    1SAPS    HX   30   4.312   3.868   6.713 -0.6903  0.2956 -1.5026
    1SAPS    HY   31   4.206   3.982   6.798  1.8210  0.5406 -1.4436
    1SAPS   O31   32   4.132   3.904   6.623 -0.1357 -0.0359  0.1109
    1SAPS   C31   33   4.004   3.961   6.635 -0.4215 -0.4344  0.1494
    1SAPS   O32   34   3.964   3.998   6.742  0.5119  0.0441 -0.6035
    1SAPS   C32   35   3.945   3.972   6.494  0.9654 -0.6338 -0.1363
    1SAPS   H2X   36   3.990   3.898   6.424 -0.0432 -1.8052  0.4198
    1SAPS   H2Y   37   3.976   4.075   6.467  0.9432 -0.1206  1.6797
    1SAPS   C23   38   4.069   3.473   6.448 -0.6147  0.2448 -0.0531
    1SAPS   H3R   39   3.958   3.479   6.451 -0.6529 -0.6062  0.6635
    1SAPS   H3S   40   4.081   3.372   6.404  2.5148  0.6396 -0.3494
    1SAPS   C24   41   4.114   3.582   6.341 -1.0058 -0.6936 -0.9997
    1SAPS   H4R   42   4.213   3.550   6.303 -0.7035 -0.2559 -0.5937
    1SAPS   H4S   43   4.121   3.684   6.385 -1.1625 -0.2756 -1.9333
    1SAPS   C25   44   4.019   3.599   6.223 -0.2972  0.1007  0.2516
    1SAPS   H5R   45   3.915   3.604   6.260 -0.4515 -2.3399  0.3522
    1SAPS   C26   46   4.043   3.598   6.091  0.3818 -0.4270  0.3502
    1SAPS   H6R   47   3.961   3.609   6.019  0.3481 -0.2682  0.4123
    1SAPS   C27   48   4.180   3.582   6.031 -0.0921  0.0628 -0.5012
    1SAPS   H7R   49   4.239   3.501   6.079 -0.9519 -0.1993  0.1412
    1SAPS   H7S   50   4.223   3.684   6.041 -0.5598  0.3111 -0.9569
    1SAPS   C28   51   4.164   3.560   5.882  0.2858  0.4029 -1.2115
    1SAPS   H8R   52   4.104   3.472   5.854  0.4920  0.0888 -0.6825
    1SAPS   C29   53   4.220   3.634   5.788 -0.3665 -0.1730 -0.1077
    1SAPS   H9R   54   4.206   3.600   5.684  0.6063  0.1651 -0.3592
    1SAPS  C210   55   4.299   3.760   5.804  0.5386 -0.6036 -0.8502
    1SAPS  H10R   56   4.265   3.823   5.888  0.3061  0.2701 -1.5798
    1SAPS  H10S   57   4.282   3.814   5.708 -1.3346 -0.0126 -0.2181
    1SAPS  C211   58   4.450   3.747   5.823  1.0355  0.1115 -0.3481
    1SAPS  H11R   59   4.479   3.738   5.929 -0.9019  0.6140  0.2711
    1SAPS  C212   60   4.535   3.722   5.720  0.1397  0.0460 -0.3167
    1SAPS  H12R   61   4.643   3.715   5.742 -0.0159 -0.0761  0.4335
    1SAPS  C213   62   4.503   3.703   5.575 -0.4826  0.3791  0.7751
    1SAPS  H13R   63   4.399   3.734   5.552  0.8249  3.3729 -1.7967
    1SAPS  H13S   64   4.521   3.594   5.562 -0.4299  0.5750 -0.9518
    1SAPS  C214   65   4.604   3.780   5.485  0.5288  0.0438  0.0125
    1SAPS  H14R   66   4.649   3.859   5.547 -0.3466 -0.1995  0.9998
    1SAPS  C215   67   4.639   3.762   5.358  0.3519  0.4634  0.2909
    1SAPS  H15R   68   4.711   3.833   5.315 -0.6197  0.0582 -2.1849
    1SAPS  C216   69   4.589   3.663   5.252  0.2052 -1.2756  0.0521
    1SAPS  H16R   70   4.498   3.612   5.292 -0.5652  0.0583  0.0292
    1SAPS  H16S   71   4.668   3.586   5.237  2.0278  0.1759  1.6195
    1SAPS  C217   72   4.558   3.731   5.117 -0.6137  0.0788 -0.6025
    1SAPS  H17R   73   4.571   3.660   5.032  0.0855 -1.9886  1.1385
    1SAPS  H17S   74   4.630   3.814   5.102 -1.0327  0.4333 -0.6655
    1SAPS  C218   75   4.406   3.778   5.119  0.3428  0.3281  1.0368
    1SAPS  H18R   76   4.379   3.823   5.217 -4.3676  1.0854 -0.3904
    1SAPS  H18S   77   4.336   3.692   5.119  0.2596  0.3911  0.2468
    1SAPS  C219   78   4.377   3.865   4.993 -0.1406 -0.2935 -0.6508
    1SAPS  H19R   79   4.421   3.965   5.013 -2.2820  0.7369 -0.7484
    1SAPS  H19S   80   4.268   3.885   4.991 -0.0043  0.4267 -1.0734
    1SAPS  C220   81   4.422   3.807   4.864  0.9172 -0.0209  0.4557
    1SAPS  H20R   82   4.525   3.768   4.866  1.0479  0.1866 -0.9289
    1SAPS  H20S   83   4.433   3.892   4.792  0.2819 -2.6665 -3.0551
    1SAPS  H20T   84   4.341   3.749   4.814  0.2130  3.1590 -2.5054
    1SAPS   C33   85   3.794   3.974   6.484 -0.0147 -0.0633  0.6522
    1SAPS   H3X   86   3.757   4.052   6.555 -0.4633 -1.1198  1.6221
    1SAPS   H3Y   87   3.748   3.876   6.506  0.9291 -0.6314  0.1641
    1SAPS   C34   88   3.747   4.014   6.349 -0.6101  0.4106 -0.5581
    1SAPS   H4X   89   3.755   4.125   6.346  1.0889  0.3420  0.4661
    1SAPS   H4Y   90   3.639   3.989   6.341 -0.9157  1.2626  0.6743
    1SAPS   C35   91   3.825   3.952   6.234 -0.4069  0.4108 -0.1180
    1SAPS   H5X   92   3.837   3.845   6.262 -0.2893  0.4602  0.0236
    1SAPS   H5Y   93   3.925   3.998   6.218  0.0763 -0.4629  0.3066
    1SAPS   C36   94   3.759   3.954   6.104  0.4802  0.4266 -0.5271
    1SAPS   H6X   95   3.737   4.059   6.077 -0.3757 -0.2896 -2.8897
    1SAPS   H6Y   96   3.659   3.907   6.115  0.7681 -0.1650 -0.3577
    1SAPS   C37   97   3.830   3.878   5.994  0.0492  0.1320 -0.1966
    1SAPS   H7X   98   3.835   3.773   6.032 -1.5770  1.0002  2.6809
    1SAPS   H7Y   99   3.936   3.907   5.975  1.9799 -4.3001  2.1000
    1SAPS   C38  100   3.765   3.878   5.856  0.0186 -0.0772 -0.0359
    1SAPS   H8X  101   3.739   3.984   5.834  0.7878  0.1054 -0.0771
    1SAPS   H8Y  102   3.671   3.819   5.866 -0.3243  0.7943  2.8500
    1SAPS   C39  103   3.865   3.811   5.753  0.1854  0.4090  0.1071
    1SAPS   H9X  104   3.897   3.717   5.803 -0.6594 -0.3480 -0.7431
    1SAPS   H9Y  105   3.947   3.884   5.734 -0.1905  0.2558 -2.4154
    1SAPS  C310  106   3.798   3.797   5.617  0.4829  0.0213 -0.0170
    1SAPS  H10X  107   3.771   3.903   5.599  1.4284 -0.1638 -3.1098
    1SAPS  H10Y  108   3.710   3.730   5.622 -0.0755  0.6976 -0.7092
    1SAPS  C311  109   3.894   3.749   5.511 -0.1806  0.8795  1.0070
    1SAPS  H11X  110   3.900   3.639   5.504 -1.9085  0.7882  0.3769
    1SAPS  H11Y  111   3.993   3.788   5.542  0.6708  0.1113 -0.6433
    1SAPS  C312  112   3.874   3.799   5.367  0.1447  0.0542  0.0431
    1SAPS  H12X  113   3.860   3.910   5.369 -1.9556 -0.1695  2.4653
    1SAPS  H12Y  114   3.785   3.758   5.315  1.0892  1.1804 -2.6422
    1SAPS  C313  115   4.002   3.772   5.282 -0.6832 -0.3521 -0.5481
    1SAPS  H13X  116   4.010   3.673   5.233  4.2859  0.9075 -2.9230
    1SAPS  H13Y  117   4.096   3.781   5.339 -0.0137 -1.0921 -1.5136
    1SAPS  C314  118   4.017   3.882   5.179 -0.5478 -1.3253 -0.1484
    1SAPS  H14X  119   4.111   3.852   5.129  1.5489  5.0242 -0.8418
    1SAPS  H14Y  120   4.041   3.982   5.221  4.8227 -2.3028 -0.2292
    1SAPS  C315  121   3.913   3.898   5.060 -0.2155  0.7196  0.6764
    1SAPS  H15X  122   3.824   3.948   5.105 -1.4562  0.3981 -1.2924
    1SAPS  H15Y  123   3.898   3.792   5.031  0.0282  0.7354  0.4879
    1SAPS  C316  124   3.957   3.982   4.943 -0.2986  0.2679 -0.3269
    1SAPS  H16X  125   3.884   3.969   4.860 -2.0827  0.4622  1.1612
    1SAPS  H16Y  126   4.062   3.957   4.915  0.3424  0.6633  1.5793
    1SAPS  C317  127   3.968   4.128   4.988 -0.3101 -0.5808  0.2995
    1SAPS  H17X  128   4.066   4.138   5.039 -0.3812  1.3127  0.1201
    1SAPS  H17Y  129   3.883   4.144   5.058 -0.3216  0.0001  0.1546
    1SAPS  C318  130   3.952   4.231   4.877  0.2171 -0.1514  0.3180
    1SAPS  H18X  131   3.974   4.333   4.914 -1.8349  0.4837 -0.0925
    1SAPS  H18Y  132   3.850   4.221   4.833 -0.9205  0.7522  2.5732
    1SAPS  H18Z  133   4.027   4.210   4.797 -0.0349  0.1818 -0.0089
    2SAPS     N  134   4.232   5.889   7.223 -0.6693  0.2922 -0.3367
    2SAPS   HN1  135   4.208   5.790   7.245  1.3331  0.1615  1.6250
    2SAPS   HN2  136   4.238   5.894   7.120  2.0978 -0.1976 -0.2708
    2SAPS   HN3  137   4.319   5.915   7.275 -0.2088 -0.5388 -0.6777
    2SAPS   C12  138   4.126   5.974   7.292 -1.2355  0.2831  0.5727
    2SAPS  H12A  139   4.032   5.959   7.240 -0.3721  0.8404 -1.2512
    2SAPS   C13  140   4.115   5.957   7.446  0.2098  0.2702  0.2766
    2SAPS  O13A  141   4.170   5.856   7.500  0.3492  0.3204 -0.3852
    2SAPS  O13B  142   4.014   6.015   7.498 -0.1657  0.2671  0.1838
    2SAPS   C11  143   4.168   6.115   7.266  0.3938 -0.6581 -1.0350
    2SAPS  H11A  144   4.275   6.126   7.292  0.2990 -0.8969 -0.5386
    2SAPS  H11B  145   4.119   6.186   7.336  1.1036 -0.8636 -0.3173
    2SAPS     P  146   4.070   6.286   7.094  0.0350  0.3036  0.0028
    2SAPS   O13  147   4.094   6.390   7.195 -0.1868  0.9803  0.1246
    2SAPS   O14  148   4.097   6.324   6.947 -0.4704  1.0996 -0.0989
    2SAPS   O12  149   4.143   6.150   7.134 -0.3835 -0.1923 -0.3135
    2SAPS   O11  150   3.920   6.235   7.106 -0.1802 -0.2391 -0.1064
    2SAPS    C1  151   3.880   6.153   6.996 -0.3168 -0.9951 -0.1784
    2SAPS    HA  152   3.957   6.085   6.953  0.3090 -0.1914 -0.3431
    2SAPS    HB  153   3.795   6.092   7.034  1.0433 -1.2665  2.7191
    2SAPS    C2  154   3.810   6.231   6.880 -0.5993 -0.7538  0.1984
    2SAPS    HS  155   3.899   6.274   6.829 -0.9329 -2.4949 -1.9851
    2SAPS   O21  156   3.730   6.339   6.935  0.3973 -0.0262  0.4869
    2SAPS   C21  157   3.712   6.440   6.855  0.8432  0.2202  0.4087
    2SAPS   O22  158   3.780   6.466   6.758 -0.2742  0.3636  0.2337
    2SAPS   C22  159   3.590   6.521   6.905 -0.2700 -0.2206 -0.3359
    2SAPS   H2R  160   3.499   6.464   6.877  0.7851 -1.4957 -1.3147
    2SAPS   H2S  161   3.604   6.529   7.015  1.9414 -1.3843 -0.4689
    2SAPS    C3  162   3.732   6.148   6.773  0.1229  0.0256 -0.3990
    2SAPS    HX  163   3.636   6.112   6.817  0.0945  0.3777 -0.1632
    2SAPS    HY  164   3.793   6.056   6.756  0.5838 -0.0703  1.4991
    2SAPS   O31  165   3.711   6.215   6.642 -0.1537  0.0770 -0.0251
    2SAPS   C31  166   3.819   6.246   6.575  0.3353 -0.1062  0.1833
    2SAPS   O32  167   3.932   6.205   6.606 -0.1666 -0.7162  0.1350
    2SAPS   C32  168   3.798   6.349   6.466  0.3620 -0.2106  0.4512
    2SAPS   H2X  169   3.807   6.450   6.512  0.3287  0.7530 -1.5390
    2SAPS   H2Y  170   3.697   6.343   6.420  0.2209 -0.5378  0.8006
    2SAPS   C23  171   3.595   6.663   6.841  0.8675  0.6211 -0.7247
    2SAPS   H3R  172   3.697   6.702   6.824  1.1703  0.5533  0.7886
    2SAPS   H3S  173   3.559   6.728   6.923  2.0940 -1.0339  1.2349
    2SAPS   C24  174   3.516   6.677   6.707  0.4687  0.1430 -0.8096
    2SAPS   H4R  175   3.408   6.656   6.721 -0.0905  2.6400 -0.9175
    2SAPS   H4S  176   3.551   6.595   6.641  0.8754  0.3727 -0.8821
    2SAPS   C25  177   3.537   6.818   6.659  1.1002  0.0348 -0.2920
    2SAPS   H5R  178   3.458   6.890   6.689 -0.5576 -1.5999 -0.5415
    2SAPS   C26  179   3.636   6.857   6.579 -0.8160 -0.3835 -0.8752
    2SAPS   H6R  180   3.634   6.961   6.544  2.2772  0.4228  0.9919
    2SAPS   C27  181   3.734   6.776   6.509 -0.0287 -0.6160 -0.0900
    2SAPS   H7R  182   3.808   6.723   6.574  0.5919 -1.7632 -1.6640
    2SAPS   H7S  183   3.801   6.853   6.465 -1.3150 -0.0301 -1.0690
    2SAPS   C28  184   3.680   6.687   6.399 -0.0445  0.3415  0.5750
    2SAPS   H8R  185   3.654   6.584   6.430  1.5199  0.1349  1.3186
    2SAPS   C29  186   3.684   6.715   6.268 -0.1305  0.3196 -0.6314
    2SAPS   H9R  187   3.644   6.642   6.196  0.4673  0.1235 -0.7686
    2SAPS  C210  188   3.731   6.840   6.197 -0.5895 -0.8487 -0.3323
    2SAPS  H10R  189   3.721   6.937   6.250  3.1625 -1.1972  1.3803
    2SAPS  H10S  190   3.671   6.842   6.104  1.1609 -1.0529 -1.5131
    2SAPS  C211  191   3.883   6.823   6.171 -0.2327  0.6246 -0.9215
    2SAPS  H11R  192   3.928   6.779   6.261 -0.6065 -0.1475 -1.1031
    2SAPS  C212  193   3.946   6.833   6.055  0.6544  0.1876  0.4445
    2SAPS  H12R  194   4.054   6.816   6.047  0.5802 -0.3046  0.4692
    2SAPS  C213  195   3.868   6.890   5.941 -0.4373 -0.5189 -0.2481
    2SAPS  H13R  196   3.926   6.982   5.915  0.0717  0.0433  2.5709
    2SAPS  H13S  197   3.770   6.938   5.958 -0.5646 -1.2560  1.2049
    2SAPS  C214  198   3.864   6.808   5.812 -0.6092 -0.6251  0.1371
    2SAPS  H14R  199   3.842   6.702   5.834 -1.6312  0.0545  2.6788
    2SAPS  C215  200   3.887   6.851   5.686  0.2989 -0.1910 -0.4598
    2SAPS  H15R  201   3.880   6.774   5.607 -1.0943 -1.0809  0.4775
    2SAPS  C216  202   3.914   6.999   5.644  0.6877  0.1351  0.2683
    2SAPS  H16R  203   3.893   7.080   5.717  3.0173  1.1263 -0.0502
    2SAPS  H16S  204   3.834   7.028   5.572 -0.2559 -0.1673  1.1809
    2SAPS  C217  205   4.051   7.023   5.573 -1.1096 -0.7078 -0.0034
    2SAPS  H17R  206   4.074   7.128   5.545  0.5168 -1.0823 -0.1788
    2SAPS  H17S  207   4.058   6.960   5.482  0.7351 -2.7558  1.4632
    2SAPS  C218  208   4.170   6.983   5.659  0.3177  0.1101 -0.1502
    2SAPS  H18R  209   4.167   6.872   5.670 -2.3505 -0.2804 -3.2937
    2SAPS  H18S  210   4.170   7.034   5.758  0.5023  0.3153 -0.2540
    2SAPS  C219  211   4.304   7.023   5.595 -0.1657  1.2630 -0.0172
    2SAPS  H19R  212   4.325   7.132   5.595  1.1265  1.0298 -1.0715
    2SAPS  H19S  213   4.299   6.982   5.492 -0.0594  0.9193  0.1125
    2SAPS  C220  214   4.420   6.953   5.674  0.1925  0.1917 -0.5421
    2SAPS  H20R  215   4.423   6.846   5.646  0.7014  0.1931 -0.4909
    2SAPS  H20S  216   4.406   6.959   5.784 -0.0769 -1.7242 -0.4370
    2SAPS  H20T  217   4.513   7.007   5.649 -0.0063  0.8399  0.0721
    2SAPS   C33  218   3.896   6.341   6.346 -0.0570  0.8638 -0.1436
    2SAPS   H3X  219   3.940   6.239   6.351  0.1142  0.9422 -0.0361
    2SAPS   H3Y  220   3.981   6.412   6.350  2.9224 -2.3533 -1.5103
    2SAPS   C34  221   3.827   6.343   6.212  0.0153 -0.1128 -0.3869
    2SAPS   H4X  222   3.774   6.441   6.207 -1.6898 -0.7699  2.5289
    2SAPS   H4Y  223   3.744   6.269   6.207  1.5055 -2.0116  1.2606
    2SAPS   C35  224   3.931   6.315   6.100 -0.4929  0.0598  0.3574
    2SAPS   H5X  225   3.926   6.212   6.058  1.3878  0.6492 -1.4863
    2SAPS   H5Y  226   4.033   6.330   6.141 -0.4088 -1.0311  0.5754
    2SAPS   C36  227   3.923   6.420   5.983  0.1387 -0.5915 -0.2394
    2SAPS   H6X  228   3.947   6.527   6.001  0.0783 -0.1585 -2.3650
    2SAPS   H6Y  229   3.815   6.413   5.957  0.1135 -2.8817  0.3231
    2SAPS   C37  230   4.006   6.368   5.858  0.3974 -0.2140  0.5102
    2SAPS   H7X  231   3.979   6.262   5.837  0.9100 -0.3362  0.4509
    2SAPS   H7Y  232   4.112   6.392   5.879  1.4880 -2.2262 -2.1712
    2SAPS   C38  233   3.963   6.432   5.734 -0.1397  0.0871  0.8581
    2SAPS   H8X  234   3.972   6.542   5.748  0.9565  0.0228  0.8023
    2SAPS   H8Y  235   3.861   6.403   5.702  0.7651 -0.4805 -1.8161
    2SAPS   C39  236   4.046   6.396   5.609  0.3189  0.7940 -0.1953
    2SAPS   H9X  237   4.026   6.291   5.579  0.7690  0.1756  1.5158
    2SAPS   H9Y  238   4.156   6.407   5.627 -0.1073  2.9959  1.5846
    2SAPS  C310  239   4.019   6.494   5.495  0.5120  0.0278  0.4767
    2SAPS  H10X  240   4.074   6.462   5.404 -0.4967 -0.7012  0.1004
    2SAPS  H10Y  241   4.059   6.594   5.520 -2.6018  2.0864 -2.0271
    2SAPS  C311  242   3.873   6.494   5.443 -0.1575  0.3241 -0.4920
    2SAPS  H11X  243   3.804   6.543   5.516 -0.6185 -0.2196 -0.5552
    2SAPS  H11Y  244   3.832   6.394   5.418 -0.7689  0.6660 -0.8874
    2SAPS  C312  245   3.869   6.566   5.304 -0.1765 -0.8166 -0.0602
    2SAPS  H12X  246   3.769   6.548   5.260 -0.4417 -0.0731  0.2246
    2SAPS  H12Y  247   3.942   6.534   5.227 -1.0143 -2.2657 -0.2871
    2SAPS  C313  248   3.879   6.721   5.310  0.0771  0.3963  0.1217
    2SAPS  H13X  249   3.956   6.735   5.388 -0.3643  1.3204  0.3920
    2SAPS  H13Y  250   3.789   6.763   5.358  1.1150  1.1953  1.4366
    2SAPS  C314  251   3.908   6.799   5.178  0.2975 -0.9493  0.1131
    2SAPS  H14X  252   3.836   6.764   5.101  2.7619 -1.9367 -1.8905
    2SAPS  H14Y  253   4.007   6.781   5.130  0.3935  1.1209 -0.5598
    2SAPS  C315  254   3.889   6.952   5.194 -0.5379 -0.1423 -0.2787
    2SAPS  H15X  255   3.941   6.983   5.287 -3.2231 -1.3413  1.7535
    2SAPS  H15Y  256   3.780   6.969   5.210 -0.4682  2.4470 -1.8909
    2SAPS  C316  257   3.938   7.024   5.067 -0.9770  0.3928 -0.4050
    2SAPS  H16X  258   3.893   6.970   4.981 -2.1129 -0.2266  0.5449
    2SAPS  H16Y  259   4.048   7.005   5.066 -1.1585 -0.9471  0.6093
    2SAPS  C317  260   3.914   7.166   5.085  0.0993  0.0075 -0.0654
    2SAPS  H17X  261   3.928   7.180   5.194 -2.6285  0.7005  0.2678
    2SAPS  H17Y  262   3.806   7.181   5.061  0.2527 -0.7542 -1.3137
    2SAPS  C318  263   3.989   7.260   4.993  0.5435 -0.9023  0.0038
    2SAPS  H18X  264   3.962   7.236   4.888 -2.6903  4.3538 -0.7408
    2SAPS  H18Y  265   4.100   7.252   4.992  0.7101  0.9216 -0.0342
    2SAPS  H18Z  266   3.954   7.364   5.006  1.3180 -0.8351  1.7837
    3SAPS     N  267   4.525   4.776   7.185 -0.4998  0.0469 -0.1160
    3SAPS   HN1  268   4.517   4.687   7.237 -0.3129  1.3406  2.2904
    3SAPS   HN2  269   4.432   4.803   7.147  0.0603  1.1783 -0.7647
    3SAPS   HN3  270   4.593   4.774   7.106  0.6540 -3.9409  0.7887
    3SAPS   C12  271   4.560   4.877   7.292  0.7777  0.3863  0.8101
    3SAPS  H12A  272   4.590   4.964   7.237 -0.6315  0.4323  0.0565
    3SAPS   C13  273   4.449   4.922   7.391  0.0355  0.3960  0.4617
    3SAPS  O13A  274   4.330   4.876   7.387  0.4155  0.3552  0.7209
    3SAPS  O13B  275   4.480   5.018   7.470  0.5370  0.7115  0.6296
    3SAPS   C11  276   4.685   4.834   7.372  0.0253  0.2907  0.0850
    3SAPS  H11A  277   4.670   4.740   7.429 -0.2759  1.7736  2.6240
    3SAPS  H11B  278   4.708   4.915   7.444  1.2519  0.2581 -0.2587
    3SAPS     P  279   4.933   4.812   7.300  0.2100 -0.2315  0.1376
    3SAPS   O13  280   4.968   4.853   7.437  0.1996  0.0234  0.1850
    3SAPS   O14  281   4.962   4.674   7.263  0.5514  0.4198 -0.8602
    3SAPS   O12  282   4.783   4.820   7.273 -0.2530  0.4139 -0.6672
    3SAPS   O11  283   5.000   4.899   7.196 -0.3300 -0.6297  0.1075
    3SAPS    C1  284   4.999   5.048   7.212 -0.6947 -0.2413  0.1999
    3SAPS    HA  285   4.930   5.081   7.292  0.5342  0.7680  0.8888
    3SAPS    HB  286   5.103   5.076   7.239 -1.2368  1.3190  0.7671
    3SAPS    C2  287   4.972   5.119   7.071 -0.1102  1.2199  0.2167
    3SAPS    HS  288   4.861   5.111   7.067 -0.3208  1.6174  2.9083
    3SAPS   O21  289   5.033   5.060   6.961 -0.4378  0.3484  0.2764
    3SAPS   C21  290   4.961   4.992   6.872  0.7769  0.2584 -0.8705
    3SAPS   O22  291   4.840   4.992   6.866 -0.5938  0.3257  0.0213
    3SAPS   C22  292   5.056   4.923   6.786  0.2481  0.2626  0.5431
    3SAPS   H2R  293   5.149   4.983   6.771  0.3953 -0.1293 -0.1796
    3SAPS   H2S  294   5.079   4.830   6.843  3.1220 -0.3267 -1.3668
    3SAPS    C3  295   4.998   5.276   7.068 -0.8884 -0.0841  0.0441
    3SAPS    HX  296   5.104   5.293   7.098 -0.5444 -1.5571 -0.2920
    3SAPS    HY  297   4.928   5.316   7.144  1.0046  0.8931  1.3603
    3SAPS   O31  298   4.970   5.338   6.941 -0.2545  0.1419 -0.1762
    3SAPS   C31  299   4.841   5.362   6.917 -0.0433  0.2464 -0.2012
    3SAPS   O32  300   4.749   5.339   6.993 -0.0421  0.3815 -0.1384
    3SAPS   C32  301   4.828   5.409   6.776 -0.8043 -0.6081 -0.4644
    3SAPS   H2X  302   4.853   5.517   6.767 -2.1642 -0.4722 -4.0877
    3SAPS   H2Y  303   4.718   5.400   6.761 -1.0975 -3.5309  2.3926
    3SAPS   C23  304   4.993   4.896   6.644  0.0779  0.4761  0.5029
    3SAPS   H3R  305   4.978   4.993   6.593  0.6174 -0.4926 -1.6178
    3SAPS   H3S  306   4.901   4.834   6.651  0.9231 -0.7730  0.9096
    3SAPS   C24  307   5.088   4.812   6.549  0.5909 -0.0850 -0.6324
    3SAPS   H4R  308   5.135   4.734   6.612  1.8108 -0.3265 -1.7982
    3SAPS   H4S  309   5.166   4.883   6.514  1.7492 -0.4359  1.1535
    3SAPS   C25  310   5.015   4.748   6.436 -0.1751 -0.4573  0.0200
    3SAPS   H5R  311   4.964   4.656   6.469 -0.0829  0.1780  2.1330
    3SAPS   C26  312   5.010   4.777   6.300  0.1278 -0.1567 -0.6963
    3SAPS   H6R  313   4.963   4.699   6.239  0.5099 -0.8649 -0.1040
    3SAPS   C27  314   5.060   4.905   6.240  0.0714  0.6762 -0.1679
    3SAPS   H7R  315   5.128   4.963   6.306 -0.5076 -0.7265  1.7723
    3SAPS   H7S  316   4.965   4.961   6.231 -0.3568  0.0342  0.2498
    3SAPS   C28  317   5.126   4.885   6.107 -0.0821  0.6590 -0.4878
    3SAPS   H8R  318   5.236   4.878   6.119 -0.0807  1.5501  0.1407
    3SAPS   C29  319   5.070   4.863   5.987  0.2668  0.0614  0.0476
    3SAPS   H9R  320   5.128   4.849   5.895 -2.0652 -1.3202 -1.2874
    3SAPS  C210  321   4.927   4.845   5.955  0.0329  0.5554 -0.4797
    3SAPS  H10R  322   4.869   4.820   6.046 -0.0979 -1.5469 -1.0846
    3SAPS  H10S  323   4.916   4.751   5.896  0.0842  0.2775 -0.0442
    3SAPS  C211  324   4.867   4.965   5.889 -1.5971  0.7082 -0.1295
    3SAPS  H11R  325   4.817   5.041   5.953 -3.0460 -0.7251  0.5030
    3SAPS  C212  326   4.881   5.010   5.761 -0.4982  0.3547 -0.0939
    3SAPS  H12R  327   4.846   5.112   5.738  0.3721  1.0896  1.6396
    3SAPS  C213  328   4.967   4.949   5.655  0.3358 -0.0069 -0.1925
    3SAPS  H13R  329   4.895   4.921   5.575 -0.4109  0.6788  0.2187
    3SAPS  H13S  330   5.011   4.857   5.698  0.5125  1.1334  2.2338
    3SAPS  C214  331   5.090   5.029   5.615 -0.9361  0.1062 -0.9811
    3SAPS  H14R  332   5.174   5.020   5.685 -0.3429 -0.4842 -1.7576
    3SAPS  C215  333   5.112   5.099   5.497 -0.3161 -0.6485 -0.4253
    3SAPS  H15R  334   5.205   5.158   5.490 -0.4893 -0.2457  0.4998
    3SAPS  C216  335   5.007   5.120   5.391  0.4492 -0.2215  0.5332
    3SAPS  H16R  336   4.943   5.206   5.418 -0.9471  0.1788 -3.3992
    3SAPS  H16S  337   4.937   5.034   5.388  0.8713 -0.6007  1.2032
    3SAPS  C217  338   5.076   5.129   5.254  0.0157 -0.0638 -0.2991
    3SAPS  H17R  339   5.117   5.026   5.238 -0.9853 -0.2871 -1.6440
    3SAPS  H17S  340   5.162   5.199   5.267  0.2059 -0.6337  1.9912
    3SAPS  C218  341   4.984   5.160   5.138 -0.4665  0.5803  0.0668
    3SAPS  H18R  342   4.900   5.087   5.128 -0.2463  0.0020  1.9313
    3SAPS  H18S  343   5.032   5.153   5.039  0.5514  0.1774  0.5670
    3SAPS  C219  344   4.929   5.303   5.134  0.2919  0.6399 -0.1676
    3SAPS  H19R  345   4.879   5.306   5.233  0.3169 -0.1619 -0.1260
    3SAPS  H19S  346   5.009   5.378   5.117  0.2436  1.0928  1.4751
    3SAPS  C220  347   4.831   5.345   5.020 -0.6922  0.7305  0.5952
    3SAPS  H20R  348   4.872   5.314   4.922 -0.2032 -0.7888  1.2492
    3SAPS  H20S  349   4.819   5.456   5.015  1.3978  0.9699 -0.3299
    3SAPS  H20T  350   4.736   5.290   5.031 -0.8122  0.9688  0.7628
    3SAPS   C33  351   4.916   5.324   6.678  0.6348 -0.2218 -0.2426
    3SAPS   H3X  352   4.876   5.222   6.661  3.3810 -1.4365  0.0536
    3SAPS   H3Y  353   5.018   5.309   6.721  1.1398  0.1357 -1.2826
    3SAPS   C34  354   4.935   5.400   6.545  0.2355 -0.8135 -1.0682
    3SAPS   H4X  355   4.973   5.502   6.568 -0.7106 -0.4397 -1.0996
    3SAPS   H4Y  356   4.837   5.407   6.492 -0.0228  1.5423 -0.4001
    3SAPS   C35  357   5.029   5.332   6.445 -0.1426 -0.2723 -0.7817
    3SAPS   H5X  358   5.132   5.362   6.476 -0.4394 -1.7769  2.0573
    3SAPS   H5Y  359   5.019   5.222   6.450  1.7298 -0.6544 -3.3782
    3SAPS   C36  360   5.011   5.371   6.298  0.1656 -0.4156  0.4868
    3SAPS   H6X  361   5.028   5.479   6.279  0.5472 -0.8551 -2.0176
    3SAPS   H6Y  362   4.906   5.349   6.270  0.7217 -2.0664 -0.4429
    3SAPS   C37  363   5.096   5.282   6.198  0.2779  0.3455 -0.1225
    3SAPS   H7X  364   5.125   5.185   6.245  0.4789  1.1000  1.3889
    3SAPS   H7Y  365   5.184   5.349   6.187 -1.2070  2.2567 -0.7447
    3SAPS   C38  366   5.033   5.279   6.062  0.2203  0.4334 -0.0377
    3SAPS   H8X  367   4.928   5.243   6.060 -1.0165  3.4969  1.8242
    3SAPS   H8Y  368   5.080   5.199   6.002  0.5179  0.8914 -0.4181
    3SAPS   C39  369   5.052   5.405   5.980  0.4281 -0.0580  0.7299
    3SAPS   H9X  370   5.153   5.449   5.985 -0.2097  1.4563  0.7626
    3SAPS   H9Y  371   4.987   5.490   6.009  0.7043  1.9687 -3.8692
    3SAPS  C310  372   5.027   5.379   5.829 -0.2284 -0.3010 -0.9094
    3SAPS  H10X  373   4.927   5.332   5.826  0.3809 -1.6147 -1.0663
    3SAPS  H10Y  374   5.103   5.304   5.800  0.2410 -1.1033  2.0802
    3SAPS  C311  375   5.036   5.509   5.746 -0.3562 -0.0799 -0.0842
    3SAPS  H11X  376   5.123   5.572   5.773 -1.3792  2.0965 -1.5600
    3SAPS  H11Y  377   4.951   5.578   5.765  1.2909  2.7430 -2.0749
    3SAPS  C312  378   5.051   5.478   5.592  0.1712  0.1567 -0.0065
    3SAPS  H12X  379   4.960   5.418   5.572 -0.6453 -0.0318  3.6373
    3SAPS  H12Y  380   5.131   5.401   5.583 -0.5720 -1.2777  4.0446
    3SAPS  C313  381   5.066   5.598   5.500  1.0850 -0.0700 -0.5945
    3SAPS  H13X  382   5.169   5.640   5.513  1.0611 -0.2577  0.2575
    3SAPS  H13Y  383   5.000   5.683   5.527 -0.3257 -1.2817 -0.1330
    3SAPS  C314  384   5.034   5.558   5.359 -0.4114 -0.8196 -0.5163
    3SAPS  H14X  385   4.928   5.549   5.330  0.4184 -0.4368 -4.2192
    3SAPS  H14Y  386   5.066   5.452   5.342 -0.0854 -0.9828  1.0242
    3SAPS  C315  387   5.090   5.652   5.249  0.7133 -0.1497 -0.3968
    3SAPS  H15X  388   5.043   5.746   5.284  2.7222 -0.0433  2.2819
    3SAPS  H15Y  389   5.050   5.623   5.149  1.5814 -0.6490 -0.6175
    3SAPS  C316  390   5.238   5.671   5.241 -0.1797  0.7652  0.0568
    3SAPS  H16X  391   5.283   5.630   5.333 -0.5810 -0.2700 -0.1858
    3SAPS  H16Y  392   5.262   5.779   5.237 -2.3541  1.2751 -2.5311
    3SAPS  C317  393   5.307   5.602   5.130 -0.2620  0.1664 -0.0417
    3SAPS  H17X  394   5.258   5.615   5.030  0.3110 -3.2568 -0.9020
    3SAPS  H17Y  395   5.284   5.496   5.152 -0.0580  0.8215  3.9613
    3SAPS  C318  396   5.454   5.636   5.126  0.1479  0.0677 -0.3928
    3SAPS  H18X  397   5.525   5.559   5.088  0.9219  0.4006  0.3348
    3SAPS  H18Y  398   5.489   5.669   5.226  0.4448 -1.6909  0.1266
    3SAPS  H18Z  399   5.474   5.726   5.064 -2.6032  0.2376 -1.1764
    4SAPS     N  400   5.055   2.801   7.041  0.3258  0.2347  0.7799
    4SAPS   HN1  401   5.155   2.804   7.070  1.1830 -0.2986 -1.8046
    4SAPS   HN2  402   5.044   2.775   6.940  2.6099  0.9506  0.2633
    4SAPS   HN3  403   5.006   2.890   7.063  0.1656 -0.1971  2.2311
    4SAPS   C12  404   4.997   2.706   7.131 -0.0940  0.4207  0.1349
    4SAPS  H12A  405   4.986   2.605   7.094  0.2699 -0.2116  1.6981
    4SAPS   C13  406   5.093   2.693   7.253 -0.6586  0.1489  0.6821
    4SAPS  O13A  407   5.193   2.771   7.267  0.2250  0.2344  0.3631
    4SAPS  O13B  408   5.058   2.609   7.341  0.1707 -0.0564 -0.1206
    4SAPS   C11  409   4.865   2.760   7.179  0.5666 -0.1150 -0.9808
    4SAPS  H11A  410   4.895   2.852   7.234 -0.8357  0.3886 -1.0363
    4SAPS  H11B  411   4.817   2.688   7.248 -0.8766  1.7321  0.0143
    4SAPS     P  412   4.667   2.700   7.014  0.2553  0.1686 -0.3592
    4SAPS   O13  413   4.721   2.584   6.940 -0.5234 -0.4825 -0.2229
    4SAPS   O14  414   4.581   2.659   7.130 -0.6769  0.0127  0.8012
    4SAPS   O12  415   4.784   2.799   7.069  0.0411 -0.3297 -0.2940
    4SAPS   O11  416   4.586   2.792   6.919  0.3186 -0.4386  0.8832
    4SAPS    C1  417   4.631   2.831   6.787  0.2647 -0.0379 -1.1069
    4SAPS    HA  418   4.716   2.900   6.803 -0.3940  0.2609  1.5198
    4SAPS    HB  419   4.676   2.743   6.736 -0.1383 -1.0916  0.3172
    4SAPS    C2  420   4.527   2.904   6.698 -0.4944 -0.0792 -0.1293
    4SAPS    HS  421   4.471   2.977   6.760 -1.3186  0.6644 -1.6876
    4SAPS   O21  422   4.435   2.814   6.633 -0.0943 -0.7955 -0.2508
    4SAPS   C21  423   4.347   2.748   6.711  0.4563 -0.0165 -0.7660
    4SAPS   O22  424   4.322   2.778   6.826 -0.4272 -0.2063 -0.0808
    4SAPS   C22  425   4.294   2.635   6.634  0.6719 -0.1451  0.3531
    4SAPS   H2R  426   4.281   2.652   6.525  0.7840  0.3219  0.4118
    4SAPS   H2S  427   4.357   2.545   6.657  0.8010  0.1752  1.3024
    4SAPS    C3  428   4.596   2.983   6.584  0.2470 -0.4572  0.4254
    4SAPS    HX  429   4.662   3.064   6.622  0.9834 -0.6012 -0.5025
    4SAPS    HY  430   4.524   3.042   6.523  0.9804 -1.7341 -1.7891
    4SAPS   O31  431   4.680   2.897   6.503  0.0266  0.2043 -0.1550
    4SAPS   C31  432   4.624   2.832   6.400  0.6146 -0.0680  0.2114
    4SAPS   O32  433   4.508   2.842   6.374 -0.2393  0.2722  0.2632
    4SAPS   C32  434   4.725   2.754   6.328 -0.6089 -0.6317  0.5046
    4SAPS   H2X  435   4.737   2.652   6.371  1.6104 -1.8344 -2.5481
    4SAPS   H2Y  436   4.823   2.800   6.355 -0.7844 -0.7691  1.4191
    4SAPS   C23  437   4.154   2.612   6.693  0.5724 -0.4927 -0.1439
    4SAPS   H3R  438   4.147   2.640   6.800  0.9758 -1.9283  0.2834
    4SAPS   H3S  439   4.135   2.503   6.682 -1.6341 -0.4101  1.9854
    4SAPS   C24  440   4.044   2.688   6.615 -0.0165  0.7495  0.3869
    4SAPS   H4R  441   4.055   2.666   6.507 -0.4532  0.1974  0.4522
    4SAPS   H4S  442   4.068   2.797   6.624  0.3737  0.6052  1.1586
    4SAPS   C25  443   3.908   2.656   6.667 -0.1916 -0.2911 -0.1981
    4SAPS   H5R  444   3.899   2.681   6.774  1.6502 -0.3256 -0.0089
    4SAPS   C26  445   3.810   2.597   6.595  0.0393  0.1422  0.1747
    4SAPS   H6R  446   3.709   2.588   6.636  0.0999  0.2485  0.3485
    4SAPS   C27  447   3.823   2.559   6.445 -0.2572 -0.1107 -0.0372
    4SAPS   H7R  448   3.903   2.482   6.437  1.7316  1.8572 -0.3430
    4SAPS   H7S  449   3.868   2.639   6.381  1.0170 -1.4226 -0.8535
    4SAPS   C28  450   3.691   2.505   6.395 -0.5765  0.4406 -0.1839
    4SAPS   H8R  451   3.661   2.409   6.438  1.6976  1.4032  4.0434
    4SAPS   C29  452   3.618   2.567   6.302 -0.6620 -0.0375 -0.3552
    4SAPS   H9R  453   3.531   2.520   6.255 -0.3546  1.2394 -2.3168
    4SAPS  C210  454   3.644   2.691   6.231  0.4329  0.1894  0.5960
    4SAPS  H10R  455   3.724   2.671   6.156 -0.8951 -0.1199 -0.7863
    4SAPS  H10S  456   3.699   2.760   6.299 -1.8005  2.1669  0.5374
    4SAPS  C211  457   3.526   2.750   6.146  0.2882 -0.2019 -0.3219
    4SAPS  H11R  458   3.446   2.784   6.212 -0.5483 -0.2065 -1.3084
    4SAPS  C212  459   3.501   2.776   6.013  0.0217  0.4656 -0.1845
    4SAPS  H12R  460   3.406   2.824   5.989  0.6576  2.2812  0.7356
    4SAPS  C213  461   3.601   2.758   5.903 -0.2558  0.1637 -0.1208
    4SAPS  H13R  462   3.685   2.694   5.937 -1.0496 -2.0020 -1.9564
    4SAPS  H13S  463   3.642   2.855   5.867  0.7648 -0.3346 -0.3338
    4SAPS  C214  464   3.548   2.694   5.784 -0.9015 -0.4993  0.0633
    4SAPS  H14R  465   3.444   2.659   5.800 -1.0725  0.9367  2.4989
    4SAPS  C215  466   3.615   2.686   5.667  0.1278  0.0521 -0.1510
    4SAPS  H15R  467   3.577   2.619   5.589  0.0523 -1.1189  0.8738
    4SAPS  C216  468   3.751   2.741   5.647 -0.3548 -0.8909  0.2656
    4SAPS  H16R  469   3.827   2.720   5.726 -0.6005  0.2753  0.8312
    4SAPS  H16S  470   3.744   2.852   5.644 -1.3630 -0.9460  0.2220
    4SAPS  C217  471   3.816   2.692   5.518 -0.2133 -0.2425 -0.4671
    4SAPS  H17R  472   3.794   2.583   5.510 -1.6524 -0.0111  0.0313
    4SAPS  H17S  473   3.922   2.719   5.534 -0.5045 -0.3402  2.0336
    4SAPS  C218  474   3.754   2.762   5.394  0.7527  0.5189  0.0513
    4SAPS  H18R  475   3.733   2.866   5.428 -1.1288  0.5371 -1.0309
    4SAPS  H18S  476   3.664   2.711   5.354  0.7285  1.6125 -1.3471
    4SAPS  C219  477   3.854   2.770   5.281  0.3720  0.0737 -1.1079
    4SAPS  H19R  478   3.949   2.821   5.309 -0.6058  1.3715 -0.0701
    4SAPS  H19S  479   3.803   2.824   5.198 -1.4250  0.5115  0.2351
    4SAPS  C220  480   3.892   2.635   5.232  0.0818 -0.1592 -0.8326
    4SAPS  H20R  481   3.971   2.609   5.306  1.7960  0.3405 -2.4496
    4SAPS  H20S  482   3.945   2.631   5.135  0.8684  0.2074 -0.4245
    4SAPS  H20T  483   3.807   2.562   5.231 -0.5629  0.5629 -0.1635
    4SAPS   C33  484   4.705   2.747   6.174 -0.0081  0.0894  0.1049
    4SAPS   H3X  485   4.794   2.713   6.118 -0.2677  1.0159 -0.9042
    4SAPS   H3Y  486   4.692   2.849   6.132  0.7663  0.6917  1.2593
    4SAPS   C34  487   4.585   2.659   6.133  0.0129  0.1338  0.3036
    4SAPS   H4X  488   4.497   2.724   6.152  0.5812  1.1752 -0.5399
    4SAPS   H4Y  489   4.579   2.566   6.194 -1.0622 -0.9362 -1.3255
    4SAPS   C35  490   4.581   2.616   5.987 -0.4835  0.0869 -0.1418
    4SAPS   H5X  491   4.643   2.524   5.980  1.1081  0.9544  1.5824
    4SAPS   H5Y  492   4.636   2.703   5.944 -1.6173  1.2440  0.6928
    4SAPS   C36  493   4.457   2.606   5.902 -0.2234  1.0528  0.3548
    4SAPS   H6X  494   4.397   2.699   5.914 -0.3259  0.8799  1.1906
    4SAPS   H6Y  495   4.399   2.516   5.930  1.6896 -0.1245  0.6860
    4SAPS   C37  496   4.499   2.587   5.756  0.0337  0.4245  0.4567
    4SAPS   H7X  497   4.552   2.491   5.734  2.7036  1.5865  1.4504
    4SAPS   H7Y  498   4.576   2.660   5.722  2.1123 -1.0448  1.7261
    4SAPS   C38  499   4.374   2.585   5.663  0.1193  0.1506  0.5656
    4SAPS   H8X  500   4.315   2.679   5.675  0.8174  0.8115 -0.8769
    4SAPS   H8Y  501   4.313   2.500   5.699 -1.5281  1.4160  0.8909
    4SAPS   C39  502   4.394   2.573   5.511  0.4224  0.1313  0.0079
    4SAPS   H9X  503   4.461   2.488   5.490 -1.0602 -2.2110  3.7393
    4SAPS   H9Y  504   4.440   2.665   5.470 -0.6529  0.6952  0.0214
    4SAPS  C310  505   4.257   2.547   5.445 -0.4687  0.5487 -0.0049
    4SAPS  H10X  506   4.182   2.627   5.462 -2.3991 -1.0952 -0.3088
    4SAPS  H10Y  507   4.213   2.453   5.485 -3.4658  0.1277 -3.6559
    4SAPS  C311  508   4.269   2.522   5.291  0.1431 -0.5067  0.2892
    4SAPS  H11X  509   4.165   2.504   5.255  0.1228 -0.5426  0.3653
    4SAPS  H11Y  510   4.323   2.429   5.262 -1.2277 -1.3440  0.2961
    4SAPS  C312  511   4.324   2.637   5.204 -0.0789  0.5651  0.6249
    4SAPS  H12X  512   4.433   2.627   5.186 -0.5523 -1.5722 -1.6403
    4SAPS  H12Y  513   4.291   2.730   5.255 -3.7825  1.2017 -2.4782
    4SAPS  C313  514   4.261   2.644   5.068  0.2872 -0.7028 -0.9530
    4SAPS  H13X  515   4.151   2.640   5.080  0.4528 -1.2254  0.6649
    4SAPS  H13Y  516   4.286   2.549   5.016 -1.9194 -1.2852 -1.0442
    4SAPS  C314  517   4.310   2.767   4.982 -0.6594 -0.3256  0.3186
    4SAPS  H14X  518   4.419   2.748   4.985 -0.5074  0.6319  1.5668
    4SAPS  H14Y  519   4.282   2.861   5.035 -3.8266 -0.7721 -0.3148
    4SAPS  C315  520   4.254   2.755   4.839 -0.4460  0.5035  0.4339
    4SAPS  H15X  521   4.144   2.738   4.840 -0.3188 -0.4307  1.8737
    4SAPS  H15Y  522   4.292   2.657   4.803 -0.9994  0.6531 -0.5961
    4SAPS  C316  523   4.301   2.856   4.739  0.3642 -0.4698  0.1916
    4SAPS  H16X  524   4.411   2.844   4.728 -0.1415 -4.7767 -2.0595
    4SAPS  H16Y  525   4.287   2.956   4.785  1.5576  0.0260 -0.4773
    4SAPS  C317  526   4.237   2.842   4.593  0.8750  0.0621  0.3300
    4SAPS  H17X  527   4.128   2.865   4.598  0.9405  0.9220 -1.4452
    4SAPS  H17Y  528   4.256   2.740   4.554  1.8241 -2.2895  6.0400
    4SAPS  C318  529   4.292   2.943   4.493  0.1523 -0.5552 -0.3546
    4SAPS  H18X  530   4.255   2.922   4.390 -0.7649 -3.8456  0.5041
    4SAPS  H18Y  531   4.401   2.925   4.495  0.4153  0.8280 -1.2113
    4SAPS  H18Z  532   4.278   3.045   4.535  1.5640 -0.9277  1.1232
    5SAPS     N  533   4.265   5.624   7.603 -0.6507 -0.0334 -0.1511
    5SAPS   HN1  534   4.283   5.543   7.541  3.0282  1.0058 -0.7051
    5SAPS   HN2  535   4.190   5.609   7.674  0.6518 -1.6007  0.9551
    5SAPS   HN3  536   4.240   5.700   7.537 -1.0556 -1.6161 -1.8948
    5SAPS   C12  537   4.377   5.658   7.679 -0.7211 -0.2161 -0.5343
    5SAPS  H12A  538   4.356   5.762   7.702 -2.9184 -0.6213 -0.4965
    5SAPS   C13  539   4.389   5.580   7.807  0.0847  0.3427 -0.0245
    5SAPS  O13A  540   4.295   5.505   7.855 -0.0257 -0.3183  0.0094
    5SAPS  O13B  541   4.482   5.613   7.887 -0.8358 -0.1632  0.0685
    5SAPS   C11  542   4.501   5.646   7.581  0.2824  0.5345 -0.0160
    5SAPS  H11A  543   4.514   5.541   7.547  0.8668  0.2423  1.0519
    5SAPS  H11B  544   4.590   5.676   7.641  1.2173  1.3200 -1.7460
    5SAPS     P  545   4.547   5.871   7.443  0.2967  0.2533  0.0734
    5SAPS   O13  546   4.487   5.933   7.320  0.0413  0.8381 -0.2627
    5SAPS   O14  547   4.537   5.955   7.563  0.1582 -0.2356 -0.3027
    5SAPS   O12  548   4.475   5.734   7.475  0.2184  0.3658 -0.5649
    5SAPS   O11  549   4.695   5.835   7.413  0.4369  0.1107  0.2671
    5SAPS    C1  550   4.746   5.712   7.363 -0.2208 -0.2010 -0.1239
    5SAPS    HA  551   4.828   5.685   7.432  0.9440 -0.5365 -1.5788
    5SAPS    HB  552   4.668   5.634   7.349 -2.1282  1.7767 -1.1244
    5SAPS    C2  553   4.811   5.727   7.228 -0.0498  0.2967  0.3343
    5SAPS    HS  554   4.872   5.819   7.238  0.3421 -0.1488  2.5590
    5SAPS   O21  555   4.702   5.747   7.140 -0.1302 -0.2297 -0.0385
    5SAPS   C21  556   4.728   5.833   7.046  0.7345  0.3974 -0.0717
    5SAPS   O22  557   4.834   5.891   7.020  0.1569 -0.0175 -0.2762
    5SAPS   C22  558   4.598   5.855   6.972  0.3040  0.3044  0.5360
    5SAPS   H2R  559   4.556   5.755   6.949 -1.1242  1.1693 -0.7587
    5SAPS   H2S  560   4.519   5.902   7.034  0.0352  0.7336 -0.1321
    5SAPS    C3  561   4.901   5.609   7.185  0.9493 -0.5429 -0.3715
    5SAPS    HX  562   4.830   5.523   7.185  1.9196 -1.3769 -1.3684
    5SAPS    HY  563   4.978   5.595   7.264 -0.4321  1.8966  1.5413
    5SAPS   O31  564   4.956   5.625   7.049 -0.4015 -0.9631 -0.0166
    5SAPS   C31  565   5.062   5.707   7.054  0.2573  0.3390 -0.1281
    5SAPS   O32  566   5.121   5.738   7.153  0.2310 -0.4849 -0.0944
    5SAPS   C32  567   5.107   5.747   6.913 -0.1501 -0.5881  0.0807
    5SAPS   H2X  568   5.185   5.825   6.926 -0.1562 -0.4766 -0.5634
    5SAPS   H2Y  569   5.023   5.801   6.866  1.0674  3.9015  2.4808
    5SAPS   C23  570   4.617   5.924   6.837  0.6987 -0.3897 -0.0084
    5SAPS   H3R  571   4.653   6.027   6.856 -3.9474  1.2295  1.5202
    5SAPS   H3S  572   4.517   5.947   6.795 -0.5190 -2.1640  1.7138
    5SAPS   C24  573   4.708   5.855   6.730 -0.2594 -0.1984 -0.0437
    5SAPS   H4R  574   4.674   5.753   6.703  0.7594 -0.0507 -2.1660
    5SAPS   H4S  575   4.816   5.848   6.756  0.6147 -1.3420 -3.3805
    5SAPS   C25  576   4.716   5.940   6.604 -1.0450 -0.2129 -0.0574
    5SAPS   H5R  577   4.665   6.038   6.601  2.9572  2.0972 -0.4174
    5SAPS   C26  578   4.776   5.905   6.491 -1.4861  0.0878 -0.1950
    5SAPS   H6R  579   4.785   5.979   6.411  2.6509 -0.0625 -0.0641
    5SAPS   C27  580   4.849   5.777   6.465  0.5091  0.4296 -0.4270
    5SAPS   H7R  581   4.788   5.703   6.409 -1.1681 -0.2371  2.1007
    5SAPS   H7S  582   4.864   5.722   6.561 -2.4257  0.4797  0.1568
    5SAPS   C28  583   4.986   5.806   6.404 -0.1917 -0.7420  0.8152
    5SAPS   H8R  584   5.064   5.844   6.471  0.1538 -1.1224  0.6308
    5SAPS   C29  585   5.004   5.813   6.263  0.3167  0.1709 -0.1670
    5SAPS   H9R  586   5.102   5.826   6.216  0.2290  0.8340 -0.1783
    5SAPS  C210  587   4.897   5.795   6.165 -0.2054 -0.6645  0.3619
    5SAPS  H10R  588   4.829   5.882   6.171 -3.0717 -2.6447 -1.1016
    5SAPS  H10S  589   4.831   5.709   6.190 -2.5446  0.5741 -1.2333
    5SAPS  C211  590   4.936   5.785   6.020  0.1541 -0.5377 -0.3829
    5SAPS  H11R  591   4.919   5.684   5.980  2.4272 -1.6075  1.1454
    5SAPS  C212  592   4.977   5.889   5.948 -0.3487  0.3771  0.8926
    5SAPS  H12R  593   5.022   5.875   5.849  1.7585 -1.4086  2.0073
    5SAPS  C213  594   5.009   6.027   5.999  0.2087  0.6412  0.2030
    5SAPS  H13R  595   5.000   6.040   6.109 -1.8843  3.3666 -0.1626
    5SAPS  H13S  596   4.941   6.099   5.948  0.5118 -0.3868 -1.7476
    5SAPS  C214  597   5.153   6.060   5.966 -0.5593  0.0226 -0.5232
    5SAPS  H14R  598   5.228   5.994   6.014 -1.8012 -0.9319  0.1615
    5SAPS  C215  599   5.202   6.155   5.885 -0.2379  0.6636  0.2515
    5SAPS  H15R  600   5.307   6.186   5.871 -0.7264  2.2617 -0.1289
    5SAPS  C216  601   5.114   6.239   5.802 -0.3000 -0.4191 -0.1093
    5SAPS  H16R  602   5.160   6.335   5.770  1.0860 -0.2857  2.0626
    5SAPS  H16S  603   5.031   6.275   5.867 -0.9646  0.1012 -1.2175
    5SAPS  C217  604   5.039   6.155   5.696  0.2920 -1.0481 -0.4228
    5SAPS  H17R  605   4.959   6.220   5.654 -0.0711 -1.9610 -1.2026
    5SAPS  H17S  606   4.978   6.081   5.754  2.1394 -1.4429  1.1005
    5SAPS  C218  607   5.120   6.107   5.581 -0.1915 -0.1936  0.6833
    5SAPS  H18R  608   5.209   6.050   5.615  0.7796 -0.1308 -1.5328
    5SAPS  H18S  609   5.162   6.196   5.528 -0.3575 -0.4365  0.1335
    5SAPS  C219  610   5.041   6.023   5.478 -0.1578  0.6446 -0.4368
    5SAPS  H19R  611   4.954   5.987   5.538  0.0484  1.7972  0.6068
    5SAPS  H19S  612   5.102   5.940   5.437 -1.3557 -0.2404 -0.5163
    5SAPS  C220  613   4.986   6.098   5.361  0.8157 -0.1212 -0.5084
    5SAPS  H20R  614   5.061   6.146   5.295  1.8877  0.3641  1.0164
    5SAPS  H20S  615   4.909   6.168   5.400 -0.4839 -2.1584  0.7934
    5SAPS  H20T  616   4.923   6.026   5.304 -0.7335 -0.9493  2.0978
    5SAPS   C33  617   5.166   5.625   6.838 -0.4333 -1.0324 -0.1563
    5SAPS   H3X  618   5.084   5.554   6.815  0.1104 -2.0320  0.8748
    5SAPS   H3Y  619   5.231   5.567   6.907 -0.7947 -0.9526  0.2580
    5SAPS   C34  620   5.249   5.666   6.717 -0.4767 -0.4246 -0.9413
    5SAPS   H4X  621   5.334   5.731   6.747 -0.4142  0.1197 -2.2257
    5SAPS   H4Y  622   5.191   5.734   6.651 -0.7447 -0.0439 -0.3256
    5SAPS   C35  623   5.303   5.551   6.636 -0.0439 -0.0208  0.0489
    5SAPS   H5X  624   5.219   5.485   6.608 -1.5880  0.8413  2.3580
    5SAPS   H5Y  625   5.369   5.488   6.699 -0.1205 -0.1345  0.0141
    5SAPS   C36  626   5.382   5.595   6.508  0.1072 -0.6401  0.7111
    5SAPS   H6X  627   5.460   5.665   6.546 -0.8791 -0.0519  1.7304
    5SAPS   H6Y  628   5.315   5.660   6.448  1.4321 -0.1410 -0.2678
    5SAPS   C37  629   5.451   5.474   6.436  0.2815 -0.6702  0.0720
    5SAPS   H7X  630   5.364   5.409   6.412 -0.2247 -0.0038  0.0593
    5SAPS   H7Y  631   5.525   5.419   6.497 -0.1890  0.0482  1.3307
    5SAPS   C38  632   5.512   5.511   6.295  0.3663  0.2740 -0.5002
    5SAPS   H8X  633   5.563   5.420   6.258  0.8030  0.4690 -0.3946
    5SAPS   H8Y  634   5.593   5.586   6.313  1.2130 -0.4241 -1.3062
    5SAPS   C39  635   5.410   5.571   6.199  0.2175  0.3856 -0.2896
    5SAPS   H9X  636   5.357   5.654   6.250  1.6960  2.3200 -1.7472
    5SAPS   H9Y  637   5.332   5.494   6.182  0.1928 -0.1082  1.7472
    5SAPS  C310  638   5.470   5.633   6.074 -0.4105  0.1723 -0.8003
    5SAPS  H10X  639   5.522   5.560   6.010  1.5914 -0.2920  1.2066
    5SAPS  H10Y  640   5.556   5.699   6.101  0.5968 -0.7182 -1.7553
    5SAPS  C311  641   5.365   5.706   5.985  0.1168 -0.2559  0.4338
    5SAPS  H11X  642   5.309   5.775   6.052 -1.0884 -1.6972  0.9492
    5SAPS  H11Y  643   5.279   5.642   5.958 -1.6176  2.2853 -0.4796
    5SAPS  C312  644   5.437   5.752   5.852  0.6823 -0.6359 -0.5290
    5SAPS  H12X  645   5.496   5.662   5.825  1.3172  0.2075 -2.0441
    5SAPS  H12Y  646   5.505   5.837   5.876 -0.6077  0.1051  0.6583
    5SAPS  C313  647   5.347   5.779   5.737 -0.6044 -0.0390 -0.0895
    5SAPS  H13X  648   5.272   5.857   5.762 -0.5717 -0.2741  0.7822
    5SAPS  H13Y  649   5.293   5.682   5.736 -0.8561  0.0562  1.4464
    5SAPS  C314  650   5.412   5.811   5.599 -0.2597 -0.5232 -0.6978
    5SAPS  H14X  651   5.337   5.810   5.517  0.2346 -2.0771 -1.1575
    5SAPS  H14Y  652   5.477   5.723   5.581  1.6140  0.7139 -0.2936
    5SAPS  C315  653   5.493   5.936   5.596  0.2203 -0.6017 -0.2574
    5SAPS  H15X  654   5.557   5.927   5.686 -2.0668 -3.5052  1.2614
    5SAPS  H15Y  655   5.430   6.025   5.617  1.1628  0.0165  0.0032
    5SAPS  C316  656   5.581   5.949   5.473  0.6320 -0.6694 -0.0028
    5SAPS  H16X  657   5.634   5.853   5.454  0.4201 -0.8302  0.2181
    5SAPS  H16Y  658   5.658   6.028   5.485 -0.8096  0.5005  2.1174
    5SAPS  C317  659   5.504   5.982   5.348  0.3483 -0.6978  0.4345
    5SAPS  H17X  660   5.446   5.891   5.323  1.4653 -1.1795 -0.5442
    5SAPS  H17Y  661   5.570   5.995   5.260 -1.9012 -1.3797 -1.4599
    5SAPS  C318  662   5.407   6.099   5.356 -0.1305 -0.4618 -0.2871
    5SAPS  H18X  663   5.385   6.149   5.259 -2.9029  1.4160  1.1764
    5SAPS  H18Y  664   5.458   6.180   5.412 -0.5485 -0.7418  0.5164
    5SAPS  H18Z  665   5.313   6.062   5.403 -0.2803 -0.5181 -0.6279
    6SAPS     N  666   3.206   5.526   7.206 -0.4239 -0.0883  0.0311
    6SAPS   HN1  667   3.103   5.539   7.208 -0.7343 -2.3293  0.7975
    6SAPS   HN2  668   3.261   5.612   7.228 -0.3403  0.0496 -0.7029
    6SAPS   HN3  669   3.231   5.503   7.108 -0.8219 -3.1044  0.5549
    6SAPS   C12  670   3.262   5.416   7.291  0.7973 -0.1107 -0.5028
    6SAPS  H12A  671   3.245   5.452   7.392 -1.2341 -2.3347  0.0448
    6SAPS   C13  672   3.204   5.275   7.277  0.5511  0.1113  0.3051
    6SAPS  O13A  673   3.131   5.241   7.182  0.7689 -0.1789  0.3746
    6SAPS  O13B  674   3.222   5.194   7.373 -0.0087  0.4048 -0.0711
    6SAPS   C11  675   3.410   5.404   7.277  0.2096  0.6414  0.5039
    6SAPS  H11A  676   3.447   5.330   7.351  2.4260  0.2074 -0.9331
    6SAPS  H11B  677   3.452   5.504   7.298  4.2144 -0.0322 -2.9455
    6SAPS     P  678   3.591   5.326   7.106 -0.0443  0.0070  0.0220
    6SAPS   O13  679   3.691   5.432   7.133  0.4372  0.5009  0.0498
    6SAPS   O14  680   3.612   5.193   7.170 -0.6421 -0.3819  0.1393
    6SAPS   O12  681   3.448   5.376   7.148 -0.5342 -0.5187  0.4093
    6SAPS   O11  682   3.571   5.312   6.948  0.7296 -0.3373  0.3517
    6SAPS    C1  683   3.490   5.209   6.900  0.2564 -1.1740  0.1770
    6SAPS    HA  684   3.518   5.112   6.946  1.5747 -1.3774 -0.9925
    6SAPS    HB  685   3.381   5.231   6.910  0.5221 -0.1132  0.8621
    6SAPS    C2  686   3.511   5.177   6.751  0.2169 -0.7511  0.5160
    6SAPS    HS  687   3.462   5.083   6.719 -0.3952  0.1990 -1.5318
    6SAPS   O21  688   3.648   5.174   6.722  0.1841 -0.2488  0.1412
    6SAPS   C21  689   3.724   5.076   6.770 -0.2435 -0.5945 -0.1407
    6SAPS   O22  690   3.682   4.985   6.833  0.7151 -1.0949  0.1692
    6SAPS   C22  691   3.875   5.104   6.745 -0.2008  0.5580 -0.3385
    6SAPS   H2R  692   3.897   5.192   6.682  0.9068  0.4125 -0.1745
    6SAPS   H2S  693   3.926   5.138   6.838  1.7907  3.2490 -2.2703
    6SAPS    C3  694   3.434   5.294   6.673  0.1527  0.1223  0.0607
    6SAPS    HX  695   3.469   5.391   6.715  2.9122 -0.9887  0.4947
    6SAPS    HY  696   3.326   5.282   6.700 -0.1239  2.7622  0.4314
    6SAPS   O31  697   3.452   5.284   6.529 -0.2710  0.0624  0.4777
    6SAPS   C31  698   3.566   5.334   6.489 -0.6393 -0.2849 -0.1321
    6SAPS   O32  699   3.642   5.406   6.552  0.1859  0.6469  0.0145
    6SAPS   C32  700   3.593   5.293   6.342  0.5428 -0.1140 -0.0830
    6SAPS   H2X  701   3.523   5.358   6.286  0.3471 -0.1985  0.0651
    6SAPS   H2Y  702   3.546   5.193   6.329  1.0275 -0.2503 -0.8865
    6SAPS   C23  703   3.964   4.985   6.694 -0.3853 -0.2729  0.3959
    6SAPS   H3R  704   3.898   4.912   6.643  0.0865  1.3232 -2.8177
    6SAPS   H3S  705   4.004   4.940   6.787 -0.4728 -0.6075  0.2720
    6SAPS   C24  706   4.078   5.041   6.604  0.0797  0.7043 -0.2687
    6SAPS   H4R  707   4.149   5.103   6.664 -4.1227  1.9554  4.0447
    6SAPS   H4S  708   4.029   5.109   6.531  0.2593  0.0442 -1.0120
    6SAPS   C25  709   4.167   4.937   6.523 -0.3538  0.4343 -0.5148
    6SAPS   H5R  710   4.225   4.868   6.586  0.1944  0.5122 -0.9324
    6SAPS   C26  711   4.176   4.915   6.389  0.1779 -0.0902  0.2033
    6SAPS   H6R  712   4.242   4.832   6.361  0.6440  1.0835 -2.5694
    6SAPS   C27  713   4.106   4.990   6.279 -0.1534 -0.8714 -0.3575
    6SAPS   H7R  714   4.047   5.069   6.330  1.3139  0.3651 -0.4833
    6SAPS   H7S  715   4.028   4.932   6.226 -1.7867  0.1494  0.8675
    6SAPS   C28  716   4.205   5.054   6.179 -0.3109 -0.4860  0.7682
    6SAPS   H8R  717   4.297   5.099   6.220  0.3871  1.6792 -2.7227
    6SAPS   C29  718   4.187   5.071   6.046  0.5483 -0.5318  0.5381
    6SAPS   H9R  719   4.276   5.104   5.990 -1.3330  1.1207 -1.6229
    6SAPS  C210  720   4.067   5.028   5.961 -0.0573 -0.5866  0.0133
    6SAPS  H10R  721   4.041   5.105   5.885 -0.6903 -1.4075 -0.6230
    6SAPS  H10S  722   3.979   5.030   6.028  0.5875 -0.8115  0.8839
    6SAPS  C211  723   4.085   4.887   5.911 -0.2677  0.4286 -0.2649
    6SAPS  H11R  724   4.133   4.825   5.988  0.9535  1.4427 -0.1656
    6SAPS  C212  725   4.060   4.835   5.791  0.2302  0.9120  0.4199
    6SAPS  H12R  726   4.057   4.725   5.790 -1.9526  0.9075  1.2658
    6SAPS  C213  727   4.012   4.904   5.666  0.3440  0.2981  0.6153
    6SAPS  H13R  728   3.952   4.995   5.682 -0.6532 -0.0521 -0.9164
    6SAPS  H13S  729   3.945   4.842   5.603  0.3205  1.2469 -0.3212
    6SAPS  C214  730   4.130   4.952   5.578  0.2193 -0.1287 -0.0172
    6SAPS  H14R  731   4.151   5.060   5.579  0.2804 -0.1339  1.2560
    6SAPS  C215  732   4.190   4.886   5.476 -0.2647  0.1824 -0.0924
    6SAPS  H15R  733   4.278   4.927   5.425 -0.9126 -0.7513 -2.0647
    6SAPS  C216  734   4.160   4.737   5.444 -0.5750  0.1907 -0.2516
    6SAPS  H16R  735   4.130   4.679   5.533 -0.8831 -0.1411 -0.5651
    6SAPS  H16S  736   4.257   4.694   5.412  0.0231  1.4958 -0.2865
    6SAPS  C217  737   4.058   4.725   5.330  0.0080 -0.3367 -0.2372
    6SAPS  H17R  738   4.090   4.786   5.243 -0.7040  1.1528  0.4983
    6SAPS  H17S  739   3.954   4.754   5.356  0.0814  1.1895 -1.4534
    6SAPS  C218  740   4.053   4.577   5.286 -0.4586 -0.2124 -0.1205
    6SAPS  H18R  741   4.057   4.507   5.372  2.1662 -0.2104 -0.1534
    6SAPS  H18S  742   4.155   4.552   5.248  0.1781  1.9864  0.0105
    6SAPS  C219  743   3.943   4.543   5.184  0.0357  0.5105  0.2149
    6SAPS  H19R  744   3.844   4.518   5.228 -0.5060  1.5152 -0.4050
    6SAPS  H19S  745   3.982   4.452   5.133 -1.2439 -0.0035  0.1165
    6SAPS  C220  746   3.917   4.661   5.088 -0.0788 -0.1331 -0.3172
    6SAPS  H20R  747   3.854   4.630   5.002  0.9641 -1.2201 -0.7241
    6SAPS  H20S  748   4.014   4.706   5.055 -0.1497  1.4881  1.5452
    6SAPS  H20T  749   3.861   4.737   5.146  0.0668  0.6103 -1.1339
    6SAPS   C33  750   3.739   5.293   6.289  0.1183  0.6826 -0.3039
    6SAPS   H3X  751   3.790   5.210   6.343 -0.1616  0.0718 -0.9524
    6SAPS   H3Y  752   3.780   5.393   6.316 -0.3393  0.4356  1.3943
    6SAPS   C34  753   3.759   5.270   6.146 -0.3192 -0.7358 -0.2177
    6SAPS   H4X  754   3.746   5.166   6.110  1.0020 -0.4034 -1.7754
    6SAPS   H4Y  755   3.867   5.286   6.124 -0.0493 -1.3952  0.6087
    6SAPS   C35  756   3.678   5.361   6.055  0.3314  0.7442 -0.1437
    6SAPS   H5X  757   3.709   5.467   6.057 -1.5135  1.3085  0.4991
    6SAPS   H5Y  758   3.572   5.359   6.090  0.4273 -1.5925  0.2250
    6SAPS   C36  759   3.677   5.315   5.914 -0.4554  0.3541 -0.6302
    6SAPS   H6X  760   3.590   5.367   5.869 -1.4080  0.8253  1.6282
    6SAPS   H6Y  761   3.663   5.205   5.902  0.8125  0.3469 -2.5823
    6SAPS   C37  762   3.811   5.347   5.858 -0.0522 -0.0144  0.1959
    6SAPS   H7X  763   3.893   5.318   5.928  0.1377 -3.6545 -1.2963
    6SAPS   H7Y  764   3.817   5.452   5.822 -0.5588  0.2012  0.7233
    6SAPS   C38  765   3.835   5.275   5.724 -0.2780  0.3647  0.8080
    6SAPS   H8X  766   3.840   5.166   5.744  2.8619  0.0836 -0.7718
    6SAPS   H8Y  767   3.936   5.295   5.683 -0.8436  1.5127 -0.0947
    6SAPS   C39  768   3.726   5.315   5.625  0.1045  0.1618  0.8515
    6SAPS   H9X  769   3.626   5.291   5.666 -0.5220 -2.9070 -2.0029
    6SAPS   H9Y  770   3.731   5.256   5.530  2.9176  0.7417  0.5475
    6SAPS  C310  771   3.740   5.459   5.573 -0.1291  0.3764 -0.1302
    6SAPS  H10X  772   3.844   5.473   5.537 -0.5248 -0.5204 -1.7183
    6SAPS  H10Y  773   3.729   5.529   5.659 -0.8541 -0.4376  0.4625
    6SAPS  C311  774   3.646   5.493   5.458  0.1801 -0.3149  1.0900
    6SAPS  H11X  775   3.545   5.519   5.496 -1.7048 -0.1993 -3.3733
    6SAPS  H11Y  776   3.637   5.413   5.382 -0.1013  1.0301 -0.3392
    6SAPS  C312  777   3.697   5.607   5.367 -0.3018  0.1060 -0.3161
    6SAPS  H12X  778   3.789   5.566   5.318 -1.6832 -0.7330 -2.3567
    6SAPS  H12Y  779   3.724   5.695   5.429 -1.7558  0.5662 -0.2994
    6SAPS  C313  780   3.598   5.651   5.252  0.4935  0.4138  0.8502
    6SAPS  H13X  781   3.551   5.744   5.291 -0.3992 -0.0989  1.0261
    6SAPS  H13Y  782   3.516   5.577   5.237 -0.3491  1.5642 -0.4796
    6SAPS  C314  783   3.669   5.689   5.121 -0.4093 -0.0729 -0.3971
    6SAPS  H14X  784   3.753   5.760   5.134  0.7695 -1.1593 -1.7071
    6SAPS  H14Y  785   3.601   5.744   5.052 -1.6703  0.2869  1.0678
    6SAPS  C315  786   3.732   5.564   5.038 -0.1265  0.3203 -0.1252
    6SAPS  H15X  787   3.653   5.494   5.005  3.0487 -2.8250 -1.8214
    6SAPS  H15Y  788   3.783   5.515   5.124 -2.0237  0.4568  1.1225
    6SAPS  C316  789   3.815   5.608   4.922 -0.5362  0.4160 -0.4039
    6SAPS  H16X  790   3.867   5.516   4.886  0.2169  0.6658  0.0247
    6SAPS  H16Y  791   3.892   5.679   4.960  0.3253 -0.1472 -1.0460
    6SAPS  C317  792   3.732   5.668   4.806 -0.3218  0.1423  0.5763
    6SAPS  H17X  793   3.644   5.721   4.850 -0.2941 -0.1977  1.0464
    6SAPS  H17Y  794   3.694   5.585   4.743 -1.7030 -0.1055  1.6753
    6SAPS  C318  795   3.817   5.766   4.720  0.3335 -0.2924  0.6238
    6SAPS  H18X  796   3.883   5.831   4.780 -1.5038  1.4320  0.8881
    6SAPS  H18Y  797   3.749   5.829   4.659  0.7403  0.0503  0.5236
    6SAPS  H18Z  798   3.878   5.703   4.652  0.4128  0.9105 -0.4563
    7SAPS     N  799   3.929   6.458   7.412 -0.4533  0.2607  1.1866
    7SAPS   HN1  800   4.000   6.453   7.336 -0.0386  0.6253  1.5479
    7SAPS   HN2  801   3.931   6.556   7.445 -1.1933  0.1233  1.6518
    7SAPS   HN3  802   3.973   6.395   7.483  1.3811 -1.7651 -1.5222
    7SAPS   C12  803   3.803   6.411   7.355 -0.1106  0.0054 -0.0633
    7SAPS  H12A  804   3.814   6.322   7.295 -3.2476 -0.5747  0.0847
    7SAPS   C13  805   3.686   6.388   7.447 -0.7342 -0.0322 -0.2798
    7SAPS  O13A  806   3.703   6.422   7.566  0.1205 -0.0385 -0.7728
    7SAPS  O13B  807   3.580   6.353   7.396  0.0083 -0.2257  0.0019
    7SAPS   C11  808   3.773   6.531   7.257  1.2617 -0.5366 -0.0070
    7SAPS  H11A  809   3.682   6.512   7.196  1.2067 -0.6386  0.1054
    7SAPS  H11B  810   3.856   6.553   7.186  3.1957  1.9264  2.7686
    7SAPS     P  811   3.671   6.780   7.264  0.0455  0.3171 -0.0764
    7SAPS   O13  812   3.533   6.739   7.234 -0.0665 -0.4099 -0.0400
    7SAPS   O14  813   3.691   6.890   7.357 -0.1834 -0.0295  0.4969
    7SAPS   O12  814   3.749   6.656   7.335 -0.7267 -0.2840 -0.2824
    7SAPS   O11  815   3.749   6.813   7.132 -0.5288  1.0507 -0.4990
    7SAPS    C1  816   3.880   6.877   7.139  0.5082 -0.4210  0.1587
    7SAPS    HA  817   3.907   6.907   7.242 -0.5228 -0.7370  0.5379
    7SAPS    HB  818   3.965   6.815   7.103  1.4051  0.9569 -0.1704
    7SAPS    C2  819   3.863   7.021   7.076 -0.4871 -0.0486  0.2669
    7SAPS    HS  820   3.964   7.060   7.052 -0.5439 -0.7053 -1.1580
    7SAPS   O21  821   3.798   7.104   7.174  0.5402  0.0689  0.0792
    7SAPS   C21  822   3.863   7.141   7.276  0.6186 -0.4006 -0.4865
    7SAPS   O22  823   3.976   7.105   7.302 -0.0018 -0.3059 -0.2104
    7SAPS   C22  824   3.782   7.237   7.360 -0.2545 -0.8082 -0.8924
    7SAPS   H2R  825   3.721   7.301   7.293 -0.4838  0.3555  0.3884
    7SAPS   H2S  826   3.712   7.170   7.416  0.5107 -0.3267  0.7130
    7SAPS    C3  827   3.780   7.012   6.949  0.5459  0.5177 -0.3844
    7SAPS    HX  828   3.690   6.947   6.955  0.1119  0.8713 -2.2876
    7SAPS    HY  829   3.840   6.970   6.865  1.0438 -0.1841  0.3124
    7SAPS   O31  830   3.722   7.146   6.909  0.4823  0.0464  0.1282
    7SAPS   C31  831   3.593   7.166   6.928  0.5194 -0.2837  0.3006
    7SAPS   O32  832   3.520   7.110   7.014  0.4401  0.4526  0.5926
    7SAPS   C32  833   3.540   7.270   6.824 -0.1096 -0.3441 -0.3128
    7SAPS   H2X  834   3.560   7.370   6.867  0.0003  0.2458 -1.6969
    7SAPS   H2Y  835   3.430   7.259   6.824 -0.1292 -0.1564 -0.9441
    7SAPS   C23  836   3.875   7.321   7.451  0.5104 -0.4881  0.1260
    7SAPS   H3R  837   3.946   7.261   7.512 -1.8306 -0.7046  2.8461
    7SAPS   H3S  838   3.818   7.377   7.527 -2.0554  0.3765 -2.2525
    7SAPS   C24  839   3.961   7.429   7.380 -0.1534  0.1973 -0.3714
    7SAPS   H4R  840   4.027   7.374   7.310 -0.9822 -0.6500 -0.5090
    7SAPS   H4S  841   4.027   7.474   7.457  0.2937 -0.9143 -0.0919
    7SAPS   C25  842   3.875   7.534   7.326 -0.2029 -0.2374  0.6111
    7SAPS   H5R  843   3.822   7.593   7.403  0.2235  1.2751 -0.2222
    7SAPS   C26  844   3.857   7.575   7.193  0.3850  0.9397  0.1114
    7SAPS   H6R  845   3.791   7.659   7.166 -0.9182 -0.4076 -1.0618
    7SAPS   C27  846   3.941   7.513   7.078  0.2445 -0.0713  0.6753
    7SAPS   H7R  847   3.980   7.413   7.108 -3.3520 -0.7965  3.6470
    7SAPS   H7S  848   4.038   7.566   7.072  0.3213 -0.1786  0.9422
    7SAPS   C28  849   3.876   7.514   6.946  0.0604  0.1932  0.3017
    7SAPS   H8R  850   3.799   7.591   6.934  0.2026  0.1428 -1.0981
    7SAPS   C29  851   3.899   7.429   6.841 -0.6472 -0.3529 -0.4205
    7SAPS   H9R  852   3.837   7.434   6.750  1.0783  0.0720 -1.6104
    7SAPS  C210  853   4.004   7.326   6.830  0.6367  0.2548  0.0058
    7SAPS  H10R  854   3.956   7.226   6.828 -0.8949  0.9676 -1.9340
    7SAPS  H10S  855   4.061   7.316   6.925  0.4865  1.5085  0.2470
    7SAPS  C211  856   4.095   7.345   6.707  0.4836  0.5814 -0.4178
    7SAPS  H11R  857   4.156   7.434   6.728  0.5641  0.1765  1.1814
    7SAPS  C212  858   4.118   7.262   6.599 -0.5252 -0.2916  0.2496
    7SAPS  H12R  859   4.190   7.293   6.522 -0.5312 -1.2776 -0.1647
    7SAPS  C213  860   4.043   7.133   6.565  0.3715 -0.4803 -0.1355
    7SAPS  H13R  861   4.049   7.127   6.454 -1.7599 -1.7032 -0.2485
    7SAPS  H13S  862   3.935   7.145   6.588  0.7790  3.6992  0.3290
    7SAPS  C214  863   4.098   7.016   6.642  1.0033 -0.3840 -0.4287
    7SAPS  H14R  864   4.067   7.004   6.747  1.7698  1.4306  0.0554
    7SAPS  C215  865   4.190   6.935   6.597  0.2813  0.3690  0.0094
    7SAPS  H15R  866   4.233   6.860   6.664  2.4322  1.7512  0.2868
    7SAPS  C216  867   4.259   6.954   6.463  0.0239  0.9510  0.0080
    7SAPS  H16R  868   4.368   6.932   6.475 -0.2635 -0.5344  0.1644
    7SAPS  H16S  869   4.257   7.057   6.422  2.9644  0.7844 -0.8248
    7SAPS  C217  870   4.207   6.849   6.356  0.1011  0.0228 -0.8302
    7SAPS  H17R  871   4.250   6.864   6.254  0.4669  1.1645 -0.5122
    7SAPS  H17S  872   4.097   6.856   6.351  0.0901  0.3506 -0.2069
    7SAPS  C218  873   4.244   6.704   6.398 -0.4309  0.4340 -0.3614
    7SAPS  H18R  874   4.183   6.674   6.486  0.4875  0.3212  0.2500
    7SAPS  H18S  875   4.354   6.697   6.412 -0.2676  0.4788 -1.4927
    7SAPS  C219  876   4.208   6.604   6.283 -0.4455  0.0366 -0.5083
    7SAPS  H19R  877   4.223   6.650   6.183 -2.1648  0.4820 -0.5981
    7SAPS  H19S  878   4.098   6.585   6.291 -0.1162 -1.7643  0.2345
    7SAPS  C220  879   4.288   6.476   6.293 -0.2151  0.2136 -0.8158
    7SAPS  H20R  880   4.269   6.420   6.387  0.8446  0.9967 -0.1170
    7SAPS  H20S  881   4.395   6.506   6.304 -0.4285  0.5990  0.3075
    7SAPS  H20T  882   4.279   6.405   6.207  1.8539  0.0272 -0.9331
    7SAPS   C33  883   3.592   7.260   6.682 -0.2029 -0.1750 -0.0174
    7SAPS   H3X  884   3.557   7.163   6.642 -0.2682 -0.7672  1.4229
    7SAPS   H3Y  885   3.703   7.257   6.680 -0.2383 -1.4185 -1.1868
    7SAPS   C34  886   3.534   7.362   6.591 -0.9287 -0.0254  1.1117
    7SAPS   H4X  887   3.552   7.462   6.636 -1.4591  0.5211  0.1400
    7SAPS   H4Y  888   3.426   7.335   6.587 -0.3423 -2.4246 -0.9931
    7SAPS   C35  889   3.598   7.343   6.458  0.1806  0.0530  0.3223
    7SAPS   H5X  890   3.556   7.413   6.382 -0.6775  0.2685  0.9751
    7SAPS   H5Y  891   3.577   7.241   6.417  1.0684  0.3966 -1.0710
    7SAPS   C36  892   3.754   7.372   6.459 -0.1129  0.6445  0.4609
    7SAPS   H6X  893   3.821   7.302   6.513  2.8885  0.2971 -3.3137
    7SAPS   H6Y  894   3.761   7.474   6.503  1.3548  1.6086 -1.8675
    7SAPS   C37  895   3.816   7.380   6.314 -0.6544 -0.2086  0.3678
    7SAPS   H7X  896   3.926   7.389   6.330 -0.3828 -0.6591 -1.1025
    7SAPS   H7Y  897   3.768   7.464   6.258  1.5616  1.8063  1.3290
    7SAPS   C38  898   3.796   7.254   6.228 -0.1459  0.0082 -0.1234
    7SAPS   H8X  899   3.689   7.224   6.226 -0.0715 -1.2050  4.1291
    7SAPS   H8Y  900   3.863   7.181   6.278  1.2406  3.3850  3.5553
    7SAPS   C39  901   3.852   7.273   6.087  0.3472  0.0311 -0.2533
    7SAPS   H9X  902   3.823   7.183   6.029 -0.4545  0.5152 -0.6185
    7SAPS   H9Y  903   3.963   7.275   6.093  0.6699 -3.0513 -2.7794
    7SAPS  C310  904   3.806   7.385   5.996  0.3816  0.3861 -0.5923
    7SAPS  H10X  905   3.851   7.484   6.018 -1.6897  0.8018  2.4682
    7SAPS  H10Y  906   3.696   7.405   6.004  0.3846  0.0182  0.6161
    7SAPS  C311  907   3.854   7.357   5.851 -0.0172 -0.0531 -0.0063
    7SAPS  H11X  908   3.819   7.258   5.816  0.2812  0.4414 -1.8171
    7SAPS  H11Y  909   3.965   7.357   5.855  0.0869 -1.1816 -1.8774
    7SAPS  C312  910   3.824   7.460   5.745  0.3014  0.4859 -0.6697
    7SAPS  H12X  911   3.908   7.452   5.673 -0.4524 -1.5054 -1.3701
    7SAPS  H12Y  912   3.833   7.564   5.785 -2.4171  0.7886 -0.6494
    7SAPS  C313  913   3.691   7.435   5.681 -0.5650  0.1719 -1.1403
    7SAPS  H13X  914   3.604   7.449   5.749 -1.2285 -1.2259 -1.6484
    7SAPS  H13Y  915   3.685   7.333   5.636  0.8300  0.6645 -2.5199
    7SAPS  C314  916   3.669   7.533   5.565  0.2088  0.3610 -0.4274
    7SAPS  H14X  917   3.712   7.632   5.590 -0.7968  1.2347 -1.9678
    7SAPS  H14Y  918   3.560   7.541   5.544 -0.2459 -1.5256  0.9788
    7SAPS  C315  919   3.737   7.484   5.441  0.0390  1.1165 -0.3561
    7SAPS  H15X  920   3.713   7.380   5.410  1.2503  0.7502 -0.1210
    7SAPS  H15Y  921   3.847   7.495   5.452  0.1004  2.6299 -2.1196
    7SAPS  C316  922   3.694   7.559   5.314 -0.2728  0.5918 -0.2187
    7SAPS  H16X  923   3.676   7.662   5.351 -0.9067  0.6311 -0.6013
    7SAPS  H16Y  924   3.601   7.520   5.266  0.2870 -0.1211 -0.7562
    7SAPS  C317  925   3.810   7.551   5.212  0.4286 -0.4228 -1.0064
    7SAPS  H17X  926   3.856   7.451   5.195  1.3099  0.0937 -1.7483
    7SAPS  H17Y  927   3.901   7.594   5.258  0.3594  0.0389 -1.2933
    7SAPS  C318  928   3.784   7.614   5.078 -0.0672  0.5224  0.3534
    7SAPS  H18X  929   3.872   7.603   5.010 -0.1365  1.9360  0.0036
    7SAPS  H18Y  930   3.760   7.722   5.082 -0.0493  0.6819 -2.1992
    7SAPS  H18Z  931   3.691   7.574   5.033  1.3012 -3.1533  0.4614
    8SAPS     N  932   2.857   2.019   7.319 -0.0314 -0.0574 -0.7266
    8SAPS   HN1  933   2.924   1.991   7.245  1.5649 -1.5743  1.1861
    8SAPS   HN2  934   2.761   2.029   7.281 -0.0190  0.5824 -0.6093
    8SAPS   HN3  935   2.893   2.105   7.366  2.6927 -2.4447  1.9545
    8SAPS   C12  936   2.858   1.904   7.408 -0.0971  0.1145 -0.3271
    8SAPS  H12A  937   2.937   1.834   7.385 -2.2565 -2.7509  0.3613
    8SAPS   C13  938   2.855   1.935   7.563 -1.0916  0.0677  0.6075
    8SAPS  O13A  939   2.793   2.038   7.606 -0.2852  0.0164 -0.0357
    8SAPS  O13B  940   2.923   1.857   7.637 -0.0381 -0.1740  0.1744
    8SAPS   C11  941   2.728   1.817   7.373  0.3670 -0.3594  0.3560
    8SAPS  H11A  942   2.645   1.886   7.400 -0.3557 -0.3536 -1.6879
    8SAPS  H11B  943   2.728   1.725   7.435  3.3093  1.0696  2.6935
    8SAPS     P  944   2.791   1.663   7.173 -0.0480  0.1401 -0.2483
    8SAPS   O13  945   2.909   1.624   7.249 -0.4079 -0.3017 -0.0461
    8SAPS   O14  946   2.686   1.559   7.146  0.2404  0.4618  0.0010
    8SAPS   O12  947   2.723   1.790   7.232 -0.1745  0.0818 -0.5129
    8SAPS   O11  948   2.845   1.707   7.033 -0.3460  0.0494  0.6228
    8SAPS    C1  949   2.766   1.758   6.925  0.5956 -0.7546  0.1831
    8SAPS    HA  950   2.662   1.720   6.934  0.3163 -0.0990 -0.2138
    8SAPS    HB  951   2.763   1.867   6.944  1.0197 -0.9555  1.5167
    8SAPS    C2  952   2.830   1.733   6.794  0.3468  0.1638  0.5776
    8SAPS    HS  953   2.829   1.622   6.784 -0.1121 -0.2763  4.2022
    8SAPS   O21  954   2.961   1.789   6.810 -0.7408  0.2668  0.3624
    8SAPS   C21  955   3.056   1.726   6.741  0.2693 -0.2991  1.0162
    8SAPS   O22  956   3.038   1.631   6.665 -0.2037  0.2527 -0.7793
    8SAPS   C22  957   3.189   1.791   6.772  0.1240 -0.0752  0.2126
    8SAPS   H2R  958   3.166   1.821   6.877 -3.8644  0.7920 -0.7495
    8SAPS   H2S  959   3.267   1.712   6.772  0.0422 -0.2119 -2.1557
    8SAPS    C3  960   2.757   1.806   6.670 -0.3057  0.2234 -0.3639
    8SAPS    HX  961   2.748   1.911   6.704 -0.3833 -0.1310  0.7459
    8SAPS    HY  962   2.653   1.767   6.662  0.5847 -2.4210 -0.1141
    8SAPS   O31  963   2.842   1.801   6.551  0.0744 -0.5187  0.6273
    8SAPS   C31  964   2.812   1.705   6.458 -0.1837  0.7934 -0.3860
    8SAPS   O32  965   2.715   1.632   6.468 -0.5491  0.1773 -0.1445
    8SAPS   C32  966   2.898   1.724   6.334 -0.0499 -0.0591 -0.9136
    8SAPS   H2X  967   2.996   1.748   6.380 -0.0141 -3.1708  0.9445
    8SAPS   H2Y  968   2.851   1.810   6.282 -1.3200 -0.3768 -0.3271
    8SAPS   C23  969   3.219   1.916   6.691 -0.3205 -0.7786 -0.5892
    8SAPS   H3R  970   3.300   1.967   6.747 -0.7055  0.2334 -0.9346
    8SAPS   H3S  971   3.129   1.981   6.683 -0.3834 -0.7762  0.1390
    8SAPS   C24  972   3.284   1.887   6.544 -0.0517 -0.3039 -0.0667
    8SAPS   H4R  973   3.212   1.810   6.511  0.2519 -0.7495  0.2873
    8SAPS   H4S  974   3.379   1.832   6.563  0.3044 -0.1997 -1.4232
    8SAPS   C25  975   3.303   2.004   6.450  1.1210  0.0922 -0.3417
    8SAPS   H5R  976   3.359   2.091   6.487  1.1418  0.9563 -2.2982
    8SAPS   C26  977   3.275   1.994   6.318  0.2105  0.8245  0.0858
    8SAPS   H6R  978   3.295   2.075   6.247 -0.0780  0.0375 -0.9187
    8SAPS   C27  979   3.233   1.861   6.251 -0.0927 -0.0664  0.2962
    8SAPS   H7R  980   3.135   1.872   6.200  0.2516 -1.8251 -0.8342
    8SAPS   H7S  981   3.218   1.776   6.321 -1.7427 -0.2517 -0.2287
    8SAPS   C28  982   3.342   1.834   6.154  0.0171  0.7386 -0.4549
    8SAPS   H8R  983   3.438   1.815   6.203 -0.5187  0.4539  0.5057
    8SAPS   C29  984   3.333   1.805   6.023 -0.0013  0.1477  0.7591
    8SAPS   H9R  985   3.426   1.781   5.970 -1.6752 -1.7854 -1.5116
    8SAPS  C210  986   3.211   1.812   5.935 -0.1478 -0.0949 -0.1317
    8SAPS  H10R  987   3.237   1.878   5.850  0.4072  2.0277  1.6161
    8SAPS  H10S  988   3.130   1.868   5.985 -0.5326  0.3560 -1.2456
    8SAPS  C211  989   3.166   1.672   5.881  0.1269 -1.1912  0.5182
    8SAPS  H11R  990   3.153   1.603   5.966  0.7496 -0.8890  0.8633
    8SAPS  C212  991   3.110   1.646   5.763 -0.2030  0.3540 -0.4502
    8SAPS  H12R  992   3.080   1.540   5.752 -3.0373  0.9870  0.1914
    8SAPS  C213  993   3.080   1.747   5.652  0.3991 -0.4022  0.1538
    8SAPS  H13R  994   3.068   1.698   5.553  0.9922 -0.8495  0.3041
    8SAPS  H13S  995   3.167   1.814   5.639  0.5603 -0.7719 -0.8055
    8SAPS  C214  996   2.965   1.837   5.683  0.6318  0.1239  0.1570
    8SAPS  H14R  997   2.894   1.791   5.753  1.3724 -0.4272  0.5711
    8SAPS  C215  998   2.949   1.962   5.639  0.6145 -0.3493 -0.0811
    8SAPS  H15R  999   2.850   2.001   5.668  0.6365 -0.9180  0.8079
    8SAPS  C216 1000   3.026   2.031   5.526 -0.4557  0.3031  0.0368
    8SAPS  H16R 1001   3.134   2.011   5.547 -0.9411 -2.0257  0.5694
    8SAPS  H16S 1002   3.015   2.141   5.541 -1.1128  0.2561 -0.0924
    8SAPS  C217 1003   2.994   1.990   5.381  0.0098  1.2134  0.0445
    8SAPS  H17R 1004   2.963   1.883   5.386 -2.7976  1.8971 -0.8534
    8SAPS  H17S 1005   3.080   1.996   5.310  3.1199 -0.6164  3.3086
    8SAPS  C218 1006   2.869   2.054   5.319  0.2653 -0.5681 -0.5454
    8SAPS  H18R 1007   2.866   2.160   5.352 -2.4741 -1.1622  1.5199
    8SAPS  H18S 1008   2.779   2.011   5.367 -0.1647  0.1293 -0.7076
    8SAPS  C219 1009   2.859   2.037   5.166 -0.1697 -0.3389  0.0732
    8SAPS  H19R 1010   2.881   1.934   5.131  0.0858 -0.3668  0.3130
    8SAPS  H19S 1011   2.942   2.088   5.113  1.6502 -3.7374 -0.6857
    8SAPS  C220 1012   2.725   2.094   5.120 -0.1793 -0.2951  0.2300
    8SAPS  H20R 1013   2.720   2.199   5.156 -0.2996  0.3479 -1.5732
    8SAPS  H20S 1014   2.636   2.036   5.153  0.2910 -1.5924 -0.7367
    8SAPS  H20T 1015   2.722   2.089   5.009  0.0470  0.8603  0.1562
    8SAPS   C33 1016   2.900   1.604   6.234 -0.0313 -0.0876  0.4482
    8SAPS   H3X 1017   2.918   1.510   6.290 -0.1534  1.0620  2.5431
    8SAPS   H3Y 1018   2.968   1.611   6.147 -0.2566  0.0402  0.2810
    8SAPS   C34 1019   2.757   1.592   6.172 -0.7935 -0.0708  0.2633
    8SAPS   H4X 1020   2.681   1.576   6.252 -0.6049 -2.3738  0.0268
    8SAPS   H4Y 1021   2.748   1.505   6.104  2.9642 -0.4943  0.1167
    8SAPS   C35 1022   2.713   1.705   6.073 -0.2870 -0.1689 -0.1152
    8SAPS   H5X 1023   2.778   1.706   5.982 -0.5463 -0.3007 -0.3036
    8SAPS   H5Y 1024   2.714   1.802   6.127  1.0786 -0.2296 -0.0061
    8SAPS   C36 1025   2.574   1.681   6.035 -0.1268  0.8643 -0.0328
    8SAPS   H6X 1026   2.509   1.724   6.115 -0.0796 -0.3790  0.6937
    8SAPS   H6Y 1027   2.552   1.574   6.020  1.1695  0.5506  0.2124
    8SAPS   C37 1028   2.531   1.742   5.900 -0.3599  0.3939 -0.6647
    8SAPS   H7X 1029   2.528   1.852   5.920  3.2533  1.0056 -2.6117
    8SAPS   H7Y 1030   2.427   1.714   5.870 -0.5834 -0.5006  0.8382
    8SAPS   C38 1031   2.615   1.702   5.783 -0.8872 -0.2912 -1.2195
    8SAPS   H8X 1032   2.641   1.596   5.805 -1.2732  0.0297  1.0749
    8SAPS   H8Y 1033   2.709   1.760   5.794 -0.6109 -0.6579 -1.6275
    8SAPS   C39 1034   2.570   1.727   5.644 -0.6491  0.2539  0.2361
    8SAPS   H9X 1035   2.466   1.688   5.636  0.1141 -1.9248  0.2696
    8SAPS   H9Y 1036   2.640   1.673   5.577 -1.2543  0.5136 -0.6245
    8SAPS  C310 1037   2.563   1.874   5.603  0.2594 -0.2357 -0.1355
    8SAPS  H10X 1038   2.665   1.915   5.617  0.2452 -0.6746  1.4714
    8SAPS  H10Y 1039   2.487   1.925   5.668 -1.0116  0.0055 -1.7316
    8SAPS  C311 1040   2.511   1.898   5.459  0.0183  0.2079  0.1506
    8SAPS  H11X 1041   2.582   1.860   5.382  0.0631 -1.3392  0.9169
    8SAPS  H11Y 1042   2.499   2.005   5.432  0.9476  0.1420 -0.5723
    8SAPS  C312 1043   2.380   1.825   5.420 -0.3478 -0.0236 -0.2915
    8SAPS  H12X 1044   2.309   1.843   5.504  2.1560 -2.3466  2.5924
    8SAPS  H12Y 1045   2.401   1.716   5.420 -0.3411 -0.1535  3.2721
    8SAPS  C313 1046   2.312   1.880   5.292  0.1903 -0.0033  0.7380
    8SAPS  H13X 1047   2.314   1.991   5.303 -0.2462 -0.0432  1.2563
    8SAPS  H13Y 1048   2.204   1.857   5.287  0.3000 -0.3161 -0.5214
    8SAPS  C314 1049   2.384   1.823   5.164  1.0371  0.3990 -0.3047
    8SAPS  H14X 1050   2.340   1.721   5.157 -1.2598  1.0975  2.1388
    8SAPS  H14Y 1051   2.493   1.824   5.180  0.7339  1.7709  2.1594
    8SAPS  C315 1052   2.361   1.910   5.039  0.4818 -0.0306 -0.3438
    8SAPS  H15X 1053   2.440   1.885   4.963  2.3429  1.9754  0.8176
    8SAPS  H15Y 1054   2.381   2.018   5.050 -1.7278  0.4303 -0.5848
    8SAPS  C316 1055   2.228   1.872   4.973  0.5930  0.3546  0.3705
    8SAPS  H16X 1056   2.153   1.869   5.054  0.1972 -2.1665  0.0047
    8SAPS  H16Y 1057   2.232   1.765   4.942  0.2734  0.5354 -0.3250
    8SAPS  C317 1058   2.184   1.944   4.843  0.7554  0.4252  0.5063
    8SAPS  H17X 1059   2.163   2.049   4.873  1.3589  0.9654 -0.8926
    8SAPS  H17Y 1060   2.091   1.896   4.806  2.0301 -1.8676  0.0619
    8SAPS  C318 1061   2.285   1.944   4.736 -0.1582 -0.2423  0.4198
    8SAPS  H18X 1062   2.254   1.888   4.644  0.6880 -0.4912  0.2716
    8SAPS  H18Y 1063   2.382   1.896   4.763  0.4821 -0.0033 -1.3013
    8SAPS  H18Z 1064   2.321   2.045   4.708  3.9621 -1.4651  0.5393
    9SAPS     N 1065   6.242   6.177   7.013 -0.6547  0.5808  0.3473
    9SAPS   HN1 1066   6.230   6.145   7.111 -0.1234  0.0044  0.2298
    9SAPS   HN2 1067   6.174   6.123   6.955 -2.0652 -0.3438  2.7024
    9SAPS   HN3 1068   6.340   6.151   6.988 -0.9709 -1.1604  0.7710
    9SAPS   C12 1069   6.215   6.325   7.003  0.2387  0.7798  0.9339
    9SAPS  H12A 1070   6.107   6.328   6.995  0.0971 -3.0141 -0.7021
    9SAPS   C13 1071   6.252   6.402   7.134 -0.0613  0.0903 -0.4114
    9SAPS  O13A 1072   6.308   6.341   7.233 -0.5088  0.0324 -0.2500
    9SAPS  O13B 1073   6.216   6.522   7.142  0.2976 -0.5921 -0.0255
    9SAPS   C11 1074   6.285   6.383   6.872 -0.5496  0.8890  0.0434
    9SAPS  H11A 1075   6.395   6.382   6.892 -0.2196  3.1889 -1.2468
    9SAPS  H11B 1076   6.255   6.487   6.845 -2.9963 -0.2774 -2.1227
    9SAPS     P 1077   6.162   6.318   6.644  0.2748 -0.1889 -0.1549
    9SAPS   O13 1078   6.147   6.191   6.570  0.1863 -0.0076  1.2872
    9SAPS   O14 1079   6.037   6.378   6.698  0.4139  0.2548  0.3013
    9SAPS   O12 1080   6.258   6.293   6.761 -0.2514  0.2576  0.2699
    9SAPS   O11 1081   6.240   6.418   6.557 -0.1572  0.0364  0.1211
    9SAPS    C1 1082   6.359   6.385   6.491  0.1071  0.7272  0.4514
    9SAPS    HA 1083   6.450   6.377   6.555  0.4003  2.7787  0.3515
    9SAPS    HB 1084   6.356   6.279   6.457  1.8925  1.5609 -2.8089
    9SAPS    C2 1085   6.399   6.469   6.368  0.0424  0.3653  1.0144
    9SAPS    HS 1086   6.387   6.577   6.391  1.8889  1.3277 -1.9098
    9SAPS   O21 1087   6.340   6.428   6.239  0.1173 -0.3208  0.3472
    9SAPS   C21 1088   6.204   6.461   6.224  0.0147  0.5567  0.6692
    9SAPS   O22 1089   6.144   6.543   6.285  0.1858 -0.3533  0.6047
    9SAPS   C22 1090   6.160   6.386   6.100 -0.0850  0.1234 -0.1343
    9SAPS   H2R 1091   6.218   6.292   6.087  0.2865 -0.4768  4.1727
    9SAPS   H2S 1092   6.054   6.354   6.105 -0.1419  0.3861  0.4307
    9SAPS    C3 1093   6.549   6.447   6.348  0.1701  0.1046  0.1735
    9SAPS    HX 1094   6.561   6.341   6.319 -0.9200 -0.6121  2.1589
    9SAPS    HY 1095   6.603   6.452   6.445  0.4538 -0.0947  0.0267
    9SAPS   O31 1096   6.614   6.540   6.261  0.1826 -0.5764  0.4822
    9SAPS   C31 1097   6.746   6.512   6.243  0.0975  0.3867 -0.6389
    9SAPS   O32 1098   6.809   6.436   6.312 -0.4821 -0.3440 -0.0075
    9SAPS   C32 1099   6.800   6.588   6.120  0.6340 -0.0767 -1.1709
    9SAPS   H2X 1100   6.791   6.697   6.139  2.4341  0.0675 -0.9590
    9SAPS   H2Y 1101   6.729   6.562   6.038 -1.8347  2.0122  0.1524
    9SAPS   C23 1102   6.177   6.476   5.979 -0.7052  0.5441  0.1631
    9SAPS   H3R 1103   6.288   6.471   5.968 -0.4859 -4.9635  1.8916
    9SAPS   H3S 1104   6.154   6.583   6.002 -1.0202  0.0283  2.5996
    9SAPS   C24 1105   6.112   6.413   5.853 -0.0363  0.6051 -0.2789
    9SAPS   H4R 1106   6.004   6.406   5.877  0.2740 -0.2164  1.0399
    9SAPS   H4S 1107   6.146   6.307   5.844 -1.1432  0.2031  0.0382
    9SAPS   C25 1108   6.141   6.479   5.721 -0.1886 -0.2643  0.0687
    9SAPS   H5R 1109   6.243   6.453   5.689  0.5239 -0.6655  2.4516
    9SAPS   C26 1110   6.072   6.572   5.654 -0.0844 -0.3713 -0.5016
    9SAPS   H6R 1111   6.108   6.600   5.553  0.4378  0.3618 -0.1214
    9SAPS   C27 1112   5.940   6.624   5.700  0.4672 -0.0357 -0.0535
    9SAPS   H7R 1113   5.968   6.707   5.768 -2.7768  0.0673  1.3445
    9SAPS   H7S 1114   5.868   6.557   5.751 -1.3126  1.2372 -0.8112
    9SAPS   C28 1115   5.853   6.674   5.584 -0.3370 -0.6958  0.4614
    9SAPS   H8R 1116   5.847   6.615   5.492 -0.3851 -0.8059  0.5347
    9SAPS   C29 1117   5.778   6.787   5.580  0.1178  0.1604 -0.1290
    9SAPS   H9R 1118   5.708   6.792   5.494  1.3309 -1.0821 -1.2476
    9SAPS  C210 1119   5.752   6.894   5.684 -0.6254 -0.8296  0.2282
    9SAPS  H10R 1120   5.751   6.994   5.635  1.2369  0.1406  2.0009
    9SAPS  H10S 1121   5.850   6.895   5.738 -0.4262 -2.8513 -0.0051
    9SAPS  C211 1122   5.642   6.881   5.789  0.2196  0.6852  0.0516
    9SAPS  H11R 1123   5.666   6.856   5.893 -0.1123  1.9764  0.4636
    9SAPS  C212 1124   5.512   6.922   5.763  0.0929  0.5669 -0.1753
    9SAPS  H12R 1125   5.441   6.904   5.846 -0.6699  1.5296 -0.5929
    9SAPS  C213 1126   5.458   6.986   5.637 -0.3653 -0.5443  0.8216
    9SAPS  H13R 1127   5.534   7.011   5.560 -0.8146  0.8729  0.8014
    9SAPS  H13S 1128   5.409   7.083   5.662 -0.2262  0.1558 -1.3660
    9SAPS  C214 1129   5.349   6.895   5.579 -0.7425  0.0115 -0.4060
    9SAPS  H14R 1130   5.359   6.786   5.592  0.6593  0.1722 -0.0323
    9SAPS  C215 1131   5.246   6.927   5.499 -0.1000 -0.1035 -0.1530
    9SAPS  H15R 1132   5.174   6.852   5.463 -0.1974  0.5168 -1.3265
    9SAPS  C216 1133   5.220   7.064   5.445  0.4251  0.1806  0.0420
    9SAPS  H16R 1134   5.303   7.139   5.443 -1.5753  2.5546 -1.6335
    9SAPS  H16S 1135   5.138   7.117   5.498  0.4050  0.3739 -0.1806
    9SAPS  C217 1136   5.181   7.067   5.295 -0.4792  0.0096  0.3741
    9SAPS  H17R 1137   5.161   7.171   5.260 -2.2572 -0.2360  0.6007
    9SAPS  H17S 1138   5.087   7.010   5.280 -2.0987  2.3621  1.0685
    9SAPS  C218 1139   5.292   7.007   5.202 -0.0171 -0.0311 -0.0535
    9SAPS  H18R 1140   5.328   6.903   5.218 -1.9310 -0.5266  1.4768
    9SAPS  H18S 1141   5.385   7.068   5.199 -0.0047 -0.0778 -0.9798
    9SAPS  C219 1142   5.246   7.003   5.055 -0.8044 -0.4048  0.6000
    9SAPS  H19R 1143   5.163   7.076   5.046 -2.4321 -2.0468  1.5939
    9SAPS  H19S 1144   5.191   6.908   5.039 -0.5605 -0.0791 -2.8707
    9SAPS  C220 1145   5.348   7.026   4.944 -0.1652  0.1481 -0.2169
    9SAPS  H20R 1146   5.408   7.118   4.962  1.0461 -0.1511 -2.3689
    9SAPS  H20S 1147   5.305   7.028   4.842  1.5765 -2.7384 -1.1420
    9SAPS  H20T 1148   5.425   6.945   4.947 -1.1155 -0.7417  1.1352
    9SAPS   C33 1149   6.942   6.558   6.086 -0.1381 -0.2333  0.5054
    9SAPS   H3X 1150   6.968   6.450   6.090  1.2448 -0.0893 -2.2353
    9SAPS   H3Y 1151   7.009   6.604   6.162  0.1983 -0.6611  0.4742
    9SAPS   C34 1152   6.980   6.616   5.949  0.3331 -0.4513  0.1310
    9SAPS   H4X 1153   7.086   6.585   5.933  1.0234  1.4198  0.8740
    9SAPS   H4Y 1154   6.975   6.727   5.948 -0.3470 -0.4773 -0.5794
    9SAPS   C35 1155   6.901   6.552   5.832  0.4652 -0.0851  0.6037
    9SAPS   H5X 1156   6.790   6.554   5.845  0.4331  1.9490  0.3125
    9SAPS   H5Y 1157   6.939   6.447   5.826  0.2623 -0.0896 -1.1810
    9SAPS   C36 1158   6.934   6.614   5.690 -0.2612  0.1405  0.0543
    9SAPS   H6X 1159   7.040   6.586   5.672  0.1552  1.5429  0.2120
    9SAPS   H6Y 1160   6.914   6.723   5.685 -1.3848 -0.0634 -0.1251
    9SAPS   C37 1161   6.839   6.562   5.581  0.1814  0.0857 -0.1748
    9SAPS   H7X 1162   6.736   6.566   5.623  1.4109 -1.2960  3.3211
    9SAPS   H7Y 1163   6.858   6.455   5.558 -1.8142 -0.1552 -0.9123
    9SAPS   C38 1164   6.847   6.642   5.453 -0.5524 -0.4903  0.0503
    9SAPS   H8X 1165   6.845   6.751   5.478 -0.2502  0.1285 -2.3822
    9SAPS   H8Y 1166   6.762   6.616   5.386 -1.3700 -0.5229  1.0754
    9SAPS   C39 1167   6.975   6.623   5.372 -0.4599  0.2674 -0.2161
    9SAPS   H9X 1168   6.951   6.528   5.320 -5.4195  0.4677  1.1791
    9SAPS   H9Y 1169   7.061   6.609   5.442 -0.7876  0.2122  0.1815
    9SAPS  C310 1170   7.015   6.734   5.277  0.5067  0.1922 -0.2628
    9SAPS  H10X 1171   7.058   6.817   5.337 -1.5086  1.0998 -0.0145
    9SAPS  H10Y 1172   6.921   6.778   5.237 -0.4560  0.8653  2.5249
    9SAPS  C311 1173   7.121   6.704   5.161 -0.6855  0.3671  0.0124
    9SAPS  H11X 1174   7.066   6.635   5.093  0.7820 -0.2468 -0.6142
    9SAPS  H11Y 1175   7.201   6.645   5.212 -0.3440  3.1076  2.9280
    9SAPS  C312 1176   7.181   6.834   5.095 -0.0145  1.5281  0.6538
    9SAPS  H12X 1177   7.233   6.893   5.173  2.3533 -0.3545  0.6163
    9SAPS  H12Y 1178   7.105   6.903   5.052 -0.1466  0.1707 -1.4476
    9SAPS  C313 1179   7.289   6.804   4.988 -0.9032 -0.6610  0.2863
    9SAPS  H13X 1180   7.366   6.745   5.041 -0.1557 -1.3477 -1.4712
    9SAPS  H13Y 1181   7.330   6.901   4.951 -0.4597 -1.1116 -0.4439
    9SAPS  C314 1182   7.234   6.726   4.869 -0.1906  0.2019  0.4188
    9SAPS  H14X 1183   7.138   6.773   4.838 -0.3894 -1.7278 -2.2042
    9SAPS  H14Y 1184   7.214   6.627   4.915  1.6451  0.0137  0.8770
    9SAPS  C315 1185   7.340   6.727   4.754 -0.4120 -0.5050 -0.2089
    9SAPS  H15X 1186   7.442   6.691   4.780  0.1116  1.4709  0.7291
    9SAPS  H15Y 1187   7.350   6.836   4.735 -0.7765 -0.1636  1.3982
    9SAPS  C316 1188   7.275   6.643   4.646 -0.4527 -0.5505 -0.4091
    9SAPS  H16X 1189   7.330   6.674   4.554 -0.0395 -0.8461 -0.2631
    9SAPS  H16Y 1190   7.166   6.647   4.627 -0.2427  0.1116 -1.6194
    9SAPS  C317 1191   7.287   6.485   4.660 -0.2259 -0.0870  0.3721
    9SAPS  H17X 1192   7.223   6.456   4.747 -0.5625  3.0861  1.3304
    9SAPS  H17Y 1193   7.393   6.462   4.686  0.2207  1.3300 -0.1127
    9SAPS  C318 1194   7.252   6.417   4.524  0.3718 -0.1465 -0.3000
    9SAPS  H18X 1195   7.159   6.465   4.486 -0.1046  0.1374  1.1537
    9SAPS  H18Y 1196   7.226   6.309   4.536  1.2903 -0.2545  0.9108
    9SAPS  H18Z 1197   7.331   6.413   4.446  4.0181  0.8143  3.0290
   10SAPS     N 1198   1.718   1.066   7.756  0.7565  0.4846 -0.1265
   10SAPS   HN1 1199   1.718   0.969   7.795 -2.6475  0.5408  0.3102
   10SAPS   HN2 1200   1.804   1.089   7.703  1.5000 -1.6704  0.0448
   10SAPS   HN3 1201   1.718   1.130   7.838 -1.1637 -1.7587  1.8066
   10SAPS   C12 1202   1.592   1.090   7.673  0.0611 -0.4575  0.1082
   10SAPS  H12A 1203   1.512   1.070   7.743  0.7454  0.7953  1.3031
   10SAPS   C13 1204   1.565   1.241   7.645  0.3906  0.4747  0.4372
   10SAPS  O13A 1205   1.648   1.330   7.681 -0.2056  0.4621  0.7863
   10SAPS  O13B 1206   1.460   1.270   7.581  0.0338 -0.6388  0.1556
   10SAPS   C11 1207   1.580   1.002   7.551  0.1913  0.0423  0.4106
   10SAPS  H11A 1208   1.667   1.020   7.484  1.4771 -0.9109  1.7659
   10SAPS  H11B 1209   1.490   1.039   7.498 -0.6167  1.0789  2.4285
   10SAPS     P 1210   1.545   0.748   7.490  0.0868  0.1380  0.0171
   10SAPS   O13 1211   1.568   0.621   7.561 -0.6536  0.1457  0.0917
   10SAPS   O14 1212   1.408   0.774   7.438  0.0010 -0.8174  0.6429
   10SAPS   O12 1213   1.575   0.866   7.588 -0.0318 -0.2370  0.7734
   10SAPS   O11 1214   1.641   0.759   7.370 -0.4130  1.1607  0.3961
   10SAPS    C1 1215   1.635   0.841   7.259  0.0432  0.2518 -0.4621
   10SAPS    HA 1216   1.560   0.923   7.268 -1.7888 -1.2362 -1.4333
   10SAPS    HB 1217   1.740   0.875   7.248  0.7468 -1.8431 -0.6050
   10SAPS    C2 1218   1.623   0.753   7.134  0.7277 -0.5316 -0.3419
   10SAPS    HS 1219   1.665   0.654   7.160  0.8376 -0.4922 -0.3708
   10SAPS   O21 1220   1.695   0.820   7.030 -0.7407 -0.3165 -0.1323
   10SAPS   C21 1221   1.750   0.749   6.940 -0.0371 -0.5226  0.6149
   10SAPS   O22 1222   1.758   0.627   6.936 -0.2932 -0.2011  0.2219
   10SAPS   C22 1223   1.814   0.833   6.828 -0.1751 -0.6399 -0.0840
   10SAPS   H2R 1224   1.853   0.932   6.861  1.1268 -0.5119 -1.8741
   10SAPS   H2S 1225   1.902   0.783   6.782  1.1858  1.4721  0.0612
   10SAPS    C3 1226   1.471   0.742   7.090 -0.0249 -0.2205  0.8110
   10SAPS    HX 1227   1.442   0.848   7.074 -0.8070 -0.6918 -1.2157
   10SAPS    HY 1228   1.407   0.700   7.170  0.5160 -1.9151  0.4028
   10SAPS   O31 1229   1.460   0.678   6.962 -0.1088  0.7654  0.3342
   10SAPS   C31 1230   1.454   0.544   6.971  0.4463  0.5918  0.0310
   10SAPS   O32 1231   1.475   0.479   7.073 -0.2625  0.5451 -0.3770
   10SAPS   C32 1232   1.403   0.487   6.836 -0.0628 -0.5317 -0.4116
   10SAPS   H2X 1233   1.292   0.494   6.837 -0.0606 -0.5437 -0.0920
   10SAPS   H2Y 1234   1.426   0.378   6.836 -0.4764 -0.6256 -0.9489
   10SAPS   C23 1235   1.705   0.879   6.715  0.1815 -0.6880 -0.5245
   10SAPS   H3R 1236   1.635   0.961   6.745  1.8238  0.0448  1.5089
   10SAPS   H3S 1237   1.661   0.781   6.688 -1.3202 -1.0879  2.7871
   10SAPS   C24 1238   1.774   0.925   6.583 -0.1335 -0.3792 -0.0929
   10SAPS   H4R 1239   1.707   0.932   6.495 -0.3725 -3.6054 -0.2864
   10SAPS   H4S 1240   1.854   0.852   6.560  0.6173  0.1611  0.7157
   10SAPS   C25 1241   1.837   1.066   6.598 -0.4093  0.3108 -0.0894
   10SAPS   H5R 1242   1.911   1.087   6.676 -1.0947 -0.8541  0.9112
   10SAPS   C26 1243   1.812   1.170   6.528  0.0958 -0.5535  0.1603
   10SAPS   H6R 1244   1.885   1.253   6.530 -0.0805 -0.3992  0.1952
   10SAPS   C27 1245   1.714   1.172   6.417 -0.2604 -0.0525  0.0144
   10SAPS   H7R 1246   1.619   1.130   6.456 -1.9502  1.2720 -2.4392
   10SAPS   H7S 1247   1.756   1.104   6.340  0.8174 -2.1861  2.3582
   10SAPS   C28 1248   1.685   1.311   6.354 -0.0086 -0.3909 -0.1917
   10SAPS   H8R 1249   1.681   1.382   6.438 -1.5520 -1.2540  0.5038
   10SAPS   C29 1250   1.698   1.346   6.230 -0.1016 -0.6425 -0.2286
   10SAPS   H9R 1251   1.720   1.449   6.198 -0.4502  0.0383  1.5931
   10SAPS  C210 1252   1.719   1.257   6.109 -0.3126  0.6576 -0.2353
   10SAPS  H10R 1253   1.670   1.157   6.111  1.0050 -0.0342 -1.1999
   10SAPS  H10S 1254   1.827   1.231   6.113 -0.2624  0.9909  0.8732
   10SAPS  C211 1255   1.678   1.321   5.973  0.4397 -0.6953  0.3905
   10SAPS  H11R 1256   1.615   1.412   5.966  3.3758  1.3830 -1.2483
   10SAPS  C212 1257   1.725   1.286   5.857  0.6863  0.7797  0.6963
   10SAPS  H12R 1258   1.691   1.323   5.759  1.0418  2.2037  1.0899
   10SAPS  C213 1259   1.824   1.174   5.839  0.7727  0.0480  0.0682
   10SAPS  H13R 1260   1.870   1.150   5.937 -0.0565  2.4506  1.1314
   10SAPS  H13S 1261   1.905   1.218   5.777 -0.1988  1.4872 -0.2370
   10SAPS  C214 1262   1.739   1.070   5.770 -0.3450  0.2370  0.4145
   10SAPS  H14R 1263   1.639   1.054   5.813  0.3551 -0.7343  1.7531
   10SAPS  C215 1264   1.768   0.998   5.660 -0.2002 -0.6405  0.6794
   10SAPS  H15R 1265   1.679   0.950   5.616 -2.5109  2.9143  1.0484
   10SAPS  C216 1266   1.898   0.994   5.581  0.3026 -0.4778  0.6694
   10SAPS  H16R 1267   1.910   0.884   5.565 -2.4110 -0.5612 -1.6497
   10SAPS  H16S 1268   1.983   1.032   5.641  0.1209 -0.4009  0.8812
   10SAPS  C217 1269   1.889   1.073   5.452  0.9346  0.4347  0.8231
   10SAPS  H17R 1270   1.912   1.177   5.483  1.4911  0.3743  0.6356
   10SAPS  H17S 1271   1.786   1.069   5.410 -0.0808 -0.2131  3.2213
   10SAPS  C218 1272   1.998   1.049   5.346 -0.1842  0.0956  0.3786
   10SAPS  H18R 1273   2.099   1.059   5.391  0.0953  1.1366 -0.4308
   10SAPS  H18S 1274   1.988   1.131   5.271  0.8896 -0.4069 -0.3495
   10SAPS  C219 1275   1.985   0.913   5.280 -1.1160 -0.0364 -0.7392
   10SAPS  H19R 1276   1.885   0.904   5.233 -0.5726 -4.0273 -1.4918
   10SAPS  H19S 1277   2.007   0.824   5.343  3.3568  0.1299 -1.7224
   10SAPS  C220 1278   2.083   0.912   5.163  0.0929  0.1298 -0.7341
   10SAPS  H20R 1279   2.191   0.914   5.186  0.0060  0.0002 -0.3132
   10SAPS  H20S 1280   2.066   1.000   5.098  1.2611  0.5379 -0.5094
   10SAPS  H20T 1281   2.064   0.822   5.100  0.1792 -1.1586  1.0229
   10SAPS   C33 1282   1.462   0.564   6.711 -0.4577  0.0965 -0.3771
   10SAPS   H3X 1283   1.569   0.541   6.692 -0.6463  0.5601 -2.2281
   10SAPS   H3Y 1284   1.446   0.673   6.727  1.0373  0.2698  0.0231
   10SAPS   C34 1285   1.392   0.531   6.578 -0.0109  0.6267  0.2193
   10SAPS   H4X 1286   1.282   0.536   6.593 -0.2521 -1.4321 -0.5549
   10SAPS   H4Y 1287   1.432   0.431   6.549  2.2059  1.8622 -1.2325
   10SAPS   C35 1288   1.431   0.618   6.457  0.0049 -0.1199 -0.3088
   10SAPS   H5X 1289   1.400   0.723   6.477 -0.9387 -0.1281 -1.5776
   10SAPS   H5Y 1290   1.368   0.588   6.371  0.0141 -1.4262  0.1155
   10SAPS   C36 1291   1.576   0.612   6.411  0.8252  0.3005 -0.1269
   10SAPS   H6X 1292   1.609   0.511   6.381  2.5720  1.5361 -2.6335
   10SAPS   H6Y 1293   1.642   0.650   6.492  0.9169  0.5641 -0.3228
   10SAPS   C37 1294   1.624   0.698   6.294 -0.5515 -0.5486  0.7467
   10SAPS   H7X 1295   1.733   0.681   6.291 -0.6985 -1.4910 -0.0941
   10SAPS   H7Y 1296   1.596   0.805   6.304 -1.0134 -0.6321  0.4118
   10SAPS   C38 1297   1.576   0.644   6.156 -0.5358  0.5787  0.6536
   10SAPS   H8X 1298   1.466   0.647   6.171 -0.7495 -3.4932  1.0997
   10SAPS   H8Y 1299   1.611   0.539   6.143  0.4381  1.0289 -0.6000
   10SAPS   C39 1300   1.633   0.729   6.040 -0.9618  0.4423  0.0098
   10SAPS   H9X 1301   1.741   0.752   6.053 -0.4362 -2.6262  2.2667
   10SAPS   H9Y 1302   1.573   0.822   6.043 -1.9080 -0.1404 -0.5200
   10SAPS  C310 1303   1.613   0.669   5.899  0.6649  0.3860  0.1716
   10SAPS  H10X 1304   1.668   0.573   5.901 -1.0550 -0.6280  0.3762
   10SAPS  H10Y 1305   1.652   0.722   5.809 -0.9230  0.4276 -0.5246
   10SAPS  C311 1306   1.461   0.625   5.883 -0.3529  0.1398 -0.9423
   10SAPS  H11X 1307   1.403   0.714   5.916  2.9745  1.2080  2.9481
   10SAPS  H11Y 1308   1.446   0.549   5.963 -1.7493  1.4774  0.1297
   10SAPS  C312 1309   1.431   0.573   5.746  0.0223 -0.6453 -0.0442
   10SAPS  H12X 1310   1.348   0.499   5.748 -0.1326 -0.4578  0.7003
   10SAPS  H12Y 1311   1.514   0.505   5.715 -0.6461 -0.9276 -1.2579
   10SAPS  C313 1312   1.410   0.690   5.646 -0.5794 -0.3022 -0.0743
   10SAPS  H13X 1313   1.502   0.752   5.632  0.9160 -2.6967 -1.5271
   10SAPS  H13Y 1314   1.325   0.760   5.661 -0.0831  0.2982 -0.0082
   10SAPS  C314 1315   1.383   0.618   5.510  0.2568  0.0712  0.9403
   10SAPS  H14X 1316   1.283   0.570   5.514  0.2901 -0.0602  0.3246
   10SAPS  H14Y 1317   1.458   0.536   5.505  2.1484  1.6138  2.3857
   10SAPS  C315 1318   1.402   0.717   5.386 -0.2061 -0.1903  0.5989
   10SAPS  H15X 1319   1.492   0.780   5.405  0.7940 -0.6528 -2.0714
   10SAPS  H15Y 1320   1.320   0.792   5.381  0.4792  0.5255 -1.5681
   10SAPS  C316 1321   1.412   0.652   5.247  0.0373  0.4656 -0.3858
   10SAPS  H16X 1322   1.311   0.612   5.224  0.1039 -1.0200  1.6429
   10SAPS  H16Y 1323   1.485   0.569   5.250  0.2207  0.5660 -1.6279
   10SAPS  C317 1324   1.472   0.747   5.150 -0.4962  0.3334  0.4945
   10SAPS  H17X 1325   1.487   0.700   5.051 -0.6435 -0.5814  0.9003
   10SAPS  H17Y 1326   1.571   0.767   5.197 -0.0453 -1.5334  0.3906
   10SAPS  C318 1327   1.398   0.879   5.136  0.0599  0.0794 -0.1953
   10SAPS  H18X 1328   1.442   0.936   5.052  0.4369 -2.1486 -1.5773
   10SAPS  H18Y 1329   1.402   0.918   5.240  0.6159 -1.0169  0.2165
   10SAPS  H18Z 1330   1.294   0.852   5.106  0.9234  1.0178 -4.7322
   11SAPS     N 1331   5.389   3.975   2.226  0.4103 -0.1758  0.0422
   11SAPS   HN1 1332   5.476   3.926   2.257  0.5879  1.6080  2.7640
   11SAPS   HN2 1333   5.308   3.972   2.292 -1.3413  1.1144 -1.9077
   11SAPS   HN3 1334   5.365   3.943   2.130 -0.2825  0.1849  0.0899
   11SAPS   C12 1335   5.423   4.118   2.227 -0.5881  0.4394 -0.3156
   11SAPS  H12A 1336   5.514   4.138   2.172  0.3954  0.9569  1.4151
   11SAPS   C13 1337   5.323   4.218   2.173 -0.0253  0.4953  0.0905
   11SAPS  O13A 1338   5.216   4.183   2.125 -0.1130  0.3193  0.5182
   11SAPS  O13B 1339   5.362   4.339   2.179  0.8846  0.3065 -0.0846
   11SAPS   C11 1340   5.466   4.150   2.371 -0.0931 -0.1371 -0.6727
   11SAPS  H11A 1341   5.387   4.132   2.447  2.3292 -3.6396  1.3316
   11SAPS  H11B 1342   5.501   4.255   2.373  2.5639 -0.9292  1.7900
   11SAPS     P 1343   5.709   4.113   2.488  0.2861 -0.1993  0.2667
   11SAPS   O13 1344   5.821   4.123   2.387 -0.0575 -0.0726 -0.5520
   11SAPS   O14 1345   5.680   4.244   2.557  0.0828  0.4686 -0.5279
   11SAPS   O12 1346   5.579   4.071   2.401  0.0254  0.3745  0.4207
   11SAPS   O11 1347   5.738   3.997   2.589 -0.1520 -0.0174  0.8148
   11SAPS    C1 1348   5.661   3.878   2.620  0.7705 -0.7953 -0.1109
   11SAPS    HA 1349   5.606   3.832   2.536 -0.9357  0.5243  0.2450
   11SAPS    HB 1350   5.723   3.792   2.656  2.7060  0.6867  0.2615
   11SAPS    C2 1351   5.558   3.909   2.725  0.3216  0.9973 -0.0317
   11SAPS    HS 1352   5.483   3.982   2.687 -0.2316  0.3057 -0.2890
   11SAPS   O21 1353   5.620   3.954   2.842  0.0794 -0.2692  0.5747
   11SAPS   C21 1354   5.568   4.065   2.899 -0.6971  0.4248  0.8646
   11SAPS   O22 1355   5.479   4.134   2.859  0.0405  0.0846 -0.6823
   11SAPS   C22 1356   5.629   4.094   3.035 -0.5172  0.2554 -0.7937
   11SAPS   H2R 1357   5.660   3.996   3.076  0.4531  0.4626 -0.9900
   11SAPS   H2S 1358   5.720   4.159   3.033 -1.1045  1.1277 -0.1489
   11SAPS    C3 1359   5.478   3.785   2.772 -0.4309 -0.7287 -0.9933
   11SAPS    HX 1360   5.550   3.707   2.808  0.5606  0.7507  0.3876
   11SAPS    HY 1361   5.428   3.752   2.679  0.2373  1.4571 -2.1950
   11SAPS   O31 1362   5.382   3.811   2.877  0.8750  0.1351  0.4965
   11SAPS   C31 1363   5.314   3.708   2.921  0.1410  0.9488 -0.5998
   11SAPS   O32 1364   5.331   3.588   2.880  0.5952 -0.2748  0.1369
   11SAPS   C32 1365   5.218   3.742   3.038 -0.2533  0.0766  0.3983
   11SAPS   H2X 1366   5.230   3.660   3.112  1.5315 -0.3436 -0.2961
   11SAPS   H2Y 1367   5.116   3.734   2.994  0.6648 -2.3134 -1.5874
   11SAPS   C23 1368   5.529   4.158   3.126  0.0071 -0.3150 -0.0180
   11SAPS   H3R 1369   5.438   4.094   3.126 -0.2408 -0.1073  2.7407
   11SAPS   H3S 1370   5.494   4.254   3.083  2.2649  0.4977 -0.1767
   11SAPS   C24 1371   5.570   4.173   3.278 -0.2428 -0.0909  0.3296
   11SAPS   H4R 1372   5.613   4.074   3.304 -1.0287 -0.5576 -0.1103
   11SAPS   H4S 1373   5.470   4.189   3.324 -2.3364 -0.3899 -3.6590
   11SAPS   C25 1374   5.663   4.288   3.289  0.2937  0.7087 -1.0390
   11SAPS   H5R 1375   5.709   4.307   3.191  2.5182  0.6912 -0.0544
   11SAPS   C26 1376   5.675   4.362   3.398 -0.6234 -0.6786 -0.5206
   11SAPS   H6R 1377   5.754   4.438   3.394  0.4612 -1.5849  1.7198
   11SAPS   C27 1378   5.615   4.338   3.538  0.6245 -0.1980 -1.0767
   11SAPS   H7R 1379   5.512   4.379   3.527 -0.4517 -2.0878  1.2064
   11SAPS   H7S 1380   5.675   4.392   3.614  0.9006  0.5481 -1.8069
   11SAPS   C28 1381   5.590   4.200   3.591 -0.4576 -1.1714  0.3148
   11SAPS   H8R 1382   5.624   4.123   3.520  0.1184 -1.0315  0.4336
   11SAPS   C29 1383   5.531   4.162   3.709 -0.1031 -0.3429 -0.3062
   11SAPS   H9R 1384   5.530   4.056   3.737 -1.1396 -0.4133 -0.5731
   11SAPS  C210 1385   5.482   4.254   3.819 -0.0452  0.2802 -0.1061
   11SAPS  H10R 1386   5.372   4.262   3.829  0.0850  0.9531  0.9826
   11SAPS  H10S 1387   5.516   4.359   3.803 -0.7283  0.3106 -1.4654
   11SAPS  C211 1388   5.539   4.209   3.954  0.4311  0.7363  0.2259
   11SAPS  H11R 1389   5.641   4.243   3.978  0.9286 -0.7368  0.2461
   11SAPS  C212 1390   5.464   4.146   4.049 -0.7384  0.2542  0.1969
   11SAPS  H12R 1391   5.518   4.114   4.140  0.8539  0.1793 -0.7385
   11SAPS  C213 1392   5.329   4.087   4.025  0.5963  0.7255 -0.2136
   11SAPS  H13R 1393   5.321   4.047   3.922  2.7422 -0.4838  0.0192
   11SAPS  H13S 1394   5.241   4.154   4.032 -0.3931 -0.7408  3.1264
   11SAPS  C214 1395   5.292   3.968   4.119 -0.4447 -0.3628 -0.3330
   11SAPS  H14R 1396   5.286   3.869   4.071  0.2605 -0.9636  0.7734
   11SAPS  C215 1397   5.242   3.975   4.244 -0.1130 -0.0400 -0.3790
   11SAPS  H15R 1398   5.227   3.882   4.301  0.2594  0.5205  0.6741
   11SAPS  C216 1399   5.203   4.104   4.325 -0.1544  0.2094  0.4373
   11SAPS  H16R 1400   5.256   4.192   4.281  1.7457 -0.9246  0.3149
   11SAPS  H16S 1401   5.241   4.093   4.429  0.3481 -2.8215  0.0406
   11SAPS  C217 1402   5.049   4.120   4.319  0.3449 -0.1257 -0.4244
   11SAPS  H17R 1403   4.999   4.021   4.323 -1.3490  0.6908 -0.3036
   11SAPS  H17S 1404   5.008   4.150   4.220 -1.4710  0.4292  0.4386
   11SAPS  C218 1405   4.993   4.199   4.438  0.3831 -0.0514  0.4053
   11SAPS  H18R 1406   5.021   4.306   4.438 -2.0983  0.6555  0.5710
   11SAPS  H18S 1407   5.040   4.150   4.526 -1.9945 -0.8999  1.3057
   11SAPS  C219 1408   4.833   4.198   4.442 -0.9891  0.2206 -0.4940
   11SAPS  H19R 1409   4.795   4.097   4.415 -0.7230  0.0062 -0.0664
   11SAPS  H19S 1410   4.804   4.270   4.362 -0.4462  0.1885 -0.7178
   11SAPS  C220 1411   4.771   4.240   4.574 -0.4004  0.5094  0.4002
   11SAPS  H20R 1412   4.813   4.332   4.621 -0.9686  0.6284  0.6889
   11SAPS  H20S 1413   4.787   4.170   4.659 -1.6099 -0.6248 -0.2719
   11SAPS  H20T 1414   4.660   4.247   4.567 -0.2621  1.4691 -1.2206
   11SAPS   C33 1415   5.248   3.881   3.098  0.6748  0.3556 -0.7601
   11SAPS   H3X 1416   5.245   3.960   3.020  0.7529  1.5687  0.4218
   11SAPS   H3Y 1417   5.349   3.879   3.145  0.1021 -0.2383  0.5129
   11SAPS   C34 1418   5.142   3.912   3.208  0.1910 -0.0759  0.1943
   11SAPS   H4X 1419   5.134   3.818   3.265 -1.4039 -1.0174 -1.4976
   11SAPS   H4Y 1420   5.043   3.938   3.166  0.5162 -0.1948 -0.6820
   11SAPS   C35 1421   5.175   4.024   3.308  0.3347  0.5089 -0.2976
   11SAPS   H5X 1422   5.081   4.079   3.329 -0.1978  0.5198 -2.5492
   11SAPS   H5Y 1423   5.254   4.093   3.269  1.5967 -1.5634 -1.5778
   11SAPS   C36 1424   5.217   3.978   3.454 -0.8000  0.3601  0.6261
   11SAPS   H6X 1425   5.265   4.065   3.503  1.5592 -0.9633  0.8282
   11SAPS   H6Y 1426   5.295   3.899   3.449  0.8094  1.4917  4.4407
   11SAPS   C37 1427   5.096   3.931   3.533  0.4640 -0.9191 -0.1571
   11SAPS   H7X 1428   5.058   3.833   3.499  0.0880 -0.4855 -1.0217
   11SAPS   H7Y 1429   5.014   4.006   3.528  0.9856 -0.2601  0.8522
   11SAPS   C38 1430   5.126   3.928   3.685  0.0892 -0.3247  1.1753
   11SAPS   H8X 1431   5.169   4.025   3.719 -0.7572 -0.1491  1.7879
   11SAPS   H8Y 1432   5.206   3.853   3.705 -0.2073 -0.8165  0.5643
   11SAPS   C39 1433   5.000   3.902   3.767  0.2629 -0.2526 -0.1449
   11SAPS   H9X 1434   4.996   3.800   3.810  2.4776 -0.5646 -0.5645
   11SAPS   H9Y 1435   4.906   3.917   3.709  0.5444 -1.4278 -0.9590
   11SAPS  C310 1436   4.996   4.002   3.885 -0.6075  0.3429  0.4343
   11SAPS  H10X 1437   5.008   4.104   3.844  0.2268  0.3570  0.7044
   11SAPS  H10Y 1438   5.093   4.000   3.938  1.6482  1.4380 -3.2978
   11SAPS  C311 1439   4.876   4.006   3.973  0.2826 -0.6664 -0.7750
   11SAPS  H11X 1440   4.784   4.009   3.910  1.1870 -0.9672 -2.1538
   11SAPS  H11Y 1441   4.858   4.101   4.028  0.1781 -0.5070 -1.0778
   11SAPS  C312 1442   4.872   3.885   4.068 -0.0559  0.0344  0.5258
   11SAPS  H12X 1443   4.965   3.881   4.128 -0.5825  0.3396  1.3885
   11SAPS  H12Y 1444   4.884   3.788   4.015 -2.3712 -0.1256  0.1669
   11SAPS  C313 1445   4.744   3.897   4.155  0.0604  0.3148  0.0765
   11SAPS  H13X 1446   4.651   3.884   4.096 -0.3603 -1.4889  1.0722
   11SAPS  H13Y 1447   4.752   3.995   4.207  1.9444 -0.9178  2.3377
   11SAPS  C314 1448   4.729   3.798   4.278 -0.5087  0.3904  0.5741
   11SAPS  H14X 1449   4.814   3.822   4.345  0.3262 -1.5298  0.2725
   11SAPS  H14Y 1450   4.746   3.695   4.241  0.9111  0.8853 -0.2679
   11SAPS  C315 1451   4.592   3.804   4.336 -0.2406 -0.6670 -0.5188
   11SAPS  H15X 1452   4.575   3.722   4.409  2.7066 -0.2126  0.7996
   11SAPS  H15Y 1453   4.527   3.797   4.245 -2.0011 -0.5047  0.6709
   11SAPS  C316 1454   4.555   3.931   4.414  0.8902 -0.1735 -0.3163
   11SAPS  H16X 1455   4.587   4.019   4.355 -2.0550  0.2711 -1.4514
   11SAPS  H16Y 1456   4.603   3.927   4.514 -0.7003 -2.4422  0.4468
   11SAPS  C317 1457   4.405   3.946   4.443 -0.6795 -0.5023 -0.1914
   11SAPS  H17X 1458   4.380   3.848   4.489  0.3048 -0.7433 -0.1506
   11SAPS  H17Y 1459   4.350   3.960   4.348  2.3798  0.1514 -1.9803
   11SAPS  C318 1460   4.380   4.063   4.538 -0.1726 -0.1801 -0.3092
   11SAPS  H18X 1461   4.415   4.036   4.640 -2.9622  0.0506  0.7963
   11SAPS  H18Y 1462   4.272   4.083   4.557  0.6083  2.1290  2.3389
   11SAPS  H18Z 1463   4.442   4.151   4.510  0.9125 -0.3088  1.5150
   12SAPS     N 1464   5.141   0.452   2.278  0.6678  0.2479 -0.9457
   12SAPS   HN1 1465   5.218   0.416   2.337  0.1644  0.3916 -0.1751
   12SAPS   HN2 1466   5.102   0.376   2.219 -2.3510  0.7753  0.1496
   12SAPS   HN3 1467   5.175   0.537   2.229  1.0763 -0.5326 -2.0308
   12SAPS   C12 1468   5.037   0.479   2.377  0.2085 -0.4670  0.2053
   12SAPS  H12A 1469   4.962   0.527   2.316  0.6422 -0.2891 -0.1991
   12SAPS   C13 1470   4.952   0.367   2.429 -0.4161  0.0212 -0.3393
   12SAPS  O13A 1471   4.981   0.248   2.397  0.1630 -0.5126 -0.2163
   12SAPS  O13B 1472   4.849   0.389   2.499 -0.0119  0.0938 -1.0112
   12SAPS   C11 1473   5.101   0.562   2.489 -0.1615 -0.5478  0.1205
   12SAPS  H11A 1474   5.180   0.495   2.529 -0.8339 -1.9801 -0.8285
   12SAPS  H11B 1475   5.024   0.574   2.568 -0.6487  0.2935 -0.4651
   12SAPS     P 1476   5.091   0.821   2.505 -0.0255 -0.6570  0.5308
   12SAPS   O13 1477   5.114   0.919   2.393 -0.5583 -0.5775 -0.2620
   12SAPS   O14 1478   4.952   0.804   2.554 -0.2128  0.1585 -0.0445
   12SAPS   O12 1479   5.152   0.688   2.444  0.1497  0.5972  0.4537
   12SAPS   O11 1480   5.182   0.850   2.632  0.6138  0.2928  0.1337
   12SAPS    C1 1481   5.263   0.756   2.701  0.4188  0.3611 -0.3763
   12SAPS    HA 1482   5.198   0.673   2.734 -2.3313  2.5401  0.1015
   12SAPS    HB 1483   5.338   0.717   2.629  1.1713  1.8927 -0.4782
   12SAPS    C2 1484   5.342   0.825   2.821  0.1602 -0.2277  0.7223
   12SAPS    HS 1485   5.422   0.755   2.853  0.5796 -0.6582 -1.1062
   12SAPS   O21 1486   5.259   0.882   2.927 -0.8103 -0.0256 -0.2164
   12SAPS   C21 1487   5.204   0.795   3.005 -0.0089  0.2758  0.4673
   12SAPS   O22 1488   5.215   0.670   2.990  0.7607 -1.3133 -0.4147
   12SAPS   C22 1489   5.130   0.858   3.122  0.8010 -0.3550 -0.2899
   12SAPS   H2R 1490   5.211   0.893   3.189  1.4589 -2.6685  0.1993
   12SAPS   H2S 1491   5.065   0.937   3.079  0.6179 -1.3174 -1.8555
   12SAPS    C3 1492   5.413   0.946   2.756  1.0242  0.3902  0.3621
   12SAPS    HX 1493   5.341   1.029   2.737  2.3619  1.2718 -1.0613
   12SAPS    HY 1494   5.452   0.909   2.660 -1.7430  0.0153 -0.7215
   12SAPS   O31 1495   5.512   0.994   2.842 -0.4662 -0.1040  0.2255
   12SAPS   C31 1496   5.546   1.119   2.841  0.0974 -0.7532 -0.3674
   12SAPS   O32 1497   5.496   1.200   2.767 -0.0002 -0.6577 -0.1781
   12SAPS   C32 1498   5.666   1.141   2.938  0.1609 -0.5517 -0.0032
   12SAPS   H2X 1499   5.701   1.245   2.923  1.1501 -0.9588 -0.6352
   12SAPS   H2Y 1500   5.740   1.065   2.905  1.5281 -0.1453  1.9497
   12SAPS   C23 1501   5.048   0.755   3.199  0.4898 -0.4960  0.2247
   12SAPS   H3R 1502   5.114   0.676   3.241 -0.9463 -1.8484  0.0110
   12SAPS   H3S 1503   4.983   0.700   3.129  0.1754  0.6591 -0.4270
   12SAPS   C24 1504   4.962   0.822   3.309 -0.0045  0.0624 -0.6914
   12SAPS   H4R 1505   4.890   0.894   3.265  0.5703  0.6154 -0.7331
   12SAPS   H4S 1506   5.027   0.883   3.375 -0.8981  0.5040 -0.2130
   12SAPS   C25 1507   4.879   0.726   3.395 -0.0806 -0.7584 -0.7015
   12SAPS   H5R 1508   4.943   0.649   3.439 -0.0291 -0.5067 -0.3322
   12SAPS   C26 1509   4.749   0.711   3.422  0.3930  0.7748 -0.1851
   12SAPS   H6R 1510   4.733   0.632   3.497  0.2966  1.2612  0.3159
   12SAPS   C27 1511   4.629   0.796   3.379 -0.5770 -0.1781 -0.7175
   12SAPS   H7R 1512   4.661   0.870   3.302  2.5130  1.2195  1.6741
   12SAPS   H7S 1513   4.592   0.855   3.466 -1.3672 -2.1974  0.3968
   12SAPS   C28 1514   4.511   0.716   3.330 -0.2277 -0.1937  0.8714
   12SAPS   H8R 1515   4.533   0.674   3.231  2.9390  1.7666  0.5942
   12SAPS   C29 1516   4.381   0.704   3.373  0.0982  0.5292  0.3551
   12SAPS   H9R 1517   4.309   0.648   3.312 -0.8084 -1.5041  3.1136
   12SAPS  C210 1518   4.326   0.751   3.509 -0.4352 -0.7994 -0.4171
   12SAPS  H10R 1519   4.412   0.781   3.573  0.8833 -1.3937 -1.8613
   12SAPS  H10S 1520   4.275   0.663   3.555 -1.8607 -1.3804 -2.9624
   12SAPS  C211 1521   4.222   0.854   3.485 -0.4784  0.0117  0.4247
   12SAPS  H11R 1522   4.157   0.838   3.397 -1.5189 -0.4187  1.2501
   12SAPS  C212 1523   4.198   0.971   3.546  0.1475  0.3198 -0.5866
   12SAPS  H12R 1524   4.104   1.027   3.533 -1.0911 -1.4340  0.2909
   12SAPS  C213 1525   4.274   1.019   3.665  0.3304 -0.5827 -0.4617
   12SAPS  H13R 1526   4.364   1.069   3.623 -0.3867  2.1052  1.0084
   12SAPS  H13S 1527   4.304   0.935   3.732  1.5387  1.4573  1.6904
   12SAPS  C214 1528   4.194   1.127   3.737  1.2218  0.6112  0.3785
   12SAPS  H14R 1529   4.111   1.173   3.682 -0.0987 -2.6818 -0.5962
   12SAPS  C215 1530   4.218   1.160   3.865  0.7402  0.7928  0.3280
   12SAPS  H15R 1531   4.154   1.236   3.912 -0.2508  0.1966 -0.0291
   12SAPS  C216 1532   4.320   1.099   3.959 -0.6208  0.1521  0.4291
   12SAPS  H16R 1533   4.349   1.000   3.916 -1.0170  1.0503 -2.0580
   12SAPS  H16S 1534   4.268   1.095   4.057  0.2134 -1.7576  0.8421
   12SAPS  C217 1535   4.429   1.203   3.981 -0.1156  0.0953 -0.5410
   12SAPS  H17R 1536   4.380   1.291   4.026 -2.0062 -1.1900  0.0493
   12SAPS  H17S 1537   4.471   1.225   3.880  0.7122  1.1206  0.0056
   12SAPS  C218 1538   4.533   1.152   4.069 -0.2609  0.2840 -0.1341
   12SAPS  H18R 1539   4.587   1.062   4.030 -0.2548 -0.9939  2.5965
   12SAPS  H18S 1540   4.485   1.114   4.162  0.4806 -0.2372  0.0437
   12SAPS  C219 1541   4.632   1.257   4.103 -0.0770 -0.2113  0.2137
   12SAPS  H19R 1542   4.578   1.341   4.151  1.0391 -0.0941  1.3146
   12SAPS  H19S 1543   4.682   1.299   4.013 -2.0076 -0.9243 -1.2653
   12SAPS  C220 1544   4.741   1.219   4.205  0.2498 -0.1561 -0.2894
   12SAPS  H20R 1545   4.700   1.204   4.307 -0.4149 -0.2246 -0.5625
   12SAPS  H20S 1546   4.825   1.293   4.205  2.1553 -2.2028 -1.2372
   12SAPS  H20T 1547   4.781   1.119   4.181  1.8935  0.0699  1.2487
   12SAPS   C33 1548   5.638   1.132   3.091  0.1242  0.7917  0.9200
   12SAPS   H3X 1549   5.571   1.044   3.104 -0.3966  0.2638 -3.5454
   12SAPS   H3Y 1550   5.583   1.224   3.118  0.0784  0.7459  0.9824
   12SAPS   C34 1551   5.762   1.112   3.183  0.8065  0.1855 -0.5243
   12SAPS   H4X 1552   5.845   1.185   3.170  0.3329  0.5908 -1.3353
   12SAPS   H4Y 1553   5.806   1.013   3.156 -0.1896 -0.2419 -0.6360
   12SAPS   C35 1554   5.724   1.099   3.325 -0.1237 -0.0041 -0.2979
   12SAPS   H5X 1555   5.808   1.049   3.379 -1.3971 -0.9817  0.8367
   12SAPS   H5Y 1556   5.637   1.034   3.346  0.9174 -1.2916  0.2231
   12SAPS   C36 1557   5.709   1.235   3.392  0.4682 -0.3736 -0.0928
   12SAPS   H6X 1558   5.632   1.294   3.337 -1.2826 -0.7918  1.8044
   12SAPS   H6Y 1559   5.810   1.279   3.384  1.3501 -2.2757 -0.0749
   12SAPS   C37 1560   5.678   1.241   3.545  0.1979  0.0069 -0.5390
   12SAPS   H7X 1561   5.594   1.171   3.565  0.6695 -0.5034 -0.3454
   12SAPS   H7Y 1562   5.638   1.342   3.569 -0.0319 -0.0072 -0.8527
   12SAPS   C38 1563   5.796   1.211   3.632  0.3788 -0.1259 -0.0863
   12SAPS   H8X 1564   5.880   1.261   3.578  0.4463 -2.2036 -2.0704
   12SAPS   H8Y 1565   5.814   1.102   3.642 -0.2592 -0.3740 -1.4294
   12SAPS   C39 1566   5.783   1.283   3.777 -0.2934  0.5498  0.1109
   12SAPS   H9X 1567   5.695   1.245   3.833  0.5419 -2.6917 -0.5315
   12SAPS   H9Y 1568   5.771   1.392   3.759  1.5064  0.4502 -2.2024
   12SAPS  C310 1569   5.901   1.253   3.877  0.5491 -0.0023 -0.1475
   12SAPS  H10X 1570   5.981   1.298   3.815 -0.0456  0.5904 -0.5048
   12SAPS  H10Y 1571   5.910   1.145   3.900  0.0056  0.3557  1.9248
   12SAPS  C311 1572   5.892   1.327   4.009  0.2404  0.1616 -0.3399
   12SAPS  H11X 1573   5.797   1.296   4.058  0.6379  0.0802  0.3815
   12SAPS  H11Y 1574   5.874   1.436   3.999  0.8380  0.2350 -0.6458
   12SAPS  C312 1575   6.014   1.300   4.097  1.0558 -0.0309  0.5387
   12SAPS  H12X 1576   6.093   1.352   4.039 -0.0635 -0.8774 -1.8879
   12SAPS  H12Y 1577   6.037   1.191   4.098 -0.7857 -0.4647 -0.4717
   12SAPS  C313 1578   5.999   1.348   4.240  0.0772  0.1355 -0.4380
   12SAPS  H13X 1579   5.913   1.299   4.289 -0.4692  2.9670  1.6938
   12SAPS  H13Y 1580   5.974   1.457   4.244 -0.4439  0.0413 -0.9818
   12SAPS  C314 1581   6.118   1.308   4.321  0.5829 -0.2654 -0.5244
   12SAPS  H14X 1582   6.201   1.371   4.282  0.5761 -0.7087 -1.2731
   12SAPS  H14Y 1583   6.136   1.199   4.304 -1.2026 -0.4393 -1.5326
   12SAPS  C315 1584   6.100   1.323   4.476  0.2985 -0.5885  0.2484
   12SAPS  H15X 1585   6.089   1.433   4.478  1.5626 -0.4417  0.3383
   12SAPS  H15Y 1586   6.197   1.290   4.520  0.0789 -2.2963 -0.4615
   12SAPS  C316 1587   5.984   1.249   4.528 -0.1530  0.1069  0.4702
   12SAPS  H16X 1588   5.991   1.147   4.483 -1.5202 -0.2260  0.9508
   12SAPS  H16Y 1589   5.887   1.296   4.498  0.6462  1.6486  0.2285
   12SAPS  C317 1590   5.965   1.225   4.679 -0.6417 -0.2693  0.2343
   12SAPS  H17X 1591   6.062   1.193   4.724  0.0503  0.3288 -0.7807
   12SAPS  H17Y 1592   5.892   1.146   4.708 -0.9920  0.3389  1.0586
   12SAPS  C318 1593   5.917   1.348   4.765  0.1523  0.6917  0.8446
   12SAPS  H18X 1594   5.975   1.442   4.748 -0.2626  0.5280 -1.7077
   12SAPS  H18Y 1595   5.910   1.324   4.874 -1.2699  4.3285  1.7087
   12SAPS  H18Z 1596   5.818   1.380   4.728 -0.1373  0.8182  1.6969
   13SAPS     N 1597   5.184   1.477   1.922  0.0907 -0.4290  0.4157
   13SAPS   HN1 1598   5.277   1.522   1.928 -0.5501  0.7483  2.7477
   13SAPS   HN2 1599   5.150   1.457   2.018  0.0429  1.4365  0.8236
   13SAPS   HN3 1600   5.199   1.393   1.863  0.0712 -0.2543  0.1619
   13SAPS   C12 1601   5.077   1.556   1.837  0.2301  0.1040 -0.1000
   13SAPS  H12A 1602   5.126   1.600   1.751  1.0534 -1.5371 -0.5119
   13SAPS   C13 1603   4.961   1.469   1.781 -0.1615 -0.2874  0.3627
   13SAPS  O13A 1604   4.973   1.343   1.805  0.0875  0.0300 -0.1835
   13SAPS  O13B 1605   4.874   1.515   1.700  0.8134 -0.0155 -0.1080
   13SAPS   C11 1606   5.015   1.663   1.928 -0.3076 -0.2429 -1.1014
   13SAPS  H11A 1607   4.987   1.611   2.022 -0.2189  0.1099 -0.8748
   13SAPS  H11B 1608   4.926   1.699   1.873  0.5430  0.0438 -2.3354
   13SAPS     P 1609   5.073   1.919   1.985 -0.3086  0.2844 -0.3104
   13SAPS   O13 1610   5.195   1.996   2.009 -0.2672  0.2674  0.5570
   13SAPS   O14 1611   4.973   1.984   1.890 -0.0605 -0.2352 -0.4948
   13SAPS   O12 1612   5.108   1.769   1.954  0.7209  0.7544 -0.7125
   13SAPS   O11 1613   5.009   1.909   2.126 -0.6185 -0.1805 -0.5118
   13SAPS    C1 1614   5.082   1.846   2.239  0.2589 -0.0790  0.7622
   13SAPS    HA 1615   5.013   1.772   2.286 -1.5330  0.5019 -0.8125
   13SAPS    HB 1616   5.178   1.803   2.202 -0.1007 -1.1936  1.0641
   13SAPS    C2 1617   5.127   1.945   2.355 -0.2120  0.6699 -0.0722
   13SAPS    HS 1618   5.184   1.887   2.430  0.0576  2.9933  1.6330
   13SAPS   O21 1619   5.017   2.012   2.414  0.0854 -0.1801  0.0574
   13SAPS   C21 1620   5.000   1.992   2.545 -0.1082  0.4398 -0.5297
   13SAPS   O22 1621   5.040   1.898   2.611  0.2195 -0.0886  0.2207
   13SAPS   C22 1622   4.931   2.112   2.613 -0.1267 -0.1316 -0.3243
   13SAPS   H2R 1623   5.002   2.193   2.639  1.2633 -1.3749 -0.1474
   13SAPS   H2S 1624   4.861   2.153   2.537 -0.1783 -0.3898 -0.4174
   13SAPS    C3 1625   5.217   2.060   2.303  0.3851  0.2785  0.1631
   13SAPS    HX 1626   5.174   2.103   2.211  1.1851  0.5508 -0.0912
   13SAPS    HY 1627   5.308   2.008   2.266  1.9478  3.1839 -0.3704
   13SAPS   O31 1628   5.237   2.163   2.408  0.2681 -0.2513  0.2009
   13SAPS   C31 1629   5.358   2.213   2.416  0.0435  0.1664 -0.2255
   13SAPS   O32 1630   5.451   2.190   2.335  0.4654  0.3916  0.2000
   13SAPS   C32 1631   5.369   2.305   2.534  0.1518 -0.7079 -0.9439
   13SAPS   H2X 1632   5.281   2.295   2.601  0.5161 -0.4603 -0.4266
   13SAPS   H2Y 1633   5.381   2.405   2.486  0.4384 -0.8134 -1.0959
   13SAPS   C23 1634   4.849   2.086   2.739  0.1072 -0.5620 -0.6371
   13SAPS   H3R 1635   4.907   2.038   2.821  0.7885 -0.6208 -1.1431
   13SAPS   H3S 1636   4.770   2.010   2.720 -0.2616 -0.4301  0.3336
   13SAPS   C24 1637   4.792   2.214   2.784 -1.1051 -0.1068  0.0203
   13SAPS   H4R 1638   4.728   2.259   2.705  0.2855 -1.1472 -1.7704
   13SAPS   H4S 1639   4.876   2.283   2.806 -1.2644 -0.3759  1.5791
   13SAPS   C25 1640   4.708   2.184   2.908 -0.6054 -0.0160 -0.1134
   13SAPS   H5R 1641   4.609   2.141   2.886 -0.6104 -0.0941  0.0606
   13SAPS   C26 1642   4.765   2.197   3.033 -0.0814 -0.2583  0.2970
   13SAPS   H6R 1643   4.702   2.186   3.122  1.6306  2.6820  2.0397
   13SAPS   C27 1644   4.908   2.234   3.063 -0.2843  0.9231  0.2773
   13SAPS   H7R 1645   4.973   2.182   2.990 -1.0440  1.1199 -0.5549
   13SAPS   H7S 1646   4.948   2.177   3.150  0.2922  0.6894 -0.1389
   13SAPS   C28 1647   4.946   2.381   3.068 -0.4020  0.4964  0.3629
   13SAPS   H8R 1648   5.011   2.425   2.990  1.1399 -2.2743 -0.0206
   13SAPS   C29 1649   4.912   2.462   3.167 -0.5006  0.1411  0.2171
   13SAPS   H9R 1650   4.952   2.564   3.166  0.7757 -0.3394  0.8423
   13SAPS  C210 1651   4.828   2.431   3.293 -0.2800 -0.0417 -0.5398
   13SAPS  H10R 1652   4.903   2.400   3.369 -1.3082 -1.1821  0.0608
   13SAPS  H10S 1653   4.769   2.342   3.263  0.2706 -0.3761 -0.6369
   13SAPS  C211 1654   4.739   2.542   3.335 -0.3296 -0.4501 -0.3359
   13SAPS  H11R 1655   4.666   2.573   3.259  1.3302  0.5001 -1.6037
   13SAPS  C212 1656   4.731   2.597   3.456 -0.0125  0.2292  0.3700
   13SAPS  H12R 1657   4.660   2.681   3.465  0.5917  0.7977 -0.0272
   13SAPS  C213 1658   4.818   2.585   3.576  0.9563  0.4492 -0.5482
   13SAPS  H13R 1659   4.843   2.687   3.611 -0.2189  1.4285 -2.3743
   13SAPS  H13S 1660   4.917   2.536   3.562  1.8550  2.2193 -0.5822
   13SAPS  C214 1661   4.748   2.504   3.681 -0.3741  0.0438  0.2659
   13SAPS  H14R 1662   4.739   2.397   3.657  0.0868  0.5514 -2.5329
   13SAPS  C215 1663   4.712   2.545   3.806 -0.1642  0.0694 -0.8259
   13SAPS  H15R 1664   4.664   2.471   3.873  0.2794 -0.6270 -1.2638
   13SAPS  C216 1665   4.738   2.681   3.865  0.6083  0.2825 -0.6781
   13SAPS  H16R 1666   4.755   2.762   3.791 -0.4789  2.3358  1.1724
   13SAPS  H16S 1667   4.832   2.681   3.925 -0.3765  4.2612  1.2057
   13SAPS  C217 1668   4.632   2.745   3.957  0.0216  0.3155 -0.4708
   13SAPS  H17R 1669   4.580   2.667   4.017  2.6347 -1.4920 -0.4279
   13SAPS  H17S 1670   4.562   2.804   3.894 -1.2772  2.4405  2.6894
   13SAPS  C218 1671   4.693   2.833   4.061 -1.0099 -0.9641  0.1019
   13SAPS  H18R 1672   4.758   2.911   4.016 -0.0242 -1.6681  0.2790
   13SAPS  H18S 1673   4.756   2.773   4.130  1.3163  1.3318  0.1190
   13SAPS  C219 1674   4.578   2.907   4.133 -0.2042 -0.0662 -0.0118
   13SAPS  H19R 1675   4.505   2.832   4.169 -0.0650 -0.3028 -0.2174
   13SAPS  H19S 1676   4.532   2.973   4.056 -0.6900  0.4282  0.6837
   13SAPS  C220 1677   4.610   2.991   4.257 -0.1217 -0.4389 -0.2039
   13SAPS  H20R 1678   4.696   3.060   4.245 -2.1179  2.5981  1.5518
   13SAPS  H20S 1679   4.640   2.920   4.337 -1.3057 -1.8371 -0.9563
   13SAPS  H20T 1680   4.522   3.044   4.300  0.5261 -0.3759  1.0874
   13SAPS   C33 1681   5.491   2.275   2.626 -0.2225 -0.1258  0.4155
   13SAPS   H3X 1682   5.473   2.348   2.708  0.1464  1.2886 -0.7207
   13SAPS   H3Y 1683   5.582   2.288   2.565 -3.2129  0.4093 -4.4743
   13SAPS   C34 1684   5.486   2.133   2.682  0.5442  0.0426 -0.8726
   13SAPS   H4X 1685   5.577   2.102   2.737 -1.1697 -0.9430  1.6013
   13SAPS   H4Y 1686   5.482   2.057   2.600 -0.4197  0.0183 -0.8151
   13SAPS   C35 1687   5.365   2.102   2.766 -0.4643 -0.3459 -0.6543
   13SAPS   H5X 1688   5.267   2.093   2.713 -1.4645  0.7011  0.9380
   13SAPS   H5Y 1689   5.359   2.182   2.842 -0.3216 -1.5102  0.6248
   13SAPS   C36 1690   5.395   1.967   2.832  0.5557 -0.0463  0.8098
   13SAPS   H6X 1691   5.496   1.972   2.877  0.6233  0.4525  0.6098
   13SAPS   H6Y 1692   5.391   1.888   2.754  0.9058  1.0148 -0.3107
   13SAPS   C37 1693   5.294   1.933   2.942  0.6060  0.4813 -0.5104
   13SAPS   H7X 1694   5.325   1.833   2.980  2.3188  1.6890  1.5026
   13SAPS   H7Y 1695   5.189   1.914   2.910 -0.0342  2.0752  0.5260
   13SAPS   C38 1696   5.286   2.047   3.049 -0.2741  0.0944 -0.2642
   13SAPS   H8X 1697   5.227   2.133   3.012 -1.7104 -0.4852  0.5573
   13SAPS   H8Y 1698   5.386   2.081   3.082  0.4677 -2.8335  0.8680
   13SAPS   C39 1699   5.210   1.994   3.174 -0.1363  0.6854 -0.2585
   13SAPS   H9X 1700   5.241   1.894   3.212  0.2664  0.5506 -0.9151
   13SAPS   H9Y 1701   5.108   1.983   3.133 -0.3756 -0.8918  0.6741
   13SAPS  C310 1702   5.205   2.089   3.297 -0.2781 -0.0201  0.2191
   13SAPS  H10X 1703   5.138   2.175   3.279 -1.0359 -0.2050  1.9540
   13SAPS  H10Y 1704   5.304   2.126   3.331 -0.3314  0.5097 -0.2041
   13SAPS  C311 1705   5.146   2.015   3.421  0.0992  0.1569  0.3950
   13SAPS  H11X 1706   5.205   1.926   3.452  1.1515 -0.0394 -1.9675
   13SAPS  H11Y 1707   5.044   1.979   3.396 -1.1822  2.7437  1.5134
   13SAPS  C312 1708   5.118   2.117   3.536 -0.2580  0.0290 -0.3148
   13SAPS  H12X 1709   5.030   2.175   3.500 -1.2822 -0.9856  0.4601
   13SAPS  H12Y 1710   5.202   2.188   3.528  1.0426 -1.4250  0.0112
   13SAPS  C313 1711   5.069   2.055   3.668  0.9030  0.1334 -0.1657
   13SAPS  H13X 1712   4.997   1.972   3.656 -0.0957  0.8101  0.9064
   13SAPS  H13Y 1713   5.029   2.142   3.725 -1.3938  1.0855 -2.9769
   13SAPS  C314 1714   5.189   1.985   3.738 -0.2989  0.3213 -0.1783
   13SAPS  H14X 1715   5.266   1.966   3.660 -0.6088  1.8894 -0.9010
   13SAPS  H14Y 1716   5.159   1.888   3.783 -1.7608  0.2995 -1.1219
   13SAPS  C315 1717   5.259   2.086   3.844 -1.1408  0.5133  0.2278
   13SAPS  H15X 1718   5.197   2.106   3.934 -0.7159 -1.8611  1.1293
   13SAPS  H15Y 1719   5.265   2.184   3.792  0.9023 -0.0405 -0.6561
   13SAPS  C316 1720   5.410   2.056   3.880 -0.6787  0.0294  0.3983
   13SAPS  H16X 1721   5.436   1.958   3.835 -1.0607 -1.3660  2.9945
   13SAPS  H16Y 1722   5.415   2.042   3.990 -1.4880 -0.4109  0.3847
   13SAPS  C317 1723   5.515   2.158   3.827 -0.1188 -0.1093  0.1576
   13SAPS  H17X 1724   5.599   2.167   3.899 -1.2403  0.6215  1.4077
   13SAPS  H17Y 1725   5.469   2.257   3.811 -0.1721 -0.3540 -1.3039
   13SAPS  C318 1726   5.570   2.136   3.682 -0.0308 -0.2242  0.0502
   13SAPS  H18X 1727   5.485   2.137   3.611 -1.0314  0.2209  1.2293
   13SAPS  H18Y 1728   5.630   2.043   3.669  1.9723  0.8098  1.4624
   13SAPS  H18Z 1729   5.649   2.211   3.660  0.7526 -1.3066 -1.0208
   14SAPS     N 1730   5.995   1.727   1.702 -0.2192  0.0588  0.7559
   14SAPS   HN1 1731   6.015   1.629   1.730 -1.1797 -0.4003 -0.1087
   14SAPS   HN2 1732   6.078   1.754   1.645  1.0514 -0.9541  2.0420
   14SAPS   HN3 1733   6.006   1.779   1.791 -0.9054 -0.1444  0.9677
   14SAPS   C12 1734   5.863   1.748   1.619 -0.6077  0.2536 -0.6794
   14SAPS  H12A 1735   5.866   1.845   1.571  0.1388  0.0485 -1.0534
   14SAPS   C13 1736   5.848   1.651   1.497 -0.6326  0.1822 -0.1675
   14SAPS  O13A 1737   5.919   1.545   1.488 -0.8285  0.2715 -0.1429
   14SAPS  O13B 1738   5.748   1.670   1.429  0.0732  0.5221  0.2262
   14SAPS   C11 1739   5.743   1.755   1.716  0.0051  0.4152 -0.2656
   14SAPS  H11A 1740   5.724   1.656   1.765 -0.8334  1.2416  1.1582
   14SAPS  H11B 1741   5.654   1.779   1.654  0.1655 -0.1601 -0.7294
   14SAPS     P 1742   5.731   1.855   1.970 -0.0748  0.0731 -0.2466
   14SAPS   O13 1743   5.862   1.829   2.031  0.6576  0.1383  0.0858
   14SAPS   O14 1744   5.644   1.970   2.009 -0.0555  0.0195  0.3082
   14SAPS   O12 1745   5.749   1.859   1.818 -0.0652  0.0737  0.4008
   14SAPS   O11 1746   5.640   1.731   1.998  0.0972 -0.3408  0.3432
   14SAPS    C1 1747   5.669   1.624   2.089 -0.5220 -0.4341  0.9569
   14SAPS    HA 1748   5.611   1.538   2.052  0.2227 -1.2604  1.6622
   14SAPS    HB 1749   5.775   1.594   2.073 -1.1082 -1.4488 -1.3940
   14SAPS    C2 1750   5.634   1.643   2.242 -0.2531  0.1593  0.7433
   14SAPS    HS 1751   5.524   1.661   2.235 -0.2274  1.6940  3.0458
   14SAPS   O21 1752   5.695   1.762   2.290  0.3916 -0.2840 -0.5110
   14SAPS   C21 1753   5.631   1.850   2.363 -0.1332  0.5406 -0.2586
   14SAPS   O22 1754   5.516   1.848   2.404  0.7772 -0.3097 -0.1466
   14SAPS   C22 1755   5.733   1.953   2.405 -0.5754 -0.2384 -0.3319
   14SAPS   H2R 1756   5.806   1.974   2.324 -0.2681 -1.2901 -0.3356
   14SAPS   H2S 1757   5.688   2.049   2.438 -1.2425 -0.7324  0.2341
   14SAPS    C3 1758   5.666   1.511   2.323 -0.1797  0.2508  0.9623
   14SAPS    HX 1759   5.775   1.494   2.312 -0.2473 -0.6777  1.5687
   14SAPS    HY 1760   5.618   1.431   2.262 -0.3121  1.0278  0.0196
   14SAPS   O31 1761   5.602   1.490   2.447  0.5397  0.0063  0.1680
   14SAPS   C31 1762   5.676   1.540   2.546  0.1141  0.1464  0.5032
   14SAPS   O32 1763   5.796   1.572   2.532 -0.4030  0.0468 -0.4485
   14SAPS   C32 1764   5.593   1.547   2.678  0.6445 -0.5886 -0.8471
   14SAPS   H2X 1765   5.558   1.442   2.688  4.4350 -2.0113 -0.9956
   14SAPS   H2Y 1766   5.517   1.628   2.666  0.6764 -0.1648  1.3128
   14SAPS   C23 1767   5.806   1.906   2.530  1.0093  0.0861  0.1438
   14SAPS   H3R 1768   5.855   1.807   2.518  0.2292 -0.3769  0.6961
   14SAPS   H3S 1769   5.725   1.894   2.605  1.0396  2.0204  0.5261
   14SAPS   C24 1770   5.912   2.011   2.580  0.1126 -0.1420  0.7463
   14SAPS   H4R 1771   5.970   2.039   2.490 -1.4319  3.2728  0.6691
   14SAPS   H4S 1772   5.988   1.954   2.639  1.4477 -1.4778 -2.0676
   14SAPS   C25 1773   5.862   2.141   2.642 -0.4525  0.3254  0.3642
   14SAPS   H5R 1774   5.850   2.228   2.576 -0.7045 -0.2385 -0.3462
   14SAPS   C26 1775   5.875   2.160   2.782  0.1665  0.1371  0.7664
   14SAPS   H6R 1776   5.840   2.256   2.823 -2.2038  0.1358 -1.0333
   14SAPS   C27 1777   5.926   2.063   2.886 -0.4640  1.0874  0.0007
   14SAPS   H7R 1778   5.984   2.117   2.964 -0.6884  1.7777 -0.2979
   14SAPS   H7S 1779   5.991   1.988   2.837 -2.9379 -0.2705 -1.3806
   14SAPS   C28 1780   5.808   1.998   2.948 -0.0587  0.0654  0.2206
   14SAPS   H8R 1781   5.763   1.919   2.886  2.2362 -1.2550  0.0931
   14SAPS   C29 1782   5.751   2.035   3.066 -0.3923 -0.4463 -1.0434
   14SAPS   H9R 1783   5.675   1.963   3.099 -0.7543 -0.5828 -2.1579
   14SAPS  C210 1784   5.774   2.141   3.176 -1.1498  0.6677 -0.2394
   14SAPS  H10R 1785   5.802   2.234   3.122  1.6827  0.4784  0.7092
   14SAPS  H10S 1786   5.864   2.112   3.234 -0.6668  1.0352 -0.7946
   14SAPS  C211 1787   5.656   2.166   3.264  0.9745 -1.0007 -0.3273
   14SAPS  H11R 1788   5.563   2.120   3.225 -0.4138  1.5638 -0.3038
   14SAPS  C212 1789   5.640   2.247   3.366  0.3225 -0.1566  0.4126
   14SAPS  H12R 1790   5.540   2.249   3.412 -0.3169  1.1855 -0.9374
   14SAPS  C213 1791   5.751   2.331   3.426  0.1263  0.1441 -0.2288
   14SAPS  H13R 1792   5.851   2.308   3.385  0.3710  2.0702 -0.8423
   14SAPS  H13S 1793   5.760   2.312   3.535 -0.9523  2.6337  0.3763
   14SAPS  C214 1794   5.722   2.478   3.405  0.3591 -0.6334 -0.5377
   14SAPS  H14R 1795   5.765   2.518   3.312 -0.7459  1.1441 -0.3185
   14SAPS  C215 1796   5.687   2.568   3.495  0.2774 -0.9834  0.4717
   14SAPS  H15R 1797   5.686   2.670   3.454  0.8201 -1.4307 -0.6812
   14SAPS  C216 1798   5.653   2.547   3.640 -0.7610  0.1965 -0.4822
   14SAPS  H16R 1799   5.713   2.460   3.676 -0.4199  0.6972  0.1895
   14SAPS  H16S 1800   5.549   2.509   3.645 -0.5593 -0.4483 -1.1093
   14SAPS  C217 1801   5.662   2.669   3.730  0.1417 -0.1573  0.0709
   14SAPS  H17R 1802   5.591   2.732   3.672  0.7816 -1.8042 -2.6431
   14SAPS  H17S 1803   5.759   2.723   3.737 -0.6187  1.1823  0.6617
   14SAPS  C218 1804   5.609   2.636   3.875 -0.0773 -0.1036  0.3417
   14SAPS  H18R 1805   5.502   2.608   3.874 -0.8073  2.2469  2.3663
   14SAPS  H18S 1806   5.599   2.723   3.944  0.0724  0.5093 -0.3958
   14SAPS  C219 1807   5.667   2.513   3.947 -0.3425  0.9002 -0.6408
   14SAPS  H19R 1808   5.765   2.542   3.992 -0.3241 -1.1388  0.7868
   14SAPS  H19S 1809   5.686   2.441   3.865  1.6127  0.2306  0.3181
   14SAPS  C220 1810   5.572   2.438   4.043  0.9066 -0.0218 -0.4165
   14SAPS  H20R 1811   5.534   2.519   4.109  0.3040  3.7027 -4.7977
   14SAPS  H20S 1812   5.620   2.354   4.097  0.6692 -1.2109 -1.9594
   14SAPS  H20T 1813   5.484   2.405   3.984  0.4532  0.5920 -0.0835
   14SAPS   C33 1814   5.674   1.582   2.798 -0.5669  0.8888 -0.3934
   14SAPS   H3X 1815   5.730   1.679   2.795  1.4696 -0.2443 -0.8668
   14SAPS   H3Y 1816   5.751   1.502   2.802 -0.1222  1.3316  0.1955
   14SAPS   C34 1817   5.591   1.569   2.925  0.5967  0.1858 -0.0301
   14SAPS   H4X 1818   5.541   1.470   2.931 -1.4478  0.9397 -2.5534
   14SAPS   H4Y 1819   5.516   1.649   2.938 -0.8893 -1.1041 -0.2507
   14SAPS   C35 1820   5.675   1.571   3.053  0.1975  0.6187  0.2565
   14SAPS   H5X 1821   5.726   1.668   3.067 -0.5232  0.7591  2.2900
   14SAPS   H5Y 1822   5.736   1.478   3.048 -3.0929 -1.6371 -2.2023
   14SAPS   C36 1823   5.598   1.557   3.184 -0.1814 -0.2052  0.2103
   14SAPS   H6X 1824   5.669   1.588   3.264 -0.3549  1.8436 -0.3876
   14SAPS   H6Y 1825   5.569   1.450   3.195  2.3476 -1.0043 -0.1313
   14SAPS   C37 1826   5.477   1.643   3.217  0.2510 -0.2482  0.5322
   14SAPS   H7X 1827   5.385   1.613   3.162  0.4673 -0.2071  0.1466
   14SAPS   H7Y 1828   5.497   1.745   3.178  2.5724 -0.6139  0.6600
   14SAPS   C38 1829   5.433   1.653   3.359 -0.8298  0.3671  0.0728
   14SAPS   H8X 1830   5.434   1.551   3.404 -0.1294  0.3514  0.0411
   14SAPS   H8Y 1831   5.336   1.706   3.366 -0.8980  0.3786 -0.8085
   14SAPS   C39 1832   5.533   1.727   3.442  0.9411  0.3305  0.0273
   14SAPS   H9X 1833   5.535   1.827   3.392 -0.1111  0.0845 -0.5436
   14SAPS   H9Y 1834   5.634   1.680   3.438  1.0694  0.3012  2.3939
   14SAPS  C310 1835   5.486   1.746   3.589 -0.9161 -0.1524 -0.2175
   14SAPS  H10X 1836   5.385   1.791   3.592 -0.3181  1.2301  0.2941
   14SAPS  H10Y 1837   5.557   1.813   3.642 -0.9140  0.0144 -0.4302
   14SAPS  C311 1838   5.480   1.617   3.679  0.0435  0.0034 -0.2283
   14SAPS  H11X 1839   5.575   1.559   3.676  0.6386  1.0023 -0.9266
   14SAPS  H11Y 1840   5.404   1.548   3.636 -1.6738  1.4555  0.3578
   14SAPS  C312 1841   5.457   1.642   3.825 -0.1221  0.4226  0.2193
   14SAPS  H12X 1842   5.362   1.697   3.812 -0.4174  0.1074  0.9986
   14SAPS  H12Y 1843   5.536   1.708   3.867  0.5180 -0.0728 -0.1825
   14SAPS  C313 1844   5.443   1.519   3.914 -0.0334 -0.7176  0.6210
   14SAPS  H13X 1845   5.534   1.457   3.897 -1.3855 -2.7756  0.5200
   14SAPS  H13Y 1846   5.355   1.473   3.864  0.3835 -0.9471  0.0789
   14SAPS  C314 1847   5.409   1.534   4.062 -0.6269 -0.4683 -0.0278
   14SAPS  H14X 1848   5.384   1.437   4.110 -3.1101  0.0904 -0.0583
   14SAPS  H14Y 1849   5.315   1.591   4.074  0.5619  1.8125 -1.0645
   14SAPS  C315 1850   5.526   1.590   4.149 -0.3331 -0.0728 -0.1204
   14SAPS  H15X 1851   5.564   1.692   4.124  3.2847 -1.2506 -0.0698
   14SAPS  H15Y 1852   5.613   1.523   4.131 -0.7012 -0.1687 -1.7441
   14SAPS  C316 1853   5.497   1.578   4.298  0.2197 -0.0753 -1.1976
   14SAPS  H16X 1854   5.483   1.473   4.330 -0.2180  0.1354 -0.6816
   14SAPS  H16Y 1855   5.406   1.638   4.323  2.1031  2.4793 -0.0982
   14SAPS  C317 1856   5.609   1.636   4.387 -0.0340 -0.2019  0.1361
   14SAPS  H17X 1857   5.602   1.747   4.378  1.5071 -0.0837  0.2039
   14SAPS  H17Y 1858   5.706   1.612   4.340 -0.2590  1.8914 -1.5863
   14SAPS  C318 1859   5.585   1.593   4.524  0.2355  0.0755 -0.2255
   14SAPS  H18X 1860   5.587   1.483   4.540 -2.4622 -0.0269 -0.1022
   14SAPS  H18Y 1861   5.493   1.633   4.572  0.6931 -1.6622  2.3308
   14SAPS  H18Z 1862   5.670   1.626   4.588  1.4016 -0.9413 -1.1874
   15SAPS     N 1863   5.837   3.546   2.161 -0.4614 -0.4799  0.1259
   15SAPS   HN1 1864   5.940   3.536   2.162  0.0493  3.1972 -0.4696
   15SAPS   HN2 1865   5.802   3.481   2.234  1.0690  0.6291  1.9575
   15SAPS   HN3 1866   5.805   3.520   2.066  1.0836 -1.2678 -0.2092
   15SAPS   C12 1867   5.804   3.689   2.196 -0.7598  0.4160  0.3232
   15SAPS  H12A 1868   5.857   3.748   2.123 -0.4556 -0.4106 -0.1358
   15SAPS   C13 1869   5.654   3.719   2.176  0.0712 -0.9210  0.0519
   15SAPS  O13A 1870   5.566   3.625   2.151 -0.3780  0.1800 -0.7569
   15SAPS  O13B 1871   5.619   3.841   2.173 -0.4219 -0.5449  0.1794
   15SAPS   C11 1872   5.866   3.727   2.333 -0.1032  0.0722 -1.4200
   15SAPS  H11A 1873   5.816   3.680   2.421  2.2879 -0.8845 -0.5014
   15SAPS  H11B 1874   5.852   3.835   2.353  2.8106  0.6076 -1.9065
   15SAPS     P 1875   6.099   3.735   2.451  0.0508  0.6039  0.0540
   15SAPS   O13 1876   6.216   3.646   2.432  0.3249 -0.0582 -0.4586
   15SAPS   O14 1877   6.125   3.882   2.457  0.0423  0.0194 -0.2181
   15SAPS   O12 1878   5.997   3.683   2.340 -0.5740  0.1516  0.9647
   15SAPS   O11 1879   6.017   3.694   2.582 -0.1641 -0.5468  0.4701
   15SAPS    C1 1880   5.978   3.573   2.634  0.1671  0.0938 -0.2713
   15SAPS    HA 1881   5.932   3.505   2.560  2.1125 -1.3477 -0.2252
   15SAPS    HB 1882   6.065   3.509   2.659 -0.2090 -0.9820 -1.5787
   15SAPS    C2 1883   5.886   3.590   2.762  0.5920  1.0539  0.8885
   15SAPS    HS 1884   5.789   3.624   2.720  0.7289 -0.7961 -1.1027
   15SAPS   O21 1885   5.927   3.691   2.850 -0.2143  0.4101 -0.1667
   15SAPS   C21 1886   6.028   3.665   2.933 -0.3648 -0.3793 -0.3769
   15SAPS   O22 1887   6.093   3.562   2.935 -0.4280 -0.5344 -0.2509
   15SAPS   C22 1888   6.060   3.788   3.020 -0.0040  0.1941  0.3083
   15SAPS   H2R 1889   6.074   3.871   2.948 -1.2017 -1.0976 -1.5098
   15SAPS   H2S 1890   5.968   3.813   3.077 -0.9522  0.1954 -1.1668
   15SAPS    C3 1891   5.851   3.451   2.825 -0.0636  0.8220 -0.7935
   15SAPS    HX 1892   5.940   3.395   2.861 -0.2348  2.1019  1.8756
   15SAPS    HY 1893   5.807   3.385   2.747 -0.5927  0.5834 -0.2959
   15SAPS   O31 1894   5.764   3.478   2.939 -0.2577 -0.4912 -0.2040
   15SAPS   C31 1895   5.638   3.428   2.932 -0.9707  0.0442  0.0009
   15SAPS   O32 1896   5.585   3.400   2.826  0.4407  0.8808  0.0841
   15SAPS   C32 1897   5.577   3.413   3.071 -0.8292 -0.0902 -0.0784
   15SAPS   H2X 1898   5.549   3.306   3.076 -2.8827  0.4312  0.4727
   15SAPS   H2Y 1899   5.490   3.482   3.067 -1.2986 -0.4763  2.0586
   15SAPS   C23 1900   6.180   3.765   3.118 -0.7813 -0.1947 -0.2080
   15SAPS   H3R 1901   6.267   3.738   3.054 -0.3672 -0.8676  0.6252
   15SAPS   H3S 1902   6.167   3.679   3.187  2.3659 -0.7012 -0.1300
   15SAPS   C24 1903   6.219   3.896   3.190  0.5495  0.6355  0.0972
   15SAPS   H4R 1904   6.244   3.969   3.110  1.3023 -1.1150 -1.3362
   15SAPS   H4S 1905   6.304   3.889   3.262  0.2540  0.8666  0.4684
   15SAPS   C25 1906   6.091   3.936   3.266 -0.0678 -0.0042 -0.1300
   15SAPS   H5R 1907   6.029   3.996   3.197  1.6090  2.4891  0.3736
   15SAPS   C26 1908   6.053   3.916   3.389 -0.2896 -0.9315 -0.2062
   15SAPS   H6R 1909   5.958   3.955   3.429 -0.3430 -0.7426 -0.5135
   15SAPS   C27 1910   6.142   3.845   3.492  0.5568 -0.5097  0.4794
   15SAPS   H7R 1911   6.148   3.907   3.584 -1.1249  1.0210 -0.3747
   15SAPS   H7S 1912   6.251   3.846   3.469  0.5067 -1.8616  0.0990
   15SAPS   C28 1913   6.100   3.703   3.503 -0.0381 -0.1043 -0.6411
   15SAPS   H8R 1914   6.132   3.637   3.421 -0.2528 -1.7597  0.5503
   15SAPS   C29 1915   6.034   3.646   3.608  0.0657 -0.1906  0.2346
   15SAPS   H9R 1916   6.017   3.537   3.609  0.9381 -0.3602 -1.0162
   15SAPS  C210 1917   5.965   3.723   3.725  0.1203  0.6750 -0.4965
   15SAPS  H10R 1918   5.880   3.657   3.751 -0.8082  0.3820 -3.8451
   15SAPS  H10S 1919   5.912   3.814   3.688  2.4095  1.7992 -1.1806
   15SAPS  C211 1920   6.058   3.757   3.838 -0.2031  0.1265 -0.3124
   15SAPS  H11R 1921   6.090   3.862   3.849 -1.1106  0.2129  2.0648
   15SAPS  C212 1922   6.117   3.672   3.927  0.4429 -1.3696 -0.2841
   15SAPS  H12R 1923   6.197   3.714   3.989  0.6024  1.6150 -2.2912
   15SAPS  C213 1924   6.100   3.520   3.931 -0.1775  0.3865  0.6958
   15SAPS  H13R 1925   6.148   3.475   3.842  0.3086 -2.2343  2.1614
   15SAPS  H13S 1926   5.993   3.490   3.938 -0.8613  2.7395  0.8882
   15SAPS  C214 1927   6.174   3.467   4.052 -0.1079  0.9563 -0.3781
   15SAPS  H14R 1928   6.280   3.449   4.028  0.4082  2.9475  0.2593
   15SAPS  C215 1929   6.129   3.455   4.177 -0.1127  0.0381 -0.2126
   15SAPS  H15R 1930   6.190   3.410   4.257 -0.2559  2.5848  1.4543
   15SAPS  C216 1931   5.990   3.496   4.213  0.1012  0.1901  0.2826
   15SAPS  H16R 1932   5.945   3.559   4.134 -0.6648  1.6047  1.7746
   15SAPS  H16S 1933   5.990   3.572   4.294 -1.5138  2.2592 -1.5404
   15SAPS  C217 1934   5.886   3.383   4.243 -0.2140 -0.3301 -0.0369
   15SAPS  H17R 1935   5.901   3.304   4.319 -1.8371  0.0466  0.7188
   15SAPS  H17S 1936   5.859   3.338   4.145  0.5017  0.4579 -0.6131
   15SAPS  C218 1937   5.755   3.457   4.282  0.0444  0.4645  0.7831
   15SAPS  H18R 1938   5.732   3.528   4.200  0.8117  0.4536  0.5497
   15SAPS  H18S 1939   5.769   3.492   4.386 -1.9765  0.8726  0.9524
   15SAPS  C219 1940   5.637   3.355   4.297 -0.3708 -0.2920  0.3459
   15SAPS  H19R 1941   5.674   3.268   4.356  1.4210 -0.3574 -0.7786
   15SAPS  H19S 1942   5.630   3.321   4.192  1.4884 -2.8544  0.9444
   15SAPS  C220 1943   5.511   3.425   4.336 -0.5789 -0.5609 -0.2453
   15SAPS  H20R 1944   5.492   3.517   4.277 -3.6451 -0.0102  1.3779
   15SAPS  H20S 1945   5.531   3.452   4.442  0.4687 -2.3953  0.0746
   15SAPS  H20T 1946   5.416   3.368   4.340 -1.1999  0.4834  2.9288
   15SAPS   C33 1947   5.663   3.461   3.196  0.3568  0.5986  0.1848
   15SAPS   H3X 1948   5.767   3.424   3.184  0.1486 -0.5478  1.7329
   15SAPS   H3Y 1949   5.618   3.415   3.286 -2.8055  1.0344 -1.0614
   15SAPS   C34 1950   5.653   3.615   3.207 -0.1817 -0.1289  0.1124
   15SAPS   H4X 1951   5.543   3.632   3.215 -0.1061  0.6172 -0.3973
   15SAPS   H4Y 1952   5.698   3.667   3.120  0.1317  1.6660  1.3089
   15SAPS   C35 1953   5.720   3.671   3.328  0.8167  0.2889  0.1689
   15SAPS   H5X 1954   5.708   3.781   3.341 -1.4760  0.1617 -0.3973
   15SAPS   H5Y 1955   5.827   3.641   3.322  1.0673  0.9004  1.4125
   15SAPS   C36 1956   5.668   3.615   3.465  0.4919 -0.1792  0.0786
   15SAPS   H6X 1957   5.718   3.663   3.552 -1.4609 -1.5804  2.0873
   15SAPS   H6Y 1958   5.688   3.506   3.468 -3.1618 -0.9449  1.1996
   15SAPS   C37 1959   5.522   3.641   3.491  0.0511 -0.8788 -0.0480
   15SAPS   H7X 1960   5.463   3.608   3.403 -0.5936 -0.6449  0.2872
   15SAPS   H7Y 1961   5.503   3.749   3.509  1.0900 -0.8721  1.1538
   15SAPS   C38 1962   5.456   3.570   3.621 -0.0100  0.6882 -0.2333
   15SAPS   H8X 1963   5.457   3.463   3.590  1.6912  0.4673  0.4463
   15SAPS   H8Y 1964   5.357   3.619   3.629 -0.5419 -0.0363 -1.8669
   15SAPS   C39 1965   5.536   3.596   3.753  0.1739  0.2630 -0.4467
   15SAPS   H9X 1966   5.646   3.577   3.752 -0.1160 -1.8248  0.5823
   15SAPS   H9Y 1967   5.495   3.528   3.831  1.1970  0.6694  0.4678
   15SAPS  C310 1968   5.508   3.744   3.798 -0.3433  0.1512  0.4039
   15SAPS  H10X 1969   5.404   3.773   3.771 -0.0655  1.4811  0.6736
   15SAPS  H10Y 1970   5.577   3.804   3.735  1.3887 -1.5805  0.5554
   15SAPS  C311 1971   5.540   3.771   3.948 -0.1387  0.0453 -0.0457
   15SAPS  H11X 1972   5.461   3.732   4.015 -0.3461 -0.7236 -0.7225
   15SAPS  H11Y 1973   5.539   3.881   3.962  0.4747  0.1695 -0.8823
   15SAPS  C312 1974   5.672   3.725   3.989 -0.5364 -0.1261 -0.2831
   15SAPS  H12X 1975   5.746   3.735   3.906  1.7503 -2.2076  1.3423
   15SAPS  H12Y 1976   5.668   3.619   4.022 -0.9818 -0.4711 -1.3820
   15SAPS  C313 1977   5.729   3.812   4.105  0.5430  0.1943 -0.1697
   15SAPS  H13X 1978   5.726   3.919   4.074  0.9282  0.4790  0.7484
   15SAPS  H13Y 1979   5.835   3.784   4.122  0.2412 -1.0943 -0.2606
   15SAPS  C314 1980   5.651   3.811   4.236 -0.4824  0.0275  0.7965
   15SAPS  H14X 1981   5.645   3.703   4.265  0.9993 -0.6433 -1.1949
   15SAPS  H14Y 1982   5.549   3.854   4.227  0.3260  1.8491 -0.0613
   15SAPS  C315 1983   5.726   3.876   4.358  1.1616 -0.1722  0.0256
   15SAPS  H15X 1984   5.738   3.986   4.358  0.9759 -0.1493 -0.2996
   15SAPS  H15Y 1985   5.833   3.846   4.353  0.9785 -0.6727 -2.7183
   15SAPS  C316 1986   5.659   3.834   4.487  0.3566 -1.1797 -0.7437
   15SAPS  H16X 1987   5.647   3.725   4.500 -1.8365 -1.0847 -1.3975
   15SAPS  H16Y 1988   5.553   3.869   4.489  0.0462 -2.1122  0.6792
   15SAPS  C317 1989   5.731   3.899   4.613  0.0314 -0.3248 -0.5152
   15SAPS  H17X 1990   5.664   3.885   4.700 -0.5444  0.8212 -0.7430
   15SAPS  H17Y 1991   5.745   4.009   4.601  3.0841 -0.7048 -1.2136
   15SAPS  C318 1992   5.869   3.837   4.632  0.5269  0.4864 -0.4944
   15SAPS  H18X 1993   5.860   3.726   4.638 -0.6894  0.6311  0.8310
   15SAPS  H18Y 1994   5.912   3.878   4.725  0.1244 -2.2426  0.9980
   15SAPS  H18Z 1995   5.931   3.871   4.546 -0.4671  2.7720 -0.3579
   16SAPS     N 1996   1.387   2.964   2.713  0.0440  0.1850  0.2255
   16SAPS   HN1 1997   1.404   2.862   2.723  1.5937  0.5095  1.2058
   16SAPS   HN2 1998   1.477   3.011   2.735 -0.4776  1.3801 -0.1123
   16SAPS   HN3 1999   1.317   2.991   2.784  1.0342 -1.8085  2.0633
   16SAPS   C12 2000   1.346   2.994   2.572  0.6687 -0.6609  0.5761
   16SAPS  H12A 2001   1.321   3.099   2.568 -0.8183 -0.9987  0.6284
   16SAPS   C13 2002   1.444   2.971   2.459 -0.6189  0.1325  0.0620
   16SAPS  O13A 2003   1.564   2.971   2.494 -0.5825  0.2739 -0.7169
   16SAPS  O13B 2004   1.412   3.015   2.346  0.0633 -0.0329 -0.0378
   16SAPS   C11 2005   1.212   2.925   2.538  0.4608 -0.1357  0.4751
   16SAPS  H11A 2006   1.211   2.815   2.526  0.5444 -0.1178  0.3033
   16SAPS  H11B 2007   1.182   2.977   2.445  1.0019  0.7830  0.7897
   16SAPS     P 2008   0.964   2.907   2.614  0.0584 -0.0228 -0.4261
   16SAPS   O13 2009   0.923   2.961   2.487 -0.1170  0.3830  1.2059
   16SAPS   O14 2010   0.957   2.762   2.628 -0.0048  0.1777  0.1780
   16SAPS   O12 2011   1.118   2.949   2.638  0.0518  0.6082  0.2179
   16SAPS   O11 2012   0.888   2.981   2.735  0.5682  0.0967  0.6045
   16SAPS    C1 2013   0.941   2.958   2.867  0.7398  0.2331  0.3524
   16SAPS    HA 2014   0.859   2.910   2.924 -1.6606  0.8971 -2.2978
   16SAPS    HB 2015   1.030   2.893   2.875  1.4581  0.8951 -1.4937
   16SAPS    C2 2016   0.963   3.099   2.933  0.4023 -0.6326 -0.2592
   16SAPS    HS 2017   1.014   3.153   2.850 -2.2745 -0.0898 -1.6612
   16SAPS   O21 2018   1.047   3.093   3.053  0.5468 -1.1800  0.4598
   16SAPS   C21 2019   1.176   3.091   3.019  0.6923  0.0957  0.3419
   16SAPS   O22 2020   1.221   3.082   2.906  0.2072 -0.1366  0.4644
   16SAPS   C22 2021   1.258   3.103   3.148  0.0533 -0.5262 -0.0661
   16SAPS   H2R 2022   1.290   3.207   3.167  0.6099 -0.4237 -1.4176
   16SAPS   H2S 2023   1.197   3.065   3.232 -1.0132  1.6756  0.1974
   16SAPS    C3 2024   0.818   3.158   2.977  0.2632  0.1309  0.2512
   16SAPS    HX 2025   0.756   3.159   2.885  2.5537 -1.2681 -1.4437
   16SAPS    HY 2026   0.835   3.263   3.010  1.6600  0.5701 -1.6460
   16SAPS   O31 2027   0.766   3.072   3.085 -0.2086 -0.0858 -0.0312
   16SAPS   C31 2028   0.661   3.120   3.140  0.1569 -0.1848  0.4149
   16SAPS   O32 2029   0.597   3.220   3.105 -0.7549 -0.2050  0.0284
   16SAPS   C32 2030   0.601   3.023   3.239  0.5237 -0.2390  0.2379
   16SAPS   H2X 2031   0.618   2.917   3.212  3.0824 -0.4070  2.0555
   16SAPS   H2Y 2032   0.492   3.037   3.225  0.6957  0.6223 -0.2559
   16SAPS   C23 2033   1.379   3.013   3.139 -0.5004 -0.1581 -1.2622
   16SAPS   H3R 2034   1.457   3.065   3.198 -1.5526  1.3301 -1.1322
   16SAPS   H3S 2035   1.424   3.003   3.039  1.5159  0.4550 -0.4559
   16SAPS   C24 2036   1.376   2.874   3.195 -0.5249 -0.0321 -0.1585
   16SAPS   H4R 2037   1.382   2.879   3.306 -1.0347 -1.3210 -0.0525
   16SAPS   H4S 2038   1.465   2.818   3.159 -2.5391 -1.7902 -2.7012
   16SAPS   C25 2039   1.252   2.799   3.163 -0.2805 -0.0824 -0.1382
   16SAPS   H5R 2040   1.248   2.781   3.054  0.6175 -1.5836  0.0499
   16SAPS   C26 2041   1.156   2.759   3.249  0.7370 -0.0769 -0.1891
   16SAPS   H6R 2042   1.063   2.712   3.212 -0.3986  0.4124  1.8696
   16SAPS   C27 2043   1.154   2.787   3.398  0.0862  0.0735  0.5171
   16SAPS   H7R 2044   1.200   2.887   3.417 -1.3401  1.2264 -1.7666
   16SAPS   H7S 2045   1.229   2.721   3.447 -0.8971  0.9674  3.4385
   16SAPS   C28 2046   1.024   2.769   3.454  0.0709 -0.5193  0.2888
   16SAPS   H8R 2047   0.947   2.710   3.403 -0.1729 -0.1471  0.2190
   16SAPS   C29 2048   0.993   2.814   3.572 -0.5491 -0.8411 -0.3182
   16SAPS   H9R 2049   0.895   2.787   3.614 -2.0074  1.3279 -2.1139
   16SAPS  C210 2050   1.073   2.896   3.676 -0.6393  0.4887  0.2121
   16SAPS  H10R 2051   1.034   3.000   3.672 -1.7903  0.0407 -0.6023
   16SAPS  H10S 2052   1.177   2.881   3.640 -1.4618 -1.3625 -1.5436
   16SAPS  C211 2053   1.071   2.849   3.821 -0.2433 -0.3272 -0.1423
   16SAPS  H11R 2054   1.016   2.756   3.843 -2.6589  1.4916  2.1040
   16SAPS  C212 2055   1.123   2.920   3.926  0.1128  0.2906  0.0378
   16SAPS  H12R 2056   1.122   2.865   4.021 -0.2208 -2.7636 -1.5926
   16SAPS  C213 2057   1.186   3.058   3.939  1.1414 -0.9378  0.4553
   16SAPS  H13R 2058   1.209   3.091   3.836 -0.9763 -1.5533 -0.2663
   16SAPS  H13S 2059   1.284   3.060   3.990  1.6627 -0.1451 -0.5383
   16SAPS  C214 2060   1.102   3.157   4.011 -0.1788  0.0069 -0.6946
   16SAPS  H14R 2061   1.139   3.181   4.112 -0.0867 -3.5261  0.2481
   16SAPS  C215 2062   0.989   3.217   3.972 -0.2600 -0.9985  0.1993
   16SAPS  H15R 2063   0.938   3.279   4.046  0.4915 -0.8325  0.5925
   16SAPS  C216 2064   0.909   3.211   3.845  0.0944  0.0102  0.3264
   16SAPS  H16R 2065   0.857   3.115   3.825  0.0026  0.1004  0.1405
   16SAPS  H16S 2066   0.983   3.215   3.762 -1.4160 -0.9566 -1.1241
   16SAPS  C217 2067   0.809   3.324   3.819  0.0985 -0.5983 -0.1591
   16SAPS  H17R 2068   0.846   3.421   3.860  1.7351  0.3445 -3.5434
   16SAPS  H17S 2069   0.718   3.294   3.875  1.2798 -2.4432  0.8937
   16SAPS  C218 2070   0.772   3.347   3.673 -0.4221 -0.1161  0.3334
   16SAPS  H18R 2071   0.730   3.250   3.638  0.2000 -0.3909  0.3257
   16SAPS  H18S 2072   0.874   3.359   3.630 -0.6784 -0.1041 -0.2881
   16SAPS  C219 2073   0.682   3.461   3.635 -0.0796  0.4284  0.7020
   16SAPS  H19R 2074   0.738   3.550   3.600  0.5728 -0.2851 -0.1358
   16SAPS  H19S 2075   0.629   3.492   3.727  0.4041  4.2717 -0.1728
   16SAPS  C220 2076   0.567   3.433   3.538  0.1538 -0.1047 -0.0011
   16SAPS  H20R 2077   0.501   3.520   3.519  1.6732  0.6599 -2.2796
   16SAPS  H20S 2078   0.498   3.352   3.572  1.8990 -2.2804 -1.2908
   16SAPS  H20T 2079   0.598   3.387   3.441  0.9925  0.2330  0.0981
   16SAPS   C33 2080   0.652   3.055   3.378  0.3160 -0.1464 -0.5880
   16SAPS   H3X 2081   0.617   3.152   3.420  1.1183 -0.2370  0.3201
   16SAPS   H3Y 2082   0.763   3.054   3.375  0.4116  2.6011 -0.5841
   16SAPS   C34 2083   0.600   2.942   3.473  0.1770  0.8257  0.4761
   16SAPS   H4X 2084   0.636   2.846   3.431  1.9236  0.6571  2.2221
   16SAPS   H4Y 2085   0.489   2.946   3.472  0.1084 -0.6008  0.5207
   16SAPS   C35 2086   0.651   2.959   3.617 -0.3486 -0.0593 -0.0980
   16SAPS   H5X 2087   0.629   3.064   3.647  0.1846  0.9213 -2.7977
   16SAPS   H5Y 2088   0.761   2.961   3.602 -0.1173  0.3708  1.4720
   16SAPS   C36 2089   0.599   2.853   3.717 -0.1699 -0.2617 -1.0341
   16SAPS   H6X 2090   0.604   2.752   3.671  3.2717 -0.8151  0.2999
   16SAPS   H6Y 2091   0.492   2.871   3.742 -0.0037 -0.5880 -0.0629
   16SAPS   C37 2092   0.691   2.855   3.846  0.1808 -0.5422 -0.5861
   16SAPS   H7X 2093   0.709   2.959   3.879 -0.6547 -0.7010  0.4400
   16SAPS   H7Y 2094   0.789   2.812   3.818  0.4902  0.9302 -1.8507
   16SAPS   C38 2095   0.631   2.771   3.963  0.3982 -0.4915 -0.2043
   16SAPS   H8X 2096   0.646   2.661   3.960  1.8382 -0.3699  1.1641
   16SAPS   H8Y 2097   0.521   2.781   3.964  0.3549 -0.8725 -0.8445
   16SAPS   C39 2098   0.699   2.826   4.085  0.3046 -0.0525  0.3581
   16SAPS   H9X 2099   0.660   2.929   4.099 -0.7067 -0.4768  0.6801
   16SAPS   H9Y 2100   0.806   2.836   4.054 -0.1227  0.6395 -0.9886
   16SAPS  C310 2101   0.674   2.742   4.215  0.5656 -0.1104  0.4763
   16SAPS  H10X 2102   0.732   2.648   4.204  0.7271 -0.0883  1.0859
   16SAPS  H10Y 2103   0.568   2.710   4.217  0.8745 -1.3475 -1.1509
   16SAPS  C311 2104   0.700   2.824   4.340 -0.0780 -0.6257 -1.0048
   16SAPS  H11X 2105   0.797   2.873   4.319  0.2020 -0.8352 -0.2383
   16SAPS  H11Y 2106   0.706   2.766   4.434  1.6251  1.7101  0.4306
   16SAPS  C312 2107   0.603   2.939   4.372  1.1466 -0.1737 -0.0898
   16SAPS  H12X 2108   0.519   2.905   4.435 -2.8327  1.3497 -4.0250
   16SAPS  H12Y 2109   0.557   2.982   4.281  0.2042  0.4316  0.6617
   16SAPS  C313 2110   0.672   3.065   4.436 -0.5225  0.4692 -0.0841
   16SAPS  H13X 2111   0.601   3.151   4.439 -0.7479  0.3111 -0.8210
   16SAPS  H13Y 2112   0.760   3.105   4.381 -0.5404  2.0773  0.9582
   16SAPS  C314 2113   0.722   3.029   4.579 -0.1948 -1.3558  0.0592
   16SAPS  H14X 2114   0.818   2.974   4.568  1.4741  1.5100 -0.9748
   16SAPS  H14Y 2115   0.653   2.966   4.638 -0.7359 -1.5393 -0.7540
   16SAPS  C315 2116   0.751   3.153   4.665 -0.1223 -0.3119 -0.1365
   16SAPS  H15X 2117   0.656   3.182   4.713 -0.3936  1.6346 -1.6938
   16SAPS  H15Y 2118   0.777   3.237   4.596 -0.4900 -1.2803 -1.4895
   16SAPS  C316 2119   0.850   3.127   4.779 -0.2480  0.3711 -0.0828
   16SAPS  H16X 2120   0.954   3.113   4.741 -0.2027 -0.4458  0.3296
   16SAPS  H16Y 2121   0.816   3.031   4.822 -0.2861  0.6104  0.4228
   16SAPS  C317 2122   0.874   3.238   4.878 -0.6749  0.5782  0.5737
   16SAPS  H17X 2123   0.774   3.257   4.924 -0.8041 -1.0336  1.0606
   16SAPS  H17Y 2124   0.907   3.331   4.828 -0.3680  0.2913  0.2347
   16SAPS  C318 2125   0.964   3.179   4.987 -0.3652 -0.1679 -0.2895
   16SAPS  H18X 2126   0.954   3.249   5.073 -1.7993  0.9138 -1.2962
   16SAPS  H18Y 2127   1.069   3.197   4.955 -0.8250  1.6554 -0.8900
   16SAPS  H18Z 2128   0.931   3.076   5.012 -1.4222  0.2147 -0.0577
   17SAPS     N 2129   3.501   2.371   2.477  0.6534 -0.0952 -0.0590
   17SAPS   HN1 2130   3.548   2.445   2.534 -0.5297 -1.1472  2.4493
   17SAPS   HN2 2131   3.398   2.381   2.485  0.6356 -0.2057 -0.1492
   17SAPS   HN3 2132   3.532   2.279   2.515  0.6857 -0.7157 -1.5327
   17SAPS   C12 2133   3.538   2.358   2.336  0.2728 -1.1127 -0.6346
   17SAPS  H12A 2134   3.506   2.261   2.301  0.3239 -0.5477 -2.3432
   17SAPS   C13 2135   3.483   2.475   2.245 -0.0095 -0.1127 -0.8081
   17SAPS  O13A 2136   3.424   2.569   2.303 -0.8829 -0.0211  0.1068
   17SAPS  O13B 2137   3.524   2.485   2.129  0.3896 -0.5922 -0.0580
   17SAPS   C11 2138   3.693   2.376   2.320  0.6397 -0.1680  0.0060
   17SAPS  H11A 2139   3.720   2.479   2.354  4.0936 -1.1358  0.5495
   17SAPS  H11B 2140   3.727   2.369   2.214 -2.2415 -2.6464 -0.9060
   17SAPS     P 2141   3.907   2.308   2.429  0.1176 -0.1012  0.0396
   17SAPS   O13 2142   3.984   2.220   2.336  0.4623  0.1841  0.2731
   17SAPS   O14 2143   3.940   2.452   2.439  0.3619 -0.0822  0.2090
   17SAPS   O12 2144   3.758   2.277   2.403  0.1374 -0.0110 -0.2793
   17SAPS   O11 2145   3.932   2.258   2.574  0.7871  0.3259 -0.5104
   17SAPS    C1 2146   3.828   2.251   2.677  0.5153 -0.4473  0.1976
   17SAPS    HA 2147   3.789   2.354   2.692  0.0227 -0.9450  2.8299
   17SAPS    HB 2148   3.744   2.198   2.628 -0.0931  1.1739 -0.6045
   17SAPS    C2 2149   3.864   2.183   2.810 -0.2554 -0.6318  0.0561
   17SAPS    HS 2150   3.764   2.160   2.852 -0.8557  0.0423 -0.9619
   17SAPS   O21 2151   3.941   2.263   2.900  0.1376 -0.1236 -0.0241
   17SAPS   C21 2152   3.871   2.335   2.978  0.2884  0.7270  0.3507
   17SAPS   O22 2153   3.748   2.319   3.000  0.3856  0.1788  0.4655
   17SAPS   C22 2154   3.964   2.430   3.063 -0.3930 -0.3574 -0.6652
   17SAPS   H2R 2155   4.060   2.458   3.016 -0.6424  1.0287 -0.3729
   17SAPS   H2S 2156   3.911   2.526   3.075  1.2464  0.4772  0.2250
   17SAPS    C3 2157   3.938   2.055   2.779  1.1399 -0.9450  0.1737
   17SAPS    HX 2158   4.036   2.075   2.731  1.6221  1.3391  1.9272
   17SAPS    HY 2159   3.878   2.000   2.704 -0.3028  1.8544 -0.8221
   17SAPS   O31 2160   3.945   1.974   2.898  0.4607  0.0198  0.1029
   17SAPS   C31 2161   4.060   1.971   2.962  0.8953  0.3159  0.3847
   17SAPS   O32 2162   4.156   2.044   2.937 -0.2884  0.4046 -0.2385
   17SAPS   C32 2163   4.053   1.861   3.063 -0.8405 -0.8602  0.6683
   17SAPS   H2X 2164   4.109   1.769   3.037  1.3713  0.5849 -0.0093
   17SAPS   H2Y 2165   3.948   1.844   3.094 -1.3669  1.9193  0.6665
   17SAPS   C23 2166   4.009   2.365   3.204  0.3184 -0.4090  0.0676
   17SAPS   H3R 2167   4.072   2.445   3.247  0.0641  0.4652 -1.1215
   17SAPS   H3S 2168   4.068   2.272   3.192  1.3037  0.3556 -1.2934
   17SAPS   C24 2169   3.887   2.333   3.293 -1.2425 -0.0070 -0.6198
   17SAPS   H4R 2170   3.842   2.241   3.251 -1.8813  0.3025 -0.6329
   17SAPS   H4S 2171   3.808   2.410   3.280 -0.6323  1.2220  2.1030
   17SAPS   C25 2172   3.913   2.321   3.447  0.5686 -1.3998  0.1497
   17SAPS   H5R 2173   3.968   2.233   3.484  1.8323 -0.8593 -0.3643
   17SAPS   C26 2174   3.867   2.410   3.533 -0.3503 -0.4436  0.3283
   17SAPS   H6R 2175   3.896   2.404   3.639  1.6369  5.0758  0.4326
   17SAPS   C27 2176   3.780   2.532   3.510 -0.3825 -0.2918 -0.4797
   17SAPS   H7R 2177   3.742   2.560   3.610 -2.4404 -4.0556 -0.0539
   17SAPS   H7S 2178   3.684   2.504   3.462 -0.6807 -1.5684  0.8047
   17SAPS   C28 2179   3.850   2.646   3.440 -0.6098  0.3748  0.8428
   17SAPS   H8R 2180   3.930   2.609   3.374 -0.1333 -1.1116  2.1898
   17SAPS   C29 2181   3.830   2.777   3.462 -0.4070 -0.2611 -0.1110
   17SAPS   H9R 2182   3.898   2.855   3.424 -2.4942  3.1046  2.5609
   17SAPS  C210 2183   3.730   2.831   3.558  0.4798 -0.1870 -0.5405
   17SAPS  H10R 2184   3.752   2.803   3.663 -0.7059 -2.9809 -0.9428
   17SAPS  H10S 2185   3.639   2.773   3.536  0.0519  0.3313 -0.1672
   17SAPS  C211 2186   3.700   2.978   3.537 -0.3740  0.4982 -0.1072
   17SAPS  H11R 2187   3.676   3.020   3.439  0.4668 -0.3858 -0.7130
   17SAPS  C212 2188   3.696   3.067   3.642  0.0069  0.9350  0.4485
   17SAPS  H12R 2189   3.678   3.175   3.628 -1.0463  1.1043  2.6322
   17SAPS  C213 2190   3.721   3.032   3.786 -0.3631  1.0619  0.4964
   17SAPS  H13R 2191   3.740   2.923   3.797  1.9551  1.3997  0.4397
   17SAPS  H13S 2192   3.628   3.046   3.844  0.1980  5.0141  0.7181
   17SAPS  C214 2193   3.838   3.117   3.833 -0.5995 -0.0327  0.0510
   17SAPS  H14R 2194   3.918   3.129   3.758 -0.4639  2.2377  0.4966
   17SAPS  C215 2195   3.865   3.182   3.950 -0.3622  0.6301 -0.0029
   17SAPS  H15R 2196   3.960   3.234   3.963 -0.5168  1.0528 -0.5094
   17SAPS  C216 2197   3.777   3.165   4.067  0.4178 -0.1413  0.4510
   17SAPS  H16R 2198   3.687   3.105   4.043 -0.4078  1.4667 -0.7325
   17SAPS  H16S 2199   3.731   3.265   4.085 -3.4894 -1.5138 -0.9188
   17SAPS  C217 2200   3.855   3.120   4.192 -0.0256 -1.1301 -0.1648
   17SAPS  H17R 2201   3.913   3.027   4.173  0.6742 -0.5426 -0.9515
   17SAPS  H17S 2202   3.775   3.092   4.264 -1.6653 -0.9373 -1.8388
   17SAPS  C218 2203   3.942   3.225   4.261  0.1629 -0.9312  0.2906
   17SAPS  H18R 2204   3.886   3.320   4.270  0.1501 -0.9256  0.1572
   17SAPS  H18S 2205   4.038   3.240   4.206  2.3114  1.0824  4.1848
   17SAPS  C219 2206   3.971   3.175   4.408 -0.4090  0.1331  0.4850
   17SAPS  H19R 2207   3.995   3.066   4.403 -0.1268  0.2344 -2.1192
   17SAPS  H19S 2208   3.874   3.181   4.460 -2.0416  0.3011 -2.3688
   17SAPS  C220 2209   4.083   3.254   4.482  0.1058  0.1229  0.2439
   17SAPS  H20R 2210   4.114   3.208   4.579  1.2619 -0.5333 -0.4063
   17SAPS  H20S 2211   4.039   3.355   4.495 -1.7274 -0.6484  0.2250
   17SAPS  H20T 2212   4.178   3.252   4.424  0.4919  2.5532  0.7055
   17SAPS   C33 2213   4.133   1.925   3.183  0.0184  0.7536  0.3668
   17SAPS   H3X 2214   4.106   2.032   3.192 -0.6051  0.7480 -1.1423
   17SAPS   H3Y 2215   4.239   1.926   3.148 -1.0009  3.8828 -3.3557
   17SAPS   C34 2216   4.100   1.846   3.313  0.1946 -0.5127 -0.1998
   17SAPS   H4X 2217   4.104   1.737   3.292  2.3093 -1.1229  2.6691
   17SAPS   H4Y 2218   3.994   1.869   3.336  0.4354 -1.0551  1.5995
   17SAPS   C35 2219   4.199   1.874   3.426  0.6156 -0.0354 -0.0834
   17SAPS   H5X 2220   4.300   1.891   3.384 -0.4832  1.6938 -2.2459
   17SAPS   H5Y 2221   4.201   1.791   3.500  1.0319 -0.8929 -1.0356
   17SAPS   C36 2222   4.153   1.998   3.499 -0.2421 -0.2770 -0.1008
   17SAPS   H6X 2223   4.045   1.987   3.522  0.1583 -0.0266  2.1265
   17SAPS   H6Y 2224   4.167   2.085   3.432 -0.5285 -0.7134 -0.7408
   17SAPS   C37 2225   4.228   2.013   3.633  0.0977  0.0743 -0.6221
   17SAPS   H7X 2226   4.332   2.048   3.613 -0.8127  3.8292  0.3850
   17SAPS   H7Y 2227   4.228   1.911   3.678  3.0634  0.4552  0.4560
   17SAPS   C38 2228   4.149   2.110   3.731  0.0937  0.0544 -0.3524
   17SAPS   H8X 2229   4.055   2.056   3.754 -0.3317  0.9494  0.0556
   17SAPS   H8Y 2230   4.132   2.210   3.686 -2.5612  0.5872  1.6313
   17SAPS   C39 2231   4.209   2.135   3.872 -0.7631  0.5580  0.2653
   17SAPS   H9X 2232   4.136   2.200   3.926 -1.3350 -1.2725  1.7831
   17SAPS   H9Y 2233   4.308   2.184   3.865  0.9322 -2.3951  1.7821
   17SAPS  C310 2234   4.240   2.011   3.954 -0.0236 -0.1446 -1.1341
   17SAPS  H10X 2235   4.305   1.938   3.901  0.6427 -1.4140  1.2567
   17SAPS  H10Y 2236   4.150   1.951   3.981  0.7048 -0.5630  0.5038
   17SAPS  C311 2237   4.316   2.050   4.080 -0.1715  0.5320  0.0965
   17SAPS  H11X 2238   4.410   2.104   4.056  0.2164  0.2777  0.9881
   17SAPS  H11Y 2239   4.350   1.965   4.143 -2.8725  0.1673  1.2091
   17SAPS  C312 2240   4.230   2.137   4.170 -0.0407  0.0869  0.2208
   17SAPS  H12X 2241   4.126   2.098   4.174  0.0152 -0.0530  0.2960
   17SAPS  H12Y 2242   4.227   2.239   4.124 -0.8573 -0.8109 -1.8620
   17SAPS  C313 2243   4.284   2.141   4.312 -0.6550  0.2755 -0.3001
   17SAPS  H13X 2244   4.373   2.208   4.318  0.6308 -1.5209  2.6062
   17SAPS  H13Y 2245   4.313   2.039   4.346 -3.1647 -0.4214 -0.0777
   17SAPS  C314 2246   4.174   2.192   4.409 -0.4853  0.2792 -0.3042
   17SAPS  H14X 2247   4.091   2.120   4.422 -0.2374  0.0930  0.2355
   17SAPS  H14Y 2248   4.130   2.290   4.380  0.2131  0.8214  0.4274
   17SAPS  C315 2249   4.230   2.219   4.540 -0.2286  0.0320 -0.7148
   17SAPS  H15X 2250   4.148   2.258   4.603 -1.3335 -0.5749 -1.7448
   17SAPS  H15Y 2251   4.311   2.295   4.530  0.7849 -0.5587  1.9731
   17SAPS  C316 2252   4.296   2.092   4.609 -0.3528 -0.3958 -0.3259
   17SAPS  H16X 2253   4.375   2.054   4.540 -0.4017  0.5565 -0.9265
   17SAPS  H16Y 2254   4.216   2.023   4.642 -1.2750  2.1988  3.5154
   17SAPS  C317 2255   4.375   2.112   4.744 -0.0462 -0.1001  0.2556
   17SAPS  H17X 2256   4.298   2.124   4.823 -0.7118 -1.4968 -0.1599
   17SAPS  H17Y 2257   4.433   2.207   4.743  0.4320 -0.3934 -0.6284
   17SAPS  C318 2258   4.473   1.996   4.778  0.2633  1.1661 -0.2231
   17SAPS  H18X 2259   4.536   2.023   4.866 -2.4241 -0.7176  2.4554
   17SAPS  H18Y 2260   4.547   1.966   4.700 -1.5882 -3.0062 -0.6768
   17SAPS  H18Z 2261   4.409   1.910   4.806 -0.5710  2.1412  0.9337
   18SAPS     N 2262   0.672   0.449   2.678 -0.4134  0.5875 -0.2503
   18SAPS   HN1 2263   0.748   0.425   2.743 -0.8617 -1.0457 -0.2992
   18SAPS   HN2 2264   0.664   0.382   2.599 -1.2199 -0.0018  0.3225
   18SAPS   HN3 2265   0.677   0.545   2.637  2.3720  0.8341  0.4913
   18SAPS   C12 2266   0.547   0.460   2.756 -0.7510  0.1796  0.0904
   18SAPS  H12A 2267   0.580   0.509   2.847 -0.9100  0.1718  0.1523
   18SAPS   C13 2268   0.428   0.546   2.710  0.4869 -0.0227  0.6911
   18SAPS  O13A 2269   0.432   0.597   2.590  0.2855 -0.2110 -0.4709
   18SAPS  O13B 2270   0.326   0.557   2.783  0.1202 -0.6662  0.0709
   18SAPS   C11 2271   0.481   0.327   2.790 -0.4544 -0.1214 -0.3861
   18SAPS  H11A 2272   0.469   0.270   2.695  1.7165  1.3352 -1.6181
   18SAPS  H11B 2273   0.383   0.333   2.842  0.0485 -0.5306  0.6458
   18SAPS     P 2274   0.544   0.132   2.977  0.0828  0.0920  0.0198
   18SAPS   O13 2275   0.528   0.011   2.900  0.7695  0.3420  0.1468
   18SAPS   O14 2276   0.652   0.124   3.076  0.3136  0.2793 -0.0189
   18SAPS   O12 2277   0.570   0.262   2.884 -0.2845  1.0033  0.0085
   18SAPS   O11 2278   0.404   0.167   3.037 -0.5002  0.6788 -0.0269
   18SAPS    C1 2279   0.378   0.296   3.103 -0.1885  0.0533 -0.2694
   18SAPS    HA 2280   0.406   0.388   3.049  1.1871 -1.5620 -2.4711
   18SAPS    HB 2281   0.267   0.302   3.105 -0.3047 -1.0571 -1.6261
   18SAPS    C2 2282   0.440   0.324   3.246  0.1339 -0.7560 -0.3151
   18SAPS    HS 2283   0.548   0.329   3.222 -0.1349 -0.0201 -1.4590
   18SAPS   O21 2284   0.397   0.207   3.312  0.0408 -0.1480 -0.4042
   18SAPS   C21 2285   0.477   0.164   3.416 -0.4444 -0.3055  1.1011
   18SAPS   O22 2286   0.591   0.206   3.437  0.5421  0.1901  0.5289
   18SAPS   C22 2287   0.421   0.033   3.472 -0.6444 -0.2913 -0.0172
   18SAPS   H2R 2288   0.317   0.012   3.441 -0.5682 -0.8993  0.1375
   18SAPS   H2S 2289   0.489  -0.046   3.434  0.6856  1.0993 -0.6740
   18SAPS    C3 2290   0.387   0.451   3.318 -0.2859  0.4593 -0.0495
   18SAPS    HX 2291   0.279   0.461   3.297 -0.2510  2.5154  0.5858
   18SAPS    HY 2292   0.439   0.541   3.279  1.0686  0.8715  2.5073
   18SAPS   O31 2293   0.398   0.449   3.459  0.0118 -0.2275 -0.0931
   18SAPS   C31 2294   0.509   0.490   3.514 -0.0232 -0.0135  0.6516
   18SAPS   O32 2295   0.600   0.534   3.446 -0.2437 -0.3589  0.2041
   18SAPS   C32 2296   0.524   0.465   3.666  0.4131  0.5155 -0.2922
   18SAPS   H2X 2297   0.597   0.540   3.705  2.5773 -1.5737 -0.1159
   18SAPS   H2Y 2298   0.570   0.364   3.668  0.1793  0.4262  0.6527
   18SAPS   C23 2299   0.429   0.040   3.630 -0.3764 -0.7641  0.2802
   18SAPS   H3R 2300   0.389   0.141   3.650  1.9203  0.2542  0.0375
   18SAPS   H3S 2301   0.535   0.051   3.664 -0.4505  3.3549 -0.3190
   18SAPS   C24 2302   0.358  -0.075   3.710 -0.2356  0.1205 -0.0080
   18SAPS   H4R 2303   0.414  -0.167   3.680 -0.2770  0.2364 -0.4535
   18SAPS   H4S 2304   0.254  -0.092   3.675  0.1268 -0.6818 -0.7625
   18SAPS   C25 2305   0.350  -0.061   3.855 -0.1819 -0.3075 -0.5897
   18SAPS   H5R 2306   0.271   0.005   3.894 -0.7755 -1.4670  0.2488
   18SAPS   C26 2307   0.439  -0.107   3.945  0.2226  0.4386  0.4840
   18SAPS   H6R 2308   0.415  -0.097   4.052  0.2060 -2.2900  0.8166
   18SAPS   C27 2309   0.546  -0.206   3.920 -0.7127  0.0270 -0.1453
   18SAPS   H7R 2310   0.643  -0.152   3.923 -0.3837 -0.2573 -2.9301
   18SAPS   H7S 2311   0.564  -0.246   3.818  0.0117 -0.8687  0.3154
   18SAPS   C28 2312   0.545  -0.322   4.021 -0.4630  0.2132  0.1720
   18SAPS   H8R 2313   0.484  -0.409   3.993  0.0969  0.2727 -1.3146
   18SAPS   C29 2314   0.584  -0.315   4.147  0.5661  0.2634 -0.0641
   18SAPS   H9R 2315   0.577  -0.407   4.208  1.5585  0.6150  0.6062
   18SAPS  C210 2316   0.647  -0.204   4.228 -0.3573 -0.2066  0.6448
   18SAPS  H10R 2317   0.573  -0.152   4.293  0.9932 -0.4262  2.4515
   18SAPS  H10S 2318   0.691  -0.128   4.161 -1.4278  0.9212  1.1781
   18SAPS  C211 2319   0.755  -0.244   4.327  0.7586  0.3422  0.2958
   18SAPS  H11R 2320   0.733  -0.221   4.432  2.0115 -0.1705  0.6821
   18SAPS  C212 2321   0.875  -0.295   4.303  0.2067  0.0036  0.5950
   18SAPS  H12R 2322   0.952  -0.308   4.380  0.3778  0.7637  0.5579
   18SAPS  C213 2323   0.932  -0.323   4.167  0.3437  0.1440 -0.6317
   18SAPS  H13R 2324   0.861  -0.400   4.129  0.3357  0.7502 -1.8971
   18SAPS  H13S 2325   1.024  -0.382   4.188 -1.5275 -2.4370  0.9699
   18SAPS  C214 2326   0.953  -0.207   4.076 -0.0399 -0.0827  0.2584
   18SAPS  H14R 2327   0.907  -0.110   4.100  2.3765  1.2911 -0.2707
   18SAPS  C215 2328   1.011  -0.233   3.960 -0.4096  0.4797  0.1738
   18SAPS  H15R 2329   1.024  -0.151   3.888  0.7586 -1.4928 -2.0362
   18SAPS  C216 2330   1.067  -0.363   3.913  0.4835  0.1314  0.0445
   18SAPS  H16R 2331   1.006  -0.398   3.828  0.8821  0.9122 -0.5667
   18SAPS  H16S 2332   1.058  -0.446   3.987  0.0327 -0.5553 -0.7620
   18SAPS  C217 2333   1.213  -0.373   3.868  0.2589 -0.0928  0.2109
   18SAPS  H17R 2334   1.235  -0.474   3.828 -1.3639 -0.4423  0.1281
   18SAPS  H17S 2335   1.279  -0.360   3.957  0.6634 -0.8259  0.0231
   18SAPS  C218 2336   1.259  -0.263   3.768  0.3665 -0.2795 -0.4119
   18SAPS  H18R 2337   1.369  -0.269   3.753  0.3852 -1.4686  0.1394
   18SAPS  H18S 2338   1.237  -0.162   3.809  0.3312 -0.2710 -0.4511
   18SAPS  C219 2339   1.183  -0.280   3.638 -0.6989 -1.1544 -0.3422
   18SAPS  H19R 2340   1.077  -0.248   3.650 -0.1036  0.8535 -0.0900
   18SAPS  H19S 2341   1.182  -0.390   3.621  3.7657 -1.5500  0.6203
   18SAPS  C220 2342   1.252  -0.201   3.530  0.0483 -0.4180  0.1086
   18SAPS  H20R 2343   1.215  -0.211   3.426  4.4949  1.4665 -1.9180
   18SAPS  H20S 2344   1.362  -0.218   3.529  0.1180 -0.4308  2.2999
   18SAPS  H20T 2345   1.236  -0.093   3.548  0.1203 -0.7437  2.4213
   18SAPS   C33 2346   0.394   0.451   3.753  0.6912 -0.3915 -1.0156
   18SAPS   H3X 2347   0.308   0.417   3.690 -0.1159  0.3153 -0.3290
   18SAPS   H3Y 2348   0.370   0.548   3.802 -0.1306 -1.6930  1.2762
   18SAPS   C34 2349   0.415   0.349   3.866  0.2067  0.4315  0.5188
   18SAPS   H4X 2350   0.505   0.372   3.928 -0.5421 -0.9156  2.2136
   18SAPS   H4Y 2351   0.432   0.248   3.822 -3.4116 -0.1935  0.2466
   18SAPS   C35 2352   0.297   0.347   3.954  0.4252 -0.2343 -0.5016
   18SAPS   H5X 2353   0.212   0.307   3.893  0.4319 -1.6363  0.3607
   18SAPS   H5Y 2354   0.272   0.449   3.989 -1.5868 -1.4243  1.7950
   18SAPS   C36 2355   0.324   0.240   4.066  0.0729  0.3297 -0.6005
   18SAPS   H6X 2356   0.381   0.280   4.152 -2.4062  0.1515  1.2389
   18SAPS   H6Y 2357   0.380   0.162   4.010  0.6421 -1.0277  1.7644
   18SAPS   C37 2358   0.204   0.190   4.139 -0.0397  0.6286 -0.5794
   18SAPS   H7X 2359   0.137   0.140   4.066 -0.3575  1.3052 -0.7606
   18SAPS   H7Y 2360   0.158   0.279   4.187 -1.8580 -0.1251 -0.8359
   18SAPS   C38 2361   0.239   0.084   4.245  0.0530 -0.3682  0.8595
   18SAPS   H8X 2362   0.319   0.134   4.304 -0.1024 -0.6180  1.2789
   18SAPS   H8Y 2363   0.280  -0.002   4.188 -3.0135 -0.7770 -0.9287
   18SAPS   C39 2364   0.136   0.038   4.339 -0.0234  0.3047 -0.7983
   18SAPS   H9X 2365   0.036   0.002   4.306 -1.0108  1.9186  0.2791
   18SAPS   H9Y 2366   0.106   0.122   4.405  0.5004 -0.0515 -0.0909
   18SAPS  C310 2367   0.178  -0.079   4.423 -0.0807  0.1572 -0.5441
   18SAPS  H10X 2368   0.276  -0.053   4.467 -1.4606  3.0326  1.1600
   18SAPS  H10Y 2369   0.185  -0.171   4.362  0.5425  0.9417 -1.7008
   18SAPS  C311 2370   0.076  -0.099   4.541  0.8020 -0.3943  0.5924
   18SAPS  H11X 2371  -0.022  -0.076   4.494  1.2314 -0.1977 -0.2205
   18SAPS  H11Y 2372   0.097  -0.031   4.626 -1.7205  0.9638  0.2503
   18SAPS  C312 2373   0.071  -0.232   4.605 -0.1467  0.7385 -0.0171
   18SAPS  H12X 2374   0.168  -0.256   4.653 -0.0743 -0.6951 -0.8275
   18SAPS  H12Y 2375   0.052  -0.314   4.532 -1.6060  2.6348 -1.8751
   18SAPS  C313 2376  -0.049  -0.248   4.712  0.4952 -0.0961 -0.7491
   18SAPS  H13X 2377  -0.150  -0.243   4.667  0.0794 -0.4726  0.1104
   18SAPS  H13Y 2378  -0.039  -0.159   4.778 -0.9773  0.2420 -0.9587
   18SAPS  C314 2379  -0.036  -0.362   4.813  0.2364  0.1335  1.1744
   18SAPS  H14X 2380   0.068  -0.370   4.850  0.2842 -0.2154  0.9718
   18SAPS  H14Y 2381  -0.063  -0.451   4.753 -0.3829 -0.0138  1.6604
   18SAPS  C315 2382  -0.130  -0.336   4.928  0.0357  0.1763 -0.1646
   18SAPS  H15X 2383  -0.234  -0.349   4.890  0.3414 -2.3647 -0.2791
   18SAPS  H15Y 2384  -0.112  -0.232   4.962  0.9375  0.6150 -1.8616
   18SAPS  C316 2385  -0.117  -0.430   5.037 -1.1401  0.8921 -0.0299
   18SAPS  H16X 2386  -0.108  -0.532   4.993 -0.1304  1.7802 -2.0157
   18SAPS  H16Y 2387  -0.208  -0.434   5.101  0.1501  1.9254  2.0071
   18SAPS  C317 2388   0.003  -0.406   5.130  0.3440 -0.4751 -0.4018
   18SAPS  H17X 2389  -0.000  -0.302   5.169 -1.7142 -0.2371 -1.0475
   18SAPS  H17Y 2390   0.097  -0.406   5.070  1.6466  0.0044  1.5649
   18SAPS  C318 2391   0.018  -0.511   5.240 -0.2765  0.6594 -0.1919
   18SAPS  H18X 2392   0.070  -0.600   5.200  0.4113  0.6891  0.6225
   18SAPS  H18Y 2393  -0.081  -0.539   5.281  0.4711 -0.3381  0.9768
   18SAPS  H18Z 2394   0.081  -0.471   5.322 -0.1448 -0.6068  0.3447
   19SAPS     N 2395   6.275   0.058   2.553 -0.0514  0.5289 -0.3093
   19SAPS   HN1 2396   6.189   0.062   2.495  0.3845  0.6295 -0.9643
   19SAPS   HN2 2397   6.272   0.132   2.625  0.6637  1.3823 -1.1267
   19SAPS   HN3 2398   6.348   0.078   2.481  0.2462 -1.5895 -0.6763
   19SAPS   C12 2399   6.293  -0.078   2.615  0.2604  0.1729 -0.0436
   19SAPS  H12A 2400   6.203  -0.097   2.671  0.8813 -0.0404  0.9009
   19SAPS   C13 2401   6.303  -0.192   2.512  0.6317  0.4729  0.5063
   19SAPS  O13A 2402   6.307  -0.161   2.386 -0.0934  0.2444  0.2325
   19SAPS  O13B 2403   6.307  -0.313   2.552  0.4200  0.0359 -0.1294
   19SAPS   C11 2404   6.428  -0.070   2.701  0.0743  0.8615  0.2830
   19SAPS  H11A 2405   6.456  -0.175   2.727 -0.9665  0.7251  0.9507
   19SAPS  H11B 2406   6.404  -0.011   2.792 -1.3129  0.4937  0.1803
   19SAPS     P 2407   6.613   0.117   2.670 -0.1639  0.2462  0.3680
   19SAPS   O13 2408   6.719   0.074   2.762 -0.5232  0.4657 -0.0202
   19SAPS   O14 2409   6.656   0.187   2.546 -0.1997  0.1034  0.0122
   19SAPS   O12 2410   6.533  -0.017   2.625 -0.7478  0.1529 -0.4515
   19SAPS   O11 2411   6.503   0.197   2.748  0.0496  0.4350  0.2451
   19SAPS    C1 2412   6.551   0.278   2.857  0.4813  0.2253 -0.7985
   19SAPS    HA 2413   6.651   0.321   2.834 -0.1550  2.0679 -0.2828
   19SAPS    HB 2414   6.491   0.372   2.860  1.3870  0.8008 -0.2525
   19SAPS    C2 2415   6.553   0.206   2.996 -0.6825  0.4050  0.2206
   19SAPS    HS 2416   6.610   0.111   2.990  0.1191  0.8258  0.9518
   19SAPS   O21 2417   6.419   0.181   3.031 -0.4760 -0.0560  0.2812
   19SAPS   C21 2418   6.394   0.060   3.085  1.1082 -0.1353 -0.4079
   19SAPS   O22 2419   6.484  -0.020   3.114  0.5276  0.2837 -0.2439
   19SAPS   C22 2420   6.244   0.051   3.116  0.2801 -0.3336  0.5101
   19SAPS   H2R 2421   6.185   0.128   3.062 -0.8165 -1.6492 -0.2170
   19SAPS   H2S 2422   6.224  -0.042   3.058 -0.1413  0.1889 -0.1987
   19SAPS    C3 2423   6.616   0.305   3.094  0.4216  0.3200 -0.0159
   19SAPS    HX 2424   6.563   0.402   3.081  0.9527  0.3540 -2.4226
   19SAPS    HY 2425   6.719   0.338   3.072 -0.1036  2.4503  0.5338
   19SAPS   O31 2426   6.596   0.272   3.232 -0.0160  0.3032  0.2467
   19SAPS   C31 2427   6.678   0.180   3.280 -0.1116 -0.5581  0.4141
   19SAPS   O32 2428   6.788   0.147   3.234  0.3215 -0.1667  0.0929
   19SAPS   C32 2429   6.619   0.144   3.418 -0.3896 -0.8273 -0.2334
   19SAPS   H2X 2430   6.513   0.111   3.412 -1.1010  0.7748  2.1356
   19SAPS   H2Y 2431   6.610   0.242   3.469 -1.2007 -1.0464  0.0638
   19SAPS   C23 2432   6.205   0.065   3.263 -0.0616  0.3078 -0.0633
   19SAPS   H3R 2433   6.281   0.031   3.336  1.7823 -0.2494 -2.1428
   19SAPS   H3S 2434   6.130  -0.015   3.281  1.8927 -1.3070  1.4266
   19SAPS   C24 2435   6.156   0.205   3.302 -0.5165 -0.6670  0.3455
   19SAPS   H4R 2436   6.109   0.195   3.402  0.1797 -1.8503  0.5789
   19SAPS   H4S 2437   6.080   0.247   3.232  1.0359  1.0369 -0.4115
   19SAPS   C25 2438   6.276   0.296   3.307  0.3089  0.5890 -0.0909
   19SAPS   H5R 2439   6.316   0.328   3.210  0.8202  2.6891  0.7724
   19SAPS   C26 2440   6.329   0.348   3.421  0.5017  0.4874  0.4006
   19SAPS   H6R 2441   6.424   0.403   3.415  1.2850 -0.9621 -1.9265
   19SAPS   C27 2442   6.279   0.325   3.567  0.1361  1.0998 -0.2702
   19SAPS   H7R 2443   6.171   0.353   3.566 -0.2286 -0.2629 -0.8007
   19SAPS   H7S 2444   6.325   0.395   3.640  1.0855 -1.1452  1.4080
   19SAPS   C28 2445   6.296   0.182   3.612  0.0550 -0.0555 -0.9861
   19SAPS   H8R 2446   6.287   0.096   3.544 -2.6845 -0.2799 -0.4136
   19SAPS   C29 2447   6.303   0.160   3.746  0.0747 -0.0677  0.0489
   19SAPS   H9R 2448   6.326   0.054   3.764  0.3047 -1.1220 -5.0107
   19SAPS  C210 2449   6.299   0.258   3.859  0.0544  0.1438  0.2965
   19SAPS  H10R 2450   6.221   0.337   3.848  2.1567  2.5508  1.8203
   19SAPS  H10S 2451   6.395   0.312   3.869  2.0759 -2.7927 -1.5587
   19SAPS  C211 2452   6.271   0.186   3.985 -0.6870  0.0782 -0.0585
   19SAPS  H11R 2453   6.211   0.094   3.978 -0.6783 -0.1004  1.6804
   19SAPS  C212 2454   6.329   0.216   4.108  0.0136  0.5498  0.4967
   19SAPS  H12R 2455   6.315   0.145   4.191 -0.6881  1.6012  1.3259
   19SAPS  C213 2456   6.421   0.325   4.145 -0.4892  0.4154 -0.4346
   19SAPS  H13R 2457   6.383   0.371   4.239 -0.8359 -0.2594 -0.2334
   19SAPS  H13S 2458   6.413   0.401   4.065 -0.9727 -1.4363 -2.2122
   19SAPS  C214 2459   6.561   0.270   4.152 -0.5429 -0.0755  0.2060
   19SAPS  H14R 2460   6.589   0.213   4.062 -0.4959 -1.6929  1.1933
   19SAPS  C215 2461   6.630   0.256   4.267  0.2920 -0.4195  0.4771
   19SAPS  H15R 2462   6.734   0.219   4.267  1.0372  1.5196 -0.5531
   19SAPS  C216 2463   6.589   0.329   4.390 -0.6354 -0.2968 -0.1168
   19SAPS  H16R 2464   6.516   0.263   4.442 -0.0051 -0.3322  0.7397
   19SAPS  H16S 2465   6.540   0.426   4.368 -3.4471 -0.7796  3.1538
   19SAPS  C217 2466   6.703   0.343   4.493 -0.0942  0.1939  0.0193
   19SAPS  H17R 2467   6.794   0.396   4.457 -0.3621  0.0618 -0.8664
   19SAPS  H17S 2468   6.732   0.238   4.517 -3.1565 -1.1296 -1.5582
   19SAPS  C218 2469   6.660   0.398   4.626 -0.8017  0.6324 -0.4445
   19SAPS  H18R 2470   6.573   0.346   4.671 -0.1468  0.3748  0.5342
   19SAPS  H18S 2471   6.641   0.507   4.615 -0.9451  0.8630  1.6899
   19SAPS  C219 2472   6.777   0.396   4.724 -0.6553  1.3387 -0.4723
   19SAPS  H19R 2473   6.868   0.421   4.666 -0.8825  0.5656 -1.1882
   19SAPS  H19S 2474   6.804   0.290   4.738 -1.9680  0.5767 -3.0223
   19SAPS  C220 2475   6.758   0.474   4.856  0.9516 -0.1878  0.3681
   19SAPS  H20R 2476   6.748   0.583   4.836 -3.0999 -0.8265 -2.1961
   19SAPS  H20S 2477   6.849   0.446   4.913  0.3725 -1.1447  0.8453
   19SAPS  H20T 2478   6.682   0.426   4.921  0.9361  0.8583  1.1501
   19SAPS   C33 2479   6.711   0.055   3.507 -0.8374  0.5936  0.1282
   19SAPS   H3X 2480   6.791   0.129   3.525 -0.6368  1.2217 -2.8963
   19SAPS   H3Y 2481   6.757  -0.033   3.457  1.6039  2.5550 -1.2800
   19SAPS   C34 2482   6.644   0.042   3.643 -0.2000 -0.0418 -0.0695
   19SAPS   H4X 2483   6.549  -0.016   3.647 -0.4953  0.2855 -1.7768
   19SAPS   H4Y 2484   6.636   0.137   3.701  0.7987  2.3594 -3.5639
   19SAPS   C35 2485   6.718  -0.048   3.741 -0.7601 -0.1090  0.4887
   19SAPS   H5X 2486   6.825  -0.018   3.747 -0.5016 -0.6736 -1.0553
   19SAPS   H5Y 2487   6.716  -0.151   3.700  0.6042 -0.8441  2.1375
   19SAPS   C36 2488   6.643  -0.048   3.871  0.1678  0.0046 -0.4695
   19SAPS   H6X 2489   6.537  -0.080   3.856 -0.8867  1.9301  2.0923
   19SAPS   H6Y 2490   6.625   0.058   3.901 -2.3186 -0.9787  1.9401
   19SAPS   C37 2491   6.707  -0.126   3.984  0.2524 -0.7881 -0.1544
   19SAPS   H7X 2492   6.807  -0.083   4.003 -0.5563  0.0921  2.6257
   19SAPS   H7Y 2493   6.733  -0.225   3.940  1.1675 -0.0876 -1.2356
   19SAPS   C38 2494   6.637  -0.137   4.120  0.0553 -0.4377  0.7599
   19SAPS   H8X 2495   6.596  -0.038   4.150 -1.6989 -1.0705  0.6088
   19SAPS   H8Y 2496   6.717  -0.155   4.194  1.0969 -0.2871 -0.3045
   19SAPS   C39 2497   6.519  -0.234   4.134  1.0362 -0.0334  0.0928
   19SAPS   H9X 2498   6.558  -0.332   4.099  0.2217 -0.5681  0.6654
   19SAPS   H9Y 2499   6.443  -0.213   4.056 -0.7675 -1.1879  1.4728
   19SAPS  C310 2500   6.454  -0.237   4.272 -0.4073 -0.0524 -0.0704
   19SAPS  H10X 2501   6.347  -0.253   4.246 -0.3022 -0.1915 -0.4250
   19SAPS  H10Y 2502   6.463  -0.134   4.313  0.5490  0.4302 -1.4028
   19SAPS  C311 2503   6.505  -0.347   4.365 -0.1894  0.1766  0.2943
   19SAPS  H11X 2504   6.601  -0.325   4.417 -0.0952  1.6450 -0.4589
   19SAPS  H11Y 2505   6.522  -0.443   4.311 -3.3169 -0.6177  0.5083
   19SAPS  C312 2506   6.398  -0.383   4.473 -0.0919 -0.4174  0.0689
   19SAPS  H12X 2507   6.295  -0.406   4.440 -1.4774  3.2020  1.3855
   19SAPS  H12Y 2508   6.388  -0.285   4.526  2.2409 -0.4870  0.7549
   19SAPS  C313 2509   6.441  -0.474   4.583 -0.3706  1.4040  0.1727
   19SAPS  H13X 2510   6.540  -0.443   4.622  0.0004  0.7434 -0.2275
   19SAPS  H13Y 2511   6.462  -0.572   4.535 -2.3050  0.1736  1.6824
   19SAPS  C314 2512   6.337  -0.489   4.694  0.3623  0.4527  0.2757
   19SAPS  H14X 2513   6.244  -0.539   4.658  0.7489  0.8075 -1.2851
   19SAPS  H14Y 2514   6.310  -0.388   4.730  0.3831  0.6617 -0.3025
   19SAPS  C315 2515   6.388  -0.575   4.809  0.0443  0.0017 -0.0310
   19SAPS  H15X 2516   6.493  -0.546   4.827  0.1322  0.3488 -1.0418
   19SAPS  H15Y 2517   6.384  -0.676   4.763 -0.1583 -0.8889  1.8571
   19SAPS  C316 2518   6.301  -0.566   4.935  0.6171  0.5432 -0.0345
   19SAPS  H16X 2519   6.194  -0.576   4.907 -0.0586 -0.0110  2.4953
   19SAPS  H16Y 2520   6.315  -0.468   4.985 -0.6397  0.8512 -0.2268
   19SAPS  C317 2521   6.338  -0.664   5.042 -0.2948  0.6168 -0.3487
   19SAPS  H17X 2522   6.448  -0.670   5.054 -0.3993  0.1844  0.4249
   19SAPS  H17Y 2523   6.309  -0.767   5.016  1.6227 -0.0772  0.0852
   19SAPS  C318 2524   6.282  -0.639   5.184  0.6100  0.1947  0.4071
   19SAPS  H18X 2525   6.173  -0.637   5.163  0.7718 -1.0031 -0.6774
   19SAPS  H18Y 2526   6.307  -0.541   5.229 -0.6714  1.8500 -2.2446
   19SAPS  H18Z 2527   6.314  -0.719   5.253  1.3678 -2.4051 -2.6811
   20SAPS     N 2528   0.777   5.672   2.729  0.2139  0.3487  0.7973
   20SAPS   HN1 2529   0.727   5.583   2.751 -0.6095  0.9299  1.3370
   20SAPS   HN2 2530   0.853   5.677   2.800 -0.7958 -0.1392  1.9536
   20SAPS   HN3 2531   0.707   5.747   2.748 -0.6203 -0.6374  1.7869
   20SAPS   C12 2532   0.822   5.685   2.582  0.1581  0.3035 -0.3263
   20SAPS  H12A 2533   0.878   5.596   2.560  0.9035  0.6875 -0.0089
   20SAPS   C13 2534   0.710   5.695   2.479  0.2162 -0.1378  0.2106
   20SAPS  O13A 2535   0.594   5.651   2.514  0.3008  0.2701  0.2080
   20SAPS  O13B 2536   0.741   5.706   2.358  0.2972  0.0579  0.2218
   20SAPS   C11 2537   0.913   5.819   2.571  0.5172  0.2636 -0.0662
   20SAPS  H11A 2538   0.844   5.906   2.577 -2.2248 -1.6194 -1.8268
   20SAPS  H11B 2539   0.968   5.821   2.474  1.1808  1.4373  0.3165
   20SAPS     P 2540   1.123   5.936   2.652 -0.3923  0.2752  0.1301
   20SAPS   O13 2541   1.243   5.864   2.604  0.1387 -0.4194  0.1323
   20SAPS   O14 2542   1.082   6.045   2.556  0.0514 -0.3378 -0.2339
   20SAPS   O12 2543   1.006   5.833   2.676 -0.5643 -0.3380  0.5448
   20SAPS   O11 2544   1.161   5.992   2.793  0.4683 -0.2717 -0.6273
   20SAPS    C1 2545   1.214   5.897   2.892  0.2400 -0.1656  0.0950
   20SAPS    HA 2546   1.151   5.806   2.899  1.8730 -1.5293 -1.6894
   20SAPS    HB 2547   1.317   5.866   2.865  0.5371  0.8078  0.0553
   20SAPS    C2 2548   1.213   5.961   3.040  0.3530  0.2243  0.5143
   20SAPS    HS 2549   1.108   5.996   3.040  1.5178  4.2233 -1.0616
   20SAPS   O21 2550   1.307   6.067   3.045 -0.2695  0.9101 -0.3062
   20SAPS   C21 2551   1.286   6.153   3.138  0.6374 -0.4343 -0.9295
   20SAPS   O22 2552   1.180   6.166   3.204 -0.3270 -0.1685  0.1191
   20SAPS   C22 2553   1.422   6.229   3.168  0.0754  0.8981  0.5578
   20SAPS   H2R 2554   1.510   6.191   3.112  0.3903 -1.2068  2.3719
   20SAPS   H2S 2555   1.396   6.333   3.137 -1.4256  0.3609 -0.0547
   20SAPS    C3 2556   1.235   5.851   3.144  0.3548  0.0051 -0.1175
   20SAPS    HX 2557   1.319   5.790   3.105 -1.8991 -1.3347 -3.3522
   20SAPS    HY 2558   1.146   5.785   3.144  0.2331  0.1679 -0.3717
   20SAPS   O31 2559   1.264   5.905   3.277  0.0066 -0.0230 -0.4885
   20SAPS   C31 2560   1.165   5.895   3.363  0.0525 -1.0171  0.3758
   20SAPS   O32 2561   1.061   5.838   3.339 -0.5330 -0.1999  0.5429
   20SAPS   C32 2562   1.201   5.972   3.491  0.7961  0.8862 -0.3269
   20SAPS   H2X 2563   1.186   6.080   3.470  0.2801  1.1214  1.1329
   20SAPS   H2Y 2564   1.304   5.940   3.515  0.4924 -0.7911 -1.0929
   20SAPS   C23 2565   1.450   6.244   3.321 -0.0799  0.0023 -0.0347
   20SAPS   H3R 2566   1.453   6.144   3.369 -3.8274 -0.7590 -1.0866
   20SAPS   H3S 2567   1.367   6.302   3.368  1.2124  2.3775 -0.5052
   20SAPS   C24 2568   1.570   6.329   3.350  0.9435  0.7202  0.1503
   20SAPS   H4R 2569   1.565   6.388   3.443  2.9857  2.1561 -0.5621
   20SAPS   H4S 2570   1.581   6.411   3.275  2.5841  0.5267  0.1425
   20SAPS   C25 2571   1.692   6.237   3.355 -0.4195  0.3275 -0.0577
   20SAPS   H5R 2572   1.756   6.228   3.265  1.1476 -0.5435  1.1049
   20SAPS   C26 2573   1.743   6.184   3.472  0.6800 -1.0576  0.9909
   20SAPS   H6R 2574   1.832   6.122   3.455 -1.1536 -3.1238 -2.1599
   20SAPS   C27 2575   1.683   6.196   3.609  0.6626 -0.0314 -0.3134
   20SAPS   H7R 2576   1.574   6.213   3.599  0.4177 -1.1609  0.2356
   20SAPS   H7S 2577   1.736   6.283   3.655 -0.0141  0.2706 -0.1020
   20SAPS   C28 2578   1.697   6.073   3.692  0.4266  0.5720 -0.1591
   20SAPS   H8R 2579   1.756   5.990   3.650  0.9606  0.4009  0.8843
   20SAPS   C29 2580   1.662   6.055   3.824  0.4010 -0.1256  0.7310
   20SAPS   H9R 2581   1.662   5.957   3.875  0.2095 -0.1505  0.6856
   20SAPS  C210 2582   1.598   6.157   3.908 -0.1567 -0.5387 -0.4883
   20SAPS  H10R 2583   1.537   6.221   3.841 -2.1790 -0.0471  1.6848
   20SAPS  H10S 2584   1.671   6.221   3.962 -2.7811  1.4350  1.0027
   20SAPS  C211 2585   1.500   6.099   4.007  0.4424  1.1863  0.7141
   20SAPS  H11R 2586   1.397   6.084   3.971  0.7377  1.1892 -0.1508
   20SAPS  C212 2587   1.517   6.059   4.134  0.1230 -0.3067 -0.3268
   20SAPS  H12R 2588   1.427   6.008   4.171 -0.9535 -0.5918 -3.0731
   20SAPS  C213 2589   1.642   6.064   4.222  0.3177 -0.1015  0.3404
   20SAPS  H13R 2590   1.625   6.149   4.291 -0.4979  0.9210 -1.0629
   20SAPS  H13S 2591   1.733   6.082   4.161  0.5276 -0.2214  0.6180
   20SAPS  C214 2592   1.655   5.933   4.303 -0.6877  0.1528  0.8409
   20SAPS  H14R 2593   1.597   5.846   4.269  0.9456 -1.0349  0.9858
   20SAPS  C215 2594   1.693   5.920   4.431 -0.3002  0.4590  0.4655
   20SAPS  H15R 2595   1.694   5.818   4.470 -1.9572 -0.4386 -1.6294
   20SAPS  C216 2596   1.756   6.021   4.523 -0.1703  0.6018  0.2755
   20SAPS  H16R 2597   1.815   6.099   4.471  2.3697 -1.6448 -0.4218
   20SAPS  H16S 2598   1.838   5.968   4.575 -0.9274 -0.7533  0.1339
   20SAPS  C217 2599   1.661   6.076   4.624  0.6937  0.4073  0.4949
   20SAPS  H17R 2600   1.588   5.999   4.656  0.0346  0.3932 -0.9815
   20SAPS  H17S 2601   1.603   6.155   4.572  0.2623 -0.6028 -0.5857
   20SAPS  C218 2602   1.729   6.128   4.753 -0.1906 -0.5230  0.2248
   20SAPS  H18R 2603   1.738   6.041   4.822  0.7223 -0.3739  0.3003
   20SAPS  H18S 2604   1.651   6.194   4.797  0.3650  0.3383 -0.0689
   20SAPS  C219 2605   1.854   6.220   4.743  0.0234  0.2944  0.1116
   20SAPS  H19R 2606   1.947   6.186   4.692  1.1088  1.6272  1.1407
   20SAPS  H19S 2607   1.893   6.224   4.847  0.6061 -0.3879 -0.0745
   20SAPS  C220 2608   1.824   6.355   4.688 -0.2813  0.2013  0.1402
   20SAPS  H20R 2609   1.910   6.425   4.680  0.5847 -0.9951 -1.7326
   20SAPS  H20S 2610   1.733   6.395   4.738 -0.7696  0.2269 -0.7527
   20SAPS  H20T 2611   1.790   6.343   4.583 -2.4136  3.0253  0.3647
   20SAPS   C33 2612   1.112   5.931   3.606  0.4567 -0.2360 -0.5769
   20SAPS   H3X 2613   1.140   5.829   3.640 -1.9854 -0.0418  2.5696
   20SAPS   H3Y 2614   1.003   5.917   3.590  0.2238 -1.2377  1.4864
   20SAPS   C34 2615   1.129   6.026   3.727 -0.0292 -0.5770  0.4627
   20SAPS   H4X 2616   1.071   6.116   3.700 -0.7888 -1.5527 -1.3810
   20SAPS   H4Y 2617   1.233   6.056   3.753  1.1060 -1.1679 -2.8770
   20SAPS   C35 2618   1.070   5.968   3.847  0.2549  0.1438  1.0037
   20SAPS   H5X 2619   1.102   5.863   3.862  1.0061  0.3884  1.1591
   20SAPS   H5Y 2620   0.962   5.950   3.825 -0.2351  2.0939  1.5876
   20SAPS   C36 2621   1.076   6.059   3.970 -0.0105  0.7497 -0.2404
   20SAPS   H6X 2622   1.001   6.141   3.962 -1.2176 -0.1855  0.9533
   20SAPS   H6Y 2623   1.176   6.107   3.979  0.5683 -0.6051  0.9034
   20SAPS   C37 2624   1.040   5.983   4.096  0.0402  0.2566 -0.0730
   20SAPS   H7X 2625   1.118   5.906   4.110 -1.3054 -1.2316 -0.4956
   20SAPS   H7Y 2626   0.936   5.943   4.087  0.8102 -1.5901 -1.2265
   20SAPS   C38 2627   1.039   6.079   4.221 -0.2073  0.6473 -0.0682
   20SAPS   H8X 2628   0.982   6.031   4.303  0.1723  0.3534  0.0267
   20SAPS   H8Y 2629   0.993   6.171   4.179 -0.9318  0.5365  0.4689
   20SAPS   C39 2630   1.181   6.116   4.273  0.0442  0.4767 -0.8907
   20SAPS   H9X 2631   1.238   6.172   4.196  2.8141 -1.5372 -0.4580
   20SAPS   H9Y 2632   1.242   6.025   4.291  0.4697  0.5065 -2.1163
   20SAPS  C310 2633   1.170   6.180   4.410 -1.1840  0.1543  0.3272
   20SAPS  H10X 2634   1.157   6.091   4.475 -0.0068 -0.2763  0.0082
   20SAPS  H10Y 2635   1.081   6.245   4.423 -0.2832  1.4816  0.1509
   20SAPS  C311 2636   1.304   6.238   4.462  0.3738  0.1276 -0.6965
   20SAPS  H11X 2637   1.399   6.189   4.431  1.2525  0.7810  0.8487
   20SAPS  H11Y 2638   1.294   6.229   4.572  1.8181 -1.6916 -0.6548
   20SAPS  C312 2639   1.318   6.383   4.428  0.0681  0.0838  0.2160
   20SAPS  H12X 2640   1.230   6.434   4.472  0.0774 -0.8097  1.3054
   20SAPS  H12Y 2641   1.304   6.397   4.318 -2.3121 -0.8539  0.3235
   20SAPS  C313 2642   1.450   6.438   4.487  0.6109 -0.3253  0.1824
   20SAPS  H13X 2643   1.540   6.377   4.462  0.9843  0.2877 -0.0041
   20SAPS  H13Y 2644   1.444   6.451   4.597  1.1876 -0.8530  0.2855
   20SAPS  C314 2645   1.485   6.583   4.447  0.1882  0.0499  0.3213
   20SAPS  H14X 2646   1.397   6.637   4.487  0.3834 -0.5285  1.6041
   20SAPS  H14Y 2647   1.487   6.595   4.337  0.2386 -0.1107  0.3037
   20SAPS  C315 2648   1.613   6.640   4.507  0.7990  0.7512 -0.3636
   20SAPS  H15X 2649   1.652   6.741   4.482  0.9839  0.9743  0.7802
   20SAPS  H15Y 2650   1.692   6.569   4.476 -0.3271  0.5447 -3.1110
   20SAPS  C316 2651   1.630   6.645   4.660 -0.3108  0.2663 -0.4916
   20SAPS  H16X 2652   1.737   6.665   4.680 -0.1511 -1.5252  0.6537
   20SAPS  H16Y 2653   1.618   6.546   4.709  0.0878  0.8416  0.8056
   20SAPS  C317 2654   1.537   6.737   4.737 -0.8153 -0.2649  0.2137
   20SAPS  H17X 2655   1.432   6.721   4.707 -1.4753  0.6429  1.8856
   20SAPS  H17Y 2656   1.563   6.843   4.716  0.5535 -0.5994  0.0888
   20SAPS  C318 2657   1.550   6.706   4.887 -0.2038  0.6818 -0.5913
   20SAPS  H18X 2658   1.553   6.596   4.901  2.2222  0.8090  0.2039
   20SAPS  H18Y 2659   1.464   6.749   4.942  0.6639  1.9835 -0.2260
   20SAPS  H18Z 2660   1.646   6.740   4.929 -1.1609  1.1345  1.3169
   21CHL1    C3 2661   2.488   5.951   6.366  0.8655 -0.5808  0.4880
   21CHL1    H3 2662   2.589   5.927   6.326  0.4072 -0.0130 -1.0795
   21CHL1    O3 2663   2.485   5.958   6.505  0.5032 -0.2900  0.1530
   21CHL1   H3' 2664   2.395   5.979   6.530  1.3063  1.7794  1.6287
   21CHL1    C4 2665   2.438   6.089   6.316 -0.1832 -0.0827  1.2081
   21CHL1   H4A 2666   2.336   6.111   6.354  0.0690  1.2364  1.1761
   21CHL1   H4B 2667   2.505   6.166   6.360 -0.9900  0.2931  1.8158
   21CHL1    C5 2668   2.438   6.088   6.166 -0.1944  0.2754  0.2745
   21CHL1    C6 2669   2.513   6.184   6.102  0.8225  0.4042  0.1086
   21CHL1    H6 2670   2.567   6.264   6.154  2.3867 -1.1667  1.0428
   21CHL1    C7 2671   2.527   6.187   5.949  0.5961 -0.0515 -0.1054
   21CHL1   H7A 2672   2.503   6.285   5.902  0.1098  0.3570  0.9785
   21CHL1   H7B 2673   2.634   6.168   5.928  1.4122  0.7867  2.8523
   21CHL1    C8 2674   2.451   6.082   5.871  0.8519 -0.3531 -0.1214
   21CHL1    H8 2675   2.355   6.132   5.847 -1.1219 -2.8852  1.9658
   21CHL1   C14 2676   2.521   6.041   5.740  0.0097 -0.8117 -1.0990
   21CHL1   H14 2677   2.613   5.985   5.765  0.2571  0.1728  0.3002
   21CHL1   C15 2678   2.576   6.159   5.653  0.5713 -0.1523  0.3448
   21CHL1  H15A 2679   2.496   6.236   5.664 -0.4728 -0.9508 -1.2386
   21CHL1  H15B 2680   2.677   6.195   5.679  0.8113 -0.1237 -0.5722
   21CHL1   C16 2681   2.567   6.103   5.510 -0.6166 -0.6376  0.5992
   21CHL1  H16A 2682   2.499   6.163   5.445  1.1398  0.5461 -0.2198
   21CHL1  H16B 2683   2.667   6.104   5.462 -0.3218 -0.2930  1.2085
   21CHL1   C17 2684   2.509   5.955   5.515 -0.5080  0.3420 -0.2000
   21CHL1   H17 2685   2.595   5.888   5.538  0.3497  1.1605 -0.9402
   21CHL1   C13 2686   2.433   5.950   5.651  0.1777 -0.3491 -0.4667
   21CHL1   C18 2687   2.304   6.022   5.620  0.4187 -0.1115 -0.1716
   21CHL1  H18A 2688   2.250   6.049   5.713  1.4664  4.0533 -0.5561
   21CHL1  H18B 2689   2.319   6.122   5.572 -1.9870  0.3878  0.0147
   21CHL1  H18C 2690   2.235   5.963   5.557  1.1971  1.1534 -2.3433
   21CHL1   C12 2691   2.416   5.825   5.736 -0.1721  0.2610 -0.0942
   21CHL1  H12A 2692   2.347   5.761   5.677 -2.0149  1.9114  0.1638
   21CHL1  H12B 2693   2.509   5.767   5.755 -0.6091 -0.6253 -0.6142
   21CHL1   C11 2694   2.342   5.853   5.861 -0.4806 -0.1265 -0.0803
   21CHL1  H11A 2695   2.238   5.888   5.839 -1.3339 -2.1780  0.5348
   21CHL1  H11B 2696   2.335   5.753   5.909  1.2839 -1.0874 -1.7041
   21CHL1    C9 2697   2.422   5.956   5.953  0.6769  0.2096  0.0839
   21CHL1    H9 2698   2.518   5.903   5.972  1.2343  1.8246  2.2351
   21CHL1   C10 2699   2.365   5.974   6.094  0.0600 -0.4676  0.2757
   21CHL1   C19 2700   2.214   6.000   6.086  0.3250  0.5887 -0.1483
   21CHL1  H19A 2701   2.176   6.015   6.189  0.4594 -0.3240  0.0393
   21CHL1  H19B 2702   2.193   6.090   6.024  1.9121  0.1538 -1.3924
   21CHL1  H19C 2703   2.156   5.916   6.043  0.8559  0.5284 -0.7538
   21CHL1    C1 2704   2.390   5.838   6.168 -0.2855  0.5284 -0.2506
   21CHL1   H1A 2705   2.317   5.757   6.146  1.4434 -0.9758 -0.7113
   21CHL1   H1B 2706   2.490   5.797   6.142 -0.6645  0.5641 -1.8546
   21CHL1    C2 2707   2.389   5.844   6.323  0.4889 -0.1839  0.2065
   21CHL1   H2A 2708   2.425   5.743   6.353 -0.6912 -0.9266 -0.7859
   21CHL1   H2B 2709   2.290   5.868   6.367 -0.0937 -1.0859 -0.5660
   21CHL1   C20 2710   2.439   5.904   5.389  0.4437 -0.1236 -0.0412
   21CHL1   H20 2711   2.349   5.967   5.371  1.6214  1.3140 -1.2020
   21CHL1   C21 2712   2.364   5.764   5.404 -0.2715 -0.0746 -0.2640
   21CHL1  H21A 2713   2.306   5.744   5.311 -0.6235  1.5333 -0.4191
   21CHL1  H21B 2714   2.294   5.770   5.490  0.5840 -2.4776  0.6685
   21CHL1  H21C 2715   2.441   5.685   5.414  1.7707  1.8606  0.2276
   21CHL1   C22 2716   2.535   5.915   5.266 -0.4250  0.1951 -0.1602
   21CHL1  H22A 2717   2.603   6.003   5.263  0.9700 -0.5147  4.0858
   21CHL1  H22B 2718   2.604   5.827   5.265  2.5146  2.2840 -3.4572
   21CHL1   C23 2719   2.460   5.899   5.130 -0.3452 -0.0936  0.9789
   21CHL1  H23A 2720   2.383   5.819   5.126 -0.5341  0.0712 -3.0986
   21CHL1  H23B 2721   2.414   5.996   5.101  0.3438 -0.2902 -0.9448
   21CHL1   C24 2722   2.566   5.863   5.018 -0.3553  0.0097 -0.1500
   21CHL1  H24A 2723   2.661   5.921   5.028  1.2521 -2.2693 -1.3793
   21CHL1  H24B 2724   2.588   5.757   5.042  0.8373  0.6118  1.7090
   21CHL1   C25 2725   2.500   5.877   4.883  0.1728  0.0737 -0.2067
   21CHL1   H25 2726   2.437   5.968   4.877 -0.8814 -0.6940 -1.3582
   21CHL1   C26 2727   2.600   5.877   4.770  0.6192  0.6593 -0.2876
   21CHL1  H26A 2728   2.656   5.973   4.768  0.8649  0.5151 -0.3321
   21CHL1  H26B 2729   2.663   5.790   4.796 -0.6388 -0.4461 -0.8045
   21CHL1  H26C 2730   2.547   5.853   4.675 -2.2654 -2.7360  1.9605
   21CHL1   C27 2731   2.396   5.769   4.855  0.2256  0.4502  0.2072
   21CHL1  H27A 2732   2.323   5.741   4.934  2.1826 -1.7164  1.3771
   21CHL1  H27B 2733   2.352   5.803   4.759 -1.5209  2.0329  1.4975
   21CHL1  H27C 2734   2.444   5.671   4.833 -2.0382 -1.0875  1.6835
   22CHL1    C3 2735   5.174   2.373   6.291  0.0658  0.1391  0.0454
   22CHL1    H3 2736   5.168   2.262   6.287  1.0158 -0.0804  2.5372
   22CHL1    O3 2737   5.220   2.389   6.418 -0.0260  0.2530 -0.4455
   22CHL1   H3' 2738   5.150   2.357   6.475  2.3809 -1.2670  1.9597
   22CHL1    C4 2739   5.281   2.419   6.191 -0.3101 -0.1262  0.2894
   22CHL1   H4A 2740   5.306   2.525   6.214  0.1492 -0.2471  0.3685
   22CHL1   H4B 2741   5.378   2.365   6.199 -0.8783 -1.3810 -0.8912
   22CHL1    C5 2742   5.246   2.440   6.043  0.1466  0.2750 -0.1057
   22CHL1    C6 2743   5.321   2.387   5.946 -0.0984  1.1914  0.0480
   22CHL1    H6 2744   5.414   2.334   5.967 -0.3354  0.8720  0.2976
   22CHL1    C7 2745   5.285   2.403   5.801  0.9184 -0.6651 -0.4123
   22CHL1   H7A 2746   5.381   2.429   5.751  0.2822 -0.2738 -1.4493
   22CHL1   H7B 2747   5.254   2.299   5.776  2.1985 -1.1504 -0.0762
   22CHL1    C8 2748   5.172   2.495   5.764  0.9930 -0.7194  0.9223
   22CHL1    H8 2749   5.208   2.599   5.751 -0.4266 -0.0241  2.1906
   22CHL1   C14 2750   5.115   2.455   5.622  0.8481 -0.5899 -0.8467
   22CHL1   H14 2751   5.078   2.350   5.624 -1.3491  0.0535 -3.0463
   22CHL1   C15 2752   5.210   2.441   5.507  0.4239 -0.1039 -0.2901
   22CHL1  H15A 2753   5.260   2.540   5.497 -1.6644  0.9677 -0.4748
   22CHL1  H15B 2754   5.293   2.370   5.527 -0.3194 -0.6280  1.0744
   22CHL1   C16 2755   5.119   2.417   5.383  0.3401 -0.8087  0.1712
   22CHL1  H16A 2756   5.164   2.468   5.295 -1.2496 -0.5817 -0.5386
   22CHL1  H16B 2757   5.110   2.311   5.350  1.2156 -1.0049  0.5222
   22CHL1   C17 2758   4.978   2.471   5.434  0.0932 -0.5318 -0.0797
   22CHL1   H17 2759   4.913   2.381   5.444  1.8767 -2.0409 -1.4910
   22CHL1   C13 2760   4.999   2.546   5.574  0.4299  0.1207 -0.2656
   22CHL1   C18 2761   5.047   2.687   5.546  0.6405 -1.0317 -0.5821
   22CHL1  H18A 2762   5.112   2.690   5.456 -0.9635  0.4280 -1.7475
   22CHL1  H18B 2763   4.954   2.746   5.538  1.0344 -0.5546 -1.7994
   22CHL1  H18C 2764   5.102   2.724   5.635  1.5061 -3.6445  0.0742
   22CHL1   C12 2765   4.890   2.534   5.688 -0.7374  0.5512  0.7065
   22CHL1  H12A 2766   4.811   2.606   5.658 -0.4288  0.8827  0.6813
   22CHL1  H12B 2767   4.844   2.433   5.688 -1.0181  0.6786  0.1160
   22CHL1   C11 2768   4.945   2.574   5.823  0.3367  0.8437 -0.0793
   22CHL1  H11A 2769   4.975   2.681   5.828  0.9218  0.8327 -2.3598
   22CHL1  H11B 2770   4.863   2.563   5.897  1.4204 -1.2452  0.9100
   22CHL1    C9 2771   5.069   2.490   5.868 -0.7910  0.1932 -0.0383
   22CHL1    H9 2772   5.035   2.385   5.875 -1.1893  0.4217  3.7853
   22CHL1   C10 2773   5.117   2.513   6.013 -0.4400 -0.0037  0.0618
   22CHL1   C19 2774   5.144   2.664   6.029 -0.0991 -0.0456  0.1603
   22CHL1  H19A 2775   5.179   2.698   6.129 -0.1840 -0.0721  0.1998
   22CHL1  H19B 2776   5.222   2.695   5.957 -0.3839 -1.9860 -1.0702
   22CHL1  H19C 2777   5.049   2.714   6.003  0.4041  0.1544 -1.3752
   22CHL1    C1 2778   5.016   2.451   6.110 -1.0337 -0.0688 -0.1341
   22CHL1   H1A 2779   4.927   2.516   6.098  0.2287  1.8957  0.6684
   22CHL1   H1B 2780   4.996   2.348   6.075 -1.3317  0.5152 -1.7642
   22CHL1    C2 2781   5.052   2.453   6.264  0.1974  0.2859  0.4076
   22CHL1   H2A 2782   4.963   2.399   6.303 -0.8932  0.5248 -1.6231
   22CHL1   H2B 2783   5.062   2.557   6.303  1.4920 -0.0309  0.9699
   22CHL1   C20 2784   4.892   2.543   5.319 -0.3484  0.1742  0.0592
   22CHL1   H20 2785   4.944   2.636   5.291 -0.7672  0.3838 -0.0359
   22CHL1   C21 2786   4.764   2.593   5.379 -0.3819 -0.3559  0.7722
   22CHL1  H21A 2787   4.689   2.634   5.309 -0.1829 -1.4981 -0.1444
   22CHL1  H21B 2788   4.788   2.675   5.450 -0.1546 -1.5019  2.0714
   22CHL1  H21C 2789   4.710   2.519   5.442 -1.2111  0.5523  1.1452
   22CHL1   C22 2790   4.876   2.454   5.195  0.0976  0.3864 -0.6360
   22CHL1  H22A 2791   4.974   2.434   5.146  0.1160  0.4250 -0.6150
   22CHL1  H22B 2792   4.832   2.354   5.214  1.8077 -0.0484  1.3501
   22CHL1   C23 2793   4.796   2.530   5.083 -0.6170  0.6270 -0.1542
   22CHL1  H23A 2794   4.689   2.534   5.110 -1.0156  4.0958 -1.5911
   22CHL1  H23B 2795   4.831   2.635   5.069 -1.9611  1.3315  1.4726
   22CHL1   C24 2796   4.802   2.458   4.945 -0.0249  0.2963  0.2414
   22CHL1  H24A 2797   4.904   2.470   4.902 -0.3891 -0.2022 -0.8078
   22CHL1  H24B 2798   4.779   2.350   4.957 -0.1579  0.3320  0.3010
   22CHL1   C25 2799   4.700   2.507   4.840 -0.1932 -0.5586 -0.1483
   22CHL1   H25 2800   4.727   2.612   4.815 -0.5710 -0.2414  0.7157
   22CHL1   C26 2801   4.719   2.437   4.703  0.7983  0.4284  0.2925
   22CHL1  H26A 2802   4.640   2.474   4.635  0.4525  0.3309  0.6363
   22CHL1  H26B 2803   4.821   2.447   4.660 -0.2391  1.5644 -2.0686
   22CHL1  H26C 2804   4.700   2.327   4.705 -0.5216  0.6458  0.7882
   22CHL1   C27 2805   4.553   2.498   4.888  0.1979 -0.3886 -1.1106
   22CHL1  H27A 2806   4.534   2.571   4.969 -0.6209 -1.5694 -0.2217
   22CHL1  H27B 2807   4.483   2.517   4.804 -0.6395  0.2131 -0.2891
   22CHL1  H27C 2808   4.531   2.402   4.940  2.8037 -0.5160 -0.0912
   23CHL1    C3 2809   1.866   4.881   6.483  0.1243 -0.4994 -0.0308
   23CHL1    H3 2810   1.932   4.792   6.480  1.9224  0.7438  0.4389
   23CHL1    O3 2811   1.854   4.910   6.622 -0.0579  0.1968  0.3247
   23CHL1   H3' 2812   1.929   4.961   6.655  1.1567 -1.0423 -0.4070
   23CHL1    C4 2813   1.936   5.000   6.414 -0.3259  0.9744  0.7907
   23CHL1   H4A 2814   1.882   5.093   6.442  0.0666  1.2079  0.7798
   23CHL1   H4B 2815   2.044   5.010   6.439  0.0719  1.0236 -0.8165
   23CHL1    C5 2816   1.928   4.972   6.266 -0.7326 -0.2468  0.6634
   23CHL1    C6 2817   2.036   4.959   6.183  0.5176 -0.5914 -0.4930
   23CHL1    H6 2818   2.142   4.969   6.212  1.1905 -2.6382 -2.0304
   23CHL1    C7 2819   2.029   4.939   6.036 -0.3724 -0.3176  0.3401
   23CHL1   H7A 2820   2.108   4.996   5.982  0.4551 -0.5813  1.2530
   23CHL1   H7B 2821   2.069   4.837   6.019 -1.1998 -0.8035  1.2552
   23CHL1    C8 2822   1.895   4.974   5.968  0.1082  0.3061 -0.2866
   23CHL1    H8 2823   1.877   5.084   5.973 -0.5978  0.3168 -2.1928
   23CHL1   C14 2824   1.872   4.926   5.823 -0.5594 -0.0436 -0.3773
   23CHL1   H14 2825   1.870   4.815   5.825 -0.9226 -0.0313  1.2119
   23CHL1   C15 2826   1.988   4.970   5.731 -0.4273 -0.4639  0.6168
   23CHL1  H15A 2827   2.013   5.075   5.753  1.8074 -0.4195 -1.6508
   23CHL1  H15B 2828   2.079   4.911   5.753 -0.0893 -0.8254 -1.5387
   23CHL1   C16 2829   1.929   4.955   5.589 -0.0405 -0.3905  0.6784
   23CHL1  H16A 2830   1.935   5.059   5.549 -0.1500 -0.7496 -0.3009
   23CHL1  H16B 2831   1.972   4.881   5.518  2.1755 -2.6308  4.0815
   23CHL1   C17 2832   1.772   4.925   5.605  0.3412  0.8905  1.0282
   23CHL1   H17 2833   1.759   4.815   5.613  0.1399  0.6169 -2.0627
   23CHL1   C13 2834   1.740   4.975   5.752 -0.2391  0.1802  0.0759
   23CHL1   C18 2835   1.719   5.127   5.752 -0.2624 -0.1169 -0.3410
   23CHL1  H18A 2836   1.612   5.149   5.730 -0.5227 -0.9855 -0.0008
   23CHL1  H18B 2837   1.759   5.175   5.844 -0.1064  0.3302 -0.6425
   23CHL1  H18C 2838   1.767   5.179   5.667  2.4773  2.0289  2.3244
   23CHL1   C12 2839   1.631   4.903   5.831 -0.7603  0.3193 -0.1692
   23CHL1  H12A 2840   1.531   4.936   5.796  0.8856  2.6869 -3.1125
   23CHL1  H12B 2841   1.644   4.792   5.824  2.2154  0.6001 -0.3333
   23CHL1   C11 2842   1.634   4.933   5.983 -0.2060 -0.5307 -0.2629
   23CHL1  H11A 2843   1.601   5.038   5.996  0.9592  0.2601 -2.9328
   23CHL1  H11B 2844   1.558   4.865   6.026  1.9593 -3.2711 -0.5321
   23CHL1    C9 2845   1.773   4.910   6.049 -0.3931 -0.7868  0.3010
   23CHL1    H9 2846   1.804   4.804   6.041  0.7979 -0.4857  0.6721
   23CHL1   C10 2847   1.782   4.948   6.203 -1.2396  0.8016 -0.4927
   23CHL1   C19 2848   1.713   5.077   6.227 -0.0491 -0.0976 -0.1906
   23CHL1  H19A 2849   1.711   5.116   6.331 -3.2408 -0.7330  0.0925
   23CHL1  H19B 2850   1.748   5.154   6.156 -1.2463 -1.8399 -2.8092
   23CHL1  H19C 2851   1.603   5.064   6.223  0.2253 -2.5962 -2.7195
   23CHL1    C1 2852   1.711   4.837   6.278  0.2764 -0.3518 -0.4908
   23CHL1   H1A 2853   1.604   4.836   6.248  0.9305 -2.1403 -3.0946
   23CHL1   H1B 2854   1.753   4.736   6.259  3.9665  0.7204  0.9417
   23CHL1    C2 2855   1.722   4.850   6.435 -0.2179  0.4724  0.7194
   23CHL1   H2A 2856   1.690   4.763   6.496  1.4189 -0.6717  0.0158
   23CHL1   H2B 2857   1.659   4.934   6.471 -3.0274 -1.8552  1.6594
   23CHL1   C20 2858   1.688   4.980   5.492 -0.3022  0.1268  1.1860
   23CHL1   H20 2859   1.699   5.090   5.481  0.1713 -0.0597 -0.4320
   23CHL1   C21 2860   1.536   4.954   5.510  0.0258  0.2929  0.5785
   23CHL1  H21A 2861   1.521   4.845   5.523 -0.9625  0.5087  1.4080
   23CHL1  H21B 2862   1.488   4.984   5.414  1.4130  1.4493  0.2061
   23CHL1  H21C 2863   1.484   5.010   5.591 -0.9712 -0.4910  0.4960
   23CHL1   C22 2864   1.735   4.932   5.354 -0.8403 -0.3580 -0.2239
   23CHL1  H22A 2865   1.842   4.961   5.343 -1.5634  1.6726 -2.9295
   23CHL1  H22B 2866   1.730   4.822   5.339  2.1503 -0.4836 -0.9714
   23CHL1   C23 2867   1.674   5.006   5.233 -0.3639  0.4145  0.2534
   23CHL1  H23A 2868   1.565   4.988   5.224 -0.1682 -0.3201 -0.8680
   23CHL1  H23B 2869   1.698   5.114   5.243  1.3548 -0.0211  1.1656
   23CHL1   C24 2870   1.731   4.961   5.093  0.2076 -0.1120  0.4657
   23CHL1  H24A 2871   1.841   4.977   5.094  0.2088 -0.1301  1.1585
   23CHL1  H24B 2872   1.701   4.854   5.084  0.6304 -0.2772  0.9736
   23CHL1   C25 2873   1.665   5.036   4.979 -0.4625  0.0078  0.3365
   23CHL1   H25 2874   1.555   5.028   4.988 -0.7452  1.2864 -1.3726
   23CHL1   C26 2875   1.700   5.183   4.989 -1.3394 -0.5149  0.5528
   23CHL1  H26A 2876   1.626   5.248   5.042  0.0172  0.9935  0.6884
   23CHL1  H26B 2877   1.799   5.186   5.039 -0.2554  0.2329 -1.5064
   23CHL1  H26C 2878   1.723   5.215   4.885  1.0027  1.1678  1.5135
   23CHL1   C27 2879   1.709   4.975   4.846  0.2847 -0.0630  0.1507
   23CHL1  H27A 2880   1.663   4.875   4.832 -1.1325  0.2979  1.8417
   23CHL1  H27B 2881   1.664   5.040   4.768 -0.2924  0.1909  0.6792
   23CHL1  H27C 2882   1.817   4.973   4.822  0.0883 -1.5962 -0.7668
   24CHL1    C3 2883   3.734   3.125   6.521  0.0139  0.8557 -0.1036
   24CHL1    H3 2884   3.683   3.220   6.548  1.5150  1.3095  1.2644
   24CHL1    O3 2885   3.764   3.051   6.641  0.3367 -0.0176  0.0130
   24CHL1   H3' 2886   3.675   3.035   6.675  0.5735 -2.2372 -0.2444
   24CHL1    C4 2887   3.633   3.047   6.432 -0.9662  0.8291 -0.8818
   24CHL1   H4A 2888   3.669   2.942   6.419 -1.1390  0.5886  0.4766
   24CHL1   H4B 2889   3.538   3.048   6.489 -0.6227  0.6050 -0.2998
   24CHL1    C5 2890   3.611   3.111   6.297 -0.3378  0.6523  0.1083
   24CHL1    C6 2891   3.492   3.147   6.259 -0.0216 -0.6752 -0.4049
   24CHL1    H6 2892   3.405   3.111   6.315  0.5703 -0.4927  0.6605
   24CHL1    C7 2893   3.465   3.208   6.123  0.8669  0.2133  0.4597
   24CHL1   H7A 2894   3.369   3.170   6.083  0.3465  1.1804  0.7454
   24CHL1   H7B 2895   3.443   3.316   6.142 -1.1202 -0.0184 -0.2921
   24CHL1    C8 2896   3.584   3.191   6.025 -0.1917  0.3867 -0.5788
   24CHL1    H8 2897   3.592   3.082   6.002 -0.0838 -0.5099  3.0923
   24CHL1   C14 2898   3.567   3.277   5.903  1.0826  0.4351  0.2521
   24CHL1   H14 2899   3.584   3.382   5.936  0.7937  0.9622 -1.1742
   24CHL1   C15 2900   3.424   3.271   5.843 -0.0745 -0.1167 -0.0952
   24CHL1  H15A 2901   3.386   3.167   5.846  0.5556 -0.4351 -2.0579
   24CHL1  H15B 2902   3.356   3.346   5.889 -0.7104  1.1836 -2.9094
   24CHL1   C16 2903   3.449   3.325   5.695 -0.6765 -0.7514 -0.1993
   24CHL1  H16A 2904   3.422   3.240   5.629  1.6088 -1.0620 -0.8049
   24CHL1  H16B 2905   3.404   3.424   5.672  1.4029  0.4516  0.6182
   24CHL1   C17 2906   3.603   3.353   5.683 -0.2086  0.9878 -0.4402
   24CHL1   H17 2907   3.613   3.456   5.723 -0.8389  0.0669  2.3050
   24CHL1   C13 2908   3.672   3.267   5.796 -0.3020  0.1243  0.3948
   24CHL1   C18 2909   3.691   3.120   5.757 -0.2867 -0.1547 -0.4736
   24CHL1  H18A 2910   3.757   3.104   5.669 -0.6135  2.8060 -1.3940
   24CHL1  H18B 2911   3.728   3.062   5.844 -0.6636  1.4316  0.7925
   24CHL1  H18C 2912   3.589   3.083   5.733  0.1089 -3.1605  1.8794
   24CHL1   C12 2913   3.799   3.323   5.864  0.9494  0.1710  0.2464
   24CHL1  H12A 2914   3.889   3.310   5.801  1.3756  0.4116  0.7976
   24CHL1  H12B 2915   3.790   3.432   5.882  1.9461  1.2425 -4.4479
   24CHL1   C11 2916   3.835   3.241   5.991 -0.2579  0.0285  0.4518
   24CHL1  H11A 2917   3.870   3.141   5.957 -0.4070  0.5111 -1.2430
   24CHL1  H11B 2918   3.924   3.289   6.035  0.1996 -0.2329 -0.1637
   24CHL1    C9 2919   3.720   3.230   6.093  0.6136 -0.0888 -0.1865
   24CHL1    H9 2920   3.705   3.334   6.127  2.0983  0.2949 -0.6390
   24CHL1   C10 2921   3.741   3.139   6.223  0.9144  0.2040  0.5398
   24CHL1   C19 2922   3.814   3.005   6.181  0.7498 -0.0497 -0.3421
   24CHL1  H19A 2923   3.840   2.941   6.268  0.1229 -2.2181 -1.6735
   24CHL1  H19B 2924   3.755   2.961   6.098  1.2681 -1.3664 -0.0366
   24CHL1  H19C 2925   3.909   3.037   6.133  1.0535  1.0426  0.9410
   24CHL1    C1 2926   3.843   3.216   6.307  0.2911 -0.1498 -0.2685
   24CHL1   H1A 2927   3.939   3.208   6.251  0.7441 -1.3159  0.6402
   24CHL1   H1B 2928   3.820   3.325   6.308  0.2986  0.0880 -4.8358
   24CHL1    C2 2929   3.866   3.155   6.447 -0.7330  0.0413 -0.0608
   24CHL1   H2A 2930   3.927   3.224   6.509 -0.9290  2.0429 -1.9385
   24CHL1   H2B 2931   3.912   3.055   6.436 -1.1100 -0.1478  0.0591
   24CHL1   C20 2932   3.655   3.337   5.544 -0.2483 -0.4066 -0.4189
   24CHL1   H20 2933   3.642   3.234   5.503  0.7401 -0.6486 -0.1415
   24CHL1   C21 2934   3.807   3.374   5.541 -0.0067  0.2811  0.2813
   24CHL1  H21A 2935   3.843   3.464   5.595  3.5456 -0.9849  0.3437
   24CHL1  H21B 2936   3.832   3.381   5.433 -0.6694  1.3264  0.1929
   24CHL1  H21C 2937   3.864   3.289   5.586  1.1741  0.6435 -0.4582
   24CHL1   C22 2938   3.576   3.436   5.453  0.5348  0.4252 -0.0845
   24CHL1  H22A 2939   3.468   3.413   5.469  0.8475 -0.8284  0.3181
   24CHL1  H22B 2940   3.591   3.542   5.481  1.3023  0.1788  0.4714
   24CHL1   C23 2941   3.611   3.410   5.301  0.8100 -0.1675  0.1538
   24CHL1  H23A 2942   3.720   3.415   5.282  0.5832  0.8565 -1.0715
   24CHL1  H23B 2943   3.567   3.313   5.269  1.5779  0.2693 -2.4074
   24CHL1   C24 2944   3.552   3.516   5.204 -0.0436 -0.2328 -0.2858
   24CHL1  H24A 2945   3.442   3.516   5.211 -0.0160  0.0395  0.2396
   24CHL1  H24B 2946   3.591   3.615   5.238 -1.9938  0.0449  1.3116
   24CHL1   C25 2947   3.610   3.493   5.065  0.5330 -0.3451 -1.1671
   24CHL1   H25 2948   3.718   3.478   5.082  0.6764  1.7568  0.2011
   24CHL1   C26 2949   3.547   3.373   4.999 -0.2197  0.4527 -0.3236
   24CHL1  H26A 2950   3.586   3.281   5.048  1.2786 -0.3796 -2.9024
   24CHL1  H26B 2951   3.437   3.380   5.004 -0.2384  0.3630 -0.6158
   24CHL1  H26C 2952   3.561   3.383   4.889  0.5538  3.9585 -0.0532
   24CHL1   C27 2953   3.589   3.628   4.980 -0.3264  0.0687  0.2517
   24CHL1  H27A 2954   3.483   3.658   4.993 -0.3266 -0.2764  1.1789
   24CHL1  H27B 2955   3.655   3.705   5.026  0.3373  1.0667 -2.2603
   24CHL1  H27C 2956   3.621   3.614   4.875 -0.6067  1.0414  0.0316
   25CHL1    C3 2957   0.968   3.257   6.522 -0.2453 -0.0751  0.0645
   25CHL1    H3 2958   0.932   3.154   6.499  3.0685 -1.2049 -0.7438
   25CHL1    O3 2959   0.946   3.294   6.659  0.0388 -0.4910  0.1373
   25CHL1   H3' 2960   0.992   3.376   6.681 -0.9213  0.1871 -0.3508
   25CHL1    C4 2961   1.115   3.251   6.505  0.1889  0.5947 -0.9708
   25CHL1   H4A 2962   1.160   3.347   6.538  1.2254  0.1142 -0.9373
   25CHL1   H4B 2963   1.144   3.169   6.574 -1.6580  0.2557 -0.5575
   25CHL1    C5 2964   1.151   3.220   6.360  0.1741  0.0566 -0.2868
   25CHL1    C6 2965   1.238   3.118   6.336 -0.3781 -0.1480 -0.5792
   25CHL1    H6 2966   1.290   3.063   6.417  0.1265  0.9416 -0.1396
   25CHL1    C7 2967   1.281   3.068   6.200 -0.2941 -0.8967  0.2194
   25CHL1   H7A 2968   1.390   3.049   6.210 -0.3953 -1.3681  0.4802
   25CHL1   H7B 2969   1.230   2.970   6.186 -2.6315  0.4847 -1.7456
   25CHL1    C8 2970   1.248   3.170   6.091 -0.1434 -0.0269 -0.1879
   25CHL1    H8 2971   1.324   3.251   6.096  1.1818 -1.1394 -1.1199
   25CHL1   C14 2972   1.256   3.113   5.950  0.2460  0.0069 -0.3275
   25CHL1   H14 2973   1.179   3.033   5.947 -0.0900  0.2551  1.0877
   25CHL1   C15 2974   1.383   3.040   5.930 -0.4598 -0.3290 -0.2869
   25CHL1  H15A 2975   1.464   3.102   5.975 -1.7231  2.3760 -1.5279
   25CHL1  H15B 2976   1.387   2.939   5.975  1.8898 -1.1163 -2.0683
   25CHL1   C16 2977   1.416   3.039   5.785  0.2546  0.2670  0.3187
   25CHL1  H16A 2978   1.501   3.108   5.766 -0.1501  0.8973  0.7791
   25CHL1  H16B 2979   1.418   2.936   5.743 -3.7961  0.3131 -0.4440
   25CHL1   C17 2980   1.295   3.114   5.726  0.1231  0.7104 -0.0210
   25CHL1   H17 2981   1.216   3.040   5.702  0.7851  0.0561 -0.2417
   25CHL1   C13 2982   1.236   3.214   5.836  0.1498 -0.0722 -0.5869
   25CHL1   C18 2983   1.323   3.334   5.848 -0.6676  0.2989  0.3677
   25CHL1  H18A 2984   1.429   3.302   5.857  0.2305  2.9288  0.0030
   25CHL1  H18B 2985   1.304   3.387   5.752  0.0853  0.5530  0.3579
   25CHL1  H18C 2986   1.289   3.390   5.937 -0.7650 -1.2788  1.3620
   25CHL1   C12 2987   1.086   3.241   5.845  0.4149 -0.5595  0.4820
   25CHL1  H12A 2988   1.062   3.311   5.763  0.2422 -0.4011  0.6658
   25CHL1  H12B 2989   1.024   3.154   5.812 -1.6516 -0.0194  2.6329
   25CHL1   C11 2990   1.049   3.301   5.987 -0.1222  1.3404  0.6365
   25CHL1  H11A 2991   1.079   3.408   5.988  0.2010  1.2708 -0.4365
   25CHL1  H11B 2992   0.939   3.299   6.005 -0.4568 -0.2863 -1.3207
   25CHL1    C9 2993   1.107   3.222   6.109  0.6903  0.1038 -0.2911
   25CHL1    H9 2994   1.044   3.130   6.112 -1.9683  1.6450 -3.3333
   25CHL1   C10 2995   1.083   3.294   6.247 -0.2325  0.1736  0.0706
   25CHL1   C19 2996   1.145   3.431   6.248 -0.2138  0.2902  0.6104
   25CHL1  H19A 2997   1.101   3.496   6.169 -0.5990 -0.0392  0.5502
   25CHL1  H19B 2998   1.137   3.489   6.342 -0.6856 -1.1094  1.4614
   25CHL1  H19C 2999   1.253   3.424   6.220  0.0671  0.5727  1.5834
   25CHL1    C1 3000   0.929   3.314   6.282 -0.0955 -0.4395 -0.1822
   25CHL1   H1A 3001   0.891   3.397   6.218 -1.1648  0.6742  1.8143
   25CHL1   H1B 3002   0.872   3.221   6.260 -0.1588  0.1364 -2.7314
   25CHL1    C2 3003   0.906   3.361   6.429 -0.2517 -0.1857  0.0409
   25CHL1   H2A 3004   0.799   3.374   6.458 -0.8348  0.3136 -2.1934
   25CHL1   H2B 3005   0.965   3.454   6.448  0.4648 -0.5650 -0.3025
   25CHL1   C20 3006   1.327   3.179   5.586 -0.2275 -0.2622 -0.2629
   25CHL1   H20 3007   1.411   3.251   5.599  1.0609 -1.6671 -0.4692
   25CHL1   C21 3008   1.203   3.257   5.538  0.3325  0.3332 -0.6490
   25CHL1  H21A 3009   1.109   3.202   5.556  1.2603 -1.2211 -0.3763
   25CHL1  H21B 3010   1.206   3.288   5.431 -3.4403  1.3425 -0.5773
   25CHL1  H21C 3011   1.192   3.349   5.600 -0.9038 -0.4110  0.2753
   25CHL1   C22 3012   1.381   3.085   5.474 -0.1174 -0.9527  0.0383
   25CHL1  H22A 3013   1.433   2.998   5.519 -0.6204 -0.5433  1.4622
   25CHL1  H22B 3014   1.298   3.037   5.418 -2.4368  0.8484  1.7030
   25CHL1   C23 3015   1.466   3.163   5.370 -0.6676 -1.1781 -0.0083
   25CHL1  H23A 3016   1.407   3.242   5.319 -0.2008 -0.8586 -0.0557
   25CHL1  H23B 3017   1.551   3.215   5.419 -1.0544 -0.1472 -0.3964
   25CHL1   C24 3018   1.519   3.078   5.251  0.0480  0.9724 -0.0672
   25CHL1  H24A 3019   1.582   3.136   5.180  2.8493 -0.3791  1.1649
   25CHL1  H24B 3020   1.577   2.992   5.290 -0.4872  0.8953  0.5658
   25CHL1   C25 3021   1.412   3.024   5.143 -0.7686 -0.0917  0.1149
   25CHL1   H25 3022   1.345   2.961   5.205 -1.6657  0.5628 -0.1645
   25CHL1   C26 3023   1.345   3.148   5.085  0.1330 -0.5624 -0.0598
   25CHL1  H26A 3024   1.415   3.215   5.031 -1.4052  0.2237 -1.1857
   25CHL1  H26B 3025   1.256   3.126   5.022 -0.8410  1.0540  0.6800
   25CHL1  H26C 3026   1.292   3.219   5.152 -0.4465 -0.1666 -0.9160
   25CHL1   C27 3027   1.488   2.941   5.034  0.2003  0.2373 -0.0445
   25CHL1  H27A 3028   1.530   2.850   5.082 -1.3610 -0.2772  0.4085
   25CHL1  H27B 3029   1.412   2.901   4.964 -1.1456  2.4710  0.0527
   25CHL1  H27C 3030   1.560   3.000   4.974  0.0219 -0.5031 -1.0142
   26CHL1    C3 3031   2.541   4.976   6.377 -0.1517 -0.1371 -0.6898
   26CHL1    H3 3032   2.510   4.869   6.381 -2.8307  0.6017  0.9418
   26CHL1    O3 3033   2.554   5.015   6.512  0.0002  0.2525  0.6406
   26CHL1   H3' 3034   2.643   4.981   6.527  0.2312  0.0742 -0.9145
   26CHL1    C4 3035   2.673   5.005   6.307  0.2769 -0.3991 -0.7096
   26CHL1   H4A 3036   2.681   5.116   6.316  1.9829 -0.5600  0.1740
   26CHL1   H4B 3037   2.752   4.945   6.357 -0.2058 -1.3822 -1.1134
   26CHL1    C5 3038   2.662   4.973   6.161 -0.2112 -0.0400  0.0941
   26CHL1    C6 3039   2.742   4.883   6.104  0.3207 -0.5385 -0.7608
   26CHL1    H6 3040   2.820   4.833   6.163 -0.3929 -0.3254  0.3776
   26CHL1    C7 3041   2.743   4.856   5.958  0.3192  0.2987  0.0891
   26CHL1   H7A 3042   2.850   4.860   5.926  0.8546  1.5290  1.8327
   26CHL1   H7B 3043   2.703   4.755   5.939  0.6529  0.1568  0.1365
   26CHL1    C8 3044   2.666   4.960   5.876  0.3237 -0.3360  0.3975
   26CHL1    H8 3045   2.720   5.056   5.872 -1.3569  0.6129 -2.0893
   26CHL1   C14 3046   2.647   4.906   5.734 -0.1734 -0.1645  0.6035
   26CHL1   H14 3047   2.584   4.815   5.748 -0.8828 -0.0015 -1.2888
   26CHL1   C15 3048   2.771   4.859   5.654 -0.1156  0.3547 -0.0950
   26CHL1  H15A 3049   2.853   4.934   5.664  0.4392 -0.4043  1.2711
   26CHL1  H15B 3050   2.813   4.758   5.671  1.3126  0.5618 -1.9807
   26CHL1   C16 3051   2.708   4.835   5.516 -0.3242 -0.1046  0.2707
   26CHL1  H16A 3052   2.767   4.877   5.431  1.8523 -1.3121  1.0973
   26CHL1  H16B 3053   2.685   4.728   5.503  2.2997 -0.6120 -0.9679
   26CHL1   C17 3054   2.572   4.911   5.512  0.0991 -1.3425 -0.0730
   26CHL1   H17 3055   2.502   4.826   5.526 -1.1323 -0.6951 -2.0178
   26CHL1   C13 3056   2.560   4.992   5.641  0.1758  1.2766 -0.0584
   26CHL1   C18 3057   2.626   5.130   5.618  0.5825  0.0106 -0.1324
   26CHL1  H18A 3058   2.723   5.111   5.567 -0.0412  0.1068 -1.4143
   26CHL1  H18B 3059   2.576   5.204   5.553 -0.8173  0.2387  1.1487
   26CHL1  H18C 3060   2.647   5.195   5.705 -1.8906 -1.3596  1.6284
   26CHL1   C12 3061   2.422   5.001   5.705 -0.5369  0.2428 -0.9841
   26CHL1  H12A 3062   2.347   5.057   5.646 -1.9600 -0.8285 -0.2541
   26CHL1  H12B 3063   2.376   4.900   5.711 -0.5291  0.2896  0.0891
   26CHL1   C11 3064   2.435   5.062   5.848  0.3161  0.3497 -0.6532
   26CHL1  H11A 3065   2.468   5.167   5.834 -0.3859  0.5789 -0.5812
   26CHL1  H11B 3066   2.335   5.050   5.894  1.2108 -1.9810  0.9277
   26CHL1    C9 3067   2.530   4.986   5.943  0.2798 -0.4733  0.4431
   26CHL1    H9 3068   2.478   4.888   5.953  0.0328 -0.2636  1.3472
   26CHL1   C10 3069   2.552   5.043   6.087  0.2724  0.2404  0.4089
   26CHL1   C19 3070   2.592   5.190   6.076  0.0515 -0.8954  0.0755
   26CHL1  H19A 3071   2.535   5.246   5.999  0.2787 -0.1154  0.4644
   26CHL1  H19B 3072   2.578   5.242   6.173 -1.2479  0.6718 -0.8989
   26CHL1  H19C 3073   2.699   5.203   6.048 -0.9152 -0.2929 -4.0004
   26CHL1    C1 3074   2.413   5.021   6.164  0.2407  0.0285 -0.0966
   26CHL1   H1A 3075   2.335   5.070   6.102  0.6049 -0.0757 -0.6567
   26CHL1   H1B 3076   2.401   4.910   6.159  1.3827 -0.1726  1.1509
   26CHL1    C2 3077   2.416   5.055   6.315 -0.5640 -0.2345  0.1464
   26CHL1   H2A 3078   2.327   5.031   6.375 -1.5217  1.3883 -0.5433
   26CHL1   H2B 3079   2.427   5.166   6.318 -3.0931  0.1587 -1.5181
   26CHL1   C20 3080   2.542   4.991   5.378  0.5064  0.2456 -0.8357
   26CHL1   H20 3081   2.614   5.076   5.374 -0.0081  0.6735 -1.0594
   26CHL1   C21 3082   2.399   5.049   5.382 -0.8716  0.2689 -0.5323
   26CHL1  H21A 3083   2.334   4.975   5.434  2.5490 -1.0059  2.2956
   26CHL1  H21B 3084   2.348   5.061   5.284 -1.3305 -1.0738 -0.4865
   26CHL1  H21C 3085   2.383   5.145   5.435  0.4989  0.3172 -0.1826
   26CHL1   C22 3086   2.563   4.904   5.250  0.5298  0.2830  0.0243
   26CHL1  H22A 3087   2.646   4.831   5.255  0.3006 -0.0067 -0.3263
   26CHL1  H22B 3088   2.477   4.834   5.242  1.2357 -0.5418 -0.5715
   26CHL1   C23 3089   2.587   4.988   5.128  0.8171 -0.5163 -0.4359
   26CHL1  H23A 3090   2.488   5.038   5.116  1.9193  2.1083  0.7204
   26CHL1  H23B 3091   2.659   5.071   5.136 -1.1867  1.6072 -2.8046
   26CHL1   C24 3092   2.605   4.896   5.008  0.1098  0.4641 -0.7417
   26CHL1  H24A 3093   2.712   4.866   5.000  0.4876  1.0802  1.4453
   26CHL1  H24B 3094   2.534   4.815   5.032 -1.8624  1.9861 -1.1590
   26CHL1   C25 3095   2.550   4.955   4.881 -0.2273 -0.0560 -0.2747
   26CHL1   H25 3096   2.460   5.019   4.894 -0.8790 -1.1114  0.5240
   26CHL1   C26 3097   2.661   5.047   4.816  0.3104 -0.1413  0.3939
   26CHL1  H26A 3098   2.616   5.094   4.726 -2.7364  3.5069  3.4406
   26CHL1  H26B 3099   2.709   5.119   4.887  1.1209 -0.5590  0.2765
   26CHL1  H26C 3100   2.745   4.982   4.785  0.5746  0.3140  0.1394
   26CHL1   C27 3101   2.494   4.862   4.781  0.3568  0.4535  0.0860
   26CHL1  H27A 3102   2.464   4.912   4.687  2.2778 -0.5836 -1.1331
   26CHL1  H27B 3103   2.574   4.791   4.750  0.5750  1.4311 -1.6897
   26CHL1  H27C 3104   2.413   4.802   4.827 -0.7486  2.2054  0.5288
   27CHL1    C3 3105   2.187   4.586   6.370 -0.2063  0.8136  0.1403
   27CHL1    H3 3106   2.156   4.690   6.347  1.6005  1.1896 -0.7714
   27CHL1    O3 3107   2.193   4.571   6.512 -0.2210 -0.1375  0.6772
   27CHL1   H3' 3108   2.241   4.648   6.543 -1.9873  1.7681 -0.9725
   27CHL1    C4 3109   2.085   4.486   6.323 -0.2118 -0.1356  0.2528
   27CHL1   H4A 3110   2.123   4.383   6.341 -1.3868 -0.4541  1.0687
   27CHL1   H4B 3111   1.993   4.495   6.384 -0.3827  0.1610 -0.0439
   27CHL1    C5 3112   2.073   4.494   6.175 -0.3040  0.9362  0.0741
   27CHL1    C6 3113   1.953   4.519   6.122 -0.0380 -0.2095 -0.2712
   27CHL1    H6 3114   1.868   4.535   6.190  0.1739  1.3124 -0.3169
   27CHL1    C7 3115   1.929   4.544   5.973  0.4618 -0.2706 -0.5762
   27CHL1   H7A 3116   1.833   4.497   5.943  0.7879 -2.2548  1.2475
   27CHL1   H7B 3117   1.910   4.652   5.962 -2.1755 -0.4493  1.3495
   27CHL1    C8 3118   2.050   4.498   5.877  0.2345  0.1816 -0.4215
   27CHL1    H8 3119   2.033   4.389   5.867 -2.6458  0.5910 -0.7676
   27CHL1   C14 3120   2.038   4.556   5.739  0.8169 -0.5118  0.6103
   27CHL1   H14 3121   2.059   4.665   5.746  1.5420 -0.5507 -0.5777
   27CHL1   C15 3122   1.903   4.538   5.663  0.1355  0.5146  0.0014
   27CHL1  H15A 3123   1.856   4.437   5.670  0.0883  0.5307 -0.0898
   27CHL1  H15B 3124   1.826   4.612   5.693  1.0257  0.9253  1.3870
   27CHL1   C16 3125   1.941   4.552   5.514  0.0270  0.7144  0.2244
   27CHL1  H16A 3126   1.902   4.454   5.479  0.4052  0.0377  1.6348
   27CHL1  H16B 3127   1.884   4.632   5.464 -0.7420  2.2057  3.2596
   27CHL1   C17 3128   2.093   4.574   5.507  0.4581 -0.0802  0.3699
   27CHL1   H17 3129   2.111   4.681   5.530  1.4040 -0.9982  4.8579
   27CHL1   C13 3130   2.149   4.517   5.635 -0.4238 -0.8233  0.3274
   27CHL1   C18 3131   2.156   4.368   5.613  0.0091 -0.1578  0.1865
   27CHL1  H18A 3132   2.063   4.319   5.581 -0.0928  0.0073  0.2261
   27CHL1  H18B 3133   2.228   4.338   5.534 -0.2380  1.2243 -0.5906
   27CHL1  H18C 3134   2.193   4.330   5.711 -1.7069  2.3986  1.9876
   27CHL1   C12 3135   2.278   4.582   5.697  0.3443  0.7957 -0.3752
   27CHL1  H12A 3136   2.368   4.557   5.636 -1.1013  0.2229 -2.4003
   27CHL1  H12B 3137   2.279   4.693   5.693  0.7941  0.7868 -0.6093
   27CHL1   C11 3138   2.302   4.528   5.841  0.0967 -0.8181  1.0313
   27CHL1  H11A 3139   2.328   4.422   5.821  0.6620 -0.2903 -1.2168
   27CHL1  H11B 3140   2.393   4.576   5.885  0.8796 -1.7157  0.4317
   27CHL1    C9 3141   2.180   4.548   5.938  0.7343  0.3400  0.1725
   27CHL1    H9 3142   2.165   4.657   5.955 -1.6812  0.3830 -1.6380
   27CHL1   C10 3143   2.200   4.495   6.084  0.4576  0.5382  0.0916
   27CHL1   C19 3144   2.247   4.344   6.079  0.1278  0.0046  0.3346
   27CHL1  H19A 3145   2.187   4.275   6.017  1.9126  0.0441 -1.5370
   27CHL1  H19B 3146   2.354   4.339   6.049 -0.0812  0.4064 -0.5052
   27CHL1  H19C 3147   2.253   4.305   6.183  0.5865  1.4530  0.8732
   27CHL1    C1 3148   2.306   4.579   6.155 -0.3279 -0.1649  0.4118
   27CHL1   H1A 3149   2.405   4.552   6.113  1.1286  5.0853 -0.2988
   27CHL1   H1B 3150   2.296   4.690   6.148  1.3015  0.1770  2.4643
   27CHL1    C2 3151   2.322   4.558   6.307  0.1787 -0.3645  0.0213
   27CHL1   H2A 3152   2.400   4.621   6.354  2.2876 -2.0537 -1.0320
   27CHL1   H2B 3153   2.340   4.450   6.329  2.0449  0.1810  1.3838
   27CHL1   C20 3154   2.156   4.539   5.369 -0.6262 -0.1171 -0.0421
   27CHL1   H20 3155   2.150   4.429   5.352 -1.4492  0.0610 -0.9691
   27CHL1   C21 3156   2.305   4.579   5.368 -0.0505 -0.0214  0.4812
   27CHL1  H21A 3157   2.361   4.521   5.445  0.1478  1.2163  1.3011
   27CHL1  H21B 3158   2.324   4.685   5.397 -1.1481 -0.0624  1.4499
   27CHL1  H21C 3159   2.352   4.546   5.273 -2.0392  0.6542 -0.8113
   27CHL1   C22 3160   2.076   4.605   5.249 -0.2464  0.2062 -0.2813
   27CHL1  H22A 3161   1.977   4.562   5.224 -1.0313  2.0501 -0.4957
   27CHL1  H22B 3162   2.053   4.710   5.277 -4.0555 -0.8288  1.1315
   27CHL1   C23 3163   2.146   4.598   5.116 -0.3377  0.3171 -0.0474
   27CHL1  H23A 3164   2.238   4.659   5.131  0.2523 -0.3823 -0.7336
   27CHL1  H23B 3165   2.179   4.493   5.097  0.2805  0.3313  0.8804
   27CHL1   C24 3166   2.068   4.652   4.996  0.4279 -0.4814 -0.5232
   27CHL1  H24A 3167   1.985   4.583   4.971  1.6958 -1.2138 -3.0299
   27CHL1  H24B 3168   2.024   4.749   5.028 -0.4879 -0.9523 -0.3383
   27CHL1   C25 3169   2.150   4.665   4.874 -0.0190 -0.7852 -0.1735
   27CHL1   H25 3170   2.239   4.724   4.906  0.1648  0.5373 -2.8715
   27CHL1   C26 3171   2.212   4.534   4.814  0.0748 -0.0621  0.0217
   27CHL1  H26A 3172   2.275   4.576   4.733  1.0781  0.0102  0.8223
   27CHL1  H26B 3173   2.278   4.470   4.877 -2.9491 -0.6251  2.9170
   27CHL1  H26C 3174   2.135   4.467   4.771 -2.5267  3.6378 -1.6058
   27CHL1   C27 3175   2.073   4.737   4.760 -0.3895 -0.2580  0.4000
   27CHL1  H27A 3176   1.997   4.810   4.795 -1.7179 -0.4296 -1.8992
   27CHL1  H27B 3177   2.015   4.652   4.716 -0.3580 -0.2882  0.4159
   27CHL1  H27C 3178   2.131   4.784   4.678 -1.7442  0.5026 -0.1515
   28CHL1    C3 3179   5.380   2.960   6.100  0.7004  0.7035  0.0472
   28CHL1    H3 3180   5.371   2.850   6.102  1.5078  0.6344  0.6501
   28CHL1    O3 3181   5.386   3.004   6.235  0.3725 -0.2423 -0.2261
   28CHL1   H3' 3182   5.298   2.990   6.270 -0.5460  2.1567 -1.3348
   28CHL1    C4 3183   5.504   2.996   6.027 -0.7810  0.0142  0.3261
   28CHL1   H4A 3184   5.520   3.105   6.038  0.6053  0.1030 -1.9655
   28CHL1   H4B 3185   5.583   2.944   6.086 -0.8390  0.6930  1.0086
   28CHL1    C5 3186   5.514   2.957   5.879  0.4056  0.0363  0.4110
   28CHL1    C6 3187   5.602   2.873   5.832 -0.0856 -0.4161 -0.3826
   28CHL1    H6 3188   5.682   2.830   5.893 -1.5169 -3.5992 -0.5362
   28CHL1    C7 3189   5.608   2.837   5.685  0.0753 -0.2411 -0.1178
   28CHL1   H7A 3190   5.710   2.863   5.649  0.3325  1.2384  1.5690
   28CHL1   H7B 3191   5.591   2.727   5.681 -0.8162 -0.1141  0.0190
   28CHL1    C8 3192   5.514   2.913   5.587  0.1662  0.9488  0.3545
   28CHL1    H8 3193   5.560   3.014   5.574 -0.5244  0.9466 -3.0072
   28CHL1   C14 3194   5.491   2.828   5.462  0.5293  0.3229  0.2128
   28CHL1   H14 3195   5.423   2.743   5.483  1.1477 -0.5301 -1.1737
   28CHL1   C15 3196   5.603   2.752   5.404 -0.4049 -0.2184  0.2714
   28CHL1  H15A 3197   5.705   2.794   5.421 -0.5467 -0.7673  2.8893
   28CHL1  H15B 3198   5.617   2.651   5.446 -1.6111 -0.2905  0.5353
   28CHL1   C16 3199   5.573   2.745   5.247 -0.9020  0.4832  0.1165
   28CHL1  H16A 3200   5.647   2.796   5.181 -0.9853  0.1739 -0.2170
   28CHL1  H16B 3201   5.584   2.638   5.219  1.4357  0.1337  1.9693
   28CHL1   C17 3202   5.424   2.789   5.234  0.2726  0.2884  0.0010
   28CHL1   H17 3203   5.373   2.701   5.280  2.2709  0.0193  1.8463
   28CHL1   C13 3204   5.413   2.901   5.345  0.3348 -0.0681  0.3197
   28CHL1   C18 3205   5.501   3.021   5.309  0.0597  0.0793 -0.2283
   28CHL1  H18A 3206   5.462   3.069   5.217 -0.3172  2.0965  0.9275
   28CHL1  H18B 3207   5.495   3.096   5.391  1.5948  0.3584 -0.3336
   28CHL1  H18C 3208   5.608   2.989   5.304 -0.0531 -1.0339  2.6345
   28CHL1   C12 3209   5.274   2.952   5.404  0.2514  0.1326 -0.0318
   28CHL1  H12A 3210   5.248   3.035   5.334  0.6591  0.9017  0.7002
   28CHL1  H12B 3211   5.208   2.864   5.419 -0.8432  1.0159  0.4644
   28CHL1   C11 3212   5.292   3.005   5.549 -0.2302 -0.4581  0.1639
   28CHL1  H11A 3213   5.340   3.104   5.542  1.3558 -1.1358  0.9258
   28CHL1  H11B 3214   5.192   3.024   5.594 -0.1809  1.2570 -0.3962
   28CHL1    C9 3215   5.378   2.935   5.654 -0.0042  0.5030  0.4417
   28CHL1    H9 3216   5.335   2.834   5.669  2.2076 -0.3246  1.7107
   28CHL1   C10 3217   5.392   3.006   5.798  0.0350  0.4854  0.1420
   28CHL1   C19 3218   5.421   3.156   5.781 -0.0382  0.6549  0.0160
   28CHL1  H19A 3219   5.523   3.183   5.746  0.0136 -1.3304 -1.5902
   28CHL1  H19B 3220   5.344   3.203   5.716  0.4764 -1.1988 -2.0593
   28CHL1  H19C 3221   5.409   3.204   5.881  0.9995 -0.8356  0.9058
   28CHL1    C1 3222   5.257   2.985   5.879 -1.7161  0.1569 -0.7866
   28CHL1   H1A 3223   5.177   3.038   5.823 -0.0835  3.3120 -0.3598
   28CHL1   H1B 3224   5.243   2.875   5.885  1.0217 -0.2987 -1.7290
   28CHL1    C2 3225   5.260   3.026   6.025 -0.2093  0.2977 -0.4823
   28CHL1   H2A 3226   5.169   2.988   6.076  0.8266  0.5874  1.6746
   28CHL1   H2B 3227   5.253   3.136   6.034 -0.9714  0.6885 -4.2624
   28CHL1   C20 3228   5.377   2.812   5.090  0.7411 -0.3168  0.4778
   28CHL1   H20 3229   5.438   2.897   5.052  1.9223 -1.1609  0.4533
   28CHL1   C21 3230   5.222   2.852   5.094 -0.3233 -0.5186  0.6292
   28CHL1  H21A 3231   5.192   2.883   4.991 -1.5900 -2.3398  0.3950
   28CHL1  H21B 3232   5.210   2.945   5.153 -1.1802  0.2842 -0.7604
   28CHL1  H21C 3233   5.153   2.770   5.122 -0.8335 -0.7649 -1.1927
   28CHL1   C22 3234   5.384   2.685   5.005 -0.4822 -0.0314  0.0681
   28CHL1  H22A 3235   5.491   2.654   5.004  0.0856  1.7417 -1.5897
   28CHL1  H22B 3236   5.326   2.606   5.057  1.9759 -2.2361 -0.3505
   28CHL1   C23 3237   5.332   2.688   4.856  0.6135 -0.3889 -1.1504
   28CHL1  H23A 3238   5.223   2.677   4.841  0.8583 -4.0383 -1.1300
   28CHL1  H23B 3239   5.361   2.789   4.819  0.8846 -0.0752 -0.1150
   28CHL1   C24 3240   5.404   2.588   4.764  0.3980  0.0988 -0.1225
   28CHL1  H24A 3241   5.512   2.614   4.768  0.8202 -1.3884 -1.0908
   28CHL1  H24B 3242   5.392   2.486   4.806 -2.0865 -0.1986 -1.3409
   28CHL1   C25 3243   5.372   2.590   4.608 -0.4474  0.8922 -0.1537
   28CHL1   H25 3244   5.263   2.569   4.597 -0.1141 -0.0822 -2.0722
   28CHL1   C26 3245   5.407   2.716   4.529  0.4499  0.5692 -0.0450
   28CHL1  H26A 3246   5.514   2.722   4.500 -0.0328 -1.6490 -2.6160
   28CHL1  H26B 3247   5.348   2.722   4.436 -1.0297  1.9976  0.9295
   28CHL1  H26C 3248   5.388   2.813   4.581 -1.2884  0.2136  0.0299
   28CHL1   C27 3249   5.457   2.470   4.547  0.3775  0.1153  0.5351
   28CHL1  H27A 3250   5.566   2.490   4.542  0.0673  1.5706 -2.0290
   28CHL1  H27B 3251   5.431   2.377   4.601 -2.5891  0.8049  0.4768
   28CHL1  H27C 3252   5.429   2.453   4.441  2.5161 -3.0784  0.3479
   29CHL1    C3 3253   2.130   5.420   6.518 -0.4019  0.3996 -0.3361
   29CHL1    H3 3254   2.189   5.326   6.509  0.6276  0.9028  0.8298
   29CHL1    O3 3255   2.108   5.439   6.659 -0.6273  0.3923  0.4039
   29CHL1   H3' 3256   2.191   5.468   6.696  0.3217 -0.6607 -0.7875
   29CHL1    C4 3257   2.194   5.530   6.435 -0.6119 -0.1554 -1.3256
   29CHL1   H4A 3258   2.147   5.629   6.455 -0.5869 -0.3864 -0.0605
   29CHL1   H4B 3259   2.298   5.533   6.474 -0.8494 -0.1433 -0.6811
   29CHL1    C5 3260   2.205   5.490   6.291  0.1109  1.1733 -0.3076
   29CHL1    C6 3261   2.327   5.472   6.227  0.0388  0.2223  0.1104
   29CHL1    H6 3262   2.419   5.481   6.286  0.5660 -0.1402 -0.6295
   29CHL1    C7 3263   2.328   5.442   6.078  0.2630 -0.4526 -0.5373
   29CHL1   H7A 3264   2.419   5.486   6.032 -0.9814  1.2182 -1.5396
   29CHL1   H7B 3265   2.341   5.332   6.079 -1.8271 -0.8679  4.1356
   29CHL1    C8 3266   2.199   5.481   6.006 -0.3263 -0.0492  0.3022
   29CHL1    H8 3267   2.191   5.592   6.008 -1.5805 -0.1100 -0.2954
   29CHL1   C14 3268   2.211   5.433   5.864  0.2382  0.6279  0.0439
   29CHL1   H14 3269   2.200   5.323   5.869  1.3129  0.4242 -1.4646
   29CHL1   C15 3270   2.340   5.462   5.791 -0.4079  0.4653 -0.7302
   29CHL1  H15A 3271   2.375   5.567   5.787  1.4145  0.1503  2.8352
   29CHL1  H15B 3272   2.416   5.393   5.834 -2.3192 -1.1670  0.2244
   29CHL1   C16 3273   2.301   5.433   5.647 -0.0300  0.0732  0.1397
   29CHL1  H16A 3274   2.331   5.521   5.587 -2.3779  0.4586 -0.6035
   29CHL1  H16B 3275   2.352   5.337   5.629 -0.8975 -0.5630  0.9491
   29CHL1   C17 3276   2.143   5.409   5.643 -0.7129 -0.0803 -0.4323
   29CHL1   H17 3277   2.123   5.302   5.664  0.5528 -0.4307 -0.9449
   29CHL1   C13 3278   2.087   5.469   5.777 -0.8837  0.2465 -0.9862
   29CHL1   C18 3279   2.073   5.626   5.776 -0.2335 -0.1632 -0.3793
   29CHL1  H18A 3280   2.160   5.666   5.719  0.5652  1.7460  1.9967
   29CHL1  H18B 3281   1.981   5.654   5.721  0.1433 -0.5349 -1.2308
   29CHL1  H18C 3282   2.059   5.662   5.880  0.0774 -1.4277  0.1153
   29CHL1   C12 3283   1.964   5.394   5.843 -0.6624 -0.5081  0.5782
   29CHL1  H12A 3284   1.865   5.407   5.792 -0.9356  0.2812  1.2930
   29CHL1  H12B 3285   1.978   5.284   5.840 -1.0479 -0.5765 -2.9048
   29CHL1   C11 3286   1.953   5.441   5.991 -0.0499 -0.2765 -0.7316
   29CHL1  H11A 3287   1.945   5.552   5.986  1.6182 -0.0436  0.6717
   29CHL1  H11B 3288   1.866   5.396   6.043 -0.7491  0.8168 -0.9151
   29CHL1    C9 3289   2.081   5.421   6.079 -0.2070 -0.4416  0.0324
   29CHL1    H9 3290   2.106   5.313   6.073  2.0297  0.1105 -2.9721
   29CHL1   C10 3291   2.070   5.465   6.228  0.5036  0.6248 -0.0284
   29CHL1   C19 3292   1.985   5.599   6.238  1.2211  0.2272  0.3770
   29CHL1  H19A 3293   2.024   5.668   6.161  0.8339 -0.3412 -0.3424
   29CHL1  H19B 3294   1.879   5.597   6.205  0.9826  1.4910  1.0161
   29CHL1  H19C 3295   1.985   5.659   6.331  0.0780  0.8451 -0.0022
   29CHL1    C1 3296   2.008   5.355   6.314  0.5437 -0.6683 -0.1626
   29CHL1   H1A 3297   1.911   5.329   6.268 -0.9768  3.5822  0.1526
   29CHL1   H1B 3298   2.066   5.261   6.308 -0.8865 -1.5403 -0.7927
   29CHL1    C2 3299   1.991   5.402   6.455 -0.1056 -0.1304 -0.6039
   29CHL1   H2A 3300   1.953   5.317   6.516 -1.7034  1.2495  0.4129
   29CHL1   H2B 3301   1.925   5.489   6.472  0.5320  0.5846 -1.6866
   29CHL1   C20 3302   2.077   5.457   5.508 -0.3176  0.2842 -1.0480
   29CHL1   H20 3303   2.082   5.568   5.512 -0.5097  0.2791 -0.6620
   29CHL1   C21 3304   1.931   5.408   5.500  0.8020 -0.3869  0.2762
   29CHL1  H21A 3305   1.935   5.297   5.506  2.0654 -0.3937 -0.2252
   29CHL1  H21B 3306   1.876   5.441   5.410 -0.0668  3.0924  1.9008
   29CHL1  H21C 3307   1.862   5.448   5.578 -1.3630 -0.2751 -1.6209
   29CHL1   C22 3308   2.160   5.405   5.394  0.2600 -0.0364  0.2287
   29CHL1  H22A 3309   2.269   5.414   5.415  1.0593 -2.4565 -2.2333
   29CHL1  H22B 3310   2.151   5.294   5.387  0.9552 -0.0815 -0.0139
   29CHL1   C23 3311   2.122   5.458   5.258 -0.0830 -0.5283  0.2200
   29CHL1  H23A 3312   2.017   5.434   5.229 -0.2503 -1.2109  1.3153
   29CHL1  H23B 3313   2.122   5.569   5.248  0.7362 -0.3338  1.9054
   29CHL1   C24 3314   2.211   5.388   5.151  0.3321  0.0009  0.4598
   29CHL1  H24A 3315   2.319   5.411   5.164  1.0485 -2.5653 -0.2778
   29CHL1  H24B 3316   2.216   5.278   5.164  1.1605 -0.0209  0.0681
   29CHL1   C25 3317   2.163   5.421   5.009  0.1153  0.2808  0.4219
   29CHL1   H25 3318   2.144   5.530   5.001  2.9076  0.7237 -2.4492
   29CHL1   C26 3319   2.263   5.380   4.907 -0.4437  0.5366  0.5073
   29CHL1  H26A 3320   2.362   5.427   4.925 -0.2701 -0.0105  1.0322
   29CHL1  H26B 3321   2.291   5.273   4.917  0.3031  0.6419 -0.4285
   29CHL1  H26C 3322   2.227   5.383   4.802  1.4390  1.6949 -0.1445
   29CHL1   C27 3323   2.031   5.358   4.973  0.7227 -0.2779  0.7012
   29CHL1  H27A 3324   2.006   5.392   4.870 -0.0267  2.0703  1.6139
   29CHL1  H27B 3325   2.045   5.247   4.977  2.2817 -0.2333 -1.7223
   29CHL1  H27C 3326   1.949   5.385   5.043 -0.6890 -0.8344 -0.6785
   30CHL1    C3 3327   3.989   4.520   6.667  0.0690 -1.1461  0.5139
   30CHL1    H3 3328   3.918   4.605   6.670  3.6489  2.1405 -0.7702
   30CHL1    O3 3329   4.042   4.492   6.792  0.1302  0.1708  0.1803
   30CHL1   H3' 3330   4.085   4.406   6.796 -2.2149 -1.2064 -1.6507
   30CHL1    C4 3331   3.908   4.396   6.622  0.1926  0.5162  0.8332
   30CHL1   H4A 3332   3.994   4.325   6.619  2.4452  3.0666 -2.0131
   30CHL1   H4B 3333   3.831   4.363   6.694 -0.4825 -0.2717 -0.2186
   30CHL1    C5 3334   3.854   4.413   6.485 -0.0440  0.2592 -0.0787
   30CHL1    C6 3335   3.727   4.384   6.458  0.4934  0.0758  0.0454
   30CHL1    H6 3336   3.650   4.353   6.530 -0.7459  0.0862 -1.2400
   30CHL1    C7 3337   3.660   4.410   6.329  0.0631  0.5035 -0.2137
   30CHL1   H7A 3338   3.596   4.319   6.325  2.3453 -1.1896 -0.2996
   30CHL1   H7B 3339   3.612   4.510   6.336 -0.9307 -0.0568  4.4286
   30CHL1    C8 3340   3.755   4.402   6.209 -0.1949 -0.3020 -0.3395
   30CHL1    H8 3341   3.780   4.295   6.196  0.1497 -0.6157  2.2772
   30CHL1   C14 3342   3.692   4.446   6.076  0.0961  0.0106 -0.7868
   30CHL1   H14 3343   3.672   4.555   6.092 -2.0998 -0.5807  1.1656
   30CHL1   C15 3344   3.556   4.390   6.040 -0.4777  0.1827  0.9229
   30CHL1  H15A 3345   3.565   4.280   6.055  0.1656  0.0011 -0.6432
   30CHL1  H15B 3346   3.481   4.429   6.112 -0.9413 -0.9355  1.0666
   30CHL1   C16 3347   3.551   4.420   5.882  0.2427  0.2466 -0.2507
   30CHL1  H16A 3348   3.551   4.315   5.845  2.4349 -0.2039  0.8752
   30CHL1  H16B 3349   3.458   4.473   5.852  0.8290  0.7273 -1.2640
   30CHL1   C17 3350   3.680   4.495   5.848  1.0837  0.1849 -0.1205
   30CHL1   H17 3351   3.671   4.604   5.868  1.2224  0.3087 -0.7182
   30CHL1   C13 3352   3.783   4.443   5.949 -0.2054  0.0498 -0.2651
   30CHL1   C18 3353   3.824   4.297   5.924  0.4051 -0.2744 -0.1460
   30CHL1  H18A 3354   3.879   4.286   5.828 -0.9888  0.4852 -1.0518
   30CHL1  H18B 3355   3.906   4.263   5.992 -0.0929  2.0469  1.7479
   30CHL1  H18C 3356   3.739   4.226   5.930 -1.7651  1.9290 -2.4902
   30CHL1   C12 3357   3.897   4.538   5.987 -0.0702 -0.6513 -0.0282
   30CHL1  H12A 3358   3.968   4.541   5.901  0.4504  0.2596  0.4242
   30CHL1  H12B 3359   3.857   4.642   5.993 -0.1430 -0.7534  1.7423
   30CHL1   C11 3360   3.972   4.493   6.110 -0.8436 -0.2423  0.2883
   30CHL1  H11A 3361   4.013   4.393   6.086  0.9325  0.1273  1.5709
   30CHL1  H11B 3362   4.052   4.570   6.114  0.5654 -1.6976  0.6438
   30CHL1    C9 3363   3.881   4.484   6.233  0.5580 -0.0091 -0.0877
   30CHL1    H9 3364   3.841   4.587   6.245 -0.1093 -0.1959 -0.6170
   30CHL1   C10 3365   3.952   4.452   6.365 -0.5960 -0.3813 -0.0376
   30CHL1   C19 3366   4.048   4.333   6.350  0.3590  0.5694  0.2926
   30CHL1  H19A 3367   4.097   4.309   6.447 -0.8783  2.6835  1.5167
   30CHL1  H19B 3368   3.978   4.257   6.309  1.7309 -0.6637  0.1348
   30CHL1  H19C 3369   4.134   4.349   6.282 -1.0775 -1.2764 -2.1373
   30CHL1    C1 3370   4.032   4.577   6.425 -0.0291  0.1755 -0.0101
   30CHL1   H1A 3371   4.114   4.600   6.354  0.3457 -1.9379 -0.3511
   30CHL1   H1B 3372   3.967   4.665   6.441 -1.1170 -0.7580  0.9568
   30CHL1    C2 3373   4.098   4.558   6.569 -0.4446 -0.4809  0.6642
   30CHL1   H2A 3374   4.136   4.660   6.594 -0.2469 -0.3939  0.0257
   30CHL1   H2B 3375   4.189   4.494   6.564  1.4972  2.1404  0.0889
   30CHL1   C20 3376   3.709   4.487   5.700 -0.3019  0.7782  0.1754
   30CHL1   H20 3377   3.733   4.380   5.681 -1.7333  0.3229  0.8155
   30CHL1   C21 3378   3.833   4.574   5.665  0.3636  0.3259  0.7667
   30CHL1  H21A 3379   3.924   4.536   5.717 -0.0677  0.9582  2.0428
   30CHL1  H21B 3380   3.819   4.682   5.688 -3.6155  0.7660 -2.6593
   30CHL1  H21C 3381   3.866   4.576   5.559 -1.5505  1.0818  0.1354
   30CHL1   C22 3382   3.590   4.512   5.605  0.0087 -0.4097 -0.6930
   30CHL1  H22A 3383   3.508   4.440   5.627 -0.3300  0.3889  0.7734
   30CHL1  H22B 3384   3.546   4.613   5.613 -1.2262 -0.8422 -1.7073
   30CHL1   C23 3385   3.619   4.487   5.457 -0.2902 -0.4089 -0.4470
   30CHL1  H23A 3386   3.690   4.561   5.414 -0.2650 -0.9268 -1.3141
   30CHL1  H23B 3387   3.650   4.381   5.444 -0.3555 -0.2168 -2.4142
   30CHL1   C24 3388   3.494   4.512   5.376 -0.5726  0.0482 -0.2469
   30CHL1  H24A 3389   3.421   4.431   5.393 -2.0443  1.2312 -0.6579
   30CHL1  H24B 3390   3.439   4.603   5.408 -1.7076 -0.0269 -1.8614
   30CHL1   C25 3391   3.530   4.523   5.228 -0.3299  0.4689  0.7666
   30CHL1   H25 3392   3.618   4.589   5.213  0.6637 -1.0447 -0.5503
   30CHL1   C26 3393   3.578   4.392   5.155  0.9412  0.9659  0.2001
   30CHL1  H26A 3394   3.662   4.343   5.209  0.3312  0.6474  0.8814
   30CHL1  H26B 3395   3.490   4.325   5.150  0.6338  1.4294 -0.6663
   30CHL1  H26C 3396   3.612   4.415   5.052  2.7191 -1.2819  0.2004
   30CHL1   C27 3397   3.411   4.582   5.158 -0.3334 -0.4409 -0.0996
   30CHL1  H27A 3398   3.328   4.509   5.150 -0.9584  0.4347 -2.6693
   30CHL1  H27B 3399   3.383   4.678   5.206 -0.5975  0.3065 -1.6751
   30CHL1  H27C 3400   3.436   4.613   5.054 -0.0351  0.1368  0.1425
   31CHL1    C3 3401   3.721   5.848   6.549 -1.1182  0.1499 -0.1155
   31CHL1    H3 3402   3.728   5.953   6.586  3.9878 -0.7479  2.4399
   31CHL1    O3 3403   3.709   5.768   6.669 -0.0299 -0.1834 -0.5096
   31CHL1   H3' 3404   3.794   5.763   6.712 -0.8396 -0.6594  1.0972
   31CHL1    C4 3405   3.599   5.828   6.459 -0.3350  0.0569  0.4324
   31CHL1   H4A 3406   3.574   5.720   6.466 -2.1526  0.5213  3.0999
   31CHL1   H4B 3407   3.514   5.874   6.514  0.0841  0.9770  0.3208
   31CHL1    C5 3408   3.624   5.874   6.314  0.2677  0.3284 -0.7343
   31CHL1    C6 3409   3.526   5.949   6.255  0.0955  0.3333 -0.5050
   31CHL1    H6 3410   3.430   5.959   6.307  1.0482  0.0669  1.4017
   31CHL1    C7 3411   3.536   5.992   6.111 -0.0905  0.8096 -0.2517
   31CHL1   H7A 3412   3.441   5.974   6.056 -0.8882  1.3936  0.8951
   31CHL1   H7B 3413   3.553   6.102   6.108 -1.3654  1.0319  0.3297
   31CHL1    C8 3414   3.647   5.922   6.035  0.0774  0.2557 -0.2919
   31CHL1    H8 3415   3.612   5.817   6.019  1.7001 -0.0599 -2.0523
   31CHL1   C14 3416   3.677   5.989   5.898  0.5281  0.2760 -0.6599
   31CHL1   H14 3417   3.715   6.091   5.921  1.7789  0.2052 -2.2744
   31CHL1   C15 3418   3.549   6.008   5.803 -0.2021 -0.8435 -0.1065
   31CHL1  H15A 3419   3.498   5.909   5.809 -2.0977  0.0657 -0.5335
   31CHL1  H15B 3420   3.477   6.082   5.842 -0.3191 -1.1214  0.2126
   31CHL1   C16 3421   3.603   6.057   5.672 -0.3860 -0.5142  0.8798
   31CHL1  H16A 3422   3.553   5.996   5.593 -1.3151 -1.4662  2.1668
   31CHL1  H16B 3423   3.594   6.166   5.657  1.3626 -0.6996 -2.6151
   31CHL1   C17 3424   3.760   6.016   5.678 -0.0430 -0.4162  0.1879
   31CHL1   H17 3425   3.815   6.110   5.701 -1.5953  0.8581 -1.0762
   31CHL1   C13 3426   3.776   5.922   5.807  0.3599 -0.0910  0.7474
   31CHL1   C18 3427   3.729   5.783   5.762 -0.3107 -0.2782  0.1718
   31CHL1  H18A 3428   3.816   5.744   5.705 -0.3554  1.8970 -1.5261
   31CHL1  H18B 3429   3.707   5.727   5.855 -1.2905  0.1359  0.2003
   31CHL1  H18C 3430   3.641   5.774   5.694 -0.1201  0.0472 -0.1232
   31CHL1   C12 3431   3.909   5.919   5.882 -0.5351  0.4439  0.5185
   31CHL1  H12A 3432   3.986   5.855   5.834 -0.3280  1.0861 -0.0132
   31CHL1  H12B 3433   3.955   6.020   5.885 -0.9283  0.6180  0.7433
   31CHL1   C11 3434   3.894   5.853   6.023 -0.2108  0.0883 -0.3447
   31CHL1  H11A 3435   3.874   5.745   6.002 -0.0521  0.4166 -2.4351
   31CHL1  H11B 3436   3.988   5.852   6.082  0.9696 -3.9408 -1.9397
   31CHL1    C9 3437   3.781   5.913   6.115  0.7538 -0.2519  0.5690
   31CHL1    H9 3438   3.804   6.020   6.135 -2.3091  0.8831 -1.3611
   31CHL1   C10 3439   3.762   5.839   6.257 -0.1644 -0.2654  0.2837
   31CHL1   C19 3440   3.755   5.690   6.232  0.1302  0.0501  0.2329
   31CHL1  H19A 3441   3.857   5.646   6.221 -0.3449 -1.6762  2.0911
   31CHL1  H19B 3442   3.717   5.635   6.321  0.1453 -1.6325 -0.7622
   31CHL1  H19C 3443   3.690   5.661   6.147 -1.7395 -0.2703  1.7124
   31CHL1    C1 3444   3.868   5.881   6.354 -0.3732  0.2859 -0.8760
   31CHL1   H1A 3445   3.968   5.848   6.317 -0.0890  0.4315 -0.2554
   31CHL1   H1B 3446   3.876   5.991   6.368 -0.0482  0.2944 -1.1027
   31CHL1    C2 3447   3.860   5.812   6.492  0.3050 -0.5034 -0.5531
   31CHL1   H2A 3448   3.944   5.832   6.562  1.2959  1.7836 -2.2899
   31CHL1   H2B 3449   3.855   5.701   6.480  0.2428 -0.5418 -0.1866
   31CHL1   C20 3450   3.829   5.995   5.537  0.0069 -0.4299  0.2636
   31CHL1   H20 3451   3.790   5.897   5.502 -0.4854  0.1148 -0.7680
   31CHL1   C21 3452   3.983   5.974   5.551  0.0731 -0.2540 -0.4424
   31CHL1  H21A 3453   3.997   5.884   5.615 -2.8381 -0.6823 -0.2737
   31CHL1  H21B 3454   4.032   6.055   5.610 -0.4333  0.1049 -0.5091
   31CHL1  H21C 3455   4.030   5.962   5.451  0.5706  0.0468 -0.2489
   31CHL1   C22 3456   3.799   6.094   5.430  0.0216 -0.0166  1.0262
   31CHL1  H22A 3457   3.736   6.179   5.463  0.6426  0.5613  0.7402
   31CHL1  H22B 3458   3.900   6.120   5.393  0.5068 -4.2901 -1.4138
   31CHL1   C23 3459   3.727   6.027   5.304  0.6501 -0.0349 -0.0784
   31CHL1  H23A 3460   3.760   5.923   5.281 -0.1563 -0.2296 -0.3925
   31CHL1  H23B 3461   3.623   6.016   5.342  0.9017  1.2627  1.0335
   31CHL1   C24 3462   3.732   6.116   5.176  0.2491 -0.1447 -0.7680
   31CHL1  H24A 3463   3.689   6.218   5.191  0.6103 -0.2357  1.0839
   31CHL1  H24B 3464   3.838   6.132   5.148  0.4439 -0.8120 -0.4329
   31CHL1   C25 3465   3.666   6.059   5.053 -0.0258  0.5088  0.2365
   31CHL1   H25 3466   3.709   5.956   5.044 -0.9517  0.2183 -1.3163
   31CHL1   C26 3467   3.517   6.047   5.078 -0.2316  0.7165  0.3087
   31CHL1  H26A 3468   3.446   6.051   4.993 -1.3189 -2.1107  0.9492
   31CHL1  H26B 3469   3.496   5.957   5.141  0.1688  0.7247  0.4591
   31CHL1  H26C 3470   3.484   6.124   5.151 -0.8783 -0.7251  1.6038
   31CHL1   C27 3471   3.687   6.138   4.926 -0.5841  0.2133 -0.0451
   31CHL1  H27A 3472   3.640   6.083   4.842 -2.3636  0.9732  0.4098
   31CHL1  H27B 3473   3.636   6.235   4.939 -1.3889 -0.3624  1.3709
   31CHL1  H27C 3474   3.793   6.133   4.893  0.2323 -1.4412  2.5140
   32CHL1    C3 3475   4.606   2.093   6.036 -0.3499 -0.3307  0.2429
   32CHL1    H3 3476   4.519   2.030   6.063 -0.8910 -0.4197 -1.6212
   32CHL1    O3 3477   4.686   2.133   6.145 -0.9624 -0.6682 -0.4333
   32CHL1   H3' 3478   4.621   2.143   6.214 -1.6282  2.1654 -1.3701
   32CHL1    C4 3479   4.693   2.006   5.937 -0.4044  0.4248  0.6767
   32CHL1   H4A 3480   4.787   2.058   5.909  0.5265 -1.5286  0.0066
   32CHL1   H4B 3481   4.734   1.917   5.990  1.9471  1.3153  0.4738
   32CHL1    C5 3482   4.616   1.969   5.818 -0.0747 -0.0469 -0.1013
   32CHL1    C6 3483   4.599   1.840   5.782  0.5085 -0.2903 -0.2450
   32CHL1    H6 3484   4.651   1.771   5.850  2.3316  0.5883 -0.6903
   32CHL1    C7 3485   4.542   1.800   5.644 -0.2316  0.0091 -0.8067
   32CHL1   H7A 3486   4.604   1.728   5.586 -0.0812  0.6898 -1.4892
   32CHL1   H7B 3487   4.446   1.745   5.657 -0.1913  0.3343  1.1648
   32CHL1    C8 3488   4.512   1.920   5.548 -0.1285  0.4930  0.3771
   32CHL1    H8 3489   4.605   1.952   5.496 -2.5853  1.9271 -3.6804
   32CHL1   C14 3490   4.411   1.879   5.447  0.3397 -0.6413  0.6346
   32CHL1   H14 3491   4.324   1.846   5.507  1.2179 -0.5094  2.0035
   32CHL1   C15 3492   4.446   1.758   5.362  0.0916 -0.2409 -0.2264
   32CHL1  H15A 3493   4.545   1.781   5.318  1.1199 -2.4453  0.7651
   32CHL1  H15B 3494   4.439   1.661   5.416  0.3007 -0.2244 -0.1683
   32CHL1   C16 3495   4.334   1.765   5.260 -0.1840 -0.1305 -0.0225
   32CHL1  H16A 3496   4.376   1.742   5.159  0.4620 -1.9683  0.6229
   32CHL1  H16B 3497   4.261   1.686   5.287 -1.0418  1.4827  2.6684
   32CHL1   C17 3498   4.273   1.903   5.262 -0.2373 -0.4775  0.1156
   32CHL1   H17 3499   4.176   1.889   5.315  0.0263 -0.5003  0.5915
   32CHL1   C13 3500   4.368   1.989   5.357 -0.0602  0.5415  0.8249
   32CHL1   C18 3501   4.489   2.046   5.269 -0.3000 -0.1416 -0.3376
   32CHL1  H18A 3502   4.530   1.970   5.199  0.5894 -1.2750  1.3512
   32CHL1  H18B 3503   4.456   2.134   5.210 -0.5652 -0.5061 -0.7390
   32CHL1  H18C 3504   4.571   2.075   5.338 -1.9332 -0.0558  1.6783
   32CHL1   C12 3505   4.298   2.107   5.434  0.2764  0.2354 -0.2161
   32CHL1  H12A 3506   4.278   2.193   5.367  2.0819  0.5377 -0.4229
   32CHL1  H12B 3507   4.201   2.079   5.480  0.4279 -0.3842 -0.2672
   32CHL1   C11 3508   4.391   2.152   5.549 -0.1245  0.1968  0.1891
   32CHL1  H11A 3509   4.471   2.213   5.502 -1.3042  1.6995  0.0779
   32CHL1  H11B 3510   4.333   2.218   5.617 -0.5476  1.2828 -1.1758
   32CHL1    C9 3511   4.449   2.035   5.635 -0.0541  0.4635 -0.4982
   32CHL1    H9 3512   4.364   1.998   5.696  0.0252  0.5226 -0.3531
   32CHL1   C10 3513   4.554   2.088   5.741  0.2308 -0.2612  0.4342
   32CHL1   C19 3514   4.677   2.165   5.672 -0.0189 -0.4243 -0.0779
   32CHL1  H19A 3515   4.735   2.114   5.591 -0.1146  1.8439 -1.6557
   32CHL1  H19B 3516   4.641   2.254   5.616  0.0822  0.8885  1.8724
   32CHL1  H19C 3517   4.743   2.207   5.751 -0.7780  0.6156  0.0186
   32CHL1    C1 3518   4.485   2.194   5.833  0.7900  0.8213 -0.7177
   32CHL1   H1A 3519   4.461   2.286   5.775  1.2800  0.8874 -0.8218
   32CHL1   H1B 3520   4.388   2.148   5.863  1.6686 -0.1581  0.7692
   32CHL1    C2 3521   4.561   2.224   5.968  0.0222  0.3421  1.0533
   32CHL1   H2A 3522   4.486   2.281   6.027 -1.0667  1.0532 -0.9163
   32CHL1   H2B 3523   4.648   2.287   5.940 -0.4465  0.1491 -1.0544
   32CHL1   C20 3524   4.245   1.953   5.122  1.7320 -0.0829  0.2746
   32CHL1   H20 3525   4.335   1.963   5.056 -0.2587  0.0763 -2.6065
   32CHL1   C21 3526   4.175   2.099   5.119  0.5377  0.1644 -1.0227
   32CHL1  H21A 3527   4.076   2.084   5.168  0.4746  0.3968 -1.0768
   32CHL1  H21B 3528   4.171   2.131   5.012 -0.4167 -0.6589 -1.2600
   32CHL1  H21C 3529   4.235   2.170   5.179  1.0908 -1.5188  0.5189
   32CHL1   C22 3530   4.152   1.850   5.040 -0.2350 -0.2608 -0.5305
   32CHL1  H22A 3531   4.134   1.878   4.935 -0.9910 -1.0145 -0.6156
   32CHL1  H22B 3532   4.195   1.747   5.036 -0.2883 -0.4822  2.2449
   32CHL1   C23 3533   4.020   1.803   5.114  0.8443 -1.0105  0.1653
   32CHL1  H23A 3534   4.039   1.753   5.211 -0.9303 -1.7774  0.1587
   32CHL1  H23B 3535   3.961   1.896   5.125  0.8144 -1.1064  0.8759
   32CHL1   C24 3536   3.933   1.718   5.022 -0.1551 -0.0881  0.3326
   32CHL1  H24A 3537   3.942   1.752   4.917  2.0908  1.3818  0.9057
   32CHL1  H24B 3538   3.969   1.614   5.034  1.3339  0.4992  1.4202
   32CHL1   C25 3539   3.787   1.715   5.076  0.5140  0.5084  0.2884
   32CHL1   H25 3540   3.754   1.817   5.106 -2.5720 -0.1863 -0.3147
   32CHL1   C26 3541   3.701   1.675   4.952 -0.0813 -0.2284 -0.7665
   32CHL1  H26A 3542   3.734   1.582   4.900 -0.3602 -0.0856 -1.2039
   32CHL1  H26B 3543   3.599   1.653   4.992  0.1699 -0.6032 -0.3121
   32CHL1  H26C 3544   3.696   1.763   4.884 -1.4230  0.5142  0.2446
   32CHL1   C27 3545   3.773   1.608   5.192 -0.3656  0.1861 -0.1362
   32CHL1  H27A 3546   3.668   1.606   5.229 -0.5150  4.2703  0.1230
   32CHL1  H27B 3547   3.800   1.506   5.157 -1.0770 -0.4029  0.9795
   32CHL1  H27C 3548   3.836   1.617   5.283  1.5797 -1.4168 -1.2544
   33CHL1    C3 3549   1.469   3.948   6.163  0.6564  0.0855 -0.4991
   33CHL1    H3 3550   1.545   4.026   6.140 -0.1332  1.1539  0.4029
   33CHL1    O3 3551   1.435   3.960   6.300  0.2825 -0.2890  1.0145
   33CHL1   H3' 3552   1.522   3.970   6.339  0.9422 -0.0427 -0.4370
   33CHL1    C4 3553   1.342   3.972   6.084  0.7538 -0.5968  0.1700
   33CHL1   H4A 3554   1.261   3.906   6.120  0.4873 -0.4645 -0.1800
   33CHL1   H4B 3555   1.305   4.075   6.099 -1.4462 -1.3190 -0.0315
   33CHL1    C5 3556   1.380   3.941   5.939 -0.4712  0.1642 -0.0847
   33CHL1    C6 3557   1.350   4.032   5.844  0.4318  0.1603 -0.1093
   33CHL1    H6 3558   1.291   4.121   5.869 -3.1997 -1.6152 -1.5910
   33CHL1    C7 3559   1.371   4.015   5.697 -0.7513 -0.0913  0.4962
   33CHL1   H7A 3560   1.290   4.059   5.635  0.2372  0.5882 -0.3426
   33CHL1   H7B 3561   1.465   4.066   5.667 -0.4448 -1.0870 -0.3022
   33CHL1    C8 3562   1.389   3.862   5.666  0.3606  0.1422  0.1595
   33CHL1    H8 3563   1.293   3.808   5.683  0.4299 -0.7517 -1.9438
   33CHL1   C14 3564   1.432   3.852   5.516  0.3588 -0.3542 -0.1071
   33CHL1   H14 3565   1.528   3.908   5.522 -0.0842  0.3569  0.5624
   33CHL1   C15 3566   1.346   3.924   5.408  0.6623 -0.1032 -0.1079
   33CHL1  H15A 3567   1.239   3.901   5.427  0.5837  0.4010  0.0499
   33CHL1  H15B 3568   1.351   4.034   5.414  0.3664 -0.1128  0.4091
   33CHL1   C16 3569   1.404   3.865   5.277 -0.9678 -0.3035 -0.5789
   33CHL1  H16A 3570   1.320   3.844   5.207 -2.2650  1.2737  0.4367
   33CHL1  H16B 3571   1.469   3.944   5.236  0.0926 -1.1478 -0.5782
   33CHL1   C17 3572   1.496   3.738   5.312 -0.5142 -0.1843 -0.0401
   33CHL1   H17 3573   1.597   3.777   5.287 -0.9733  0.8594 -0.3403
   33CHL1   C13 3574   1.471   3.714   5.464  0.2866 -0.1830 -0.3121
   33CHL1   C18 3575   1.334   3.630   5.469 -0.2603 -0.7400  0.3689
   33CHL1  H18A 3576   1.266   3.662   5.387 -0.6530 -2.0449  0.1635
   33CHL1  H18B 3577   1.349   3.521   5.457 -0.9639 -0.6686 -1.4461
   33CHL1  H18C 3578   1.286   3.644   5.569 -1.5561 -3.1859  0.1611
   33CHL1   C12 3579   1.580   3.650   5.550  0.2509 -0.5382 -0.1200
   33CHL1  H12A 3580   1.589   3.546   5.513 -0.3059 -0.6516  0.0664
   33CHL1  H12B 3581   1.674   3.707   5.530 -1.1023  1.9375  0.2266
   33CHL1   C11 3582   1.549   3.658   5.696 -0.6034 -0.7496 -0.6870
   33CHL1  H11A 3583   1.473   3.581   5.723 -0.1955 -1.3269 -1.1493
   33CHL1  H11B 3584   1.635   3.621   5.756 -1.2713 -3.7315 -1.4006
   33CHL1    C9 3585   1.501   3.798   5.749  0.4337  0.4453 -0.3457
   33CHL1    H9 3586   1.589   3.866   5.748  0.7416  0.0522 -0.7706
   33CHL1   C10 3587   1.458   3.811   5.904  0.1154 -0.6742  0.1246
   33CHL1   C19 3588   1.361   3.684   5.936  0.3882  0.0169  0.0956
   33CHL1  H19A 3589   1.279   3.672   5.862 -1.5682 -0.2823  2.2023
   33CHL1  H19B 3590   1.418   3.589   5.940 -1.7809 -1.3689  0.1728
   33CHL1  H19C 3591   1.320   3.702   6.038 -0.3013  1.5425 -0.4197
   33CHL1    C1 3592   1.593   3.801   5.988  0.4397  0.2813 -0.0161
   33CHL1   H1A 3593   1.653   3.708   5.982 -1.4126 -0.9202 -0.8784
   33CHL1   H1B 3594   1.662   3.883   5.962 -0.9835  1.6510  0.3602
   33CHL1    C2 3595   1.548   3.819   6.138  0.1903 -0.7097  0.1633
   33CHL1   H2A 3596   1.637   3.821   6.205 -0.1779 -0.5940  0.6512
   33CHL1   H2B 3597   1.488   3.736   6.182 -2.9680  1.1770 -0.3310
   33CHL1   C20 3598   1.471   3.622   5.209  0.0382  0.1327  0.3949
   33CHL1   H20 3599   1.365   3.590   5.215  0.6446 -1.8146  2.3717
   33CHL1   C21 3600   1.548   3.496   5.254 -0.3641  0.1155 -0.1525
   33CHL1  H21A 3601   1.655   3.527   5.262 -0.5834  1.1147 -0.8555
   33CHL1  H21B 3602   1.545   3.424   5.169 -0.7573  1.3012 -1.1794
   33CHL1  H21C 3603   1.510   3.439   5.341 -1.0514 -2.5486 -2.0582
   33CHL1   C22 3604   1.492   3.651   5.059  0.3155  0.3469 -0.0445
   33CHL1  H22A 3605   1.486   3.550   5.012  0.5064  0.4701 -0.3359
   33CHL1  H22B 3606   1.404   3.703   5.015  1.3841  0.7035 -1.8670
   33CHL1   C23 3607   1.621   3.718   5.019 -0.3383 -0.2628  0.4805
   33CHL1  H23A 3608   1.634   3.815   5.071 -0.7947 -0.2215  0.5256
   33CHL1  H23B 3609   1.707   3.656   5.052  0.4841  0.2971 -0.5490
   33CHL1   C24 3610   1.631   3.734   4.866 -0.8046  0.4660  0.4344
   33CHL1  H24A 3611   1.636   3.634   4.818 -0.9007  1.4691 -1.7834
   33CHL1  H24B 3612   1.545   3.782   4.816  0.9800  1.7949 -1.5214
   33CHL1   C25 3613   1.761   3.806   4.819  0.1703  0.3608 -1.4115
   33CHL1   H25 3614   1.762   3.907   4.866 -1.3874 -0.0125 -0.4949
   33CHL1   C26 3615   1.890   3.731   4.850 -0.7297 -0.0001  0.1261
   33CHL1  H26A 3616   1.909   3.734   4.959 -0.4299 -0.3911  0.0858
   33CHL1  H26B 3617   1.889   3.629   4.805  0.4778  0.0929 -0.1312
   33CHL1  H26C 3618   1.980   3.771   4.799 -1.5622  2.0813  0.2092
   33CHL1   C27 3619   1.767   3.822   4.668  0.2549  0.1368  0.3798
   33CHL1  H27A 3620   1.677   3.877   4.632  0.8086  0.9176  0.1545
   33CHL1  H27B 3621   1.839   3.896   4.627 -1.4984  0.0618 -3.1700
   33CHL1  H27C 3622   1.762   3.725   4.615  0.0416  0.6818 -0.6069
   34CHL1    C3 3623   5.155   3.536   6.197 -0.6801  0.7286  0.1135
   34CHL1    H3 3624   5.249   3.596   6.199  0.5476 -1.1314  2.0715
   34CHL1    O3 3625   5.111   3.513   6.327  0.3213 -0.1569 -0.8529
   34CHL1   H3' 3626   5.168   3.445   6.362 -1.0132 -0.8816 -0.0125
   34CHL1    C4 3627   5.048   3.625   6.127 -0.4665 -0.2800 -0.6333
   34CHL1   H4A 3628   4.948   3.581   6.151  0.3633 -1.4594  0.8196
   34CHL1   H4B 3629   5.046   3.728   6.169 -2.3093  0.0334 -1.3579
   34CHL1    C5 3630   5.065   3.622   5.976  0.3563 -0.1529 -0.1116
   34CHL1    C6 3631   5.069   3.738   5.909  0.0384 -0.1790  0.5860
   34CHL1    H6 3632   5.043   3.831   5.961 -1.4459 -1.5941  2.4749
   34CHL1    C7 3633   5.089   3.747   5.766 -0.7543  0.3147 -0.1898
   34CHL1   H7A 3634   5.018   3.822   5.724 -2.9198 -1.4153  0.2132
   34CHL1   H7B 3635   5.194   3.774   5.742  0.0040 -1.0113  1.4930
   34CHL1    C8 3636   5.059   3.613   5.684  0.5392 -0.0879  0.2161
   34CHL1    H8 3637   4.950   3.596   5.676  0.7400 -1.0659 -0.6031
   34CHL1   C14 3638   5.115   3.624   5.545 -0.1850 -0.2402  0.3029
   34CHL1   H14 3639   5.224   3.645   5.550 -0.6372  3.1969 -1.8141
   34CHL1   C15 3640   5.062   3.738   5.460  0.2927  0.4269  0.0805
   34CHL1  H15A 3641   4.952   3.749   5.470  0.2086  0.4991 -0.9009
   34CHL1  H15B 3642   5.098   3.839   5.489  1.1174  0.5784 -1.4162
   34CHL1   C16 3643   5.096   3.699   5.312  0.1799  0.7786 -0.0752
   34CHL1  H16A 3644   5.003   3.713   5.254 -2.5019 -1.5696  3.2975
   34CHL1  H16B 3645   5.185   3.749   5.268  1.9663 -3.0845 -1.3703
   34CHL1   C17 3646   5.141   3.549   5.317 -0.1706 -0.7851  0.7219
   34CHL1   H17 3647   5.251   3.540   5.312 -0.3239 -2.0627 -2.0354
   34CHL1   C13 3648   5.085   3.500   5.456  0.1193 -0.4870  0.1213
   34CHL1   C18 3649   4.937   3.469   5.434 -0.1937 -1.0048  0.1492
   34CHL1  H18A 3650   4.922   3.379   5.370  2.3122 -2.0413  0.9160
   34CHL1  H18B 3651   4.883   3.445   5.528 -1.1777  2.2421  0.5702
   34CHL1  H18C 3652   4.883   3.561   5.400  0.0621 -0.7496  0.4266
   34CHL1   C12 3653   5.162   3.388   5.530  0.2239 -0.1636  0.1180
   34CHL1  H12A 3654   5.159   3.295   5.469  2.2644  0.0314 -0.3782
   34CHL1  H12B 3655   5.267   3.422   5.544  0.0643 -0.2891  1.7394
   34CHL1   C11 3656   5.108   3.370   5.676  0.1656 -0.5441  0.3028
   34CHL1  H11A 3657   5.001   3.341   5.665 -0.3601  1.6525 -0.8923
   34CHL1  H11B 3658   5.154   3.287   5.734 -0.5618 -0.9753  0.2731
   34CHL1    C9 3659   5.129   3.500   5.755  0.2828 -0.3160 -0.1430
   34CHL1    H9 3660   5.237   3.527   5.750  0.4098 -0.0248  2.5219
   34CHL1   C10 3661   5.089   3.484   5.902 -0.1525 -0.2610 -0.0762
   34CHL1   C19 3662   4.954   3.412   5.908 -0.5240  0.7533 -0.2375
   34CHL1  H19A 3663   4.913   3.410   6.011 -0.0797 -3.0136 -0.0101
   34CHL1  H19B 3664   4.886   3.460   5.834 -0.1266  1.3266 -0.2455
   34CHL1  H19C 3665   4.968   3.309   5.870 -2.0545  1.1496 -2.0752
   34CHL1    C1 3666   5.200   3.411   5.979  0.1080  0.2518  0.0314
   34CHL1   H1A 3667   5.197   3.309   5.936  1.4013  0.2888 -0.1925
   34CHL1   H1B 3668   5.301   3.450   5.954  0.7206 -1.8883 -1.0614
   34CHL1    C2 3669   5.180   3.403   6.122  0.3043  0.0339 -0.6340
   34CHL1   H2A 3670   5.274   3.358   6.161  0.1983 -1.1359 -1.6777
   34CHL1   H2B 3671   5.095   3.338   6.151 -0.4732  1.1673 -0.2943
   34CHL1   C20 3672   5.100   3.475   5.196 -0.2767 -0.5032  0.5223
   34CHL1   H20 3673   4.990   3.459   5.189 -0.9174  3.2083 -0.4781
   34CHL1   C21 3674   5.167   3.334   5.190  0.4309 -0.1927 -0.0048
   34CHL1  H21A 3675   5.142   3.269   5.276  0.5322  1.8651  1.6546
   34CHL1  H21B 3676   5.277   3.348   5.183  0.5179 -1.0095 -0.3784
   34CHL1  H21C 3677   5.142   3.279   5.097  2.0219 -0.9518 -0.0330
   34CHL1   C22 3678   5.121   3.553   5.059 -0.7266  0.0527 -0.2196
   34CHL1  H22A 3679   5.056   3.495   4.991 -1.3412 -0.2014  0.5689
   34CHL1  H22B 3680   5.071   3.653   5.056 -0.2015  0.4330  1.9220
   34CHL1   C23 3681   5.276   3.565   5.026  0.5989  0.4135 -0.7641
   34CHL1  H23A 3682   5.324   3.637   5.096 -0.8331  0.6412  0.0350
   34CHL1  H23B 3683   5.327   3.467   5.019  1.6494  0.8553  0.3630
   34CHL1   C24 3684   5.292   3.638   4.892  0.4348 -0.6358 -0.0352
   34CHL1  H24A 3685   5.209   3.617   4.821  1.7119  1.4161 -2.2905
   34CHL1  H24B 3686   5.260   3.744   4.899  0.6224 -0.3857 -2.2777
   34CHL1   C25 3687   5.424   3.614   4.818 -0.0815  0.0543 -0.2289
   34CHL1   H25 3688   5.429   3.503   4.810  0.9142  0.0803 -0.0991
   34CHL1   C26 3689   5.406   3.659   4.675  0.3175  0.8682  0.4471
   34CHL1  H26A 3690   5.492   3.642   4.607 -0.2022 -1.7877  0.3396
   34CHL1  H26B 3691   5.326   3.595   4.632  1.7912 -1.8232  1.4410
   34CHL1  H26C 3692   5.375   3.765   4.662 -2.2825  0.2179  0.8605
   34CHL1   C27 3693   5.549   3.672   4.885  0.1903  0.6887  0.8039
   34CHL1  H27A 3694   5.650   3.674   4.839  1.0683 -2.2975  2.3725
   34CHL1  H27B 3695   5.530   3.780   4.904  2.8509  1.2591  0.5931
   34CHL1  H27C 3696   5.562   3.613   4.978 -1.6866  0.4910  0.9824
   35CHL1    C3 3697   4.314   5.944   6.399  0.1295  0.1870 -0.3088
   35CHL1    H3 3698   4.255   5.850   6.395 -0.6656  0.5886  1.2136
   35CHL1    O3 3699   4.319   5.987   6.531  0.0466 -0.3092 -0.1443
   35CHL1   H3' 3700   4.374   6.065   6.521  2.1963 -1.6416  0.5695
   35CHL1    C4 3701   4.462   5.921   6.356  0.4628  0.3616  0.7929
   35CHL1   H4A 3702   4.528   6.005   6.387  1.4065  0.7628 -1.9981
   35CHL1   H4B 3703   4.491   5.826   6.406 -0.3549 -1.1808 -1.4982
   35CHL1    C5 3704   4.470   5.909   6.205 -0.3969 -0.6144 -0.0478
   35CHL1    C6 3705   4.522   5.800   6.148  0.5824  0.0258  0.2829
   35CHL1    H6 3706   4.562   5.725   6.217  0.2860  0.3243  0.7885
   35CHL1    C7 3707   4.535   5.770   6.002  0.1625 -0.7995  0.4617
   35CHL1   H7A 3708   4.631   5.722   5.973  0.9353  1.8852 -1.9443
   35CHL1   H7B 3709   4.446   5.709   5.975 -0.4614  0.6600 -0.9572
   35CHL1    C8 3710   4.513   5.902   5.921 -0.3560 -1.3885  0.1299
   35CHL1    H8 3711   4.604   5.963   5.939 -1.9056  0.8588  0.9443
   35CHL1   C14 3712   4.505   5.866   5.774  0.6703  0.3512 -1.0265
   35CHL1   H14 3713   4.415   5.801   5.774  0.3777  0.1064  5.2865
   35CHL1   C15 3714   4.627   5.800   5.718  0.4537 -0.0687  0.0077
   35CHL1  H15A 3715   4.718   5.851   5.756 -0.0173  0.5909  0.2700
   35CHL1  H15B 3716   4.627   5.694   5.750 -0.2858 -0.3669 -0.9461
   35CHL1   C16 3717   4.597   5.813   5.568  0.2156  0.1222 -0.0412
   35CHL1  H16A 3718   4.688   5.857   5.522  1.6062 -0.1933  2.2737
   35CHL1  H16B 3719   4.584   5.709   5.528  1.1488  0.0931 -0.3003
   35CHL1   C17 3720   4.475   5.911   5.549  0.4228  0.5821  0.6125
   35CHL1   H17 3721   4.382   5.849   5.548  3.2780 -4.1795  1.9010
   35CHL1   C13 3722   4.468   5.985   5.677 -0.4834 -0.4695 -0.0870
   35CHL1   C18 3723   4.587   6.091   5.682 -0.0670  0.1579 -0.3576
   35CHL1  H18A 3724   4.562   6.194   5.649  0.3753  0.4217  0.1102
   35CHL1  H18B 3725   4.622   6.101   5.787  0.1961  1.9474 -0.5770
   35CHL1  H18C 3726   4.675   6.056   5.624  0.4479 -1.5160  1.3458
   35CHL1   C12 3727   4.335   6.045   5.728 -0.1344 -0.2865  0.4782
   35CHL1  H12A 3728   4.336   6.132   5.659  3.7495 -2.9820 -3.4360
   35CHL1  H12B 3729   4.249   5.977   5.710  1.0384 -1.6880 -0.0880
   35CHL1   C11 3730   4.347   6.100   5.869  0.3621  0.5179 -0.1471
   35CHL1  H11A 3731   4.427   6.178   5.867  2.7379 -1.7366  1.1220
   35CHL1  H11B 3732   4.248   6.146   5.892  0.4731  0.9260 -0.4665
   35CHL1    C9 3733   4.388   5.979   5.963  0.1245 -0.2451  0.0431
   35CHL1    H9 3734   4.305   5.908   5.945  0.7359 -0.8304 -0.5626
   35CHL1   C10 3735   4.391   6.018   6.114 -0.0375  0.1737 -1.5530
   35CHL1   C19 3736   4.473   6.146   6.137 -0.7707  0.2413 -0.1369
   35CHL1  H19A 3737   4.429   6.232   6.083 -0.5098  2.3404  2.8088
   35CHL1  H19B 3738   4.474   6.181   6.242 -0.6489  1.4662 -0.5355
   35CHL1  H19C 3739   4.582   6.136   6.119 -0.7215  2.2083 -1.1301
   35CHL1    C1 3740   4.241   6.030   6.167  0.3972  0.0118 -0.3252
   35CHL1   H1A 3741   4.197   6.123   6.124 -0.7756  0.1455  1.0616
   35CHL1   H1B 3742   4.184   5.946   6.122 -0.5815  0.0986  0.7079
   35CHL1    C2 3743   4.240   6.050   6.314  0.1759 -0.2214  0.2222
   35CHL1   H2A 3744   4.132   6.054   6.338  0.2154  2.7073  0.3043
   35CHL1   H2B 3745   4.289   6.147   6.338  1.1813 -0.8979  1.0092
   35CHL1   C20 3746   4.496   5.993   5.415 -0.2566 -0.4504  0.2782
   35CHL1   H20 3747   4.577   6.068   5.428 -1.7640  1.3399 -0.3885
   35CHL1   C21 3748   4.368   6.075   5.375  0.3337 -0.0742  0.2746
   35CHL1  H21A 3749   4.345   6.162   5.440 -0.8236  0.7662 -1.1969
   35CHL1  H21B 3750   4.276   6.014   5.373  0.7443 -0.6817 -0.8828
   35CHL1  H21C 3751   4.385   6.137   5.284 -0.2498  1.8317  1.4040
   35CHL1   C22 3752   4.547   5.910   5.301  0.6535 -0.7264  0.4188
   35CHL1  H22A 3753   4.625   5.839   5.337  0.2678 -0.8709  0.9721
   35CHL1  H22B 3754   4.461   5.857   5.255  1.9287  0.5838 -3.9264
   35CHL1   C23 3755   4.615   5.987   5.183  0.1472 -0.1270 -0.0776
   35CHL1  H23A 3756   4.534   6.034   5.123 -0.6645  3.9355  3.7186
   35CHL1  H23B 3757   4.681   6.057   5.238 -1.0276  1.8291 -1.0707
   35CHL1   C24 3758   4.689   5.892   5.087  0.3124 -0.5179  0.3359
   35CHL1  H24A 3759   4.764   5.833   5.144  0.7816  0.8867  1.2168
   35CHL1  H24B 3760   4.619   5.812   5.053 -0.2817  0.4648 -0.8244
   35CHL1   C25 3761   4.740   5.969   4.961  0.4038 -0.1816 -0.5744
   35CHL1   H25 3762   4.671   6.043   4.916  1.2280 -0.2252 -1.9496
   35CHL1   C26 3763   4.876   6.031   4.988 -0.8447 -0.3772 -0.5087
   35CHL1  H26A 3764   4.873   6.132   5.036 -0.1164 -0.1859 -0.8482
   35CHL1  H26B 3765   4.933   5.963   5.054 -0.8340 -1.0883 -1.2334
   35CHL1  H26C 3766   4.933   6.037   4.893  0.6551 -2.1990  0.2200
   35CHL1   C27 3767   4.740   5.862   4.848  0.5069 -0.6001 -0.2063
   35CHL1  H27A 3768   4.788   5.771   4.890  1.2392 -0.5784 -0.9728
   35CHL1  H27B 3769   4.635   5.844   4.815 -0.6889  4.2993  0.0933
   35CHL1  H27C 3770   4.788   5.919   4.766 -0.9510 -0.9655 -1.3574
   36CHL1    C3 3771   1.353   5.011   6.312 -0.5620  1.3083 -0.3745
   36CHL1    H3 3772   1.423   4.935   6.272  0.6142  1.8842  0.4960
   36CHL1    O3 3773   1.408   5.062   6.432 -0.6407  0.0062  0.2433
   36CHL1   H3' 3774   1.395   4.990   6.495 -1.2559 -1.3596 -1.3811
   36CHL1    C4 3775   1.331   5.121   6.218 -0.3594 -0.3207 -0.3690
   36CHL1   H4A 3776   1.269   5.200   6.267 -1.5051 -2.3584  1.6806
   36CHL1   H4B 3777   1.424   5.180   6.204 -0.0500 -0.3374  1.3759
   36CHL1    C5 3778   1.269   5.087   6.086  0.2419  0.0827  0.7319
   36CHL1    C6 3779   1.328   5.107   5.970 -0.2039 -0.4732 -0.6759
   36CHL1    H6 3780   1.425   5.158   5.964  0.2895 -1.4311 -1.2236
   36CHL1    C7 3781   1.269   5.065   5.837 -0.7128 -0.2527 -0.0161
   36CHL1   H7A 3782   1.262   5.147   5.762 -0.0621 -1.0527 -0.9801
   36CHL1   H7B 3783   1.327   4.981   5.792 -1.7804 -2.5570  2.6836
   36CHL1    C8 3784   1.119   5.025   5.856  0.5012 -0.1994 -0.1612
   36CHL1    H8 3785   1.058   5.114   5.883  2.4937  0.6030  2.1611
   36CHL1   C14 3786   1.082   4.952   5.731  0.2794  0.2942 -0.6294
   36CHL1   H14 3787   1.150   4.864   5.732  2.4685  1.8908  0.6667
   36CHL1   C15 3788   1.107   5.024   5.589 -0.3076  0.4359 -0.3158
   36CHL1  H15A 3789   1.067   5.127   5.584  1.1796  0.9780 -1.4740
   36CHL1  H15B 3790   1.211   5.023   5.551 -0.5493 -0.7236 -0.9902
   36CHL1   C16 3791   1.020   4.936   5.495  0.1049 -0.1084  0.0985
   36CHL1  H16A 3792   0.959   5.003   5.431  0.4046 -0.1369 -0.2185
   36CHL1  H16B 3793   1.089   4.876   5.432  0.5300 -2.2384  2.4128
   36CHL1   C17 3794   0.927   4.843   5.576  0.1129 -0.9340 -0.0183
   36CHL1   H17 3795   0.968   4.741   5.587 -1.5692 -1.5624  0.8438
   36CHL1   C13 3796   0.937   4.908   5.724 -0.3042  0.2817  0.8413
   36CHL1   C18 3797   0.841   5.029   5.729  0.0960 -0.0116 -0.6847
   36CHL1  H18A 3798   0.846   5.045   5.839  0.2686 -0.2301 -0.6609
   36CHL1  H18B 3799   0.881   5.113   5.668 -0.1345  0.5093 -0.1384
   36CHL1  H18C 3800   0.737   5.006   5.696  0.5545 -2.0177 -0.8522
   36CHL1   C12 3801   0.910   4.807   5.837  0.1748  0.3389 -0.0557
   36CHL1  H12A 3802   0.801   4.786   5.849 -0.1706  0.2439 -2.6869
   36CHL1  H12B 3803   0.962   4.715   5.802  0.7393  0.3863  0.6355
   36CHL1   C11 3804   0.964   4.853   5.977  0.3889 -0.5493  0.4163
   36CHL1  H11A 3805   0.887   4.925   6.012  0.4983 -1.1558  1.9924
   36CHL1  H11B 3806   0.956   4.768   6.048 -1.7344 -0.6422  0.1357
   36CHL1    C9 3807   1.100   4.930   5.970  0.2898 -0.0229 -0.5479
   36CHL1    H9 3808   1.180   4.854   5.954  0.9455  0.3361  0.8321
   36CHL1   C10 3809   1.145   4.998   6.106  0.1813 -0.6406  0.4070
   36CHL1   C19 3810   1.028   5.094   6.143 -0.1841 -0.3212 -0.2119
   36CHL1  H19A 3811   0.927   5.052   6.159 -0.8575  1.4807  0.5364
   36CHL1  H19B 3812   1.045   5.147   6.240  1.4119  0.6617 -0.9740
   36CHL1  H19C 3813   1.028   5.176   6.068  3.0786  1.9995  1.9996
   36CHL1    C1 3814   1.164   4.890   6.210 -0.1494 -0.7070 -0.3173
   36CHL1   H1A 3815   1.071   4.834   6.236  0.1721 -0.5122  1.3252
   36CHL1   H1B 3816   1.229   4.810   6.168 -1.7678 -2.8951  1.0507
   36CHL1    C2 3817   1.223   4.940   6.343  0.0765  0.5388  0.2024
   36CHL1   H2A 3818   1.245   4.849   6.404 -1.3498  1.3502  2.0331
   36CHL1   H2B 3819   1.149   5.005   6.395 -0.6992 -0.2475  0.1149
   36CHL1   C20 3820   0.790   4.841   5.497 -0.1652  0.7152  0.1776
   36CHL1   H20 3821   0.751   4.945   5.487  0.9213  1.1175 -0.0621
   36CHL1   C21 3822   0.698   4.750   5.585  0.2245 -0.5294 -0.0536
   36CHL1  H21A 3823   0.659   4.812   5.668  1.3397  0.5623 -0.3016
   36CHL1  H21B 3824   0.751   4.658   5.619  1.6498 -0.0593 -0.8941
   36CHL1  H21C 3825   0.606   4.729   5.526  0.7659 -0.3673 -0.9780
   36CHL1   C22 3826   0.805   4.779   5.355  0.2919 -0.4119 -0.1187
   36CHL1  H22A 3827   0.880   4.830   5.292  1.6614 -1.2280  0.8003
   36CHL1  H22B 3828   0.845   4.675   5.364  0.1819 -0.4160  0.3517
   36CHL1   C23 3829   0.677   4.773   5.265  0.6278  0.5817 -0.7266
   36CHL1  H23A 3830   0.604   4.711   5.322 -0.2174 -0.3575 -2.7281
   36CHL1  H23B 3831   0.646   4.880   5.261  0.0239  0.3794 -2.0334
   36CHL1   C24 3832   0.702   4.739   5.123 -0.8011  0.4551  1.0666
   36CHL1  H24A 3833   0.611   4.746   5.059 -0.0173 -0.6961 -0.2479
   36CHL1  H24B 3834   0.784   4.801   5.080 -0.7821 -1.0247 -1.2560
   36CHL1   C25 3835   0.753   4.590   5.091 -0.0390  0.5485  0.0329
   36CHL1   H25 3836   0.848   4.578   5.148 -0.7641  1.7957  1.5798
   36CHL1   C26 3837   0.657   4.481   5.146  0.0753 -0.8381  0.1197
   36CHL1  H26A 3838   0.672   4.379   5.104  0.6626 -0.4727 -0.5825
   36CHL1  H26B 3839   0.666   4.491   5.257  1.2828 -0.1417 -0.0190
   36CHL1  H26C 3840   0.553   4.516   5.130  0.3752  1.5788  2.5890
   36CHL1   C27 3841   0.787   4.565   4.943 -0.0947  0.1996  0.5695
   36CHL1  H27A 3842   0.841   4.652   4.899 -0.5473  0.4039  0.4173
   36CHL1  H27B 3843   0.845   4.470   4.941 -1.9711 -1.0150  1.3505
   36CHL1  H27C 3844   0.700   4.542   4.878  0.8231 -0.8786 -0.3035
   37CHL1    C3 3845   2.252   2.249   6.590  0.1324 -0.4363 -0.0697
   37CHL1    H3 3846   2.187   2.338   6.581  0.7066  0.0056  0.0792
   37CHL1    O3 3847   2.315   2.262   6.716 -0.9332 -0.3250 -0.1234
   37CHL1   H3' 3848   2.243   2.281   6.776 -1.7412 -2.0666 -0.4824
   37CHL1    C4 3849   2.173   2.124   6.583 -0.0874  0.5672 -0.0541
   37CHL1   H4A 3850   2.246   2.041   6.593 -1.3148 -0.8495 -2.1177
   37CHL1   H4B 3851   2.086   2.119   6.652 -0.2898 -1.1935 -0.4013
   37CHL1    C5 3852   2.119   2.105   6.442  0.8627  0.7839  0.3104
   37CHL1    C6 3853   1.988   2.086   6.416  0.4994 -0.2783 -0.6012
   37CHL1    H6 3854   1.918   2.092   6.502  2.1056  0.5462  0.7027
   37CHL1    C7 3855   1.941   2.035   6.285 -0.5584 -0.1188  0.6128
   37CHL1   H7A 3856   1.890   1.938   6.303  0.9285 -1.1713 -0.6159
   37CHL1   H7B 3857   1.863   2.105   6.247 -1.5395 -0.9060  1.1322
   37CHL1    C8 3858   2.057   2.006   6.179 -0.0334  0.1943 -0.3297
   37CHL1    H8 3859   2.092   1.903   6.203  0.6172  0.5159  0.1245
   37CHL1   C14 3860   2.000   1.997   6.036 -0.1660  0.8536 -0.7177
   37CHL1   H14 3861   1.962   2.101   6.031 -0.8861  0.7025  0.9015
   37CHL1   C15 3862   1.877   1.908   6.006 -0.2638 -0.4898 -0.3749
   37CHL1  H15A 3863   1.898   1.805   6.042  1.8301 -0.5588 -1.6326
   37CHL1  H15B 3864   1.785   1.957   6.045 -0.5349  0.4890 -2.1210
   37CHL1   C16 3865   1.883   1.910   5.850 -0.0771 -0.0849  0.7352
   37CHL1  H16A 3866   1.887   1.808   5.808 -2.6827  0.7546 -1.8684
   37CHL1  H16B 3867   1.786   1.954   5.817  0.9887  1.9226  0.1421
   37CHL1   C17 3868   1.996   2.000   5.804  0.4414 -0.1586 -0.7557
   37CHL1   H17 3869   1.946   2.099   5.807 -1.3041 -1.0144 -0.5570
   37CHL1   C13 3870   2.100   1.990   5.926 -0.2628  0.2726 -0.6647
   37CHL1   C18 3871   2.171   1.852   5.927  0.8456  0.6898  0.6831
   37CHL1  H18A 3872   2.231   1.826   5.837 -0.6357 -3.0491  0.6023
   37CHL1  H18B 3873   2.234   1.831   6.016  2.9162 -0.5009 -0.9784
   37CHL1  H18C 3874   2.085   1.782   5.934  0.0668  1.6417  0.9700
   37CHL1   C12 3875   2.210   2.105   5.932 -0.2876 -0.2563 -0.4567
   37CHL1  H12A 3876   2.298   2.085   5.867 -1.4805  0.8546 -2.5201
   37CHL1  H12B 3877   2.171   2.206   5.904  0.0010  0.1930  0.7292
   37CHL1   C11 3878   2.280   2.102   6.070  0.2289  0.1516 -0.5188
   37CHL1  H11A 3879   2.344   2.012   6.083 -0.0958 -0.2342 -1.4625
   37CHL1  H11B 3880   2.347   2.190   6.069  1.8989 -1.0503 -2.1052
   37CHL1    C9 3881   2.168   2.103   6.188 -0.2410 -0.6868  0.5220
   37CHL1    H9 3882   2.114   2.199   6.176  1.3648  0.2393  0.4933
   37CHL1   C10 3883   2.229   2.105   6.331  0.3975  0.4342 -0.6954
   37CHL1   C19 3884   2.327   1.990   6.348  0.2061 -0.0652  0.0003
   37CHL1  H19A 3885   2.380   1.958   6.440 -0.7145  0.9203  0.9087
   37CHL1  H19B 3886   2.281   1.893   6.322  0.5111 -0.5182  1.1331
   37CHL1  H19C 3887   2.411   2.007   6.277 -0.3328  2.2826 -0.1863
   37CHL1    C1 3888   2.307   2.239   6.355  1.0383  0.1357  0.0938
   37CHL1   H1A 3889   2.384   2.240   6.275 -0.8852  0.7581 -1.8803
   37CHL1   H1B 3890   2.233   2.320   6.336  0.1694 -0.8166 -0.7426
   37CHL1    C2 3891   2.367   2.257   6.489  0.6286 -0.4407  0.0001
   37CHL1   H2A 3892   2.418   2.356   6.491  0.8178 -0.5120 -1.1254
   37CHL1   H2B 3893   2.446   2.181   6.507  1.8289  1.1083  1.7284
   37CHL1   C20 3894   2.031   1.960   5.662 -0.4176 -0.3278 -0.1657
   37CHL1   H20 3895   2.075   1.858   5.660  1.7483  0.5474  0.5362
   37CHL1   C21 3896   2.144   2.049   5.608  1.0404 -0.0563 -0.0124
   37CHL1  H21A 3897   2.242   2.045   5.659  0.8643 -1.7654  0.2603
   37CHL1  H21B 3898   2.108   2.154   5.599 -1.5786 -0.5323  3.1457
   37CHL1  H21C 3899   2.170   2.019   5.504  0.0284 -0.5296 -0.1517
   37CHL1   C22 3900   1.913   1.967   5.560  0.0925 -0.0232 -0.2250
   37CHL1  H22A 3901   1.827   1.908   5.600  1.2996  0.6325  3.8116
   37CHL1  H22B 3902   1.880   2.073   5.567 -0.5555 -0.3202  2.6277
   37CHL1   C23 3903   1.945   1.919   5.420 -0.2756  1.1421  0.3270
   37CHL1  H23A 3904   2.011   1.983   5.358 -0.3975  0.4499 -0.5260
   37CHL1  H23B 3905   1.989   1.818   5.420  0.4179  1.3874 -2.2685
   37CHL1   C24 3906   1.814   1.902   5.335  0.4502  0.0859 -0.0681
   37CHL1  H24A 3907   1.743   1.831   5.383  1.4314 -0.1504  1.0720
   37CHL1  H24B 3908   1.767   2.003   5.331 -0.5976 -0.4169 -2.9685
   37CHL1   C25 3909   1.834   1.864   5.188  0.5466 -0.3031  0.2317
   37CHL1   H25 3910   1.919   1.926   5.153  1.5700 -1.3909  0.7388
   37CHL1   C26 3911   1.871   1.718   5.170  0.2746 -0.1213  0.3612
   37CHL1  H26A 3912   1.919   1.688   5.075 -0.3781 -3.9949  1.0531
   37CHL1  H26B 3913   1.937   1.691   5.256  0.8859 -0.8423 -0.3208
   37CHL1  H26C 3914   1.786   1.649   5.191  0.1075 -0.1294 -0.3351
   37CHL1   C27 3915   1.703   1.895   5.114 -0.4324  0.1793  0.0456
   37CHL1  H27A 3916   1.671   2.000   5.133  1.3757  0.9523 -0.9576
   37CHL1  H27B 3917   1.692   1.887   5.004  1.7767  2.8066 -0.4777
   37CHL1  H27C 3918   1.618   1.839   5.159  0.4360 -0.3400  1.0936
   38CHL1    C3 3919   3.746   1.578   6.647 -0.4926  0.0115 -0.4775
   38CHL1    H3 3920   3.658   1.515   6.670 -0.4385 -0.0183 -0.3469
   38CHL1    O3 3921   3.790   1.621   6.775  0.4859 -0.4352 -0.2478
   38CHL1   H3' 3922   3.866   1.676   6.754  1.5136 -1.9825 -0.7913
   38CHL1    C4 3923   3.862   1.493   6.591  0.2517 -0.2403  0.9392
   38CHL1   H4A 3924   3.955   1.554   6.595 -0.3393  0.6840  0.9099
   38CHL1   H4B 3925   3.881   1.400   6.649 -1.8601 -0.3638  1.5197
   38CHL1    C5 3926   3.842   1.458   6.442 -0.0033  0.0866 -0.0333
   38CHL1    C6 3927   3.861   1.330   6.411  0.3319  0.0439  0.9967
   38CHL1    H6 3928   3.905   1.265   6.488 -0.1835  0.8213  1.9750
   38CHL1    C7 3929   3.832   1.273   6.279 -0.3026 -0.7049  0.4137
   38CHL1   H7A 3930   3.916   1.205   6.254  3.7662  2.6138  3.5987
   38CHL1   H7B 3931   3.736   1.218   6.290 -0.6915 -1.0919 -3.4829
   38CHL1    C8 3932   3.807   1.385   6.177 -0.3462  0.1774  0.0353
   38CHL1    H8 3933   3.905   1.416   6.135 -1.0057  2.3980  0.0003
   38CHL1   C14 3934   3.724   1.322   6.069 -0.4607  0.1678  0.1227
   38CHL1   H14 3935   3.625   1.292   6.108  0.4244 -1.3692  1.2947
   38CHL1   C15 3936   3.766   1.183   6.013  0.4018  0.3988  1.0294
   38CHL1  H15A 3937   3.876   1.192   6.004  0.1420  1.9921 -1.2268
   38CHL1  H15B 3938   3.749   1.096   6.080  0.8688 -0.3073  0.2538
   38CHL1   C16 3939   3.713   1.182   5.871 -0.0786 -0.6800 -0.1242
   38CHL1  H16A 3940   3.803   1.188   5.807  0.8072  2.5526  1.1986
   38CHL1  H16B 3941   3.663   1.084   5.856 -1.9646 -0.1500  2.1531
   38CHL1   C17 3942   3.613   1.304   5.865  0.1088 -0.0168 -0.5786
   38CHL1   H17 3943   3.528   1.284   5.933  1.2059  0.2346  0.9329
   38CHL1   C13 3944   3.694   1.411   5.944  0.1898 -0.5875  0.4920
   38CHL1   C18 3945   3.827   1.444   5.870  0.0794 -0.4808 -0.3841
   38CHL1  H18A 3946   3.889   1.523   5.917 -1.4840  0.0573  0.8638
   38CHL1  H18B 3947   3.889   1.353   5.865  0.2156 -0.5116  1.2830
   38CHL1  H18C 3948   3.800   1.477   5.767 -0.4402 -0.3778 -0.2193
   38CHL1   C12 3949   3.625   1.539   5.991 -0.1711  0.0971 -0.4702
   38CHL1  H12A 3950   3.607   1.615   5.912 -2.2867 -2.0519 -2.1754
   38CHL1  H12B 3951   3.526   1.498   6.021  0.2524 -1.1340 -0.7233
   38CHL1   C11 3952   3.704   1.611   6.109  0.2793 -0.2025  0.3484
   38CHL1  H11A 3953   3.791   1.669   6.072  0.0985  0.0630  0.3370
   38CHL1  H11B 3954   3.647   1.691   6.161 -2.3563 -0.9450 -1.2049
   38CHL1    C9 3955   3.742   1.511   6.225  0.0466 -0.4348  1.0042
   38CHL1    H9 3956   3.643   1.475   6.260  0.5519 -0.2772  2.7161
   38CHL1   C10 3957   3.794   1.571   6.355  0.2022  0.1476  0.5070
   38CHL1   C19 3958   3.913   1.662   6.321  0.3066  0.6291 -1.1051
   38CHL1  H19A 3959   3.965   1.680   6.417 -0.2188  0.3579 -0.7612
   38CHL1  H19B 3960   3.973   1.608   6.244 -1.4398 -0.3303 -1.8608
   38CHL1  H19C 3961   3.885   1.761   6.278  0.2388  0.0804 -2.3747
   38CHL1    C1 3962   3.677   1.643   6.425 -0.2514  0.1211  0.0034
   38CHL1   H1A 3963   3.644   1.730   6.363  0.2258 -0.3851 -0.9821
   38CHL1   H1B 3964   3.587   1.579   6.434  0.1998 -0.2317  2.7237
   38CHL1    C2 3965   3.708   1.706   6.564 -0.1424  0.8543  0.4853
   38CHL1   H2A 3966   3.624   1.764   6.608  0.2402  0.5904  1.5851
   38CHL1   H2B 3967   3.797   1.771   6.574 -0.3865  1.0196  1.6988
   38CHL1   C20 3968   3.553   1.333   5.729  0.3971  0.0685 -0.2792
   38CHL1   H20 3969   3.611   1.400   5.663  0.0767  1.0632  0.4217
   38CHL1   C21 3970   3.416   1.418   5.745 -1.0230  0.2792 -0.5724
   38CHL1  H21A 3971   3.443   1.503   5.812  3.3070 -2.6959  1.9860
   38CHL1  H21B 3972   3.339   1.353   5.792 -0.4034 -0.7724 -1.0001
   38CHL1  H21C 3973   3.382   1.459   5.648  2.7476  2.0892 -1.3269
   38CHL1   C22 3974   3.526   1.203   5.656 -0.1830 -0.2935 -0.9686
   38CHL1  H22A 3975   3.624   1.152   5.648 -0.4548 -1.0377  0.2383
   38CHL1  H22B 3976   3.453   1.147   5.718  0.8314 -0.8388 -0.2368
   38CHL1   C23 3977   3.464   1.221   5.516  0.4906 -0.5190 -0.4124
   38CHL1  H23A 3978   3.363   1.265   5.509  0.1595 -1.2439 -0.3376
   38CHL1  H23B 3979   3.535   1.296   5.475 -0.5504  1.4949  1.2633
   38CHL1   C24 3980   3.453   1.096   5.428 -0.2822 -0.1282 -0.4389
   38CHL1  H24A 3981   3.553   1.049   5.412 -0.7566 -0.8476 -1.3556
   38CHL1  H24B 3982   3.401   1.020   5.491  0.0712 -0.1580 -0.1786
   38CHL1   C25 3983   3.400   1.125   5.285  0.6334  0.4772  0.3332
   38CHL1   H25 3984   3.305   1.179   5.304 -0.8582 -1.8588 -0.0664
   38CHL1   C26 3985   3.496   1.204   5.197 -0.2114 -0.3743  0.1175
   38CHL1  H26A 3986   3.598   1.162   5.189 -0.7002 -1.5610 -0.1200
   38CHL1  H26B 3987   3.448   1.232   5.101 -0.5996  0.7856  0.6274
   38CHL1  H26C 3988   3.505   1.301   5.251 -4.9438 -0.2754  1.1976
   38CHL1   C27 3989   3.345   0.983   5.225 -0.6016 -0.0789 -0.0963
   38CHL1  H27A 3990   3.425   0.907   5.209 -0.3669 -0.1512  1.2785
   38CHL1  H27B 3991   3.281   0.937   5.303 -0.0378  1.4131  1.3218
   38CHL1  H27C 3992   3.293   1.003   5.129 -1.2295 -2.5440 -0.3300
   39CHL1    C3 3993   4.194   2.985   6.271  0.3520 -0.1960 -0.2660
   39CHL1    H3 3994   4.095   3.032   6.294  1.3024  0.1670  3.7321
   39CHL1    O3 3995   4.243   2.932   6.397  0.0800 -1.1487 -0.6789
   39CHL1   H3' 3996   4.335   2.912   6.380  0.5079 -0.0110  0.2129
   39CHL1    C4 3997   4.179   2.876   6.157 -0.1844  0.0961  0.0570
   39CHL1   H4A 3998   4.273   2.816   6.167  0.1330  0.3295 -1.3120
   39CHL1   H4B 3999   4.102   2.802   6.186  1.2777 -1.0124  1.3033
   39CHL1    C5 4000   4.178   2.931   6.014 -0.2348 -0.0123 -0.8144
   39CHL1    C6 4001   4.089   2.877   5.928 -0.4241  0.7382 -0.2873
   39CHL1    H6 4002   4.030   2.792   5.967  0.7556 -0.0517 -0.1798
   39CHL1    C7 4003   4.064   2.921   5.790 -0.4176 -0.5131 -0.9259
   39CHL1   H7A 4004   4.053   2.845   5.710  0.9818 -0.6359 -1.0288
   39CHL1   H7B 4005   3.970   2.980   5.796 -2.2600 -3.2637 -0.8884
   39CHL1    C8 4006   4.171   3.025   5.736  0.1949 -0.1815  0.4689
   39CHL1    H8 4007   4.249   2.955   5.700 -0.1245 -0.2424 -0.1172
   39CHL1   C14 4008   4.122   3.097   5.611  0.3664  0.1392  0.0147
   39CHL1   H14 4009   4.031   3.153   5.643 -0.0789  0.9273 -2.4579
   39CHL1   C15 4010   4.070   3.012   5.493  0.4643  0.1154  0.2089
   39CHL1  H15A 4011   4.137   2.926   5.472  0.1029 -0.2181  0.4171
   39CHL1  H15B 4012   3.969   2.967   5.505  1.2138 -1.1387  2.3668
   39CHL1   C16 4013   4.069   3.110   5.378  0.4483 -0.0028 -0.3150
   39CHL1  H16A 4014   4.113   3.062   5.288  1.4579  0.4685 -0.0807
   39CHL1  H16B 4015   3.964   3.142   5.362 -0.2595 -0.5951  2.5334
   39CHL1   C17 4016   4.140   3.238   5.418 -0.1171 -0.1855  0.4216
   39CHL1   H17 4017   4.062   3.306   5.458 -1.2960 -1.9233  1.2181
   39CHL1   C13 4018   4.221   3.200   5.550 -0.3180 -0.6486  0.4732
   39CHL1   C18 4019   4.351   3.127   5.510 -0.1501  0.0120 -0.1679
   39CHL1  H18A 4020   4.412   3.207   5.462 -1.1478  0.1130 -1.2804
   39CHL1  H18B 4021   4.419   3.092   5.591 -1.0192  0.4050  0.7580
   39CHL1  H18C 4022   4.325   3.051   5.434 -2.4216  2.5228 -2.0861
   39CHL1   C12 4023   4.247   3.299   5.660  0.1914  0.6210 -0.5018
   39CHL1  H12A 4024   4.314   3.387   5.642  0.1215  1.2875  2.1398
   39CHL1  H12B 4025   4.148   3.340   5.690  0.4362  0.4453  0.5565
   39CHL1   C11 4026   4.305   3.235   5.789 -0.0800  0.2615  0.2353
   39CHL1  H11A 4027   4.410   3.206   5.767 -0.4857 -0.6330 -0.5919
   39CHL1  H11B 4028   4.315   3.307   5.873 -1.5865 -1.6844  2.2337
   39CHL1    C9 4029   4.212   3.127   5.846  0.2021  0.4468  0.1799
   39CHL1    H9 4030   4.125   3.189   5.875  1.3322  0.9596  2.7280
   39CHL1   C10 4031   4.266   3.052   5.978  0.1928  0.0694 -0.5075
   39CHL1   C19 4032   4.407   2.998   5.946 -0.0717 -0.4222  0.1311
   39CHL1  H19A 4033   4.412   2.960   5.841 -4.5281  0.4705 -0.6036
   39CHL1  H19B 4034   4.483   3.077   5.963 -0.8384  0.0548  1.4552
   39CHL1  H19C 4035   4.438   2.920   6.019  2.6381  1.5053  1.1689
   39CHL1    C1 4036   4.263   3.153   6.097 -0.4922 -0.5224  0.7770
   39CHL1   H1A 4037   4.336   3.236   6.084 -0.7004 -0.3396  0.7698
   39CHL1   H1B 4038   4.162   3.196   6.112 -0.5565  0.3413 -1.6439
   39CHL1    C2 4039   4.293   3.092   6.230 -0.0893 -0.4607  0.2090
   39CHL1   H2A 4040   4.308   3.164   6.313  2.8642 -1.7431  0.8862
   39CHL1   H2B 4041   4.393   3.045   6.220  0.1158 -0.3731  1.6446
   39CHL1   C20 4042   4.197   3.306   5.298 -0.3551 -0.1141  0.2820
   39CHL1   H20 4043   4.292   3.260   5.263  2.2277  2.9508  2.6422
   39CHL1   C21 4044   4.243   3.452   5.337 -0.1574  0.6882  0.0885
   39CHL1  H21A 4045   4.160   3.516   5.374 -2.5463 -1.1586 -1.6964
   39CHL1  H21B 4046   4.303   3.493   5.252  0.7628  0.8565  0.8039
   39CHL1  H21C 4047   4.317   3.445   5.420  1.4898  1.7711 -1.2199
   39CHL1   C22 4048   4.089   3.326   5.187 -0.3706  0.0584  0.2930
   39CHL1  H22A 4049   4.080   3.228   5.135  1.2462  0.0639 -0.0626
   39CHL1  H22B 4050   3.986   3.345   5.224 -0.2203  2.1058 -0.2543
   39CHL1   C23 4051   4.111   3.429   5.071  0.0375 -0.2709 -0.1976
   39CHL1  H23A 4052   4.093   3.529   5.115  0.9097 -0.3114  0.2928
   39CHL1  H23B 4053   4.214   3.443   5.031 -0.1070  1.2006 -0.1037
   39CHL1   C24 4054   4.005   3.418   4.961  0.2251  0.6500  0.8576
   39CHL1  H24A 4055   3.998   3.311   4.930 -4.0134  1.2446 -0.9278
   39CHL1  H24B 4056   3.916   3.434   5.026 -1.7566 -1.0437 -1.2546
   39CHL1   C25 4057   4.011   3.507   4.839  0.1120  0.0784  0.3779
   39CHL1   H25 4058   4.003   3.615   4.863  0.2784  0.5573 -1.5930
   39CHL1   C26 4059   4.139   3.490   4.754  0.4115  0.3989 -0.0758
   39CHL1  H26A 4060   4.231   3.518   4.809 -0.5402 -0.3866  2.0598
   39CHL1  H26B 4061   4.146   3.386   4.715  1.7382  1.2099 -2.1710
   39CHL1  H26C 4062   4.137   3.549   4.661 -0.3985 -2.9146 -2.3560
   39CHL1   C27 4063   3.892   3.475   4.743 -0.4676  0.4657 -0.5053
   39CHL1  H27A 4064   3.878   3.367   4.719 -2.1329  0.4173  0.5496
   39CHL1  H27B 4065   3.802   3.506   4.799 -1.3294  2.8026 -2.9775
   39CHL1  H27C 4066   3.896   3.543   4.655 -2.2049  0.3319 -0.7251
   40CHL1    C3 4067   3.031   0.313   6.795  0.4987 -0.1587  0.1102
   40CHL1    H3 4068   3.008   0.413   6.752 -0.1325 -0.4991 -0.3672
   40CHL1    O3 4069   2.984   0.312   6.928  0.3555 -0.3341  0.2235
   40CHL1   H3' 4070   2.890   0.296   6.915  0.1233 -0.1166  1.5153
   40CHL1    C4 4071   2.943   0.203   6.714  0.0042  0.0311  0.1021
   40CHL1   H4A 4072   2.952   0.104   6.763 -0.2275  0.5240  1.1780
   40CHL1   H4B 4073   2.839   0.239   6.729 -0.3676 -1.3578  1.0592
   40CHL1    C5 4074   2.993   0.209   6.567  0.7734 -0.1722 -0.7625
   40CHL1    C6 4075   2.896   0.221   6.475 -0.0639 -0.3728 -0.4875
   40CHL1    H6 4076   2.795   0.243   6.512  0.7161 -1.1283  2.2763
   40CHL1    C7 4077   2.929   0.229   6.329  0.1547  0.3941 -0.1423
   40CHL1   H7A 4078   2.863   0.158   6.274 -3.0375  3.7366 -0.9839
   40CHL1   H7B 4079   2.906   0.332   6.295 -1.7888 -0.0492 -0.2908
   40CHL1    C8 4080   3.083   0.197   6.297 -0.0014  0.0259 -0.7352
   40CHL1    H8 4081   3.101   0.088   6.310 -0.9549 -0.0553  0.0532
   40CHL1   C14 4082   3.124   0.259   6.161  0.0037  0.3946 -0.5377
   40CHL1   H14 4083   3.101   0.366   6.180 -0.1285  0.2276  0.2917
   40CHL1   C15 4084   3.039   0.221   6.032  0.2195 -0.1808  0.4982
   40CHL1  H15A 4085   3.022   0.112   6.031 -0.2467 -0.1547 -2.2713
   40CHL1  H15B 4086   2.938   0.267   6.035  1.1905  2.0818  0.7339
   40CHL1   C16 4087   3.129   0.254   5.920 -0.0984  0.1968  0.5342
   40CHL1  H16A 4088   3.155   0.164   5.860  2.2387 -0.1581  1.9367
   40CHL1  H16B 4089   3.097   0.343   5.861  2.7422  0.4247 -0.8330
   40CHL1   C17 4090   3.269   0.307   5.980  1.3173  0.0293  0.8204
   40CHL1   H17 4091   3.256   0.417   5.988 -3.0557 -0.1452 -0.9663
   40CHL1   C13 4092   3.266   0.248   6.120 -0.5902  0.0327 -0.3874
   40CHL1   C18 4093   3.299   0.098   6.107 -0.4861  0.1683 -0.2719
   40CHL1  H18A 4094   3.408   0.082   6.125 -0.6300  0.6293  1.1143
   40CHL1  H18B 4095   3.243   0.032   6.176  0.6614  0.7207  1.2214
   40CHL1  H18C 4096   3.280   0.051   6.008  0.3510 -0.3418 -0.2015
   40CHL1   C12 4097   3.347   0.319   6.228 -0.3156  0.0309  0.0096
   40CHL1  H12A 4098   3.457   0.304   6.220 -0.4605 -0.5834 -0.9519
   40CHL1  H12B 4099   3.312   0.424   6.228 -0.6567 -0.0702  1.1921
   40CHL1   C11 4100   3.325   0.262   6.366  0.5556 -0.1346 -0.4842
   40CHL1  H11A 4101   3.359   0.157   6.363  0.8939 -0.1913  2.3748
   40CHL1  H11B 4102   3.387   0.318   6.439 -0.8765 -0.3165  0.9353
   40CHL1    C9 4103   3.173   0.258   6.408  1.8648 -0.0418  0.3269
   40CHL1    H9 4104   3.152   0.367   6.411  0.3438 -0.3055 -0.0558
   40CHL1   C10 4105   3.140   0.206   6.546  0.0644 -0.5352  0.1417
   40CHL1   C19 4106   3.179   0.056   6.561 -0.3031 -0.2851  0.4530
   40CHL1  H19A 4107   3.107  -0.002   6.499 -0.4134  1.2204 -0.8809
   40CHL1  H19B 4108   3.281   0.034   6.523 -0.5947  0.1765 -0.6291
   40CHL1  H19C 4109   3.176   0.026   6.668  2.6820 -1.1624  0.3883
   40CHL1    C1 4110   3.217   0.294   6.645 -1.0449  0.7388  0.3695
   40CHL1   H1A 4111   3.325   0.273   6.636 -1.2178  0.2644 -0.7465
   40CHL1   H1B 4112   3.197   0.399   6.613 -0.9712  0.1316 -1.7986
   40CHL1    C2 4113   3.180   0.283   6.792  0.9527 -0.2848 -0.0886
   40CHL1   H2A 4114   3.237   0.355   6.854  1.2015 -1.6044  1.2691
   40CHL1   H2B 4115   3.212   0.183   6.829  0.2897 -0.1147  0.9968
   40CHL1   C20 4116   3.397   0.292   5.889 -0.4049  0.3421 -0.4527
   40CHL1   H20 4117   3.421   0.184   5.875  3.6810  1.0739 -0.2502
   40CHL1   C21 4118   3.520   0.360   5.949 -0.0976 -0.1901 -0.5384
   40CHL1  H21A 4119   3.487   0.459   5.986 -0.8510 -0.7037  0.2015
   40CHL1  H21B 4120   3.601   0.375   5.875 -1.4186 -1.0240 -2.2173
   40CHL1  H21C 4121   3.550   0.302   6.040 -0.0379 -0.6360 -0.8367
   40CHL1   C22 4122   3.368   0.355   5.745 -0.1837 -0.0734 -0.5417
   40CHL1  H22A 4123   3.266   0.330   5.710 -0.2019 -0.4329 -0.2371
   40CHL1  H22B 4124   3.372   0.466   5.755  0.5738 -0.0469 -1.0344
   40CHL1   C23 4125   3.467   0.304   5.645 -0.1636 -0.2497  0.0258
   40CHL1  H23A 4126   3.563   0.356   5.666 -0.1473 -0.0275 -0.5663
   40CHL1  H23B 4127   3.489   0.195   5.650 -2.6030 -0.8174 -0.4619
   40CHL1   C24 4128   3.424   0.338   5.501  0.1294 -0.5730 -0.7088
   40CHL1  H24A 4129   3.335   0.278   5.476  0.8810 -1.2945 -1.7607
   40CHL1  H24B 4130   3.404   0.448   5.495  2.3889  0.0076  1.0291
   40CHL1   C25 4131   3.527   0.294   5.386  1.2372  0.6918 -0.2459
   40CHL1   H25 4132   3.628   0.331   5.414  1.1172  0.6515  0.2511
   40CHL1   C26 4133   3.538   0.143   5.371  0.0328  0.0503 -0.0334
   40CHL1  H26A 4134   3.579   0.116   5.271 -0.3936  0.7451 -0.4033
   40CHL1  H26B 4135   3.606   0.097   5.446  0.2994 -1.0324 -0.8995
   40CHL1  H26C 4136   3.440   0.091   5.368  0.5017 -0.7981 -2.2744
   40CHL1   C27 4137   3.486   0.370   5.253 -0.5440 -0.4443 -0.2917
   40CHL1  H27A 4138   3.500   0.477   5.278  2.0978 -1.0342  1.0970
   40CHL1  H27B 4139   3.545   0.350   5.161  1.8685 -1.2383  1.3226
   40CHL1  H27C 4140   3.377   0.357   5.239 -0.8462  0.0399  1.4247
   41CHL1    C3 4141   1.195   6.264   6.545 -0.2594 -0.2531  0.0118
   41CHL1    H3 4142   1.198   6.373   6.523 -3.2319 -0.4320 -1.7915
   41CHL1    O3 4143   1.189   6.260   6.685 -0.0192  0.1947 -0.1161
   41CHL1   H3' 4144   1.164   6.172   6.716  1.1872  0.3340  1.4210
   41CHL1    C4 4145   1.065   6.207   6.488 -0.5896  0.0113 -0.1318
   41CHL1   H4A 4146   1.049   6.103   6.525  2.1029 -0.5046 -0.2088
   41CHL1   H4B 4147   0.989   6.277   6.527 -0.2578  0.6962 -0.6995
   41CHL1    C5 4148   1.071   6.195   6.340 -0.0863  0.0194 -0.7380
   41CHL1    C6 4149   0.974   6.256   6.271  0.0818  0.1592 -0.3060
   41CHL1    H6 4150   0.896   6.310   6.327  0.8999  0.0288  0.9940
   41CHL1    C7 4151   0.961   6.238   6.121  0.4753  0.7032 -0.6098
   41CHL1   H7A 4152   0.856   6.214   6.095  0.3099 -0.8477  1.2689
   41CHL1   H7B 4153   0.990   6.333   6.071  0.6669 -0.3862 -2.7025
   41CHL1    C8 4154   1.056   6.133   6.064  0.4551  0.3696  0.4669
   41CHL1    H8 4155   1.010   6.033   6.080  0.2836  0.0584 -1.6420
   41CHL1   C14 4156   1.066   6.147   5.913  0.2269 -0.3402 -0.5184
   41CHL1   H14 4157   1.106   6.250   5.898 -1.4751  0.6570  1.2918
   41CHL1   C15 4158   0.936   6.139   5.837  0.3746 -0.5077 -1.1832
   41CHL1  H15A 4159   0.879   6.046   5.858  0.8810 -0.8379 -1.2488
   41CHL1  H15B 4160   0.874   6.227   5.863  1.2994  0.0111 -0.6970
   41CHL1   C16 4161   0.984   6.136   5.696 -0.6669  0.6775 -0.1731
   41CHL1  H16A 4162   0.931   6.056   5.640  0.7040  0.1773 -0.7851
   41CHL1  H16B 4163   0.963   6.223   5.629  1.3039  1.1057 -0.2851
   41CHL1   C17 4164   1.136   6.103   5.693  0.6812  0.3826  0.7728
   41CHL1   H17 4165   1.184   6.203   5.694  0.4459  0.4952  1.5002
   41CHL1   C13 4166   1.168   6.060   5.838 -0.0645  0.1953  0.1710
   41CHL1   C18 4167   1.124   5.907   5.843 -0.4773 -0.2431 -0.4087
   41CHL1  H18A 4168   1.020   5.906   5.802 -1.4392  1.5588  1.8086
   41CHL1  H18B 4169   1.196   5.839   5.793 -2.0605 -1.3786 -1.2081
   41CHL1  H18C 4170   1.123   5.882   5.951 -0.1005 -1.2193 -0.6230
   41CHL1   C12 4171   1.308   6.087   5.895 -0.6020 -0.0791  0.0258
   41CHL1  H12A 4172   1.391   6.026   5.853 -0.9414 -0.9725  0.6242
   41CHL1  H12B 4173   1.327   6.195   5.878  1.7753 -0.1046  2.0457
   41CHL1   C11 4174   1.305   6.066   6.052 -0.2109 -0.0401  0.6061
   41CHL1  H11A 4175   1.292   5.956   6.065 -0.5774 -0.2183 -0.9998
   41CHL1  H11B 4176   1.405   6.091   6.092  2.0034 -0.8203 -3.8518
   41CHL1    C9 4177   1.198   6.147   6.123  0.1586 -0.2452 -0.3771
   41CHL1    H9 4178   1.230   6.252   6.106  0.9159 -0.1458  1.4849
   41CHL1   C10 4179   1.194   6.130   6.279  0.1632 -0.5002  0.1181
   41CHL1   C19 4180   1.188   5.982   6.306  1.1377 -0.3043  0.0948
   41CHL1  H19A 4181   1.113   5.935   6.238  0.5900 -0.7653  1.0058
   41CHL1  H19B 4182   1.288   5.939   6.281  1.0383  0.3890 -1.6297
   41CHL1  H19C 4183   1.154   5.954   6.408  2.2218 -1.9359  0.0527
   41CHL1    C1 4184   1.317   6.200   6.337  0.5819  0.1769  0.5962
   41CHL1   H1A 4185   1.414   6.167   6.291 -1.0846 -0.6974 -2.6140
   41CHL1   H1B 4186   1.311   6.308   6.312  3.4518  0.3686  0.3178
   41CHL1    C2 4187   1.320   6.196   6.497  0.0459 -0.3470  0.1462
   41CHL1   H2A 4188   1.407   6.254   6.534 -1.7275  2.0277  0.8428
   41CHL1   H2B 4189   1.326   6.091   6.534 -0.2199 -0.0164  1.1620
   41CHL1   C20 4190   1.192   6.019   5.577  0.7050 -0.0078 -0.3774
   41CHL1   H20 4191   1.134   5.924   5.581 -1.4205  1.0954 -2.4171
   41CHL1   C21 4192   1.332   5.980   5.613  0.8290 -0.1574 -0.3366
   41CHL1  H21A 4193   1.382   5.931   5.526  0.5668  0.8824 -1.0928
   41CHL1  H21B 4194   1.336   5.907   5.696 -1.1603  0.2811  0.1919
   41CHL1  H21C 4195   1.393   6.073   5.617  1.0387 -0.2970 -0.2780
   41CHL1   C22 4196   1.172   6.083   5.444 -0.3535  0.2907  0.6902
   41CHL1  H22A 4197   1.066   6.117   5.437  0.1090  1.5066 -1.5691
   41CHL1  H22B 4198   1.233   6.175   5.445 -1.4381  1.0229  1.6630
   41CHL1   C23 4199   1.208   5.991   5.324  0.5439  0.5680 -0.7789
   41CHL1  H23A 4200   1.178   6.058   5.241 -1.3284  2.1459  1.0445
   41CHL1  H23B 4201   1.316   5.968   5.316  0.2946 -0.9417 -0.1617
   41CHL1   C24 4202   1.119   5.858   5.313  0.5100 -0.1183  0.6295
   41CHL1  H24A 4203   1.166   5.771   5.364  0.5613 -0.2564  0.3514
   41CHL1  H24B 4204   1.028   5.872   5.375 -0.8006  0.9496 -1.4298
   41CHL1   C25 4205   1.080   5.806   5.170 -0.3477 -0.0199  0.8551
   41CHL1   H25 4206   1.168   5.813   5.103  0.5128 -0.5575  1.8872
   41CHL1   C26 4207   1.017   5.664   5.159 -0.2505 -0.6944 -0.2646
   41CHL1  H26A 4208   1.085   5.583   5.192 -1.1834 -0.6969  1.8706
   41CHL1  H26B 4209   0.926   5.662   5.224 -0.0437 -2.4346  0.0185
   41CHL1  H26C 4210   1.002   5.647   5.051  0.7338 -2.8056 -0.1110
   41CHL1   C27 4211   0.971   5.901   5.108  0.0938  0.0270  0.0245
   41CHL1  H27A 4212   0.950   5.862   5.006 -0.0516 -0.4017  0.2204
   41CHL1  H27B 4213   0.879   5.897   5.169  1.0818 -1.3954  1.5192
   41CHL1  H27C 4214   1.008   6.006   5.108  0.3409 -0.0466 -1.2344
   42CHL1    C3 4215   6.340   1.340   6.415 -0.1080  0.5234  0.5042
   42CHL1    H3 4216   6.310   1.446   6.401 -1.4520  0.0267 -0.7065
   42CHL1    O3 4217   6.312   1.310   6.551 -0.1786 -0.1797  0.3261
   42CHL1   H3' 4218   6.358   1.374   6.606  0.2275 -0.1148 -0.0880
   42CHL1    C4 4219   6.254   1.242   6.324 -0.1154 -0.2090 -0.0285
   42CHL1   H4A 4220   6.282   1.138   6.351 -0.0541 -0.0787  0.4195
   42CHL1   H4B 4221   6.145   1.243   6.345 -0.2881  0.3694 -0.8668
   42CHL1    C5 4222   6.277   1.250   6.173  0.1163  0.6278 -0.2757
   42CHL1    C6 4223   6.176   1.268   6.086 -0.1002  0.2122 -0.4843
   42CHL1    H6 4224   6.074   1.261   6.126  1.5277 -0.5768  4.1593
   42CHL1    C7 4225   6.182   1.298   5.941 -0.4934 -0.1868  0.2769
   42CHL1   H7A 4226   6.129   1.216   5.888 -0.3899  0.4465 -0.8399
   42CHL1   H7B 4227   6.126   1.393   5.927 -3.4616 -1.7678  0.5874
   42CHL1    C8 4228   6.331   1.287   5.890  0.2217  0.2383 -0.8325
   42CHL1    H8 4229   6.346   1.178   5.877  0.1139  0.3898 -2.4224
   42CHL1   C14 4230   6.335   1.359   5.759 -0.6048  0.2661  0.5583
   42CHL1   H14 4231   6.312   1.466   5.777  0.5063  0.1186  3.2558
   42CHL1   C15 4232   6.247   1.306   5.643  0.1821  0.3216 -0.1039
   42CHL1  H15A 4233   6.253   1.196   5.631  0.1445  0.0778  1.8718
   42CHL1  H15B 4234   6.147   1.345   5.669 -1.0111 -1.2014 -2.1584
   42CHL1   C16 4235   6.317   1.377   5.522  0.0053  1.5551 -0.1263
   42CHL1  H16A 4236   6.310   1.292   5.451  0.1094  1.5891 -0.1764
   42CHL1  H16B 4237   6.248   1.457   5.486 -0.3954  1.8702  1.2860
   42CHL1   C17 4238   6.458   1.426   5.563  0.7611 -0.2132  0.1085
   42CHL1   H17 4239   6.439   1.534   5.577 -2.1638 -0.7190  0.6759
   42CHL1   C13 4240   6.478   1.362   5.698 -0.4524 -0.5590 -0.4931
   42CHL1   C18 4241   6.519   1.219   5.678 -0.0045 -0.1776  0.1731
   42CHL1  H18A 4242   6.482   1.145   5.752 -1.9161 -1.7866 -2.1965
   42CHL1  H18B 4243   6.483   1.176   5.582 -1.4649  1.8909 -0.2949
   42CHL1  H18C 4244   6.629   1.223   5.667  0.0446  0.1279  0.7607
   42CHL1   C12 4245   6.576   1.434   5.800  0.6729  0.0637  0.5630
   42CHL1  H12A 4246   6.678   1.417   5.759 -1.3373 -1.8510 -4.5778
   42CHL1  H12B 4247   6.542   1.537   5.826  0.4691 -0.0663  0.8157
   42CHL1   C11 4248   6.575   1.359   5.934  0.0017  0.0095 -0.8372
   42CHL1  H11A 4249   6.627   1.261   5.925 -0.6830 -0.7711  2.4073
   42CHL1  H11B 4250   6.635   1.423   6.002  2.7221 -2.3109 -0.8747
   42CHL1    C9 4251   6.430   1.345   5.995  0.7319 -0.0367  0.1735
   42CHL1    H9 4252   6.394   1.450   6.006  0.3409 -0.2216  0.7226
   42CHL1   C10 4253   6.428   1.272   6.136  0.2996  0.5805 -0.1593
   42CHL1   C19 4254   6.496   1.134   6.118  0.0883  0.5815 -0.1719
   42CHL1  H19A 4255   6.469   1.071   6.031  0.0469  1.3439 -0.7149
   42CHL1  H19B 4256   6.603   1.166   6.114  1.2911 -2.6774  1.4885
   42CHL1  H19C 4257   6.489   1.066   6.206  0.3110 -0.9528 -1.2940
   42CHL1    C1 4258   6.514   1.348   6.236  0.3664 -0.1260  0.0326
   42CHL1   H1A 4259   6.621   1.347   6.204  0.3796  0.1067  0.0688
   42CHL1   H1B 4260   6.483   1.453   6.216  0.1029 -0.0450  0.8255
   42CHL1    C2 4261   6.487   1.320   6.388 -0.0247  0.2422 -0.1150
   42CHL1   H2A 4262   6.557   1.387   6.441  1.6294 -1.0937 -0.4930
   42CHL1   H2B 4263   6.526   1.216   6.402  1.4340  0.1581 -3.6544
   42CHL1   C20 4264   6.562   1.405   5.455  0.4716 -0.7600  0.8786
   42CHL1   H20 4265   6.602   1.301   5.459 -1.5698 -1.5464  3.2407
   42CHL1   C21 4266   6.675   1.499   5.487 -0.1196 -0.3637  0.5988
   42CHL1  H21A 4267   6.713   1.480   5.590  2.3989 -0.7782 -0.3554
   42CHL1  H21B 4268   6.646   1.606   5.486  3.2174  0.6599 -0.0089
   42CHL1  H21C 4269   6.758   1.478   5.417  0.2217  1.3521  0.4354
   42CHL1   C22 4270   6.510   1.424   5.310  0.0380 -0.1991  0.1885
   42CHL1  H22A 4271   6.438   1.344   5.283 -0.6890 -0.0140  1.5017
   42CHL1  H22B 4272   6.461   1.521   5.290 -0.5628 -0.7968 -1.3779
   42CHL1   C23 4273   6.633   1.412   5.216 -0.1062 -0.5774 -0.6849
   42CHL1  H23A 4274   6.688   1.506   5.234 -0.3158 -0.8546  1.7377
   42CHL1  H23B 4275   6.678   1.319   5.257  0.4968  0.3908  0.9028
   42CHL1   C24 4276   6.592   1.395   5.070  0.0391  0.0969  0.1768
   42CHL1  H24A 4277   6.530   1.302   5.069 -0.8124  0.6519  0.2578
   42CHL1  H24B 4278   6.519   1.474   5.040 -1.3662 -1.3383 -0.3407
   42CHL1   C25 4279   6.699   1.391   4.955 -0.6525  0.0779  0.4458
   42CHL1   H25 4280   6.762   1.480   4.975 -0.7012  0.7028 -1.8996
   42CHL1   C26 4281   6.783   1.270   4.966 -0.8627  0.6108  0.6530
   42CHL1  H26A 4282   6.826   1.275   5.068 -0.8228 -0.3677  0.6884
   42CHL1  H26B 4283   6.718   1.182   4.944  2.2502 -1.6872 -0.0203
   42CHL1  H26C 4284   6.856   1.270   4.882 -1.1808 -1.4679  0.3179
   42CHL1   C27 4285   6.652   1.406   4.817 -0.4972 -0.1588  1.0998
   42CHL1  H27A 4286   6.555   1.460   4.811 -0.9372 -0.9839  0.4332
   42CHL1  H27B 4287   6.728   1.447   4.747 -0.7652 -0.4518  0.6259
   42CHL1  H27C 4288   6.646   1.303   4.773  2.6799 -0.6524  1.6223
   43CHL1    C3 4289   6.289   3.381   6.613 -0.5110  0.1749  0.1012
   43CHL1    H3 4290   6.189   3.342   6.586 -0.2387  0.0933 -0.8108
   43CHL1    O3 4291   6.298   3.404   6.754 -0.2474  0.3288  0.4467
   43CHL1   H3' 4292   6.387   3.440   6.764  0.5437 -1.6794  1.1656
   43CHL1    C4 4293   6.412   3.289   6.573 -0.8486 -0.2365  0.4628
   43CHL1   H4A 4294   6.507   3.335   6.607  0.3897  0.9962 -3.9677
   43CHL1   H4B 4295   6.396   3.193   6.627  0.9007  0.2604  1.9402
   43CHL1    C5 4296   6.417   3.271   6.415  0.8370 -0.4867 -1.0073
   43CHL1    C6 4297   6.428   3.152   6.360  0.6490  0.2263  0.1889
   43CHL1    H6 4298   6.429   3.058   6.417  0.6925  0.4731  0.6044
   43CHL1    C7 4299   6.430   3.129   6.213 -0.2182  0.6305  0.5992
   43CHL1   H7A 4300   6.492   3.044   6.178 -0.2255  0.3623  1.2338
   43CHL1   H7B 4301   6.327   3.096   6.189  0.0782 -0.9701  1.4273
   43CHL1    C8 4302   6.472   3.258   6.131  0.1449  0.0074 -0.2577
   43CHL1    H8 4303   6.581   3.262   6.150  0.0788  0.5260  0.0126
   43CHL1   C14 4304   6.428   3.241   5.982 -0.1854  0.0580  0.1146
   43CHL1   H14 4305   6.318   3.252   5.986 -0.3782  1.9342 -4.2449
   43CHL1   C15 4306   6.455   3.107   5.913  0.2003 -0.1070  0.3078
   43CHL1  H15A 4307   6.554   3.058   5.930  0.8681  1.1610  0.2606
   43CHL1  H15B 4308   6.379   3.030   5.937  1.1261 -0.4952  2.1956
   43CHL1   C16 4309   6.445   3.146   5.760  0.0523  0.0283 -0.0554
   43CHL1  H16A 4310   6.546   3.124   5.718  0.0625  1.2059 -0.6913
   43CHL1  H16B 4311   6.352   3.113   5.708 -1.5551  2.5659  1.0240
   43CHL1   C17 4312   6.412   3.303   5.757  0.4336  0.0793 -0.0827
   43CHL1   H17 4313   6.302   3.303   5.770  0.3528  1.7595 -0.5957
   43CHL1   C13 4314   6.477   3.354   5.891 -0.4714 -0.1894  0.5445
   43CHL1   C18 4315   6.631   3.349   5.873  0.2286 -0.2382 -0.5213
   43CHL1  H18A 4316   6.679   3.393   5.963  0.1735  1.2702 -1.1920
   43CHL1  H18B 4317   6.676   3.248   5.860  0.9701 -0.4008  2.5013
   43CHL1  H18C 4318   6.680   3.415   5.799  1.6678 -0.7988 -0.0915
   43CHL1   C12 4319   6.421   3.487   5.942 -0.3261  0.3226 -0.4776
   43CHL1  H12A 4320   6.473   3.575   5.899  1.8437 -0.9795 -0.6541
   43CHL1  H12B 4321   6.313   3.490   5.917 -0.1435 -0.8521 -1.5006
   43CHL1   C11 4322   6.440   3.501   6.099  0.0882 -0.8859 -0.1547
   43CHL1  H11A 4323   6.545   3.535   6.113  0.4622 -1.7738 -0.7599
   43CHL1  H11B 4324   6.379   3.592   6.120 -0.0154 -0.9076 -0.3506
   43CHL1    C9 4325   6.400   3.384   6.181  0.2605  0.3531  0.1360
   43CHL1    H9 4326   6.292   3.374   6.157 -0.2496  0.4656  2.2313
   43CHL1   C10 4327   6.414   3.405   6.337  0.3067  0.4837  0.1736
   43CHL1   C19 4328   6.559   3.470   6.355 -0.3834  0.6303 -0.0042
   43CHL1  H19A 4329   6.554   3.579   6.333 -1.7832  0.2126 -1.9940
   43CHL1  H19B 4330   6.574   3.461   6.465  1.4208 -0.3793 -0.2921
   43CHL1  H19C 4331   6.633   3.418   6.291 -0.1954  1.2081 -0.2664
   43CHL1    C1 4332   6.300   3.497   6.386  0.5062 -1.0176  0.5657
   43CHL1   H1A 4333   6.297   3.598   6.340 -2.0447 -1.0205  0.6152
   43CHL1   H1B 4334   6.205   3.451   6.351  0.5808 -0.4813 -0.3752
   43CHL1    C2 4335   6.293   3.517   6.539 -0.2857  0.6061  0.6477
   43CHL1   H2A 4336   6.206   3.576   6.574 -0.5951  0.5399  0.0032
   43CHL1   H2B 4337   6.386   3.569   6.571 -0.0019  1.7844 -1.8215
   43CHL1   C20 4338   6.452   3.374   5.630  0.0436 -0.6249 -0.7358
   43CHL1   H20 4339   6.553   3.419   5.624  0.2829 -0.8077  1.2653
   43CHL1   C21 4340   6.368   3.507   5.622 -0.1469  0.4837 -0.3654
   43CHL1  H21A 4341   6.385   3.567   5.530  0.1004  1.5421  0.3645
   43CHL1  H21B 4342   6.394   3.581   5.700  0.0582 -0.9787  1.0146
   43CHL1  H21C 4343   6.260   3.481   5.631 -0.0071 -0.4312 -1.1049
   43CHL1   C22 4344   6.437   3.294   5.505 -0.1883  0.4597  1.0508
   43CHL1  H22A 4345   6.521   3.221   5.501 -2.0502 -1.8775  1.9252
   43CHL1  H22B 4346   6.340   3.243   5.485  0.5661 -0.2357 -1.1625
   43CHL1   C23 4347   6.448   3.389   5.374  0.0020  0.4736  0.0173
   43CHL1  H23A 4348   6.352   3.443   5.366 -0.5360 -0.4147  0.3238
   43CHL1  H23B 4349   6.533   3.460   5.381  0.7931 -0.5252  0.9144
   43CHL1   C24 4350   6.450   3.305   5.241  0.4223  0.7428 -0.9543
   43CHL1  H24A 4351   6.545   3.250   5.234 -0.2596 -0.8382  1.1148
   43CHL1  H24B 4352   6.364   3.238   5.262  0.0827  1.8680  1.7109
   43CHL1   C25 4353   6.415   3.383   5.111  0.1086  0.3552 -0.1320
   43CHL1   H25 4354   6.473   3.477   5.098 -0.8636  0.9066 -0.5715
   43CHL1   C26 4355   6.450   3.305   4.987 -0.9336  0.2819  0.2580
   43CHL1  H26A 4356   6.372   3.227   4.972 -1.0703  0.6852 -1.2331
   43CHL1  H26B 4357   6.447   3.362   4.892 -0.3741 -0.4703 -0.2178
   43CHL1  H26C 4358   6.547   3.252   4.993 -1.2586 -0.5390 -1.3788
   43CHL1   C27 4359   6.263   3.435   5.104 -0.9226 -0.8679 -0.3477
   43CHL1  H27A 4360   6.187   3.355   5.100 -3.4815  1.3852  0.0421
   43CHL1  H27B 4361   6.237   3.498   5.192  1.0806 -1.1480  0.5018
   43CHL1  H27C 4362   6.253   3.500   5.014 -0.3477 -0.2093  0.0538
   44CHL1    C3 4363   1.407   4.488   6.365  0.1743 -0.4541 -0.8684
   44CHL1    H3 4364   1.343   4.578   6.357 -0.0099 -0.6117 -1.1746
   44CHL1    O3 4365   1.415   4.457   6.502 -0.1517 -0.3870 -0.0914
   44CHL1   H3' 4366   1.329   4.486   6.533  0.8136  0.3886  2.0504
   44CHL1    C4 4367   1.339   4.368   6.303  0.5103 -0.5780 -0.2551
   44CHL1   H4A 4368   1.403   4.278   6.313 -0.1677 -1.1622 -1.0465
   44CHL1   H4B 4369   1.239   4.373   6.352 -0.8274 -0.0420 -2.8165
   44CHL1    C5 4370   1.316   4.409   6.158 -0.7558  0.7001  0.1914
   44CHL1    C6 4371   1.195   4.414   6.101 -0.0060  0.2359  0.1580
   44CHL1    H6 4372   1.106   4.383   6.158 -0.9607  0.1692 -1.3209
   44CHL1    C7 4373   1.167   4.446   5.959 -0.2582 -0.2863 -0.0068
   44CHL1   H7A 4374   1.086   4.386   5.912  0.1704 -0.3839 -0.6349
   44CHL1   H7B 4375   1.134   4.552   5.958  2.1230  0.5029 -0.9867
   44CHL1    C8 4376   1.296   4.431   5.873 -0.3006 -0.2706  0.0322
   44CHL1    H8 4377   1.319   4.324   5.860 -0.3101 -0.4666  1.4446
   44CHL1   C14 4378   1.271   4.489   5.734  0.4651  0.0488 -0.8871
   44CHL1   H14 4379   1.238   4.595   5.744  1.9684  0.6350 -1.6779
   44CHL1   C15 4380   1.152   4.429   5.649  0.3075 -0.5128 -0.2888
   44CHL1  H15A 4381   1.165   4.321   5.669  0.1039 -0.6747 -1.0078
   44CHL1  H15B 4382   1.046   4.452   5.672  0.1701 -0.4430 -0.9652
   44CHL1   C16 4383   1.188   4.466   5.505 -0.1883  0.4307  0.3787
   44CHL1  H16A 4384   1.194   4.368   5.453 -1.5540  0.7512 -0.4520
   44CHL1  H16B 4385   1.105   4.523   5.457 -1.4623  0.2290  2.2382
   44CHL1   C17 4386   1.332   4.523   5.505  0.5353  0.4678 -0.6624
   44CHL1   H17 4387   1.319   4.634   5.503 -1.4502  0.2661 -0.9635
   44CHL1   C13 4388   1.396   4.494   5.642  0.1293 -0.6929  0.1310
   44CHL1   C18 4389   1.450   4.350   5.633  0.3520 -0.1613 -0.0264
   44CHL1  H18A 4390   1.364   4.299   5.585  0.2656  0.5888 -0.6900
   44CHL1  H18B 4391   1.544   4.340   5.576 -0.0942  1.4901 -1.1215
   44CHL1  H18C 4392   1.482   4.302   5.728 -1.6420 -1.6209 -0.0415
   44CHL1   C12 4393   1.507   4.584   5.701 -0.9880  0.4163 -0.8097
   44CHL1  H12A 4394   1.599   4.568   5.641  0.8719  1.4936  1.5875
   44CHL1  H12B 4395   1.467   4.688   5.698 -0.2600  0.7130 -3.9046
   44CHL1   C11 4396   1.541   4.532   5.843 -0.1464 -0.5077  0.0003
   44CHL1  H11A 4397   1.592   4.433   5.840 -1.2458 -1.2152  2.4409
   44CHL1  H11B 4398   1.600   4.610   5.895 -2.2026 -0.0937  1.8562
   44CHL1    C9 4399   1.416   4.505   5.939  0.3441 -1.0171  0.4309
   44CHL1    H9 4400   1.366   4.602   5.958  1.6932  0.7675 -3.8916
   44CHL1   C10 4401   1.448   4.447   6.087  0.9251 -0.8449  0.7788
   44CHL1   C19 4402   1.530   4.320   6.054 -0.4432  0.5066  0.5631
   44CHL1  H19A 4403   1.631   4.351   6.021 -0.8378 -0.1734 -1.4021
   44CHL1  H19B 4404   1.528   4.267   6.152 -3.7983  0.5161  0.6418
   44CHL1  H19C 4405   1.486   4.256   5.974 -2.0425  1.7886  0.3469
   44CHL1    C1 4406   1.532   4.552   6.166  0.5059  0.0335 -0.5289
   44CHL1   H1A 4407   1.631   4.567   6.118  0.3383 -0.7247 -1.1252
   44CHL1   H1B 4408   1.480   4.650   6.159 -0.6124 -0.0359  3.8201
   44CHL1    C2 4409   1.543   4.518   6.309  0.7881 -0.9519 -0.1860
   44CHL1   H2A 4410   1.591   4.603   6.362 -1.0055  0.2514 -0.3721
   44CHL1   H2B 4411   1.607   4.428   6.318  2.1674 -0.2489 -2.3448
   44CHL1   C20 4412   1.411   4.486   5.377  0.7447 -0.6483 -0.7164
   44CHL1   H20 4413   1.438   4.378   5.386 -1.1587 -0.9882  2.2069
   44CHL1   C21 4414   1.540   4.571   5.363 -0.2968  0.1721  0.0312
   44CHL1  H21A 4415   1.590   4.559   5.265  0.5849 -1.5563  0.6437
   44CHL1  H21B 4416   1.614   4.535   5.438  0.5415  1.0577 -0.3573
   44CHL1  H21C 4417   1.530   4.681   5.372 -0.1256  0.5224 -3.1198
   44CHL1   C22 4418   1.323   4.503   5.249 -0.2782  0.0693 -0.8959
   44CHL1  H22A 4419   1.380   4.459   5.164 -0.7945 -0.5270 -0.9428
   44CHL1  H22B 4420   1.236   4.435   5.261  0.3359 -0.3848  1.5857
   44CHL1   C23 4421   1.278   4.648   5.218  0.0435 -0.1570 -0.2369
   44CHL1  H23A 4422   1.204   4.694   5.287  1.4846  0.0648  1.2354
   44CHL1  H23B 4423   1.370   4.710   5.220 -0.6813  1.1950 -3.2952
   44CHL1   C24 4424   1.213   4.665   5.079 -0.1834  0.3033 -0.2459
   44CHL1  H24A 4425   1.272   4.636   4.989 -0.2578 -0.7941  0.0365
   44CHL1  H24B 4426   1.113   4.617   5.082  0.2789 -0.6542  0.9775
   44CHL1   C25 4427   1.180   4.813   5.052 -0.0309 -0.6719  0.2147
   44CHL1   H25 4428   1.103   4.842   5.127  1.4000 -0.3725  1.6212
   44CHL1   C26 4429   1.306   4.915   5.068 -0.4520  0.8243 -0.2673
   44CHL1  H26A 4430   1.268   5.019   5.055  0.0947  1.1851  0.8770
   44CHL1  H26B 4431   1.346   4.902   5.171  0.2103 -3.1790 -0.8806
   44CHL1  H26C 4432   1.379   4.893   4.987 -0.1594 -0.6178  0.3650
   44CHL1   C27 4433   1.123   4.834   4.907 -0.1225 -0.5858 -0.7156
   44CHL1  H27A 4434   1.040   4.763   4.885 -0.3643 -0.5750  0.1351
   44CHL1  H27B 4435   1.106   4.941   4.884 -0.2254 -0.7391 -1.3982
   44CHL1  H27C 4436   1.198   4.799   4.833 -1.9898 -2.3307 -1.8956
   45CHL1    C3 4437   0.595   6.596   6.864 -0.8716  1.0808  0.0132
   45CHL1    H3 4438   0.640   6.496   6.880 -1.3584  1.2132  2.7803
   45CHL1    O3 4439   0.567   6.630   6.997  0.1617 -0.2180  0.0566
   45CHL1   H3' 4440   0.474   6.651   6.985 -0.5504 -3.0991 -0.1012
   45CHL1    C4 4441   0.690   6.702   6.808  0.1826  0.3642  0.1153
   45CHL1   H4A 4442   0.627   6.793   6.823 -0.1589  0.4804 -1.7368
   45CHL1   H4B 4443   0.784   6.701   6.866  1.7598  0.5764 -2.3108
   45CHL1    C5 4444   0.725   6.674   6.663  0.3440 -0.3765 -0.1699
   45CHL1    C6 4445   0.856   6.657   6.622  0.2455  0.0527  0.0474
   45CHL1    H6 4446   0.935   6.668   6.698  0.4335  1.6828 -0.3409
   45CHL1    C7 4447   0.897   6.635   6.480 -0.3994 -0.2078 -0.8371
   45CHL1   H7A 4448   0.979   6.701   6.446 -0.7764  1.0393  0.5780
   45CHL1   H7B 4449   0.935   6.532   6.462  2.1801  0.3948  0.8120
   45CHL1    C8 4450   0.787   6.678   6.383  0.7022 -0.2595 -0.0809
   45CHL1    H8 4451   0.771   6.787   6.388  0.3213 -0.2429 -1.3269
   45CHL1   C14 4452   0.828   6.627   6.242  0.3060  0.5891  0.1353
   45CHL1   H14 4453   0.844   6.519   6.260 -2.5049  0.0719  0.0062
   45CHL1   C15 4454   0.953   6.674   6.175 -0.9552  0.2360  0.0447
   45CHL1  H15A 4455   0.944   6.785   6.180 -3.3932  0.1995 -1.9975
   45CHL1  H15B 4456   1.053   6.652   6.218  1.2902  5.0135 -1.9253
   45CHL1   C16 4457   0.938   6.624   6.029  0.2470 -0.1643 -0.1372
   45CHL1  H16A 4458   0.958   6.710   5.961 -0.2684 -1.3254 -1.8248
   45CHL1  H16B 4459   0.998   6.538   5.993 -1.1891 -0.7180 -1.3387
   45CHL1   C17 4460   0.785   6.575   6.016  0.0343  0.1475  0.0860
   45CHL1   H17 4461   0.776   6.467   6.041  0.5633  0.7136  3.1237
   45CHL1   C13 4462   0.712   6.635   6.140 -0.1105  1.2288  0.6981
   45CHL1   C18 4463   0.668   6.780   6.114 -0.2339 -0.1225  0.4394
   45CHL1  H18A 4464   0.754   6.839   6.075 -0.5738  0.2103  0.1814
   45CHL1  H18B 4465   0.572   6.798   6.060  0.4331  0.3408 -0.6156
   45CHL1  H18C 4466   0.643   6.827   6.212  1.0860  4.2259 -1.0764
   45CHL1   C12 4467   0.600   6.542   6.198 -0.4388  0.6231  0.4548
   45CHL1  H12A 4468   0.518   6.536   6.123 -0.7127 -1.7326  0.8437
   45CHL1  H12B 4469   0.624   6.433   6.202 -0.5926  0.4199 -2.0948
   45CHL1   C11 4470   0.550   6.595   6.324 -0.3485  0.4129  0.5975
   45CHL1  H11A 4471   0.501   6.693   6.304  0.9012  0.6079 -1.9004
   45CHL1  H11B 4472   0.468   6.529   6.361 -1.0084  1.6927  1.4845
   45CHL1    C9 4473   0.656   6.613   6.434 -0.2841 -0.0273 -0.7055
   45CHL1    H9 4474   0.690   6.509   6.451  2.2123  0.6348 -1.1786
   45CHL1   C10 4475   0.605   6.662   6.574 -0.0109 -0.4513  0.4226
   45CHL1   C19 4476   0.544   6.806   6.558 -0.0683 -0.2347  0.5898
   45CHL1  H19A 4477   0.496   6.841   6.653  1.3682 -3.3083  2.6035
   45CHL1  H19B 4478   0.620   6.882   6.530 -0.3822 -0.4022 -0.7646
   45CHL1  H19C 4479   0.464   6.812   6.481  0.5114  0.4899  0.0348
   45CHL1    C1 4480   0.500   6.562   6.632  0.6391 -0.4065  0.2044
   45CHL1   H1A 4481   0.405   6.567   6.575  1.5367 -1.0151 -1.4134
   45CHL1   H1B 4482   0.526   6.457   6.611 -0.8749 -0.7119 -0.2716
   45CHL1    C2 4483   0.470   6.579   6.776  0.2778  0.5350 -0.0654
   45CHL1   H2A 4484   0.417   6.498   6.830  3.4151 -1.4304  0.3460
   45CHL1   H2B 4485   0.415   6.674   6.793  0.8133  1.1146 -1.3941
   45CHL1   C20 4486   0.717   6.588   5.876 -0.0348  0.0438 -0.2248
   45CHL1   H20 4487   0.608   6.601   5.895 -0.0618 -1.5588  0.9869
   45CHL1   C21 4488   0.739   6.458   5.799  0.8663 -0.6417  1.0670
   45CHL1  H21A 4489   0.726   6.361   5.851  2.4151 -2.1591 -1.1721
   45CHL1  H21B 4490   0.841   6.452   5.756  0.5800 -0.5247  0.3510
   45CHL1  H21C 4491   0.671   6.455   5.711  1.1588  0.2438  0.8025
   45CHL1   C22 4492   0.764   6.712   5.794 -0.3184  0.2083 -0.2987
   45CHL1  H22A 4493   0.759   6.805   5.855 -0.3300  0.7819 -1.1600
   45CHL1  H22B 4494   0.865   6.690   5.751  1.2536 -0.9651  3.5539
   45CHL1   C23 4495   0.676   6.745   5.670 -1.3416  0.0043  0.7849
   45CHL1  H23A 4496   0.646   6.649   5.622  0.9725  0.0584 -0.9723
   45CHL1  H23B 4497   0.587   6.795   5.713  1.0118  3.4815  2.0221
   45CHL1   C24 4498   0.756   6.840   5.570  0.0164 -0.1277 -0.2584
   45CHL1  H24A 4499   0.796   6.930   5.621  2.1011 -0.9308 -0.4214
   45CHL1  H24B 4500   0.841   6.776   5.539 -0.4572 -1.9828  1.9707
   45CHL1   C25 4501   0.679   6.883   5.443  0.6869  0.7093  0.5036
   45CHL1   H25 4502   0.582   6.927   5.474  0.6594  2.6254 -1.9931
   45CHL1   C26 4503   0.752   6.990   5.367 -0.1931  0.1015 -0.4429
   45CHL1  H26A 4504   0.835   6.952   5.303  1.2303  0.4065  1.1605
   45CHL1  H26B 4505   0.679   7.051   5.311 -0.9003 -0.3375 -0.0145
   45CHL1  H26C 4506   0.800   7.056   5.442  2.2416  0.1065 -1.8749
   45CHL1   C27 4507   0.649   6.767   5.354  0.3568  0.5103 -0.3530
   45CHL1  H27A 4508   0.582   6.688   5.395 -0.6378  1.7447  0.4520
   45CHL1  H27B 4509   0.601   6.792   5.257  1.0189 -0.1298 -0.8625
   45CHL1  H27C 4510   0.739   6.711   5.320  0.7676  2.3411 -2.4647
   46CHL1    C3 4511   2.394   6.743   6.896 -0.0979  0.1059 -0.1474
   46CHL1    H3 4512   2.297   6.690   6.886  0.9625 -2.4286  1.7653
   46CHL1    O3 4513   2.434   6.738   7.029  0.0040 -0.5663 -0.3245
   46CHL1   H3' 4514   2.530   6.744   7.033  0.1413 -1.8179 -1.2602
   46CHL1    C4 4515   2.497   6.663   6.808  0.3939 -0.2661  1.1074
   46CHL1   H4A 4516   2.601   6.685   6.841  1.0000 -2.2349  0.6306
   46CHL1   H4B 4517   2.476   6.558   6.838 -1.1927 -1.1007 -2.4077
   46CHL1    C5 4518   2.475   6.677   6.653 -0.2341 -0.4102 -0.0813
   46CHL1    C6 4519   2.448   6.569   6.579 -0.7350  0.4275  0.3347
   46CHL1    H6 4520   2.448   6.468   6.622 -1.3110  0.4684  0.4375
   46CHL1    C7 4521   2.412   6.574   6.433  0.5164 -0.5864 -0.3760
   46CHL1   H7A 4522   2.475   6.502   6.377  0.9203 -0.7430  0.2609
   46CHL1   H7B 4523   2.307   6.546   6.413  0.1088  0.0155  0.8366
   46CHL1    C8 4524   2.449   6.710   6.369 -0.0451 -0.2481 -0.6846
   46CHL1    H8 4525   2.559   6.727   6.368 -0.3499  2.0460 -1.0172
   46CHL1   C14 4526   2.392   6.710   6.222  0.0183  0.5025 -0.2441
   46CHL1   H14 4527   2.283   6.712   6.245 -0.1577  1.9855 -1.0509
   46CHL1   C15 4528   2.418   6.589   6.128 -0.4012  0.1870 -0.0246
   46CHL1  H15A 4529   2.521   6.549   6.119 -0.1316  1.0049 -0.6756
   46CHL1  H15B 4530   2.354   6.503   6.157  1.9123 -1.5174  0.2631
   46CHL1   C16 4531   2.375   6.646   5.993 -0.6574  0.2325  0.0890
   46CHL1  H16A 4532   2.446   6.625   5.910  0.6932  0.5264  1.1421
   46CHL1  H16B 4533   2.277   6.601   5.963  0.1103 -2.1947  1.0077
   46CHL1   C17 4534   2.355   6.801   6.016  1.0865  0.0413  0.7882
   46CHL1   H17 4535   2.247   6.822   6.023  0.6995  0.7575 -4.1677
   46CHL1   C13 4536   2.423   6.841   6.150 -0.0059 -0.2124 -0.5944
   46CHL1   C18 4537   2.574   6.848   6.120 -0.7506  0.0448  0.0028
   46CHL1  H18A 4538   2.645   6.836   6.205 -0.7846 -1.4971 -0.1684
   46CHL1  H18B 4539   2.602   6.768   6.048 -0.5114  0.0920  0.0408
   46CHL1  H18C 4540   2.606   6.940   6.065  1.6784 -2.4962 -3.2475
   46CHL1   C12 4541   2.369   6.960   6.234  0.5729 -0.0863 -0.1917
   46CHL1  H12A 4542   2.384   7.057   6.182 -3.2827  1.2808  0.8494
   46CHL1  H12B 4543   2.258   6.947   6.232  0.1646  2.4678  0.9472
   46CHL1   C11 4544   2.430   6.964   6.381 -0.5363 -0.8969 -0.3746
   46CHL1  H11A 4545   2.537   6.990   6.377 -0.8357  0.3731 -0.4338
   46CHL1  H11B 4546   2.381   7.049   6.433 -0.2087  0.1436 -1.7130
   46CHL1    C9 4547   2.410   6.828   6.452  0.0774 -0.2967  0.0478
   46CHL1    H9 4548   2.301   6.811   6.465 -0.1441 -0.7155 -2.0346
   46CHL1   C10 4549   2.463   6.819   6.600  0.6215  0.7137  0.4201
   46CHL1   C19 4550   2.608   6.878   6.603  0.6490  0.4332  0.6983
   46CHL1  H19A 4551   2.671   6.854   6.691  3.8812 -0.0375 -1.5383
   46CHL1  H19B 4552   2.671   6.828   6.526  1.4803  0.8280  1.1046
   46CHL1  H19C 4553   2.598   6.988   6.591  0.4278  0.4122  0.6922
   46CHL1    C1 4554   2.370   6.896   6.684  0.8283  0.2832  0.1559
   46CHL1   H1A 4555   2.365   7.004   6.658  0.0273  0.3158  0.4152
   46CHL1   H1B 4556   2.265   6.863   6.664  0.9999  0.2169 -0.6557
   46CHL1    C2 4557   2.393   6.888   6.837  0.3545 -0.7851  0.3978
   46CHL1   H2A 4558   2.310   6.950   6.877  0.5989 -0.5972  0.6174
   46CHL1   H2B 4559   2.491   6.938   6.850  0.3565 -0.1895 -1.5992
   46CHL1   C20 4560   2.395   6.882   5.885  0.2798  0.5683 -0.0438
   46CHL1   H20 4561   2.504   6.867   5.868  0.2621 -0.8564  0.8757
   46CHL1   C21 4562   2.380   7.035   5.907  0.1262 -0.2723  0.8237
   46CHL1  H21A 4563   2.456   7.068   5.981 -0.6897  0.7669  1.2341
   46CHL1  H21B 4564   2.276   7.059   5.938 -0.1448  0.2557 -0.4360
   46CHL1  H21C 4565   2.399   7.084   5.809 -3.7143  0.5056  0.2877
   46CHL1   C22 4566   2.317   6.832   5.761 -0.9914 -0.8376 -0.5757
   46CHL1  H22A 4567   2.298   6.723   5.757 -1.2715 -0.7561 -2.2034
   46CHL1  H22B 4568   2.221   6.889   5.768 -0.4781 -0.1252  1.8012
   46CHL1   C23 4569   2.385   6.878   5.635  0.5496  0.0416 -0.8552
   46CHL1  H23A 4570   2.389   6.987   5.615  0.1300  0.0364 -0.9729
   46CHL1  H23B 4571   2.488   6.839   5.617  0.4434 -0.3514 -0.6251
   46CHL1   C24 4572   2.311   6.831   5.511  0.1727  0.2995  0.3269
   46CHL1  H24A 4573   2.361   6.872   5.421  0.7168  1.8872  1.3062
   46CHL1  H24B 4574   2.310   6.720   5.511 -0.8443  0.2932 -0.6978
   46CHL1   C25 4575   2.158   6.870   5.504 -0.0567 -0.3459  0.0570
   46CHL1   H25 4576   2.118   6.829   5.599  0.8089 -1.2397  0.0388
   46CHL1   C26 4577   2.139   7.025   5.507  0.4160 -0.0389 -0.0556
   46CHL1  H26A 4578   2.194   7.066   5.594  2.0172 -0.4835 -0.8194
   46CHL1  H26B 4579   2.197   7.062   5.419  0.3649  0.0586 -0.0481
   46CHL1  H26C 4580   2.030   7.046   5.502 -0.0570 -2.1438  0.3243
   46CHL1   C27 4581   2.075   6.814   5.389  0.5884 -0.8147  0.1222
   46CHL1  H27A 4582   2.100   6.870   5.296  1.1311 -0.2338  0.6031
   46CHL1  H27B 4583   2.089   6.705   5.374  1.3944 -0.6177 -0.6525
   46CHL1  H27C 4584   1.967   6.826   5.414 -0.0923 -1.9482 -2.0652
   47CHL1    C3 4585   4.671   4.606   6.592 -0.8976 -0.1227 -0.2794
   47CHL1    H3 4586   4.766   4.654   6.559 -1.7045  2.1380  0.5057
   47CHL1    O3 4587   4.668   4.599   6.735 -0.3875  0.5654 -0.3569
   47CHL1   H3' 4588   4.583   4.560   6.756 -0.2888  1.6097  2.4574
   47CHL1    C4 4589   4.552   4.692   6.543  0.5434  0.3628 -0.2805
   47CHL1   H4A 4590   4.464   4.638   6.584  0.8355 -0.9681 -1.3366
   47CHL1   H4B 4591   4.557   4.792   6.591 -1.6460  0.9453 -1.0987
   47CHL1    C5 4592   4.545   4.701   6.392  0.0417  0.1362 -0.0778
   47CHL1    C6 4593   4.533   4.823   6.333 -0.6434  0.6729  0.1252
   47CHL1    H6 4594   4.526   4.913   6.396  2.7287  1.1089  0.1082
   47CHL1    C7 4595   4.526   4.838   6.183  0.7326 -0.3983  0.1939
   47CHL1   H7A 4596   4.449   4.916   6.162  0.0021 -1.3536 -0.7802
   47CHL1   H7B 4597   4.620   4.880   6.140 -0.7488  1.7880 -1.1172
   47CHL1    C8 4598   4.498   4.710   6.104  0.2671  0.4658  0.0321
   47CHL1    H8 4599   4.390   4.687   6.118  0.3640  0.4060  0.7231
   47CHL1   C14 4600   4.536   4.726   5.956 -0.1342 -0.3909  0.6219
   47CHL1   H14 4601   4.645   4.748   5.948 -0.5186  1.1907 -1.1712
   47CHL1   C15 4602   4.478   4.840   5.881  0.8119 -0.9474  0.6542
   47CHL1  H15A 4603   4.368   4.854   5.885  0.7179 -1.6642  0.7165
   47CHL1  H15B 4604   4.538   4.932   5.895 -0.5157  0.4370 -1.9747
   47CHL1   C16 4605   4.487   4.807   5.733  0.1084  0.2575  0.3437
   47CHL1  H16A 4606   4.388   4.826   5.685 -0.4453 -0.3867  1.1986
   47CHL1  H16B 4607   4.554   4.884   5.690 -2.1394  2.4045  0.4919
   47CHL1   C17 4608   4.544   4.665   5.728 -0.2882 -0.1362 -0.1648
   47CHL1   H17 4609   4.655   4.672   5.729 -0.2302 -0.6496  1.5973
   47CHL1   C13 4610   4.503   4.609   5.866 -0.3625  0.0104 -0.5302
   47CHL1   C18 4611   4.352   4.572   5.858 -0.1496 -0.3456 -0.7510
   47CHL1  H18A 4612   4.291   4.661   5.833  0.8340  0.1782 -1.3488
   47CHL1  H18B 4613   4.330   4.501   5.775  0.4587 -0.6055 -0.6981
   47CHL1  H18C 4614   4.306   4.540   5.954  2.1465  2.6744  1.5807
   47CHL1   C12 4615   4.580   4.484   5.923 -0.0010  0.2989 -0.3026
   47CHL1  H12A 4616   4.560   4.387   5.872  1.8464  0.1152 -0.7442
   47CHL1  H12B 4617   4.689   4.503   5.909  0.1532  0.5319  1.0340
   47CHL1   C11 4618   4.550   4.462   6.075  0.1347  0.0072 -0.7219
   47CHL1  H11A 4619   4.444   4.430   6.093  0.3435  0.7656  2.4826
   47CHL1  H11B 4620   4.616   4.382   6.115  0.8604  1.1301  0.3902
   47CHL1    C9 4621   4.573   4.587   6.165 -0.2993 -0.4343  0.6372
   47CHL1    H9 4622   4.678   4.622   6.163 -0.6931  0.8312 -1.0222
   47CHL1   C10 4623   4.552   4.562   6.315 -0.2182 -0.9354  0.5052
   47CHL1   C19 4624   4.421   4.488   6.344  0.4028 -0.4211  0.5254
   47CHL1  H19A 4625   4.386   4.487   6.449 -2.7318 -3.9597 -0.3345
   47CHL1  H19B 4626   4.336   4.518   6.280  2.3408 -0.6407 -2.3335
   47CHL1  H19C 4627   4.430   4.381   6.317  2.6887 -0.0152 -0.5393
   47CHL1    C1 4628   4.665   4.481   6.381 -0.1021  0.1771  0.7319
   47CHL1   H1A 4629   4.664   4.376   6.344 -3.0644  0.0336  0.9804
   47CHL1   H1B 4630   4.762   4.525   6.348  1.0497 -2.3882  0.4857
   47CHL1    C2 4631   4.668   4.467   6.528 -0.3349  0.0088 -0.1028
   47CHL1   H2A 4632   4.763   4.419   6.561  1.2715  1.8401 -1.8091
   47CHL1   H2B 4633   4.581   4.402   6.551  1.0078 -1.2613  1.7186
   47CHL1   C20 4634   4.506   4.593   5.602 -1.0569 -0.2192 -0.2654
   47CHL1   H20 4635   4.395   4.590   5.594 -1.0231 -0.7539 -0.5461
   47CHL1   C21 4636   4.553   4.448   5.581 -0.2431 -0.3043 -0.0088
   47CHL1  H21A 4637   4.513   4.394   5.670  0.4663  0.6658  0.9245
   47CHL1  H21B 4638   4.663   4.436   5.577 -0.2802 -1.9444  1.9603
   47CHL1  H21C 4639   4.514   4.418   5.481 -0.9602 -0.0540  0.1947
   47CHL1   C22 4640   4.551   4.672   5.467 -0.1535 -0.1710 -0.2501
   47CHL1  H22A 4641   4.514   4.610   5.383 -0.6290 -1.4071  0.8499
   47CHL1  H22B 4642   4.489   4.764   5.470 -0.5555 -0.4643  0.5109
   47CHL1   C23 4643   4.701   4.698   5.474  0.6809  0.7167 -0.1507
   47CHL1  H23A 4644   4.731   4.760   5.561 -0.1625  0.7659  0.1096
   47CHL1  H23B 4645   4.757   4.602   5.485 -0.7249  0.0121  1.2514
   47CHL1   C24 4646   4.747   4.786   5.355 -0.2054 -0.0426 -0.3489
   47CHL1  H24A 4647   4.707   4.890   5.362 -0.4886 -0.1269 -0.6988
   47CHL1  H24B 4648   4.858   4.791   5.354 -0.0609  0.6878  3.5895
   47CHL1   C25 4649   4.696   4.732   5.220 -0.3772 -0.4471 -0.0982
   47CHL1   H25 4650   4.585   4.732   5.219 -0.4074  1.3498  0.0936
   47CHL1   C26 4651   4.733   4.836   5.120 -0.7154 -0.3906 -0.0652
   47CHL1  H26A 4652   4.707   4.798   5.019 -0.5720  0.3132 -0.3751
   47CHL1  H26B 4653   4.671   4.928   5.127  1.2380  0.9897 -0.1260
   47CHL1  H26C 4654   4.842   4.858   5.109 -1.2946  1.8638 -2.1765
   47CHL1   C27 4655   4.755   4.592   5.195  0.0811  0.7947  0.0575
   47CHL1  H27A 4656   4.731   4.559   5.092  1.0267  1.0469 -0.2614
   47CHL1  H27B 4657   4.866   4.598   5.193 -0.0015  3.6032 -1.7758
   47CHL1  H27C 4658   4.722   4.523   5.276 -1.0839  1.1869 -0.0713
   48CHL1    C3 4659   1.824   0.109   6.902 -0.3818 -1.2426  0.3258
   48CHL1    H3 4660   1.851   0.216   6.912  0.9184 -1.6823  2.1347
   48CHL1    O3 4661   1.810   0.060   7.034 -0.2348 -0.3074  0.6927
   48CHL1   H3' 4662   1.800  -0.033   7.012  3.7290 -0.4386 -1.3956
   48CHL1    C4 4663   1.694   0.071   6.821  0.0960 -0.4546  0.2284
   48CHL1   H4A 4664   1.668  -0.035   6.839 -1.2504  0.1949  2.5570
   48CHL1   H4B 4665   1.608   0.131   6.859  0.0230  0.8355 -1.8307
   48CHL1    C5 4666   1.710   0.110   6.674 -0.2071 -0.2498 -0.2483
   48CHL1    C6 4667   1.640   0.203   6.601  0.4535 -0.6740 -0.5734
   48CHL1    H6 4668   1.559   0.257   6.651  1.2227  1.6856 -1.7507
   48CHL1    C7 4669   1.660   0.226   6.455  0.2662  0.2220  0.4320
   48CHL1   H7A 4670   1.561   0.252   6.412  0.8392  2.2609  0.2033
   48CHL1   H7B 4671   1.720   0.319   6.443 -0.6017  0.9646  1.5662
   48CHL1    C8 4672   1.736   0.112   6.387  0.5508  0.4618 -0.2950
   48CHL1    H8 4673   1.661   0.030   6.381 -0.1221  1.1758 -2.4345
   48CHL1   C14 4674   1.763   0.149   6.245  0.1506 -0.2786  0.5209
   48CHL1   H14 4675   1.843   0.224   6.258  0.3767 -0.2480 -0.8902
   48CHL1   C15 4676   1.646   0.216   6.181  0.6264  0.0497 -0.4843
   48CHL1  H15A 4677   1.552   0.160   6.203  0.9429  0.8297  3.6206
   48CHL1  H15B 4678   1.635   0.323   6.209  0.3290 -0.4201  1.3103
   48CHL1   C16 4679   1.681   0.209   6.026 -0.2068 -0.0579  0.3040
   48CHL1  H16A 4680   1.606   0.166   5.956  0.8061  0.2529 -1.0340
   48CHL1  H16B 4681   1.705   0.310   5.984 -2.5369  0.1726 -0.6211
   48CHL1   C17 4682   1.811   0.117   6.017 -0.4242 -0.6339 -0.3839
   48CHL1   H17 4683   1.904   0.177   6.014 -0.0524 -1.1983 -0.3748
   48CHL1   C13 4684   1.824   0.045   6.160 -1.0362  0.4748  0.2523
   48CHL1   C18 4685   1.734  -0.078   6.157  0.1877  0.4051  0.6673
   48CHL1  H18A 4686   1.774  -0.156   6.088  0.2382  3.2950 -2.8658
   48CHL1  H18B 4687   1.734  -0.115   6.262  0.5429  1.3349  1.0121
   48CHL1  H18C 4688   1.633  -0.051   6.120  0.9105  2.9278  0.3620
   48CHL1   C12 4689   1.964   0.017   6.220  0.0450  0.2571 -0.5788
   48CHL1  H12A 4690   2.013  -0.065   6.162 -0.0222  0.5731 -1.0922
   48CHL1  H12B 4691   2.035   0.102   6.212 -2.4879  2.3476 -2.9455
   48CHL1   C11 4692   1.955  -0.022   6.372 -0.1528 -0.3937 -0.4762
   48CHL1  H11A 4693   1.923  -0.128   6.371  4.2133 -1.9023 -0.0962
   48CHL1  H11B 4694   2.058  -0.022   6.412 -0.2062  1.0419 -0.2911
   48CHL1    C9 4695   1.861   0.071   6.463  0.3101 -0.9784  0.2728
   48CHL1    H9 4696   1.922   0.163   6.477 -1.8838  0.5909 -0.0071
   48CHL1   C10 4697   1.825   0.032   6.607  0.2138 -0.2949 -0.3658
   48CHL1   C19 4698   1.783  -0.117   6.604  0.4833  0.5037 -0.9968
   48CHL1  H19A 4699   1.699  -0.137   6.533 -1.6266  2.0085  0.9253
   48CHL1  H19B 4700   1.870  -0.181   6.581  0.2540 -1.1994  2.3085
   48CHL1  H19C 4701   1.756  -0.154   6.705  1.2092 -0.5478 -1.1780
   48CHL1    C1 4702   1.952   0.056   6.697 -0.0966 -0.1373 -1.1616
   48CHL1   H1A 4703   2.030  -0.014   6.660 -0.3240 -0.8990 -0.2359
   48CHL1   H1B 4704   1.995   0.157   6.681  1.4830 -0.9248 -2.1576
   48CHL1    C2 4705   1.937   0.026   6.845  0.0447  0.1111  0.1751
   48CHL1   H2A 4706   2.031   0.044   6.901  0.4797  0.3700 -0.6120
   48CHL1   H2B 4707   1.926  -0.082   6.867  0.0714 -0.0989 -0.7706
   48CHL1   C20 4708   1.819   0.034   5.887  0.4935 -0.1469 -1.0853
   48CHL1   H20 4709   1.743  -0.047   5.888  0.9244 -1.0188  5.3074
   48CHL1   C21 4710   1.960  -0.034   5.885  0.6518 -0.6191  0.2485
   48CHL1  H21A 4711   1.984  -0.103   5.969  0.6454  1.6213  2.1860
   48CHL1  H21B 4712   1.967  -0.100   5.796  1.4699 -0.8219  0.4492
   48CHL1  H21C 4713   2.055   0.023   5.871  0.2185 -0.2348 -1.2283
   48CHL1   C22 4714   1.805   0.127   5.771  0.2452  0.1169  0.0467
   48CHL1  H22A 4715   1.725   0.203   5.786  0.4871  0.8094 -1.9495
   48CHL1  H22B 4716   1.895   0.190   5.760 -1.5525  2.4176 -2.7599
   48CHL1   C23 4717   1.783   0.070   5.626 -0.5411  1.0401  0.2753
   48CHL1  H23A 4718   1.825   0.149   5.559 -0.1539  1.1162  0.5993
   48CHL1  H23B 4719   1.848  -0.018   5.609 -2.0067  0.3828 -2.5840
   48CHL1   C24 4720   1.641   0.022   5.595  0.1558  0.3191  0.2114
   48CHL1  H24A 4721   1.629  -0.070   5.656  1.7312 -1.0132 -1.3762
   48CHL1  H24B 4722   1.571   0.102   5.626  0.8462  1.1248 -0.2768
   48CHL1   C25 4723   1.617  -0.023   5.449  0.1388 -0.4268 -0.0350
   48CHL1   H25 4724   1.630   0.065   5.382 -0.7200  0.1493  0.5307
   48CHL1   C26 4725   1.703  -0.134   5.395 -0.2484 -0.3271 -0.7400
   48CHL1  H26A 4726   1.688  -0.235   5.439  1.0389 -0.9405 -1.6293
   48CHL1  H26B 4727   1.677  -0.143   5.287  0.8802  2.3533 -1.3228
   48CHL1  H26C 4728   1.812  -0.112   5.396  0.0092 -1.4903 -1.3964
   48CHL1   C27 4729   1.462  -0.058   5.430 -0.0941  0.6022 -0.0649
   48CHL1  H27A 4730   1.445  -0.142   5.500  2.1302  0.4259  0.3357
   48CHL1  H27B 4731   1.389   0.025   5.447 -1.5589 -0.3926 -1.3288
   48CHL1  H27C 4732   1.448  -0.099   5.328  1.0152  0.4457 -0.1709
   49CHL1    C3 4733   1.931   3.710   3.191 -0.3437  0.2872  0.3892
   49CHL1    H3 4734   1.952   3.603   3.207  0.4539  0.2768 -0.6290
   49CHL1    O3 4735   1.922   3.731   3.052  0.1659  0.0793  0.0364
   49CHL1   H3' 4736   2.004   3.698   3.015  1.2021  3.1602 -0.7473
   49CHL1    C4 4737   1.799   3.733   3.267 -0.2495 -0.4936 -0.4368
   49CHL1   H4A 4738   1.781   3.840   3.245  3.7334  0.6588  1.0263
   49CHL1   H4B 4739   1.719   3.681   3.211 -0.1078 -0.0411 -1.0667
   49CHL1    C5 4740   1.815   3.710   3.418  0.5278  0.1949 -0.2399
   49CHL1    C6 4741   1.744   3.612   3.474  0.5995  0.4757  0.4328
   49CHL1    H6 4742   1.669   3.566   3.409  0.7779  0.6287  0.1134
   49CHL1    C7 4743   1.738   3.570   3.616  0.0671  0.0999  0.2361
   49CHL1   H7A 4744   1.633   3.571   3.654 -0.8474  0.6397 -2.1292
   49CHL1   H7B 4745   1.778   3.471   3.645  2.1083  0.7146 -0.3358
   49CHL1    C8 4746   1.810   3.681   3.699  0.7259  0.6336  0.0369
   49CHL1    H8 4747   1.734   3.762   3.701 -1.3140 -1.2005  1.9947
   49CHL1   C14 4748   1.833   3.636   3.844 -0.0235 -0.3575  0.3835
   49CHL1   H14 4749   1.906   3.553   3.836 -0.6197 -1.0333  1.6279
   49CHL1   C15 4750   1.716   3.573   3.919  0.7180 -0.4094 -0.2143
   49CHL1  H15A 4751   1.622   3.631   3.901 -0.0879 -1.2845  1.0203
   49CHL1  H15B 4752   1.712   3.464   3.898  0.1663 -0.7398  1.4873
   49CHL1   C16 4753   1.755   3.592   4.071  0.1649  0.3730 -0.3865
   49CHL1  H16A 4754   1.682   3.659   4.120 -2.4329 -1.0815 -2.0269
   49CHL1  H16B 4755   1.752   3.496   4.127 -0.3157 -0.1678 -1.3137
   49CHL1   C17 4756   1.893   3.662   4.075 -0.3506 -0.3516  0.0299
   49CHL1   H17 4757   1.977   3.591   4.065  1.0749  1.1236  1.0141
   49CHL1   C13 4758   1.888   3.741   3.940 -0.2100 -0.3739  0.3090
   49CHL1   C18 4759   1.795   3.868   3.957  0.0536  0.2239  0.1692
   49CHL1  H18A 4760   1.781   3.906   3.853 -1.8788  1.2323  0.7485
   49CHL1  H18B 4761   1.705   3.848   4.018 -0.3235  2.2033  0.3299
   49CHL1  H18C 4762   1.854   3.947   4.008  1.1170  0.2187 -0.9953
   49CHL1   C12 4763   2.028   3.773   3.879  0.1246 -0.2373 -0.4870
   49CHL1  H12A 4764   2.073   3.858   3.935  0.6154  0.0750 -1.3357
   49CHL1  H12B 4765   2.104   3.692   3.868 -2.0177 -2.5803  0.8738
   49CHL1   C11 4766   2.015   3.832   3.733 -0.2336 -0.4573 -0.5483
   49CHL1  H11A 4767   1.951   3.923   3.739 -0.1542 -0.4952  2.1695
   49CHL1  H11B 4768   2.112   3.852   3.684  0.1073 -2.1093 -0.5944
   49CHL1    C9 4769   1.944   3.730   3.637  0.2233 -0.0650 -0.2640
   49CHL1    H9 4770   2.015   3.645   3.642  0.0713 -0.1363  1.3954
   49CHL1   C10 4771   1.925   3.790   3.496 -0.4433 -0.1552 -0.2522
   49CHL1   C19 4772   1.858   3.933   3.496 -0.2957 -0.1990 -0.4009
   49CHL1  H19A 4773   1.755   3.927   3.538 -0.8979 -2.1293 -2.0088
   49CHL1  H19B 4774   1.927   4.000   3.552 -0.7945  1.6523 -1.9246
   49CHL1  H19C 4775   1.856   3.975   3.393  1.8008  1.1431  0.0461
   49CHL1    C1 4776   2.054   3.777   3.402  0.1666  0.2702 -0.3761
   49CHL1   H1A 4777   2.135   3.846   3.435  0.2515 -0.4257  0.8978
   49CHL1   H1B 4778   2.096   3.675   3.416 -0.1665 -0.2267 -2.5897
   49CHL1    C2 4779   2.038   3.798   3.251  0.0916 -0.5288  0.1806
   49CHL1   H2A 4780   2.133   3.757   3.210 -0.4607 -0.0302 -1.6997
   49CHL1   H2B 4781   2.019   3.901   3.215 -0.3654 -0.5145  0.4505
   49CHL1   C20 4782   1.913   3.738   4.212  0.4698 -0.6396 -0.1225
   49CHL1   H20 4783   1.840   3.821   4.205  1.9884  0.7081 -0.6080
   49CHL1   C21 4784   2.055   3.798   4.211 -0.3464  0.5390  0.4909
   49CHL1  H21A 4785   2.075   3.882   4.142  1.0623 -0.4235 -0.3108
   49CHL1  H21B 4786   2.133   3.720   4.200  1.2348  2.0623  0.6086
   49CHL1  H21C 4787   2.075   3.837   4.313 -0.0521 -1.5705  1.2894
   49CHL1   C22 4788   1.880   3.658   4.341  0.0650  1.0496  0.5379
   49CHL1  H22A 4789   1.908   3.721   4.428 -0.7257  1.1188  0.7480
   49CHL1  H22B 4790   1.770   3.645   4.334  0.1149  0.9481 -0.1312
   49CHL1   C23 4791   1.946   3.516   4.348 -0.0549  0.1565  0.0978
   49CHL1  H23A 4792   1.943   3.450   4.259  0.4732  0.6087 -0.2607
   49CHL1  H23B 4793   2.053   3.518   4.378 -0.2962 -3.0037  1.5104
   49CHL1   C24 4794   1.880   3.444   4.459 -0.3540  0.0038 -0.1281
   49CHL1  H24A 4795   1.913   3.496   4.551  1.2278  0.6744 -1.0217
   49CHL1  H24B 4796   1.770   3.432   4.459 -0.1582 -2.8292  1.3629
   49CHL1   C25 4797   1.930   3.297   4.479  0.5469 -0.5031 -0.1936
   49CHL1   H25 4798   1.871   3.261   4.566  0.9871  0.7375  0.6335
   49CHL1   C26 4799   1.887   3.206   4.356  0.2013 -0.1854 -0.1544
   49CHL1  H26A 4800   1.919   3.102   4.378  1.3700 -0.1824 -1.6815
   49CHL1  H26B 4801   1.778   3.207   4.334  0.8543  1.1904 -4.0034
   49CHL1  H26C 4802   1.951   3.243   4.273  0.2400  0.5206  0.1773
   49CHL1   C27 4803   2.075   3.289   4.521  0.7764  0.0871  0.5535
   49CHL1  H27A 4804   2.080   3.190   4.572 -0.4630  0.3526  1.2368
   49CHL1  H27B 4805   2.141   3.288   4.432  1.1069  1.4497  0.7499
   49CHL1  H27C 4806   2.105   3.370   4.592  1.3423  0.0946  0.3098
   50CHL1    C3 4807   0.763   1.021   3.262  0.7352 -1.0381 -0.7418
   50CHL1    H3 4808   0.654   0.997   3.271  0.2929  1.0594 -0.0524
   50CHL1    O3 4809   0.823   0.984   3.136 -0.0848 -0.2103  0.2118
   50CHL1   H3' 4810   0.813   0.889   3.140  2.0622 -0.5236 -0.7801
   50CHL1    C4 4811   0.777   1.177   3.277 -0.6455  0.1162  0.3668
   50CHL1   H4A 4812   0.885   1.196   3.255 -0.3797 -0.5028  1.0840
   50CHL1   H4B 4813   0.710   1.229   3.205  2.1138  4.1859  0.3560
   50CHL1    C5 4814   0.740   1.219   3.411  0.4342 -0.0175  0.0250
   50CHL1    C6 4815   0.651   1.320   3.430 -0.1953  0.2262 -1.1381
   50CHL1    H6 4816   0.615   1.373   3.341  1.1132  2.5957 -0.3496
   50CHL1    C7 4817   0.631   1.385   3.564 -0.0367 -0.0145 -0.0251
   50CHL1   H7A 4818   0.639   1.494   3.545  1.5098 -0.1894 -0.5030
   50CHL1   H7B 4819   0.527   1.371   3.601 -0.0587  0.5721  0.1381
   50CHL1    C8 4820   0.746   1.357   3.660  0.0630  0.0249  0.2883
   50CHL1    H8 4821   0.839   1.410   3.633 -0.8471  1.0890 -0.8989
   50CHL1   C14 4822   0.706   1.407   3.802 -0.8271  0.1077  0.0239
   50CHL1   H14 4823   0.610   1.359   3.831 -0.7889  0.0110 -0.0115
   50CHL1   C15 4824   0.679   1.556   3.816  0.3878 -0.0371  0.2896
   50CHL1  H15A 4825   0.763   1.610   3.767 -0.0947  1.4421  1.0410
   50CHL1  H15B 4826   0.581   1.582   3.771 -0.5187 -3.2985  0.1560
   50CHL1   C16 4827   0.696   1.588   3.968  0.2738  0.4207  0.0906
   50CHL1  H16A 4828   0.750   1.681   3.995  2.8878 -0.9062 -0.1395
   50CHL1  H16B 4829   0.593   1.595   4.010  0.0736 -0.1789 -0.2844
   50CHL1   C17 4830   0.758   1.453   4.026  0.7829 -0.3012  0.4175
   50CHL1   H17 4831   0.669   1.400   4.066 -0.0275  0.0006 -0.9286
   50CHL1   C13 4832   0.807   1.373   3.905 -0.2186 -0.6073  0.3892
   50CHL1   C18 4833   0.954   1.432   3.869  0.6049 -0.3489  1.0425
   50CHL1  H18A 4834   0.991   1.404   3.768 -0.3890  2.5953 -0.2381
   50CHL1  H18B 4835   0.942   1.540   3.844  0.9933 -0.3405  0.8875
   50CHL1  H18C 4836   1.031   1.404   3.944  0.4571 -2.2256  0.5563
   50CHL1   C12 4837   0.813   1.217   3.925  0.3102 -0.1178 -0.5060
   50CHL1  H12A 4838   0.888   1.179   3.997 -0.4492  2.0406  1.5463
   50CHL1  H12B 4839   0.716   1.178   3.962  1.5229 -0.9892  1.9649
   50CHL1   C11 4840   0.848   1.155   3.789 -0.6061  0.4144  0.0467
   50CHL1  H11A 4841   0.955   1.182   3.776 -1.3001  3.1702 -0.6250
   50CHL1  H11B 4842   0.839   1.044   3.794  0.1368  0.2324 -1.9954
   50CHL1    C9 4843   0.762   1.201   3.670  1.1073  0.1423  0.1371
   50CHL1    H9 4844   0.659   1.161   3.675  0.9637  0.0968 -2.1461
   50CHL1   C10 4845   0.819   1.153   3.530  0.0567  0.1642  0.1280
   50CHL1   C19 4846   0.976   1.171   3.525  0.2290  0.1946  0.0958
   50CHL1  H19A 4847   0.997   1.267   3.577 -0.1115  0.6975 -0.6674
   50CHL1  H19B 4848   1.022   1.090   3.585  0.0006 -1.5310 -1.9299
   50CHL1  H19C 4849   1.016   1.161   3.422  0.4152 -1.1782  0.2857
   50CHL1    C1 4850   0.793   0.994   3.516 -0.0780 -0.4263  0.6399
   50CHL1   H1A 4851   0.852   0.941   3.594 -0.8222  0.8606  2.1288
   50CHL1   H1B 4852   0.689   0.962   3.534  0.3188 -1.6387  0.9125
   50CHL1    C2 4853   0.840   0.949   3.377  0.0349  0.0951  0.0006
   50CHL1   H2A 4854   0.830   0.840   3.361  0.8467 -0.0547  0.4494
   50CHL1   H2B 4855   0.950   0.964   3.370  0.0352  1.4461  2.0621
   50CHL1   C20 4856   0.855   1.488   4.144 -0.1027  1.4249 -0.5148
   50CHL1   H20 4857   0.936   1.550   4.101  0.6313  0.4095 -0.6237
   50CHL1   C21 4858   0.913   1.361   4.201  0.3408  0.2041 -0.0768
   50CHL1  H21A 4859   0.970   1.383   4.294  1.2602 -0.1787 -0.5373
   50CHL1  H21B 4860   0.968   1.309   4.120 -1.2785 -1.9946  0.1402
   50CHL1  H21C 4861   0.841   1.284   4.236  1.0620 -0.8378 -0.8283
   50CHL1   C22 4862   0.788   1.580   4.257 -0.1400  0.3110  0.5827
   50CHL1  H22A 4863   0.865   1.604   4.334  0.3001  1.1896 -0.1025
   50CHL1  H22B 4864   0.765   1.678   4.208  0.8406  0.0390 -0.4870
   50CHL1   C23 4865   0.669   1.512   4.329 -1.1552  1.1297 -0.0377
   50CHL1  H23A 4866   0.601   1.493   4.244  1.4331  0.6689 -2.1429
   50CHL1  H23B 4867   0.697   1.408   4.356 -0.2730  0.5278 -2.9472
   50CHL1   C24 4868   0.611   1.593   4.446 -0.1507 -0.6617  0.1148
   50CHL1  H24A 4869   0.600   1.698   4.411  0.0853 -0.4500  0.6633
   50CHL1  H24B 4870   0.512   1.556   4.480 -0.1015  0.6924  1.8673
   50CHL1   C25 4871   0.689   1.591   4.582 -0.1620 -0.1882  0.1219
   50CHL1   H25 4872   0.786   1.644   4.569 -0.1615 -0.2812 -0.2572
   50CHL1   C26 4873   0.620   1.680   4.687  0.1394 -0.2936 -0.4585
   50CHL1  H26A 4874   0.687   1.690   4.775  3.1105  0.0452 -2.5858
   50CHL1  H26B 4875   0.617   1.785   4.651 -1.5749 -0.4065 -0.7232
   50CHL1  H26C 4876   0.518   1.645   4.711  0.2167 -0.8234 -0.8781
   50CHL1   C27 4877   0.731   1.455   4.643 -0.0261  0.3458 -0.3113
   50CHL1  H27A 4878   0.757   1.369   4.578 -1.8031 -1.5995  1.3988
   50CHL1  H27B 4879   0.811   1.474   4.718 -0.6088 -0.7242  0.6116
   50CHL1  H27C 4880   0.643   1.427   4.705  0.9844 -0.6875  0.7079
   51CHL1    C3 4881   5.406   2.972   3.269 -0.8598  0.5100 -0.7348
   51CHL1    H3 4882   5.350   2.877   3.264 -1.7468  1.0036 -0.3871
   51CHL1    O3 4883   5.451   3.001   3.136  0.1250 -0.0666  0.3620
   51CHL1   H3' 4884   5.530   3.055   3.148  0.1865  0.1468 -0.9201
   51CHL1    C4 4885   5.314   3.081   3.314  0.9777 -0.1600 -0.2304
   51CHL1   H4A 4886   5.352   3.185   3.302 -1.9410  1.0915  0.5535
   51CHL1   H4B 4887   5.217   3.075   3.262  0.1592  1.7958  0.9385
   51CHL1    C5 4888   5.274   3.064   3.464  0.1103 -0.0685  0.2121
   51CHL1    C6 4889   5.149   3.062   3.501  0.3340 -0.3176  0.2192
   51CHL1    H6 4890   5.072   3.062   3.423  1.6286 -0.2782 -1.1128
   51CHL1    C7 4891   5.114   3.053   3.648  0.0196  0.8869 -0.2154
   51CHL1   H7A 4892   5.038   3.129   3.676  0.3527 -0.1349  4.1821
   51CHL1   H7B 4893   5.070   2.954   3.672  0.5923  0.0046 -2.6214
   51CHL1    C8 4894   5.223   3.077   3.755  0.3597  0.2396  0.2962
   51CHL1    H8 4895   5.244   3.186   3.751  0.4927  0.1821 -0.9578
   51CHL1   C14 4896   5.179   3.022   3.888  0.0978  0.1504  0.0621
   51CHL1   H14 4897   5.167   2.912   3.875  0.5947  0.2706 -1.7740
   51CHL1   C15 4898   5.038   3.069   3.946 -0.3300  0.4106 -0.0040
   51CHL1  H15A 4899   5.047   3.180   3.943  1.3114  0.3432  0.9795
   51CHL1  H15B 4900   4.946   3.045   3.888  1.7972 -0.4966 -3.2754
   51CHL1   C16 4901   5.047   3.032   4.100 -0.1269 -0.8430  0.1015
   51CHL1  H16A 4902   5.008   3.109   4.170  0.5468 -0.8145  0.4580
   51CHL1  H16B 4903   5.012   2.928   4.116 -1.8362 -0.5871 -1.5616
   51CHL1   C17 4904   5.200   3.014   4.124 -0.2137 -0.1533 -0.1011
   51CHL1   H17 4905   5.218   2.904   4.129 -1.5806 -0.3708  0.5483
   51CHL1   C13 4906   5.276   3.050   3.997 -0.6129 -0.3054 -0.2984
   51CHL1   C18 4907   5.315   3.205   4.023 -0.4827  0.3074 -0.0442
   51CHL1  H18A 4908   5.395   3.222   4.098 -0.6183  1.7098 -0.1933
   51CHL1  H18B 4909   5.348   3.251   3.927 -0.3285  1.2661  0.4558
   51CHL1  H18C 4910   5.221   3.258   4.051 -0.3586 -0.1785  1.3695
   51CHL1   C12 4911   5.407   2.972   3.955 -0.0375 -0.3450 -0.2576
   51CHL1  H12A 4912   5.490   2.989   4.027  2.6564 -2.3448 -2.6658
   51CHL1  H12B 4913   5.383   2.864   3.967 -2.5006  0.2827  0.9934
   51CHL1   C11 4914   5.464   3.013   3.822  0.4303 -0.7265 -0.2406
   51CHL1  H11A 4915   5.520   3.108   3.828 -1.5275  0.3586  2.1751
   51CHL1  H11B 4916   5.537   2.939   3.782 -0.8368 -1.3423 -1.5178
   51CHL1    C9 4917   5.352   3.007   3.711 -0.3867  0.2194 -0.1990
   51CHL1    H9 4918   5.330   2.898   3.715  1.0547 -0.0737  0.3241
   51CHL1   C10 4919   5.389   3.043   3.568 -0.0392  0.0648  0.9401
   51CHL1   C19 4920   5.464   3.179   3.574  0.7281  0.2714  0.2141
   51CHL1  H19A 4921   5.397   3.256   3.619  0.4517  0.1383  0.0293
   51CHL1  H19B 4922   5.561   3.157   3.624  0.3648 -2.0639  0.0209
   51CHL1  H19C 4923   5.482   3.213   3.470 -0.7746  0.0583 -0.1422
   51CHL1    C1 4924   5.487   2.939   3.506  0.2535 -0.3097 -0.3136
   51CHL1   H1A 4925   5.585   2.934   3.557 -0.4166  3.1006  1.6004
   51CHL1   H1B 4926   5.442   2.837   3.506  1.7975 -1.0165 -0.1030
   51CHL1    C2 4927   5.529   2.969   3.361 -0.0297  0.6117 -0.6767
   51CHL1   H2A 4928   5.603   2.897   3.320  1.2638 -1.3181  4.3665
   51CHL1   H2B 4929   5.574   3.070   3.353 -0.4531  0.8141 -0.5537
   51CHL1   C20 4930   5.242   3.070   4.269 -0.1442 -0.1062 -0.1349
   51CHL1   H20 4931   5.237   3.181   4.274  0.2353 -0.1342  1.3131
   51CHL1   C21 4932   5.392   3.038   4.297  0.6263  0.0744  0.7797
   51CHL1  H21A 4933   5.454   3.092   4.223 -0.2033  2.0133  1.4116
   51CHL1  H21B 4934   5.408   2.929   4.299 -0.6966 -0.1654 -0.1471
   51CHL1  H21C 4935   5.421   3.075   4.398  0.4464 -0.3560  0.9901
   51CHL1   C22 4936   5.154   3.019   4.389  0.1500 -0.0698  0.3349
   51CHL1  H22A 4937   5.046   3.013   4.363  0.2319  1.0062 -0.2716
   51CHL1  H22B 4938   5.201   2.918   4.393  0.4481  0.0946  1.2166
   51CHL1   C23 4939   5.159   3.103   4.510  0.3025 -0.4775  0.1157
   51CHL1  H23A 4940   5.256   3.139   4.549 -0.2828 -0.9396  2.1279
   51CHL1  H23B 4941   5.109   3.203   4.510  4.2881  1.7105  1.5064
   51CHL1   C24 4942   5.094   3.033   4.632 -0.9874 -0.0615 -0.4190
   51CHL1  H24A 4943   4.991   3.001   4.607 -0.3972 -2.3255 -0.2005
   51CHL1  H24B 4944   5.144   2.936   4.653  0.2405  0.2073 -1.9247
   51CHL1   C25 4945   5.090   3.129   4.757  0.5042  0.3551  0.0373
   51CHL1   H25 4946   5.016   3.091   4.831  1.5054  4.0952  3.2577
   51CHL1   C26 4947   5.216   3.119   4.837  0.5474 -0.4979 -0.1786
   51CHL1  H26A 4948   5.242   3.016   4.869 -2.4490 -1.0556  0.8668
   51CHL1  H26B 4949   5.298   3.166   4.779 -0.9157 -0.0196 -1.9659
   51CHL1  H26C 4950   5.206   3.190   4.922 -0.3581  1.2155 -1.6516
   51CHL1   C27 4951   5.052   3.273   4.734  0.7029 -0.8659  0.3529
   51CHL1  H27A 4952   4.960   3.283   4.672  1.3138  0.6790 -0.3634
   51CHL1  H27B 4953   5.031   3.327   4.829  3.6261 -0.5065  0.8784
   51CHL1  H27C 4954   5.128   3.334   4.680 -1.1922 -0.9362 -2.6453
   52CHL1    C3 4955   0.662   4.483   3.634 -0.2696 -0.2308  0.3035
   52CHL1    H3 4956   0.729   4.572   3.629 -1.1308  0.5151  1.5555
   52CHL1    O3 4957   0.603   4.492   3.508  0.8364  0.0143  0.4507
   52CHL1   H3' 4958   0.533   4.426   3.503  0.4201  0.5652 -2.3130
   52CHL1    C4 4959   0.741   4.353   3.631  0.1379 -0.8621 -0.2707
   52CHL1   H4A 4960   0.681   4.266   3.598  0.4309 -1.2710  0.2756
   52CHL1   H4B 4961   0.821   4.363   3.555  0.0192  1.3236 -0.1866
   52CHL1    C5 4962   0.805   4.326   3.767  0.7039 -0.5438  0.1498
   52CHL1    C6 4963   0.941   4.319   3.783 -0.2927 -0.5642 -0.4132
   52CHL1    H6 4964   1.006   4.327   3.695  1.3092  1.9589  0.8925
   52CHL1    C7 4965   1.009   4.304   3.915 -0.1541  0.1040  0.2767
   52CHL1   H7A 4966   1.095   4.234   3.911 -0.2482 -0.0443  0.7014
   52CHL1   H7B 4967   1.046   4.401   3.956 -1.1569  1.4042 -1.7573
   52CHL1    C8 4968   0.903   4.237   4.009  0.2349 -1.3925  0.5001
   52CHL1    H8 4969   0.876   4.137   3.970 -1.0423 -0.7934 -0.2103
   52CHL1   C14 4970   0.966   4.217   4.145  0.3436 -0.3647 -0.9172
   52CHL1   H14 4971   0.986   4.321   4.175 -1.4378  0.2730 -1.7810
   52CHL1   C15 4972   1.095   4.142   4.159  0.3516 -0.4432  0.5736
   52CHL1  H15A 4973   1.114   4.057   4.090  1.4062  0.6660 -0.5520
   52CHL1  H15B 4974   1.181   4.211   4.145  0.6286 -0.7804  0.6013
   52CHL1   C16 4975   1.097   4.090   4.301 -0.3830 -0.1621 -0.3070
   52CHL1  H16A 4976   1.078   3.980   4.297 -1.2051 -0.0614  0.4316
   52CHL1  H16B 4977   1.195   4.113   4.348 -0.0538  0.3427 -1.2271
   52CHL1   C17 4978   0.962   4.145   4.372  0.2296  0.0892 -0.1240
   52CHL1   H17 4979   0.972   4.249   4.410  0.1412  0.6940 -1.6733
   52CHL1   C13 4980   0.867   4.166   4.250 -1.0717 -0.0391 -0.5105
   52CHL1   C18 4981   0.810   4.030   4.202 -0.3672  0.2461  0.0499
   52CHL1  H18A 4982   0.891   3.954   4.192 -1.4117 -0.7283 -1.3981
   52CHL1  H18B 4983   0.741   3.989   4.279  0.8659 -1.4663  0.3091
   52CHL1  H18C 4984   0.757   4.039   4.105 -1.2985 -3.7503 -0.0042
   52CHL1   C12 4985   0.756   4.280   4.269 -0.1515 -0.6083 -0.6620
   52CHL1  H12A 4986   0.683   4.250   4.346  0.4217 -1.1429 -0.3195
   52CHL1  H12B 4987   0.803   4.378   4.294  1.3695 -1.9370  2.1606
   52CHL1   C11 4988   0.680   4.289   4.137 -0.1892 -0.2339 -0.5757
   52CHL1  H11A 4989   0.622   4.197   4.117 -0.7968 -0.6023  2.4307
   52CHL1  H11B 4990   0.615   4.379   4.148  0.7502  0.2785  1.4204
   52CHL1    C9 4991   0.776   4.329   4.022  0.8082  0.5701  0.0497
   52CHL1    H9 4992   0.824   4.424   4.053  0.7909  0.2944  0.9414
   52CHL1   C10 4993   0.706   4.338   3.883 -0.5041  0.1802 -0.2868
   52CHL1   C19 4994   0.598   4.220   3.867  0.0977  0.1139 -0.1898
   52CHL1  H19A 4995   0.556   4.221   3.764  0.0384 -1.3420 -0.2045
   52CHL1  H19B 4996   0.660   4.131   3.892  0.3678  0.2839 -0.2524
   52CHL1  H19C 4997   0.520   4.232   3.945  1.3634 -1.9749  1.4970
   52CHL1    C1 4998   0.631   4.473   3.875  0.7095 -1.0058  0.0842
   52CHL1   H1A 4999   0.560   4.477   3.961 -0.2229 -1.8068 -0.6256
   52CHL1   H1B 5000   0.700   4.558   3.897  0.8847 -1.2606  0.5439
   52CHL1    C2 5001   0.555   4.492   3.745  0.3005  0.8567 -0.4577
   52CHL1   H2A 5002   0.496   4.585   3.747 -1.1812 -0.0658  0.2120
   52CHL1   H2B 5003   0.477   4.415   3.728  1.0101 -0.3577  1.3931
   52CHL1   C20 5004   0.916   4.058   4.487  0.2536  0.3855  0.8017
   52CHL1   H20 5005   0.889   3.961   4.440 -0.1435  0.5396  0.7030
   52CHL1   C21 5006   0.790   4.117   4.550 -0.4945 -0.0349 -0.5101
   52CHL1  H21A 5007   0.710   4.098   4.475  0.9216 -0.2771 -2.0101
   52CHL1  H21B 5008   0.804   4.225   4.568  1.4335 -0.1125 -1.2825
   52CHL1  H21C 5009   0.760   4.073   4.648 -1.4203  2.1562  0.2539
   52CHL1   C22 5010   1.036   4.034   4.586  0.1436  0.6720 -0.0179
   52CHL1  H22A 5011   0.999   3.968   4.667  0.7726 -1.2319 -1.2258
   52CHL1  H22B 5012   1.125   3.992   4.535  0.9406  1.0716  0.9934
   52CHL1   C23 5013   1.100   4.170   4.640  0.1231  0.3916  0.6366
   52CHL1  H23A 5014   1.182   4.195   4.569  0.2960 -0.5448  0.4911
   52CHL1  H23B 5015   1.028   4.254   4.628  1.3346  1.8564  2.7879
   52CHL1   C24 5016   1.156   4.164   4.783  0.0602 -0.0475  0.9952
   52CHL1  H24A 5017   1.224   4.248   4.812 -0.0694  0.2038  0.5842
   52CHL1  H24B 5018   1.073   4.168   4.857 -0.9767  2.8920 -0.1983
   52CHL1   C25 5019   1.246   4.035   4.799 -1.0623 -0.4943  0.2560
   52CHL1   H25 5020   1.184   3.950   4.765  0.1015 -0.9718 -0.7335
   52CHL1   C26 5021   1.375   4.045   4.711 -0.4413  0.1908  0.2749
   52CHL1  H26A 5022   1.425   4.143   4.725 -1.8479  1.2676 -1.6476
   52CHL1  H26B 5023   1.449   3.962   4.715  0.0681  0.6659  0.6604
   52CHL1  H26C 5024   1.338   4.047   4.606  1.9516  0.5853 -0.6091
   52CHL1   C27 5025   1.277   4.022   4.951 -0.0720  0.8486 -0.1221
   52CHL1  H27A 5026   1.177   4.026   5.000 -0.8093 -0.3482 -1.4390
   52CHL1  H27B 5027   1.310   3.917   4.960 -0.4206  0.8178  0.8737
   52CHL1  H27C 5028   1.359   4.091   4.982  1.3391 -0.1691 -1.4643
   53CHL1    C3 5029   6.309   4.479   3.245  0.3096  0.1612  0.3192
   53CHL1    H3 5030   6.395   4.515   3.305  0.8020 -0.3905 -0.0561
   53CHL1    O3 5031   6.316   4.507   3.109  0.2675 -0.0071 -0.2266
   53CHL1   H3' 5032   6.373   4.584   3.100  0.8177 -0.1684  1.5396
   53CHL1    C4 5033   6.290   4.327   3.271  0.3139  0.6301  0.6806
   53CHL1   H4A 5034   6.207   4.282   3.212  1.9667 -0.1629 -1.1502
   53CHL1   H4B 5035   6.385   4.284   3.234 -0.0288  0.8711 -0.5265
   53CHL1    C5 5036   6.270   4.301   3.419 -0.5986  0.0506  0.3411
   53CHL1    C6 5037   6.355   4.220   3.488 -0.3275 -0.4613 -0.6318
   53CHL1    H6 5038   6.434   4.160   3.440 -0.0215 -1.5932  1.1862
   53CHL1    C7 5039   6.345   4.201   3.640  0.1174  0.6485 -0.1579
   53CHL1   H7A 5040   6.356   4.093   3.663  1.0372  0.3618 -1.7432
   53CHL1   H7B 5041   6.420   4.254   3.702 -0.4789 -0.9630  2.0540
   53CHL1    C8 5042   6.204   4.236   3.696 -0.5880  0.7112 -0.4044
   53CHL1    H8 5043   6.138   4.155   3.655  0.9227 -0.4813 -0.5594
   53CHL1   C14 5044   6.186   4.232   3.850  0.4728  0.0767 -0.4872
   53CHL1   H14 5045   6.252   4.307   3.900  0.4785 -2.2039  3.3088
   53CHL1   C15 5046   6.230   4.101   3.917 -0.7665  0.0370  0.4547
   53CHL1  H15A 5047   6.186   4.018   3.858 -1.6079 -0.8256  2.2088
   53CHL1  H15B 5048   6.340   4.082   3.923 -0.2236  1.3378 -3.0868
   53CHL1   C16 5049   6.153   4.098   4.054 -0.5664 -0.0129 -0.5384
   53CHL1  H16A 5050   6.091   4.005   4.055 -0.8988  0.1887  1.2062
   53CHL1  H16B 5051   6.229   4.097   4.135 -0.5713 -0.4767 -0.5350
   53CHL1   C17 5052   6.057   4.220   4.053  0.8231  0.1315 -0.1777
   53CHL1   H17 5053   6.117   4.296   4.109  0.1776 -0.1925  0.9958
   53CHL1   C13 5054   6.041   4.255   3.903 -0.4401 -0.8800  0.2527
   53CHL1   C18 5055   5.934   4.157   3.831 -1.2710 -0.0122  0.3476
   53CHL1  H18A 5056   5.922   4.155   3.720 -1.4988  0.6661  0.3530
   53CHL1  H18B 5057   5.959   4.053   3.860 -0.5716  0.2723  0.7671
   53CHL1  H18C 5058   5.834   4.174   3.876 -1.1920 -0.5289  0.7235
   53CHL1   C12 5059   6.006   4.400   3.855  0.4831  0.0861  0.0781
   53CHL1  H12A 5060   5.906   4.429   3.896 -0.6952  0.1883 -2.6884
   53CHL1  H12B 5061   6.082   4.462   3.907  0.5702 -1.3008  1.6944
   53CHL1   C11 5062   6.015   4.421   3.703  0.1370 -0.7871 -0.4741
   53CHL1  H11A 5063   5.928   4.365   3.662 -0.3562 -0.4527  0.0839
   53CHL1  H11B 5064   5.996   4.529   3.687  1.2082 -0.6710 -1.0568
   53CHL1    C9 5065   6.147   4.368   3.637  0.0677  0.4583  0.1388
   53CHL1    H9 5066   6.217   4.443   3.681  0.6840  0.6914 -1.2006
   53CHL1   C10 5067   6.153   4.385   3.484 -0.9170 -0.0569  0.1710
   53CHL1   C19 5068   6.019   4.323   3.422  0.2706 -0.6679 -0.3724
   53CHL1  H19A 5069   5.939   4.392   3.455  0.5757 -0.7359  0.5322
   53CHL1  H19B 5070   6.025   4.324   3.311  0.6382  1.5576 -0.3708
   53CHL1  H19C 5071   5.975   4.226   3.453 -1.5067 -0.4085 -1.8880
   53CHL1    C1 5072   6.177   4.536   3.444  0.7780 -0.6743 -0.1243
   53CHL1   H1A 5073   6.080   4.584   3.468  0.7897 -0.5365 -0.3459
   53CHL1   H1B 5074   6.266   4.581   3.494  0.9311 -4.4014  3.4056
   53CHL1    C2 5075   6.188   4.561   3.289 -0.1726  0.1030 -0.0097
   53CHL1   H2A 5076   6.198   4.670   3.266  0.2371  0.3016  1.0504
   53CHL1   H2B 5077   6.099   4.517   3.239  1.6012 -3.3216 -0.4275
   53CHL1   C20 5078   5.928   4.203   4.131  0.0977  0.2003  0.6917
   53CHL1   H20 5079   5.852   4.139   4.081  0.4723 -0.0453  0.4276
   53CHL1   C21 5080   5.858   4.340   4.149  0.0347  0.6742 -0.4933
   53CHL1  H21A 5081   5.768   4.320   4.211 -0.4497  0.3824 -1.2867
   53CHL1  H21B 5082   5.810   4.380   4.058 -0.0879  1.2066 -0.1964
   53CHL1  H21C 5083   5.931   4.412   4.193  1.0299 -0.0041 -0.9874
   53CHL1   C22 5084   5.944   4.147   4.271  0.4881  0.3244  0.0695
   53CHL1  H22A 5085   5.846   4.159   4.323 -0.2187 -1.6438 -0.6727
   53CHL1  H22B 5086   5.957   4.037   4.258  1.1996  0.4914 -0.7392
   53CHL1   C23 5087   6.064   4.192   4.362 -0.2122 -0.7829 -0.0220
   53CHL1  H23A 5088   6.146   4.178   4.289  0.8681  1.2027  0.7040
   53CHL1  H23B 5089   6.041   4.299   4.381  0.6631 -0.4034 -1.0449
   53CHL1   C24 5090   6.096   4.105   4.483 -0.2121 -0.4966 -0.2641
   53CHL1  H24A 5091   6.027   4.126   4.568 -2.9659 -2.6440 -1.7728
   53CHL1  H24B 5092   6.074   3.997   4.463 -2.6944  0.3409 -2.7657
   53CHL1   C25 5093   6.238   4.133   4.530  0.8524  0.4712  0.9516
   53CHL1   H25 5094   6.249   4.072   4.622  0.2958  0.3065  0.9068
   53CHL1   C26 5095   6.348   4.092   4.428  0.5467 -0.1360  0.8514
   53CHL1  H26A 5096   6.447   4.090   4.478  0.9936  1.3673  0.0743
   53CHL1  H26B 5097   6.321   4.000   4.370  0.5903  2.5728 -3.9754
   53CHL1  H26C 5098   6.360   4.176   4.357  3.0112 -1.4843 -0.4757
   53CHL1   C27 5099   6.258   4.281   4.570  0.2455  1.1751 -0.0609
   53CHL1  H27A 5100   6.271   4.346   4.480  3.3824  0.5718 -0.1653
   53CHL1  H27B 5101   6.164   4.312   4.619 -1.9666 -5.0233  0.5202
   53CHL1  H27C 5102   6.350   4.289   4.631  1.1850  0.1425 -1.2754
   54CHL1    C3 5103   3.740   3.552   2.689 -0.2167  0.3244 -0.3268
   54CHL1    H3 5104   3.646   3.600   2.725  0.0717  1.5155 -1.1160
   54CHL1    O3 5105   3.705   3.470   2.576 -0.1871 -0.1426 -0.1910
   54CHL1   H3' 5106   3.691   3.388   2.624 -0.4661  0.3216  0.5425
   54CHL1    C4 5107   3.839   3.661   2.642 -0.1123 -0.1107 -0.3381
   54CHL1   H4A 5108   3.917   3.600   2.592 -0.5084 -1.0641  0.1735
   54CHL1   H4B 5109   3.792   3.731   2.571  0.1893  0.4997  0.0554
   54CHL1    C5 5110   3.909   3.736   2.761 -0.6246 -0.8427  0.8522
   54CHL1    C6 5111   3.907   3.872   2.758 -0.4388 -0.2113 -0.1169
   54CHL1    H6 5112   3.848   3.921   2.680  1.5370  0.6428 -1.1603
   54CHL1    C7 5113   3.970   3.950   2.874  0.6808 -0.0535  0.8203
   54CHL1   H7A 5114   4.021   4.040   2.834  1.0196  0.1229  1.6367
   54CHL1   H7B 5115   3.899   3.983   2.952  2.6753 -2.2104  3.8088
   54CHL1    C8 5116   4.061   3.875   2.971  0.3304  0.5160 -0.5106
   54CHL1    H8 5117   4.158   3.857   2.921  0.0977  2.1691 -1.6580
   54CHL1   C14 5118   4.085   3.952   3.102  0.1573  0.4867  0.1212
   54CHL1   H14 5119   3.988   3.952   3.156 -0.8005  0.2460 -1.5369
   54CHL1   C15 5120   4.142   4.093   3.090 -0.6709  0.5253  0.1903
   54CHL1  H15A 5121   4.221   4.088   3.012 -1.7969  0.9191 -1.0213
   54CHL1  H15B 5122   4.071   4.176   3.069 -2.0456 -0.5563  0.4210
   54CHL1   C16 5123   4.203   4.111   3.233  0.4255 -0.0964  0.1049
   54CHL1  H16A 5124   4.312   4.133   3.228  0.4936 -0.6621 -2.9675
   54CHL1  H16B 5125   4.140   4.189   3.281 -0.5611 -0.3605 -0.7315
   54CHL1   C17 5126   4.187   3.983   3.311  0.1834 -1.1867 -0.0754
   54CHL1   H17 5127   4.086   3.989   3.357  0.4041 -0.2405  0.3094
   54CHL1   C13 5128   4.169   3.877   3.200 -0.2380  0.1755 -1.1188
   54CHL1   C18 5129   4.315   3.849   3.148  0.3020 -0.0299 -0.8761
   54CHL1  H18A 5130   4.371   3.942   3.126  2.0201 -0.0221  2.8359
   54CHL1  H18B 5131   4.369   3.779   3.215 -2.7434 -0.2616  1.5475
   54CHL1  H18C 5132   4.301   3.794   3.052  0.0853 -1.1995 -0.2007
   54CHL1   C12 5133   4.104   3.743   3.240  0.3607 -0.9353 -0.9993
   54CHL1  H12A 5134   4.166   3.680   3.307 -0.4127 -1.0687 -0.3995
   54CHL1  H12B 5135   4.014   3.765   3.301  1.1924 -0.1467 -0.0292
   54CHL1   C11 5136   4.074   3.665   3.116  0.1651 -0.0287 -0.1728
   54CHL1  H11A 5137   4.171   3.629   3.076  0.1164 -0.3647  0.0097
   54CHL1  H11B 5138   4.017   3.576   3.150  0.7843 -0.0531  0.8632
   54CHL1    C9 5139   3.996   3.737   3.003  0.0769 -0.2439  0.3047
   54CHL1    H9 5140   3.903   3.781   3.044  0.3312  1.1175 -0.5373
   54CHL1   C10 5141   3.965   3.653   2.879  0.4421  0.4564  0.1053
   54CHL1   C19 5142   4.092   3.583   2.831 -0.1078  0.3798  0.7790
   54CHL1  H19A 5143   4.183   3.644   2.812  0.1907  0.2807  1.8142
   54CHL1  H19B 5144   4.130   3.501   2.895  0.5265 -0.6615 -0.8829
   54CHL1  H19C 5145   4.075   3.522   2.740 -1.2110 -1.4625  2.1301
   54CHL1    C1 5146   3.851   3.555   2.922  0.0174  0.3721  0.0525
   54CHL1   H1A 5147   3.890   3.488   3.001  2.2871  1.1132 -0.3613
   54CHL1   H1B 5148   3.761   3.610   2.957 -0.7885  0.1724 -1.5644
   54CHL1    C2 5149   3.810   3.468   2.805 -0.4686 -0.2996  0.2780
   54CHL1   H2A 5150   3.737   3.393   2.841 -0.0936  0.0599  1.8308
   54CHL1   H2B 5151   3.893   3.418   2.750 -0.3208 -0.3698  0.5635
   54CHL1   C20 5152   4.296   3.972   3.423 -0.0042  0.8482  0.6208
   54CHL1   H20 5153   4.394   3.951   3.376  0.2686  0.2251  1.4466
   54CHL1   C21 5154   4.264   3.848   3.502  0.3401 -0.4641 -0.2911
   54CHL1  H21A 5155   4.329   3.849   3.592 -1.2989 -0.1862  0.9592
   54CHL1  H21B 5156   4.280   3.753   3.448 -0.0817 -0.2221 -0.8533
   54CHL1  H21C 5157   4.162   3.838   3.546  0.1961 -3.0359 -1.0878
   54CHL1   C22 5158   4.322   4.093   3.507  0.0478 -0.9096 -0.0941
   54CHL1  H22A 5159   4.396   4.080   3.588 -1.6188  0.5071  1.7711
   54CHL1  H22B 5160   4.350   4.177   3.440 -1.0390  0.0949  0.6675
   54CHL1   C23 5161   4.205   4.127   3.596  0.6350 -0.4197 -0.2848
   54CHL1  H23A 5162   4.107   4.117   3.544 -0.1525 -0.0278  1.0694
   54CHL1  H23B 5163   4.196   4.050   3.676  1.2122 -1.0115 -0.7700
   54CHL1   C24 5164   4.215   4.273   3.654  0.2147  0.6193 -0.8065
   54CHL1  H24A 5165   4.312   4.287   3.705 -1.0815 -3.0456  3.2381
   54CHL1  H24B 5166   4.198   4.346   3.571 -2.0000  1.9234  0.7064
   54CHL1   C25 5167   4.109   4.299   3.760  0.6043  0.9532  0.3222
   54CHL1   H25 5168   4.081   4.213   3.823 -0.2457  0.7717 -0.2877
   54CHL1   C26 5169   4.152   4.413   3.859  0.0319  0.0502  0.3685
   54CHL1  H26A 5170   4.239   4.384   3.920  0.0186 -1.9266 -0.4512
   54CHL1  H26B 5171   4.181   4.501   3.798  0.1437 -2.3761 -3.4349
   54CHL1  H26C 5172   4.061   4.438   3.919 -0.3136  2.3152 -0.9766
   54CHL1   C27 5173   3.969   4.323   3.696 -0.2487 -0.0843 -0.1308
   54CHL1  H27A 5174   3.895   4.355   3.772  0.6243 -0.4714  0.9075
   54CHL1  H27B 5175   3.986   4.417   3.639 -0.8718 -1.3322 -2.4922
   54CHL1  H27C 5176   3.930   4.247   3.626 -1.6624 -0.7842  1.3588
   55CHL1    C3 5177   1.051   0.585   3.687 -0.2260  0.5585  0.4002
   55CHL1    H3 5178   1.141   0.644   3.713 -0.3562  0.3920  1.2397
   55CHL1    O3 5179   1.063   0.533   3.561 -0.0044 -0.0284 -0.1139
   55CHL1   H3' 5180   0.974   0.534   3.525 -0.6802  3.1745  1.3079
   55CHL1    C4 5181   1.024   0.480   3.802  0.1314  0.7768  0.3644
   55CHL1   H4A 5182   0.930   0.430   3.773 -0.0443  0.0142  2.1141
   55CHL1   H4B 5183   1.113   0.413   3.799 -0.1447  0.4240 -1.6850
   55CHL1    C5 5184   0.998   0.544   3.940  0.3916  0.1099 -0.4146
   55CHL1    C6 5185   1.069   0.511   4.052  0.8580  0.8348  0.4502
   55CHL1    H6 5186   1.140   0.427   4.046 -0.5701 -0.4437  0.8749
   55CHL1    C7 5187   1.051   0.576   4.189  0.3753  0.5077 -0.1129
   55CHL1   H7A 5188   1.035   0.485   4.250  0.0839 -0.6529 -1.8502
   55CHL1   H7B 5189   1.141   0.628   4.228  0.5483  0.0998  0.0301
   55CHL1    C8 5190   0.926   0.659   4.196  0.7978 -0.5806  0.2381
   55CHL1    H8 5191   0.843   0.584   4.194 -1.6588  1.9678 -1.6435
   55CHL1   C14 5192   0.929   0.753   4.316  0.0303 -0.5995 -0.6472
   55CHL1   H14 5193   1.020   0.815   4.300  0.5108 -1.3444 -0.8520
   55CHL1   C15 5194   0.971   0.689   4.456  0.2857 -0.0300  0.5708
   55CHL1  H15A 5195   0.936   0.584   4.466 -0.7764  0.3238  0.7591
   55CHL1  H15B 5196   1.082   0.681   4.459  0.4893  0.7366 -2.3215
   55CHL1   C16 5197   0.923   0.795   4.558  0.1342  0.3531 -0.2719
   55CHL1  H16A 5198   0.852   0.749   4.630 -1.1022  2.7052  0.1313
   55CHL1  H16B 5199   1.011   0.827   4.617  0.2581 -1.1972  0.4206
   55CHL1   C17 5200   0.853   0.904   4.474 -0.2632  0.2012 -0.4307
   55CHL1   H17 5201   0.931   0.982   4.456  1.5132 -1.2295  0.6703
   55CHL1   C13 5202   0.816   0.846   4.337 -0.3208 -0.2683  0.9471
   55CHL1   C18 5203   0.689   0.759   4.344  0.9010 -0.4932 -0.3212
   55CHL1  H18A 5204   0.699   0.689   4.430 -2.2918  0.6945  1.1573
   55CHL1  H18B 5205   0.600   0.821   4.367  2.7909  2.0700  0.5383
   55CHL1  H18C 5206   0.671   0.696   4.254 -0.7325  1.7937 -1.6667
   55CHL1   C12 5207   0.806   0.936   4.206  0.2334  0.3297  0.2014
   55CHL1  H12A 5208   0.730   1.014   4.227 -1.7563 -1.8877  1.7593
   55CHL1  H12B 5209   0.900   0.993   4.187  1.5779 -1.5404  0.9037
   55CHL1   C11 5210   0.783   0.848   4.086 -0.9755 -0.2186  0.0579
   55CHL1  H11A 5211   0.679   0.812   4.093 -1.6546  1.5852 -0.1138
   55CHL1  H11B 5212   0.793   0.909   3.993  1.7850 -0.4814  0.0996
   55CHL1    C9 5213   0.901   0.750   4.074 -0.1121  0.3274  0.5248
   55CHL1    H9 5214   0.993   0.811   4.065 -0.6934  1.0275 -1.5099
   55CHL1   C10 5215   0.895   0.658   3.950 -0.3875 -0.2717  0.4046
   55CHL1   C19 5216   0.751   0.597   3.940 -0.0322  0.1749  0.5303
   55CHL1  H19A 5217   0.720   0.534   4.026  1.2569 -0.8635  0.2755
   55CHL1  H19B 5218   0.686   0.686   3.922 -1.8668 -1.1330  0.4251
   55CHL1  H19C 5219   0.741   0.534   3.850 -0.6537  1.0355 -0.0204
   55CHL1    C1 5220   0.915   0.744   3.825 -0.1435 -0.7503 -0.0020
   55CHL1   H1A 5221   0.841   0.826   3.819 -0.2645 -0.9784 -2.0721
   55CHL1   H1B 5222   1.014   0.796   3.830 -1.5431  2.3186 -1.5650
   55CHL1    C2 5223   0.927   0.681   3.689  0.1506  0.7012 -0.3245
   55CHL1   H2A 5224   0.945   0.754   3.606  0.7004  1.0531  0.0960
   55CHL1   H2B 5225   0.836   0.620   3.670  0.2661  0.0237  1.1846
   55CHL1   C20 5226   0.741   0.974   4.549 -0.4208  0.7226 -0.0761
   55CHL1   H20 5227   0.658   0.902   4.566 -0.7795  1.3685  1.0200
   55CHL1   C21 5228   0.681   1.089   4.467  0.2890 -0.4919  0.1704
   55CHL1  H21A 5229   0.757   1.159   4.427 -0.1723 -0.5170 -0.7652
   55CHL1  H21B 5230   0.615   1.153   4.530 -0.3596 -0.8337 -0.1557
   55CHL1  H21C 5231   0.634   1.050   4.374 -2.1712 -1.3365  1.6511
   55CHL1   C22 5232   0.786   1.018   4.688  0.9202  0.3454  0.2121
   55CHL1  H22A 5233   0.825   0.932   4.747 -0.8478 -0.6996 -0.0969
   55CHL1  H22B 5234   0.869   1.090   4.672  1.8052 -0.8219 -0.6491
   55CHL1   C23 5235   0.673   1.077   4.777  0.0695  0.1161  0.4997
   55CHL1  H23A 5236   0.657   1.180   4.738  1.2170 -0.2304 -0.9742
   55CHL1  H23B 5237   0.578   1.024   4.757 -0.3251  0.6147  1.0327
   55CHL1   C24 5238   0.694   1.082   4.934 -0.1307  0.1803  0.4381
   55CHL1  H24A 5239   0.608   1.131   4.985 -1.1611 -1.2004  0.0983
   55CHL1  H24B 5240   0.683   0.979   4.973  0.1587  1.1363  3.2327
   55CHL1   C25 5241   0.824   1.137   4.978 -0.2783  0.2428 -0.0249
   55CHL1   H25 5242   0.895   1.087   4.909 -0.2020  0.5837 -0.1961
   55CHL1   C26 5243   0.845   1.293   4.948 -0.5128  0.9778 -0.7522
   55CHL1  H26A 5244   0.944   1.327   4.985 -0.5786  1.9583 -1.4300
   55CHL1  H26B 5245   0.862   1.293   4.838  1.2648 -2.7348 -0.6270
   55CHL1  H26C 5246   0.755   1.352   4.974 -0.2929  0.5476  1.0957
   55CHL1   C27 5247   0.862   1.104   5.127 -0.7574  0.2896 -0.6955
   55CHL1  H27A 5248   0.968   1.132   5.142 -1.2558  1.1165  1.6461
   55CHL1  H27B 5249   0.801   1.164   5.198 -1.7896 -2.5645  0.9998
   55CHL1  H27C 5250   0.828   1.002   5.155  0.6353 -0.1672 -0.6202
   56CHL1    C3 5251   1.901   2.184   3.148  0.6516  0.0557  0.0953
   56CHL1    H3 5252   1.834   2.271   3.158  0.2116 -0.4391  1.7368
   56CHL1    O3 5253   1.902   2.152   3.010 -0.5888 -0.2598 -0.1524
   56CHL1   H3' 5254   1.816   2.183   2.980  0.7925  1.8273 -2.2797
   56CHL1    C4 5255   2.039   2.236   3.199 -0.7490  0.6229 -0.3249
   56CHL1   H4A 5256   2.114   2.164   3.159 -3.1669 -1.7959 -0.7534
   56CHL1   H4B 5257   2.062   2.330   3.144 -1.8082  0.5397 -0.9226
   56CHL1    C5 5258   2.045   2.257   3.352 -0.7962  0.2126  0.2090
   56CHL1    C6 5259   2.089   2.370   3.399 -0.0891  0.2979  0.0099
   56CHL1    H6 5260   2.118   2.458   3.340 -1.3140  2.6059  2.6141
   56CHL1    C7 5261   2.094   2.399   3.548 -0.0281  0.4863  0.1717
   56CHL1   H7A 5262   2.183   2.456   3.583 -0.4481  1.6089 -0.5350
   56CHL1   H7B 5263   2.009   2.459   3.584  0.1809 -0.3554  2.2191
   56CHL1    C8 5264   2.077   2.270   3.638 -0.2056  0.4182  0.1105
   56CHL1    H8 5265   2.174   2.216   3.633 -0.5927 -0.3345  0.5703
   56CHL1   C14 5266   2.044   2.306   3.782  0.5434  1.1150 -0.3952
   56CHL1   H14 5267   1.941   2.347   3.786 -0.3558 -1.1422  1.7891
   56CHL1   C15 5268   2.140   2.397   3.860 -0.5902 -0.2387 -0.1044
   56CHL1  H15A 5269   2.243   2.364   3.838 -0.1605 -0.9796  2.6711
   56CHL1  H15B 5270   2.115   2.504   3.840 -1.2425 -0.1592  1.0593
   56CHL1   C16 5271   2.118   2.359   4.003 -0.2417 -0.2398 -0.2331
   56CHL1  H16A 5272   2.210   2.312   4.043 -1.2661 -0.4921  1.9957
   56CHL1  H16B 5273   2.107   2.444   4.073  3.2323  0.9735 -0.9758
   56CHL1   C17 5274   2.018   2.245   4.010 -0.3231 -0.0251  0.4839
   56CHL1   H17 5275   1.918   2.293   4.008  0.2444  1.3686  2.4969
   56CHL1   C13 5276   2.034   2.178   3.873  0.3926  0.1577  0.1148
   56CHL1   C18 5277   2.167   2.098   3.865  0.6685 -0.9938  0.0419
   56CHL1  H18A 5278   2.160   2.005   3.925  0.3222 -1.8166 -1.2482
   56CHL1  H18B 5279   2.186   2.067   3.760  1.0566  2.6660 -1.1312
   56CHL1  H18C 5280   2.260   2.157   3.885 -0.8134  0.9279  1.7096
   56CHL1   C12 5281   1.919   2.094   3.819  0.6878  0.2715  0.9040
   56CHL1  H12A 5282   1.913   2.004   3.884  0.9407  1.2469  2.3313
   56CHL1  H12B 5283   1.826   2.148   3.844 -0.7140 -0.7931 -1.6318
   56CHL1   C11 5284   1.927   2.056   3.676 -0.3549  0.8514  0.6527
   56CHL1  H11A 5285   1.999   1.971   3.674 -2.7637 -1.2846 -0.5753
   56CHL1  H11B 5286   1.825   2.019   3.654 -0.4109  1.5113 -0.2308
   56CHL1    C9 5287   1.962   2.181   3.585 -0.4325  0.2171  0.2433
   56CHL1    H9 5288   1.869   2.241   3.576 -0.7553 -0.6145 -4.0247
   56CHL1   C10 5289   1.985   2.139   3.430  0.7400  0.0738 -0.1590
   56CHL1   C19 5290   2.082   2.017   3.421 -0.2090 -0.4957 -0.5350
   56CHL1  H19A 5291   2.055   1.925   3.478  0.9691  0.7681  2.2236
   56CHL1  H19B 5292   2.113   1.993   3.317 -1.2644  0.9787 -1.2239
   56CHL1  H19C 5293   2.175   2.054   3.469 -1.1338  0.3278  0.6802
   56CHL1    C1 5294   1.851   2.101   3.369 -0.0011 -0.9085  0.7020
   56CHL1   H1A 5295   1.803   2.022   3.431  0.1271 -0.0809  1.8928
   56CHL1   H1B 5296   1.775   2.182   3.380 -0.7261 -1.7066  1.7365
   56CHL1    C2 5297   1.851   2.060   3.222  0.0784  0.4550 -0.3525
   56CHL1   H2A 5298   1.750   2.030   3.188 -0.2047  2.0299 -0.9910
   56CHL1   H2B 5299   1.911   1.967   3.217  1.0924  1.1223 -0.9587
   56CHL1   C20 5300   2.030   2.150   4.131 -0.7706  0.3386 -1.0419
   56CHL1   H20 5301   2.108   2.072   4.121 -1.0844 -0.4087  1.4926
   56CHL1   C21 5302   1.890   2.077   4.158  0.0598  0.1229  0.7345
   56CHL1  H21A 5303   1.864   2.010   4.074 -1.2207  1.4425  0.0211
   56CHL1  H21B 5304   1.810   2.155   4.159  1.4112  1.7646 -2.8078
   56CHL1  H21C 5305   1.881   2.007   4.244 -3.2210  0.4854  0.8081
   56CHL1   C22 5306   2.059   2.226   4.260 -0.1026 -0.1830 -0.2786
   56CHL1  H22A 5307   2.150   2.286   4.244 -0.3759  0.5615  0.8388
   56CHL1  H22B 5308   1.978   2.299   4.283 -0.9616 -0.6833 -1.6023
   56CHL1   C23 5309   2.088   2.138   4.385 -0.3463  0.5715  0.4323
   56CHL1  H23A 5310   1.996   2.077   4.398  2.2822 -3.7164  1.0406
   56CHL1  H23B 5311   2.171   2.071   4.354 -0.1799  0.4842  1.0446
   56CHL1   C24 5312   2.111   2.206   4.522  0.0877 -0.7311 -0.0046
   56CHL1  H24A 5313   2.110   2.124   4.596  0.3714  0.3072  1.1707
   56CHL1  H24B 5314   2.214   2.248   4.524  0.0120 -0.2859  4.9404
   56CHL1   C25 5315   2.015   2.327   4.558  0.3362  0.2441  0.1903
   56CHL1   H25 5316   2.040   2.417   4.498 -4.0116 -0.2554 -2.7967
   56CHL1   C26 5317   1.865   2.291   4.546 -0.3335 -0.0622  0.5458
   56CHL1  H26A 5318   1.830   2.223   4.626  0.5456 -2.2158 -0.8179
   56CHL1  H26B 5319   1.803   2.384   4.545 -1.6198 -0.8926  1.1128
   56CHL1  H26C 5320   1.851   2.230   4.454 -0.9583 -0.2477  0.7564
   56CHL1   C27 5321   2.051   2.375   4.699  0.7866 -0.0466  0.1155
   56CHL1  H27A 5322   1.967   2.444   4.724 -1.7826 -1.8097 -2.8936
   56CHL1  H27B 5323   2.049   2.290   4.772  0.0588  1.1235  1.5111
   56CHL1  H27C 5324   2.151   2.422   4.700  1.6734 -1.6419 -2.7214
   57CHL1    C3 5325   6.676   0.847   3.012  0.5272  0.3051 -0.2067
   57CHL1    H3 5326   6.783   0.876   3.004  0.4318  0.2678 -1.9185
   57CHL1    O3 5327   6.622   0.859   2.883  0.4260 -0.0886  1.2960
   57CHL1   H3' 5328   6.630   0.769   2.849 -0.8045  0.8658 -1.9315
   57CHL1    C4 5329   6.667   0.701   3.074 -0.4800 -0.2623 -0.3327
   57CHL1   H4A 5330   6.560   0.670   3.067 -1.0717  0.5283  3.2422
   57CHL1   H4B 5331   6.728   0.633   3.011  1.2242 -0.4128  1.3770
   57CHL1    C5 5332   6.694   0.690   3.219  0.2666 -0.2287 -0.2626
   57CHL1    C6 5333   6.784   0.597   3.268  0.2612  0.0534  0.2538
   57CHL1    H6 5334   6.841   0.534   3.198  0.2184  0.3008 -0.0079
   57CHL1    C7 5335   6.796   0.561   3.413  0.4347  0.4003 -0.1895
   57CHL1   H7A 5336   6.797   0.451   3.426 -1.0796  0.3354 -0.4679
   57CHL1   H7B 5337   6.889   0.597   3.464 -0.7403  1.1829  1.4964
   57CHL1    C8 5338   6.681   0.628   3.498 -0.1249 -0.3887  0.1407
   57CHL1    H8 5339   6.589   0.566   3.483  0.2289 -0.9531  0.2581
   57CHL1   C14 5340   6.716   0.620   3.650  1.0926 -0.1730  0.3380
   57CHL1   H14 5341   6.812   0.673   3.641  0.1512  1.3106 -1.6160
   57CHL1   C15 5342   6.753   0.474   3.707 -0.0602 -1.5479  0.6971
   57CHL1  H15A 5343   6.673   0.416   3.655 -1.3378  0.4519  0.3216
   57CHL1  H15B 5344   6.859   0.447   3.688  1.2647  2.9727  0.4433
   57CHL1   C16 5345   6.738   0.500   3.861 -0.0496 -0.6315  0.3040
   57CHL1  H16A 5346   6.668   0.417   3.888 -0.7767  0.7830  3.1361
   57CHL1  H16B 5347   6.832   0.488   3.920 -0.1489  0.5213  0.7198
   57CHL1   C17 5348   6.673   0.639   3.878 -0.1520 -0.2813  0.2873
   57CHL1   H17 5349   6.760   0.705   3.898 -0.0653 -0.2289 -0.2312
   57CHL1   C13 5350   6.619   0.681   3.739  0.4043  0.6128  0.7802
   57CHL1   C18 5351   6.474   0.617   3.720 -0.0862 -0.0768  0.0861
   57CHL1  H18A 5352   6.435   0.619   3.616 -1.3104 -0.0059  0.5356
   57CHL1  H18B 5353   6.475   0.510   3.752  0.2485  0.0201  0.4017
   57CHL1  H18C 5354   6.410   0.670   3.793  1.4682  0.3642  1.1838
   57CHL1   C12 5355   6.605   0.830   3.708 -0.5122 -0.8148 -0.4904
   57CHL1  H12A 5356   6.522   0.863   3.773 -2.1596 -4.2519 -0.6132
   57CHL1  H12B 5357   6.696   0.892   3.726 -0.4257 -1.1255  0.1594
   57CHL1   C11 5358   6.577   0.849   3.557  0.1688 -0.5174 -0.2773
   57CHL1  H11A 5359   6.469   0.823   3.551 -0.1053  0.3468  0.5382
   57CHL1  H11B 5360   6.585   0.959   3.544  0.2568 -0.7073 -2.1462
   57CHL1    C9 5361   6.658   0.770   3.452  1.1476  0.2055 -0.3560
   57CHL1    H9 5362   6.758   0.819   3.452  0.3764  1.8673 -0.0124
   57CHL1   C10 5363   6.609   0.787   3.307  0.5256 -0.5881  0.3111
   57CHL1   C19 5364   6.456   0.745   3.302 -0.2680 -0.3217  0.1278
   57CHL1  H19A 5365   6.430   0.637   3.307 -2.4685  0.0505 -1.7281
   57CHL1  H19B 5366   6.385   0.807   3.361 -1.1392 -0.5003 -0.6987
   57CHL1  H19C 5367   6.431   0.770   3.197  0.0900 -0.7245 -0.0569
   57CHL1    C1 5368   6.627   0.933   3.258 -0.1638 -0.1647  0.0619
   57CHL1   H1A 5369   6.565   0.998   3.324  0.8034 -2.5951  3.6763
   57CHL1   H1B 5370   6.735   0.955   3.274 -0.1628 -1.3563  1.9856
   57CHL1    C2 5371   6.613   0.951   3.103  0.5835  0.1364 -0.4726
   57CHL1   H2A 5372   6.649   1.053   3.077  0.5771  0.3264  0.2344
   57CHL1   H2B 5373   6.503   0.948   3.088  0.7009 -1.5574 -1.2481
   57CHL1   C20 5374   6.602   0.652   4.009  0.9167 -0.2068  0.4281
   57CHL1   H20 5375   6.504   0.601   4.001  1.2348 -0.6189 -1.3148
   57CHL1   C21 5376   6.563   0.805   4.035 -0.0021 -0.2763 -0.1254
   57CHL1  H21A 5377   6.649   0.872   4.017 -0.6370  0.8359  0.8251
   57CHL1  H21B 5378   6.553   0.814   4.146 -0.1891  1.8227 -0.2751
   57CHL1  H21C 5379   6.481   0.842   3.970 -1.2373  2.5518  2.7860
   57CHL1   C22 5380   6.689   0.606   4.128 -0.6871  0.2056  0.3135
   57CHL1  H22A 5381   6.626   0.624   4.218 -0.6457  2.5447 -0.0698
   57CHL1  H22B 5382   6.718   0.499   4.114  1.2213  0.6287  0.7684
   57CHL1   C23 5383   6.833   0.672   4.144 -0.0787 -0.2453  0.9934
   57CHL1  H23A 5384   6.897   0.638   4.060  0.7801  2.9606  0.2413
   57CHL1  H23B 5385   6.815   0.781   4.146  0.9841 -0.0573  0.4530
   57CHL1   C24 5386   6.911   0.618   4.265 -0.5707  0.3502 -0.3545
   57CHL1  H24A 5387   6.854   0.641   4.358 -0.9860  0.2566 -0.5846
   57CHL1  H24B 5388   6.915   0.507   4.263 -1.1935  0.3364 -1.8498
   57CHL1   C25 5389   7.054   0.680   4.281  0.4890  0.0842 -0.2676
   57CHL1   H25 5390   7.054   0.791   4.274  3.7459  0.1070 -1.5884
   57CHL1   C26 5391   7.113   0.641   4.417 -0.8044  0.2169 -0.1078
   57CHL1  H26A 5392   7.212   0.675   4.455 -0.0767 -2.6537  0.8765
   57CHL1  H26B 5393   7.040   0.678   4.491 -0.7024 -1.5794  0.9621
   57CHL1  H26C 5394   7.114   0.530   4.425  1.4589 -0.0515 -2.5367
   57CHL1   C27 5395   7.148   0.636   4.175 -0.9761  0.1722  0.1715
   57CHL1  H27A 5396   7.185   0.536   4.205  0.5017  1.2440  2.2573
   57CHL1  H27B 5397   7.117   0.629   4.069  3.0225 -0.6131 -1.1068
   57CHL1  H27C 5398   7.243   0.694   4.182 -0.5609 -0.3931 -0.6490
   58CHL1    C3 5399   6.110   1.694   2.749  0.0343 -0.2937  0.0525
   58CHL1    H3 5400   6.031   1.773   2.749  0.0654 -0.2508 -1.0851
   58CHL1    O3 5401   6.134   1.675   2.611 -0.2639 -0.0680  0.2288
   58CHL1   H3' 5402   6.215   1.624   2.608  0.6063  1.2416  0.4691
   58CHL1    C4 5403   6.225   1.764   2.826 -0.2751 -0.6639  0.3232
   58CHL1   H4A 5404   6.311   1.695   2.810  2.0585  2.3772 -1.4898
   58CHL1   H4B 5405   6.247   1.859   2.772 -0.5880 -1.3432 -1.0488
   58CHL1    C5 5406   6.186   1.789   2.969  0.1278  0.3991 -0.5332
   58CHL1    C6 5407   6.196   1.910   3.019  0.5070 -0.7233  0.0375
   58CHL1    H6 5408   6.244   1.985   2.955 -0.5642 -0.9429 -1.0546
   58CHL1    C7 5409   6.153   1.949   3.155  0.4665 -0.4807  0.3117
   58CHL1   H7A 5410   6.229   2.015   3.201  1.8338 -0.7278 -1.4679
   58CHL1   H7B 5411   6.049   1.989   3.153  1.2032  1.5736 -2.3607
   58CHL1    C8 5412   6.131   1.833   3.250 -0.1355  0.3117 -0.6690
   58CHL1    H8 5413   6.230   1.797   3.285 -0.6556  1.3907  2.2283
   58CHL1   C14 5414   6.052   1.877   3.373  0.4552  0.2867  0.3699
   58CHL1   H14 5415   5.948   1.897   3.339 -0.2903 -1.3896  1.4994
   58CHL1   C15 5416   6.108   2.003   3.444 -0.1384 -0.3978  0.3323
   58CHL1  H15A 5417   6.219   2.006   3.454  0.0794  1.9885 -1.7196
   58CHL1  H15B 5418   6.072   2.095   3.392  1.0183 -0.3324 -0.4024
   58CHL1   C16 5419   6.049   1.986   3.589 -1.0294  0.3934  0.5191
   58CHL1  H16A 5420   6.142   1.985   3.650 -1.1170  4.4293  0.9859
   58CHL1  H16B 5421   5.981   2.069   3.618 -2.3651 -0.2769 -0.5689
   58CHL1   C17 5422   5.971   1.848   3.591  0.2630  0.9080  0.4224
   58CHL1   H17 5423   5.868   1.865   3.553  0.1187  1.2677  0.9753
   58CHL1   C13 5424   6.032   1.766   3.475  0.4331 -0.1062 -0.2985
   58CHL1   C18 5425   6.164   1.706   3.537  0.5531 -0.2547 -0.7503
   58CHL1  H18A 5426   6.235   1.673   3.458 -0.6881 -0.2306 -1.9141
   58CHL1  H18B 5427   6.222   1.785   3.590 -0.5287  1.1429 -1.5510
   58CHL1  H18C 5428   6.142   1.613   3.592 -0.7609 -0.6222 -1.8319
   58CHL1   C12 5429   5.946   1.661   3.406 -0.6584  0.5365 -0.0463
   58CHL1  H12A 5430   5.942   1.567   3.466  1.4177 -1.6428 -2.9675
   58CHL1  H12B 5431   5.844   1.703   3.390 -0.1226  1.8621 -0.0640
   58CHL1   C11 5432   6.013   1.616   3.274  0.2587 -0.6621  0.2342
   58CHL1  H11A 5433   6.094   1.552   3.315 -0.5944 -0.7297  1.8764
   58CHL1  H11B 5434   5.943   1.552   3.216  1.4311 -0.2837 -1.6747
   58CHL1    C9 5435   6.058   1.724   3.173  0.3284 -0.5754 -0.2640
   58CHL1    H9 5436   5.963   1.772   3.142 -0.1754  1.0504  3.2681
   58CHL1   C10 5437   6.132   1.669   3.045 -0.1453  0.1050 -0.1527
   58CHL1   C19 5438   6.264   1.592   3.080 -0.5320  0.1423  0.2574
   58CHL1  H19A 5439   6.297   1.538   2.989  1.1455  2.8780 -0.8971
   58CHL1  H19B 5440   6.344   1.661   3.115 -1.2212  1.2125 -0.2390
   58CHL1  H19C 5441   6.252   1.513   3.157  1.4230  0.5682  1.0645
   58CHL1    C1 5442   6.027   1.583   2.960  0.3891  0.3065  0.1825
   58CHL1   H1A 5443   6.002   1.487   3.011 -0.7706  0.5604  0.1047
   58CHL1   H1B 5444   5.928   1.632   2.962  0.1707 -0.0852 -0.7948
   58CHL1    C2 5445   6.066   1.562   2.811 -0.3481 -0.1638 -0.1461
   58CHL1   H2A 5446   5.976   1.531   2.754 -2.3572 -0.8174  3.1302
   58CHL1   H2B 5447   6.148   1.487   2.805  0.6852  0.9074  0.1809
   58CHL1   C20 5448   5.951   1.794   3.731 -0.4742 -0.6062  0.1688
   58CHL1   H20 5449   6.039   1.760   3.790 -0.4556  0.8960  1.0592
   58CHL1   C21 5450   5.845   1.680   3.727 -0.2412 -0.1979 -0.2729
   58CHL1  H21A 5451   5.746   1.730   3.714 -0.0982 -0.1023 -1.0182
   58CHL1  H21B 5452   5.855   1.625   3.823  2.6656 -2.0249 -1.5021
   58CHL1  H21C 5453   5.857   1.614   3.639 -1.5714 -0.3091 -0.4007
   58CHL1   C22 5454   5.900   1.909   3.827 -0.7843  0.0936  0.7091
   58CHL1  H22A 5455   5.984   1.979   3.847  1.3320 -2.3071  0.6223
   58CHL1  H22B 5456   5.819   1.965   3.777 -1.2126  0.9866  2.3175
   58CHL1   C23 5457   5.863   1.858   3.967 -0.3217  0.2078  0.2232
   58CHL1  H23A 5458   5.779   1.785   3.959 -0.5858  0.4895  0.4004
   58CHL1  H23B 5459   5.948   1.813   4.022 -1.4608 -1.7964  0.4375
   58CHL1   C24 5460   5.791   1.966   4.048  0.3984 -0.6044  0.0377
   58CHL1  H24A 5461   5.868   2.044   4.067  1.5302 -1.5937 -0.3369
   58CHL1  H24B 5462   5.710   2.012   3.988 -0.6999 -0.1943  1.7514
   58CHL1   C25 5463   5.748   1.924   4.195 -0.5382 -0.0151  0.2230
   58CHL1   H25 5464   5.680   1.836   4.185  0.2190 -0.3811 -2.9779
   58CHL1   C26 5465   5.871   1.882   4.280  0.3813 -0.0270 -0.6385
   58CHL1  H26A 5466   5.948   1.962   4.279  0.1155  0.2425  0.0890
   58CHL1  H26B 5467   5.849   1.847   4.383 -0.3557 -0.5943 -0.9821
   58CHL1  H26C 5468   5.922   1.796   4.231 -0.8365 -1.4716  0.5526
   58CHL1   C27 5469   5.665   2.037   4.257 -0.0188 -0.3793  0.4471
   58CHL1  H27A 5470   5.596   2.006   4.338 -0.4649  4.3506  2.1819
   58CHL1  H27B 5471   5.729   2.123   4.287  0.5917 -1.1167  1.3279
   58CHL1  H27C 5472   5.602   2.083   4.178  0.3972 -1.9843 -0.8904
   59CHL1    C3 5473   5.980   6.542   3.549  0.5255  0.2557  0.3486
   59CHL1    H3 5474   5.875   6.510   3.566  1.0960 -0.3712  3.2169
   59CHL1    O3 5475   6.012   6.531   3.409 -0.2813 -0.3211  0.0300
   59CHL1   H3' 5476   6.060   6.448   3.398  0.0807 -0.4455  2.0393
   59CHL1    C4 5477   6.006   6.686   3.612  0.2711  0.5627  0.2598
   59CHL1   H4A 5478   6.110   6.721   3.599 -0.3446  2.2551 -0.4009
   59CHL1   H4B 5479   5.959   6.764   3.548 -0.8030 -0.4867 -0.2555
   59CHL1    C5 5480   5.971   6.674   3.761  0.0151  0.1900 -0.2790
   59CHL1    C6 5481   5.871   6.748   3.806  0.3076 -0.8005 -0.4535
   59CHL1    H6 5482   5.830   6.819   3.732  1.8030 -0.9106 -1.4437
   59CHL1    C7 5483   5.839   6.761   3.949  0.3222 -0.0232  0.2138
   59CHL1   H7A 5484   5.831   6.868   3.977 -0.5053 -0.4392  1.6164
   59CHL1   H7B 5485   5.737   6.723   3.968 -0.8491  2.4001 -0.7464
   59CHL1    C8 5486   5.947   6.687   4.035  0.6493 -0.3265  0.4245
   59CHL1    H8 5487   6.027   6.764   4.031  2.2114 -1.8399  1.3162
   59CHL1   C14 5488   5.898   6.678   4.172  0.4533  0.4279 -0.5905
   59CHL1   H14 5489   5.806   6.616   4.177  0.3006  0.7602  1.3123
   59CHL1   C15 5490   5.849   6.807   4.242 -0.1365 -0.3382 -0.7788
   59CHL1  H15A 5491   5.924   6.888   4.228 -2.4319  1.7168 -1.8243
   59CHL1  H15B 5492   5.747   6.830   4.205 -0.0556 -1.5667 -1.8581
   59CHL1   C16 5493   5.844   6.775   4.392 -0.8744  1.0034  0.0823
   59CHL1  H16A 5494   5.914   6.839   4.450  0.5650 -0.6539  0.2552
   59CHL1  H16B 5495   5.745   6.795   4.438 -1.4580 -2.5581  0.6814
   59CHL1   C17 5496   5.892   6.626   4.410  0.4284 -0.7252 -0.2337
   59CHL1   H17 5497   5.801   6.563   4.401 -0.9053  0.7726  1.8647
   59CHL1   C13 5498   5.978   6.601   4.281 -0.1663 -0.0175 -0.7876
   59CHL1   C18 5499   6.111   6.670   4.297  0.9211 -0.0673 -0.6904
   59CHL1  H18A 5500   6.165   6.600   4.364  0.9174  1.9384  1.5520
   59CHL1  H18B 5501   6.180   6.678   4.209  0.6509  1.8062 -0.7765
   59CHL1  H18C 5502   6.111   6.755   4.368 -1.2666 -0.1555 -0.5275
   59CHL1   C12 5503   6.002   6.464   4.234 -0.8651  0.5454  0.5537
   59CHL1  H12A 5504   6.069   6.400   4.295  0.2517  0.7373 -0.4344
   59CHL1  H12B 5505   5.907   6.410   4.212  0.5072 -1.3878 -1.0372
   59CHL1   C11 5506   6.063   6.468   4.091  0.5296  0.4512 -0.0443
   59CHL1  H11A 5507   6.163   6.513   4.078  0.7165  0.0732  0.0832
   59CHL1  H11B 5508   6.074   6.368   4.042  3.7466  0.5115  0.3611
   59CHL1    C9 5509   5.984   6.550   3.981 -0.2213 -0.7529 -0.1595
   59CHL1    H9 5510   5.884   6.503   3.970 -1.3564  1.4035  0.3791
   59CHL1   C10 5511   6.045   6.563   3.842  0.0652 -0.2032 -0.0938
   59CHL1   C19 5512   6.195   6.608   3.847 -0.4022  0.3769  0.9511
   59CHL1  H19A 5513   6.236   6.638   3.748 -0.6472 -2.0167  0.0414
   59CHL1  H19B 5514   6.202   6.692   3.919 -2.1746 -0.3231  2.0011
   59CHL1  H19C 5515   6.254   6.520   3.880 -0.8129 -0.1884  0.2106
   59CHL1    C1 5516   6.028   6.438   3.763 -0.3289 -0.0057 -0.1754
   59CHL1   H1A 5517   6.078   6.355   3.818  0.7787 -0.0821 -1.2655
   59CHL1   H1B 5518   5.920   6.413   3.758 -0.0485 -1.4505  0.2343
   59CHL1    C2 5519   6.069   6.437   3.614  0.2615  0.0011 -0.2447
   59CHL1   H2A 5520   6.045   6.339   3.569 -0.2131  1.0267 -2.3867
   59CHL1   H2B 5521   6.178   6.457   3.617  0.7272 -2.3654  1.5119
   59CHL1   C20 5522   5.962   6.606   4.546 -0.4250  0.4310  0.4700
   59CHL1   H20 5523   6.068   6.642   4.544  0.3483 -1.6837  1.2012
   59CHL1   C21 5524   5.951   6.454   4.576 -0.1785  0.3220  0.2953
   59CHL1  H21A 5525   5.844   6.425   4.583 -0.7973  2.7690  2.6956
   59CHL1  H21B 5526   5.999   6.427   4.672  0.9015  3.1508  0.6431
   59CHL1  H21C 5527   6.003   6.390   4.501 -0.2503  2.9090 -2.1269
   59CHL1   C22 5528   5.907   6.689   4.668 -0.3341  0.1665  0.3733
   59CHL1  H22A 5529   5.907   6.798   4.646 -0.0467  0.6166  2.4004
   59CHL1  H22B 5530   5.807   6.647   4.693 -1.3067  1.2040 -1.4864
   59CHL1   C23 5531   5.992   6.673   4.797  0.3668 -0.1225 -0.1574
   59CHL1  H23A 5532   6.047   6.577   4.789  2.6757  1.0597  0.5761
   59CHL1  H23B 5533   6.065   6.756   4.798  0.7523 -0.3765  2.9915
   59CHL1   C24 5534   5.904   6.669   4.929 -0.1466  0.8418  0.1475
   59CHL1  H24A 5535   5.840   6.759   4.925  0.4419  1.2975  0.8134
   59CHL1  H24B 5536   5.839   6.579   4.922 -1.6291  1.6226  2.7259
   59CHL1   C25 5537   5.983   6.652   5.060 -0.5886 -0.1839 -0.9342
   59CHL1   H25 5538   6.048   6.739   5.082  1.1749 -1.5435 -0.5765
   59CHL1   C26 5539   5.888   6.633   5.172 -0.1636  0.5653 -0.6522
   59CHL1  H26A 5540   5.821   6.721   5.185 -0.2333  0.8191 -2.4578
   59CHL1  H26B 5541   5.810   6.559   5.146 -0.8498  1.9756 -2.9103
   59CHL1  H26C 5542   5.930   6.601   5.270  1.5217  2.0935 -0.8126
   59CHL1   C27 5543   6.069   6.526   5.049 -0.2538  0.0114 -0.9524
   59CHL1  H27A 5544   6.112   6.508   5.150  0.4228  0.5411 -1.1418
   59CHL1  H27B 5545   6.010   6.436   5.021  0.1881  0.1354 -2.3326
   59CHL1  H27C 5546   6.151   6.540   4.976  0.1493  2.3380 -0.1447
   60CHL1    C3 5547   1.703   5.647   3.241  0.0050 -0.4233  0.1738
   60CHL1    H3 5548   1.800   5.645   3.296  0.7496  2.0903 -0.8954
   60CHL1    O3 5549   1.728   5.665   3.105  0.0613  0.2052 -0.5720
   60CHL1   H3' 5550   1.764   5.580   3.079 -0.9911 -0.5527  0.3849
   60CHL1    C4 5551   1.622   5.516   3.265 -0.4675 -0.1472  0.7012
   60CHL1   H4A 5552   1.541   5.516   3.189  1.5286  0.6845 -1.5498
   60CHL1   H4B 5553   1.682   5.427   3.234 -2.0500 -1.6736  1.8094
   60CHL1    C5 5554   1.586   5.493   3.406  0.0542  0.6572  0.3572
   60CHL1    C6 5555   1.600   5.377   3.474 -0.0883 -0.1315 -0.3793
   60CHL1    H6 5556   1.656   5.291   3.434  1.1726  0.7217 -0.4819
   60CHL1    C7 5557   1.557   5.352   3.615 -0.0495  0.9637  0.8738
   60CHL1   H7A 5558   1.501   5.256   3.614  1.7533 -0.1653 -1.6553
   60CHL1   H7B 5559   1.640   5.339   3.688 -0.1139  0.7309  0.9088
   60CHL1    C8 5560   1.470   5.467   3.669 -0.3089 -0.6420 -0.8882
   60CHL1    H8 5561   1.365   5.455   3.635 -0.8781  0.1286  0.5111
   60CHL1   C14 5562   1.475   5.459   3.823 -0.2589  0.1188  0.3897
   60CHL1   H14 5563   1.581   5.472   3.851 -0.4071  0.3557  0.8429
   60CHL1   C15 5564   1.433   5.323   3.869  0.3009 -0.3811 -1.0887
   60CHL1  H15A 5565   1.333   5.301   3.825 -1.0740 -1.2037  2.1299
   60CHL1  H15B 5566   1.514   5.247   3.865  0.4772 -0.3547  0.9606
   60CHL1   C16 5567   1.403   5.338   4.021 -0.2336 -0.7968  0.5350
   60CHL1  H16A 5568   1.301   5.312   4.055 -0.3842 -0.2926  0.4659
   60CHL1  H16B 5569   1.482   5.291   4.084  0.4463 -1.6510 -0.8937
   60CHL1   C17 5570   1.417   5.498   4.045  0.6946 -0.3838  0.0050
   60CHL1   H17 5571   1.521   5.515   4.082  0.3144  1.6207  0.2532
   60CHL1   C13 5572   1.400   5.559   3.897  0.1610 -0.3521 -0.3559
   60CHL1   C18 5573   1.250   5.562   3.867  0.0684 -0.5564  0.5803
   60CHL1  H18A 5574   1.221   5.588   3.762 -1.3898 -0.2372  1.0454
   60CHL1  H18B 5575   1.204   5.463   3.888 -1.9432  0.3309  0.6453
   60CHL1  H18C 5576   1.198   5.631   3.937 -0.8986 -0.2410 -0.4022
   60CHL1   C12 5577   1.475   5.692   3.865  0.1979 -0.1334 -0.6949
   60CHL1  H12A 5578   1.427   5.771   3.927  0.5318 -0.6316  0.2143
   60CHL1  H12B 5579   1.581   5.669   3.888  0.3114 -2.4735 -3.0924
   60CHL1   C11 5580   1.460   5.716   3.716  0.5438 -0.4419  0.0174
   60CHL1  H11A 5581   1.352   5.734   3.698  0.5625  0.2957  0.5975
   60CHL1  H11B 5582   1.506   5.816   3.702 -1.1636  0.2510 -0.8995
   60CHL1    C9 5583   1.530   5.605   3.633  0.5230 -0.8692 -0.0030
   60CHL1    H9 5584   1.641   5.598   3.641  0.5321 -2.0391 -0.8626
   60CHL1   C10 5585   1.527   5.621   3.476  0.4105  0.3574 -0.7981
   60CHL1   C19 5586   1.382   5.639   3.437  0.4472 -0.0296 -0.1002
   60CHL1  H19A 5587   1.309   5.566   3.479 -1.1839  0.0620 -2.6038
   60CHL1  H19B 5588   1.356   5.746   3.448 -1.5204 -0.4090 -0.7084
   60CHL1  H19C 5589   1.352   5.626   3.331 -2.6981  1.7823  0.4564
   60CHL1    C1 5590   1.617   5.748   3.447  0.4607  0.2209  0.1703
   60CHL1   H1A 5591   1.575   5.844   3.484 -2.6091 -1.0837  0.3865
   60CHL1   H1B 5592   1.719   5.740   3.490  0.2273  0.1898  0.7203
   60CHL1    C2 5593   1.631   5.770   3.294  0.4351 -0.0293  0.3862
   60CHL1   H2A 5594   1.678   5.864   3.257 -1.3529  0.9461  0.4660
   60CHL1   H2B 5595   1.532   5.761   3.245 -1.0062 -0.5575  3.1800
   60CHL1   C20 5596   1.317   5.543   4.164 -0.7387  0.2904 -0.3764
   60CHL1   H20 5597   1.216   5.513   4.129 -2.4376  2.6889  2.1665
   60CHL1   C21 5598   1.310   5.701   4.179 -0.4285 -0.2293  0.8989
   60CHL1  H21A 5599   1.407   5.748   4.206  0.2028 -1.6048  1.1154
   60CHL1  H21B 5600   1.242   5.725   4.264 -0.2304  1.2841  0.6607
   60CHL1  H21C 5601   1.274   5.760   4.093  1.7921  0.9356  0.7038
   60CHL1   C22 5602   1.344   5.471   4.301  0.7370  0.7693  0.1205
   60CHL1  H22A 5603   1.254   5.477   4.366 -1.0846 -0.9235 -2.0728
   60CHL1  H22B 5604   1.355   5.362   4.282  0.4706  0.4142  1.8555
   60CHL1   C23 5605   1.464   5.520   4.372  0.4404 -0.1734  0.4441
   60CHL1  H23A 5606   1.552   5.537   4.306 -0.1243  2.2783  0.2259
   60CHL1  H23B 5607   1.440   5.620   4.414 -0.3456  0.4106 -1.3027
   60CHL1   C24 5608   1.493   5.429   4.492 -0.0429 -0.2728 -0.8302
   60CHL1  H24A 5609   1.412   5.431   4.568  0.8680  0.6985  0.1604
   60CHL1  H24B 5610   1.496   5.324   4.457 -0.0014 -0.8046  0.6751
   60CHL1   C25 5611   1.637   5.454   4.551  0.2890  0.0484  0.5007
   60CHL1   H25 5612   1.711   5.446   4.469 -0.4956 -0.7168 -0.1536
   60CHL1   C26 5613   1.650   5.584   4.626 -0.4748  0.8362 -0.0663
   60CHL1  H26A 5614   1.638   5.667   4.553 -2.4173  0.7079  0.0534
   60CHL1  H26B 5615   1.578   5.597   4.709 -1.1194 -3.1042  0.1716
   60CHL1  H26C 5616   1.751   5.583   4.674 -0.3439  0.4995 -0.3431
   60CHL1   C27 5617   1.671   5.335   4.633  0.0111 -0.9359  0.1624
   60CHL1  H27A 5618   1.620   5.350   4.731  2.1250  1.6497  0.9665
   60CHL1  H27B 5619   1.637   5.237   4.592  1.1603 -1.7345  1.0648
   60CHL1  H27C 5620   1.779   5.324   4.655  0.0442 -1.9416 -0.4638
   61CHL1    C3 5621   1.847   1.183   3.384  0.3026 -0.1452  0.5087
   61CHL1    H3 5622   1.893   1.283   3.392 -0.9449  0.3745  1.7500
   61CHL1    O3 5623   1.857   1.136   3.250  0.0181  0.3124 -0.8787
   61CHL1   H3' 5624   1.792   1.067   3.235 -0.1508  0.0219  0.8886
   61CHL1    C4 5625   1.923   1.084   3.472 -0.6081  0.1614  0.2940
   61CHL1   H4A 5626   1.892   0.978   3.458  0.4664 -0.0939 -0.3374
   61CHL1   H4B 5627   2.029   1.078   3.437 -1.3505 -2.7848 -1.8298
   61CHL1    C5 5628   1.915   1.115   3.622  0.0697  0.3032  0.6050
   61CHL1    C6 5629   2.027   1.128   3.695  0.6114 -0.4627 -0.4824
   61CHL1    H6 5630   2.126   1.119   3.648  1.0024  1.3008 -0.0820
   61CHL1    C7 5631   2.023   1.155   3.843  0.0922 -0.3477 -0.4004
   61CHL1   H7A 5632   2.094   1.085   3.893  1.5539  1.0515 -0.4126
   61CHL1   H7B 5633   2.051   1.260   3.867 -2.5875  0.7272 -1.6533
   61CHL1    C8 5634   1.881   1.129   3.898  0.8594  0.1271 -0.2841
   61CHL1    H8 5635   1.865   1.019   3.895 -1.0555  0.3865 -0.9692
   61CHL1   C14 5636   1.870   1.187   4.043  0.0488  0.0648 -0.4309
   61CHL1   H14 5637   1.899   1.294   4.034  1.4513 -0.2047  0.4984
   61CHL1   C15 5638   1.974   1.134   4.139 -0.5892  0.2963  0.4293
   61CHL1  H15A 5639   2.001   1.026   4.133  1.0829  0.7582 -2.3608
   61CHL1  H15B 5640   2.063   1.198   4.120 -1.0455  0.4300 -1.3952
   61CHL1   C16 5641   1.914   1.172   4.281 -0.2455 -0.7624  0.4495
   61CHL1  H16A 5642   1.903   1.085   4.350  1.5351 -0.1620  1.5641
   61CHL1  H16B 5643   1.985   1.243   4.327  1.5708 -2.3349  0.2533
   61CHL1   C17 5644   1.776   1.237   4.256 -0.4251  0.3698  0.1474
   61CHL1   H17 5645   1.795   1.343   4.230 -0.4813 -0.0223 -1.5922
   61CHL1   C13 5646   1.737   1.185   4.116  0.1241  0.2884  0.7507
   61CHL1   C18 5647   1.687   1.037   4.130  0.3892 -0.4916 -0.0214
   61CHL1  H18A 5648   1.592   1.046   4.187  0.8924  0.7299  0.6815
   61CHL1  H18B 5649   1.678   0.978   4.037  1.8846  0.3371 -0.7336
   61CHL1  H18C 5650   1.760   0.985   4.195  0.7352 -1.2972 -1.0371
   61CHL1   C12 5651   1.639   1.275   4.031 -0.4268  0.2772 -0.0529
   61CHL1  H12A 5652   1.537   1.263   4.073 -0.3784 -0.4050 -0.1111
   61CHL1  H12B 5653   1.664   1.383   4.025  0.3064  0.1578  0.6586
   61CHL1   C11 5654   1.635   1.211   3.895 -0.2255  0.4038 -0.0859
   61CHL1  H11A 5655   1.577   1.117   3.900 -1.6501  1.2752  0.4195
   61CHL1  H11B 5656   1.575   1.284   3.836 -2.3116 -0.1567  1.2543
   61CHL1    C9 5657   1.773   1.200   3.817  0.0173 -0.2013 -0.2085
   61CHL1    H9 5658   1.804   1.306   3.813  0.4005 -0.3417 -1.4469
   61CHL1   C10 5659   1.770   1.145   3.673  0.2074  0.1371 -0.8185
   61CHL1   C19 5660   1.700   1.001   3.682 -0.0849 -0.8668 -0.0064
   61CHL1  H19A 5661   1.690   0.954   3.582  1.6615 -1.5659  0.1050
   61CHL1  H19B 5662   1.764   0.931   3.740  2.7023 -0.3024 -2.2105
   61CHL1  H19C 5663   1.595   1.011   3.717 -0.5549  1.1733 -1.7769
   61CHL1    C1 5664   1.685   1.231   3.575  0.5279  0.0484 -0.7400
   61CHL1   H1A 5665   1.577   1.212   3.592  0.5765 -0.4736 -0.9992
   61CHL1   H1B 5666   1.707   1.340   3.579 -0.5627  0.2590  0.1285
   61CHL1    C2 5667   1.705   1.189   3.426  0.4797 -0.3973  0.0397
   61CHL1   H2A 5668   1.648   1.263   3.366 -0.2043 -0.3626  0.7129
   61CHL1   H2B 5669   1.661   1.088   3.414 -0.0203 -0.1309 -0.3791
   61CHL1   C20 5670   1.678   1.232   4.374 -0.0749  0.3765  0.1287
   61CHL1   H20 5671   1.632   1.131   4.381 -0.6296  0.5847 -0.4744
   61CHL1   C21 5672   1.579   1.348   4.360 -0.2113  0.1732 -1.0556
   61CHL1  H21A 5673   1.627   1.448   4.358 -0.3879  0.2508 -1.3384
   61CHL1  H21B 5674   1.522   1.359   4.455  0.6790  0.6039 -0.5523
   61CHL1  H21C 5675   1.504   1.351   4.279 -0.3517  1.4775 -0.8960
   61CHL1   C22 5676   1.754   1.252   4.510  0.6443  0.4045 -0.0630
   61CHL1  H22A 5677   1.825   1.167   4.521  0.6361  0.2638 -0.9962
   61CHL1  H22B 5678   1.816   1.343   4.495  0.2056  0.7785  0.3498
   61CHL1   C23 5679   1.665   1.273   4.637 -0.9674 -0.5898 -0.7486
   61CHL1  H23A 5680   1.605   1.366   4.632  1.0236  0.8937  1.3538
   61CHL1  H23B 5681   1.596   1.186   4.650 -0.7650 -0.5040  1.2002
   61CHL1   C24 5682   1.743   1.270   4.767 -0.1035  0.5581 -0.7111
   61CHL1  H24A 5683   1.798   1.174   4.765 -1.7426 -0.4404 -0.0219
   61CHL1  H24B 5684   1.812   1.356   4.777 -1.4845  1.4367  3.0854
   61CHL1   C25 5685   1.653   1.274   4.894  0.4947 -0.9102  0.3318
   61CHL1   H25 5686   1.576   1.196   4.877 -1.0372  0.6071  0.1504
   61CHL1   C26 5687   1.731   1.239   5.026  0.3371 -0.8099  0.2083
   61CHL1  H26A 5688   1.816   1.170   5.008  0.8540 -0.0467 -0.3707
   61CHL1  H26B 5689   1.784   1.335   5.047  0.5018 -0.5385 -1.3426
   61CHL1  H26C 5690   1.662   1.216   5.110 -0.2139  1.6437  0.5163
   61CHL1   C27 5691   1.575   1.407   4.904  0.3206 -0.1477 -0.0132
   61CHL1  H27A 5692   1.642   1.497   4.905  1.8671 -1.2481  0.9063
   61CHL1  H27B 5693   1.513   1.417   4.813 -1.5025 -1.1249  1.0752
   61CHL1  H27C 5694   1.512   1.407   4.995 -1.0952 -0.8462 -0.9565
   62CHL1    C3 5695   3.270   0.832   3.252  0.4535 -0.3634 -0.5363
   62CHL1    H3 5696   3.379   0.845   3.234  0.1999  1.5682 -0.8835
   62CHL1    O3 5697   3.201   0.847   3.133  0.0569  0.3457  0.3295
   62CHL1   H3' 5698   3.106   0.831   3.141  0.1109 -0.7988 -1.0112
   62CHL1    C4 5699   3.229   0.698   3.323  0.4946 -0.3461  0.0675
   62CHL1   H4A 5700   3.118   0.696   3.326  0.2669  0.4812 -3.5708
   62CHL1   H4B 5701   3.259   0.618   3.253  2.0447 -1.1983  1.6136
   62CHL1    C5 5702   3.308   0.689   3.454 -0.4950 -0.2255  0.1829
   62CHL1    C6 5703   3.397   0.592   3.476  0.1371 -0.2427  0.0701
   62CHL1    H6 5704   3.417   0.512   3.403 -0.5660 -1.6496  1.3710
   62CHL1    C7 5705   3.465   0.572   3.614  0.1788  0.1504  0.1687
   62CHL1   H7A 5706   3.458   0.468   3.652 -0.3791  0.3548  0.6336
   62CHL1   H7B 5707   3.574   0.594   3.610 -0.0075  2.3146  3.5951
   62CHL1    C8 5708   3.419   0.664   3.725 -0.5145 -0.5504  0.8929
   62CHL1    H8 5709   3.319   0.626   3.756 -2.9691 -0.1971 -5.2639
   62CHL1   C14 5710   3.518   0.665   3.845 -0.4029  0.0320 -0.4727
   62CHL1   H14 5711   3.616   0.688   3.800  0.3977 -0.9438  0.6973
   62CHL1   C15 5712   3.543   0.527   3.911 -0.0395  0.6577 -0.9905
   62CHL1  H15A 5713   3.448   0.470   3.918  1.3442 -1.7422 -0.6875
   62CHL1  H15B 5714   3.612   0.462   3.853 -0.0759 -0.6298  0.3602
   62CHL1   C16 5715   3.601   0.568   4.045 -0.4498 -0.7374 -0.9872
   62CHL1  H16A 5716   3.542   0.527   4.130 -0.2846 -0.4518 -0.7348
   62CHL1  H16B 5717   3.707   0.537   4.046 -0.1033  0.3197  0.9122
   62CHL1   C17 5718   3.585   0.724   4.053 -0.3452 -0.8846 -0.2098
   62CHL1   H17 5719   3.679   0.769   4.015 -1.5751  0.4581 -1.7925
   62CHL1   C13 5720   3.478   0.758   3.955  0.1671 -0.3507  0.4174
   62CHL1   C18 5721   3.341   0.719   4.010  0.4365 -0.4438  0.0168
   62CHL1  H18A 5722   3.344   0.620   4.062 -0.3664 -0.3795  0.1959
   62CHL1  H18B 5723   3.302   0.798   4.077 -4.4802 -2.8607  0.4989
   62CHL1  H18C 5724   3.260   0.704   3.935  1.0860  1.1294 -1.0407
   62CHL1   C12 5725   3.465   0.902   3.897 -0.0670  0.4220  0.0799
   62CHL1  H12A 5726   3.432   0.967   3.981 -3.4277 -1.8571  0.7466
   62CHL1  H12B 5727   3.563   0.930   3.852  0.8564 -1.1733  0.9782
   62CHL1   C11 5728   3.367   0.910   3.783 -0.4669  0.5092 -0.3749
   62CHL1  H11A 5729   3.261   0.891   3.812 -0.6253  0.7001 -0.8220
   62CHL1  H11B 5730   3.375   1.007   3.730  0.7009  0.4154 -0.4026
   62CHL1    C9 5731   3.401   0.809   3.668  0.3630  0.0409  0.2721
   62CHL1    H9 5732   3.502   0.836   3.631  0.5444  3.6014  2.7886
   62CHL1   C10 5733   3.291   0.810   3.553 -0.9261  0.3344 -0.0644
   62CHL1   C19 5734   3.146   0.805   3.603  0.7157 -0.5646  0.2656
   62CHL1  H19A 5735   3.075   0.796   3.518  0.1463  0.3995  0.6132
   62CHL1  H19B 5736   3.121   0.711   3.657 -2.2450 -0.6923 -1.1487
   62CHL1  H19C 5737   3.122   0.903   3.651  1.4156  0.8901 -2.1686
   62CHL1    C1 5738   3.310   0.939   3.474  0.5339 -0.2945  0.2459
   62CHL1   H1A 5739   3.283   1.026   3.537  1.4056  1.7188 -1.9896
   62CHL1   H1B 5740   3.414   0.956   3.438 -0.0416  1.4503 -0.6702
   62CHL1    C2 5741   3.226   0.939   3.348  0.3580  0.2414  0.1805
   62CHL1   H2A 5742   3.258   1.032   3.296  2.5781 -1.6361 -2.0709
   62CHL1   H2B 5743   3.116   0.936   3.363  0.0968  0.6496 -1.4801
   62CHL1   C20 5744   3.573   0.782   4.200 -0.0141 -0.0205 -0.0424
   62CHL1   H20 5745   3.466   0.782   4.230 -0.2554  2.4661 -0.7207
   62CHL1   C21 5746   3.597   0.930   4.210 -0.2683  0.5418 -0.9935
   62CHL1  H21A 5747   3.532   0.996   4.149 -0.1450  2.2274  0.6157
   62CHL1  H21B 5748   3.696   0.962   4.172 -0.9750  3.3612 -0.6965
   62CHL1  H21C 5749   3.570   0.966   4.312 -1.9661 -0.2722 -1.1185
   62CHL1   C22 5750   3.668   0.702   4.306  0.3384  0.3308  0.1319
   62CHL1  H22A 5751   3.642   0.594   4.310 -1.4525  0.7708  1.5182
   62CHL1  H22B 5752   3.773   0.698   4.269  0.7846  0.5046  1.3369
   62CHL1   C23 5753   3.657   0.751   4.452  0.1316 -0.3488 -0.0176
   62CHL1  H23A 5754   3.705   0.850   4.467  3.2611 -1.8967  1.0021
   62CHL1  H23B 5755   3.547   0.751   4.467  0.2672 -1.3096  1.0387
   62CHL1   C24 5756   3.713   0.646   4.543 -0.5354  0.3535 -0.1215
   62CHL1  H24A 5757   3.653   0.554   4.529 -1.1140  0.0045  3.6676
   62CHL1  H24B 5758   3.819   0.625   4.518  0.0852  1.9747  0.9181
   62CHL1   C25 5759   3.705   0.702   4.685  0.3065 -0.6190  0.0896
   62CHL1   H25 5760   3.605   0.751   4.692 -0.3047 -1.6662 -1.0033
   62CHL1   C26 5761   3.709   0.588   4.789  0.1015 -0.5149  0.7669
   62CHL1  H26A 5762   3.693   0.635   4.888 -0.8154  1.4739 -0.2677
   62CHL1  H26B 5763   3.624   0.518   4.773 -0.3266  0.4304 -1.4280
   62CHL1  H26C 5764   3.808   0.540   4.777 -0.2378 -0.8925 -0.8544
   62CHL1   C27 5765   3.818   0.796   4.712 -0.3925 -0.0210 -0.0206
   62CHL1  H27A 5766   3.853   0.816   4.816  1.4138  0.3416 -0.6674
   62CHL1  H27B 5767   3.911   0.756   4.667 -0.5344 -1.0915  0.5975
   62CHL1  H27C 5768   3.802   0.894   4.664 -0.8954 -0.6335 -1.1275
   63CHL1    C3 5769   2.194   2.833   3.373 -0.0739  0.3055  0.1725
   63CHL1    H3 5770   2.123   2.749   3.358  1.7718 -1.0629 -1.5498
   63CHL1    O3 5771   2.188   2.908   3.244  1.3721 -0.3561  0.0377
   63CHL1   H3' 5772   2.099   2.941   3.232  2.0035  1.2524 -0.5260
   63CHL1    C4 5773   2.146   2.932   3.480  0.3678  0.3246 -0.7493
   63CHL1   H4A 5774   2.203   3.026   3.464  2.0478 -0.4960  0.1696
   63CHL1   H4B 5775   2.045   2.970   3.454  1.1536  1.9199 -1.6575
   63CHL1    C5 5776   2.168   2.879   3.620  0.6361  0.1943 -0.4656
   63CHL1    C6 5777   2.070   2.878   3.709  0.4562  0.2200 -0.6046
   63CHL1    H6 5778   1.973   2.908   3.667 -0.3154 -0.0734  0.9254
   63CHL1    C7 5779   2.072   2.827   3.851  0.0833  0.2058 -0.5569
   63CHL1   H7A 5780   2.014   2.894   3.917  0.7935  2.2913 -1.9249
   63CHL1   H7B 5781   2.030   2.724   3.849 -1.3064  0.7215  0.6217
   63CHL1    C8 5782   2.220   2.819   3.904  0.6731 -0.6168  0.2172
   63CHL1    H8 5783   2.257   2.922   3.923  1.3857  0.0290 -3.8401
   63CHL1   C14 5784   2.234   2.735   4.032  0.4926  0.1690 -0.0613
   63CHL1   H14 5785   2.224   2.632   3.993  3.3342  0.6301 -2.3765
   63CHL1   C15 5786   2.135   2.744   4.150 -0.7947 -0.1686  0.7693
   63CHL1  H15A 5787   2.116   2.852   4.169  0.5212  0.3362 -0.6033
   63CHL1  H15B 5788   2.033   2.702   4.131 -0.0664 -1.8094  0.3339
   63CHL1   C16 5789   2.204   2.675   4.266 -0.2645 -0.0052  0.3569
   63CHL1  H16A 5790   2.195   2.742   4.355 -1.9979  1.6684 -0.9844
   63CHL1  H16B 5791   2.154   2.579   4.292 -0.1792  0.0938  0.9066
   63CHL1   C17 5792   2.352   2.646   4.218 -0.4663 -0.6319  0.4779
   63CHL1   H17 5793   2.352   2.543   4.176 -0.4820 -1.1400  1.7006
   63CHL1   C13 5794   2.372   2.739   4.089  0.5935 -0.0191 -1.2101
   63CHL1   C18 5795   2.408   2.882   4.135 -0.2272  0.8173  0.8070
   63CHL1  H18A 5796   2.499   2.894   4.198 -0.5180  1.6086  1.0903
   63CHL1  H18B 5797   2.442   2.942   4.048 -0.7486  0.3737  0.2941
   63CHL1  H18C 5798   2.324   2.944   4.174 -1.3807  0.6226 -1.2490
   63CHL1   C12 5799   2.469   2.685   3.991 -0.1677  0.3883 -0.6256
   63CHL1  H12A 5800   2.576   2.692   4.021 -0.4875 -1.7483  1.3685
   63CHL1  H12B 5801   2.470   2.576   3.968  0.8310  0.4005 -0.6774
   63CHL1   C11 5802   2.457   2.751   3.852 -0.3108 -0.7802 -0.3564
   63CHL1  H11A 5803   2.507   2.850   3.843  1.4321 -1.7649 -2.4888
   63CHL1  H11B 5804   2.520   2.688   3.785  2.5878  1.0517  0.4518
   63CHL1    C9 5805   2.318   2.761   3.799 -0.7047 -0.3237 -0.0816
   63CHL1    H9 5806   2.282   2.657   3.785  0.1719 -0.4877 -1.2396
   63CHL1   C10 5807   2.305   2.831   3.654 -0.1838  0.1878  1.0397
   63CHL1   C19 5808   2.406   2.952   3.642 -0.2652 -0.1145  0.0349
   63CHL1  H19A 5809   2.414   3.007   3.738  1.0196  1.2567 -0.8145
   63CHL1  H19B 5810   2.505   2.903   3.628  0.9128  1.1572  3.1068
   63CHL1  H19C 5811   2.389   3.022   3.557  0.5538  0.5872  0.4316
   63CHL1    C1 5812   2.345   2.729   3.547  0.1480  0.5326 -0.5754
   63CHL1   H1A 5813   2.447   2.693   3.574  1.4389  2.6131 -2.3438
   63CHL1   H1B 5814   2.271   2.646   3.552 -1.9972  2.3720 -0.4720
   63CHL1    C2 5815   2.332   2.776   3.404 -0.0301  0.2914  0.4405
   63CHL1   H2A 5816   2.368   2.705   3.326  0.5948  1.1535 -0.0705
   63CHL1   H2B 5817   2.398   2.864   3.388 -0.6315  1.0052  1.7773
   63CHL1   C20 5818   2.460   2.653   4.330 -0.4674  0.7695 -0.6053
   63CHL1   H20 5819   2.478   2.754   4.372  0.5948  1.6399 -2.9688
   63CHL1   C21 5820   2.597   2.610   4.273 -0.7882 -0.2901  0.1175
   63CHL1  H21A 5821   2.572   2.518   4.215 -0.0001  0.1110 -0.8772
   63CHL1  H21B 5822   2.676   2.587   4.347  0.9931  2.4836 -0.7894
   63CHL1  H21C 5823   2.637   2.682   4.199 -1.2393 -1.2705 -1.1199
   63CHL1   C22 5824   2.420   2.565   4.454 -0.5679 -0.1436  0.2344
   63CHL1  H22A 5825   2.328   2.610   4.495  0.4262  1.4252  0.8186
   63CHL1  H22B 5826   2.400   2.459   4.425  0.0066  0.1244 -1.2613
   63CHL1   C23 5827   2.526   2.572   4.567 -0.0312  0.2454  0.3111
   63CHL1  H23A 5828   2.620   2.520   4.542 -0.7249 -0.5670 -0.6687
   63CHL1  H23B 5829   2.544   2.679   4.593  0.7266  0.1542  0.1813
   63CHL1   C24 5830   2.480   2.507   4.701  0.0856  0.3642  0.3128
   63CHL1  H24A 5831   2.389   2.554   4.746 -2.0075 -3.6544  0.6940
   63CHL1  H24B 5832   2.455   2.401   4.682  0.5695 -0.2293  2.6560
   63CHL1   C25 5833   2.576   2.508   4.820  0.2412 -0.3169  0.1522
   63CHL1   H25 5834   2.678   2.482   4.786  1.1703  0.6845  2.0116
   63CHL1   C26 5835   2.575   2.645   4.887  0.1721 -0.1700 -0.5618
   63CHL1  H26A 5836   2.653   2.639   4.966 -0.7532 -0.8078  0.3276
   63CHL1  H26B 5837   2.597   2.730   4.819 -4.0723  0.5465 -1.3265
   63CHL1  H26C 5838   2.478   2.655   4.941 -0.1424 -1.2724 -0.8906
   63CHL1   C27 5839   2.546   2.409   4.932 -0.2878  0.7516  0.2354
   63CHL1  H27A 5840   2.555   2.303   4.898  1.1104  0.8923  0.0917
   63CHL1  H27B 5841   2.622   2.405   5.013 -1.7703  1.9846  1.7571
   63CHL1  H27C 5842   2.446   2.428   4.977 -1.2144  0.5728 -1.6690
   64CHL1    C3 5843   6.269   5.003   3.529  0.2487  0.4405  0.2302
   64CHL1    H3 5844   6.187   5.076   3.551 -1.9554 -1.1633 -2.0698
   64CHL1    O3 5845   6.314   5.039   3.402  0.1781  0.1486 -0.4303
   64CHL1   H3' 5846   6.407   5.015   3.404  0.1287 -0.1467  2.5046
   64CHL1    C4 5847   6.383   5.028   3.635 -0.3480 -0.2570  0.1286
   64CHL1   H4A 5848   6.470   4.961   3.619 -1.2662 -2.3457  3.0543
   64CHL1   H4B 5849   6.409   5.135   3.621 -1.8285  0.0776 -0.2325
   64CHL1    C5 5850   6.333   5.006   3.779 -0.7056 -0.4480 -0.3103
   64CHL1    C6 5851   6.354   5.097   3.879 -0.8953 -0.3225 -0.0677
   64CHL1    H6 5852   6.418   5.185   3.868 -1.2618  0.0276  0.5648
   64CHL1    C7 5853   6.315   5.075   4.024 -0.0502 -0.1803 -0.0603
   64CHL1   H7A 5854   6.399   5.104   4.092 -0.5942 -0.7540  0.8871
   64CHL1   H7B 5855   6.228   5.135   4.058  0.9625  1.5844 -0.4571
   64CHL1    C8 5856   6.288   4.926   4.054  0.0689  0.0722 -0.0911
   64CHL1    H8 5857   6.385   4.871   4.056  0.2486  0.2893 -1.8408
   64CHL1   C14 5858   6.219   4.919   4.195 -0.0398 -0.3098  0.1071
   64CHL1   H14 5859   6.127   4.980   4.182  0.5581  0.6579  0.2988
   64CHL1   C15 5860   6.292   4.977   4.320 -0.3293  0.7607 -0.3259
   64CHL1  H15A 5861   6.402   4.958   4.312 -0.6330 -1.0765 -0.4256
   64CHL1  H15B 5862   6.273   5.082   4.350  0.6772  0.2549  2.3156
   64CHL1   C16 5863   6.235   4.894   4.433  0.0195  0.5861  0.2609
   64CHL1  H16A 5864   6.325   4.845   4.476  1.2437  1.6434 -1.0039
   64CHL1  H16B 5865   6.200   4.952   4.521  0.3477  0.6455  0.3509
   64CHL1   C17 5866   6.124   4.802   4.364  0.1729 -0.5388 -0.1517
   64CHL1   H17 5867   6.047   4.883   4.364  1.4428  0.7207  1.1433
   64CHL1   C13 5868   6.173   4.776   4.223  0.4914 -0.6787  0.0318
   64CHL1   C18 5869   6.291   4.674   4.229 -0.4227 -0.2793  0.9192
   64CHL1  H18A 5870   6.333   4.646   4.130  0.1344 -0.9243  1.3293
   64CHL1  H18B 5871   6.374   4.714   4.292  1.2144 -1.5401 -0.3307
   64CHL1  H18C 5872   6.260   4.581   4.280  1.4324 -2.0675 -0.9950
   64CHL1   C12 5873   6.070   4.726   4.117 -0.2227 -0.1048 -0.9209
   64CHL1  H12A 5874   6.035   4.621   4.117 -2.2895  0.5298 -1.8695
   64CHL1  H12B 5875   5.983   4.795   4.127 -1.0715 -1.4298  1.6234
   64CHL1   C11 5876   6.130   4.737   3.976  0.2343 -0.0216  0.5420
   64CHL1  H11A 5877   6.213   4.664   3.967  0.3549  0.2132 -0.3410
   64CHL1  H11B 5878   6.043   4.722   3.908  0.6895  0.3348 -0.1315
   64CHL1    C9 5879   6.191   4.870   3.945  0.1372  0.1795 -0.0505
   64CHL1    H9 5880   6.110   4.946   3.944 -0.2148 -0.1613  1.1062
   64CHL1   C10 5881   6.265   4.876   3.803  0.2098  0.3165 -0.6941
   64CHL1   C19 5882   6.371   4.758   3.796  0.0785  0.2934  0.5552
   64CHL1  H19A 5883   6.323   4.659   3.782 -0.1174  0.4541  0.0562
   64CHL1  H19B 5884   6.453   4.779   3.724 -1.5593  1.4717 -1.1046
   64CHL1  H19C 5885   6.415   4.756   3.897 -0.3925  2.7096  0.8567
   64CHL1    C1 5886   6.161   4.854   3.689  0.4816  0.4309  0.0067
   64CHL1   H1A 5887   6.112   4.754   3.687  1.7026 -0.1994  0.3072
   64CHL1   H1B 5888   6.081   4.930   3.698  1.6567  1.7440 -0.2462
   64CHL1    C2 5889   6.203   4.868   3.536  0.2102  0.6127  0.4382
   64CHL1   H2A 5890   6.112   4.855   3.473  0.2875  0.1064  0.4278
   64CHL1   H2B 5891   6.277   4.794   3.500 -2.2032 -2.0050  0.4911
   64CHL1   C20 5892   6.061   4.692   4.447  0.1274 -0.9396 -0.1208
   64CHL1   H20 5893   6.128   4.604   4.433  1.6574 -0.0685  1.3570
   64CHL1   C21 5894   5.914   4.668   4.405  0.0926 -0.2136 -0.2542
   64CHL1  H21A 5895   5.850   4.757   4.425  2.4756  1.6973 -0.6305
   64CHL1  H21B 5896   5.871   4.586   4.466  0.0075  0.6931  0.9498
   64CHL1  H21C 5897   5.908   4.649   4.295 -1.7252  3.5440 -0.9867
   64CHL1   C22 5898   6.072   4.717   4.606 -0.6323 -0.2526 -0.0200
   64CHL1  H22A 5899   6.045   4.625   4.662  0.6670 -2.6525 -3.0519
   64CHL1  H22B 5900   6.178   4.743   4.626 -0.1209 -2.3824  0.2709
   64CHL1   C23 5901   5.979   4.834   4.653  0.2617 -0.3128 -0.1866
   64CHL1  H23A 5902   5.988   4.921   4.585  1.1963 -0.0802  0.2115
   64CHL1  H23B 5903   5.878   4.788   4.644  1.2844 -3.0908  1.2475
   64CHL1   C24 5904   5.993   4.865   4.807 -0.1814 -0.6162  0.1451
   64CHL1  H24A 5905   5.959   4.771   4.856 -0.1074 -1.4556 -1.3207
   64CHL1  H24B 5906   6.099   4.879   4.835 -0.6298  2.1318  0.7515
   64CHL1   C25 5907   5.916   4.988   4.854 -0.1702  0.2054  0.6137
   64CHL1   H25 5908   5.971   5.077   4.815 -1.0891 -0.1371 -1.6387
   64CHL1   C26 5909   5.780   5.006   4.792 -0.5341  0.4578  0.4064
   64CHL1  H26A 5910   5.792   4.998   4.681 -0.5999 -1.4695  0.5001
   64CHL1  H26B 5911   5.703   4.940   4.837 -1.4353  0.7300 -0.6852
   64CHL1  H26C 5912   5.744   5.109   4.814 -0.7122  0.5634 -0.3389
   64CHL1   C27 5913   5.909   5.003   5.008 -0.2143  0.3913  0.5004
   64CHL1  H27A 5914   5.862   5.097   5.044 -0.6546  0.5997 -0.5899
   64CHL1  H27B 5915   5.856   4.919   5.057  1.0139  0.4040  1.9263
   64CHL1  H27C 5916   6.012   4.987   5.048 -1.1293 -2.1152  2.0682
   65CHL1    C3 5917   2.556   2.286   3.043  0.5776 -0.4499  0.3325
   65CHL1    H3 5918   2.619   2.378   3.045  0.5365 -0.4317  0.9744
   65CHL1    O3 5919   2.514   2.248   2.907 -0.3502 -0.7210 -0.0066
   65CHL1   H3' 5920   2.476   2.162   2.925  0.1783 -0.9365  0.1168
   65CHL1    C4 5921   2.639   2.167   3.103  0.2083 -0.2030 -0.9952
   65CHL1   H4A 5922   2.589   2.068   3.101 -1.7867  0.6617  1.2105
   65CHL1   H4B 5923   2.731   2.159   3.041  0.5480 -0.2050 -0.4934
   65CHL1    C5 5924   2.679   2.200   3.253  0.6364 -0.7892  0.4182
   65CHL1    C6 5925   2.806   2.212   3.289 -0.0040 -0.2268 -0.1668
   65CHL1    H6 5926   2.891   2.191   3.222  1.1503  0.8290  0.8986
   65CHL1    C7 5927   2.852   2.227   3.432  0.0994  0.2659  0.0507
   65CHL1   H7A 5928   2.935   2.162   3.467  1.6410  1.4630 -1.2785
   65CHL1   H7B 5929   2.897   2.327   3.445 -1.5610  1.1804 -0.9679
   65CHL1    C8 5930   2.734   2.209   3.529  0.3716 -0.2151 -0.1670
   65CHL1    H8 5931   2.716   2.100   3.534  1.9708 -0.4619  1.3225
   65CHL1   C14 5932   2.772   2.236   3.676 -0.8219 -0.5151  0.2575
   65CHL1   H14 5933   2.789   2.346   3.674 -0.7768 -0.5020  1.0892
   65CHL1   C15 5934   2.904   2.180   3.732  0.0943  0.0287  0.7307
   65CHL1  H15A 5935   2.896   2.070   3.723 -1.7933  0.2000 -0.0974
   65CHL1  H15B 5936   2.994   2.234   3.695  0.2378  0.6339  1.9180
   65CHL1   C16 5937   2.892   2.212   3.884  0.0745 -0.1932  0.7971
   65CHL1  H16A 5938   2.914   2.117   3.936 -1.2013 -1.2457 -0.4864
   65CHL1  H16B 5939   2.971   2.289   3.896  3.1941 -2.5858 -2.2095
   65CHL1   C17 5940   2.743   2.245   3.912  0.2623  0.1760  0.8271
   65CHL1   H17 5941   2.737   2.356   3.913 -0.0483  0.2603 -1.9606
   65CHL1   C13 5942   2.658   2.220   3.781 -0.6230  1.3175  0.3969
   65CHL1   C18 5943   2.611   2.069   3.784  0.8142 -0.5365 -0.5986
   65CHL1  H18A 5944   2.541   2.053   3.869 -0.6290  0.5916 -1.5376
   65CHL1  H18B 5945   2.573   2.027   3.689  0.5716 -0.2641 -0.6247
   65CHL1  H18C 5946   2.692   1.997   3.807 -0.0589 -1.8820 -1.5991
   65CHL1   C12 5947   2.547   2.318   3.744  0.2071 -0.0565 -0.8222
   65CHL1  H12A 5948   2.464   2.310   3.818  0.7984 -5.3386 -0.2971
   65CHL1  H12B 5949   2.591   2.419   3.750  2.2209 -0.9627  2.5836
   65CHL1   C11 5950   2.499   2.298   3.595  0.3040  0.0560 -0.4387
   65CHL1  H11A 5951   2.426   2.215   3.607 -0.3079  0.6916  0.3921
   65CHL1  H11B 5952   2.449   2.394   3.571  4.7656  3.7019  2.9804
   65CHL1    C9 5953   2.607   2.286   3.485 -0.2856 -0.0243 -0.2488
   65CHL1    H9 5954   2.638   2.393   3.479 -4.3039  1.4428  1.6003
   65CHL1   C10 5955   2.560   2.249   3.343  0.2519  0.3700 -0.3488
   65CHL1   C19 5956   2.471   2.122   3.365  0.7503 -0.0393  0.4008
   65CHL1  H19A 5957   2.373   2.142   3.413 -0.4631 -1.0718 -1.5282
   65CHL1  H19B 5958   2.447   2.065   3.272 -0.5876 -0.7207  1.1324
   65CHL1  H19C 5959   2.520   2.039   3.421 -0.1489 -1.6652 -1.1008
   65CHL1    C1 5960   2.469   2.359   3.283 -0.2044 -0.3790  0.2808
   65CHL1   H1A 5961   2.376   2.375   3.343  0.6614  0.9614  1.3157
   65CHL1   H1B 5962   2.537   2.446   3.285  0.0558 -0.5911  0.7493
   65CHL1    C2 5963   2.434   2.322   3.136  0.1472 -0.7669 -0.8318
   65CHL1   H2A 5964   2.395   2.417   3.093 -0.1167 -0.4318  0.1157
   65CHL1   H2B 5965   2.352   2.247   3.123  0.1531 -0.7153 -1.1741
   65CHL1   C20 5966   2.687   2.196   4.048 -1.3678  0.5269 -0.0559
   65CHL1   H20 5967   2.691   2.086   4.058 -3.6921  0.4999  1.4518
   65CHL1   C21 5968   2.554   2.259   4.073  0.1910  0.6675  0.1042
   65CHL1  H21A 5969   2.471   2.199   4.029  0.5090 -1.1692  1.8312
   65CHL1  H21B 5970   2.552   2.363   4.034  0.6474  0.4908 -0.3889
   65CHL1  H21C 5971   2.525   2.274   4.180  2.5336  3.2916  0.4917
   65CHL1   C22 5972   2.778   2.255   4.162 -0.3599 -0.2206  0.3615
   65CHL1  H22A 5973   2.880   2.221   4.134  0.5145  0.3104  2.7111
   65CHL1  H22B 5974   2.777   2.366   4.173 -0.2019 -0.2165  0.3454
   65CHL1   C23 5975   2.739   2.202   4.310  0.0293 -0.0104 -0.5323
   65CHL1  H23A 5976   2.645   2.250   4.345 -0.2865 -1.6950  1.1357
   65CHL1  H23B 5977   2.704   2.097   4.300 -1.5741  0.4535  0.0287
   65CHL1   C24 5978   2.854   2.224   4.406 -0.7693 -0.2836 -0.3678
   65CHL1  H24A 5979   2.938   2.155   4.382 -0.2281 -0.4407  1.7517
   65CHL1  H24B 5980   2.895   2.327   4.401  1.6198 -1.1808 -0.8447
   65CHL1   C25 5981   2.833   2.184   4.559  0.0054 -0.4351  0.0352
   65CHL1   H25 5982   2.727   2.173   4.590 -0.4241 -0.1626 -1.2882
   65CHL1   C26 5983   2.895   2.049   4.569 -0.0846 -0.0660 -0.0733
   65CHL1  H26A 5984   2.850   1.972   4.502 -0.5120 -0.1927  0.3541
   65CHL1  H26B 5985   3.006   2.050   4.567 -0.0116  2.9362  1.2191
   65CHL1  H26C 5986   2.871   2.009   4.670  1.8283 -0.0225  0.4443
   65CHL1   C27 5987   2.898   2.286   4.654  0.2719  0.0819 -0.1604
   65CHL1  H27A 5988   2.839   2.380   4.646  0.2173 -0.0330 -1.1606
   65CHL1  H27B 5989   2.907   2.249   4.758 -1.4064 -1.4884 -0.5303
   65CHL1  H27C 5990   3.000   2.314   4.620 -0.0532  0.5892 -0.7320
   66CHL1    C3 5991   2.062   0.559   3.584 -0.3481 -0.2219  0.5006
   66CHL1    H3 5992   1.980   0.486   3.603 -1.3764  1.1262  1.4629
   66CHL1    O3 5993   2.062   0.589   3.446 -0.2456  0.6151 -0.4569
   66CHL1   H3' 5994   2.149   0.626   3.428 -0.3118  0.8818 -0.2387
   66CHL1    C4 5995   2.050   0.691   3.657 -0.3403  0.4663  0.0792
   66CHL1   H4A 5996   2.124   0.770   3.634  0.3429  0.5893  2.4675
   66CHL1   H4B 5997   1.952   0.733   3.624  0.5365  2.3674 -0.2501
   66CHL1    C5 5998   2.039   0.677   3.807 -0.9374 -0.3831 -0.5935
   66CHL1    C6 5999   1.936   0.715   3.882  0.0183 -0.6103 -0.0720
   66CHL1    H6 6000   1.854   0.769   3.833  1.0757  0.7833 -0.3794
   66CHL1    C7 6001   1.922   0.705   4.038  1.2061  0.2199  0.4863
   66CHL1   H7A 6002   1.886   0.799   4.085 -2.1671  0.1487 -1.6506
   66CHL1   H7B 6003   1.843   0.629   4.053 -0.6220  1.4816 -1.9936
   66CHL1    C8 6004   2.054   0.664   4.094 -0.4689 -0.4297  0.8301
   66CHL1    H8 6005   2.120   0.753   4.087 -0.3536 -0.6297 -1.0376
   66CHL1   C14 6006   2.035   0.629   4.242  0.3283  0.2945 -0.1066
   66CHL1   H14 6007   1.958   0.549   4.248  0.3348  0.3759  2.5320
   66CHL1   C15 6008   1.971   0.729   4.342 -0.1872  0.5846  0.1415
   66CHL1  H15A 6009   2.010   0.830   4.321  0.2190  0.0344 -1.9473
   66CHL1  H15B 6010   1.862   0.741   4.325 -0.7297 -0.2041  2.6405
   66CHL1   C16 6011   2.005   0.677   4.482 -0.1604  0.4710  0.3419
   66CHL1  H16A 6012   2.053   0.763   4.535  0.9972  1.2246 -1.8179
   66CHL1  H16B 6013   1.916   0.637   4.535 -0.4410 -0.4550 -0.7983
   66CHL1   C17 6014   2.086   0.546   4.456 -1.2066 -0.5134  0.2250
   66CHL1   H17 6015   2.016   0.460   4.446 -0.5324 -1.0411 -0.0467
   66CHL1   C13 6016   2.151   0.569   4.319  0.7012  0.1715 -0.0943
   66CHL1   C18 6017   2.262   0.672   4.338 -0.5375 -0.4949 -0.6986
   66CHL1  H18A 6018   2.362   0.624   4.349 -0.4046 -0.5504 -1.9848
   66CHL1  H18B 6019   2.285   0.731   4.247  2.0191  0.8250  0.6723
   66CHL1  H18C 6020   2.255   0.747   4.419 -3.0000  0.7494 -1.9747
   66CHL1   C12 6021   2.197   0.451   4.236  0.8811 -0.2356 -0.6033
   66CHL1  H12A 6022   2.290   0.400   4.271  0.4634 -0.0712  0.8195
   66CHL1  H12B 6023   2.116   0.376   4.249  1.5491 -0.7459  0.9092
   66CHL1   C11 6024   2.231   0.485   4.095  0.0465 -0.7610 -0.5778
   66CHL1  H11A 6025   2.314   0.559   4.100  1.1333 -1.9982  2.3077
   66CHL1  H11B 6026   2.259   0.394   4.037  2.8120  0.1814 -0.8759
   66CHL1    C9 6027   2.120   0.556   4.015 -0.4065  0.7470  0.6239
   66CHL1    H9 6028   2.040   0.479   4.017 -1.3364  1.6069 -1.2151
   66CHL1   C10 6029   2.155   0.594   3.872  0.7545  0.0184 -0.5842
   66CHL1   C19 6030   2.289   0.674   3.872 -0.2822  0.6728  0.2514
   66CHL1  H19A 6031   2.371   0.608   3.907 -2.3023 -1.2520  1.6447
   66CHL1  H19B 6032   2.320   0.718   3.774 -2.0992  1.4080 -0.0372
   66CHL1  H19C 6033   2.281   0.767   3.934 -1.5673 -0.2856  1.5889
   66CHL1    C1 6034   2.184   0.467   3.787 -0.1049  0.7319 -0.0676
   66CHL1   H1A 6035   2.284   0.429   3.818 -0.2608 -0.3003 -0.7621
   66CHL1   H1B 6036   2.097   0.402   3.808  0.5429 -0.6176 -1.3542
   66CHL1    C2 6037   2.187   0.484   3.634 -0.2569  0.1037  0.0464
   66CHL1   H2A 6038   2.196   0.393   3.572  1.4432  0.1478  0.1799
   66CHL1   H2B 6039   2.283   0.537   3.613 -1.0778  0.5756 -2.8525
   66CHL1   C20 6040   2.180   0.516   4.579  0.5848 -0.3880 -0.1238
   66CHL1   H20 6041   2.274   0.573   4.566  1.3278 -1.1883  1.4941
   66CHL1   C21 6042   2.218   0.362   4.570 -0.5839  0.2168 -0.7319
   66CHL1  H21A 6043   2.258   0.333   4.471  0.8922 -1.7987  0.3868
   66CHL1  H21B 6044   2.124   0.304   4.580  0.3614 -1.0270  1.9704
   66CHL1  H21C 6045   2.295   0.330   4.644  2.0015 -0.2889 -3.4300
   66CHL1   C22 6046   2.116   0.548   4.719  0.1329  0.2950  0.0936
   66CHL1  H22A 6047   2.083   0.653   4.731 -1.9961 -0.1459 -1.3332
   66CHL1  H22B 6048   2.026   0.483   4.723  0.6841 -0.4138  2.2572
   66CHL1   C23 6049   2.200   0.494   4.834  0.0839  0.4834  0.3426
   66CHL1  H23A 6050   2.203   0.383   4.828  1.1321  0.4097  1.5632
   66CHL1  H23B 6051   2.306   0.530   4.831 -0.5437  2.3988 -2.5258
   66CHL1   C24 6052   2.122   0.531   4.963 -0.1030  0.4896  0.0873
   66CHL1  H24A 6053   2.118   0.642   4.970  1.1441  0.5850 -0.4184
   66CHL1  H24B 6054   2.016   0.499   4.956 -0.2263  0.6011  1.2106
   66CHL1   C25 6055   2.178   0.493   5.103 -0.0294 -0.4519 -0.7800
   66CHL1   H25 6056   2.264   0.563   5.115  0.5064 -1.4971  2.3884
   66CHL1   C26 6057   2.081   0.531   5.209  0.7334 -0.1138  0.3113
   66CHL1  H26A 6058   2.033   0.631   5.197  2.1124  0.4478 -0.7727
   66CHL1  H26B 6059   2.002   0.455   5.225  0.7975  0.1444  2.0269
   66CHL1  H26C 6060   2.126   0.529   5.311 -2.4359  0.0126  1.8510
   66CHL1   C27 6061   2.224   0.349   5.111  0.4861 -0.0366 -0.1504
   66CHL1  H27A 6062   2.302   0.327   5.034  0.6821 -0.6758  0.2199
   66CHL1  H27B 6063   2.135   0.286   5.091 -0.8993  1.6059  0.6062
   66CHL1  H27C 6064   2.269   0.323   5.209 -1.9750  2.2173  1.7169
   67CHL1    C3 6065   2.220   3.291   3.180  0.5500  0.2524 -0.3687
   67CHL1    H3 6066   2.191   3.187   3.205 -2.5128  1.8684  4.0206
   67CHL1    O3 6067   2.206   3.326   3.045  0.6797 -0.0385  0.0830
   67CHL1   H3' 6068   2.272   3.276   2.996 -0.1693 -0.8053 -0.3122
   67CHL1    C4 6069   2.131   3.387   3.255 -0.1945  0.1851  0.1344
   67CHL1   H4A 6070   2.156   3.492   3.226 -1.9035  0.5321 -0.1499
   67CHL1   H4B 6071   2.024   3.377   3.228 -0.3987  0.0430  0.9523
   67CHL1    C5 6072   2.160   3.364   3.408 -0.0990  0.0827  0.0450
   67CHL1    C6 6073   2.053   3.343   3.485 -0.1788 -0.0915 -0.6292
   67CHL1    H6 6074   1.952   3.332   3.442  0.4986 -0.7616 -2.1340
   67CHL1    C7 6075   2.069   3.325   3.634  0.4110 -0.3666 -0.2048
   67CHL1   H7A 6076   1.980   3.373   3.680  0.3959  0.3698 -0.9854
   67CHL1   H7B 6077   2.062   3.218   3.661  0.2557 -0.2526  0.2128
   67CHL1    C8 6078   2.203   3.376   3.694 -0.4069 -0.2152 -0.9283
   67CHL1    H8 6079   2.204   3.487   3.691 -0.2257 -0.2133 -0.8318
   67CHL1   C14 6080   2.229   3.329   3.838 -0.2184  0.0491  0.0385
   67CHL1   H14 6081   2.250   3.221   3.824 -0.2955 -0.0079  0.3532
   67CHL1   C15 6082   2.111   3.318   3.939 -0.5646 -0.6626  0.7772
   67CHL1  H15A 6083   2.060   3.415   3.951 -0.9837 -0.0130 -4.1525
   67CHL1  H15B 6084   2.028   3.252   3.907 -0.3930  0.6643 -2.7824
   67CHL1   C16 6085   2.191   3.265   4.067  0.6117 -0.9538  0.5615
   67CHL1  H16A 6086   2.159   3.325   4.155  1.4666  0.6228 -0.1489
   67CHL1  H16B 6087   2.173   3.156   4.074 -1.1391 -0.8806 -1.6574
   67CHL1   C17 6088   2.343   3.286   4.040  0.9306  0.5171 -0.2187
   67CHL1   H17 6089   2.386   3.189   4.006  1.3136  0.1220  1.3117
   67CHL1   C13 6090   2.351   3.374   3.914  0.2974  0.6071  0.1971
   67CHL1   C18 6091   2.323   3.515   3.952  0.2048  0.0138  0.1410
   67CHL1  H18A 6092   2.418   3.549   3.998 -0.3542  0.6787  0.8442
   67CHL1  H18B 6093   2.300   3.584   3.868  1.1007 -2.4297 -2.2593
   67CHL1  H18C 6094   2.254   3.526   4.039  1.8184 -0.3591  1.5191
   67CHL1   C12 6095   2.465   3.351   3.817 -0.2036 -0.1303  0.1981
   67CHL1  H12A 6096   2.545   3.414   3.863 -0.9741  0.6274  0.5191
   67CHL1  H12B 6097   2.495   3.244   3.811  4.1255  0.9435 -1.2531
   67CHL1   C11 6098   2.446   3.404   3.677  0.1587 -0.2060  0.8503
   67CHL1  H11A 6099   2.421   3.511   3.692 -0.3644  0.1631 -1.9879
   67CHL1  H11B 6100   2.539   3.396   3.617  1.1485 -1.1854  2.4356
   67CHL1    C9 6101   2.324   3.344   3.609 -0.3869  0.1518  0.3481
   67CHL1    H9 6102   2.332   3.233   3.611 -2.4747 -0.0358 -0.0114
   67CHL1   C10 6103   2.301   3.382   3.458  0.0260 -0.1840  0.1253
   67CHL1   C19 6104   2.352   3.531   3.426  0.0225  0.3384  0.6069
   67CHL1  H19A 6105   2.460   3.541   3.448  0.3065  0.3400 -0.7430
   67CHL1  H19B 6106   2.339   3.565   3.321  1.4295 -0.3329  0.2046
   67CHL1  H19C 6107   2.304   3.600   3.499 -1.0753  0.5730 -0.3071
   67CHL1    C1 6108   2.389   3.289   3.367 -0.2052 -0.6326  0.4083
   67CHL1   H1A 6109   2.495   3.314   3.386  0.2329 -0.9366 -1.4637
   67CHL1   H1B 6110   2.390   3.181   3.394  2.9472 -1.3805 -2.1193
   67CHL1    C2 6111   2.369   3.308   3.220 -0.6463 -0.2060 -0.1276
   67CHL1   H2A 6112   2.433   3.234   3.166 -2.1823 -0.6248 -1.4656
   67CHL1   H2B 6113   2.408   3.409   3.194  0.4545 -1.0611 -2.0614
   67CHL1   C20 6114   2.411   3.323   4.168 -0.1078 -0.9743  0.2337
   67CHL1   H20 6115   2.368   3.418   4.207 -0.4116 -0.7316 -0.6690
   67CHL1   C21 6116   2.556   3.348   4.150  0.4171 -0.0578 -0.9661
   67CHL1  H21A 6117   2.603   3.381   4.245  0.1027 -0.0569 -0.8140
   67CHL1  H21B 6118   2.566   3.421   4.066 -2.6197  0.8855 -0.6049
   67CHL1  H21C 6119   2.610   3.256   4.118  0.8913 -0.4318  0.8119
   67CHL1   C22 6120   2.387   3.216   4.273  0.0497 -0.4783 -0.4498
   67CHL1  H22A 6121   2.283   3.178   4.280  0.5521 -1.6715  1.1658
   67CHL1  H22B 6122   2.451   3.125   4.262 -0.0438 -0.7858  1.3081
   67CHL1   C23 6123   2.422   3.262   4.421 -0.4157  0.3859 -0.1229
   67CHL1  H23A 6124   2.522   3.310   4.423  0.2486 -0.9501 -0.5332
   67CHL1  H23B 6125   2.348   3.337   4.457  3.3088  4.2879  0.3482
   67CHL1   C24 6126   2.430   3.140   4.506 -0.3326 -0.5163  0.5054
   67CHL1  H24A 6127   2.330   3.092   4.513  0.4113 -2.1421  0.4847
   67CHL1  H24B 6128   2.496   3.070   4.451 -0.5250  0.3400 -0.8573
   67CHL1   C25 6129   2.468   3.177   4.651 -0.3668 -0.1562 -0.5403
   67CHL1   H25 6130   2.411   3.268   4.680 -0.9918 -1.0484  1.1734
   67CHL1   C26 6131   2.438   3.072   4.754 -0.0569 -0.5894 -0.2413
   67CHL1  H26A 6132   2.331   3.045   4.743 -1.5674  3.4386  2.3277
   67CHL1  H26B 6133   2.494   2.979   4.732 -1.9533 -1.2390 -2.7598
   67CHL1  H26C 6134   2.463   3.105   4.857  2.5185 -3.8848  0.3350
   67CHL1   C27 6135   2.609   3.228   4.677 -0.7127  0.9260 -0.3408
   67CHL1  H27A 6136   2.685   3.148   4.688 -1.7865  0.0530  1.1566
   67CHL1  H27B 6137   2.647   3.297   4.598  2.4490  0.2583  0.4503
   67CHL1  H27C 6138   2.601   3.288   4.771 -0.9369 -0.3271  0.4528
   68CHL1    C3 6139   5.313   5.143   3.081  0.5133  0.2155 -0.6667
   68CHL1    H3 6140   5.305   5.254   3.079 -1.9127  0.1958  1.7887
   68CHL1    O3 6141   5.327   5.080   2.955 -0.3947 -0.4579 -0.3626
   68CHL1   H3' 6142   5.411   5.113   2.923 -1.3983  1.2470 -1.4028
   68CHL1    C4 6143   5.426   5.104   3.178 -0.5763 -0.2130 -0.0535
   68CHL1   H4A 6144   5.432   4.993   3.173  0.4192 -0.2627  1.5855
   68CHL1   H4B 6145   5.524   5.138   3.140  0.6662 -1.1174  2.1288
   68CHL1    C5 6146   5.407   5.152   3.322  1.3252 -0.5026 -0.0753
   68CHL1    C6 6147   5.501   5.230   3.388  0.3965  0.3842  0.3189
   68CHL1    H6 6148   5.585   5.268   3.329  1.3592 -1.3051  0.5365
   68CHL1    C7 6149   5.493   5.267   3.533 -0.4375  0.4003 -1.0042
   68CHL1   H7A 6150   5.588   5.248   3.587  0.6681 -0.8468 -3.2579
   68CHL1   H7B 6151   5.479   5.377   3.542  1.8141  0.7367 -1.1245
   68CHL1    C8 6152   5.371   5.195   3.610  0.1091  0.1017  0.2521
   68CHL1    H8 6153   5.399   5.089   3.631 -0.5518 -1.0582 -3.9130
   68CHL1   C14 6154   5.328   5.267   3.733  0.5049 -0.5002 -0.3704
   68CHL1   H14 6155   5.286   5.363   3.695 -0.3000 -0.5622  0.3408
   68CHL1   C15 6156   5.447   5.304   3.821  0.0229  0.0361 -0.6246
   68CHL1  H15A 6157   5.508   5.212   3.836  0.7929  0.4706 -1.0314
   68CHL1  H15B 6158   5.502   5.392   3.781  0.2089  1.2844  2.1436
   68CHL1   C16 6159   5.366   5.336   3.955 -0.6655 -0.2937 -0.4332
   68CHL1  H16A 6160   5.416   5.276   4.034 -0.8603 -0.2869 -0.3036
   68CHL1  H16B 6161   5.386   5.443   3.978  2.9706 -1.1265  0.8385
   68CHL1   C17 6162   5.217   5.297   3.937  0.7420 -0.1583 -0.0498
   68CHL1   H17 6163   5.171   5.384   3.885  0.2535 -1.9396 -2.8076
   68CHL1   C13 6164   5.222   5.195   3.818  0.3501 -0.0025 -0.6824
   68CHL1   C18 6165   5.269   5.059   3.883  0.4929 -0.1237 -0.4678
   68CHL1  H18A 6166   5.299   4.988   3.802  1.8377 -2.2116  1.7192
   68CHL1  H18B 6167   5.350   5.071   3.958  1.3597 -0.7925 -1.2565
   68CHL1  H18C 6168   5.183   5.014   3.937 -0.1411  2.3840  0.7438
   68CHL1   C12 6169   5.098   5.180   3.722  0.4434 -0.0393  0.4914
   68CHL1  H12A 6170   5.016   5.121   3.767  0.0475 -0.0630 -0.2412
   68CHL1  H12B 6171   5.058   5.283   3.714  2.1277  0.5749 -0.8486
   68CHL1   C11 6172   5.128   5.116   3.593  0.0030  0.4514 -0.4263
   68CHL1  H11A 6173   5.146   5.008   3.611 -0.0686  0.1920 -1.7870
   68CHL1  H11B 6174   5.037   5.121   3.529 -0.1809 -0.8868 -0.2957
   68CHL1    C9 6175   5.248   5.181   3.515 -0.3949 -0.4642  0.8043
   68CHL1    H9 6176   5.219   5.285   3.490 -1.8218 -1.1167 -0.3746
   68CHL1   C10 6177   5.275   5.109   3.379  0.2185  0.4272 -0.2493
   68CHL1   C19 6178   5.298   4.963   3.402 -0.1708 -0.6684 -0.0351
   68CHL1  H19A 6179   5.374   4.934   3.478 -0.2965  0.0913  0.3875
   68CHL1  H19B 6180   5.203   4.916   3.437 -0.7775 -0.1103 -0.9043
   68CHL1  H19C 6181   5.338   4.910   3.313  0.4710  0.0185 -0.1609
   68CHL1    C1 6182   5.154   5.140   3.284 -0.3263 -0.5292 -0.4355
   68CHL1   H1A 6183   5.056   5.110   3.327 -1.9232  2.3852 -1.6964
   68CHL1   H1B 6184   5.137   5.250   3.285  0.3836 -0.3339  2.8982
   68CHL1    C2 6185   5.180   5.092   3.140  0.2734  0.2961  0.3310
   68CHL1   H2A 6186   5.095   5.129   3.079 -0.2702  0.4214  1.1485
   68CHL1   H2B 6187   5.183   4.981   3.132 -1.4357  0.0666  2.1693
   68CHL1   C20 6188   5.130   5.266   4.066 -0.1907  0.6231  0.4819
   68CHL1   H20 6189   5.168   5.175   4.116  0.5817  0.4118 -0.4482
   68CHL1   C21 6190   4.977   5.244   4.027  0.7065 -0.1640  0.9665
   68CHL1  H21A 6191   4.960   5.151   3.969  0.6964  0.0480  0.6325
   68CHL1  H21B 6192   4.928   5.328   3.974 -0.8163 -1.4161  0.3257
   68CHL1  H21C 6193   4.914   5.234   4.119 -1.6193  2.9240 -0.1468
   68CHL1   C22 6194   5.155   5.386   4.171 -0.2118  0.5383 -0.0063
   68CHL1  H22A 6195   5.263   5.409   4.184 -0.6263  2.7363  0.0168
   68CHL1  H22B 6196   5.113   5.475   4.120  0.0041  1.0218  0.6502
   68CHL1   C23 6197   5.088   5.371   4.305 -0.0871  0.3085  0.3075
   68CHL1  H23A 6198   5.125   5.461   4.358  0.2418  1.1280 -1.2454
   68CHL1  H23B 6199   4.977   5.371   4.300 -0.1023 -1.8989 -2.2433
   68CHL1   C24 6200   5.136   5.251   4.378 -0.3126 -0.5921  0.4717
   68CHL1  H24A 6201   5.080   5.167   4.333  0.4289 -0.0293 -1.5962
   68CHL1  H24B 6202   5.246   5.242   4.367  0.1527  3.1375  0.9280
   68CHL1   C25 6203   5.112   5.253   4.536  0.7946 -0.4347 -0.2641
   68CHL1   H25 6204   5.001   5.246   4.538  0.7816 -0.7557 -1.4181
   68CHL1   C26 6205   5.158   5.117   4.603  0.1593  0.2869 -0.7237
   68CHL1  H26A 6206   5.158   5.122   4.714 -0.8684 -1.5957 -0.6055
   68CHL1  H26B 6207   5.098   5.030   4.571 -0.0621 -0.1032  0.6725
   68CHL1  H26C 6208   5.264   5.092   4.581  0.2559  0.3817 -0.3837
   68CHL1   C27 6209   5.178   5.367   4.606 -0.5565  0.0236 -0.1415
   68CHL1  H27A 6210   5.288   5.355   4.595 -0.3299 -1.4371  2.8214
   68CHL1  H27B 6211   5.153   5.462   4.554 -1.5111  0.4819  1.1193
   68CHL1  H27C 6212   5.145   5.383   4.710  2.1078 -0.1222  0.8176
   69CHL1    C3 6213   2.124   5.876   3.242 -0.2976 -0.1644  0.5114
   69CHL1    H3 6214   2.024   5.849   3.281 -1.5498  0.8524 -1.8336
   69CHL1    O3 6215   2.104   5.876   3.098  0.0319  0.4966 -0.1679
   69CHL1   H3' 6216   2.189   5.867   3.054  0.3417  0.9869  0.3203
   69CHL1    C4 6217   2.166   6.014   3.295  0.3168 -0.5658 -0.4980
   69CHL1   H4A 6218   2.262   6.030   3.241  0.9689  1.2313  1.1018
   69CHL1   H4B 6219   2.112   6.103   3.257 -0.4556 -0.8779 -0.1648
   69CHL1    C5 6220   2.191   6.027   3.445 -0.1007 -0.1651 -0.2849
   69CHL1    C6 6221   2.134   6.126   3.521 -0.2051  0.4403  0.7757
   69CHL1    H6 6222   2.078   6.198   3.460 -0.6808 -0.9108 -0.4345
   69CHL1    C7 6223   2.146   6.142   3.668  0.0987 -1.1535  0.3621
   69CHL1   H7A 6224   2.168   6.249   3.688  0.7863 -1.4428  1.2278
   69CHL1   H7B 6225   2.056   6.108   3.724 -0.5830  1.4957  1.0059
   69CHL1    C8 6226   2.264   6.056   3.728 -0.3820 -0.1033  0.1537
   69CHL1    H8 6227   2.359   6.095   3.686 -0.2002 -3.0539 -2.5258
   69CHL1   C14 6228   2.262   6.053   3.879 -0.2067 -0.1901  0.0690
   69CHL1   H14 6229   2.162   6.024   3.916 -0.0599  0.0751  0.6805
   69CHL1   C15 6230   2.278   6.194   3.954  0.1966 -0.3771  0.1243
   69CHL1  H15A 6231   2.350   6.251   3.892  0.0888 -2.0842 -1.6863
   69CHL1  H15B 6232   2.176   6.238   3.952  0.8698  1.2979  1.1418
   69CHL1   C16 6233   2.336   6.147   4.090  0.4357 -0.8479  0.0166
   69CHL1  H16A 6234   2.433   6.199   4.105  0.5015  0.3710 -3.7498
   69CHL1  H16B 6235   2.263   6.163   4.172 -0.1822 -0.4835 -0.6004
   69CHL1   C17 6236   2.355   5.991   4.085  0.1089 -0.3069  1.2059
   69CHL1   H17 6237   2.257   5.944   4.106 -0.4634 -0.0346 -0.6812
   69CHL1   C13 6238   2.369   5.960   3.939 -0.6370 -0.6368 -0.1180
   69CHL1   C18 6239   2.514   6.005   3.900  0.1499  0.1090 -0.5696
   69CHL1  H18A 6240   2.543   6.096   3.957  3.0190 -1.8243  1.3330
   69CHL1  H18B 6241   2.587   5.936   3.948 -0.2534  1.0692  1.5718
   69CHL1  H18C 6242   2.536   6.018   3.792 -0.4746  0.3567 -0.6754
   69CHL1   C12 6243   2.341   5.820   3.885 -0.6298  0.0656 -0.1109
   69CHL1  H12A 6244   2.415   5.749   3.927 -1.0793  0.3823  1.2641
   69CHL1  H12B 6245   2.240   5.781   3.908 -0.6394 -0.1951 -0.6044
   69CHL1   C11 6246   2.361   5.820   3.734  0.2966 -0.7867  0.1723
   69CHL1  H11A 6247   2.466   5.833   3.700  0.5780 -2.7726  0.1360
   69CHL1  H11B 6248   2.328   5.717   3.707 -0.5430 -0.5545  0.2947
   69CHL1    C9 6249   2.262   5.915   3.663  0.6505  0.9143  0.7855
   69CHL1    H9 6250   2.160   5.880   3.688 -0.2440  0.9316 -2.3860
   69CHL1   C10 6251   2.275   5.913   3.506  0.0184  0.3949 -0.2175
   69CHL1   C19 6252   2.425   5.940   3.467 -0.2359 -0.6327 -0.4309
   69CHL1  H19A 6253   2.452   6.047   3.480  0.4216 -1.1400  3.8084
   69CHL1  H19B 6254   2.504   5.878   3.515  0.7751  0.7521 -0.2514
   69CHL1  H19C 6255   2.441   5.921   3.359  2.3977 -0.1741 -0.2049
   69CHL1    C1 6256   2.234   5.780   3.451  0.2644  1.0119 -0.5502
   69CHL1   H1A 6257   2.289   5.692   3.490 -1.7099  0.4017  0.9919
   69CHL1   H1B 6258   2.127   5.764   3.477  0.9341 -1.6176  0.9701
   69CHL1    C2 6259   2.226   5.769   3.296  0.4152  0.0760  0.3459
   69CHL1   H2A 6260   2.183   5.670   3.271  0.0282  0.2810  0.1850
   69CHL1   H2B 6261   2.329   5.787   3.258  0.5720  3.0925  1.9193
   69CHL1   C20 6262   2.458   5.931   4.185  0.5798 -0.4251  0.1975
   69CHL1   H20 6263   2.562   5.946   4.147  0.1463  1.3590 -0.3957
   69CHL1   C21 6264   2.453   5.778   4.193 -0.2217  0.9140  0.4598
   69CHL1  H21A 6265   2.500   5.758   4.292  0.8388  0.5030 -0.1034
   69CHL1  H21B 6266   2.498   5.722   4.108 -2.4736 -0.1269 -0.1033
   69CHL1  H21C 6267   2.346   5.749   4.191  0.1271 -0.5716  1.7449
   69CHL1   C22 6268   2.445   5.994   4.327 -0.4285 -0.6022  0.1029
   69CHL1  H22A 6269   2.527   5.952   4.389  0.1646  0.0268 -0.2499
   69CHL1  H22B 6270   2.474   6.101   4.317  1.5174 -1.2046 -1.5007
   69CHL1   C23 6271   2.310   5.974   4.391 -0.0607 -0.3955  0.1717
   69CHL1  H23A 6272   2.233   6.008   4.318  2.3453  2.5767 -1.2191
   69CHL1  H23B 6273   2.304   5.866   4.418 -0.1721 -0.3542  0.3104
   69CHL1   C24 6274   2.292   6.039   4.531  0.0441  0.0173  1.0082
   69CHL1  H24A 6275   2.204   5.986   4.573 -1.6840  0.0630 -2.1660
   69CHL1  H24B 6276   2.378   6.024   4.599  0.6607 -1.1612  0.0114
   69CHL1   C25 6277   2.265   6.191   4.524 -0.8043 -0.0515 -0.8045
   69CHL1   H25 6278   2.351   6.232   4.467  0.2269 -1.1568 -0.0901
   69CHL1   C26 6279   2.135   6.227   4.444 -0.0168  0.5093  0.4145
   69CHL1  H26A 6280   2.050   6.170   4.487 -0.3244 -0.5944 -1.5227
   69CHL1  H26B 6281   2.104   6.333   4.457 -0.9601  0.4085 -0.8041
   69CHL1  H26C 6282   2.137   6.205   4.335  0.5523  0.3867  0.4469
   69CHL1   C27 6283   2.272   6.262   4.661 -0.3654 -0.2830 -0.3289
   69CHL1  H27A 6284   2.362   6.218   4.709 -0.2641 -1.4101 -1.4965
   69CHL1  H27B 6285   2.267   6.373   4.663 -2.0519 -0.3436  0.6872
   69CHL1  H27C 6286   2.192   6.220   4.724  0.8807  0.3068  1.7532
   70CHL1    C3 6287   4.866   0.241   3.872 -0.3331  0.2169 -0.3738
   70CHL1    H3 6288   4.792   0.320   3.895 -0.7706 -0.6623  1.4027
   70CHL1    O3 6289   4.894   0.247   3.729 -0.1227  0.2361 -0.2165
   70CHL1   H3' 6290   4.936   0.162   3.710  2.7804  1.0752  1.7624
   70CHL1    C4 6291   4.996   0.263   3.948  0.4030  0.1484  0.5830
   70CHL1   H4A 6292   5.077   0.195   3.914  1.2802 -0.2071  3.1137
   70CHL1   H4B 6293   5.033   0.365   3.925  0.4940  0.3688  1.6560
   70CHL1    C5 6294   4.985   0.253   4.099 -0.1194 -0.0091 -0.3259
   70CHL1    C6 6295   5.017   0.355   4.178 -0.4787 -0.1617 -0.3872
   70CHL1    H6 6296   5.058   0.450   4.140 -1.9607  1.7923  2.5226
   70CHL1    C7 6297   4.992   0.357   4.330 -0.6132  0.3333  0.1241
   70CHL1   H7A 6298   5.071   0.413   4.383 -0.7391  1.3668 -0.7240
   70CHL1   H7B 6299   4.898   0.415   4.345 -1.4033 -0.9771  0.3732
   70CHL1    C8 6300   4.978   0.210   4.387  0.0027 -0.5297  0.1645
   70CHL1    H8 6301   5.079   0.165   4.376 -0.7635 -1.7915 -2.6859
   70CHL1   C14 6302   4.928   0.207   4.532  0.1843 -0.3644 -0.2952
   70CHL1   H14 6303   4.822   0.240   4.526 -0.1629 -1.0297  1.5397
   70CHL1   C15 6304   4.998   0.314   4.627 -0.5377 -0.0998 -0.5695
   70CHL1  H15A 6305   5.107   0.305   4.611 -0.8660 -0.0720 -3.4122
   70CHL1  H15B 6306   4.973   0.419   4.603  1.6985  0.4778 -0.5359
   70CHL1   C16 6307   4.953   0.261   4.762 -0.3720  0.3434 -0.6594
   70CHL1  H16A 6308   5.040   0.234   4.826 -0.4876 -0.0456 -0.6617
   70CHL1  H16B 6309   4.889   0.338   4.811 -0.6747  0.1364 -0.7265
   70CHL1   C17 6310   4.875   0.125   4.743 -0.2327 -0.3988 -0.0714
   70CHL1   H17 6311   4.769   0.155   4.730 -0.3575 -0.4978  0.6690
   70CHL1   C13 6312   4.921   0.073   4.608  1.0176  0.1230  0.7084
   70CHL1   C18 6313   5.058  -0.004   4.613 -0.8356 -0.1206 -0.1090
   70CHL1  H18A 6314   5.136   0.065   4.652 -1.1959  0.0144  0.3922
   70CHL1  H18B 6315   5.050  -0.091   4.682  0.8226  0.1036  0.4100
   70CHL1  H18C 6316   5.081  -0.043   4.512 -1.2634 -0.8220  0.0543
   70CHL1   C12 6317   4.813   0.006   4.527 -0.2603 -0.1024 -0.0548
   70CHL1  H12A 6318   4.791  -0.096   4.566  0.5093 -0.0089  0.6484
   70CHL1  H12B 6319   4.723   0.071   4.530  0.4998  0.9906 -0.2131
   70CHL1   C11 6320   4.843  -0.009   4.371  0.4677 -0.3620  0.0841
   70CHL1  H11A 6321   4.931  -0.076   4.370  0.1886 -0.7276 -0.7091
   70CHL1  H11B 6322   4.771  -0.068   4.310 -0.1251 -0.0018  0.4243
   70CHL1    C9 6323   4.886   0.127   4.300 -0.3124  0.3188 -0.9931
   70CHL1    H9 6324   4.788   0.180   4.302  0.7069  2.3008  1.5796
   70CHL1   C10 6325   4.923   0.118   4.150  0.0504  0.3257 -0.5963
   70CHL1   C19 6326   5.037   0.021   4.134 -1.2149  0.1078  0.2628
   70CHL1  H19A 6327   5.018  -0.081   4.176  1.9370 -0.4617  0.5469
   70CHL1  H19B 6328   5.065   0.008   4.028 -0.7694  1.0341  0.2575
   70CHL1  H19C 6329   5.128   0.061   4.184 -1.6794  1.2339  0.2237
   70CHL1    C1 6330   4.807   0.073   4.061  0.4965 -0.2516  1.3320
   70CHL1   H1A 6331   4.791  -0.036   4.076  0.0068 -0.0642  2.2582
   70CHL1   H1B 6332   4.712   0.121   4.094  0.3153  0.3889 -0.0715
   70CHL1    C2 6333   4.809   0.105   3.903  0.4697  0.7010 -0.1477
   70CHL1   H2A 6334   4.705   0.102   3.862 -0.0343 -0.3635  1.1396
   70CHL1   H2B 6335   4.860   0.016   3.860  2.6805  1.3347  1.0475
   70CHL1   C20 6336   4.884   0.040   4.874  0.0164  0.6653  0.1670
   70CHL1   H20 6337   4.984  -0.007   4.879 -0.1237  0.3829  0.2783
   70CHL1   C21 6338   4.786  -0.083   4.865  0.8083 -0.1141 -0.1426
   70CHL1  H21A 6339   4.801  -0.156   4.948 -1.3463 -0.6353 -0.1413
   70CHL1  H21B 6340   4.808  -0.139   4.772  0.7583  0.6967 -0.6489
   70CHL1  H21C 6341   4.678  -0.059   4.868  0.6497 -0.8415  0.1573
   70CHL1   C22 6342   4.859   0.126   5.004  0.7862  0.2812 -0.0055
   70CHL1  H22A 6343   4.852   0.061   5.094 -0.4525 -1.0505 -1.0111
   70CHL1  H22B 6344   4.946   0.194   5.021  0.3603  1.2534 -1.5200
   70CHL1   C23 6345   4.717   0.186   5.012  0.7321  0.2508  0.7307
   70CHL1  H23A 6346   4.694   0.247   4.922  1.3829 -1.5962 -0.7598
   70CHL1  H23B 6347   4.630   0.118   5.017 -1.0006  2.1027 -1.8209
   70CHL1   C24 6348   4.711   0.285   5.134  0.0100  0.2926 -0.7144
   70CHL1  H24A 6349   4.783   0.366   5.108  0.4379 -0.1464 -0.9104
   70CHL1  H24B 6350   4.612   0.336   5.136  1.0386  2.6542 -3.0199
   70CHL1   C25 6351   4.751   0.238   5.274  0.8700  0.5292 -0.9463
   70CHL1   H25 6352   4.839   0.172   5.261 -1.3890 -2.3571 -3.0514
   70CHL1   C26 6353   4.810   0.354   5.360  0.0132  0.1633  0.7078
   70CHL1  H26A 6354   4.898   0.396   5.309  1.5744 -0.6252  2.6286
   70CHL1  H26B 6355   4.746   0.443   5.374  2.3948  1.6402  2.9322
   70CHL1  H26C 6356   4.836   0.309   5.458 -0.7701 -0.4132  0.6699
   70CHL1   C27 6357   4.630   0.180   5.345 -0.2264 -0.1272  0.0425
   70CHL1  H27A 6358   4.566   0.114   5.283  0.9806 -1.6574  0.3678
   70CHL1  H27B 6359   4.665   0.116   5.429  1.7272  1.8900  0.8824
   70CHL1  H27C 6360   4.567   0.258   5.394 -0.8720 -0.2655 -0.5586
   71CHL1    C3 6361   3.344   5.982   3.273  0.4935 -0.2391  0.3390
   71CHL1    H3 6362   3.237   5.989   3.299  0.0417  1.7435 -1.7449
   71CHL1    O3 6363   3.345   5.954   3.128  0.0087  0.6241  0.5703
   71CHL1   H3' 6364   3.296   6.030   3.096 -0.8105  0.4855  1.4265
   71CHL1    C4 6365   3.414   6.113   3.311  0.2169 -0.4585  0.4202
   71CHL1   H4A 6366   3.520   6.107   3.276 -0.6647 -1.0055 -2.4289
   71CHL1   H4B 6367   3.381   6.192   3.241 -0.6743 -2.0318 -1.0291
   71CHL1    C5 6368   3.402   6.149   3.456  0.2722 -0.2355  0.1705
   71CHL1    C6 6369   3.349   6.268   3.486 -0.0241  0.1590 -0.0406
   71CHL1    H6 6370   3.317   6.326   3.398  1.4108  0.4169 -0.4096
   71CHL1    C7 6371   3.324   6.318   3.630  0.3860  0.1393 -0.0016
   71CHL1   H7A 6372   3.349   6.425   3.645 -0.4528 -0.0258  3.4961
   71CHL1   H7B 6373   3.217   6.304   3.654  0.2574 -0.4484 -0.9115
   71CHL1    C8 6374   3.400   6.230   3.735 -0.4209 -0.0904  0.5404
   71CHL1    H8 6375   3.504   6.266   3.723 -0.6330  0.1934 -0.6116
   71CHL1   C14 6376   3.353   6.258   3.877  0.7345  0.1707 -0.1849
   71CHL1   H14 6377   3.246   6.229   3.884  1.5627 -3.0356  0.5583
   71CHL1   C15 6378   3.353   6.407   3.925  0.5958 -0.0051 -0.1485
   71CHL1  H15A 6379   3.443   6.469   3.903  1.4779 -1.5335 -0.9836
   71CHL1  H15B 6380   3.263   6.448   3.874 -0.1253 -0.5696  0.6573
   71CHL1   C16 6381   3.336   6.394   4.075 -0.8858 -0.5520 -0.6533
   71CHL1  H16A 6382   3.408   6.461   4.126 -2.3689 -0.3907  1.4067
   71CHL1  H16B 6383   3.234   6.424   4.110 -0.3613 -0.6365  1.0342
   71CHL1   C17 6384   3.353   6.242   4.110  0.2639 -0.6022  0.2274
   71CHL1   H17 6385   3.251   6.198   4.111  0.5012 -1.6008 -3.2084
   71CHL1   C13 6386   3.419   6.181   3.980  0.1972  0.3996  0.6460
   71CHL1   C18 6387   3.571   6.207   3.993 -0.4562 -0.4269  0.2796
   71CHL1  H18A 6388   3.626   6.145   4.067  0.7719  3.1347  2.6025
   71CHL1  H18B 6389   3.625   6.206   3.896  1.1065  0.6114  1.0973
   71CHL1  H18C 6390   3.598   6.309   4.026  3.4845 -1.4254  0.6375
   71CHL1   C12 6391   3.394   6.025   3.949 -0.3273  0.0154  0.2428
   71CHL1  H12A 6392   3.438   5.957   4.024 -0.4121 -1.0088 -0.6044
   71CHL1  H12B 6393   3.285   6.005   3.942 -1.1250  3.5734  0.4674
   71CHL1   C11 6394   3.454   5.989   3.808  0.7008  0.2116  0.0914
   71CHL1  H11A 6395   3.564   5.990   3.821  0.8578 -2.0750 -0.6451
   71CHL1  H11B 6396   3.427   5.881   3.796  0.7299  0.2433 -0.2777
   71CHL1    C9 6397   3.396   6.079   3.697 -0.0187 -0.3245  0.1558
   71CHL1    H9 6398   3.289   6.054   3.714 -0.2209  1.2288  1.2845
   71CHL1   C10 6399   3.448   6.047   3.551 -0.0040 -0.1080 -0.2498
   71CHL1   C19 6400   3.596   6.044   3.549 -0.1007 -0.3102  0.1910
   71CHL1  H19A 6401   3.633   6.149   3.550  1.3174 -0.7594 -1.1958
   71CHL1  H19B 6402   3.639   5.982   3.631 -1.0475  0.9641  1.7090
   71CHL1  H19C 6403   3.636   6.002   3.454 -1.7184 -0.3719 -0.4973
   71CHL1    C1 6404   3.384   5.907   3.510  0.2621  0.5158  0.3266
   71CHL1   H1A 6405   3.438   5.831   3.571  0.0555  0.7110  0.7551
   71CHL1   H1B 6406   3.276   5.911   3.538 -0.4895  2.1049 -2.4546
   71CHL1    C2 6407   3.394   5.865   3.364 -0.1438 -0.1646  0.4871
   71CHL1   H2A 6408   3.338   5.774   3.333  1.2022 -0.8617  0.0333
   71CHL1   H2B 6409   3.502   5.849   3.344 -0.1868 -1.5265  1.2230
   71CHL1   C20 6410   3.417   6.225   4.244 -0.2461  0.2174 -0.4156
   71CHL1   H20 6411   3.523   6.258   4.245 -0.2524  0.3127 -1.5924
   71CHL1   C21 6412   3.413   6.070   4.275 -0.0573 -0.0363 -0.0880
   71CHL1  H21A 6413   3.393   6.059   4.384 -0.0234 -1.0396 -0.1740
   71CHL1  H21B 6414   3.506   6.014   4.256 -0.0624 -0.5918  1.4106
   71CHL1  H21C 6415   3.332   6.027   4.212 -1.2065 -0.6780  1.7439
   71CHL1   C22 6416   3.347   6.296   4.361 -0.4934  0.4789  0.0591
   71CHL1  H22A 6417   3.312   6.398   4.335 -2.0830 -0.1785 -0.5310
   71CHL1  H22B 6418   3.257   6.235   4.384  0.5663 -0.3620  2.2646
   71CHL1   C23 6419   3.439   6.310   4.488 -0.0990 -0.0824  0.0849
   71CHL1  H23A 6420   3.482   6.211   4.514  1.2350  0.5036  0.2014
   71CHL1  H23B 6421   3.524   6.379   4.473 -0.4531  1.1380  3.0300
   71CHL1   C24 6422   3.356   6.351   4.602  0.1336 -0.5925 -0.5205
   71CHL1  H24A 6423   3.310   6.449   4.576  0.8563 -0.1867 -0.3092
   71CHL1  H24B 6424   3.270   6.285   4.623 -0.0295 -0.5729 -1.1075
   71CHL1   C25 6425   3.440   6.372   4.726 -0.2378  0.2793  0.5040
   71CHL1   H25 6426   3.458   6.265   4.749 -0.7669 -0.3203 -1.7286
   71CHL1   C26 6427   3.565   6.453   4.709  0.2621 -0.3944  0.7291
   71CHL1  H26A 6428   3.556   6.560   4.680  2.1138 -0.8981 -2.2386
   71CHL1  H26B 6429   3.616   6.460   4.807 -0.6921  2.5407  1.1135
   71CHL1  H26C 6430   3.639   6.408   4.639 -0.5995  2.1888 -2.0558
   71CHL1   C27 6431   3.358   6.430   4.843 -0.3421  0.2631  0.1556
   71CHL1  H27A 6432   3.280   6.357   4.873  1.6437 -2.0583 -0.0258
   71CHL1  H27B 6433   3.418   6.455   4.933 -0.0382  0.1324 -0.0122
   71CHL1  H27C 6434   3.295   6.517   4.813  0.1030  0.0366 -1.5312
   72CHL1    C3 6435   2.668   4.341   3.032  0.9338  0.8779 -0.0964
   72CHL1    H3 6436   2.611   4.250   3.061  0.2489  1.1138 -0.6794
   72CHL1    O3 6437   2.655   4.354   2.888  0.8589  0.1752 -0.6014
   72CHL1   H3' 6438   2.668   4.448   2.871  0.0459  0.7827  1.6524
   72CHL1    C4 6439   2.621   4.463   3.096  0.1592 -0.4568 -0.0759
   72CHL1   H4A 6440   2.688   4.548   3.072  0.0069 -1.1360 -3.2864
   72CHL1   H4B 6441   2.527   4.493   3.044  0.7577 -2.5409 -2.5484
   72CHL1    C5 6442   2.601   4.445   3.248 -0.1373  1.5136 -0.5187
   72CHL1    C6 6443   2.482   4.433   3.311 -0.4647  0.1526 -0.1584
   72CHL1    H6 6444   2.391   4.449   3.251 -1.3805 -1.5169  0.7039
   72CHL1    C7 6445   2.472   4.400   3.456  0.1079  0.2350  0.0362
   72CHL1   H7A 6446   2.390   4.463   3.496 -0.1999  1.5207 -2.4224
   72CHL1   H7B 6447   2.444   4.295   3.476 -2.0801  0.8162  0.2912
   72CHL1    C8 6448   2.603   4.416   3.537  0.0049 -0.5255 -0.9693
   72CHL1    H8 6449   2.617   4.526   3.550  1.6093 -0.5360 -2.2182
   72CHL1   C14 6450   2.599   4.346   3.661  0.5510 -0.1181 -0.5025
   72CHL1   H14 6451   2.590   4.239   3.631  0.6230 -0.1420 -0.4378
   72CHL1   C15 6452   2.476   4.373   3.746 -0.9479 -0.7132  0.7452
   72CHL1  H15A 6453   2.468   4.483   3.759 -1.1969 -0.5804 -0.4049
   72CHL1  H15B 6454   2.377   4.357   3.699  0.0038  0.4885 -1.8776
   72CHL1   C16 6455   2.508   4.305   3.879  0.0657  0.4340 -0.4895
   72CHL1  H16A 6456   2.493   4.375   3.965 -0.7144 -0.6879  0.3079
   72CHL1  H16B 6457   2.444   4.215   3.893  0.2355  0.5246  1.1256
   72CHL1   C17 6458   2.661   4.263   3.874 -0.7837  0.3449 -0.1344
   72CHL1   H17 6459   2.650   4.156   3.847 -2.5647  0.6064 -0.5778
   72CHL1   C13 6460   2.722   4.341   3.752  0.4454  0.5201 -0.0501
   72CHL1   C18 6461   2.757   4.491   3.784 -0.0977 -0.1003  0.5793
   72CHL1  H18A 6462   2.853   4.500   3.840  1.3364  1.3020 -1.9336
   72CHL1  H18B 6463   2.747   4.557   3.696  0.1394  0.9545  1.3190
   72CHL1  H18C 6464   2.680   4.544   3.845 -0.8269  1.0391 -1.2377
   72CHL1   C12 6465   2.837   4.280   3.670 -0.1815 -0.4609  0.1254
   72CHL1  H12A 6466   2.936   4.273   3.721  0.7634  0.0441 -1.5647
   72CHL1  H12B 6467   2.799   4.177   3.657 -3.0258  0.2286  2.0656
   72CHL1   C11 6468   2.855   4.348   3.535  0.7062 -0.5751 -0.4781
   72CHL1  H11A 6469   2.894   4.450   3.551  1.6885 -0.7278 -1.7269
   72CHL1  H11B 6470   2.927   4.292   3.471  2.2275 -0.5658  1.1776
   72CHL1    C9 6471   2.724   4.357   3.452  0.1075 -0.1998 -0.7259
   72CHL1    H9 6472   2.706   4.248   3.437 -1.4079  0.1529 -1.6492
   72CHL1   C10 6473   2.738   4.418   3.315 -0.2828 -0.0438  0.3028
   72CHL1   C19 6474   2.812   4.561   3.336 -0.1171 -0.8402 -0.9400
   72CHL1  H19A 6475   2.790   4.625   3.248  0.3414 -1.9748 -1.9119
   72CHL1  H19B 6476   2.777   4.616   3.426  2.7019  0.5724 -0.6196
   72CHL1  H19C 6477   2.922   4.546   3.344 -0.1357 -0.3483  0.5263
   72CHL1    C1 6478   2.822   4.314   3.226  0.1626  0.9039  0.9681
   72CHL1   H1A 6479   2.930   4.325   3.251  0.9001  0.0564 -1.5215
   72CHL1   H1B 6480   2.795   4.209   3.249 -0.6749  0.9447  0.2400
   72CHL1    C2 6481   2.814   4.333   3.073  0.4757 -0.3143  0.4011
   72CHL1   H2A 6482   2.867   4.255   3.013 -1.5984 -1.7515  0.3345
   72CHL1   H2B 6483   2.859   4.429   3.038  0.5299 -1.6633 -3.8457
   72CHL1   C20 6484   2.741   4.272   4.007 -0.3302 -0.2221  0.6809
   72CHL1   H20 6485   2.767   4.378   4.029 -4.0193  1.1874 -1.0236
   72CHL1   C21 6486   2.879   4.201   3.990 -0.4116  0.2827 -0.7930
   72CHL1  H21A 6487   2.872   4.096   3.957 -0.0406  0.6542 -2.1220
   72CHL1  H21B 6488   2.932   4.212   4.087 -0.6651  2.2058 -0.8313
   72CHL1  H21C 6489   2.951   4.253   3.922 -2.5230  0.8191 -2.7563
   72CHL1   C22 6490   2.671   4.202   4.129 -0.3430  0.1875  0.3867
   72CHL1  H22A 6491   2.565   4.237   4.129 -0.5547 -0.4450  0.5871
   72CHL1  H22B 6492   2.673   4.093   4.110  2.5152  0.4395 -1.2812
   72CHL1   C23 6493   2.738   4.258   4.259  1.2058 -0.3120 -0.2234
   72CHL1  H23A 6494   2.840   4.215   4.261  0.3852 -2.5032 -1.0247
   72CHL1  H23B 6495   2.751   4.368   4.260  0.2267 -0.1817  0.6155
   72CHL1   C24 6496   2.652   4.228   4.383  0.2527  0.7203 -0.9784
   72CHL1  H24A 6497   2.546   4.256   4.363 -0.1378 -1.5840 -2.4749
   72CHL1  H24B 6498   2.654   4.117   4.389  1.3984  0.7826  4.4214
   72CHL1   C25 6499   2.700   4.293   4.520 -0.6817  0.6503  0.1542
   72CHL1   H25 6500   2.810   4.273   4.523 -0.4991  0.5491 -3.0099
   72CHL1   C26 6501   2.694   4.442   4.506 -0.3711 -0.5816  0.1561
   72CHL1  H26A 6502   2.587   4.468   4.498 -0.7343 -1.4636  1.7148
   72CHL1  H26B 6503   2.716   4.478   4.609 -2.0901 -0.6899  0.5960
   72CHL1  H26C 6504   2.758   4.485   4.427 -0.6822  0.5231  0.4945
   72CHL1   C27 6505   2.621   4.242   4.637  0.0383  0.1972  0.0609
   72CHL1  H27A 6506   2.667   4.271   4.733  0.2145 -2.6871  0.9256
   72CHL1  H27B 6507   2.528   4.297   4.609  0.3092 -0.6530 -2.8631
   72CHL1  H27C 6508   2.605   4.133   4.631 -0.1701  0.2841 -1.6450
   73CHL1    C3 6509   4.627   5.904   3.452  0.2956  0.1664  0.5505
   73CHL1    H3 6510   4.659   5.812   3.505 -1.2293 -0.4356  0.4641
   73CHL1    O3 6511   4.591   5.869   3.321 -0.3787  0.1497 -0.2355
   73CHL1   H3' 6512   4.552   5.948   3.283 -0.1674  0.5771  0.4208
   73CHL1    C4 6513   4.509   5.955   3.530  0.1592  0.2021 -0.5729
   73CHL1   H4A 6514   4.465   6.044   3.479 -0.2706  0.4756  0.2669
   73CHL1   H4B 6515   4.430   5.878   3.539  0.8529 -0.3727  0.9588
   73CHL1    C5 6516   4.548   6.019   3.661 -0.5393 -0.6513 -0.3198
   73CHL1    C6 6517   4.477   5.986   3.774  0.1918 -0.1541  0.3077
   73CHL1    H6 6518   4.396   5.912   3.761  0.1855  0.1519 -1.7334
   73CHL1    C7 6519   4.504   6.044   3.908 -0.6863 -0.0923  0.0906
   73CHL1   H7A 6520   4.404   6.080   3.944 -0.5550  1.3686 -0.9272
   73CHL1   H7B 6521   4.537   5.966   3.980 -0.9488  0.0539  0.3728
   73CHL1    C8 6522   4.598   6.167   3.899 -0.1595 -0.5534  0.8083
   73CHL1    H8 6523   4.549   6.264   3.873  1.4815  0.3309  0.8901
   73CHL1   C14 6524   4.646   6.190   4.040  0.0874 -0.6158  0.0037
   73CHL1   H14 6525   4.694   6.094   4.071  0.8906  0.2869  1.7124
   73CHL1   C15 6526   4.540   6.223   4.153  0.1435  0.5170 -0.1212
   73CHL1  H15A 6527   4.454   6.291   4.135 -0.3222  0.1814  0.7671
   73CHL1  H15B 6528   4.497   6.129   4.193 -2.1815  1.8145  0.6572
   73CHL1   C16 6529   4.629   6.294   4.264 -0.0648  0.0491 -0.3234
   73CHL1  H16A 6530   4.588   6.394   4.287 -1.4039 -0.6557  0.5087
   73CHL1  H16B 6531   4.623   6.230   4.355  1.1190  1.9894  1.1819
   73CHL1   C17 6532   4.770   6.297   4.209 -0.6593 -0.4142 -0.1659
   73CHL1   H17 6533   4.807   6.194   4.225  0.1333 -0.2679 -0.9672
   73CHL1   C13 6534   4.760   6.296   4.052 -0.0939  0.5929 -0.1699
   73CHL1   C18 6535   4.710   6.437   4.012  0.0921 -0.5782  0.2453
   73CHL1  H18A 6536   4.622   6.467   4.072  0.4867  0.4079  0.3477
   73CHL1  H18B 6537   4.795   6.502   4.042  0.5025 -0.2216 -1.5717
   73CHL1  H18C 6538   4.687   6.449   3.904 -2.2245  1.9967  0.8988
   73CHL1   C12 6539   4.883   6.260   3.969  0.3714 -0.3848  0.0644
   73CHL1  H12A 6540   4.965   6.334   3.969 -1.2984  1.5717 -0.8180
   73CHL1  H12B 6541   4.918   6.161   4.006 -0.5259 -0.2576  1.3215
   73CHL1   C11 6542   4.833   6.238   3.819  0.3213  0.2428  0.6317
   73CHL1  H11A 6543   4.812   6.338   3.777 -1.5417 -0.3715 -0.0172
   73CHL1  H11B 6544   4.918   6.200   3.760  0.1360 -0.1189  0.5945
   73CHL1    C9 6545   4.715   6.135   3.812 -0.0516 -0.1362 -1.0021
   73CHL1    H9 6546   4.761   6.045   3.857 -0.1898  0.7176  0.9251
   73CHL1   C10 6547   4.676   6.106   3.667  0.2927 -0.6167  0.0178
   73CHL1   C19 6548   4.653   6.238   3.586 -0.2913 -0.3151 -0.1924
   73CHL1  H19A 6549   4.613   6.216   3.485 -0.9554 -2.3103  0.4527
   73CHL1  H19B 6550   4.571   6.296   3.632  2.6306  4.0488  0.1086
   73CHL1  H19C 6551   4.741   6.305   3.593  2.4608 -3.6883  0.8524
   73CHL1    C1 6552   4.785   6.034   3.595 -0.8716 -0.2588  0.2056
   73CHL1   H1A 6553   4.875   6.099   3.589 -0.2710 -0.9568  1.3152
   73CHL1   H1B 6554   4.821   5.940   3.642  0.4506 -0.6529 -1.4904
   73CHL1    C2 6555   4.754   5.996   3.449 -0.0380  0.0898  0.0217
   73CHL1   H2A 6556   4.841   5.949   3.399 -2.3918 -2.1291 -2.3284
   73CHL1   H2B 6557   4.726   6.080   3.382 -0.4110 -0.0168  0.0411
   73CHL1   C20 6558   4.860   6.401   4.280  0.0314 -0.3077 -0.9049
   73CHL1   H20 6559   4.810   6.498   4.258 -1.4557  0.2454  3.8232
   73CHL1   C21 6560   5.004   6.411   4.243 -0.0770  0.2812 -0.0350
   73CHL1  H21A 6561   5.007   6.466   4.147 -0.3515 -1.1522 -0.9014
   73CHL1  H21B 6562   5.042   6.307   4.232  0.4487  0.3891  0.6804
   73CHL1  H21C 6563   5.065   6.461   4.321  0.8887  0.4812 -0.8941
   73CHL1   C22 6564   4.855   6.389   4.438  0.2476 -0.5277 -0.5990
   73CHL1  H22A 6565   4.927   6.462   4.480 -0.3727  1.1713 -2.3787
   73CHL1  H22B 6566   4.754   6.414   4.476 -0.9431 -0.7380 -3.3629
   73CHL1   C23 6567   4.902   6.250   4.490 -0.1728  0.2578 -0.0786
   73CHL1  H23A 6568   4.834   6.171   4.452  0.0464 -1.1040  2.1279
   73CHL1  H23B 6569   5.004   6.223   4.455 -0.5783  0.5908 -1.5476
   73CHL1   C24 6570   4.901   6.250   4.643  0.3263 -0.4320  0.2531
   73CHL1  H24A 6571   4.799   6.287   4.668  0.9661  1.7716 -0.1239
   73CHL1  H24B 6572   4.916   6.148   4.684  3.2976 -0.9791 -1.8879
   73CHL1   C25 6573   4.992   6.353   4.707 -0.3496 -0.4170  0.2634
   73CHL1   H25 6574   4.967   6.455   4.669  0.7883 -0.0302  0.5291
   73CHL1   C26 6575   4.985   6.352   4.859 -0.3574 -0.0486  0.4265
   73CHL1  H26A 6576   5.062   6.419   4.903  0.2490 -0.0768 -0.5420
   73CHL1  H26B 6577   4.884   6.385   4.892 -1.4278 -0.7630 -1.8897
   73CHL1  H26C 6578   5.013   6.248   4.887  1.2767  0.7504  1.9603
   73CHL1   C27 6579   5.138   6.336   4.662 -0.1395 -0.5140  0.1282
   73CHL1  H27A 6580   5.202   6.409   4.716  2.0220  0.5086 -3.4411
   73CHL1  H27B 6581   5.169   6.234   4.694  1.3031 -0.2664 -0.4380
   73CHL1  H27C 6582   5.139   6.345   4.551 -1.6257 -0.1002  0.1262
   74CHL1    C3 6583   3.299   3.404   2.997 -0.0606  0.4047  0.0030
   74CHL1    H3 6584   3.263   3.304   3.029  0.8732  0.1443  0.2714
   74CHL1    O3 6585   3.274   3.426   2.860 -0.0211 -0.5499  0.4657
   74CHL1   H3' 6586   3.317   3.345   2.829  1.5654 -0.4144  2.0998
   74CHL1    C4 6587   3.219   3.507   3.070  0.1134  0.0101  0.1392
   74CHL1   H4A 6588   3.251   3.608   3.036  1.0314  0.0170  0.9943
   74CHL1   H4B 6589   3.109   3.504   3.054 -0.2187  3.3422  0.9170
   74CHL1    C5 6590   3.236   3.475   3.219  0.7606  0.0970  0.0302
   74CHL1    C6 6591   3.136   3.435   3.298  0.1963 -0.3220  0.3449
   74CHL1    H6 6592   3.035   3.421   3.256  0.4547 -0.1233 -0.3555
   74CHL1    C7 6593   3.139   3.432   3.442 -0.5721  0.3417  0.2483
   74CHL1   H7A 6594   3.050   3.478   3.491  0.3316  1.2064  1.1365
   74CHL1   H7B 6595   3.143   3.328   3.479 -1.7422  0.0314 -0.4398
   74CHL1    C8 6596   3.264   3.514   3.499  0.4931 -0.1080  0.1684
   74CHL1    H8 6597   3.233   3.619   3.483  0.5763  0.0892  1.2465
   74CHL1   C14 6598   3.287   3.478   3.648 -0.2775 -0.0222  0.4215
   74CHL1   H14 6599   3.321   3.373   3.652 -0.6195 -0.1156  0.9929
   74CHL1   C15 6600   3.164   3.492   3.738 -0.0952  0.0203 -1.1956
   74CHL1  H15A 6601   3.128   3.596   3.721 -0.1250  0.0313 -1.0691
   74CHL1  H15B 6602   3.083   3.419   3.716  1.3795 -2.1633  0.3024
   74CHL1   C16 6603   3.223   3.482   3.883  0.6359 -0.0722 -0.4722
   74CHL1  H16A 6604   3.175   3.566   3.937  1.9575 -0.3783  1.2622
   74CHL1  H16B 6605   3.197   3.384   3.929 -0.8349  0.4600 -0.1156
   74CHL1   C17 6606   3.375   3.488   3.869  0.3276 -0.1015  0.6239
   74CHL1   H17 6607   3.411   3.383   3.864 -1.5231 -0.8934  2.4653
   74CHL1   C13 6608   3.403   3.549   3.722  0.0090 -0.2226  0.2145
   74CHL1   C18 6609   3.370   3.699   3.716 -0.5530  0.5210 -0.5967
   74CHL1  H18A 6610   3.277   3.723   3.773  0.1125 -0.1783  0.8428
   74CHL1  H18B 6611   3.454   3.751   3.767 -0.5858 -1.2185  1.3695
   74CHL1  H18C 6612   3.365   3.734   3.611  3.5174  3.3921 -0.0664
   74CHL1   C12 6613   3.531   3.516   3.644 -0.3273  0.5400 -0.7242
   74CHL1  H12A 6614   3.619   3.570   3.684 -0.0618 -0.6960  0.4238
   74CHL1  H12B 6615   3.552   3.407   3.648 -0.1245  0.6014  0.1906
   74CHL1   C11 6616   3.522   3.560   3.495 -0.2259  0.4149 -0.0045
   74CHL1  H11A 6617   3.509   3.670   3.493  0.0815  0.4509 -1.8652
   74CHL1  H11B 6618   3.621   3.546   3.446  1.0659  0.3473  2.4827
   74CHL1    C9 6619   3.398   3.482   3.425 -0.1643 -0.7728 -0.3346
   74CHL1    H9 6620   3.437   3.379   3.440  2.4857 -0.0278 -1.6534
   74CHL1   C10 6621   3.379   3.501   3.275  0.2648 -1.0838  0.2538
   74CHL1   C19 6622   3.420   3.647   3.241 -0.5337  0.4942  0.1528
   74CHL1  H19A 6623   3.398   3.674   3.136 -1.3107  0.5946  0.3319
   74CHL1  H19B 6624   3.356   3.724   3.290 -1.0173  1.2869 -1.6193
   74CHL1  H19C 6625   3.529   3.662   3.257 -0.2488 -0.9192 -0.2792
   74CHL1    C1 6626   3.465   3.402   3.186 -0.3048 -0.2104  0.4961
   74CHL1   H1A 6627   3.571   3.397   3.217  0.0584 -0.7016 -0.7917
   74CHL1   H1B 6628   3.427   3.305   3.224  0.4609 -0.1719  1.3943
   74CHL1    C2 6629   3.446   3.412   3.037 -0.1332  0.0873  0.6864
   74CHL1   H2A 6630   3.491   3.321   2.992 -2.6303 -1.9655  2.0391
   74CHL1   H2B 6631   3.483   3.507   2.991 -0.1444 -0.1987  0.0811
   74CHL1   C20 6632   3.455   3.552   3.986  0.2152  0.2905  0.1308
   74CHL1   H20 6633   3.432   3.661   3.984  2.2800  0.7593 -0.8946
   74CHL1   C21 6634   3.603   3.537   3.971  0.1737  0.0493 -0.4710
   74CHL1  H21A 6635   3.627   3.595   3.880 -0.9609  1.1302 -0.1220
   74CHL1  H21B 6636   3.635   3.432   3.958 -1.5133 -0.2058 -3.3913
   74CHL1  H21C 6637   3.658   3.567   4.063  0.0499  1.1541 -0.7426
   74CHL1   C22 6638   3.398   3.487   4.121  0.8379 -0.1188  0.2380
   74CHL1  H22A 6639   3.288   3.470   4.122  0.9093 -0.6365 -0.1789
   74CHL1  H22B 6640   3.438   3.386   4.144  2.1783  0.3497  0.0396
   74CHL1   C23 6641   3.423   3.568   4.254 -0.1590 -0.0414  0.5616
   74CHL1  H23A 6642   3.530   3.597   4.252 -0.3076  0.5309  0.8260
   74CHL1  H23B 6643   3.361   3.659   4.241 -1.1714 -0.9373 -1.4212
   74CHL1   C24 6644   3.375   3.495   4.390 -0.1486 -0.5083  0.0651
   74CHL1  H24A 6645   3.403   3.564   4.473 -0.8351  3.0750 -2.4327
   74CHL1  H24B 6646   3.267   3.471   4.386  0.6890 -5.0303 -1.2679
   74CHL1   C25 6647   3.434   3.358   4.417 -0.0284 -0.3878 -0.3011
   74CHL1   H25 6648   3.415   3.303   4.323 -2.2053  0.3641 -0.3324
   74CHL1   C26 6649   3.589   3.361   4.437 -0.4083  0.0818  0.3703
   74CHL1  H26A 6650   3.620   3.467   4.430 -2.3965  0.6056 -1.9009
   74CHL1  H26B 6651   3.613   3.324   4.539 -1.0950 -0.4221  0.3551
   74CHL1  H26C 6652   3.632   3.300   4.355 -2.8276 -1.1656 -0.0566
   74CHL1   C27 6653   3.361   3.294   4.535  0.0129  0.0605  0.7586
   74CHL1  H27A 6654   3.370   3.184   4.532 -2.9159 -0.3090  1.6644
   74CHL1  H27B 6655   3.401   3.334   4.630  1.3694 -1.3652  0.8055
   74CHL1  H27C 6656   3.254   3.327   4.534  1.0243  3.8579  1.8467
   75CHL1    C3 6657   5.284   4.477   3.249 -0.1986 -0.1741  0.1884
   75CHL1    H3 6658   5.374   4.420   3.282  1.3362  2.9057  1.7673
   75CHL1    O3 6659   5.286   4.453   3.106 -0.1377  0.3345 -0.1296
   75CHL1   H3' 6660   5.251   4.365   3.093 -2.8770  1.0738  1.4348
   75CHL1    C4 6661   5.152   4.418   3.316  0.2590  0.3927 -0.2587
   75CHL1   H4A 6662   5.088   4.498   3.272  0.2769  0.3698 -0.3263
   75CHL1   H4B 6663   5.128   4.317   3.277 -0.0696  0.2350  0.3291
   75CHL1    C5 6664   5.146   4.427   3.468 -0.5213  0.1827 -0.1165
   75CHL1    C6 6665   5.116   4.323   3.548 -0.8333  0.5197  0.3173
   75CHL1    H6 6666   5.087   4.231   3.494 -2.0835  1.5578 -0.8747
   75CHL1    C7 6667   5.103   4.321   3.695 -0.2620 -0.0073 -0.4622
   75CHL1   H7A 6668   5.015   4.265   3.735 -0.6630  1.2353  0.4904
   75CHL1   H7B 6669   5.184   4.266   3.746 -2.5854 -1.8683  1.4853
   75CHL1    C8 6670   5.101   4.466   3.755 -0.1314 -1.1039  0.5390
   75CHL1    H8 6671   5.002   4.511   3.733  0.1662 -0.3560  0.7231
   75CHL1   C14 6672   5.126   4.470   3.903  1.5212 -0.0681  1.0883
   75CHL1   H14 6673   5.223   4.420   3.924  2.5570  0.6498 -1.5493
   75CHL1   C15 6674   5.035   4.388   3.993 -0.5463  0.1092  0.4420
   75CHL1  H15A 6675   4.928   4.409   3.971 -0.3238  1.8257  0.8069
   75CHL1  H15B 6676   5.044   4.278   3.984 -0.3127  0.0929  0.8417
   75CHL1   C16 6677   5.068   4.436   4.127  0.2776 -0.1540 -0.0708
   75CHL1  H16A 6678   4.972   4.461   4.178  0.7091 -0.7029  1.0416
   75CHL1  H16B 6679   5.124   4.359   4.185 -0.9460  0.1939  1.6894
   75CHL1   C17 6680   5.145   4.572   4.117 -0.2252  0.2568 -0.1268
   75CHL1   H17 6681   5.254   4.561   4.132  0.5536  1.7952 -3.6445
   75CHL1   C13 6682   5.129   4.609   3.967 -0.1125  0.2773 -0.2901
   75CHL1   C18 6683   4.989   4.675   3.948 -0.1175  0.3822  0.1787
   75CHL1  H18A 6684   4.915   4.614   4.004  2.2262 -1.7316  1.1763
   75CHL1  H18B 6685   4.989   4.775   3.995 -1.1363  0.7015 -0.4852
   75CHL1  H18C 6686   4.960   4.688   3.842  0.1554  3.2072  0.3728
   75CHL1   C12 6687   5.239   4.683   3.908 -0.5966 -0.1277 -0.5581
   75CHL1  H12A 6688   5.236   4.784   3.954  0.5451 -0.9484  1.4166
   75CHL1  H12B 6689   5.339   4.647   3.941 -0.6485  0.8423  0.7527
   75CHL1   C11 6690   5.226   4.688   3.757  0.2056 -0.3503 -0.3639
   75CHL1  H11A 6691   5.136   4.749   3.736 -0.1059  0.5068  2.9667
   75CHL1  H11B 6692   5.317   4.740   3.720  0.5499  0.3004  1.3100
   75CHL1    C9 6693   5.209   4.548   3.684 -0.2225 -0.2610  0.3984
   75CHL1    H9 6694   5.300   4.490   3.710 -0.2218 -0.6855 -0.5260
   75CHL1   C10 6695   5.194   4.558   3.528 -0.3700  0.8987  0.1702
   75CHL1   C19 6696   5.074   4.654   3.496 -0.4125 -0.0068  0.2543
   75CHL1  H19A 6697   5.062   4.672   3.387 -1.8062 -2.5185 -0.0780
   75CHL1  H19B 6698   4.982   4.613   3.543 -0.8914 -0.0307 -0.6951
   75CHL1  H19C 6699   5.093   4.759   3.528 -0.4524  0.4387 -1.1310
   75CHL1    C1 6700   5.323   4.613   3.453  0.0082  0.3509 -0.6934
   75CHL1   H1A 6701   5.353   4.713   3.492 -0.7507  2.2104 -4.4511
   75CHL1   H1B 6702   5.408   4.545   3.472  0.6687  1.3594  0.1112
   75CHL1    C2 6703   5.314   4.619   3.299 -0.5350  0.6113 -0.8008
   75CHL1   H2A 6704   5.408   4.656   3.254 -0.5574  1.7699  0.0584
   75CHL1   H2B 6705   5.257   4.706   3.262  0.4070  1.5346 -0.1195
   75CHL1   C20 6706   5.093   4.670   4.229  0.0683  0.3927 -0.1197
   75CHL1   H20 6707   4.982   4.668   4.228 -0.0554 -2.4814  2.5629
   75CHL1   C21 6708   5.155   4.807   4.202  0.4722 -0.3150  0.0383
   75CHL1  H21A 6709   5.113   4.856   4.112 -0.6925 -1.8710 -0.3077
   75CHL1  H21B 6710   5.266   4.819   4.195  0.3831  0.9560  0.4981
   75CHL1  H21C 6711   5.112   4.869   4.284  0.3914 -0.3459  0.0194
   75CHL1   C22 6712   5.128   4.612   4.366  0.2981 -0.4840  0.2031
   75CHL1  H22A 6713   5.107   4.503   4.373  1.6922 -0.8395 -0.7031
   75CHL1  H22B 6714   5.239   4.610   4.372  0.3370 -4.2315  1.2280
   75CHL1   C23 6715   5.068   4.678   4.486 -0.7513  0.4946 -0.5571
   75CHL1  H23A 6716   5.104   4.782   4.498 -1.8983  0.8108  0.3450
   75CHL1  H23B 6717   4.959   4.691   4.468 -1.2218 -1.9798  0.0469
   75CHL1   C24 6718   5.084   4.590   4.620 -0.2855 -0.2481  0.2348
   75CHL1  H24A 6719   5.046   4.486   4.608 -0.6940 -0.5336  3.2201
   75CHL1  H24B 6720   5.189   4.568   4.649 -0.3374 -5.1166 -2.3697
   75CHL1   C25 6721   5.005   4.640   4.740  0.0875  0.2723 -0.4419
   75CHL1   H25 6722   4.898   4.645   4.709 -0.3896 -1.2176  0.8023
   75CHL1   C26 6723   5.010   4.546   4.862 -0.1340  0.0025  0.0195
   75CHL1  H26A 6724   4.965   4.602   4.946 -0.2045 -1.0028  0.6577
   75CHL1  H26B 6725   4.947   4.454   4.853  0.9002 -0.6959 -0.2129
   75CHL1  H26C 6726   5.114   4.513   4.880 -0.3246  0.5776  2.5003
   75CHL1   C27 6727   5.047   4.786   4.769 -0.5334  0.1804  0.3642
   75CHL1  H27A 6728   5.039   4.849   4.678 -0.8332  2.2594  1.7820
   75CHL1  H27B 6729   4.996   4.835   4.854 -1.2444  0.9204 -0.4692
   75CHL1  H27C 6730   5.155   4.784   4.794 -1.0007  0.7199  2.6629
   76CHL1    C3 6731   2.397   6.519   3.375 -0.2174 -0.7733  0.0096
   76CHL1    H3 6732   2.295   6.484   3.399 -1.4861  2.4125 -0.2078
   76CHL1    O3 6733   2.436   6.501   3.240  0.1413 -0.0677 -0.5489
   76CHL1   H3' 6734   2.435   6.590   3.202 -1.7494  0.7649  1.2342
   76CHL1    C4 6735   2.419   6.676   3.416 -0.3736  0.4420 -0.1670
   76CHL1   H4A 6736   2.519   6.707   3.378  1.9807 -3.1981  2.3648
   76CHL1   H4B 6737   2.354   6.747   3.361 -1.5588  1.6543  2.6137
   76CHL1    C5 6738   2.397   6.687   3.570  0.5004  0.3366  0.1289
   76CHL1    C6 6739   2.317   6.787   3.625  0.4583  0.4965  0.0584
   76CHL1    H6 6740   2.255   6.851   3.561 -0.7777  1.1484  1.8437
   76CHL1    C7 6741   2.287   6.809   3.773 -0.2985 -0.1874 -0.8233
   76CHL1   H7A 6742   2.284   6.919   3.786  4.2430  0.1417 -0.9509
   76CHL1   H7B 6743   2.186   6.769   3.798 -0.6319 -0.1188 -2.0045
   76CHL1    C8 6744   2.403   6.743   3.854  0.2394  0.2861 -0.4373
   76CHL1    H8 6745   2.492   6.808   3.835  1.7008 -1.2082  0.9544
   76CHL1   C14 6746   2.368   6.741   4.006 -0.4751 -0.7872  0.2583
   76CHL1   H14 6747   2.281   6.671   4.004 -1.4347  0.3793  0.0345
   76CHL1   C15 6748   2.327   6.877   4.062  0.4035 -0.2289 -0.1921
   76CHL1  H15A 6749   2.393   6.959   4.026 -2.0733  2.2684  0.6666
   76CHL1  H15B 6750   2.220   6.900   4.042  0.6413 -0.3962 -1.8050
   76CHL1   C16 6751   2.345   6.851   4.212  0.2050  0.0682 -0.7774
   76CHL1  H16A 6752   2.416   6.926   4.253  2.6635 -1.3965 -2.1421
   76CHL1  H16B 6753   2.250   6.859   4.269  0.3194 -0.7564 -0.4580
   76CHL1   C17 6754   2.419   6.718   4.229  0.5358  0.3782  0.1081
   76CHL1   H17 6755   2.342   6.639   4.244 -1.6726  1.6328 -3.4127
   76CHL1   C13 6756   2.477   6.687   4.095  0.0418  0.1258 -0.3644
   76CHL1   C18 6757   2.621   6.758   4.077 -0.0364 -0.2593 -0.2504
   76CHL1  H18A 6758   2.693   6.681   4.112 -0.3576 -0.0989  0.8049
   76CHL1  H18B 6759   2.641   6.767   3.968  0.2372 -0.0621 -0.1871
   76CHL1  H18C 6760   2.630   6.853   4.134 -0.3259  0.8175 -1.9362
   76CHL1   C12 6761   2.493   6.539   4.055  0.7863  0.2798 -0.1021
   76CHL1  H12A 6762   2.566   6.490   4.122  0.1204  0.6445  0.9219
   76CHL1  H12B 6763   2.399   6.480   4.062 -0.5444  2.0413 -1.9042
   76CHL1   C11 6764   2.541   6.525   3.905  0.7179 -0.8197 -0.1322
   76CHL1  H11A 6765   2.641   6.575   3.906 -0.3798  1.6819  2.9012
   76CHL1  H11B 6766   2.549   6.422   3.865  2.1896 -0.2117 -1.5211
   76CHL1    C9 6767   2.441   6.599   3.808  0.2129 -0.5382  0.5555
   76CHL1    H9 6768   2.351   6.536   3.822  1.6563 -2.7575  0.2496
   76CHL1   C10 6769   2.480   6.594   3.661 -0.2988 -0.4284 -0.7855
   76CHL1   C19 6770   2.620   6.648   3.645 -0.1546 -0.4572  0.9763
   76CHL1  H19A 6771   2.698   6.595   3.703  2.2571 -0.6669 -2.2095
   76CHL1  H19B 6772   2.656   6.639   3.540 -3.3841 -1.2738 -0.1913
   76CHL1  H19C 6773   2.622   6.753   3.679  1.6343 -0.5085  1.1193
   76CHL1    C1 6774   2.464   6.448   3.612 -0.7053  0.1276  0.0511
   76CHL1   H1A 6775   2.530   6.377   3.667 -1.5396 -0.5786  0.1609
   76CHL1   H1B 6776   2.361   6.416   3.637 -0.6927  0.0803  0.0429
   76CHL1    C2 6777   2.482   6.429   3.465  0.2515  1.2051  0.4901
   76CHL1   H2A 6778   2.472   6.325   3.428 -1.8869  0.7255  2.2285
   76CHL1   H2B 6779   2.587   6.445   3.431  0.0013  1.7104 -0.0587
   76CHL1   C20 6780   2.510   6.709   4.350 -0.3996 -0.5037 -0.1507
   76CHL1   H20 6781   2.604   6.768   4.345 -0.2433 -0.8566 -2.2895
   76CHL1   C21 6782   2.560   6.568   4.370 -0.2528 -0.1675 -0.5370
   76CHL1  H21A 6783   2.619   6.566   4.464  0.9458  2.1706 -1.1574
   76CHL1  H21B 6784   2.637   6.535   4.297 -0.5166 -2.4036  0.1209
   76CHL1  H21C 6785   2.480   6.492   4.358 -0.1300 -0.4374  0.3275
   76CHL1   C22 6786   2.447   6.763   4.486  0.5899  0.0436 -0.4983
   76CHL1  H22A 6787   2.423   6.871   4.482  0.7957  0.0583 -2.4582
   76CHL1  H22B 6788   2.345   6.719   4.495 -0.1991  1.2008 -2.9674
   76CHL1   C23 6789   2.529   6.732   4.615  0.1975 -0.4895 -0.3661
   76CHL1  H23A 6790   2.506   6.625   4.632 -2.5397 -0.0326 -0.7480
   76CHL1  H23B 6791   2.631   6.770   4.594 -0.8473  2.8648  0.1425
   76CHL1   C24 6792   2.483   6.826   4.738 -0.5194 -0.0006  0.1859
   76CHL1  H24A 6793   2.476   6.935   4.716 -0.7203  0.0059  0.2764
   76CHL1  H24B 6794   2.377   6.795   4.746 -1.4687  2.4716 -1.5087
   76CHL1   C25 6795   2.560   6.784   4.870  0.3831 -0.3296 -0.0024
   76CHL1   H25 6796   2.567   6.673   4.877 -2.3359 -0.5330  0.5701
   76CHL1   C26 6797   2.708   6.831   4.861 -0.5783 -1.0952  0.1272
   76CHL1  H26A 6798   2.706   6.942   4.855 -0.5595 -0.9622  1.9231
   76CHL1  H26B 6799   2.776   6.805   4.945  0.0352 -1.3277 -0.4360
   76CHL1  H26C 6800   2.751   6.782   4.771  0.3047 -0.3113  0.1079
   76CHL1   C27 6801   2.500   6.848   4.998 -0.2380  0.4918  0.0918
   76CHL1  H27A 6802   2.479   6.955   4.975 -1.0965  0.3110 -0.0125
   76CHL1  H27B 6803   2.410   6.785   5.017  1.3289 -1.8368  0.1333
   76CHL1  H27C 6804   2.559   6.851   5.092  1.1070  0.9406 -0.7428
   77SOPE     N 6805   3.421   5.022   7.244 -0.0211 -0.8849 -0.2615
   77SOPE   HN1 6806   3.434   4.963   7.328  0.2828 -0.0683  0.2750
   77SOPE   HN2 6807   3.511   5.072   7.226 -0.9739  1.4636  0.9846
   77SOPE   HN3 6808   3.359   5.100   7.275 -0.6448 -2.3501  2.4490
   77SOPE   C12 6809   3.382   4.926   7.129  0.2054 -0.1944 -0.7004
   77SOPE  H12A 6810   3.473   4.863   7.122 -0.3687 -1.6953  3.0539
   77SOPE  H12B 6811   3.346   4.986   7.042 -0.1097  0.1457 -0.3410
   77SOPE   C11 6812   3.269   4.841   7.192  0.1655  0.5795  0.3491
   77SOPE  H11A 6813   3.240   4.775   7.107  0.3805  0.5111  0.3297
   77SOPE  H11B 6814   3.186   4.909   7.224 -0.6328 -0.6251  0.9038
   77SOPE     P 6815   3.318   4.598   7.318  0.2451 -0.0556  0.2407
   77SOPE   O13 6816   3.210   4.550   7.409 -0.8152  0.0945 -0.1304
   77SOPE   O14 6817   3.459   4.563   7.350 -0.5629 -0.5564  0.2729
   77SOPE   O12 6818   3.301   4.758   7.304 -0.2264  0.0222  0.2612
   77SOPE   O11 6819   3.274   4.552   7.170  0.7671 -0.3568 -0.7317
   77SOPE    C1 6820   3.374   4.488   7.093  0.0874 -0.1626  0.1500
   77SOPE    HA 6821   3.366   4.378   7.105 -0.4538 -0.0322  1.0628
   77SOPE    HB 6822   3.478   4.517   7.116  0.3793  1.0751 -2.3381
   77SOPE    C2 6823   3.360   4.526   6.947  1.1165 -0.2351 -0.6737
   77SOPE    HS 6824   3.390   4.632   6.941  0.5995  0.0427  1.0484
   77SOPE   O21 6825   3.217   4.504   6.907 -0.3234  0.5105  0.6155
   77SOPE   C21 6826   3.151   4.608   6.860 -0.3222 -0.6166  0.5312
   77SOPE   O22 6827   3.196   4.719   6.856  0.2204 -0.5909 -0.0217
   77SOPE   C22 6828   3.016   4.568   6.805 -0.3017  0.3692 -0.3164
   77SOPE   H2R 6829   2.942   4.586   6.886 -0.3568 -0.6357 -0.1215
   77SOPE   H2S 6830   3.021   4.461   6.775 -1.9690  0.2232 -0.1951
   77SOPE    C3 6831   3.461   4.442   6.863  0.5663  0.5394  0.0811
   77SOPE    HX 6832   3.436   4.334   6.863 -0.3049  0.7310 -0.1219
   77SOPE    HY 6833   3.569   4.449   6.890  0.7337  1.3713 -0.7474
   77SOPE   O31 6834   3.453   4.496   6.727  0.3267  0.2073 -0.3900
   77SOPE   C31 6835   3.546   4.590   6.700  0.6882 -0.0697  0.0557
   77SOPE   O32 6836   3.648   4.608   6.761  0.3502  0.4412 -0.3737
   77SOPE   C32 6837   3.498   4.653   6.571 -0.2725 -0.0601  0.1882
   77SOPE   H2X 6838   3.389   4.671   6.576 -0.4833 -1.2518  0.2529
   77SOPE   H2Y 6839   3.515   4.587   6.484 -1.4416 -0.4927  0.2709
   77SOPE   C23 6840   2.966   4.656   6.689 -0.3265  0.3080 -0.2002
   77SOPE   H3R 6841   2.979   4.760   6.724  1.8752  0.1528 -0.4209
   77SOPE   H3S 6842   2.859   4.631   6.674 -0.0146 -1.4286  0.1321
   77SOPE   C24 6843   3.024   4.623   6.555  0.1325 -0.5017 -0.7017
   77SOPE   H4R 6844   3.131   4.650   6.560  0.3370 -1.2894 -0.7552
   77SOPE   H4S 6845   3.021   4.514   6.534  0.2667 -0.8485  0.9360
   77SOPE   C25 6846   2.961   4.708   6.438  0.3365  0.2291 -0.2518
   77SOPE   H5R 6847   2.850   4.698   6.435  0.2360  1.3689 -0.9332
   77SOPE   H5S 6848   2.973   4.818   6.449  0.2392  0.2717 -0.5555
   77SOPE   C26 6849   3.016   4.660   6.303 -0.0758 -0.4649  0.1488
   77SOPE   H6R 6850   3.021   4.550   6.311 -0.3843 -0.4126  1.2889
   77SOPE   H6S 6851   2.948   4.687   6.220  1.2176  1.2114 -0.4149
   77SOPE   C27 6852   3.138   4.733   6.257 -0.5430  0.4750 -0.0116
   77SOPE   H7R 6853   3.110   4.812   6.184  0.2871 -0.7233 -1.6877
   77SOPE   H7S 6854   3.191   4.780   6.343 -1.2416 -0.6265  1.0662
   77SOPE   C28 6855   3.239   4.630   6.200 -0.3291 -0.3649 -0.1824
   77SOPE   H8R 6856   3.315   4.698   6.156 -0.5568 -1.3942 -2.2886
   77SOPE   H8S 6857   3.278   4.571   6.286  0.5421  1.1090  0.4682
   77SOPE   C29 6858   3.195   4.535   6.086  0.1143 -0.6993  0.6313
   77SOPE   H91 6859   3.168   4.435   6.124  2.2034 -1.2254  0.8509
   77SOPE  C210 6860   3.196   4.555   5.957  0.3943 -0.8871  0.9522
   77SOPE  H101 6861   3.175   4.479   5.880 -1.9849  1.2629 -0.7264
   77SOPE  C211 6862   3.226   4.688   5.896 -0.4930  0.7101  0.3166
   77SOPE  H11R 6863   3.315   4.738   5.938  0.1538 -1.8143  2.2207
   77SOPE  H11S 6864   3.141   4.756   5.918  0.2672  2.2974 -1.4386
   77SOPE  C212 6865   3.223   4.678   5.748  0.0498  0.3681  0.5072
   77SOPE  H12R 6866   3.317   4.635   5.708 -0.7858 -0.2842 -0.8535
   77SOPE  H12S 6867   3.234   4.782   5.711 -1.4573  0.0864 -0.8734
   77SOPE  C213 6868   3.084   4.626   5.682 -0.3713 -0.0012  0.1350
   77SOPE  H13R 6869   3.005   4.675   5.743  1.1693  0.2784  2.0194
   77SOPE  H13S 6870   3.068   4.517   5.695 -2.3034  0.4338  1.9274
   77SOPE  C214 6871   3.077   4.666   5.525  0.8953 -0.5011 -0.2626
   77SOPE  H14R 6872   2.977   4.632   5.491  0.9159  0.0947 -0.9426
   77SOPE  H14S 6873   3.140   4.597   5.465  2.4142  1.3926 -0.9822
   77SOPE  C215 6874   3.090   4.819   5.477 -0.2898 -0.2019  0.2336
   77SOPE  H15R 6875   3.160   4.873   5.545  0.5605 -0.8157 -0.1285
   77SOPE  H15S 6876   2.995   4.875   5.479 -0.0738  0.5479 -3.5906
   77SOPE  C216 6877   3.145   4.830   5.339  0.4926 -0.5927  0.1421
   77SOPE  H16R 6878   3.238   4.771   5.332 -0.2788 -1.7495 -0.8123
   77SOPE  H16S 6879   3.171   4.936   5.316 -0.3480 -0.9128 -2.7775
   77SOPE  C217 6880   3.046   4.788   5.227 -0.2691  0.3427  0.1329
   77SOPE  H17R 6881   2.948   4.840   5.239 -1.1133 -1.2532  0.4773
   77SOPE  H17S 6882   3.024   4.680   5.237  2.1585 -0.1257  1.0914
   77SOPE  C218 6883   3.095   4.808   5.084 -0.2725 -0.0575 -0.6471
   77SOPE  H18R 6884   3.125   4.914   5.072  1.7277 -0.4062  0.7957
   77SOPE  H18S 6885   3.008   4.789   5.017 -0.4872 -0.7561 -0.1941
   77SOPE  H18T 6886   3.180   4.743   5.055  1.2548  1.8134 -0.5081
   77SOPE   C33 6887   3.558   4.793   6.552 -0.3512 -0.6630  0.4198
   77SOPE   H3X 6888   3.668   4.780   6.541 -0.0641  1.6967 -0.1197
   77SOPE   H3Y 6889   3.546   4.867   6.634  0.2027  2.0667 -1.8072
   77SOPE   C34 6890   3.508   4.867   6.425  0.1145  0.4187 -0.0251
   77SOPE   H4X 6891   3.539   4.973   6.440  0.1373  0.3001  0.8130
   77SOPE   H4Y 6892   3.400   4.890   6.414  0.3599  0.9686 -1.4370
   77SOPE   C35 6893   3.575   4.808   6.298 -0.0656  0.4104  0.2294
   77SOPE   H5X 6894   3.512   4.719   6.276 -0.0849  0.4967 -0.0571
   77SOPE   H5Y 6895   3.680   4.782   6.323 -0.2794 -1.1247 -0.3863
   77SOPE   C36 6896   3.577   4.899   6.172 -0.5830  0.1396 -0.4256
   77SOPE   H6X 6897   3.629   4.989   6.211 -2.7207  1.4201 -0.3919
   77SOPE   H6Y 6898   3.475   4.915   6.132 -1.2589 -1.6538  0.4560
   77SOPE   C37 6899   3.663   4.826   6.071  0.5141  0.3916 -0.9116
   77SOPE   H7X 6900   3.598   4.742   6.039  0.4365  0.0167  0.1864
   77SOPE   H7Y 6901   3.760   4.783   6.106 -0.8702 -2.0171  0.2815
   77SOPE   C38 6902   3.686   4.901   5.938 -0.1169  0.6567 -0.1894
   77SOPE   H8X 6903   3.765   4.834   5.899 -1.2560 -0.8242 -0.0382
   77SOPE   H8Y 6904   3.738   4.999   5.948 -1.3325  1.2970  0.1648
   77SOPE   C39 6905   3.560   4.910   5.850 -0.4465  0.0251 -0.4021
   77SOPE   H9X 6906   3.499   4.985   5.904  1.0462  0.3101  0.9793
   77SOPE   H9Y 6907   3.509   4.811   5.851  0.3541 -0.3995  0.5249
   77SOPE  C310 6908   3.596   4.963   5.713  0.3404 -0.0930 -0.6002
   77SOPE  H10X 6909   3.675   4.894   5.676 -0.1226 -1.0054  0.0687
   77SOPE  H10Y 6910   3.630   5.068   5.719 -0.0399 -0.0448  1.2740
   77SOPE  C311 6911   3.484   4.943   5.614  0.8391  0.1259 -0.1963
   77SOPE  H11X 6912   3.388   4.987   5.649  0.4356  0.6083 -1.8599
   77SOPE  H11Y 6913   3.460   4.835   5.605 -0.0825  0.3113 -0.0197
   77SOPE  C312 6914   3.510   5.002   5.477 -0.4356  0.1528 -0.3458
   77SOPE  H12X 6915   3.535   5.107   5.501 -0.2054 -0.0734  0.4538
   77SOPE  H12Y 6916   3.418   5.000   5.414 -1.5924  1.8352  1.1647
   77SOPE  C313 6917   3.621   4.926   5.406 -0.3131 -0.0459 -0.4782
   77SOPE  H13X 6918   3.594   4.819   5.409 -2.4912  0.3493 -2.9168
   77SOPE  H13Y 6919   3.723   4.931   5.450  1.1124 -1.1511 -3.3661
   77SOPE  C314 6920   3.627   4.957   5.251  0.0286  0.3211  0.0442
   77SOPE  H14X 6921   3.522   4.947   5.216 -0.2044 -0.6931  1.0036
   77SOPE  H14Y 6922   3.678   4.874   5.198 -0.2528  0.7891 -0.9962
   77SOPE  C315 6923   3.689   5.088   5.216 -0.2074 -0.4116 -0.1820
   77SOPE  H15X 6924   3.641   5.173   5.268  1.0913 -0.4203  1.0834
   77SOPE  H15Y 6925   3.678   5.104   5.106 -1.5889  2.0658  0.2355
   77SOPE  C316 6926   3.843   5.093   5.243  0.3946  0.8000 -0.3823
   77SOPE  H16X 6927   3.894   5.015   5.184 -3.3449 -0.7995 -1.7889
   77SOPE  H16Y 6928   3.861   5.074   5.351 -0.0681 -2.1822 -0.7575
   77SOPE  C317 6929   3.894   5.233   5.217  0.0862 -0.1446  0.0091
   77SOPE  H17X 6930   3.897   5.284   5.316 -0.1637 -2.6799  1.4171
   77SOPE  H17Y 6931   3.817   5.284   5.156 -0.6406 -1.7662 -0.4873
   77SOPE  C318 6932   4.029   5.238   5.151 -0.3970 -0.3112  0.2672
   77SOPE  H18X 6933   4.112   5.196   5.212  2.0310  1.8849 -1.2727
   77SOPE  H18Y 6934   4.055   5.343   5.124 -1.5373 -0.5586 -1.9451
   77SOPE  H18Z 6935   4.017   5.187   5.054  0.1869  2.7519 -1.5480
   78SOPE     N 6936   2.169   5.398   7.112  0.4094 -0.2612 -0.2333
   78SOPE   HN1 6937   2.123   5.387   7.205 -0.9887  1.6008 -0.6395
   78SOPE   HN2 6938   2.229   5.483   7.115  0.0468 -0.0164  1.0154
   78SOPE   HN3 6939   2.085   5.413   7.054  0.0077 -0.6664  0.2305
   78SOPE   C12 6940   2.262   5.290   7.063  0.6334 -0.2263  0.0043
   78SOPE  H12A 6941   2.297   5.336   6.967 -0.7327 -0.1317 -0.4845
   78SOPE  H12B 6942   2.207   5.195   7.048  0.5857 -0.5597  2.0788
   78SOPE   C11 6943   2.375   5.278   7.165 -0.2591  0.6532 -0.0521
   78SOPE  H11A 6944   2.439   5.192   7.134  0.3026  1.1952 -0.4224
   78SOPE  H11B 6945   2.322   5.254   7.260  0.8240 -2.6587 -0.1238
   78SOPE     P 6946   2.573   5.442   7.102  0.1275 -0.0475  0.1611
   78SOPE   O13 6947   2.694   5.376   7.149  0.2405 -0.0429  0.4435
   78SOPE   O14 6948   2.585   5.589   7.110 -0.3044 -0.8241  0.2634
   78SOPE   O12 6949   2.449   5.394   7.188 -0.5963 -0.0975 -0.2876
   78SOPE   O11 6950   2.537   5.397   6.956 -0.5043  0.1533  0.8187
   78SOPE    C1 6951   2.582   5.273   6.900  0.0183  0.2704  0.4502
   78SOPE    HA 6952   2.511   5.230   6.826 -0.4853  0.1712  0.9849
   78SOPE    HB 6953   2.593   5.196   6.980  1.0938  2.8043  2.9101
   78SOPE    C2 6954   2.713   5.284   6.817 -0.0464  0.2711  0.4670
   78SOPE    HS 6955   2.774   5.367   6.859  2.6106 -0.1715 -2.1505
   78SOPE   O21 6956   2.672   5.299   6.676 -0.4280 -0.0474 -0.2768
   78SOPE   C21 6957   2.664   5.423   6.647 -0.1684  0.8841 -0.1924
   78SOPE   O22 6958   2.697   5.516   6.715 -0.4176  0.1071  0.1269
   78SOPE   C22 6959   2.600   5.440   6.504  0.4914  0.3475 -0.3600
   78SOPE   H2R 6960   2.492   5.459   6.525  0.2258 -0.2492 -1.1404
   78SOPE   H2S 6961   2.602   5.339   6.457  0.4485 -0.0949  0.5548
   78SOPE    C3 6962   2.800   5.158   6.825  0.7331  0.3904 -0.5946
   78SOPE    HX 6963   2.736   5.068   6.807  2.3675 -0.8349 -0.5219
   78SOPE    HY 6964   2.828   5.148   6.932  0.8089 -0.1005 -0.6560
   78SOPE   O31 6965   2.918   5.172   6.743 -0.1646 -0.0281 -0.4854
   78SOPE   C31 6966   2.917   5.094   6.634 -0.1380 -0.2869 -0.0428
   78SOPE   O32 6967   2.837   5.010   6.603 -0.4397 -0.1670 -0.4004
   78SOPE   C32 6968   3.040   5.122   6.546  0.6920 -0.0506  0.3818
   78SOPE   H2X 6969   3.079   5.021   6.524  1.1732  0.1363  0.3612
   78SOPE   H2Y 6970   3.120   5.177   6.601 -0.9405  1.1632  1.6761
   78SOPE   C23 6971   2.668   5.542   6.408  0.1820  0.1275 -0.8717
   78SOPE   H3R 6972   2.671   5.646   6.445 -1.3214 -0.2553  0.4239
   78SOPE   H3S 6973   2.601   5.547   6.319  0.7591 -0.6015 -1.3629
   78SOPE   C24 6974   2.800   5.500   6.354 -1.2617  0.0395 -0.0075
   78SOPE   H4R 6975   2.858   5.512   6.448 -2.3910 -1.2478  0.8958
   78SOPE   H4S 6976   2.794   5.393   6.324  1.1025  0.4451 -2.2580
   78SOPE   C25 6977   2.845   5.578   6.235  0.6640 -0.0038 -0.1672
   78SOPE   H5R 6978   2.845   5.688   6.253  0.9136 -0.0160 -0.0834
   78SOPE   H5S 6979   2.949   5.549   6.209  0.2927 -1.7549  0.1662
   78SOPE   C26 6980   2.755   5.559   6.106  0.3043 -0.7394 -0.2138
   78SOPE   H6R 6981   2.743   5.449   6.096 -0.0732 -0.5119 -2.8565
   78SOPE   H6S 6982   2.656   5.602   6.133 -0.1858 -1.0176 -1.4952
   78SOPE   C27 6983   2.822   5.631   5.986  0.0753  0.2517 -0.1464
   78SOPE   H7R 6984   2.804   5.735   6.020 -0.7697 -0.3778  1.4394
   78SOPE   H7S 6985   2.932   5.618   5.990  0.0840  0.6268  1.0684
   78SOPE   C28 6986   2.756   5.587   5.854  0.2231 -0.3097  0.7265
   78SOPE   H8R 6987   2.759   5.476   5.846  0.2556 -0.3033  0.6541
   78SOPE   H8S 6988   2.649   5.610   5.874 -0.4485  0.2997 -2.8712
   78SOPE   C29 6989   2.798   5.667   5.738  0.0247 -0.3933  0.1489
   78SOPE   H91 6990   2.867   5.750   5.756  0.5943 -0.3580 -1.9107
   78SOPE  C210 6991   2.773   5.638   5.607  0.1550  1.0060  0.3905
   78SOPE  H101 6992   2.816   5.709   5.535  0.8746 -1.5017 -1.7986
   78SOPE  C211 6993   2.702   5.522   5.543  0.7640 -1.1726  0.0769
   78SOPE  H11R 6994   2.594   5.539   5.563  0.9693  0.7412 -0.2503
   78SOPE  H11S 6995   2.729   5.422   5.583  1.6510 -0.9162  0.1361
   78SOPE  C212 6996   2.713   5.523   5.393 -0.2621 -0.1527 -0.3720
   78SOPE  H12R 6997   2.808   5.470   5.371 -0.7140 -1.6384  1.0735
   78SOPE  H12S 6998   2.725   5.629   5.361  0.7453  0.7673  2.7569
   78SOPE  C213 6999   2.599   5.456   5.313 -0.7892 -0.4687 -0.1011
   78SOPE  H13R 7000   2.502   5.490   5.355  1.1684  1.5288  3.1959
   78SOPE  H13S 7001   2.604   5.347   5.336 -0.3681 -0.0926  1.7447
   78SOPE  C214 7002   2.614   5.479   5.156  1.1289  0.0369  0.4317
   78SOPE  H14R 7003   2.594   5.586   5.134 -0.4281  0.1023  1.9247
   78SOPE  H14S 7004   2.541   5.413   5.105 -0.7826  2.3320 -0.0098
   78SOPE  C215 7005   2.756   5.442   5.103  0.1926 -0.5085 -0.6518
   78SOPE  H15R 7006   2.775   5.333   5.114 -0.0060 -0.3002  2.3243
   78SOPE  H15S 7007   2.836   5.509   5.139 -1.3831  1.7719 -1.1882
   78SOPE  C216 7008   2.780   5.470   4.947  0.2432  0.3339  0.1543
   78SOPE  H16R 7009   2.741   5.573   4.930 -1.6666  0.0510  2.3815
   78SOPE  H16S 7010   2.720   5.403   4.881  3.0301 -1.3958 -0.8102
   78SOPE  C217 7011   2.936   5.459   4.923  0.1807 -0.8367  0.2018
   78SOPE  H17R 7012   2.981   5.359   4.940  2.7908  0.2554  0.1474
   78SOPE  H17S 7013   2.988   5.520   4.999 -0.6004  1.5386 -1.0604
   78SOPE  C218 7014   2.978   5.522   4.787 -0.2485  0.4319  0.2595
   78SOPE  H18R 7015   2.939   5.446   4.716 -0.5385  0.4751  0.3700
   78SOPE  H18S 7016   3.088   5.537   4.785 -0.1836 -0.0007  0.5155
   78SOPE  H18T 7017   2.925   5.620   4.784  0.5070  0.8863  1.0759
   78SOPE   C33 7018   3.001   5.194   6.417  0.2147 -0.0158  0.0980
   78SOPE   H3X 7019   3.032   5.301   6.410 -1.5688  0.6111  1.0003
   78SOPE   H3Y 7020   2.891   5.179   6.404  0.2280  0.0223 -0.0654
   78SOPE   C34 7021   3.053   5.114   6.300 -0.2772  0.0309  0.2805
   78SOPE   H4X 7022   3.029   5.006   6.306 -2.1124  0.3811 -0.3075
   78SOPE   H4Y 7023   3.164   5.109   6.302 -0.2780 -1.5516 -1.2024
   78SOPE   C35 7024   3.027   5.174   6.158  0.1155  0.0232 -0.9269
   78SOPE   H5X 7025   3.049   5.282   6.170 -0.3765 -0.1180  1.7309
   78SOPE   H5Y 7026   2.919   5.152   6.147  0.3166 -0.3293 -2.4184
   78SOPE   C36 7027   3.109   5.103   6.048  0.0258 -0.1120 -0.2686
   78SOPE   H6X 7028   3.103   4.993   6.062 -0.2517 -0.0861 -0.1864
   78SOPE   H6Y 7029   3.213   5.136   6.065  0.0742  1.1595 -2.5596
   78SOPE   C37 7030   3.074   5.138   5.904  0.0254  0.5857 -0.2122
   78SOPE   H7X 7031   3.036   5.243   5.906  1.7825  1.2761  2.1707
   78SOPE   H7Y 7032   2.983   5.080   5.878  0.9540 -0.7081 -0.6358
   78SOPE   C38 7033   3.194   5.122   5.816  0.4747  0.1866  0.4053
   78SOPE   H8X 7034   3.232   5.020   5.836  1.4167  0.8199  2.0219
   78SOPE   H8Y 7035   3.268   5.197   5.851 -0.6050  0.7556  1.5364
   78SOPE   C39 7036   3.158   5.139   5.673 -0.5314  0.2716 -0.1098
   78SOPE   H9X 7037   3.088   5.057   5.649 -2.8590  1.7177  1.2597
   78SOPE   H9Y 7038   3.251   5.132   5.614 -1.6324 -0.1606 -1.8536
   78SOPE  C310 7039   3.089   5.276   5.650 -0.0505  0.0275  0.0271
   78SOPE  H10X 7040   3.163   5.353   5.680 -2.3317  1.3513  2.6774
   78SOPE  H10Y 7041   2.997   5.298   5.707  0.3347 -1.6339  1.3470
   78SOPE  C311 7042   3.057   5.308   5.501  0.0724 -0.3789  0.0768
   78SOPE  H11X 7043   3.007   5.407   5.501  1.3599  0.2937  0.4992
   78SOPE  H11Y 7044   2.995   5.228   5.454  0.2986  0.7818 -2.3492
   78SOPE  C312 7045   3.183   5.326   5.425  0.5929  0.7043  0.1152
   78SOPE  H12X 7046   3.250   5.239   5.444  1.1129  1.1000  0.1133
   78SOPE  H12Y 7047   3.232   5.416   5.467  2.2352  0.3404 -0.8927
   78SOPE  C313 7048   3.176   5.330   5.269  0.8333  0.1810  0.0477
   78SOPE  H13X 7049   3.132   5.427   5.238 -0.4074 -1.0046 -2.1068
   78SOPE  H13Y 7050   3.105   5.248   5.244  1.2455  0.3926 -1.9939
   78SOPE  C314 7051   3.316   5.303   5.203 -0.1192 -0.3328 -0.2824
   78SOPE  H14X 7052   3.374   5.227   5.261 -0.4294 -0.5534 -0.2574
   78SOPE  H14Y 7053   3.385   5.388   5.218  2.0866 -2.2219  1.1478
   78SOPE  C315 7054   3.289   5.279   5.052  0.3556  0.8241 -0.7926
   78SOPE  H15X 7055   3.231   5.362   5.006 -1.6535  1.4364  2.5125
   78SOPE  H15Y 7056   3.232   5.185   5.034  0.6496  0.8461 -1.9171
   78SOPE  C316 7057   3.423   5.271   4.976 -0.0992  0.7500 -0.7280
   78SOPE  H16X 7058   3.464   5.170   4.997 -0.9782  0.0445 -2.2425
   78SOPE  H16Y 7059   3.491   5.347   5.019  0.9690 -2.5235  4.2367
   78SOPE  C317 7060   3.390   5.277   4.829  0.2951  0.1044 -0.1181
   78SOPE  H17X 7061   3.338   5.373   4.806 -2.2956 -1.0190  0.5993
   78SOPE  H17Y 7062   3.307   5.206   4.810 -1.1169  0.6143  3.3376
   78SOPE  C318 7063   3.501   5.250   4.733  0.3700  0.4453 -0.7176
   78SOPE  H18X 7064   3.537   5.147   4.751 -2.2920 -0.4900 -0.4314
   78SOPE  H18Y 7065   3.575   5.334   4.733  1.3463 -0.3742 -2.0707
   78SOPE  H18Z 7066   3.474   5.256   4.626 -0.7130 -0.4966 -0.5056
   79SOPE     N 7067   5.037   0.780   7.237 -0.3221 -0.1007  0.0056
   79SOPE   HN1 7068   5.125   0.775   7.183 -0.8368 -1.8256 -0.7482
   79SOPE   HN2 7069   4.999   0.688   7.267  0.5152  0.0118  1.5278
   79SOPE   HN3 7070   4.965   0.829   7.180 -0.6857  0.8506  1.2372
   79SOPE   C12 7071   5.069   0.866   7.362  0.3364  0.5046 -0.3054
   79SOPE  H12A 7072   5.154   0.818   7.416  0.6306  1.8684  0.5054
   79SOPE  H12B 7073   4.981   0.855   7.429 -0.6669  2.8914 -1.1045
   79SOPE   C11 7074   5.096   1.016   7.341 -0.2909  0.7292  0.6773
   79SOPE  H11A 7075   5.133   1.065   7.434  2.9429  0.6667 -0.4444
   79SOPE  H11B 7076   4.995   1.062   7.326  1.0907  4.0871  0.7325
   79SOPE     P 7077   5.214   1.180   7.164 -0.2563 -0.2491 -0.0005
   79SOPE   O13 7078   5.336   1.172   7.081  0.1555 -0.2072  0.0865
   79SOPE   O14 7079   5.210   1.285   7.267  0.6398 -0.0555  0.0853
   79SOPE   O12 7080   5.197   1.042   7.238  0.5174 -0.2446  0.2875
   79SOPE   O11 7081   5.088   1.195   7.073  0.6164  0.6016 -0.2761
   79SOPE    C1 7082   5.093   1.269   6.946  0.2112  0.7843 -0.0434
   79SOPE    HA 7083   5.195   1.272   6.901  1.1569 -0.7593  1.8749
   79SOPE    HB 7084   5.064   1.373   6.972 -1.3631  0.2830  0.3398
   79SOPE    C2 7085   4.985   1.208   6.841 -0.1612 -0.7084 -0.4053
   79SOPE    HS 7086   4.889   1.230   6.891  0.5073  0.7377  0.2836
   79SOPE   O21 7087   4.984   1.063   6.837  0.0912  0.4688 -0.2997
   79SOPE   C21 7088   5.095   1.007   6.789 -0.0117 -0.4099  0.0522
   79SOPE   O22 7089   5.200   1.060   6.758  0.2911 -0.2430  0.6663
   79SOPE   C22 7090   5.066   0.855   6.776 -0.4497 -0.1519  0.2300
   79SOPE   H2R 7091   5.026   0.836   6.878 -0.7171 -1.6628 -0.1329
   79SOPE   H2S 7092   5.156   0.792   6.760  0.5377  1.4744 -0.9322
   79SOPE    C3 7093   4.991   1.275   6.705  0.3511 -0.1510  0.3388
   79SOPE    HX 7094   5.088   1.253   6.657 -0.2956  0.5885 -1.3754
   79SOPE    HY 7095   4.977   1.385   6.707 -1.3232 -0.3362  1.5574
   79SOPE   O31 7096   4.880   1.208   6.631  0.9353  0.0525  0.4091
   79SOPE   C31 7097   4.761   1.264   6.631 -0.3482  0.6035  0.7190
   79SOPE   O32 7098   4.728   1.365   6.689 -0.2053  0.6552 -0.3233
   79SOPE   C32 7099   4.668   1.178   6.543 -0.0297  0.7011 -0.0677
   79SOPE   H2X 7100   4.571   1.229   6.560  0.0062  0.6946  0.1519
   79SOPE   H2Y 7101   4.672   1.074   6.583  0.0983  0.6767 -0.1422
   79SOPE   C23 7102   4.953   0.817   6.676 -0.1444 -0.6906 -0.0231
   79SOPE   H3R 7103   4.865   0.867   6.722 -0.3957 -0.3732 -0.8413
   79SOPE   H3S 7104   4.942   0.707   6.689 -0.3868 -0.6748 -0.0871
   79SOPE   C24 7105   4.992   0.845   6.530 -0.7724 -0.9076  0.2573
   79SOPE   H4R 7106   4.978   0.949   6.496  1.4196 -1.5009 -2.8893
   79SOPE   H4S 7107   5.100   0.819   6.528 -0.6193 -0.3312  0.8158
   79SOPE   C25 7108   4.926   0.738   6.437  0.1552  0.7936  0.0750
   79SOPE   H5R 7109   4.955   0.636   6.471 -2.5775  0.3474  1.3830
   79SOPE   H5S 7110   4.816   0.740   6.451  0.1743 -0.7534  0.6879
   79SOPE   C26 7111   4.967   0.758   6.294  0.1699 -1.1067 -0.1664
   79SOPE   H6R 7112   4.937   0.860   6.265  0.1574 -0.7430  1.0461
   79SOPE   H6S 7113   5.076   0.741   6.286  0.2874 -0.3316 -0.2546
   79SOPE   C27 7114   4.906   0.658   6.200 -0.0464  0.0176  0.8280
   79SOPE   H7R 7115   4.963   0.566   6.227 -0.0907  0.4474  2.4959
   79SOPE   H7S 7116   4.801   0.624   6.212 -0.0372  0.1571  1.3510
   79SOPE   C28 7117   4.934   0.698   6.054 -0.3635  0.4887 -0.4296
   79SOPE   H8R 7118   4.883   0.794   6.031  0.5216  0.4326 -2.8205
   79SOPE   H8S 7119   5.040   0.730   6.050 -0.1878 -0.1833 -1.3268
   79SOPE   C29 7120   4.900   0.589   5.961  0.1082 -0.0222 -0.1830
   79SOPE   H91 7121   4.819   0.522   5.993  0.4396  0.1485  1.0577
   79SOPE  C210 7122   4.965   0.565   5.843 -0.1210 -0.4496 -0.3765
   79SOPE  H101 7123   4.914   0.484   5.789 -1.1670 -0.6205  0.8298
   79SOPE  C211 7124   5.082   0.653   5.790 -0.0097 -0.7962  0.1734
   79SOPE  H11R 7125   5.158   0.673   5.869 -0.5171  0.9627  0.2645
   79SOPE  H11S 7126   5.033   0.744   5.750 -0.2931 -1.5123 -1.1520
   79SOPE  C212 7127   5.167   0.587   5.688 -0.3735 -0.3710 -0.2810
   79SOPE  H12R 7128   5.199   0.484   5.716 -0.1965  0.1430  1.5339
   79SOPE  H12S 7129   5.258   0.649   5.700 -0.1224 -0.7869 -0.0352
   79SOPE  C213 7130   5.119   0.606   5.542 -0.3555 -0.6197  0.1020
   79SOPE  H13R 7131   5.024   0.551   5.525  0.8699 -2.1431 -2.6730
   79SOPE  H13S 7132   5.199   0.553   5.485 -1.2616 -1.2875 -0.5734
   79SOPE  C214 7133   5.107   0.744   5.480  0.0737 -0.1152 -0.2035
   79SOPE  H14R 7134   5.211   0.783   5.486  0.5825 -1.5318  1.0312
   79SOPE  H14S 7135   5.047   0.810   5.546  3.1502  2.1604  0.5724
   79SOPE  C215 7136   5.066   0.743   5.334 -0.1989 -0.2866 -0.9064
   79SOPE  H15R 7137   5.113   0.650   5.294 -1.0789 -1.3507  0.4332
   79SOPE  H15S 7138   5.113   0.833   5.290  0.2077 -0.1441 -0.2022
   79SOPE  C216 7139   4.914   0.739   5.306 -0.2304  0.0199 -0.5734
   79SOPE  H16R 7140   4.868   0.816   5.371 -0.7188 -0.7921  0.0610
   79SOPE  H16S 7141   4.866   0.645   5.340  2.3561 -1.2564 -0.2040
   79SOPE  C217 7142   4.895   0.770   5.157 -0.3141  0.0276  0.0415
   79SOPE  H17R 7143   4.909   0.880   5.149 -3.9123  0.6462  0.8278
   79SOPE  H17S 7144   4.787   0.752   5.139 -0.4054 -0.0338  0.6222
   79SOPE  C218 7145   4.969   0.683   5.057 -0.8049  0.3035  0.2706
   79SOPE  H18R 7146   4.939   0.697   4.950  0.4090 -2.9893 -0.6134
   79SOPE  H18S 7147   4.969   0.573   5.074  1.5935 -0.0761 -1.6258
   79SOPE  H18T 7148   5.074   0.717   5.065 -0.9223  0.4527  1.1957
   79SOPE   C33 7149   4.717   1.173   6.394 -0.8324  0.4030 -0.2336
   79SOPE   H3X 7150   4.825   1.154   6.378 -0.9213 -0.1666 -0.1900
   79SOPE   H3Y 7151   4.698   1.267   6.339 -0.1681  0.7648  0.1410
   79SOPE   C34 7152   4.657   1.045   6.329 -0.2120 -0.3987 -0.7380
   79SOPE   H4X 7153   4.547   1.040   6.342 -0.1613  0.2254 -0.0046
   79SOPE   H4Y 7154   4.693   0.951   6.376 -1.1823 -0.3350  0.1617
   79SOPE   C35 7155   4.699   1.050   6.187 -0.9537  0.8044 -0.5877
   79SOPE   H5X 7156   4.808   1.030   6.183 -0.8419  1.5209 -1.8151
   79SOPE   H5Y 7157   4.702   1.156   6.152  1.3978  0.6479 -1.0480
   79SOPE   C36 7158   4.610   0.974   6.083  0.6107  0.4228 -1.0033
   79SOPE   H6X 7159   4.510   1.022   6.089 -0.4278 -1.7674  0.4463
   79SOPE   H6Y 7160   4.600   0.872   6.125 -0.8996  0.5069 -1.0897
   79SOPE   C37 7161   4.666   0.965   5.941  0.6832 -1.0484 -0.4665
   79SOPE   H7X 7162   4.696   0.863   5.909 -0.6382 -1.0556 -1.7945
   79SOPE   H7Y 7163   4.756   1.031   5.946  0.9314 -1.4058 -0.1385
   79SOPE   C38 7164   4.569   1.029   5.840  0.0625  0.0710  0.0456
   79SOPE   H8X 7165   4.565   1.140   5.853  1.8206 -0.0300  1.7600
   79SOPE   H8Y 7166   4.462   0.999   5.839 -1.1328  3.6774 -1.6611
   79SOPE   C39 7167   4.630   0.999   5.699  0.1385 -0.2004  1.0306
   79SOPE   H9X 7168   4.619   0.889   5.689  1.7516 -0.4795  1.9476
   79SOPE   H9Y 7169   4.736   1.032   5.702  0.5166 -1.4226  2.1052
   79SOPE  C310 7170   4.564   1.079   5.585  0.8334  0.1733  0.3639
   79SOPE  H10X 7171   4.600   1.184   5.578 -2.2726  1.3479  0.2939
   79SOPE  H10Y 7172   4.457   1.093   5.612  0.5858  0.9469 -0.9109
   79SOPE  C311 7173   4.578   1.013   5.448  0.1560  0.2800  0.2462
   79SOPE  H11X 7174   4.563   0.903   5.454  0.8291  0.0611 -1.4825
   79SOPE  H11Y 7175   4.682   1.023   5.411 -0.6446 -2.5798 -3.3311
   79SOPE  C312 7176   4.502   1.092   5.335 -0.2036  0.3474  0.0256
   79SOPE  H12X 7177   4.510   1.202   5.351 -1.4393  0.4492  0.0826
   79SOPE  H12Y 7178   4.396   1.075   5.366  0.1701 -0.7615  0.7377
   79SOPE  C313 7179   4.534   1.041   5.196  0.2100 -0.1008  0.5207
   79SOPE  H13X 7180   4.534   0.930   5.192 -1.1005 -0.3804  4.3076
   79SOPE  H13Y 7181   4.637   1.077   5.176  0.3394  0.8905  2.7715
   79SOPE  C314 7182   4.445   1.105   5.087 -0.4489  0.1637 -0.9155
   79SOPE  H14X 7183   4.493   1.080   4.990  1.0617  1.0240 -0.4268
   79SOPE  H14Y 7184   4.447   1.213   5.111 -1.0603 -0.0464  0.1621
   79SOPE  C315 7185   4.300   1.057   5.091  0.2106  0.8237 -0.6010
   79SOPE  H15X 7186   4.250   1.110   5.175 -0.2867 -0.4856 -0.0386
   79SOPE  H15Y 7187   4.293   0.947   5.103  0.0400  0.5897 -2.5523
   79SOPE  C316 7188   4.229   1.101   4.956 -0.9915 -1.0286 -0.2072
   79SOPE  H16X 7189   4.266   1.037   4.873  0.9052 -0.3855  0.1023
   79SOPE  H16Y 7190   4.260   1.200   4.917 -1.2985  0.0161  2.0677
   79SOPE  C317 7191   4.076   1.086   4.968 -0.5478 -0.6830  0.4161
   79SOPE  H17X 7192   4.047   1.168   5.038 -1.2042 -0.0836 -0.5395
   79SOPE  H17Y 7193   4.042   0.995   5.022  0.1150 -0.6161  0.9624
   79SOPE  C318 7194   4.011   1.110   4.835  0.4000 -0.4624 -0.0237
   79SOPE  H18X 7195   4.040   1.038   4.755  0.0519 -0.8491  0.1895
   79SOPE  H18Y 7196   4.029   1.213   4.799  2.3649  0.4013  3.0643
   79SOPE  H18Z 7197   3.901   1.097   4.846 -0.0357  2.2729 -0.5738
   80SOPE     N 7198   2.900   6.202   7.233 -0.2802  0.1220 -0.1666
   80SOPE   HN1 7199   2.992   6.243   7.209 -0.9760  0.2175 -2.9997
   80SOPE   HN2 7200   2.860   6.147   7.155 -1.1756 -0.9065  0.9685
   80SOPE   HN3 7201   2.836   6.279   7.258 -0.1538  0.0312  0.4717
   80SOPE   C12 7202   2.914   6.102   7.346  0.1420  1.0400  0.6628
   80SOPE  H12A 7203   2.817   6.047   7.349  0.1660  0.7855 -1.4279
   80SOPE  H12B 7204   2.938   6.158   7.439  0.1165  2.3099 -0.0622
   80SOPE   C11 7205   3.026   6.002   7.314  0.1192  0.0726  0.0850
   80SOPE  H11A 7206   3.021   5.920   7.389 -2.3492  0.2923  0.2448
   80SOPE  H11B 7207   3.129   6.044   7.310  0.3049 -0.4465 -1.2177
   80SOPE     P 7208   2.927   5.806   7.178  0.1266 -0.2062  0.3070
   80SOPE   O13 7209   2.784   5.833   7.211  0.9311 -0.0730 -0.4450
   80SOPE   O14 7210   2.995   5.694   7.250 -0.0487 -0.9750  0.0460
   80SOPE   O12 7211   3.007   5.945   7.183  0.5539 -0.5019  0.0706
   80SOPE   O11 7212   2.935   5.772   7.021 -0.0593 -0.0332 -0.0257
   80SOPE    C1 7213   3.056   5.809   6.951 -0.1676  0.0451 -0.1503
   80SOPE    HA 7214   3.139   5.754   7.001 -2.0502 -2.4798  0.4218
   80SOPE    HB 7215   3.078   5.918   6.950 -0.1237  0.0361 -0.4742
   80SOPE    C2 7216   3.048   5.761   6.798  0.2082  0.1761  0.2944
   80SOPE    HS 7217   3.149   5.800   6.773  1.0032 -0.2049  2.5864
   80SOPE   O21 7218   2.937   5.832   6.738 -0.1346 -0.1882 -0.0602
   80SOPE   C21 7219   2.972   5.885   6.613 -0.1634 -0.6310 -0.4859
   80SOPE   O22 7220   3.087   5.897   6.581  0.0600  0.1523  0.3286
   80SOPE   C22 7221   2.844   5.934   6.534  0.4094 -0.3787 -0.0604
   80SOPE   H2R 7222   2.794   5.995   6.612  0.3814 -1.2265  0.5962
   80SOPE   H2S 7223   2.793   5.840   6.504  2.0772 -1.3782  0.1311
   80SOPE    C3 7224   3.038   5.614   6.770  0.4144  0.6694  0.2917
   80SOPE    HX 7225   2.937   5.578   6.799  0.4237  2.6225  3.2151
   80SOPE    HY 7226   3.107   5.558   6.837 -2.6502 -2.8061  0.8913
   80SOPE   O31 7227   3.069   5.574   6.630  0.0746 -0.0404  0.2180
   80SOPE   C31 7228   3.188   5.603   6.579  0.3406  0.3874 -0.2699
   80SOPE   O32 7229   3.292   5.625   6.641 -0.4209 -0.1544  0.2663
   80SOPE   C32 7230   3.177   5.598   6.426  0.7997  0.6582  0.2493
   80SOPE   H2X 7231   3.069   5.600   6.400  0.7378 -0.5382  0.3487
   80SOPE   H2Y 7232   3.208   5.496   6.396 -1.7969 -0.1591  0.1566
   80SOPE   C23 7233   2.883   6.032   6.417  0.3331 -0.6136  0.4999
   80SOPE   H3R 7234   2.961   6.103   6.453  1.4589 -2.0129  0.8845
   80SOPE   H3S 7235   2.785   6.084   6.406  1.1412  0.9910  0.4793
   80SOPE   C24 7236   2.907   5.960   6.279  0.4681 -0.1693 -0.7625
   80SOPE   H4R 7237   2.975   5.874   6.298 -0.9436 -1.1283  0.1112
   80SOPE   H4S 7238   2.813   5.921   6.235  0.9907 -0.7128 -1.4218
   80SOPE   C25 7239   2.971   6.061   6.175 -0.4276  0.4352 -0.2877
   80SOPE   H5R 7240   2.895   6.141   6.160  1.2550  2.1186 -0.1645
   80SOPE   H5S 7241   3.057   6.112   6.224 -1.8318 -0.5314  3.6101
   80SOPE   C26 7242   2.992   5.987   6.043 -0.4290  0.2242  0.1758
   80SOPE   H6R 7243   3.099   5.971   6.017 -0.3565 -0.7436  0.9872
   80SOPE   H6S 7244   2.949   5.885   6.046  1.1659 -0.4924 -0.0806
   80SOPE   C27 7245   2.924   6.055   5.922 -0.0723 -0.3709 -0.0881
   80SOPE   H7R 7246   2.829   5.998   5.910  0.1461 -0.8177  0.2395
   80SOPE   H7S 7247   2.905   6.163   5.933  1.6490  0.1898 -1.9543
   80SOPE   C28 7248   3.015   6.036   5.797 -0.0750 -0.1628 -0.2751
   80SOPE   H8R 7249   3.112   6.086   5.817  0.3795 -1.7084  1.7585
   80SOPE   H8S 7250   3.044   5.928   5.794 -0.2152 -0.1798 -2.2839
   80SOPE   C29 7251   2.955   6.063   5.664 -0.4766 -0.7521  0.0441
   80SOPE   H91 7252   2.868   6.003   5.636 -1.5397  1.8896 -2.9034
   80SOPE  C210 7253   2.994   6.160   5.571 -0.1640  1.0398 -0.7347
   80SOPE  H101 7254   2.944   6.172   5.474  0.2699  2.8253 -0.7744
   80SOPE  C211 7255   3.097   6.261   5.601 -0.4791 -0.5155  0.2412
   80SOPE  H11R 7256   3.080   6.310   5.699 -0.1479 -0.2371  0.1596
   80SOPE  H11S 7257   3.084   6.342   5.527 -0.1265 -1.1007 -0.4755
   80SOPE  C212 7258   3.243   6.205   5.591 -0.0044  0.1200 -1.2631
   80SOPE  H12R 7259   3.256   6.120   5.662 -3.9818  1.2606  1.1385
   80SOPE  H12S 7260   3.309   6.286   5.627 -0.0666 -1.0805  1.8759
   80SOPE  C213 7261   3.298   6.170   5.450 -0.0426  0.3332  0.1077
   80SOPE  H13R 7262   3.229   6.093   5.408 -1.4574  1.0892  0.9649
   80SOPE  H13S 7263   3.401   6.132   5.463 -0.1495 -0.3636 -0.9191
   80SOPE  C214 7264   3.308   6.288   5.351  0.6320  0.6616  0.3073
   80SOPE  H14R 7265   3.210   6.340   5.347  0.6433  0.8987  2.0144
   80SOPE  H14S 7266   3.329   6.255   5.248 -0.0436  1.3774 -0.0722
   80SOPE  C215 7267   3.430   6.387   5.375  0.4585 -0.1427  0.4374
   80SOPE  H15R 7268   3.508   6.328   5.427  0.7155  0.6913  1.0183
   80SOPE  H15S 7269   3.392   6.452   5.457  2.4404  1.1374  0.4287
   80SOPE  C216 7270   3.480   6.464   5.258 -0.1701  0.1045 -0.1087
   80SOPE  H16R 7271   3.488   6.393   5.172 -0.4854  1.1429 -1.0290
   80SOPE  H16S 7272   3.582   6.505   5.274  0.5984 -1.1078 -1.5966
   80SOPE  C217 7273   3.393   6.585   5.221 -0.1190  0.3816  0.2496
   80SOPE  H17R 7274   3.382   6.655   5.307  1.0758  2.5652 -1.2659
   80SOPE  H17S 7275   3.290   6.546   5.205 -0.2871  1.1274 -0.6038
   80SOPE  C218 7276   3.444   6.666   5.105 -0.3405 -0.2193  0.0882
   80SOPE  H18R 7277   3.541   6.711   5.134 -1.1472  1.6864 -0.0162
   80SOPE  H18S 7278   3.379   6.756   5.101  0.8283  0.6335 -0.2111
   80SOPE  H18T 7279   3.455   6.620   5.005  0.7745 -0.7107  0.4220
   80SOPE   C33 7280   3.248   5.702   6.344  0.6920 -0.5142 -0.5392
   80SOPE   H3X 7281   3.358   5.709   6.362  0.7499 -0.9890 -0.6949
   80SOPE   H3Y 7282   3.217   5.807   6.363  2.5427 -0.0369  0.0596
   80SOPE   C34 7283   3.219   5.687   6.189 -0.6715  0.0616  0.6681
   80SOPE   H4X 7284   3.289   5.763   6.148 -0.2190 -1.1421 -0.8856
   80SOPE   H4Y 7285   3.117   5.720   6.159 -0.6888 -0.7083 -0.1594
   80SOPE   C35 7286   3.241   5.550   6.124 -0.4303 -0.3006 -0.0683
   80SOPE   H5X 7287   3.160   5.485   6.165  1.5475 -2.2474  0.9562
   80SOPE   H5Y 7288   3.337   5.503   6.152  0.8101  2.3144  0.3300
   80SOPE   C36 7289   3.240   5.557   5.972 -0.0297 -0.2842 -0.4852
   80SOPE   H6X 7290   3.141   5.604   5.957 -0.7283 -0.9130  1.8335
   80SOPE   H6Y 7291   3.249   5.457   5.924  2.1660  0.5242 -1.9153
   80SOPE   C37 7292   3.356   5.637   5.913 -0.2186  0.0159 -0.1494
   80SOPE   H7X 7293   3.446   5.587   5.955  1.7588  2.9699 -0.5538
   80SOPE   H7Y 7294   3.359   5.740   5.953  3.0305  0.5087 -1.3643
   80SOPE   C38 7295   3.356   5.646   5.766  0.2728 -0.5543  0.5248
   80SOPE   H8X 7296   3.359   5.546   5.718  1.5179 -0.4687  0.4021
   80SOPE   H8Y 7297   3.446   5.696   5.724 -0.6448  0.4445 -0.3438
   80SOPE   C39 7298   3.236   5.730   5.708  0.3978  0.0848 -0.3591
   80SOPE   H9X 7299   3.230   5.827   5.762  1.1745 -0.0925  0.0651
   80SOPE   H9Y 7300   3.142   5.673   5.726  0.6732 -1.0684 -2.2318
   80SOPE  C310 7301   3.255   5.742   5.552 -0.1638  0.1143 -1.1445
   80SOPE  H10X 7302   3.296   5.650   5.506  1.3077 -0.2378  0.7947
   80SOPE  H10Y 7303   3.333   5.820   5.547 -1.6662  2.0065  2.0531
   80SOPE  C311 7304   3.125   5.770   5.485  0.0851 -0.0708 -0.3386
   80SOPE  H11X 7305   3.094   5.871   5.522 -0.3165  0.0396 -0.9631
   80SOPE  H11Y 7306   3.055   5.692   5.522  1.5044 -0.6324  1.2693
   80SOPE  C312 7307   3.138   5.762   5.336  0.6774  0.1361 -0.4618
   80SOPE  H12X 7308   3.179   5.663   5.307  1.7250 -0.2025  1.9339
   80SOPE  H12Y 7309   3.212   5.833   5.292  0.1694  0.1657 -1.2890
   80SOPE  C313 7310   3.009   5.769   5.257  0.4665 -0.7789 -0.5316
   80SOPE  H13X 7311   2.948   5.690   5.305  0.7560 -0.0858  1.0497
   80SOPE  H13Y 7312   3.028   5.746   5.150  2.8645 -1.6055  0.0198
   80SOPE  C314 7313   2.938   5.908   5.278  0.0518 -0.4291 -0.5847
   80SOPE  H14X 7314   2.930   5.937   5.385 -1.2372 -1.1141 -0.4811
   80SOPE  H14Y 7315   2.838   5.898   5.230 -0.4117 -2.6382  0.7201
   80SOPE  C315 7316   3.010   6.032   5.212  0.5883 -0.2257  0.3878
   80SOPE  H15X 7317   3.121   6.025   5.213  0.4872 -2.1854  1.9343
   80SOPE  H15Y 7318   2.987   6.132   5.256 -2.4372  0.1556 -1.7625
   80SOPE  C316 7319   2.960   6.053   5.066  0.5932 -0.0853  0.4646
   80SOPE  H16X 7320   2.850   6.068   5.057  0.5148 -1.2151 -0.6762
   80SOPE  H16Y 7321   2.974   5.956   5.014 -1.6968  1.1481 -2.7430
   80SOPE  C317 7322   3.031   6.162   4.987 -0.4335 -0.3983 -0.3104
   80SOPE  H17X 7323   3.011   6.160   4.878  2.2830 -1.5335 -0.8753
   80SOPE  H17Y 7324   3.141   6.149   4.990 -0.4044 -0.1502 -0.1967
   80SOPE  C318 7325   3.006   6.311   5.030  0.5951 -0.0384  0.4188
   80SOPE  H18X 7326   3.061   6.325   5.126 -0.3973 -0.3072  1.0467
   80SOPE  H18Y 7327   2.899   6.325   5.056  0.6554  0.2846  0.4934
   80SOPE  H18Z 7328   3.047   6.382   4.956  2.7052 -0.6559  0.9198
   81SOPE     N 7329   6.315   1.988   6.875  0.4608 -0.0632 -0.1324
   81SOPE   HN1 7330   6.364   2.069   6.917 -0.6614  0.2105  0.6735
   81SOPE   HN2 7331   6.329   1.987   6.772  1.6245  1.3851 -0.0113
   81SOPE   HN3 7332   6.213   2.007   6.875  1.0280  4.1522  2.2093
   81SOPE   C12 7333   6.341   1.844   6.928 -0.0310 -0.1858  1.0396
   81SOPE  H12A 7334   6.312   1.840   7.036  0.6457 -0.8328  1.2037
   81SOPE  H12B 7335   6.451   1.833   6.925  0.1972  1.4825  2.0563
   81SOPE   C11 7336   6.260   1.744   6.844  0.5072 -0.0401  0.2407
   81SOPE  H11A 7337   6.260   1.640   6.883 -2.9549  0.2852  1.4851
   81SOPE  H11B 7338   6.304   1.743   6.742 -0.2100 -1.4533 -0.0750
   81SOPE     P 7339   5.997   1.697   6.807 -0.1914 -0.5292 -0.5200
   81SOPE   O13 7340   5.869   1.767   6.810  0.1671 -0.2701  0.2743
   81SOPE   O14 7341   6.007   1.571   6.893 -0.0794  0.7273  0.7158
   81SOPE   O12 7342   6.125   1.784   6.842 -0.4310  0.2013  0.0046
   81SOPE   O11 7343   6.026   1.659   6.653 -0.1710  0.3755 -0.0141
   81SOPE    C1 7344   6.095   1.545   6.614 -0.2312  0.6212 -0.5822
   81SOPE    HA 7345   6.162   1.506   6.694  1.1637  0.1338 -1.9193
   81SOPE    HB 7346   6.158   1.573   6.526 -1.0583 -1.0568 -1.7699
   81SOPE    C2 7347   6.003   1.433   6.564 -0.3433 -0.2522 -0.6170
   81SOPE    HS 7348   6.054   1.369   6.489  0.7445  0.0766 -0.1806
   81SOPE   O21 7349   5.884   1.499   6.517 -0.0459  0.5293  0.8011
   81SOPE   C21 7350   5.877   1.499   6.380  0.3618 -0.2203 -0.5069
   81SOPE   O22 7351   5.963   1.461   6.306 -0.2418 -0.2473  0.2199
   81SOPE   C22 7352   5.752   1.569   6.329  0.4556 -0.6012  0.3800
   81SOPE   H2R 7353   5.783   1.674   6.311 -2.3799  0.0044 -1.6131
   81SOPE   H2S 7354   5.677   1.580   6.409 -0.2525  0.7498 -0.4254
   81SOPE    C3 7355   5.957   1.326   6.676 -0.4270 -0.1805 -0.4378
   81SOPE    HX 7356   5.893   1.377   6.751 -1.1424 -1.6161 -0.0356
   81SOPE    HY 7357   6.043   1.291   6.737 -0.5447 -0.1892 -0.2730
   81SOPE   O31 7358   5.881   1.217   6.618 -0.8432  0.0069  0.1251
   81SOPE   C31 7359   5.755   1.224   6.606 -0.1583  0.5915 -0.3587
   81SOPE   O32 7360   5.678   1.303   6.659 -0.3565 -0.1426 -0.3642
   81SOPE   C32 7361   5.717   1.121   6.505 -0.1643 -0.8032  0.3981
   81SOPE   H2X 7362   5.648   1.172   6.435  0.6797 -1.1424 -0.7186
   81SOPE   H2Y 7363   5.661   1.047   6.566 -1.8147  2.6844  3.5386
   81SOPE   C23 7364   5.697   1.513   6.194 -0.2783 -0.5433 -0.2572
   81SOPE   H3R 7365   5.694   1.402   6.198  1.3708 -0.6823 -1.7828
   81SOPE   H3S 7366   5.767   1.536   6.111 -0.9197  1.5550 -0.2807
   81SOPE   C24 7367   5.564   1.567   6.153  0.6475 -0.4415  0.5314
   81SOPE   H4R 7368   5.496   1.569   6.241 -0.5116 -2.3073 -0.2451
   81SOPE   H4S 7369   5.574   1.673   6.123 -1.0251 -0.2385  0.5874
   81SOPE   C25 7370   5.494   1.469   6.058 -0.1395  0.7025  0.0669
   81SOPE   H5R 7371   5.558   1.437   5.973 -1.0067 -1.1379  0.0574
   81SOPE   H5S 7372   5.469   1.371   6.105  1.7536 -1.4602 -3.0126
   81SOPE   C26 7373   5.365   1.512   5.995  1.1051  0.4448 -0.3218
   81SOPE   H6R 7374   5.327   1.440   5.920  1.4334 -1.1408  0.9820
   81SOPE   H6S 7375   5.285   1.524   6.072  0.1348 -0.4414 -1.1655
   81SOPE   C27 7376   5.379   1.651   5.929 -0.9335  0.8544 -0.2135
   81SOPE   H7R 7377   5.336   1.713   6.010  0.9223  1.8680  0.0554
   81SOPE   H7S 7378   5.485   1.685   5.924  0.3241 -2.0086  2.7403
   81SOPE   C28 7379   5.311   1.676   5.791 -0.4365  0.6761 -0.1159
   81SOPE   H8R 7380   5.201   1.657   5.793 -0.5039  1.0825  0.1382
   81SOPE   H8S 7381   5.334   1.779   5.755  2.6819  0.4069  0.8010
   81SOPE   C29 7382   5.367   1.585   5.682  0.5544 -0.4893  0.1222
   81SOPE   H91 7383   5.424   1.500   5.723 -0.1993 -1.3147 -0.4881
   81SOPE  C210 7384   5.345   1.594   5.549  0.1030  0.5419 -0.6111
   81SOPE  H101 7385   5.391   1.524   5.479  1.8773 -0.7987  1.7495
   81SOPE  C211 7386   5.255   1.691   5.474  0.4284  0.2635  0.1566
   81SOPE  H11R 7387   5.306   1.787   5.450  0.4316 -0.1105 -1.4216
   81SOPE  H11S 7388   5.167   1.721   5.535 -0.3252 -1.0041 -0.2635
   81SOPE  C212 7389   5.194   1.622   5.348 -0.1865  0.0353  0.1595
   81SOPE  H12R 7390   5.098   1.673   5.325  0.1769  0.2247 -1.0055
   81SOPE  H12S 7391   5.172   1.514   5.363 -0.2346 -0.0995 -0.7934
   81SOPE  C213 7392   5.273   1.641   5.211 -0.0524 -0.5582  0.8406
   81SOPE  H13R 7393   5.382   1.631   5.227  0.0062 -1.2973  0.0335
   81SOPE  H13S 7394   5.260   1.742   5.168  1.5296 -2.0114 -3.6460
   81SOPE  C214 7395   5.245   1.546   5.100 -0.6319 -0.0741 -0.1963
   81SOPE  H14R 7396   5.135   1.559   5.088 -0.7128 -0.5939 -0.0179
   81SOPE  H14S 7397   5.273   1.446   5.139  0.5165 -0.9637 -3.1036
   81SOPE  C215 7398   5.332   1.579   4.978 -0.2429  0.3082 -0.2073
   81SOPE  H15R 7399   5.436   1.597   5.013 -0.8205  0.4760  1.5304
   81SOPE  H15S 7400   5.296   1.681   4.951  2.1183  1.5022  0.7886
   81SOPE  C216 7401   5.324   1.483   4.866 -0.4963  0.0968 -0.2096
   81SOPE  H16R 7402   5.365   1.524   4.771 -0.5315  1.0975  0.1997
   81SOPE  H16S 7403   5.217   1.463   4.843 -0.5020  0.7426 -0.7741
   81SOPE  C217 7404   5.387   1.351   4.896 -0.5899  0.7598  0.0711
   81SOPE  H17R 7405   5.344   1.271   4.832  1.9359 -0.4970 -0.2221
   81SOPE  H17S 7406   5.355   1.322   4.998  0.2541  2.2374  0.7834
   81SOPE  C218 7407   5.533   1.336   4.873 -0.2074 -0.0478  0.2712
   81SOPE  H18R 7408   5.587   1.274   4.948 -0.5126 -0.4249  0.1859
   81SOPE  H18S 7409   5.584   1.435   4.869 -0.1888 -0.0603  0.2011
   81SOPE  H18T 7410   5.548   1.299   4.769  1.6700 -1.4542  0.9786
   81SOPE   C33 7411   5.829   1.065   6.419 -0.8937  0.5408  0.1197
   81SOPE   H3X 7412   5.885   1.000   6.488 -0.1527 -1.9012 -2.5993
   81SOPE   H3Y 7413   5.904   1.143   6.392  1.4428 -1.5667  0.2202
   81SOPE   C34 7414   5.785   0.980   6.300 -0.6135 -0.0252  0.2324
   81SOPE   H4X 7415   5.722   0.900   6.343 -0.7577 -0.0098  0.0515
   81SOPE   H4Y 7416   5.881   0.931   6.271 -0.1768  0.8496  0.1772
   81SOPE   C35 7417   5.718   1.048   6.183 -0.6368 -0.5199  0.3990
   81SOPE   H5X 7418   5.629   1.108   6.212 -3.5388 -3.2730 -1.9822
   81SOPE   H5Y 7419   5.681   0.970   6.112 -0.3383 -1.1089  0.8874
   81SOPE   C36 7420   5.810   1.135   6.092  0.7264  0.3497 -0.2263
   81SOPE   H6X 7421   5.887   1.062   6.061 -0.3105 -0.1781 -1.6612
   81SOPE   H6Y 7422   5.843   1.224   6.150  0.7280 -0.8124  1.6430
   81SOPE   C37 7423   5.726   1.177   5.970  0.6884  0.6541 -0.0347
   81SOPE   H7X 7424   5.638   1.240   5.994 -1.4986 -3.0987  2.8501
   81SOPE   H7Y 7425   5.699   1.079   5.926  0.4200  0.1743  1.1616
   81SOPE   C38 7426   5.817   1.234   5.858 -0.3016  0.5479 -0.7064
   81SOPE   H8X 7427   5.910   1.177   5.878 -1.1064 -0.6092 -0.1064
   81SOPE   H8Y 7428   5.840   1.342   5.875 -0.0462  0.1748  1.6205
   81SOPE   C39 7429   5.746   1.215   5.724 -0.5053  0.1219  0.2343
   81SOPE   H9X 7430   5.775   1.292   5.650 -0.7562 -0.8946 -0.9600
   81SOPE   H9Y 7431   5.637   1.233   5.738 -0.0478  1.6991  2.2016
   81SOPE  C310 7432   5.765   1.077   5.657 -0.0745 -0.4235  0.7519
   81SOPE  H10X 7433   5.674   1.047   5.601 -0.3486  0.6573  0.5815
   81SOPE  H10Y 7434   5.772   1.010   5.745 -0.0693  0.1468  1.1953
   81SOPE  C311 7435   5.892   1.079   5.564 -0.2223 -0.3796 -0.3188
   81SOPE  H11X 7436   5.910   0.978   5.523  0.7888  0.0338 -0.9364
   81SOPE  H11Y 7437   5.982   1.099   5.627  2.8227 -2.3817 -3.6512
   81SOPE  C312 7438   5.886   1.185   5.455 -0.3187  0.4655 -0.3115
   81SOPE  H12X 7439   5.909   1.289   5.490  4.0755  0.4928 -2.4991
   81SOPE  H12Y 7440   5.784   1.182   5.412 -0.3121 -0.4309 -0.2796
   81SOPE  C313 7441   5.967   1.146   5.333 -0.1327  0.0128  0.5607
   81SOPE  H13X 7442   5.928   1.049   5.295  0.0636  0.5133 -0.9864
   81SOPE  H13Y 7443   6.072   1.121   5.361 -0.2106 -0.3256  0.5527
   81SOPE  C314 7444   5.972   1.248   5.210  0.2947 -0.7457 -0.1707
   81SOPE  H14X 7445   5.874   1.297   5.195 -0.3288 -1.5479  1.1074
   81SOPE  H14Y 7446   5.987   1.187   5.118  0.3484 -1.2224  0.1469
   81SOPE  C315 7447   6.079   1.357   5.221  0.4919  0.1267 -0.5966
   81SOPE  H15X 7448   6.177   1.308   5.241  1.7837  1.7349 -2.6046
   81SOPE  H15Y 7449   6.076   1.418   5.314  1.1647  0.3846 -0.7418
   81SOPE  C316 7450   6.116   1.441   5.099  0.3953 -0.5355  0.1976
   81SOPE  H16X 7451   6.174   1.529   5.136 -0.3762 -0.6071  1.6622
   81SOPE  H16Y 7452   6.022   1.488   5.063 -0.9300 -2.3841  1.1015
   81SOPE  C317 7453   6.197   1.369   4.996  0.2890 -0.3823  0.7934
   81SOPE  H17X 7454   6.141   1.289   4.943 -1.1624 -0.4884  2.4255
   81SOPE  H17Y 7455   6.279   1.321   5.054 -0.4634  0.7862  2.9396
   81SOPE  C318 7456   6.258   1.460   4.893  0.3356  0.4106 -0.4273
   81SOPE  H18X 7457   6.321   1.393   4.831  0.1948  0.1275 -0.2664
   81SOPE  H18Y 7458   6.317   1.531   4.955  3.7731 -0.4247 -2.4918
   81SOPE  H18Z 7459   6.186   1.516   4.829  0.2327 -0.0376 -0.7032
   82SOPE     N 7460   2.688   5.723   6.895  0.1159  0.8874  0.6099
   82SOPE   HN1 7461   2.676   5.646   6.826  0.3749  3.7792 -2.9859
   82SOPE   HN2 7462   2.786   5.745   6.921  0.8546 -1.0379 -0.3523
   82SOPE   HN3 7463   2.647   5.691   6.985 -1.2174 -1.3796 -0.7058
   82SOPE   C12 7464   2.610   5.845   6.861  0.2750 -0.0522  0.0178
   82SOPE  H12A 7465   2.657   5.901   6.778  0.4663 -1.4898 -0.8854
   82SOPE  H12B 7466   2.612   5.913   6.949  1.1376  2.3662 -1.7529
   82SOPE   C11 7467   2.479   5.809   6.797 -0.3634 -0.0668  0.3801
   82SOPE  H11A 7468   2.489   5.767   6.694 -2.0242 -1.0928  0.5965
   82SOPE  H11B 7469   2.426   5.903   6.771 -0.5989  0.0906  1.3783
   82SOPE     P 7470   2.318   5.770   7.006  0.3988  0.3558  0.1442
   82SOPE   O13 7471   2.390   5.873   7.077  0.1178 -0.2015  0.1167
   82SOPE   O14 7472   2.274   5.650   7.090 -0.9831  0.3715 -0.4567
   82SOPE   O12 7473   2.399   5.719   6.884  0.1847 -0.4295  0.1561
   82SOPE   O11 7474   2.197   5.843   6.937  0.0629 -0.5131 -0.3806
   82SOPE    C1 7475   2.100   5.779   6.854 -0.5808  0.0578 -0.3278
   82SOPE    HA 7476   2.004   5.800   6.906 -0.3893  0.5132 -0.1472
   82SOPE    HB 7477   2.120   5.670   6.843 -1.9588 -0.1353 -1.1486
   82SOPE    C2 7478   2.089   5.847   6.713  0.6115 -0.0357  0.6481
   82SOPE    HS 7479   2.176   5.817   6.650  1.6521  2.0769  0.9862
   82SOPE   O21 7480   2.077   5.987   6.739 -0.6348  0.0660 -0.2643
   82SOPE   C21 7481   2.170   6.072   6.677 -0.6668 -0.0884 -0.0330
   82SOPE   O22 7482   2.258   6.027   6.604  0.1743  0.2684 -0.1399
   82SOPE   C22 7483   2.166   6.213   6.714  0.6835 -0.3941  0.1482
   82SOPE   H2R 7484   2.273   6.241   6.719  0.1070  1.8411  1.4228
   82SOPE   H2S 7485   2.106   6.214   6.807 -2.8223 -0.5646 -1.9322
   82SOPE    C3 7486   1.963   5.793   6.626  0.0340  0.1587  0.1715
   82SOPE    HX 7487   1.868   5.815   6.680  0.6582  2.2612  0.5344
   82SOPE    HY 7488   1.971   5.683   6.611 -0.2449 -0.3020  2.8898
   82SOPE   O31 7489   1.974   5.853   6.492 -0.3891 -0.0841  0.0573
   82SOPE   C31 7490   1.859   5.877   6.426  0.6084  0.3354 -0.4706
   82SOPE   O32 7491   1.747   5.860   6.477 -0.2225  0.3431  0.7435
   82SOPE   C32 7492   1.883   5.942   6.292 -0.2132 -0.3025  0.5008
   82SOPE   H2X 7493   1.978   5.901   6.251  0.3333  2.0335 -0.7010
   82SOPE   H2Y 7494   1.908   6.049   6.306 -0.7918 -0.1847  0.6668
   82SOPE   C23 7495   2.093   6.303   6.605  0.0030 -0.0522 -0.7530
   82SOPE   H3R 7496   2.095   6.410   6.637  0.9442  0.1907 -1.5491
   82SOPE   H3S 7497   1.986   6.275   6.614 -0.2000  0.7146 -0.6948
   82SOPE   C24 7498   2.142   6.288   6.461 -0.0440 -0.0520  0.4042
   82SOPE   H4R 7499   2.252   6.290   6.452 -0.1673 -0.6664 -2.3774
   82SOPE   H4S 7500   2.125   6.185   6.422  1.8624 -0.4440  0.5306
   82SOPE   C25 7501   2.077   6.382   6.365  0.6355 -0.7589  0.0971
   82SOPE   H5R 7502   1.973   6.401   6.399  0.6595  2.0112 -1.1531
   82SOPE   H5S 7503   2.123   6.482   6.379 -1.4007  0.0769  1.2863
   82SOPE   C26 7504   2.088   6.335   6.215 -0.6634  0.2780 -0.1635
   82SOPE   H6R 7505   2.196   6.314   6.201 -1.0319 -2.4547  0.6019
   82SOPE   H6S 7506   2.032   6.239   6.211 -1.8383  0.9649 -0.7364
   82SOPE   C27 7507   2.038   6.430   6.117  0.0296 -0.7926  0.2111
   82SOPE   H7R 7508   1.944   6.476   6.156  0.3395 -0.1330  0.1944
   82SOPE   H7S 7509   2.105   6.518   6.123  2.1897 -2.3347 -0.1322
   82SOPE   C28 7510   2.024   6.382   5.965 -0.1493  0.2810  0.2963
   82SOPE   H8R 7511   1.947   6.303   5.957 -0.7659  0.8813  0.2080
   82SOPE   H8S 7512   1.971   6.468   5.918  0.2230 -0.5560 -1.7581
   82SOPE   C29 7513   2.151   6.342   5.892  1.1567 -0.3291 -0.0294
   82SOPE   H91 7514   2.225   6.298   5.962  0.3593  1.0379  1.7619
   82SOPE  C210 7515   2.171   6.382   5.770 -0.7725 -0.0859 -0.9446
   82SOPE  H101 7516   2.266   6.351   5.724  0.0900 -0.6446  1.0879
   82SOPE  C211 7517   2.082   6.443   5.668 -0.1510 -0.4751 -0.1848
   82SOPE  H11R 7518   2.116   6.547   5.650 -1.1791 -0.0617  0.2010
   82SOPE  H11S 7519   1.982   6.455   5.716 -0.8014  1.4250 -1.8558
   82SOPE  C212 7520   2.059   6.364   5.528  0.4710 -0.3600  0.0470
   82SOPE  H12R 7521   1.967   6.407   5.482  0.4011 -0.3008  0.2420
   82SOPE  H12S 7522   2.036   6.258   5.553 -0.2345 -0.9726 -2.7844
   82SOPE  C213 7523   2.169   6.392   5.428 -0.9061  0.0192  0.2472
   82SOPE  H13R 7524   2.267   6.351   5.462 -0.2260  0.7967 -0.7334
   82SOPE  H13S 7525   2.179   6.502   5.431 -1.2256  0.0639 -0.2071
   82SOPE  C214 7526   2.152   6.344   5.282  0.0049  0.4639  0.1405
   82SOPE  H14R 7527   2.236   6.381   5.219 -0.2787  2.0716  0.6596
   82SOPE  H14S 7528   2.059   6.397   5.252  0.6711  1.1743 -0.7372
   82SOPE  C215 7529   2.144   6.194   5.271  0.3076 -0.2038  0.4683
   82SOPE  H15R 7530   2.054   6.158   5.326 -0.6646  0.2959 -0.7662
   82SOPE  H15S 7531   2.238   6.153   5.315  1.6329  1.9108 -0.2779
   82SOPE  C216 7532   2.136   6.141   5.129 -0.0244 -0.3725 -0.0237
   82SOPE  H16R 7533   2.227   6.172   5.074 -0.5079  0.4193 -0.4022
   82SOPE  H16S 7534   2.057   6.197   5.074  1.5485  1.9867 -0.0267
   82SOPE  C217 7535   2.113   5.994   5.112  0.2300  1.3735 -0.1883
   82SOPE  H17R 7536   2.045   5.955   5.191  0.5291  0.2334 -0.4725
   82SOPE  H17S 7537   2.207   5.934   5.119 -0.9989 -0.5118  0.8977
   82SOPE  C218 7538   2.046   5.963   4.979  0.1038  0.4807  0.2021
   82SOPE  H18R 7539   2.002   5.861   4.979 -0.8649  0.8388 -2.0679
   82SOPE  H18S 7540   2.117   5.981   4.896 -1.9153  0.4466 -1.6110
   82SOPE  H18T 7541   1.967   6.040   4.967  1.7331  1.8507 -3.1293
   82SOPE   C33 7542   1.781   5.929   6.179  0.3729  0.5505  0.0327
   82SOPE   H3X 7543   1.705   6.009   6.194 -0.6822 -0.7838  2.4342
   82SOPE   H3Y 7544   1.720   5.838   6.195 -0.7459  0.5469 -3.3463
   82SOPE   C34 7545   1.846   5.935   6.042 -0.1635 -0.1112 -0.0975
   82SOPE   H4X 7546   1.935   5.870   6.048  0.2034  0.1490 -1.9823
   82SOPE   H4Y 7547   1.883   6.036   6.015  3.7420 -1.5646 -0.7678
   82SOPE   C35 7548   1.754   5.892   5.935 -0.2807 -0.3421  0.0777
   82SOPE   H5X 7549   1.660   5.950   5.924 -0.4980 -0.6707  0.2065
   82SOPE   H5Y 7550   1.709   5.792   5.953 -2.2892  0.4338 -0.4452
   82SOPE   C36 7551   1.832   5.910   5.796  0.5338  0.0898 -0.0643
   82SOPE   H6X 7552   1.931   5.859   5.807  0.8982  0.5315 -1.1797
   82SOPE   H6Y 7553   1.844   6.019   5.778 -1.9352  0.2178 -1.3306
   82SOPE   C37 7554   1.776   5.839   5.681 -0.0180  0.7044  1.3388
   82SOPE   H7X 7555   1.669   5.869   5.680  0.0681  1.0323  1.7543
   82SOPE   H7Y 7556   1.788   5.730   5.698  0.4287  0.4974 -0.1422
   82SOPE   C38 7557   1.823   5.872   5.532 -0.1535  0.6144  0.0218
   82SOPE   H8X 7558   1.933   5.890   5.534 -0.2637  1.2870  0.4368
   82SOPE   H8Y 7559   1.777   5.967   5.498 -2.0313 -0.0144  0.7211
   82SOPE   C39 7560   1.790   5.761   5.432 -0.2488 -0.7267  0.2374
   82SOPE   H9X 7561   1.681   5.742   5.420  0.0265 -2.6233  0.4197
   82SOPE   H9Y 7562   1.835   5.669   5.474 -0.1430 -0.7039  0.1730
   82SOPE  C310 7563   1.843   5.788   5.294  0.1036  0.0355 -0.5015
   82SOPE  H10X 7564   1.952   5.803   5.305 -0.1542  0.3013  2.2066
   82SOPE  H10Y 7565   1.798   5.881   5.255  1.2320  1.4565  1.4245
   82SOPE  C311 7566   1.827   5.674   5.196 -0.3559  0.0382 -0.0751
   82SOPE  H11X 7567   1.871   5.581   5.238 -0.9019 -0.9110 -1.5234
   82SOPE  H11Y 7568   1.896   5.705   5.115 -0.2808 -3.0227 -1.3492
   82SOPE  C312 7569   1.681   5.667   5.155  1.0276 -1.2247 -0.0338
   82SOPE  H12X 7570   1.646   5.771   5.134 -0.1342 -2.0249 -2.4763
   82SOPE  H12Y 7571   1.623   5.647   5.247 -2.5788 -1.2065 -2.0958
   82SOPE  C313 7572   1.648   5.586   5.032  0.2445  0.3537  0.2420
   82SOPE  H13X 7573   1.673   5.479   5.048  0.4171  0.5722  1.4930
   82SOPE  H13Y 7574   1.707   5.629   4.948  2.3657 -1.6049  0.6193
   82SOPE  C314 7575   1.496   5.596   4.990  0.3776  1.0762  0.3036
   82SOPE  H14X 7576   1.419   5.563   5.063  0.6308 -0.1240  0.0377
   82SOPE  H14Y 7577   1.470   5.528   4.907 -1.5687 -0.3079  1.9444
   82SOPE  C315 7578   1.448   5.735   4.956 -0.1970  0.1179  0.2059
   82SOPE  H15X 7579   1.529   5.808   4.935 -0.0599 -0.4398 -1.2909
   82SOPE  H15Y 7580   1.392   5.776   5.043 -0.4534 -0.4071  0.2906
   82SOPE  C316 7581   1.351   5.729   4.833  0.3552  0.3647 -0.1927
   82SOPE  H16X 7582   1.279   5.646   4.848  1.7280 -0.7403  0.5030
   82SOPE  H16Y 7583   1.412   5.710   4.743 -0.7152  0.0353 -0.8646
   82SOPE  C317 7584   1.261   5.851   4.811  0.0858  0.3853 -0.5457
   82SOPE  H17X 7585   1.330   5.921   4.760  1.5828 -1.9011 -1.8587
   82SOPE  H17Y 7586   1.224   5.886   4.909 -1.8639  1.6442 -1.6638
   82SOPE  C318 7587   1.146   5.824   4.718 -0.3818 -0.5198 -0.5793
   82SOPE  H18X 7588   1.099   5.921   4.689  3.4404  0.9421 -2.6084
   82SOPE  H18Y 7589   1.079   5.752   4.768  1.2843 -1.6224  0.1583
   82SOPE  H18Z 7590   1.183   5.782   4.622 -1.5134 -0.3483 -1.1075
   83SOPE     N 7591   0.438   3.871   2.637 -0.2610 -0.4204  0.3166
   83SOPE   HN1 7592   0.386   3.876   2.547  2.3172 -1.1790 -1.3068
   83SOPE   HN2 7593   0.509   3.797   2.619  1.1748  0.7324  1.0783
   83SOPE   HN3 7594   0.370   3.843   2.711 -1.6079  1.0819 -0.2868
   83SOPE   C12 7595   0.498   4.012   2.655  0.2499  0.5760 -0.1242
   83SOPE  H12A 7596   0.558   4.030   2.563 -0.5987 -1.9142 -1.2660
   83SOPE  H12B 7597   0.556   4.014   2.749  0.2045  1.2021 -0.1053
   83SOPE   C11 7598   0.385   4.115   2.663  0.2698 -0.0394 -0.1918
   83SOPE  H11A 7599   0.338   4.111   2.563  3.1527 -1.6443 -1.6035
   83SOPE  H11B 7600   0.441   4.210   2.678  0.7677 -0.4763  0.8178
   83SOPE     P 7601   0.147   4.131   2.793  0.2310  0.3863  0.3230
   83SOPE   O13 7602   0.052   4.019   2.799  0.3693 -0.5950  0.1239
   83SOPE   O14 7603   0.118   4.232   2.690  0.3080 -0.1098 -0.5305
   83SOPE   O12 7604   0.300   4.081   2.773  0.6291  0.1101 -0.1440
   83SOPE   O11 7605   0.151   4.211   2.921  0.3177 -0.1570  0.3331
   83SOPE    C1 7606   0.264   4.202   3.005 -0.0479 -0.1478 -0.0090
   83SOPE    HA 7607   0.326   4.293   3.002  0.2941 -0.4219 -2.0810
   83SOPE    HB 7608   0.330   4.115   2.983  1.4743  0.9889 -0.0639
   83SOPE    C2 7609   0.224   4.201   3.151 -0.0661 -0.6871 -0.0365
   83SOPE    HS 7610   0.164   4.113   3.182 -0.5107 -0.2793  0.2792
   83SOPE   O21 7611   0.152   4.326   3.182 -0.6224 -0.3167  0.5235
   83SOPE   C21 7612   0.035   4.303   3.221  1.1947 -0.2528 -0.5713
   83SOPE   O22 7613  -0.020   4.196   3.232  0.4768 -0.3895  0.5044
   83SOPE   C22 7614  -0.013   4.433   3.281 -0.8871  0.1486  0.1964
   83SOPE   H2R 7615  -0.078   4.484   3.206 -0.6185  0.5890  0.2589
   83SOPE   H2S 7616   0.077   4.495   3.300  0.0290 -1.4920  1.3942
   83SOPE    C3 7617   0.359   4.196   3.237 -0.0815  0.1090  0.5289
   83SOPE    HX 7618   0.409   4.295   3.232 -1.2565  0.7079  0.2780
   83SOPE    HY 7619   0.410   4.111   3.186 -2.7757 -2.3698  1.6943
   83SOPE   O31 7620   0.321   4.143   3.366 -0.1995  0.5519 -0.3839
   83SOPE   C31 7621   0.314   4.235   3.462 -0.6184 -0.0299 -0.7743
   83SOPE   O32 7622   0.354   4.347   3.453 -0.3314 -0.5745 -0.6364
   83SOPE   C32 7623   0.242   4.179   3.584  0.1790  0.5283  0.1061
   83SOPE   H2X 7624   0.304   4.100   3.632 -0.1230  0.4859  0.4300
   83SOPE   H2Y 7625   0.146   4.139   3.545 -0.4636  2.0059  0.1009
   83SOPE   C23 7626  -0.097   4.426   3.412  0.0526  0.1018 -0.1752
   83SOPE   H3R 7627  -0.083   4.331   3.467 -0.6626 -0.5487 -1.0812
   83SOPE   H3S 7628  -0.204   4.433   3.384  0.3659  0.5185 -1.3542
   83SOPE   C24 7629  -0.064   4.539   3.496 -0.3190  0.2155 -0.6251
   83SOPE   H4R 7630   0.036   4.522   3.541  0.2913  1.1777 -1.5852
   83SOPE   H4S 7631  -0.072   4.624   3.424 -4.0769 -0.0039 -0.6842
   83SOPE   C25 7632  -0.158   4.572   3.615  0.4792 -0.1113 -0.5013
   83SOPE   H5R 7633  -0.120   4.669   3.654 -0.5785  0.8654 -1.7979
   83SOPE   H5S 7634  -0.262   4.579   3.575  0.6511 -0.8197 -1.0930
   83SOPE   C26 7635  -0.138   4.465   3.723  0.0931  0.1332  0.1109
   83SOPE   H6R 7636  -0.157   4.365   3.680  1.2212 -1.4056  2.9202
   83SOPE   H6S 7637  -0.034   4.461   3.760  0.6887  0.4971 -1.4495
   83SOPE   C27 7638  -0.219   4.489   3.858 -0.6084 -0.0266  0.6067
   83SOPE   H7R 7639  -0.185   4.588   3.897 -1.8854  0.5090  0.4251
   83SOPE   H7S 7640  -0.328   4.504   3.838 -0.5756  0.9707  1.0775
   83SOPE   C28 7641  -0.190   4.383   3.968  0.4279 -0.0447 -0.3754
   83SOPE   H8R 7642  -0.198   4.280   3.928  1.3413  0.2084 -1.2451
   83SOPE   H8S 7643  -0.083   4.404   3.988  0.1499  0.3933  0.7171
   83SOPE   C29 7644  -0.266   4.387   4.092  0.7571 -0.3770 -0.7709
   83SOPE   H91 7645  -0.374   4.384   4.068  0.5242 -1.8410  0.3046
   83SOPE  C210 7646  -0.233   4.413   4.224  0.1616 -0.1867  0.1127
   83SOPE  H101 7647  -0.318   4.420   4.294  1.6445  2.7886  1.8007
   83SOPE  C211 7648  -0.099   4.435   4.291  0.1749  0.1764 -0.6669
   83SOPE  H11R 7649  -0.016   4.444   4.218 -0.7239  1.5721 -1.5572
   83SOPE  H11S 7650  -0.066   4.338   4.334  0.4665  0.0185 -1.2256
   83SOPE  C212 7651  -0.093   4.541   4.394 -0.5945  0.3277  0.2844
   83SOPE  H12R 7652  -0.109   4.641   4.349 -1.1836 -0.1965 -0.7140
   83SOPE  H12S 7653   0.007   4.538   4.442 -1.0439  0.6483  1.2568
   83SOPE  C213 7654  -0.185   4.514   4.522  0.7746 -0.0268 -0.1990
   83SOPE  H13R 7655  -0.292   4.509   4.491  0.6937  0.7727 -0.0438
   83SOPE  H13S 7656  -0.159   4.606   4.578  2.0592 -0.2274 -0.4338
   83SOPE  C214 7657  -0.143   4.397   4.604 -0.6202 -0.1727 -0.1102
   83SOPE  H14R 7658  -0.032   4.395   4.611 -0.6579  1.1570  1.4624
   83SOPE  H14S 7659  -0.173   4.298   4.562 -1.2485  0.4642 -1.2196
   83SOPE  C215 7660  -0.190   4.408   4.750  0.6771  0.1588 -0.0091
   83SOPE  H15R 7661  -0.295   4.380   4.773  0.1813  1.3971 -0.6688
   83SOPE  H15S 7662  -0.176   4.514   4.783 -1.0622  0.8863 -1.4598
   83SOPE  C216 7663  -0.103   4.330   4.844  0.7275 -0.7893 -0.6705
   83SOPE  H16R 7664  -0.135   4.353   4.948  1.7910  1.4987 -0.7791
   83SOPE  H16S 7665   0.004   4.358   4.830  0.3393  1.2561  0.0924
   83SOPE  C217 7666  -0.116   4.175   4.824 -0.3743  0.1939  0.4473
   83SOPE  H17R 7667  -0.105   4.148   4.717  0.3701  0.1631  0.5267
   83SOPE  H17S 7668  -0.218   4.138   4.850  0.7438 -4.4009 -0.8068
   83SOPE  C218 7669  -0.025   4.083   4.908  0.1732  0.2632 -0.6735
   83SOPE  H18R 7670  -0.028   3.985   4.855  0.9887 -1.4840  2.2569
   83SOPE  H18S 7671  -0.066   4.060   5.009 -1.4027  0.7948 -1.1616
   83SOPE  H18T 7672   0.075   4.129   4.920 -0.1654  0.7492  0.4427
   83SOPE   C33 7673   0.202   4.276   3.697  0.2122 -0.2539 -0.2750
   83SOPE   H3X 7674   0.110   4.331   3.671  1.1872  1.4168 -0.3249
   83SOPE   H3Y 7675   0.290   4.344   3.703  0.8452 -0.8249 -2.3569
   83SOPE   C34 7676   0.195   4.197   3.828  0.7972 -0.8906  0.3193
   83SOPE   H4X 7677   0.215   4.263   3.915  1.4553 -1.7967  0.8689
   83SOPE   H4Y 7678   0.272   4.117   3.837  1.3037 -0.5230 -0.5821
   83SOPE   C35 7679   0.059   4.134   3.853  0.2477 -0.1610  0.3044
   83SOPE   H5X 7680   0.024   4.067   3.771 -0.5371  0.7844 -0.1486
   83SOPE   H5Y 7681  -0.010   4.220   3.861 -1.1142 -1.4218  4.1973
   83SOPE   C36 7682   0.066   4.048   3.977  0.6710 -0.4829  0.7988
   83SOPE   H6X 7683   0.078   4.104   4.072 -2.4638  4.0557 -1.1564
   83SOPE   H6Y 7684   0.142   3.969   3.960  0.2325 -0.8787  0.6554
   83SOPE   C37 7685  -0.070   3.981   3.999 -0.4735 -0.1525  0.0943
   83SOPE   H7X 7686  -0.073   3.881   3.952  0.3841 -0.1368 -0.0184
   83SOPE   H7Y 7687  -0.151   4.041   3.954  0.5031 -0.8422 -2.8311
   83SOPE   C38 7688  -0.097   3.964   4.150 -0.1854  0.0222 -0.2586
   83SOPE   H8X 7689  -0.200   3.922   4.150 -0.5129  0.7365  1.6993
   83SOPE   H8Y 7690  -0.098   4.063   4.200  0.6596  2.3924 -4.4558
   83SOPE   C39 7691  -0.012   3.850   4.214  0.3591 -0.2661  0.5102
   83SOPE   H9X 7692   0.096   3.876   4.220  0.0432  1.1007  0.6834
   83SOPE   H9Y 7693  -0.023   3.754   4.160 -1.1947  1.1591 -1.9101
   83SOPE  C310 7694  -0.052   3.825   4.357  0.4980 -0.4892 -0.3677
   83SOPE  H10X 7695  -0.156   3.788   4.354  0.9440 -1.8999  0.6154
   83SOPE  H10Y 7696  -0.066   3.918   4.416 -0.5058 -0.3782 -0.7716
   83SOPE  C311 7697   0.034   3.726   4.432  0.3720  0.1164 -0.6441
   83SOPE  H11X 7698   0.134   3.770   4.410  1.1185 -1.4933 -0.6168
   83SOPE  H11Y 7699   0.046   3.630   4.377  0.7470  1.6604 -3.4904
   83SOPE  C312 7700   0.001   3.722   4.585  0.1746  0.7254 -0.3239
   83SOPE  H12X 7701  -0.096   3.669   4.589  0.3465  0.3726 -0.6583
   83SOPE  H12Y 7702  -0.014   3.825   4.623 -4.3730 -0.0286  0.4432
   83SOPE  C313 7703   0.109   3.644   4.663  0.5824  0.2563  1.0797
   83SOPE  H13X 7704   0.199   3.709   4.670 -0.2274  1.6379 -0.4475
   83SOPE  H13Y 7705   0.136   3.560   4.596  0.1406  1.5267 -0.7679
   83SOPE  C314 7706   0.068   3.593   4.802 -0.4727 -0.4951 -0.7252
   83SOPE  H14X 7707   0.148   3.547   4.863 -1.2860  0.2233  0.9477
   83SOPE  H14Y 7708  -0.003   3.511   4.778 -0.2358 -0.2738 -2.3006
   83SOPE  C315 7709   0.008   3.699   4.904 -0.3458  0.4626  0.1885
   83SOPE  H15X 7710  -0.054   3.649   4.982 -0.8648  1.7898  0.6548
   83SOPE  H15Y 7711  -0.062   3.763   4.846 -0.4672 -0.1973 -0.4096
   83SOPE  C316 7712   0.121   3.786   4.968 -0.1123  0.6888  0.7868
   83SOPE  H16X 7713   0.142   3.862   4.890  0.7899 -1.3971 -1.1160
   83SOPE  H16Y 7714   0.215   3.727   4.973 -0.1515  0.5617  0.0951
   83SOPE  C317 7715   0.102   3.847   5.105  0.0935 -0.2417 -0.0148
   83SOPE  H17X 7716  -0.001   3.886   5.120  0.6578  0.7915  1.3959
   83SOPE  H17Y 7717   0.177   3.928   5.110  1.3095 -1.2340 -1.4536
   83SOPE  C318 7718   0.140   3.751   5.216 -0.1818  0.4704 -0.4947
   83SOPE  H18X 7719   0.249   3.727   5.219 -0.4543 -0.6610  1.0434
   83SOPE  H18Y 7720   0.081   3.657   5.216 -0.0399  0.2633  3.1839
   83SOPE  H18Z 7721   0.130   3.802   5.314 -2.6711 -1.1222  0.1630
   84SOPE     N 7722   4.588   1.334   2.725 -0.3238 -0.1798 -0.2206
   84SOPE   HN1 7723   4.543   1.299   2.812 -0.6528 -0.6611 -0.5822
   84SOPE   HN2 7724   4.683   1.364   2.754 -0.4439 -2.6522  3.4164
   84SOPE   HN3 7725   4.529   1.409   2.686 -3.5764 -1.1838  2.3301
   84SOPE   C12 7726   4.597   1.210   2.636 -0.0280  0.0925  0.4209
   84SOPE  H12A 7727   4.687   1.152   2.666  0.4032 -0.7792 -2.3044
   84SOPE  H12B 7728   4.615   1.232   2.529  1.1543  0.4362  0.6748
   84SOPE   C11 7729   4.470   1.116   2.648  0.0155 -0.2022 -0.0331
   84SOPE  H11A 7730   4.469   1.054   2.556  3.0307 -1.5871  0.7514
   84SOPE  H11B 7731   4.382   1.182   2.664 -2.3765 -3.0860 -0.4001
   84SOPE     P 7732   4.386   0.918   2.771  0.3147  0.0917 -0.0001
   84SOPE   O13 7733   4.413   0.838   2.650 -0.0458 -0.6323 -0.1863
   84SOPE   O14 7734   4.252   0.975   2.786  0.1495 -0.1608 -0.0683
   84SOPE   O12 7735   4.489   1.038   2.769 -0.4248 -0.0431 -0.7471
   84SOPE   O11 7736   4.430   0.850   2.905 -0.1060  0.2644  0.4904
   84SOPE    C1 7737   4.382   0.893   3.031 -0.0126  0.3533  0.1734
   84SOPE    HA 7738   4.427   0.832   3.113  1.0921  1.3572  0.3239
   84SOPE    HB 7739   4.272   0.879   3.041  0.2114  0.2393  3.4516
   84SOPE    C2 7740   4.424   1.040   3.059 -0.6499  0.1983 -0.1528
   84SOPE    HS 7741   4.374   1.102   2.982 -1.0946 -0.3422 -0.3033
   84SOPE   O21 7742   4.565   1.052   3.051 -0.1872 -0.0778 -0.1863
   84SOPE   C21 7743   4.615   1.170   3.018  0.7830  0.1046  0.7034
   84SOPE   O22 7744   4.546   1.260   2.971  0.0640  0.8364  0.0434
   84SOPE   C22 7745   4.765   1.162   3.039  0.2724 -0.2368 -0.1047
   84SOPE   H2R 7746   4.809   1.146   2.938 -2.5477  1.3334 -1.7214
   84SOPE   H2S 7747   4.779   1.075   3.106 -0.7835 -0.1243  0.2754
   84SOPE    C3 7748   4.369   1.104   3.202 -0.3343  0.5549 -0.0346
   84SOPE    HX 7749   4.429   1.062   3.285  0.0769 -0.7605 -0.9681
   84SOPE    HY 7750   4.263   1.072   3.216 -0.3640 -0.6091 -2.5431
   84SOPE   O31 7751   4.401   1.251   3.202  0.3729  0.8074 -0.5260
   84SOPE   C31 7752   4.308   1.336   3.170 -0.4524  0.4000 -0.0730
   84SOPE   O32 7753   4.198   1.311   3.125  0.0673  0.2508  0.1045
   84SOPE   C32 7754   4.373   1.475   3.178  0.3341 -0.0264 -0.7928
   84SOPE   H2X 7755   4.311   1.532   3.106 -1.5719  1.4471  1.8222
   84SOPE   H2Y 7756   4.471   1.474   3.125 -1.2096  1.5161 -3.9377
   84SOPE   C23 7757   4.818   1.291   3.109 -0.8423  0.0398  0.5731
   84SOPE   H3R 7758   4.775   1.385   3.067 -2.2373 -0.9141 -0.2561
   84SOPE   H3S 7759   4.928   1.306   3.109 -0.8337  0.1227  2.2110
   84SOPE   C24 7760   4.767   1.296   3.260  0.1181 -0.2275  0.3207
   84SOPE   H4R 7761   4.768   1.405   3.280  0.0741  0.0888 -1.2877
   84SOPE   H4S 7762   4.663   1.261   3.272  0.3255 -1.0634 -0.1851
   84SOPE   C25 7763   4.851   1.204   3.347 -0.3028 -0.3282  0.3862
   84SOPE   H5R 7764   4.856   1.100   3.310  2.7454 -0.4375  0.8367
   84SOPE   H5S 7765   4.952   1.250   3.346 -0.8474  0.9106  0.5506
   84SOPE   C26 7766   4.795   1.195   3.483 -0.6940  0.2469 -0.3273
   84SOPE   H6R 7767   4.782   1.295   3.532  0.8675  0.0015  0.6752
   84SOPE   H6S 7768   4.698   1.141   3.480 -0.3515 -0.4667  0.7495
   84SOPE   C27 7769   4.887   1.106   3.571  0.1381 -0.6905 -0.0684
   84SOPE   H7R 7770   4.865   1.004   3.532 -1.6942 -0.4229  0.2132
   84SOPE   H7S 7771   4.992   1.135   3.546 -0.8082  1.6758 -1.6190
   84SOPE   C28 7772   4.869   1.122   3.726 -0.2414 -0.3267  0.2512
   84SOPE   H8R 7773   4.946   1.062   3.779 -1.6159  0.5900  3.4834
   84SOPE   H8S 7774   4.864   1.230   3.748 -0.7833  0.4201 -3.0397
   84SOPE   C29 7775   4.734   1.068   3.777 -0.8762 -0.3984  0.6430
   84SOPE   H91 7776   4.666   1.154   3.792 -1.3222 -0.8535  1.2582
   84SOPE  C210 7777   4.698   0.940   3.800  0.3037  0.1920  0.2350
   84SOPE  H101 7778   4.589   0.930   3.812  0.3165  1.4454  1.6380
   84SOPE  C211 7779   4.767   0.814   3.799 -0.7949  0.2021 -0.8600
   84SOPE  H11R 7780   4.873   0.822   3.765  0.2265  0.0971  1.9711
   84SOPE  H11S 7781   4.711   0.733   3.747 -0.9659 -0.1524 -0.1349
   84SOPE  C212 7782   4.790   0.766   3.947 -0.2982 -0.3111 -0.2232
   84SOPE  H12R 7783   4.803   0.656   3.941 -0.3867 -0.2778 -1.2312
   84SOPE  H12S 7784   4.700   0.791   4.007  0.6295 -0.4026  1.2551
   84SOPE  C213 7785   4.912   0.823   4.022  0.3122  0.7047 -0.2927
   84SOPE  H13R 7786   4.910   0.932   4.045  1.2199  0.1698  2.7723
   84SOPE  H13S 7787   5.005   0.806   3.963  1.4895  1.7600  1.2041
   84SOPE  C214 7788   4.920   0.764   4.164 -0.1163 -0.2817 -0.3080
   84SOPE  H14R 7789   5.025   0.771   4.202 -0.6545  2.3533  0.9168
   84SOPE  H14S 7790   4.902   0.654   4.168  2.1469 -0.6753  1.0782
   84SOPE  C215 7791   4.820   0.814   4.253  0.0706  0.6076 -0.6583
   84SOPE  H15R 7792   4.714   0.802   4.222  0.7868 -2.2084 -2.3334
   84SOPE  H15S 7793   4.825   0.925   4.254  1.5939  0.5547 -0.9186
   84SOPE  C216 7794   4.834   0.762   4.396  0.4316  0.1021 -0.4441
   84SOPE  H16R 7795   4.936   0.720   4.413  1.2167  1.6578 -1.1595
   84SOPE  H16S 7796   4.762   0.678   4.407  2.1497 -1.3389  0.2797
   84SOPE  C217 7797   4.788   0.871   4.494  0.4047  0.9488  0.4731
   84SOPE  H17R 7798   4.678   0.883   4.485  0.5017  0.3247 -2.3320
   84SOPE  H17S 7799   4.835   0.969   4.467  0.9677  0.1937 -1.4543
   84SOPE  C218 7800   4.820   0.822   4.633  0.4825 -0.1109 -0.2142
   84SOPE  H18R 7801   4.930   0.806   4.641  0.6019  1.1470  1.1255
   84SOPE  H18S 7802   4.774   0.722   4.643 -4.9544  2.1231  0.9882
   84SOPE  H18T 7803   4.780   0.884   4.716  0.3075 -0.1511 -0.2686
   84SOPE   C33 7804   4.371   1.549   3.316  0.8417  0.1122 -0.3021
   84SOPE   H3X 7805   4.270   1.549   3.362  0.4001 -1.9446 -1.1577
   84SOPE   H3Y 7806   4.414   1.651   3.309  0.4263  0.5267  2.1170
   84SOPE   C34 7807   4.455   1.474   3.412  0.0507  0.5186 -0.1295
   84SOPE   H4X 7808   4.556   1.461   3.366 -1.1680  0.7022 -3.0957
   84SOPE   H4Y 7809   4.416   1.370   3.416  0.4700  0.2856 -1.3863
   84SOPE   C35 7810   4.452   1.533   3.553 -1.2312 -0.3541  0.3192
   84SOPE   H5X 7811   4.346   1.521   3.587 -0.9365  0.3702  1.5635
   84SOPE   H5Y 7812   4.472   1.642   3.542  2.9382 -1.1942 -2.4627
   84SOPE   C36 7813   4.543   1.461   3.659  0.4802  0.1786  0.6330
   84SOPE   H6X 7814   4.648   1.486   3.636 -0.1817  2.5706 -0.0948
   84SOPE   H6Y 7815   4.528   1.351   3.653 -2.0429  0.3609  2.1156
   84SOPE   C37 7816   4.521   1.502   3.805  0.0152  0.1336 -0.0879
   84SOPE   H7X 7817   4.599   1.449   3.863 -1.0807 -1.4769 -0.0210
   84SOPE   H7Y 7818   4.418   1.468   3.831  0.0987  0.7932  1.1324
   84SOPE   C38 7819   4.530   1.647   3.811  0.1860  0.1615  0.0218
   84SOPE   H8X 7820   4.451   1.692   3.747  0.3859 -0.0608 -0.3873
   84SOPE   H8Y 7821   4.627   1.691   3.780  1.2471 -3.8712 -3.4140
   84SOPE   C39 7822   4.487   1.691   3.953  0.0067 -0.4014 -0.4917
   84SOPE   H9X 7823   4.387   1.646   3.975 -1.0244  1.1596 -1.7839
   84SOPE   H9Y 7824   4.476   1.801   3.964  1.5579 -0.2901  0.2762
   84SOPE  C310 7825   4.580   1.648   4.063  0.1858 -0.0855  0.3258
   84SOPE  H10X 7826   4.685   1.661   4.029  0.1644  1.9430  0.9071
   84SOPE  H10Y 7827   4.559   1.540   4.080  0.1730 -0.4547 -1.7950
   84SOPE  C311 7828   4.572   1.721   4.206 -0.2304 -0.2909  0.2021
   84SOPE  H11X 7829   4.556   1.829   4.190  2.3684 -0.1883 -2.6056
   84SOPE  H11Y 7830   4.672   1.702   4.251 -0.4700 -0.5716  0.6190
   84SOPE  C312 7831   4.474   1.663   4.299 -0.1295 -0.0055 -0.3021
   84SOPE  H12X 7832   4.486   1.553   4.288  0.9043  0.0787 -0.1195
   84SOPE  H12Y 7833   4.373   1.688   4.260  0.1749  1.0592 -0.4389
   84SOPE  C313 7834   4.507   1.695   4.446 -0.9345  0.1626 -0.4319
   84SOPE  H13X 7835   4.485   1.799   4.478 -2.1097 -1.0263  3.1028
   84SOPE  H13Y 7836   4.616   1.680   4.462 -1.0534 -0.6594 -0.3353
   84SOPE  C314 7837   4.434   1.588   4.530  0.1722 -0.5184  0.5948
   84SOPE  H14X 7838   4.474   1.486   4.511 -1.4620 -1.3268  1.2955
   84SOPE  H14Y 7839   4.330   1.591   4.493  0.5372 -1.5081 -0.5651
   84SOPE  C315 7840   4.423   1.616   4.679 -0.8646  0.9185  0.1498
   84SOPE  H15X 7841   4.349   1.539   4.711 -0.8151 -0.3065 -2.4054
   84SOPE  H15Y 7842   4.390   1.718   4.707  1.4496  1.5764  0.6380
   84SOPE  C316 7843   4.555   1.590   4.764 -0.4254  0.3188  0.0837
   84SOPE  H16X 7844   4.638   1.661   4.741  1.1746 -1.1757  1.0564
   84SOPE  H16Y 7845   4.590   1.486   4.753 -1.5478 -0.0025 -0.6521
   84SOPE  C317 7846   4.538   1.612   4.917  0.1060  0.2826 -0.4602
   84SOPE  H17X 7847   4.518   1.720   4.938  1.9160  0.6222 -0.3785
   84SOPE  H17Y 7848   4.632   1.582   4.968 -1.3901 -1.6916  1.3164
   84SOPE  C318 7849   4.432   1.517   4.966 -0.6357  0.2324 -0.6351
   84SOPE  H18X 7850   4.445   1.415   4.926  0.0857 -0.6020  1.5730
   84SOPE  H18Y 7851   4.336   1.558   4.926 -1.5276 -1.5502 -0.4428
   84SOPE  H18Z 7852   4.426   1.519   5.077 -0.0851  0.5323 -0.6103
   85SOPE     N 7853   6.616   3.569   2.805 -0.2001 -0.1507 -0.1825
   85SOPE   HN1 7854   6.576   3.546   2.898  1.6243  0.9624  0.9348
   85SOPE   HN2 7855   6.651   3.667   2.812  1.5388 -0.7790  0.5713
   85SOPE   HN3 7856   6.547   3.568   2.728 -0.2330 -3.0817 -0.2202
   85SOPE   C12 7857   6.719   3.467   2.773 -0.1595  0.4081 -0.0565
   85SOPE  H12A 7858   6.734   3.470   2.663 -1.3612 -1.4402 -0.3014
   85SOPE  H12B 7859   6.675   3.369   2.800 -1.1349  0.9754  0.4561
   85SOPE   C11 7860   6.840   3.493   2.864  1.0100 -0.2635  0.8739
   85SOPE  H11A 7861   6.909   3.411   2.837  0.1874 -1.0707  1.1484
   85SOPE  H11B 7862   6.808   3.488   2.971 -0.0981  0.8727  0.6188
   85SOPE     P 7863   7.034   3.657   2.910  0.0689  0.3736 -0.0554
   85SOPE   O13 7864   7.085   3.782   2.860 -0.0593 -0.7742  0.0140
   85SOPE   O14 7865   7.126   3.535   2.922 -0.4078 -0.1062 -0.2097
   85SOPE   O12 7866   6.907   3.617   2.828  0.3452 -0.4069  0.2857
   85SOPE   O11 7867   6.971   3.682   3.054  0.1676  0.0588 -0.4445
   85SOPE    C1 7868   6.907   3.801   3.090  0.6270 -0.0056  0.4263
   85SOPE    HA 7869   6.825   3.813   3.016  1.1746 -0.0072 -0.1878
   85SOPE    HB 7870   6.972   3.891   3.092 -1.4456  1.6361 -1.3892
   85SOPE    C2 7871   6.838   3.790   3.221  1.1592 -0.4802 -0.7947
   85SOPE    HS 7872   6.784   3.882   3.253 -1.0452 -2.1294  0.5576
   85SOPE   O21 7873   6.938   3.760   3.315 -0.7174 -0.6413 -0.1452
   85SOPE   C21 7874   6.928   3.818   3.432 -0.2814  0.0855 -0.1565
   85SOPE   O22 7875   6.851   3.911   3.463 -0.4805 -0.3970 -0.0075
   85SOPE   C22 7876   7.050   3.775   3.526 -0.2296  0.4586  0.5765
   85SOPE   H2R 7877   7.145   3.823   3.492 -1.0570  0.9658 -1.1364
   85SOPE   H2S 7878   7.062   3.665   3.518  0.4477  0.5911 -0.4796
   85SOPE    C3 7879   6.732   3.681   3.223  1.5480  0.1331  0.1676
   85SOPE    HX 7880   6.786   3.586   3.203  1.1705 -0.6318  2.4542
   85SOPE    HY 7881   6.658   3.693   3.141 -0.0395  1.4574  1.7195
   85SOPE   O31 7882   6.671   3.655   3.347 -0.3789 -0.3578 -0.2769
   85SOPE   C31 7883   6.577   3.745   3.403  0.1088  0.2890 -0.2978
   85SOPE   O32 7884   6.535   3.842   3.348 -0.2026 -0.1764  0.2868
   85SOPE   C32 7885   6.524   3.701   3.540 -0.2641  0.0870 -0.0244
   85SOPE   H2X 7886   6.452   3.620   3.516  1.8493 -1.4904 -1.4059
   85SOPE   H2Y 7887   6.468   3.785   3.586 -0.8677 -0.4043  0.1642
   85SOPE   C23 7888   7.037   3.812   3.675 -0.6396  0.1936 -0.3650
   85SOPE   H3R 7889   6.933   3.822   3.711 -1.2277 -0.5744 -1.7469
   85SOPE   H3S 7890   7.093   3.900   3.714  1.3448 -0.6084 -1.2154
   85SOPE   C24 7891   7.071   3.687   3.763  0.1794 -0.2768  0.6369
   85SOPE   H4R 7892   7.011   3.602   3.727  1.4760 -0.1589 -2.0560
   85SOPE   H4S 7893   7.174   3.657   3.734  0.3393  0.2418  0.6396
   85SOPE   C25 7894   7.074   3.712   3.915 -0.5052  0.0955 -0.0081
   85SOPE   H5R 7895   7.152   3.791   3.928 -0.3807 -0.0741  0.2911
   85SOPE   H5S 7896   6.977   3.753   3.949 -1.8870 -1.7399 -1.5390
   85SOPE   C26 7897   7.103   3.594   4.000 -0.0092  1.2343  0.0271
   85SOPE   H6R 7898   7.028   3.515   3.977  0.7638  0.6192 -0.4599
   85SOPE   H6S 7899   7.200   3.547   3.970 -0.2937  0.2039  0.6632
   85SOPE   C27 7900   7.093   3.615   4.154 -0.1974  0.3710  0.2301
   85SOPE   H7R 7901   7.165   3.695   4.181 -0.2498  0.8772 -1.0123
   85SOPE   H7S 7902   6.988   3.647   4.173 -0.6245 -1.8215  1.8188
   85SOPE   C28 7903   7.108   3.487   4.245  0.2617  0.1788 -0.9982
   85SOPE   H8R 7904   7.063   3.508   4.344  0.9817  2.6096 -1.1194
   85SOPE   H8S 7905   7.042   3.413   4.196  0.5308 -0.3083 -0.6351
   85SOPE   C29 7906   7.246   3.436   4.258 -0.5535  0.3281 -0.2437
   85SOPE   H91 7907   7.283   3.399   4.161 -0.5357 -0.7977  0.1791
   85SOPE  C210 7908   7.338   3.433   4.360 -0.3679 -1.1459 -0.2643
   85SOPE  H101 7909   7.436   3.384   4.352  2.2046  3.5499 -0.9144
   85SOPE  C211 7910   7.319   3.495   4.498 -1.1113  0.0905  0.2203
   85SOPE  H11R 7911   7.290   3.412   4.566 -0.7240  0.1670  0.4846
   85SOPE  H11S 7912   7.238   3.570   4.510  0.6922  1.9172  1.8369
   85SOPE  C212 7913   7.456   3.562   4.553 -0.4734 -0.6330  0.1850
   85SOPE  H12R 7914   7.502   3.617   4.468 -0.6043 -1.0950 -0.1916
   85SOPE  H12S 7915   7.520   3.473   4.570 -1.2054 -1.0250  0.9761
   85SOPE  C213 7916   7.444   3.642   4.686  0.1343  0.6638 -0.1556
   85SOPE  H13R 7917   7.381   3.583   4.756 -1.7934 -0.3993 -2.6151
   85SOPE  H13S 7918   7.394   3.741   4.672  0.2802  0.8930  0.8916
   85SOPE  C214 7919   7.578   3.677   4.756 -0.5796 -0.3679 -0.0657
   85SOPE  H14R 7920   7.621   3.761   4.698 -2.0799 -1.3667 -2.8250
   85SOPE  H14S 7921   7.638   3.583   4.755 -1.3749 -0.9185 -2.0362
   85SOPE  C215 7922   7.559   3.740   4.897  0.4228 -0.0688  1.0458
   85SOPE  H15R 7923   7.480   3.685   4.951 -1.5012  0.0250 -1.5153
   85SOPE  H15S 7924   7.542   3.849   4.886 -2.9425 -0.7069 -1.7456
   85SOPE  C216 7925   7.685   3.712   4.990  0.5141 -0.1446 -0.3005
   85SOPE  H16R 7926   7.702   3.791   5.067  0.5639 -0.8980  0.4762
   85SOPE  H16S 7927   7.782   3.705   4.936  0.8587 -0.4402  0.3405
   85SOPE  C217 7928   7.688   3.585   5.079 -0.3213 -0.0682  0.2289
   85SOPE  H17R 7929   7.679   3.501   5.007  0.1617  1.3043 -1.4895
   85SOPE  H17S 7930   7.599   3.592   5.145 -1.3907  2.8921 -1.3572
   85SOPE  C218 7931   7.817   3.566   5.164 -0.0018 -0.0964  1.1927
   85SOPE  H18R 7932   7.809   3.460   5.195 -4.7596 -0.9863 -1.9646
   85SOPE  H18S 7933   7.818   3.626   5.257 -0.5002  1.4931  0.2305
   85SOPE  H18T 7934   7.914   3.577   5.110  0.0553 -0.6583  1.1790
   85SOPE   C33 7935   6.632   3.645   3.640  0.3686  0.4024 -0.1371
   85SOPE   H3X 7936   6.700   3.730   3.664 -1.1787  1.2508  1.4961
   85SOPE   H3Y 7937   6.682   3.562   3.586 -0.2983  0.6068 -1.0749
   85SOPE   C34 7938   6.573   3.596   3.766  0.2246 -0.4192 -0.2223
   85SOPE   H4X 7939   6.503   3.511   3.747 -1.1710  0.8230 -0.8244
   85SOPE   H4Y 7940   6.523   3.674   3.826 -2.1228 -3.0748  1.5506
   85SOPE   C35 7941   6.685   3.532   3.865  0.2493  0.0180 -0.1304
   85SOPE   H5X 7942   6.731   3.617   3.919 -2.9376 -0.0880  3.1618
   85SOPE   H5Y 7943   6.758   3.486   3.795  0.1713  0.6994 -0.6644
   85SOPE   C36 7944   6.644   3.436   3.977 -0.1441  0.0426  0.3567
   85SOPE   H6X 7945   6.742   3.396   4.011  0.7437  1.9105  0.0821
   85SOPE   H6Y 7946   6.586   3.354   3.928  1.2217  0.5463 -2.2620
   85SOPE   C37 7947   6.558   3.508   4.082 -0.0887  0.4040 -0.3823
   85SOPE   H7X 7948   6.470   3.560   4.038  0.1047  0.9906 -0.0771
   85SOPE   H7Y 7949   6.623   3.582   4.133  1.5125  0.3659 -2.2660
   85SOPE   C38 7950   6.513   3.404   4.183 -0.6874  0.4545 -0.8713
   85SOPE   H8X 7951   6.470   3.312   4.137 -0.8217  1.1629 -2.1905
   85SOPE   H8Y 7952   6.435   3.451   4.246 -1.1301  0.2838 -1.2949
   85SOPE   C39 7953   6.620   3.368   4.286  0.2432  0.0949 -0.1287
   85SOPE   H9X 7954   6.669   3.462   4.318 -0.1348  0.1577  0.2652
   85SOPE   H9Y 7955   6.710   3.327   4.234 -1.1865  0.1680 -2.8571
   85SOPE  C310 7956   6.571   3.271   4.395 -0.0227  0.2467  0.2872
   85SOPE  H10X 7957   6.537   3.177   4.346  1.8015  1.1615 -3.0856
   85SOPE  H10Y 7958   6.493   3.330   4.448 -0.4009  0.2466 -0.2505
   85SOPE  C311 7959   6.678   3.237   4.493  0.7197 -0.9080 -0.9125
   85SOPE  H11X 7960   6.746   3.323   4.511 -0.2308 -0.5000  0.9890
   85SOPE  H11Y 7961   6.737   3.154   4.450 -1.6886 -0.6645 -5.2948
   85SOPE  C312 7962   6.621   3.190   4.633 -0.3726 -0.0704  0.5041
   85SOPE  H12X 7963   6.516   3.225   4.640 -0.5079 -0.5244  0.7972
   85SOPE  H12Y 7964   6.680   3.230   4.719  2.2085  0.1667 -1.2656
   85SOPE  C313 7965   6.612   3.034   4.630  0.2870 -0.1565  0.5271
   85SOPE  H13X 7966   6.712   2.997   4.598  0.2357  1.8822 -2.4022
   85SOPE  H13Y 7967   6.536   2.997   4.559 -0.5395 -1.3332  1.9749
   85SOPE  C314 7968   6.577   2.969   4.764 -0.1439  0.2136  0.3845
   85SOPE  H14X 7969   6.556   2.861   4.752  0.4603  0.2563 -1.4000
   85SOPE  H14Y 7970   6.490   3.018   4.812  0.8421  1.4871  0.9623
   85SOPE  C315 7971   6.699   2.980   4.863  0.6626  0.6477 -0.4268
   85SOPE  H15X 7972   6.661   2.955   4.964 -1.2409  2.4866 -0.5907
   85SOPE  H15Y 7973   6.740   3.083   4.866  2.4996 -0.0315 -0.9472
   85SOPE  C316 7974   6.806   2.874   4.839 -0.4094 -0.8503 -0.9339
   85SOPE  H16X 7975   6.848   2.903   4.741  0.4880 -0.0767 -0.3401
   85SOPE  H16Y 7976   6.755   2.776   4.826 -1.6637 -0.3182 -0.2338
   85SOPE  C317 7977   6.910   2.868   4.953  0.1166  0.6574 -0.5888
   85SOPE  H17X 7978   6.959   2.966   4.935  0.1986  0.6868 -0.2124
   85SOPE  H17Y 7979   6.973   2.782   4.923  0.6526  0.8853 -0.1367
   85SOPE  C318 7980   6.857   2.844   5.095  0.1902 -0.0128 -0.3068
   85SOPE  H18X 7981   6.811   2.937   5.133 -0.5484 -1.0112  1.3501
   85SOPE  H18Y 7982   6.945   2.808   5.152  0.5454 -0.9862 -1.4271
   85SOPE  H18Z 7983   6.788   2.757   5.108 -0.3451  0.5587  0.8631
   86SOPE     N 7984   0.468   6.553   3.006  0.2744  0.0371  0.1505
   86SOPE   HN1 7985   0.526   6.471   2.980 -0.5061 -0.6811  0.6480
   86SOPE   HN2 7986   0.512   6.642   2.975 -1.8340  0.6934 -1.0999
   86SOPE   HN3 7987   0.459   6.548   3.109  1.5586  0.6142  0.3148
   86SOPE   C12 7988   0.334   6.545   2.934 -0.3951 -0.3094 -0.0170
   86SOPE  H12A 7989   0.348   6.607   2.842  1.6609 -1.1063 -0.2830
   86SOPE  H12B 7990   0.262   6.592   3.006  1.1949 -0.9258  2.0597
   86SOPE   C11 7991   0.289   6.405   2.900  0.5658 -0.0100  0.1806
   86SOPE  H11A 7992   0.189   6.405   2.853  0.0168 -1.6745  1.2507
   86SOPE  H11B 7993   0.278   6.342   2.991 -0.4550 -0.6995 -0.4078
   86SOPE     P 7994   0.378   6.191   2.764 -0.3116 -0.4664  0.3624
   86SOPE   O13 7995   0.519   6.132   2.765  0.4816  0.4789 -0.9798
   86SOPE   O14 7996   0.302   6.190   2.636 -0.6244  0.6517  0.3051
   86SOPE   O12 7997   0.387   6.343   2.809 -0.7204  0.0310 -0.3429
   86SOPE   O11 7998   0.299   6.116   2.876  0.3494 -0.4827 -0.4626
   86SOPE    C1 7999   0.168   6.050   2.854 -0.7556  0.1230 -0.1813
   86SOPE    HA 8000   0.191   5.943   2.837  1.7067  0.6591 -0.6167
   86SOPE    HB 8001   0.114   6.096   2.769  0.7552  2.7091  0.1615
   86SOPE    C2 8002   0.088   6.054   2.984  0.6273 -0.7217  0.4180
   86SOPE    HS 8003  -0.014   6.023   2.953  0.3197  1.5891 -1.1811
   86SOPE   O21 8004   0.075   6.192   3.029 -0.6322  0.4723  0.0054
   86SOPE   C21 8005  -0.030   6.229   3.102  0.5748 -0.4288 -0.5349
   86SOPE   O22 8006  -0.129   6.161   3.131  0.0821 -0.9116  0.4013
   86SOPE   C22 8007  -0.007   6.366   3.156 -0.5649 -0.2961  0.4474
   86SOPE   H2R 8008  -0.100   6.399   3.206 -0.8677  0.8964 -0.8383
   86SOPE   H2S 8009   0.004   6.443   3.077  1.4848  0.8473  1.7449
   86SOPE    C3 8010   0.138   5.956   3.090  0.0199  0.2986  0.0803
   86SOPE    HX 8011   0.225   6.011   3.133 -0.2105 -1.4562  3.0822
   86SOPE    HY 8012   0.179   5.863   3.045  0.5857  1.3836 -1.7557
   86SOPE   O31 8013   0.049   5.927   3.202  0.3400  0.3643 -0.1176
   86SOPE   C31 8014  -0.044   5.840   3.169 -0.1133 -0.7295  0.0173
   86SOPE   O32 8015  -0.058   5.792   3.063  0.4690  0.5671 -0.1814
   86SOPE   C32 8016  -0.137   5.810   3.289  0.3660  0.9132  0.3781
   86SOPE   H2X 8017  -0.130   5.703   3.316 -1.0760  0.9765  1.0917
   86SOPE   H2Y 8018  -0.236   5.835   3.246  1.1411  0.3032 -1.9001
   86SOPE   C23 8019   0.107   6.371   3.254  0.4133  0.0636 -0.1521
   86SOPE   H3R 8020   0.132   6.476   3.280 -0.0332 -0.3460  2.1296
   86SOPE   H3S 8021   0.201   6.335   3.208  0.8799  0.5827  0.3993
   86SOPE   C24 8022   0.080   6.285   3.379 -0.2124  0.8200  0.0423
   86SOPE   H4R 8023  -0.027   6.282   3.410  0.3428 -1.4878  2.0031
   86SOPE   H4S 8024   0.096   6.177   3.355 -2.0746  0.7382 -1.0858
   86SOPE   C25 8025   0.159   6.320   3.504  0.5293 -1.2598 -0.0226
   86SOPE   H5R 8026   0.266   6.347   3.488  0.5529 -1.1354  0.3297
   86SOPE   H5S 8027   0.122   6.421   3.533 -2.2222 -2.4590  1.0688
   86SOPE   C26 8028   0.149   6.220   3.616 -0.3306 -0.2538  0.4580
   86SOPE   H6R 8029   0.042   6.202   3.640 -0.3517 -0.7048  0.0392
   86SOPE   H6S 8030   0.194   6.120   3.596  0.1922 -0.4052  2.1698
   86SOPE   C27 8031   0.201   6.295   3.746 -0.0038 -0.2589  0.1692
   86SOPE   H7R 8032   0.306   6.327   3.732  0.1061 -1.1198 -1.1167
   86SOPE   H7S 8033   0.139   6.383   3.776  1.2975  0.4028  0.9963
   86SOPE   C28 8034   0.205   6.196   3.866 -0.6345  0.2294  0.1241
   86SOPE   H8R 8035   0.262   6.104   3.841  0.4104  0.9590 -0.2108
   86SOPE   H8S 8036   0.263   6.252   3.942 -1.6998 -0.0999  1.2224
   86SOPE   C29 8037   0.075   6.156   3.921 -0.0937 -0.3118 -0.7667
   86SOPE   H91 8038   0.025   6.069   3.877 -2.6976  0.6936  0.0266
   86SOPE  C210 8039   0.021   6.207   4.032 -0.3145  0.3319 -0.5550
   86SOPE  H101 8040  -0.082   6.175   4.053  0.8709 -2.5166  1.6055
   86SOPE  C211 8041   0.071   6.319   4.119 -0.4143  0.3279 -0.4001
   86SOPE  H11R 8042  -0.005   6.394   4.150  1.1367  1.8831 -0.2041
   86SOPE  H11S 8043   0.152   6.374   4.066  0.8241 -1.5046 -0.5074
   86SOPE  C212 8044   0.140   6.286   4.261  0.1864 -0.1531 -0.2096
   86SOPE  H12R 8045   0.169   6.379   4.314 -1.2646 -0.4317  1.1711
   86SOPE  H12S 8046   0.236   6.233   4.245  1.0073  1.3749 -0.4843
   86SOPE  C213 8047   0.041   6.203   4.348  0.1323 -0.1829  0.1526
   86SOPE  H13R 8048   0.016   6.119   4.281  0.2186  0.7966 -1.1456
   86SOPE  H13S 8049  -0.051   6.265   4.354  0.3781  0.0864  1.6240
   86SOPE  C214 8050   0.103   6.158   4.477  0.0319 -0.2756  0.5840
   86SOPE  H14R 8051   0.125   6.240   4.548 -0.7142  0.9478 -0.5547
   86SOPE  H14S 8052   0.204   6.126   4.443 -0.3702  0.6210 -1.6919
   86SOPE  C215 8053   0.041   6.036   4.547 -0.6568 -0.4908 -0.1303
   86SOPE  H15R 8054   0.066   5.944   4.490  1.1796  0.6291 -1.2322
   86SOPE  H15S 8055  -0.066   6.053   4.574  0.3914  0.7445  3.9392
   86SOPE  C216 8056   0.120   6.009   4.681 -0.5225  1.1153 -0.7937
   86SOPE  H16R 8057   0.227   6.038   4.671 -0.9813  2.6740 -1.5720
   86SOPE  H16S 8058   0.115   5.903   4.712  2.9711  0.6008 -1.5702
   86SOPE  C217 8059   0.080   6.097   4.799 -0.6462  0.1987 -0.1251
   86SOPE  H17R 8060  -0.030   6.097   4.816 -0.5091 -0.0463  0.8119
   86SOPE  H17S 8061   0.113   6.202   4.782 -1.6485  0.7168  0.9332
   86SOPE  C218 8062   0.151   6.048   4.924  0.0713  0.4647 -0.2579
   86SOPE  H18R 8063   0.259   6.041   4.898 -0.3046 -0.2008 -1.7746
   86SOPE  H18S 8064   0.121   5.944   4.947 -0.4705  1.4400  4.3062
   86SOPE  H18T 8065   0.135   6.111   5.014 -1.5370 -2.2997  1.5071
   86SOPE   C33 8066  -0.101   5.891   3.420 -0.3510 -0.4169 -0.6079
   86SOPE   H3X 8067  -0.104   6.001   3.405 -1.3112 -0.4471 -0.7256
   86SOPE   H3Y 8068   0.004   5.875   3.451 -0.0936 -1.5663 -1.9516
   86SOPE   C34 8069  -0.201   5.852   3.530  0.2626 -0.6932  0.9869
   86SOPE   H4X 8070  -0.226   5.744   3.531  0.1189 -0.6749  0.1841
   86SOPE   H4Y 8071  -0.294   5.891   3.482  1.6889  1.0904 -0.4568
   86SOPE   C35 8072  -0.162   5.913   3.668  0.3629 -0.1361  0.0432
   86SOPE   H5X 8073  -0.135   6.019   3.648  1.4899 -0.4369 -0.1002
   86SOPE   H5Y 8074  -0.064   5.867   3.694  0.5261 -2.1747 -3.5071
   86SOPE   C36 8075  -0.266   5.881   3.779 -1.1938  0.0014  0.3408
   86SOPE   H6X 8076  -0.372   5.884   3.746 -1.1934 -1.1694  0.2191
   86SOPE   H6Y 8077  -0.259   5.955   3.862 -1.6928  0.0402  0.3489
   86SOPE   C37 8078  -0.239   5.739   3.832  0.5817 -0.3222 -0.6369
   86SOPE   H7X 8079  -0.130   5.719   3.832  1.2501  2.8345 -0.0893
   86SOPE   H7Y 8080  -0.302   5.674   3.767 -1.4668 -1.0010  1.8931
   86SOPE   C38 8081  -0.310   5.716   3.971 -0.3795 -0.0619  0.5559
   86SOPE   H8X 8082  -0.417   5.727   3.943  0.1887 -3.1412 -3.7706
   86SOPE   H8Y 8083  -0.272   5.785   4.050  0.3026  0.5289 -0.2705
   86SOPE   C39 8084  -0.292   5.576   4.044 -0.0897 -0.5905  0.2983
   86SOPE   H9X 8085  -0.330   5.490   3.985  1.4439 -1.7945  0.9817
   86SOPE   H9Y 8086  -0.362   5.591   4.129  0.3154 -1.4503  0.7954
   86SOPE  C310 8087  -0.152   5.552   4.085 -0.3778  0.0751 -0.0286
   86SOPE  H10X 8088  -0.098   5.646   4.108  0.7932 -0.3390 -0.9461
   86SOPE  H10Y 8089  -0.095   5.508   4.000 -1.0659 -3.1764  1.0580
   86SOPE  C311 8090  -0.142   5.447   4.197 -0.4238  0.3394 -0.4320
   86SOPE  H11X 8091  -0.043   5.397   4.190 -0.5415 -0.5922  2.8165
   86SOPE  H11Y 8092  -0.217   5.366   4.183 -0.6012  0.4605 -0.2117
   86SOPE  C312 8093  -0.155   5.504   4.335  0.1323  0.7722  0.1229
   86SOPE  H12X 8094  -0.249   5.563   4.338  0.0743  0.6783  0.1910
   86SOPE  H12Y 8095  -0.078   5.581   4.354  0.1323  0.7832  0.0789
   86SOPE  C313 8096  -0.158   5.395   4.447  0.2521 -0.0822 -0.3974
   86SOPE  H13X 8097  -0.063   5.337   4.453  0.9814  1.0159 -0.9898
   86SOPE  H13Y 8098  -0.242   5.325   4.426 -1.2111  0.4649  2.9466
   86SOPE  C314 8099  -0.177   5.459   4.588  0.3611  0.5728  0.5988
   86SOPE  H14X 8100  -0.266   5.525   4.574 -0.7252 -1.2424 -1.5697
   86SOPE  H14Y 8101  -0.078   5.501   4.618  2.2447 -1.7604 -1.8599
   86SOPE  C315 8102  -0.207   5.356   4.704 -0.2921  0.0263  0.1337
   86SOPE  H15X 8103  -0.282   5.284   4.663  0.2951 -0.9040  0.6357
   86SOPE  H15Y 8104  -0.255   5.403   4.792 -1.1531 -4.7146  2.5624
   86SOPE  C316 8105  -0.087   5.293   4.758  0.0561  0.0178 -0.1612
   86SOPE  H16X 8106   0.008   5.345   4.735  0.0458 -0.3807 -1.1645
   86SOPE  H16Y 8107  -0.073   5.191   4.716  0.3625  0.1046 -0.2742
   86SOPE  C317 8108  -0.098   5.272   4.910 -0.2192 -0.1914 -0.4397
   86SOPE  H17X 8109  -0.189   5.218   4.944 -1.7875  2.4667 -0.1590
   86SOPE  H17Y 8110  -0.088   5.369   4.963  0.1642 -1.1553  1.3552
   86SOPE  C318 8111   0.023   5.194   4.967 -0.0510 -0.1456  0.4591
   86SOPE  H18X 8112   0.020   5.174   5.076  1.6858 -1.9008  0.2482
   86SOPE  H18Y 8113   0.121   5.241   4.944  0.4352 -1.1930  0.3264
   86SOPE  H18Z 8114   0.033   5.097   4.914  0.9763  0.0224  0.3249
   87SOPE     N 8115   2.647   0.951   2.427 -0.2215 -0.5367 -0.0214
   87SOPE   HN1 8116   2.664   0.903   2.518 -0.4022  0.0845  0.3570
   87SOPE   HN2 8117   2.553   0.926   2.389 -0.5909 -0.9560  1.1161
   87SOPE   HN3 8118   2.721   0.921   2.362 -2.5067 -1.3183 -2.4172
   87SOPE   C12 8119   2.650   1.102   2.420  0.1583  0.7161 -0.2520
   87SOPE  H12A 8120   2.638   1.130   2.313 -1.8134 -2.0036 -0.8455
   87SOPE  H12B 8121   2.755   1.121   2.451  0.8901  0.1414 -2.2193
   87SOPE   C11 8122   2.534   1.160   2.512 -0.4766  0.2336  0.0984
   87SOPE  H11A 8123   2.547   1.270   2.512  1.0099  0.1097  1.9737
   87SOPE  H11B 8124   2.557   1.123   2.614  0.2144 -0.2425 -0.2162
   87SOPE     P 8125   2.275   1.189   2.464  0.0522  0.1480 -0.0589
   87SOPE   O13 8126   2.157   1.104   2.471  0.8206 -0.5230  0.2625
   87SOPE   O14 8127   2.287   1.275   2.344 -0.1479  0.0829  0.0439
   87SOPE   O12 8128   2.405   1.108   2.475  0.1497  0.2416  0.8085
   87SOPE   O11 8129   2.288   1.285   2.591 -0.6159  0.0459 -0.0373
   87SOPE    C1 8130   2.242   1.246   2.714 -0.0310  0.2994 -0.2320
   87SOPE    HA 8131   2.207   1.141   2.727 -3.4657  1.4629  1.2562
   87SOPE    HB 8132   2.162   1.316   2.748  1.1249  1.4203  0.2528
   87SOPE    C2 8133   2.353   1.271   2.818 -0.2543  0.6306 -0.0925
   87SOPE    HS 8134   2.436   1.199   2.804 -0.0675 -0.3487  4.4367
   87SOPE   O21 8135   2.310   1.278   2.951  0.3436  0.7363 -0.1214
   87SOPE   C21 8136   2.271   1.159   3.006  0.4635  0.4143 -0.7780
   87SOPE   O22 8137   2.284   1.051   2.953  0.0990  0.6957  0.0083
   87SOPE   C22 8138   2.210   1.180   3.149 -0.2140  0.3063 -0.1509
   87SOPE   H2R 8139   2.145   1.091   3.158 -0.1773  0.2648 -0.2928
   87SOPE   H2S 8140   2.143   1.269   3.155 -1.2903 -0.5832  3.1666
   87SOPE    C3 8141   2.419   1.415   2.787  0.0219 -0.1611 -0.2748
   87SOPE    HX 8142   2.340   1.494   2.790  0.0792 -0.0589  3.2686
   87SOPE    HY 8143   2.463   1.420   2.685 -0.7079 -0.1793 -0.5958
   87SOPE   O31 8144   2.518   1.443   2.894  0.1029  0.1591  0.2723
   87SOPE   C31 8145   2.513   1.556   2.956  0.0349 -0.2146 -0.2802
   87SOPE   O32 8146   2.443   1.656   2.937 -0.0091  0.1212  0.0502
   87SOPE   C32 8147   2.625   1.560   3.068 -0.0392  0.2369  0.2463
   87SOPE   H2X 8148   2.712   1.607   3.017  0.0912  0.6117  0.8104
   87SOPE   H2Y 8149   2.644   1.453   3.090 -0.2514 -0.7612 -3.6301
   87SOPE   C23 8150   2.310   1.178   3.269 -0.1785  0.6493  0.0969
   87SOPE   H3R 8151   2.245   1.199   3.357 -1.2311  0.9660 -0.7297
   87SOPE   H3S 8152   2.378   1.263   3.252 -0.2158 -0.0168 -4.8776
   87SOPE   C24 8153   2.387   1.043   3.287 -0.1618 -0.3421  0.4859
   87SOPE   H4R 8154   2.330   0.949   3.270 -0.8713  0.6483 -3.3981
   87SOPE   H4S 8155   2.467   1.024   3.212  0.0381 -1.1723  0.8924
   87SOPE   C25 8156   2.442   1.028   3.428  0.1538 -0.2082 -0.1599
   87SOPE   H5R 8157   2.361   1.051   3.500  0.2415 -2.9019  0.8929
   87SOPE   H5S 8158   2.477   0.924   3.443  1.7243  0.4694  1.1606
   87SOPE   C26 8159   2.554   1.125   3.456  0.4192 -0.9038 -0.2318
   87SOPE   H6R 8160   2.631   1.104   3.378 -1.0698 -1.9671 -1.4815
   87SOPE   H6S 8161   2.512   1.227   3.455  0.7277 -0.7249  1.5153
   87SOPE   C27 8162   2.610   1.130   3.603  0.0035  0.4979  0.8487
   87SOPE   H7R 8163   2.661   1.037   3.636  0.5474  0.4859 -0.0056
   87SOPE   H7S 8164   2.692   1.203   3.589  0.2592 -0.0653 -0.8373
   87SOPE   C28 8165   2.512   1.173   3.711 -0.6016 -0.0087 -0.0242
   87SOPE   H8R 8166   2.464   1.264   3.668 -0.0865  0.3213  0.0881
   87SOPE   H8S 8167   2.438   1.092   3.727  1.7232 -2.4124 -0.7908
   87SOPE   C29 8168   2.587   1.187   3.844  0.8205 -0.3382  0.3549
   87SOPE   H91 8169   2.669   1.260   3.845 -0.6560  1.3829  0.9336
   87SOPE  C210 8170   2.557   1.121   3.956 -0.5316 -0.0432 -0.1614
   87SOPE  H101 8171   2.616   1.133   4.049 -2.4408 -0.4575  1.1646
   87SOPE  C211 8172   2.443   1.026   3.981  0.5932  0.0310  0.3398
   87SOPE  H11R 8173   2.459   0.928   3.932  0.4581  0.1379  0.0766
   87SOPE  H11S 8174   2.351   1.064   3.931 -0.2427 -0.2591  1.6124
   87SOPE  C212 8175   2.405   0.992   4.127  0.3646 -0.3435 -0.3442
   87SOPE  H12R 8176   2.492   0.942   4.174  0.4986 -0.6380 -0.8917
   87SOPE  H12S 8177   2.321   0.919   4.124  2.2464 -2.7884  1.6202
   87SOPE  C213 8178   2.342   1.101   4.211  0.1084 -0.1092 -0.1229
   87SOPE  H13R 8179   2.266   1.158   4.154  0.5906 -1.0875 -1.8371
   87SOPE  H13S 8180   2.425   1.172   4.231 -0.6161  1.1869 -1.5142
   87SOPE  C214 8181   2.273   1.038   4.331 -0.9000  0.0773 -0.0944
   87SOPE  H14R 8182   2.330   0.958   4.382 -0.6237 -1.6226 -2.8277
   87SOPE  H14S 8183   2.183   0.988   4.289 -0.8407  0.3124 -0.5078
   87SOPE  C215 8184   2.237   1.149   4.435  0.2256 -0.5264  0.6308
   87SOPE  H15R 8185   2.199   1.238   4.380 -0.8201 -1.7856 -0.7632
   87SOPE  H15S 8186   2.337   1.172   4.477 -0.1465  2.2830  0.1697
   87SOPE  C216 8187   2.143   1.108   4.550  0.2289 -0.3448 -0.2074
   87SOPE  H16R 8188   2.062   1.059   4.493  0.1632  0.7067 -1.0263
   87SOPE  H16S 8189   2.084   1.195   4.586  0.0280  0.2893 -2.0073
   87SOPE  C217 8190   2.200   1.013   4.655 -0.7632  0.2842 -0.0325
   87SOPE  H17R 8191   2.289   1.061   4.701  0.6408 -1.4290 -0.8530
   87SOPE  H17S 8192   2.244   0.925   4.604 -1.3097 -0.7370  1.1980
   87SOPE  C218 8193   2.119   0.956   4.773 -0.1211 -0.7928 -0.2261
   87SOPE  H18R 8194   2.074   1.030   4.843 -0.4260 -0.4045 -0.8170
   87SOPE  H18S 8195   2.187   0.905   4.844 -0.5535  0.5699  1.2172
   87SOPE  H18T 8196   2.032   0.894   4.743  0.6545 -1.8058 -0.4006
   87SOPE   C33 8197   2.575   1.653   3.179 -0.0291 -0.3697  0.7299
   87SOPE   H3X 8198   2.467   1.639   3.200  0.3604  0.9030  4.1985
   87SOPE   H3Y 8199   2.576   1.756   3.136 -1.0919 -1.7227 -2.9139
   87SOPE   C34 8200   2.661   1.639   3.308 -0.3137 -0.6844 -0.0280
   87SOPE   H4X 8201   2.643   1.731   3.368  0.5607  0.8267 -1.9501
   87SOPE   H4Y 8202   2.764   1.650   3.268 -0.9699  0.0620 -1.5987
   87SOPE   C35 8203   2.638   1.517   3.386 -0.6654 -0.7045  0.1298
   87SOPE   H5X 8204   2.685   1.434   3.328  1.2095 -0.3629  1.0965
   87SOPE   H5Y 8205   2.528   1.505   3.396 -1.1343 -0.6369 -3.5929
   87SOPE   C36 8206   2.692   1.527   3.528  0.4929  0.0869  0.7032
   87SOPE   H6X 8207   2.799   1.555   3.536  1.1408 -2.5651  2.4912
   87SOPE   H6Y 8208   2.678   1.429   3.578 -4.3320 -0.2502 -0.8453
   87SOPE   C37 8209   2.615   1.629   3.616 -0.0270 -0.7705 -0.1732
   87SOPE   H7X 8210   2.514   1.582   3.612 -0.1450 -0.5048 -0.4073
   87SOPE   H7Y 8211   2.605   1.729   3.568  1.6365 -1.1301 -1.3448
   87SOPE   C38 8212   2.670   1.654   3.752  0.0630  0.4559 -0.3059
   87SOPE   H8X 8213   2.685   1.555   3.799 -0.6150  0.2981 -0.4061
   87SOPE   H8Y 8214   2.585   1.697   3.809 -0.1728 -0.9132  0.4135
   87SOPE   C39 8215   2.799   1.742   3.750  0.5811  0.6854  0.7784
   87SOPE   H9X 8216   2.783   1.824   3.676 -2.3993 -0.5011 -0.0380
   87SOPE   H9Y 8217   2.876   1.681   3.698  1.7908  2.6316  0.1555
   87SOPE  C310 8218   2.844   1.805   3.879  0.3011 -0.0082 -0.1414
   87SOPE  H10X 8219   2.762   1.850   3.938 -0.5446 -0.6262 -0.8091
   87SOPE  H10Y 8220   2.909   1.890   3.850 -0.6766  0.8280  0.0896
   87SOPE  C311 8221   2.922   1.709   3.970  0.2456  0.1443  0.2175
   87SOPE  H11X 8222   3.006   1.669   3.909 -0.3839 -0.3189 -0.3539
   87SOPE  H11Y 8223   2.852   1.634   4.013  1.0738 -0.4294  0.5846
   87SOPE  C312 8224   2.972   1.791   4.092  0.1775  0.0920 -0.7015
   87SOPE  H12X 8225   2.902   1.861   4.141 -0.6718 -1.5902  0.6167
   87SOPE  H12Y 8226   3.067   1.843   4.067  2.2444 -2.0931  1.9936
   87SOPE  C313 8227   3.024   1.695   4.195 -0.5691  0.5777 -0.5070
   87SOPE  H13X 8228   3.097   1.630   4.143  0.5097  0.0912  1.4924
   87SOPE  H13Y 8229   2.951   1.626   4.245  0.7048 -0.5734 -0.1783
   87SOPE  C314 8230   3.101   1.766   4.303  0.1451 -0.1562  0.2315
   87SOPE  H14X 8231   3.030   1.821   4.367 -0.4579  1.0238 -1.3879
   87SOPE  H14Y 8232   3.165   1.839   4.248 -0.0661 -0.7590 -0.8617
   87SOPE  C315 8233   3.189   1.676   4.390  0.4236  0.6330 -0.3769
   87SOPE  H15X 8234   3.249   1.605   4.329  0.4929 -1.1714  1.6741
   87SOPE  H15Y 8235   3.126   1.619   4.462  0.8160 -2.4335 -2.2757
   87SOPE  C316 8236   3.292   1.763   4.464  0.2250  0.0897 -0.5949
   87SOPE  H16X 8237   3.235   1.845   4.513 -2.0525 -1.5908 -0.2317
   87SOPE  H16Y 8238   3.363   1.804   4.390 -0.0193 -1.6879 -1.8696
   87SOPE  C317 8239   3.368   1.677   4.575 -0.0789  0.1952 -0.0197
   87SOPE  H17X 8240   3.438   1.604   4.528 -2.3274 -1.6424 -0.7277
   87SOPE  H17Y 8241   3.310   1.607   4.638 -0.6346  0.7232  0.0571
   87SOPE  C318 8242   3.455   1.762   4.671 -0.1170 -0.5419  0.4565
   87SOPE  H18X 8243   3.496   1.700   4.753 -0.6977  0.5679  1.6267
   87SOPE  H18Y 8244   3.391   1.845   4.707 -1.4585 -0.5497 -1.6744
   87SOPE  H18Z 8245   3.542   1.798   4.611 -0.3116 -2.0021 -0.7820
   88SOPE     N 8246   4.480   0.179   2.759 -0.0566 -0.1738 -0.1997
   88SOPE   HN1 8247   4.483   0.242   2.676  0.6115 -1.6530 -1.3437
   88SOPE   HN2 8248   4.528   0.231   2.835  0.4757 -1.0849  0.1117
   88SOPE   HN3 8249   4.546   0.099   2.749 -0.1994 -0.3168 -0.0240
   88SOPE   C12 8250   4.343   0.124   2.794  0.4175  0.2317 -0.1064
   88SOPE  H12A 8251   4.306   0.060   2.712 -1.1951  0.5342  0.3656
   88SOPE  H12B 8252   4.274   0.205   2.826  0.6026 -0.0085  0.9450
   88SOPE   C11 8253   4.362   0.033   2.916  0.0024  0.1485 -0.5713
   88SOPE  H11A 8254   4.258   0.011   2.948  0.3344  0.5018  0.8053
   88SOPE  H11B 8255   4.414   0.074   3.005  0.7989 -0.4636 -0.7481
   88SOPE     P 8256   4.572  -0.145   2.864  0.0629 -0.3249 -0.4871
   88SOPE   O13 8257   4.649  -0.042   2.787 -0.3807 -0.8806  0.2579
   88SOPE   O14 8258   4.560  -0.279   2.810  0.9311 -0.2607  0.3438
   88SOPE   O12 8259   4.425  -0.095   2.884 -0.1749 -0.5218 -0.2707
   88SOPE   O11 8260   4.625  -0.158   3.011 -1.0998  0.2859 -0.2416
   88SOPE    C1 8261   4.541  -0.224   3.098 -0.7270 -0.4760 -0.8677
   88SOPE    HA 8262   4.546  -0.332   3.074  4.5992 -0.9862  1.1292
   88SOPE    HB 8263   4.444  -0.173   3.112  0.1058  0.8281  0.4939
   88SOPE    C2 8264   4.600  -0.205   3.238 -0.2978 -0.0107 -0.0661
   88SOPE    HS 8265   4.610  -0.097   3.264 -1.9574  0.1535  0.0392
   88SOPE   O21 8266   4.722  -0.278   3.248 -0.3164 -0.1411 -0.2679
   88SOPE   C21 8267   4.805  -0.245   3.344 -0.0751  0.5844 -0.2364
   88SOPE   O22 8268   4.799  -0.155   3.423 -0.2693 -0.5196  0.1739
   88SOPE   C22 8269   4.916  -0.353   3.356  0.0328 -0.5498 -0.2715
   88SOPE   H2R 8270   4.956  -0.379   3.256 -0.4944 -1.0617 -0.3522
   88SOPE   H2S 8271   4.869  -0.438   3.410 -2.2504  0.6667 -0.2514
   88SOPE    C3 8272   4.499  -0.270   3.339 -0.6650  0.6426  0.2114
   88SOPE    HX 8273   4.502  -0.371   3.293 -2.0762  0.7224 -0.0889
   88SOPE    HY 8274   4.405  -0.214   3.320 -0.0981  1.6050  0.1702
   88SOPE   O31 8275   4.548  -0.278   3.479 -0.2221  0.0442 -0.0564
   88SOPE   C31 8276   4.500  -0.178   3.547  0.4830  0.5944 -1.1258
   88SOPE   O32 8277   4.430  -0.088   3.505 -0.4076  0.1215  0.0329
   88SOPE   C32 8278   4.566  -0.188   3.687  0.1016  0.1253  0.2086
   88SOPE   H2X 8279   4.673  -0.161   3.681  0.3711 -1.1437 -1.1848
   88SOPE   H2Y 8280   4.558  -0.292   3.725 -0.3831  0.1157  0.0921
   88SOPE   C23 8281   5.039  -0.295   3.437 -0.0098  0.2529  0.2854
   88SOPE   H3R 8282   5.066  -0.191   3.408 -1.2369 -0.1795 -2.7697
   88SOPE   H3S 8283   5.127  -0.357   3.410 -1.1278 -0.6386 -1.5789
   88SOPE   C24 8284   5.024  -0.312   3.587 -0.6250 -0.2239  0.2120
   88SOPE   H4R 8285   4.936  -0.256   3.623 -1.0169 -1.2547  0.8765
   88SOPE   H4S 8286   5.006  -0.418   3.611  0.9365 -0.6612 -0.4077
   88SOPE   C25 8287   5.156  -0.275   3.669 -0.9479 -0.1365  1.5149
   88SOPE   H5R 8288   5.235  -0.322   3.607 -0.3923  1.3177  1.0814
   88SOPE   H5S 8289   5.168  -0.165   3.660 -1.3021 -0.2730 -2.9316
   88SOPE   C26 8290   5.150  -0.328   3.812 -0.0350 -0.7459 -0.6069
   88SOPE   H6R 8291   5.066  -0.282   3.868 -0.0472 -1.4167 -0.0657
   88SOPE   H6S 8292   5.123  -0.436   3.811 -1.5897 -0.3769 -0.4449
   88SOPE   C27 8293   5.279  -0.302   3.879 -0.0319  0.3719 -0.4023
   88SOPE   H7R 8294   5.363  -0.323   3.810 -0.1686  0.6513 -0.6561
   88SOPE   H7S 8295   5.280  -0.196   3.912 -0.4383  0.3224 -0.2190
   88SOPE   C28 8296   5.310  -0.392   4.004  0.4775 -0.8016 -0.4127
   88SOPE   H8R 8297   5.217  -0.391   4.066  0.9909  2.2365  0.5261
   88SOPE   H8S 8298   5.327  -0.496   3.971  1.6790  0.2569 -3.4984
   88SOPE   C29 8299   5.431  -0.324   4.073  0.9661 -0.5724  0.5264
   88SOPE   H91 8300   5.510  -0.278   4.011  1.0663 -0.7980  0.4814
   88SOPE  C210 8301   5.456  -0.332   4.201 -0.8558  0.5621  0.1313
   88SOPE  H101 8302   5.543  -0.280   4.246 -0.1036  0.6953 -1.4005
   88SOPE  C211 8303   5.389  -0.413   4.307  0.5331 -0.4809 -0.9287
   88SOPE  H11R 8304   5.326  -0.488   4.255 -0.9385  1.0167 -1.3921
   88SOPE  H11S 8305   5.328  -0.350   4.376  2.0069 -1.8396  1.7725
   88SOPE  C212 8306   5.484  -0.509   4.387  0.1037  0.0615 -0.1233
   88SOPE  H12R 8307   5.556  -0.560   4.321 -1.2158  1.4436 -2.8002
   88SOPE  H12S 8308   5.423  -0.591   4.431 -1.0686  2.3854  2.9035
   88SOPE  C213 8309   5.557  -0.456   4.506 -0.7681  0.0089  0.2458
   88SOPE  H13R 8310   5.482  -0.393   4.559 -1.1308  2.0389 -2.5084
   88SOPE  H13S 8311   5.644  -0.392   4.481 -0.9529  0.1043 -0.1541
   88SOPE  C214 8312   5.602  -0.561   4.607 -0.1041 -0.1054 -0.1698
   88SOPE  H14R 8313   5.699  -0.606   4.577  1.0458  1.1842  1.4295
   88SOPE  H14S 8314   5.534  -0.648   4.615  1.5771 -1.3203  2.1657
   88SOPE  C215 8315   5.619  -0.496   4.742  0.3599 -0.3066 -0.4784
   88SOPE  H15R 8316   5.515  -0.468   4.773 -0.4899 -1.8505 -1.7629
   88SOPE  H15S 8317   5.684  -0.406   4.735 -0.1081  0.1021  0.2376
   88SOPE  C216 8318   5.682  -0.585   4.852 -0.4623 -0.9021  0.9385
   88SOPE  H16R 8319   5.785  -0.605   4.814 -0.6445 -0.3456  0.1320
   88SOPE  H16S 8320   5.614  -0.673   4.863 -0.2593 -1.0315  1.1894
   88SOPE  C217 8321   5.683  -0.504   4.986 -0.5157  0.2701  0.6129
   88SOPE  H17R 8322   5.580  -0.495   5.028 -1.2555 -1.9400 -0.5761
   88SOPE  H17S 8323   5.716  -0.401   4.959 -1.2667  0.1952 -0.6700
   88SOPE  C218 8324   5.787  -0.548   5.080 -0.9280 -0.4647 -0.0440
   88SOPE  H18R 8325   5.882  -0.592   5.042  0.0660 -1.4430  3.1743
   88SOPE  H18S 8326   5.749  -0.630   5.145  0.1923 -0.8398  0.1719
   88SOPE  H18T 8327   5.810  -0.466   5.151 -1.6675 -0.3357  0.0523
   88SOPE   C33 8328   4.509  -0.091   3.792  0.1280 -0.7829 -0.4883
   88SOPE   H3X 8329   4.486   0.015   3.767 -0.3786 -0.9084 -0.5727
   88SOPE   H3Y 8330   4.582  -0.086   3.876  0.8193  1.1120 -1.1363
   88SOPE   C34 8331   4.387  -0.146   3.865  0.5111  0.1739 -0.4077
   88SOPE   H4X 8332   4.426  -0.232   3.923 -0.2689  1.6442  2.5106
   88SOPE   H4Y 8333   4.322  -0.201   3.794  0.3260  1.8735 -1.6110
   88SOPE   C35 8334   4.319  -0.048   3.955 -0.6513 -0.4108 -0.4079
   88SOPE   H5X 8335   4.297   0.047   3.902 -1.0062  0.4347  1.1698
   88SOPE   H5Y 8336   4.395  -0.031   4.035  0.5994 -2.0278 -1.2105
   88SOPE   C36 8337   4.192  -0.097   4.025 -0.3796 -0.4804  0.1976
   88SOPE   H6X 8338   4.111  -0.133   3.958 -2.0032  0.0617  1.7719
   88SOPE   H6Y 8339   4.144  -0.006   4.068 -0.5895 -0.9687  1.0265
   88SOPE   C37 8340   4.208  -0.204   4.137  0.7475  0.1999  0.0627
   88SOPE   H7X 8341   4.253  -0.298   4.099 -0.3855 -1.0845  1.7284
   88SOPE   H7Y 8342   4.110  -0.242   4.172  1.6266 -0.8635  1.4997
   88SOPE   C38 8343   4.282  -0.163   4.266  0.1186  0.3273  0.1466
   88SOPE   H8X 8344   4.215  -0.093   4.320 -1.3517  0.2075 -1.4400
   88SOPE   H8Y 8345   4.380  -0.111   4.253  1.2947 -1.8325 -0.0755
   88SOPE   C39 8346   4.308  -0.295   4.343 -0.2811  0.1669  0.0208
   88SOPE   H9X 8347   4.377  -0.351   4.277 -1.5666  0.0208 -1.2639
   88SOPE   H9Y 8348   4.212  -0.347   4.360 -0.5236  0.5002 -0.3027
   88SOPE  C310 8349   4.372  -0.271   4.478 -0.0091  0.2564  0.3735
   88SOPE  H10X 8350   4.310  -0.207   4.544  1.5023  0.8854  1.2494
   88SOPE  H10Y 8351   4.467  -0.216   4.463 -0.3257  1.0354  1.1591
   88SOPE  C311 8352   4.421  -0.395   4.565 -0.2072  0.2229 -0.1991
   88SOPE  H11X 8353   4.499  -0.454   4.512  0.8939  1.4271  0.0335
   88SOPE  H11Y 8354   4.343  -0.472   4.580  0.7466 -0.3496  2.3872
   88SOPE  C312 8355   4.464  -0.361   4.714  0.3699  0.4199 -0.0748
   88SOPE  H12X 8356   4.382  -0.312   4.771  0.7018  0.9469 -0.0436
   88SOPE  H12Y 8357   4.548  -0.289   4.703  0.6620  0.2666  1.0495
   88SOPE  C313 8358   4.519  -0.490   4.788  0.1067  0.3557  0.3880
   88SOPE  H13X 8359   4.629  -0.502   4.784 -0.1887 -3.7727  0.5973
   88SOPE  H13Y 8360   4.466  -0.577   4.742  1.1979 -0.6946  1.0546
   88SOPE  C314 8361   4.485  -0.492   4.940  0.5742 -0.9090 -0.5303
   88SOPE  H14X 8362   4.529  -0.581   4.991  0.2046  0.1474  1.7396
   88SOPE  H14Y 8363   4.376  -0.496   4.958  0.3954  0.6539 -1.1323
   88SOPE  C315 8364   4.543  -0.369   5.017 -0.1571  0.8317  0.2847
   88SOPE  H15X 8365   4.494  -0.271   4.999 -0.7360  0.8765  1.9171
   88SOPE  H15Y 8366   4.647  -0.343   4.990 -0.8081  4.9461  1.1663
   88SOPE  C316 8367   4.536  -0.391   5.168  0.4898 -0.3225  1.1697
   88SOPE  H16X 8368   4.628  -0.442   5.203  0.9203  0.0310  0.5761
   88SOPE  H16Y 8369   4.440  -0.446   5.184  0.2184 -0.8976 -1.7920
   88SOPE  C317 8370   4.532  -0.263   5.253  0.0456  0.7905  0.4146
   88SOPE  H17X 8371   4.628  -0.215   5.224 -0.9128  0.1840 -4.5754
   88SOPE  H17Y 8372   4.550  -0.297   5.358  2.6083  2.3611  0.5903
   88SOPE  C318 8373   4.404  -0.176   5.235  0.3348 -0.0077  0.4424
   88SOPE  H18X 8374   4.317  -0.236   5.270 -0.2142  1.0172  0.8538
   88SOPE  H18Y 8375   4.386  -0.165   5.126 -0.7280 -2.5444  0.2761
   88SOPE  H18Z 8376   4.416  -0.082   5.291  0.7585  0.1111  0.1569
   89SAPC     N 8377   4.926   3.804   7.081 -0.3057 -1.0885  0.1981
   89SAPC   C12 8378   4.998   3.749   6.963  0.0007 -0.1799 -0.3263
   89SAPC  H12A 8379   4.964   3.797   6.872  2.7600 -2.3184 -2.7125
   89SAPC  H12B 8380   4.966   3.646   6.956  0.3522 -0.3299  0.1701
   89SAPC   C13 8381   4.952   3.713   7.197  1.0779 -0.5574  0.0720
   89SAPC  H13A 8382   5.045   3.735   7.249  1.4338  1.1140 -1.1719
   89SAPC  H13B 8383   4.875   3.737   7.269  0.6522  0.1599 -0.6154
   89SAPC  H13C 8384   4.947   3.608   7.176  0.4272 -1.0179  2.2164
   89SAPC   C14 8385   4.973   3.946   7.111  0.1423 -0.0087  0.2994
   89SAPC  H14A 8386   4.954   4.019   7.033  1.1736  0.0867  0.1132
   89SAPC  H14B 8387   4.929   3.982   7.202  0.7207 -1.4528  1.1867
   89SAPC  H14C 8388   5.080   3.951   7.123  0.1227 -2.7500  2.8138
   89SAPC   C15 8389   4.771   3.795   7.060 -0.5622 -0.0497 -0.2648
   89SAPC  H15A 8390   4.734   3.862   6.983  0.6144  0.0081 -0.8048
   89SAPC  H15B 8391   4.732   3.695   7.057  1.7381 -1.1973  2.9953
   89SAPC  H15C 8392   4.728   3.835   7.150  0.9893  0.3444  0.3371
   89SAPC   C11 8393   5.152   3.746   6.965 -0.2997 -0.1248 -0.4404
   89SAPC  H11A 8394   5.189   3.669   6.894 -1.9220 -0.8968 -0.4697
   89SAPC  H11B 8395   5.189   3.700   7.059 -0.4244 -0.1276 -0.3933
   89SAPC     P 8396   5.236   3.943   6.807  0.0790 -0.3840  0.1890
   89SAPC   O13 8397   5.108   3.936   6.733 -0.5073 -0.4068  0.1034
   89SAPC   O14 8398   5.291   4.083   6.826  0.1488  0.2435  0.6721
   89SAPC   O12 8399   5.217   3.874   6.951  0.3856 -0.3529  0.1858
   89SAPC   O11 8400   5.348   3.850   6.749  0.4659 -0.5267  0.4109
   89SAPC    C1 8401   5.310   3.729   6.678  0.0131 -0.1629 -0.1571
   89SAPC    HA 8402   5.369   3.639   6.707 -1.4722 -1.1098  0.0393
   89SAPC    HB 8403   5.207   3.691   6.692  0.1606 -1.1014 -1.4424
   89SAPC    C2 8404   5.311   3.752   6.523 -0.3741 -0.2775 -0.1232
   89SAPC    HS 8405   5.264   3.664   6.475  2.4987 -0.8280 -2.1496
   89SAPC   O21 8406   5.447   3.762   6.472  0.5298  0.2513 -0.1807
   89SAPC   C21 8407   5.518   3.648   6.488 -0.0446 -0.1893  0.2591
   89SAPC   O22 8408   5.465   3.538   6.509  0.1310  0.1642 -0.0438
   89SAPC   C22 8409   5.667   3.673   6.462 -0.8979 -0.0007  0.6626
   89SAPC   H2R 8410   5.718   3.703   6.556 -1.4666  1.4483  0.5395
   89SAPC   H2S 8411   5.709   3.575   6.432 -0.4042  0.2160  0.6298
   89SAPC    C3 8412   5.231   3.879   6.477 -0.0017 -0.1986  0.7277
   89SAPC    HX 8413   5.265   3.968   6.534  1.1156  1.6509 -2.5704
   89SAPC    HY 8414   5.126   3.853   6.504 -0.0148 -1.2969 -0.3213
   89SAPC   O31 8415   5.234   3.901   6.331  0.2063  0.1834 -0.4577
   89SAPC   C31 8416   5.321   3.989   6.281 -0.9333 -0.5381 -0.7096
   89SAPC   O32 8417   5.377   4.078   6.351  0.6645 -0.1978 -0.5480
   89SAPC   C32 8418   5.350   3.959   6.128 -0.3039 -0.3587 -0.1246
   89SAPC   H2X 8419   5.280   3.878   6.097 -2.0705  0.7784  0.7021
   89SAPC   H2Y 8420   5.453   3.920   6.121  0.1075  0.8536 -1.5881
   89SAPC   C23 8421   5.704   3.778   6.352  0.3384  0.6578  0.3922
   89SAPC   H3R 8422   5.683   3.884   6.379  1.5226  0.9856  0.1011
   89SAPC   H3S 8423   5.650   3.756   6.257  1.7179 -0.3843 -0.1774
   89SAPC   C24 8424   5.859   3.782   6.334  0.0941  0.3836  0.3546
   89SAPC   H4R 8425   5.900   3.780   6.437  0.6808  0.1939  0.1211
   89SAPC   H4S 8426   5.885   3.883   6.298  0.0692  0.8450  1.5728
   89SAPC   C25 8427   5.924   3.674   6.258 -0.0147 -0.1089  0.5103
   89SAPC   H5R 8428   5.933   3.575   6.305 -1.0097 -1.7330 -2.4435
   89SAPC   C26 8429   5.961   3.676   6.132 -0.9983  0.4014  0.3922
   89SAPC   H6R 8430   5.988   3.576   6.094 -2.0673  0.0324  0.5635
   89SAPC   C27 8431   5.959   3.801   6.045 -0.4397 -0.3339 -0.1630
   89SAPC   H7R 8432   5.886   3.882   6.064  1.3834  1.2243  0.4551
   89SAPC   H7S 8433   5.936   3.775   5.939 -2.3257  0.1457  0.0964
   89SAPC   C28 8434   6.092   3.880   6.045 -0.4034 -1.2068  0.3178
   89SAPC   H8R 8435   6.108   3.936   6.139 -2.1921 -2.2220  1.2836
   89SAPC   C29 8436   6.195   3.868   5.955  0.0123  0.6542  0.2967
   89SAPC   H9R 8437   6.281   3.936   5.954 -0.0734  0.8511  2.1203
   89SAPC  C210 8438   6.191   3.775   5.834 -0.0344  0.6416  0.4990
   89SAPC  H10R 8439   6.092   3.737   5.802  0.7050 -0.9574 -0.0008
   89SAPC  H10S 8440   6.237   3.677   5.859 -1.9990 -0.5581 -0.3732
   89SAPC  C211 8441   6.260   3.833   5.715  0.4228 -1.0364  0.1407
   89SAPC  H11R 8442   6.370   3.829   5.716  0.5625  0.1680  3.6130
   89SAPC  C212 8443   6.198   3.882   5.609  0.1720  0.1326  0.8375
   89SAPC  H12R 8444   6.258   3.911   5.521 -1.6079  0.6019 -0.2827
   89SAPC  C213 8445   6.051   3.885   5.577 -0.5674 -0.0714 -0.3745
   89SAPC  H13R 8446   6.027   3.965   5.503  0.4014  0.6870  0.1110
   89SAPC  H13S 8447   5.990   3.917   5.665 -1.5296  0.5567 -1.2428
   89SAPC  C214 8448   6.007   3.747   5.534  0.5027  0.2593 -0.0641
   89SAPC  H14R 8449   5.974   3.672   5.608  1.3879 -0.7339 -0.6541
   89SAPC  C215 8450   5.993   3.700   5.409 -0.5098  0.4599  0.3420
   89SAPC  H15R 8451   5.978   3.592   5.395  2.6494  0.1084 -1.2403
   89SAPC  C216 8452   6.015   3.790   5.287  0.0332  0.5362  0.1011
   89SAPC  H16R 8453   6.060   3.724   5.209 -0.8646 -0.6559  0.5505
   89SAPC  H16S 8454   6.098   3.856   5.318 -0.0793  0.2588  1.0171
   89SAPC  C217 8455   5.892   3.858   5.246  0.3166 -0.3682  0.0947
   89SAPC  H17R 8456   5.870   3.923   5.333  2.7339 -0.3804  0.7806
   89SAPC  H17S 8457   5.806   3.790   5.226  1.2065 -1.2865 -0.7201
   89SAPC  C218 8458   5.911   3.942   5.115  0.5692 -0.3657 -0.3885
   89SAPC  H18R 8459   5.929   3.873   5.030  0.7334 -0.9170  0.0874
   89SAPC  H18S 8460   6.002   4.005   5.122  0.0597  0.5562 -1.6143
   89SAPC  C219 8461   5.784   4.037   5.088  0.0168 -0.0286 -0.1497
   89SAPC  H19R 8462   5.794   4.121   5.159  1.0820 -1.5430  1.5638
   89SAPC  H19S 8463   5.688   3.983   5.098  0.5843 -1.2761 -1.1804
   89SAPC  C220 8464   5.784   4.089   4.948  0.0199  0.0436 -0.5533
   89SAPC  H20R 8465   5.725   4.182   4.934  1.4909  0.9273 -1.0216
   89SAPC  H20S 8466   5.727   4.022   4.880 -2.6898  1.8046 -0.1750
   89SAPC  H20T 8467   5.885   4.112   4.908 -0.3284 -0.6471 -1.8950
   89SAPC   C33 8468   5.338   4.086   6.037  0.5263  0.9739 -1.0658
   89SAPC   H3X 8469   5.411   4.161   6.074 -0.8283  0.8558  2.1831
   89SAPC   H3Y 8470   5.239   4.132   6.058  0.4906  0.6867 -0.5812
   89SAPC   C34 8471   5.351   4.049   5.894 -0.2066  0.2842  0.4019
   89SAPC   H4X 8472   5.257   4.001   5.861  0.7155 -0.3737 -1.4275
   89SAPC   H4Y 8473   5.433   3.975   5.883  0.3901  0.8653  0.8544
   89SAPC   C35 8474   5.396   4.162   5.803 -0.9056  0.1083 -0.3712
   89SAPC   H5X 8475   5.507   4.162   5.795 -0.8496 -0.6972  0.2897
   89SAPC   H5Y 8476   5.357   4.258   5.845  0.2843  1.6380 -2.5609
   89SAPC   C36 8477   5.333   4.141   5.664  0.4010  0.3428  0.7779
   89SAPC   H6X 8478   5.363   4.232   5.607  0.7884  0.1972  0.7500
   89SAPC   H6Y 8479   5.222   4.138   5.662  0.4168 -1.9463 -0.6406
   89SAPC   C37 8480   5.366   4.015   5.578 -0.3320 -0.4771 -0.2781
   89SAPC   H7X 8481   5.297   3.931   5.600 -0.6341 -0.5858 -1.5533
   89SAPC   H7Y 8482   5.471   3.986   5.596 -0.8993 -1.8873  0.8903
   89SAPC   C38 8483   5.358   4.041   5.426 -0.3991 -0.0282 -0.1148
   89SAPC   H8X 8484   5.396   4.142   5.399  3.2455 -1.2278  0.1024
   89SAPC   H8Y 8485   5.249   4.035   5.405  0.0374 -2.7473 -2.0388
   89SAPC   C39 8486   5.424   3.942   5.329  0.9158 -0.4769 -0.1757
   89SAPC   H9X 8487   5.392   3.844   5.369  3.2542 -0.6962  1.3650
   89SAPC   H9Y 8488   5.535   3.939   5.340  0.8106 -2.2271  0.6645
   89SAPC  C310 8489   5.390   3.972   5.178 -0.7564  0.7653  0.2257
   89SAPC  H10X 8490   5.279   3.981   5.181 -0.6748  1.8527  0.2153
   89SAPC  H10Y 8491   5.428   3.886   5.119 -2.0302 -0.0560  0.5603
   89SAPC  C311 8492   5.429   4.114   5.125 -0.1523  0.6882 -0.3073
   89SAPC  H11X 8493   5.538   4.136   5.131 -0.1061  0.2167  0.7749
   89SAPC  H11Y 8494   5.371   4.188   5.183  1.8085  2.1942 -0.1634
   89SAPC  C312 8495   5.371   4.140   4.982  0.0868  0.2872  0.1378
   89SAPC  H12X 8496   5.264   4.112   4.973  0.2883  0.2800 -3.7046
   89SAPC  H12Y 8497   5.431   4.085   4.906 -1.9021  1.3724 -2.3409
   89SAPC  C313 8498   5.380   4.287   4.944 -0.6751 -0.6224 -0.1316
   89SAPC  H13X 8499   5.484   4.323   4.961 -0.5338 -1.9564  2.2081
   89SAPC  H13Y 8500   5.309   4.341   5.010 -0.6297  1.1123 -1.4363
   89SAPC  C314 8501   5.340   4.333   4.797  0.3145  0.0858 -1.0011
   89SAPC  H14X 8502   5.347   4.444   4.787  0.1668 -0.0878 -3.8705
   89SAPC  H14Y 8503   5.234   4.308   4.775  0.2553  1.2095 -2.1467
   89SAPC  C315 8504   5.427   4.272   4.688  0.1647 -0.1688  0.5300
   89SAPC  H15X 8505   5.411   4.163   4.674  1.5087 -0.5041  1.4138
   89SAPC  H15Y 8506   5.531   4.274   4.726  0.3049  0.8075  0.1331
   89SAPC  C316 8507   5.421   4.360   4.557 -0.7031  0.4767 -0.3720
   89SAPC  H16X 8508   5.473   4.455   4.579 -1.1331  0.8430 -0.9171
   89SAPC  H16Y 8509   5.318   4.384   4.522 -0.9584 -1.0995 -0.8238
   89SAPC  C317 8510   5.504   4.309   4.438  0.3983 -0.9316 -0.1662
   89SAPC  H17X 8511   5.459   4.212   4.407 -2.2750  0.3827 -0.7023
   89SAPC  H17Y 8512   5.612   4.299   4.462  0.4798 -0.2936 -0.2486
   89SAPC  C318 8513   5.478   4.400   4.317  0.6051 -0.4384 -0.1787
   89SAPC  H18X 8514   5.513   4.505   4.326 -0.6943  0.1882 -1.7543
   89SAPC  H18Y 8515   5.369   4.396   4.295  0.5842  0.3185 -0.2428
   89SAPC  H18Z 8516   5.529   4.348   4.233 -1.8088  0.1059 -2.1214
   90SAPC     N 8517   2.160   2.432   7.347 -0.4875  0.7857  0.0807
   90SAPC   C12 8518   2.276   2.341   7.312 -0.3243  0.1491  0.0414
   90SAPC  H12A 8519   2.319   2.371   7.218  0.4325  2.1296  0.9670
   90SAPC  H12B 8520   2.238   2.241   7.295 -1.0581  0.4489 -0.1220
   90SAPC   C13 8521   2.215   2.567   7.393  0.4391  0.0630  0.8288
   90SAPC  H13A 8522   2.140   2.634   7.431 -0.2171  0.2901 -0.8110
   90SAPC  H13B 8523   2.289   2.553   7.471  0.8538  2.4742  0.9369
   90SAPC  H13C 8524   2.264   2.610   7.307 -0.6695 -0.2516  0.0259
   90SAPC   C14 8525   2.076   2.456   7.222 -0.8938 -0.2043  0.8782
   90SAPC  H14A 8526   2.049   2.366   7.169  0.7608  0.2328 -0.8080
   90SAPC  H14B 8527   1.986   2.515   7.231  0.1994  2.1921 -1.9584
   90SAPC  H14C 8528   2.134   2.508   7.147  0.8997 -0.3011  2.1126
   90SAPC   C15 8529   2.072   2.375   7.448  0.7730  0.8265 -0.4279
   90SAPC  H15A 8530   1.989   2.442   7.462  0.7659  0.8739 -0.7009
   90SAPC  H15B 8531   2.030   2.280   7.420  0.7718  1.0594 -1.2398
   90SAPC  H15C 8532   2.122   2.366   7.543 -1.8031  0.9255  1.0327
   90SAPC   C11 8533   2.397   2.337   7.409  0.2576 -0.5699  0.1135
   90SAPC  H11A 8534   2.461   2.251   7.378 -1.5811 -1.3311 -1.7919
   90SAPC  H11B 8535   2.351   2.304   7.504  1.5697 -1.7704  0.3724
   90SAPC     P 8536   2.594   2.473   7.319 -0.0056  0.0808 -0.3636
   90SAPC   O13 8537   2.659   2.606   7.336  0.0997  0.8991 -0.2143
   90SAPC   O14 8538   2.683   2.354   7.334 -0.0285 -0.1922 -0.4959
   90SAPC   O12 8539   2.474   2.452   7.417 -0.4448  0.3213  0.3697
   90SAPC   O11 8540   2.528   2.460   7.174 -0.4978  0.0750 -0.4740
   90SAPC    C1 8541   2.507   2.570   7.086 -0.3344  0.3969 -0.8939
   90SAPC    HA 8542   2.398   2.584   7.069 -0.2361  0.4717 -1.5018
   90SAPC    HB 8543   2.543   2.667   7.126 -0.0784  0.3484 -1.0038
   90SAPC    C2 8544   2.576   2.535   6.954 -0.1265 -0.5655 -0.3157
   90SAPC    HS 8545   2.511   2.464   6.899 -0.2025 -1.5464  0.9829
   90SAPC   O21 8546   2.702   2.475   6.992  0.1234  0.5248  0.2780
   90SAPC   C21 8547   2.711   2.346   6.985 -0.4080 -0.6306  0.7151
   90SAPC   O22 8548   2.626   2.264   6.948 -0.6597 -0.2897  0.1429
   90SAPC   C22 8549   2.855   2.314   7.026 -0.4365 -0.0497 -1.0232
   90SAPC   H2R 8550   2.927   2.389   6.987  1.6367 -1.0877  0.6111
   90SAPC   H2S 8551   2.846   2.321   7.137 -0.3789  0.5665 -1.0526
   90SAPC    C3 8552   2.607   2.658   6.869  0.0581 -0.0859  0.1692
   90SAPC    HX 8553   2.667   2.727   6.932  0.6580 -1.4442  1.1327
   90SAPC    HY 8554   2.510   2.704   6.844 -0.9920 -2.5930 -0.6741
   90SAPC   O31 8555   2.680   2.621   6.745 -0.2921  0.5622 -0.0765
   90SAPC   C31 8556   2.683   2.717   6.657  0.6952  0.4025 -0.3693
   90SAPC   O32 8557   2.604   2.814   6.651  0.4472  0.3968 -0.4810
   90SAPC   C32 8558   2.806   2.700   6.566  0.3990  0.5933  0.0375
   90SAPC   H2X 8559   2.857   2.601   6.568  0.5971  0.6854 -0.4015
   90SAPC   H2Y 8560   2.886   2.766   6.608  0.0424  0.1609  1.4643
   90SAPC   C23 8561   2.903   2.169   7.006  1.2103  0.0702 -0.9142
   90SAPC   H3R 8562   2.835   2.103   7.063  0.8469  1.7392  0.6990
   90SAPC   H3S 8563   2.996   2.175   7.066  1.3067  0.3708 -1.0911
   90SAPC   C24 8564   2.929   2.136   6.862  0.9076  0.2233 -0.1007
   90SAPC   H4R 8565   2.835   2.088   6.827  2.3221 -2.1558 -0.7729
   90SAPC   H4S 8566   3.001   2.052   6.867  1.3637  0.6591  0.9106
   90SAPC   C25 8567   2.998   2.244   6.785  0.0801 -0.6819 -0.1430
   90SAPC   H5R 8568   3.066   2.307   6.844 -0.9772  0.5815 -0.2329
   90SAPC   C26 8569   2.979   2.273   6.657 -0.6093  0.4041  0.0856
   90SAPC   H6R 8570   3.043   2.347   6.606  0.3375 -0.0979  0.5269
   90SAPC   C27 8571   2.890   2.196   6.568  0.0790  0.3579  0.3398
   90SAPC   H7R 8572   2.828   2.120   6.620  1.9863 -0.3390  1.7112
   90SAPC   H7S 8573   2.944   2.130   6.496 -2.1651 -1.4427  0.1837
   90SAPC   C28 8574   2.794   2.286   6.495 -0.2639  0.7189  0.4861
   90SAPC   H8R 8575   2.773   2.387   6.533  0.7723  1.5661 -1.0998
   90SAPC   C29 8576   2.725   2.245   6.386 -0.1827  0.3745 -0.4743
   90SAPC   H9R 8577   2.673   2.324   6.330 -0.1080  0.4533 -0.4332
   90SAPC  C210 8578   2.724   2.111   6.320 -0.8562  0.4103  0.0930
   90SAPC  H10R 8579   2.627   2.060   6.304  0.8670 -2.6941 -1.2156
   90SAPC  H10S 8580   2.770   2.037   6.389 -0.2464 -0.7951 -1.5291
   90SAPC  C211 8581   2.819   2.099   6.208  0.1107  0.3145 -0.0300
   90SAPC  H11R 8582   2.926   2.088   6.231  0.1915 -2.8606 -1.3875
   90SAPC  C212 8583   2.793   2.116   6.078  0.1353 -0.4416 -0.6734
   90SAPC  H12R 8584   2.874   2.116   6.004  1.0387 -0.5942  0.2853
   90SAPC  C213 8585   2.656   2.129   6.022  0.3070  0.5950 -0.1980
   90SAPC  H13R 8586   2.582   2.096   6.098  2.6049 -1.3333  1.3638
   90SAPC  H13S 8587   2.638   2.051   5.945  0.2017  0.0053  0.4164
   90SAPC  C214 8588   2.627   2.271   5.972  0.7053 -0.0095 -0.1965
   90SAPC  H14R 8589   2.597   2.336   6.055  0.9224  0.6122 -0.6023
   90SAPC  C215 8590   2.610   2.306   5.842  0.2544 -0.2713  0.2533
   90SAPC  H15R 8591   2.567   2.403   5.815 -1.9953 -0.9904  1.0528
   90SAPC  C216 8592   2.615   2.214   5.721 -0.7922 -0.4809 -0.0355
   90SAPC  H16R 8593   2.521   2.211   5.663 -1.4112  1.7726  0.7405
   90SAPC  H16S 8594   2.640   2.111   5.757 -1.9124 -1.6078 -2.2837
   90SAPC  C217 8595   2.725   2.268   5.626 -0.6991  0.5090 -0.5185
   90SAPC  H17R 8596   2.725   2.189   5.548  1.7340  1.3082 -1.4309
   90SAPC  H17S 8597   2.825   2.273   5.674 -0.3076  1.4478 -1.4034
   90SAPC  C218 8598   2.706   2.413   5.564  0.6858  0.5169  0.0905
   90SAPC  H18R 8599   2.802   2.470   5.569  1.5314 -0.6795 -1.3535
   90SAPC  H18S 8600   2.640   2.464   5.637  1.1302 -1.6154  2.1033
   90SAPC  C219 8601   2.636   2.406   5.428 -0.0180  0.3054 -0.3404
   90SAPC  H19R 8602   2.533   2.366   5.432  0.0053  0.2200 -0.5799
   90SAPC  H19S 8603   2.710   2.359   5.359  2.5012  3.3018  0.0621
   90SAPC  C220 8604   2.615   2.540   5.364  0.0087 -0.2683  0.7244
   90SAPC  H20R 8605   2.561   2.606   5.436 -1.1988  0.7541 -1.0238
   90SAPC  H20S 8606   2.534   2.519   5.291 -2.3534  0.1800  3.0681
   90SAPC  H20T 8607   2.706   2.586   5.320 -1.2596 -0.4164 -2.2662
   90SAPC   C33 8608   2.771   2.736   6.417  0.2684 -0.2007  0.0086
   90SAPC   H3X 8609   2.866   2.739   6.361  1.5223 -1.7498  1.9022
   90SAPC   H3Y 8610   2.722   2.835   6.421  0.5003  0.0381 -2.0320
   90SAPC   C34 8611   2.665   2.641   6.357  0.1537  0.9971 -0.1189
   90SAPC   H4X 8612   2.672   2.541   6.404  2.0653 -0.5447 -3.3658
   90SAPC   H4Y 8613   2.699   2.620   6.253  0.1142 -2.4588  0.4599
   90SAPC   C35 8614   2.522   2.697   6.360  0.4724  0.4219 -0.4027
   90SAPC   H5X 8615   2.516   2.799   6.316 -1.4974  0.6815  0.3644
   90SAPC   H5Y 8616   2.472   2.699   6.460  0.3079 -0.4082 -0.4568
   90SAPC   C36 8617   2.415   2.621   6.273 -0.4527  0.5952 -0.0454
   90SAPC   H6X 8618   2.319   2.675   6.288 -0.2923  1.0322 -0.5699
   90SAPC   H6Y 8619   2.407   2.519   6.318 -0.5469 -0.2518 -1.9082
   90SAPC   C37 8620   2.440   2.610   6.124 -0.6304  0.5915 -0.0768
   90SAPC   H7X 8621   2.528   2.548   6.096 -0.6987 -0.5475  2.0185
   90SAPC   H7Y 8622   2.469   2.715   6.104 -0.5097  0.4517 -0.6514
   90SAPC   C38 8623   2.315   2.573   6.049  0.5125  0.3520  0.2535
   90SAPC   H8X 8624   2.244   2.659   6.045  0.3070  0.1489 -0.8508
   90SAPC   H8Y 8625   2.269   2.497   6.115 -2.2131  0.1477 -1.6815
   90SAPC   C39 8626   2.332   2.517   5.911  0.4520  0.4464  0.5277
   90SAPC   H9X 8627   2.378   2.416   5.921  1.2216  0.8818  1.6634
   90SAPC   H9Y 8628   2.404   2.585   5.858 -0.6853 -0.2988 -2.1411
   90SAPC  C310 8629   2.209   2.502   5.815  0.3090  0.3365  0.0437
   90SAPC  H10X 8630   2.171   2.603   5.789 -0.9120 -0.2306 -0.4636
   90SAPC  H10Y 8631   2.124   2.444   5.857 -0.3700 -0.5597 -2.4255
   90SAPC  C311 8632   2.255   2.428   5.690 -0.4705  0.1356 -0.4724
   90SAPC  H11X 8633   2.277   2.325   5.723 -0.7529 -0.3301 -1.7054
   90SAPC  H11Y 8634   2.351   2.475   5.658  0.4899 -1.9668 -0.8171
   90SAPC  C312 8635   2.170   2.452   5.569 -0.0701  0.0988 -0.1146
   90SAPC  H12X 8636   2.140   2.559   5.568  0.6015  0.3025 -1.5107
   90SAPC  H12Y 8637   2.078   2.390   5.572 -0.4408  0.5851  3.6659
   90SAPC  C313 8638   2.243   2.424   5.434  0.4906 -0.5592  0.2678
   90SAPC  H13X 8639   2.283   2.322   5.416  2.5332  0.4041 -1.0973
   90SAPC  H13Y 8640   2.336   2.483   5.451  0.7686 -0.9899  0.2534
   90SAPC  C314 8641   2.162   2.481   5.315  0.2307  0.2548  0.2344
   90SAPC  H14X 8642   2.143   2.590   5.321  0.4413  0.3026  0.0446
   90SAPC  H14Y 8643   2.059   2.439   5.313 -0.1004  1.0667 -0.2550
   90SAPC  C315 8644   2.212   2.437   5.172 -0.6518 -0.2605 -0.2709
   90SAPC  H15X 8645   2.318   2.472   5.165 -0.6433 -0.0854  0.6173
   90SAPC  H15Y 8646   2.152   2.481   5.089  0.9752  0.8131 -0.9426
   90SAPC  C316 8647   2.219   2.281   5.155 -0.5908 -0.0303  1.0282
   90SAPC  H16X 8648   2.290   2.246   5.233  1.5520  0.5209 -0.5893
   90SAPC  H16Y 8649   2.262   2.253   5.057  0.0273  1.1646  0.9383
   90SAPC  C317 8650   2.090   2.207   5.161 -0.5529  0.1855  0.2546
   90SAPC  H17X 8651   2.067   2.205   5.270  2.1505  1.0682  0.9039
   90SAPC  H17Y 8652   2.107   2.100   5.138 -1.3787 -0.7070  3.3077
   90SAPC  C318 8653   1.972   2.257   5.074  0.1869 -0.0986  0.3788
   90SAPC  H18X 8654   1.878   2.212   5.113 -0.5457  1.1403  0.1093
   90SAPC  H18Y 8655   1.978   2.202   4.977 -3.0080 -0.2652  0.1693
   90SAPC  H18Z 8656   1.961   2.364   5.049 -2.6312 -0.6520 -1.2487
   91SAPC     N 8657   2.324   1.656   7.235 -0.4056 -0.3980 -0.4374
   91SAPC   C12 8658   2.193   1.640   7.302  0.1656 -0.1734 -0.1215
   91SAPC  H12A 8659   2.163   1.741   7.325  1.0921  0.6052 -2.0714
   91SAPC  H12B 8660   2.204   1.580   7.391  1.6847 -0.7020 -0.6312
   91SAPC   C13 8661   2.329   1.769   7.143  0.5212 -0.0981  0.5676
   91SAPC  H13A 8662   2.266   1.757   7.056  0.3790  1.5058  0.4149
   91SAPC  H13B 8663   2.280   1.848   7.199 -1.1380  2.2647 -3.7581
   91SAPC  H13C 8664   2.428   1.800   7.113  0.2043  1.6196  1.1770
   91SAPC   C14 8665   2.430   1.682   7.340  0.5432 -0.8823 -0.0339
   91SAPC  H14A 8666   2.426   1.785   7.371  1.0040 -0.4159 -1.4386
   91SAPC  H14B 8667   2.423   1.618   7.427  0.3803 -0.0273  0.5966
   91SAPC  H14C 8668   2.523   1.660   7.289 -0.1183  0.2859 -1.8308
   91SAPC   C15 8669   2.374   1.529   7.161  0.2365  0.2789 -0.0534
   91SAPC  H15A 8670   2.346   1.446   7.225 -0.3375  0.2736 -0.3027
   91SAPC  H15B 8671   2.335   1.523   7.060 -0.2424 -0.1560  0.1544
   91SAPC  H15C 8672   2.481   1.537   7.166  0.6392 -3.4096 -0.3347
   91SAPC   C11 8673   2.076   1.569   7.223  0.4066  0.3412 -0.2411
   91SAPC  H11A 8674   1.983   1.548   7.280  0.8462 -0.5825  0.1462
   91SAPC  H11B 8675   2.106   1.465   7.201  1.5331  0.4154  0.8390
   91SAPC     P 8676   1.950   1.776   7.122  0.3164  0.1321 -0.0363
   91SAPC   O13 8677   1.843   1.754   7.223 -0.2151 -0.2221 -0.0533
   91SAPC   O14 8678   2.042   1.889   7.146  0.2437 -0.0940 -0.1347
   91SAPC   O12 8679   2.035   1.643   7.102 -0.0193  0.6847  0.1347
   91SAPC   O11 8680   1.875   1.789   6.984  0.6182  0.0722  0.5610
   91SAPC    C1 8681   1.940   1.748   6.868  0.3950  0.7611  0.1184
   91SAPC    HA 8682   2.049   1.745   6.887  0.3289 -2.1976  0.5488
   91SAPC    HB 8683   1.904   1.644   6.852  1.8194  0.4499 -1.3964
   91SAPC    C2 8684   1.903   1.829   6.743 -0.1165 -0.4769  0.0339
   91SAPC    HS 8685   1.911   1.937   6.770 -0.2817  0.2336 -2.4902
   91SAPC   O21 8686   1.768   1.797   6.716  0.4594 -0.4527 -0.2565
   91SAPC   C21 8687   1.698   1.888   6.656 -1.0316 -0.0692  0.0664
   91SAPC   O22 8688   1.727   2.000   6.618  0.2756 -0.0708 -0.0800
   91SAPC   C22 8689   1.546   1.846   6.640 -0.5722  0.0559 -0.6433
   91SAPC   H2R 8690   1.512   1.831   6.744  2.7443  1.9450  0.8582
   91SAPC   H2S 8691   1.496   1.930   6.586 -1.5968 -1.2021 -1.7206
   91SAPC    C3 8692   1.995   1.785   6.622  0.0924  0.2656  0.3510
   91SAPC    HX 8693   2.097   1.813   6.654 -0.0177  0.9030  0.1643
   91SAPC    HY 8694   1.969   1.838   6.527  1.0774 -0.3341 -0.2732
   91SAPC   O31 8695   1.992   1.649   6.582  0.4548  0.2909 -0.0374
   91SAPC   C31 8696   2.084   1.610   6.492 -0.7822 -0.4288 -0.7960
   91SAPC   O32 8697   2.161   1.684   6.437  0.6777  0.3026  0.3141
   91SAPC   C32 8698   2.076   1.458   6.486  0.1727  0.0667 -0.7197
   91SAPC   H2X 8699   1.975   1.417   6.505  0.2549 -1.2926 -2.8970
   91SAPC   H2Y 8700   2.131   1.427   6.578  0.9893  2.2123 -0.4302
   91SAPC   C23 8701   1.529   1.725   6.546  0.0429 -0.7305 -0.4541
   91SAPC   H3R 8702   1.572   1.640   6.602 -0.3329  1.2116  3.0921
   91SAPC   H3S 8703   1.601   1.739   6.462  3.2319 -0.2640  2.1492
   91SAPC   C24 8704   1.390   1.700   6.492  0.3702  0.1195  0.1748
   91SAPC   H4R 8705   1.345   1.779   6.429 -0.9875 -1.0418 -0.3718
   91SAPC   H4S 8706   1.312   1.680   6.570 -0.2326 -0.7390 -0.6262
   91SAPC   C25 8707   1.409   1.570   6.414  0.3371  0.4481 -0.8231
   91SAPC   H5R 8708   1.419   1.486   6.485  1.4901 -0.4092 -1.9545
   91SAPC   C26 8709   1.432   1.562   6.284  0.5467  0.2905 -0.6468
   91SAPC   H6R 8710   1.455   1.465   6.237  1.5224  1.2015 -2.1464
   91SAPC   C27 8711   1.437   1.677   6.187 -0.2755 -0.9665 -0.1419
   91SAPC   H7R 8712   1.541   1.716   6.182 -0.3399 -0.7732 -0.0004
   91SAPC   H7S 8713   1.378   1.757   6.236  0.1358 -1.4909  1.2652
   91SAPC   C28 8714   1.368   1.636   6.060 -0.5101 -0.1279 -0.5720
   91SAPC   H8R 8715   1.284   1.566   6.069 -1.2314  0.1749 -3.7846
   91SAPC   C29 8716   1.391   1.664   5.932  0.3470  0.4186  0.5048
   91SAPC   H9R 8717   1.328   1.618   5.854  0.2332 -1.2762  1.5406
   91SAPC  C210 8718   1.513   1.745   5.893  0.1044  0.0194 -0.1717
   91SAPC  H10R 8719   1.603   1.686   5.921  0.6823  1.2282  0.5841
   91SAPC  H10S 8720   1.509   1.841   5.947 -0.0129  0.7748 -1.4821
   91SAPC  C211 8721   1.502   1.785   5.744 -0.1583  0.2797  0.4239
   91SAPC  H11R 8722   1.426   1.860   5.715  0.7633  1.3291  0.6430
   91SAPC  C212 8723   1.561   1.724   5.643 -0.1154 -0.0834 -0.1454
   91SAPC  H12R 8724   1.558   1.776   5.546  1.5057  1.2644  0.4684
   91SAPC  C213 8725   1.662   1.616   5.645 -0.2110 -0.0279  0.8456
   91SAPC  H13R 8726   1.626   1.524   5.697 -0.1651  1.3684  3.5369
   91SAPC  H13S 8727   1.745   1.651   5.710  0.5085 -0.0452 -0.0470
   91SAPC  C214 8728   1.730   1.570   5.519  0.1002  0.0623  0.5242
   91SAPC  H14R 8729   1.828   1.620   5.506 -0.3293  1.2611  1.6631
   91SAPC  C215 8730   1.669   1.531   5.407 -1.1921 -0.2909 -0.5857
   91SAPC  H15R 8731   1.733   1.503   5.322 -0.8971 -1.5302  0.0080
   91SAPC  C216 8732   1.526   1.476   5.400 -0.5693  0.3360 -0.8824
   91SAPC  H16R 8733   1.478   1.462   5.500  2.2171  0.5086  0.5607
   91SAPC  H16S 8734   1.525   1.381   5.343 -2.7484  1.0572 -2.1607
   91SAPC  C217 8735   1.439   1.573   5.329 -0.4894 -0.2703  0.0268
   91SAPC  H17R 8736   1.488   1.584   5.230  0.7065  1.1819  0.7415
   91SAPC  H17S 8737   1.433   1.676   5.371  0.5933  0.3610 -1.3039
   91SAPC  C218 8738   1.300   1.523   5.303  0.1208  0.5428 -0.7653
   91SAPC  H18R 8739   1.288   1.433   5.239 -1.0011  0.5652 -0.6067
   91SAPC  H18S 8740   1.251   1.602   5.241  0.8371  1.8886  0.3381
   91SAPC  C219 8741   1.205   1.501   5.425  0.3101  0.0171  0.0947
   91SAPC  H19R 8742   1.218   1.586   5.496 -0.3934 -1.3181  1.8985
   91SAPC  H19S 8743   1.242   1.411   5.479  0.2146  0.2551  0.5594
   91SAPC  C220 8744   1.053   1.495   5.395  0.7719  0.1384 -0.2211
   91SAPC  H20R 8745   1.020   1.394   5.362  1.8865 -0.2031 -0.3294
   91SAPC  H20S 8746   1.024   1.575   5.323 -1.7174 -1.2289 -0.8709
   91SAPC  H20T 8747   1.000   1.519   5.490  0.3888  0.6317 -0.5543
   91SAPC   C33 8748   2.141   1.413   6.349  0.1436 -0.4184 -0.0359
   91SAPC   H3X 8749   2.151   1.302   6.348 -0.3016 -0.5250  2.1139
   91SAPC   H3Y 8750   2.243   1.457   6.350  0.7858 -1.8620  1.2450
   91SAPC   C34 8751   2.063   1.453   6.224  0.2187 -0.4095  0.0269
   91SAPC   H4X 8752   2.041   1.562   6.224 -1.6417 -0.7287 -1.2864
   91SAPC   H4Y 8753   1.964   1.402   6.219  0.9703 -2.1323  1.6796
   91SAPC   C35 8754   2.127   1.421   6.093  0.9835  0.4834 -0.0594
   91SAPC   H5X 8755   2.144   1.311   6.085  3.2713  0.5597  2.4171
   91SAPC   H5Y 8756   2.232   1.458   6.098  1.0980  0.3577 -1.1750
   91SAPC   C36 8757   2.051   1.490   5.970 -0.2019  0.1396 -1.1219
   91SAPC   H6X 8758   2.039   1.598   5.995  0.3228  0.1537 -0.9255
   91SAPC   H6Y 8759   1.952   1.443   5.952 -0.6331  0.1688  0.9074
   91SAPC   C37 8760   2.134   1.490   5.846 -0.3361  0.7111  1.3294
   91SAPC   H7X 8761   2.192   1.396   5.836  0.5034  1.3483 -0.0756
   91SAPC   H7Y 8762   2.214   1.565   5.861  2.0629 -1.5424  0.6849
   91SAPC   C38 8763   2.064   1.530   5.718 -0.0137 -0.1985 -0.1574
   91SAPC   H8X 8764   2.030   1.634   5.736  0.5305  0.0058 -0.2960
   91SAPC   H8Y 8765   1.971   1.469   5.709 -0.5710  0.3506  1.5313
   91SAPC   C39 8766   2.155   1.534   5.596  0.0549  0.3010 -0.1680
   91SAPC   H9X 8767   2.251   1.584   5.622  1.0970 -1.3431 -0.6771
   91SAPC   H9Y 8768   2.104   1.601   5.523 -2.3284 -1.2395 -0.0153
   91SAPC  C310 8769   2.166   1.389   5.540  0.3314  0.2296 -0.0316
   91SAPC  H10X 8770   2.062   1.349   5.537 -0.1488  1.2991  1.3021
   91SAPC  H10Y 8771   2.225   1.339   5.619 -0.3096  0.8282  0.8431
   91SAPC  C311 8772   2.232   1.382   5.405 -0.0262 -0.5348 -0.2699
   91SAPC  H11X 8773   2.198   1.478   5.360  0.7544 -0.6848 -1.2090
   91SAPC  H11Y 8774   2.203   1.290   5.350 -0.6658 -0.7389  0.3932
   91SAPC  C312 8775   2.387   1.395   5.420  0.1428  0.2508 -0.0921
   91SAPC  H12X 8776   2.423   1.317   5.490  0.6843  1.3036  0.8053
   91SAPC  H12Y 8777   2.407   1.487   5.478  2.4665  0.0189 -0.4472
   91SAPC  C313 8778   2.456   1.385   5.285 -0.4432  0.1444 -0.2396
   91SAPC  H13X 8779   2.418   1.457   5.209 -1.7213 -0.1014  0.1310
   91SAPC  H13Y 8780   2.432   1.283   5.248  0.4219  0.2478 -1.1372
   91SAPC  C314 8781   2.608   1.394   5.278  0.3642 -0.4502  0.0478
   91SAPC  H14X 8782   2.631   1.429   5.175 -0.5107 -0.0013 -0.0044
   91SAPC  H14Y 8783   2.650   1.292   5.294 -0.8589 -0.8032  1.1302
   91SAPC  C315 8784   2.665   1.499   5.375 -0.1003 -0.5748  0.3026
   91SAPC  H15X 8785   2.637   1.472   5.478 -2.0957 -0.9490 -0.2940
   91SAPC  H15Y 8786   2.609   1.593   5.353  0.9123 -0.0508 -0.1293
   91SAPC  C316 8787   2.823   1.511   5.367  0.6102 -0.2700 -0.0151
   91SAPC  H16X 8788   2.860   1.587   5.439  1.1798 -0.7793  0.2380
   91SAPC  H16Y 8789   2.854   1.531   5.263  0.3028 -0.8891 -0.2347
   91SAPC  C317 8790   2.891   1.382   5.408  0.6168  0.2054 -0.5946
   91SAPC  H17X 8791   2.850   1.296   5.352 -1.6934  0.2944  0.8303
   91SAPC  H17Y 8792   2.883   1.371   5.518 -1.9669  2.5924 -0.4144
   91SAPC  C318 8793   3.041   1.377   5.374  0.4406 -0.7803 -0.0272
   91SAPC  H18X 8794   3.087   1.287   5.421 -4.2749 -2.0191  2.8181
   91SAPC  H18Y 8795   3.093   1.473   5.393  1.9342 -0.5472 -4.1984
   91SAPC  H18Z 8796   3.051   1.357   5.265  0.7164 -0.1198 -0.1291
   92SAPC     N 8797   6.652   1.442   7.462 -0.0389  0.9395  0.4844
   92SAPC   C12 8798   6.719   1.537   7.355  0.0020 -0.0405  0.0439
   92SAPC  H12A 8799   6.825   1.545   7.378 -0.1090  0.7671  0.2875
   92SAPC  H12B 8800   6.679   1.634   7.378 -2.7624 -1.7048  2.9601
   92SAPC   C13 8801   6.707   1.307   7.432  0.6822 -0.7291 -1.0698
   92SAPC  H13A 8802   6.669   1.284   7.334 -0.6868 -1.0924 -0.4796
   92SAPC  H13B 8803   6.815   1.300   7.440  0.5894 -2.2890 -0.7735
   92SAPC  H13C 8804   6.672   1.229   7.498 -0.5131  1.3846  0.9320
   92SAPC   C14 8805   6.699   1.485   7.597 -0.6941 -0.7493 -0.2865
   92SAPC  H14A 8806   6.806   1.495   7.594 -0.8390  0.7206 -1.2600
   92SAPC  H14B 8807   6.658   1.583   7.614  1.2217  0.2694 -1.3076
   92SAPC  H14C 8808   6.665   1.416   7.674 -0.6660 -3.0688 -2.2197
   92SAPC   C15 8809   6.507   1.448   7.447 -0.6412 -0.3858 -0.1182
   92SAPC  H15A 8810   6.474   1.546   7.475 -0.9800 -0.5596  0.1021
   92SAPC  H15B 8811   6.477   1.417   7.348  0.4053  1.3955 -1.0222
   92SAPC  H15C 8812   6.464   1.376   7.516  1.0194  1.2635  2.8484
   92SAPC   C11 8813   6.705   1.500   7.207  0.3656 -0.4208 -0.0939
   92SAPC  H11A 8814   6.771   1.418   7.172 -1.8797 -1.2809 -2.6026
   92SAPC  H11B 8815   6.743   1.596   7.163  1.2442  0.1866  1.8545
   92SAPC     P 8816   6.534   1.391   7.037 -0.6901  0.0342  0.2137
   92SAPC   O13 8817   6.565   1.250   7.068  0.5201 -0.0431  0.7912
   92SAPC   O14 8818   6.396   1.427   6.987  0.0261 -0.0055 -0.0902
   92SAPC   O12 8819   6.571   1.475   7.164 -0.7599  0.1299 -0.6089
   92SAPC   O11 8820   6.639   1.430   6.926  0.5818 -0.4040 -0.5446
   92SAPC    C1 8821   6.774   1.377   6.901  0.6202 -0.0701 -0.5911
   92SAPC    HA 8822   6.851   1.455   6.917  0.7554 -0.5513  1.4177
   92SAPC    HB 8823   6.792   1.286   6.963 -0.4829  0.0316 -0.0913
   92SAPC    C2 8824   6.799   1.331   6.755  1.2868  0.3019 -0.1255
   92SAPC    HS 8825   6.903   1.293   6.743  1.0321 -0.2148 -0.7210
   92SAPC   O21 8826   6.764   1.435   6.661 -0.2178 -0.2191 -0.1873
   92SAPC   C21 8827   6.854   1.533   6.642 -0.0168  0.7575 -0.4921
   92SAPC   O22 8828   6.951   1.556   6.713 -0.7188 -0.3556 -0.0312
   92SAPC   C22 8829   6.814   1.617   6.520  0.5624 -0.6254  0.5134
   92SAPC   H2R 8830   6.713   1.660   6.537  0.6124  1.1571 -2.8960
   92SAPC   H2S 8831   6.885   1.701   6.510 -0.9272  0.4874 -1.3238
   92SAPC    C3 8832   6.711   1.214   6.713 -0.0369  0.6414  0.4595
   92SAPC    HX 8833   6.610   1.250   6.685  0.5247  0.8158 -1.4530
   92SAPC    HY 8834   6.694   1.141   6.795 -0.2414 -0.7576 -0.8055
   92SAPC   O31 8835   6.768   1.157   6.594 -0.7147  0.0060 -0.0927
   92SAPC   C31 8836   6.717   1.044   6.553  0.0400 -0.8111 -0.4151
   92SAPC   O32 8837   6.625   0.983   6.600  0.5596  0.2231 -0.3495
   92SAPC   C32 8838   6.783   1.013   6.419 -0.2410  0.6691 -0.6097
   92SAPC   H2X 8839   6.890   0.987   6.434 -1.0016 -2.2004  0.4120
   92SAPC   H2Y 8840   6.770   1.099   6.350  1.0506  1.1319 -0.3048
   92SAPC   C23 8841   6.821   1.540   6.387 -0.1188 -0.6401  0.2993
   92SAPC   H3R 8842   6.778   1.438   6.392  2.0589 -1.6155  0.2475
   92SAPC   H3S 8843   6.929   1.518   6.373  0.0188  0.5287 -0.6903
   92SAPC   C24 8844   6.754   1.606   6.264  0.5306 -0.6258 -0.2762
   92SAPC   H4R 8845   6.643   1.605   6.276  0.5254  0.7892  0.0016
   92SAPC   H4S 8846   6.779   1.542   6.177 -0.2736 -2.3404  0.6981
   92SAPC   C25 8847   6.793   1.747   6.240  0.0688 -0.4246  0.2207
   92SAPC   H5R 8848   6.770   1.816   6.322  2.0146  0.9133 -0.2953
   92SAPC   C26 8849   6.852   1.796   6.131 -0.7256 -0.8437  0.1117
   92SAPC   H6R 8850   6.873   1.904   6.129 -3.5338 -0.2223 -0.3311
   92SAPC   C27 8851   6.903   1.714   6.010 -0.1979 -0.4552  0.4733
   92SAPC   H7R 8852   6.908   1.603   6.021 -0.7121 -0.5536 -0.1787
   92SAPC   H7S 8853   7.003   1.754   5.982 -0.0703 -0.3926  1.0167
   92SAPC   C28 8854   6.809   1.725   5.891 -0.2090  0.0632 -0.7224
   92SAPC   H8R 8855   6.706   1.752   5.917  0.4858  1.8006  0.4532
   92SAPC   C29 8856   6.836   1.735   5.762 -0.4490 -0.0073 -0.1327
   92SAPC   H9R 8857   6.754   1.737   5.689  0.6959  2.0331 -1.4478
   92SAPC  C210 8858   6.975   1.743   5.701  0.6190 -0.1118 -0.3229
   92SAPC  H10R 8859   6.987   1.659   5.629 -0.3554 -1.8468  1.4425
   92SAPC  H10S 8860   7.047   1.717   5.782  0.7312  3.8482  1.0520
   92SAPC  C211 8861   7.020   1.877   5.645 -0.5327 -0.6192  0.4661
   92SAPC  H11R 8862   7.105   1.931   5.690  0.0667 -1.0554 -0.1209
   92SAPC  C212 8863   6.960   1.944   5.540  0.2156 -0.4144 -0.5381
   92SAPC  H12R 8864   7.015   2.032   5.504  1.8045 -1.0080  0.3832
   92SAPC  C213 8865   6.851   1.909   5.441  0.1796  0.0240  0.0812
   92SAPC  H13R 8866   6.833   2.001   5.381  2.6484  0.1546 -0.5803
   92SAPC  H13S 8867   6.755   1.883   5.488  0.5674  1.1128  1.5435
   92SAPC  C214 8868   6.893   1.796   5.348  0.7116 -0.0150  0.4598
   92SAPC  H14R 8869   6.971   1.721   5.369 -0.2151 -1.3105 -0.5754
   92SAPC  C215 8870   6.816   1.773   5.236  0.1251  0.2774  0.2510
   92SAPC  H15R 8871   6.842   1.684   5.176 -1.0033  1.2169 -1.7349
   92SAPC  C216 8872   6.687   1.837   5.189 -0.3089 -0.1838  0.0011
   92SAPC  H16R 8873   6.655   1.893   5.279 -1.0899 -1.5295  0.5850
   92SAPC  H16S 8874   6.611   1.757   5.177  1.2249 -1.7636  0.2614
   92SAPC  C217 8875   6.707   1.921   5.056 -0.2302 -1.2204 -0.6450
   92SAPC  H17R 8876   6.796   1.983   5.081 -1.6105  0.8553 -0.6223
   92SAPC  H17S 8877   6.622   1.993   5.057  0.6438  0.0830  3.9147
   92SAPC  C218 8878   6.698   1.850   4.913 -0.6587 -0.3611 -0.6328
   92SAPC  H18R 8879   6.590   1.824   4.907 -0.2707 -1.8307 -1.6766
   92SAPC  H18S 8880   6.741   1.748   4.912 -1.7748 -0.8544 -0.3674
   92SAPC  C219 8881   6.744   1.940   4.796  0.0270  0.0721 -0.7843
   92SAPC  H19R 8882   6.847   1.978   4.816 -0.1903  0.3078 -0.1095
   92SAPC  H19S 8883   6.674   2.025   4.798 -0.9278 -0.6749 -1.5373
   92SAPC  C220 8884   6.735   1.854   4.672 -1.0399 -1.0655 -0.1177
   92SAPC  H20R 8885   6.626   1.842   4.652 -1.2636  1.1478 -0.4118
   92SAPC  H20S 8886   6.778   1.751   4.676 -0.2117 -0.8103 -1.8042
   92SAPC  H20T 8887   6.775   1.904   4.582 -0.4899 -0.0207  0.6857
   92SAPC   C33 8888   6.716   0.898   6.346  0.5882  0.0892 -0.3823
   92SAPC   H3X 8889   6.608   0.916   6.329  0.2642  0.0846  1.4906
   92SAPC   H3Y 8890   6.728   0.799   6.396 -0.2828 -0.0528 -0.4395
   92SAPC   C34 8891   6.766   0.880   6.201 -0.4277  0.4988 -0.0771
   92SAPC   H4X 8892   6.876   0.864   6.209 -0.2045  2.0522  0.3201
   92SAPC   H4Y 8893   6.760   0.971   6.138  0.3215 -0.6377 -1.8591
   92SAPC   C35 8894   6.689   0.774   6.122 -0.4571 -0.5670 -0.4553
   92SAPC   H5X 8895   6.583   0.800   6.104 -1.2594 -4.7357 -3.1060
   92SAPC   H5Y 8896   6.692   0.670   6.162 -1.5494 -0.5122 -0.1981
   92SAPC   C36 8897   6.757   0.746   5.987 -1.1932 -0.1820 -0.0349
   92SAPC   H6X 8898   6.689   0.671   5.942 -2.4530 -0.0591  1.5478
   92SAPC   H6Y 8899   6.855   0.702   6.018 -1.4197 -0.6224  0.0611
   92SAPC   C37 8900   6.766   0.876   5.906  0.5378  0.7567 -1.0198
   92SAPC   H7X 8901   6.830   0.957   5.945  0.1758  2.1196 -3.0742
   92SAPC   H7Y 8902   6.661   0.912   5.901 -0.8463 -2.7524 -0.0769
   92SAPC   C38 8903   6.805   0.848   5.760  0.2083 -0.4245 -0.3841
   92SAPC   H8X 8904   6.727   0.779   5.721 -1.0925  0.9207 -0.2413
   92SAPC   H8Y 8905   6.907   0.809   5.741 -0.0143 -0.5864 -1.3067
   92SAPC   C39 8906   6.789   0.976   5.669  0.1377  0.0900  0.0101
   92SAPC   H9X 8907   6.889   1.022   5.679 -0.1757  0.5211  1.3496
   92SAPC   H9Y 8908   6.707   1.041   5.706  1.1365  0.0601  2.4613
   92SAPC  C310 8909   6.760   0.934   5.522  0.4265  0.2970 -0.3660
   92SAPC  H10X 8910   6.650   0.929   5.507  0.4374  0.8720 -0.6647
   92SAPC  H10Y 8911   6.795   0.832   5.496 -2.0675 -1.3730  2.1753
   92SAPC  C311 8912   6.823   1.033   5.431 -0.3888  0.1068 -0.2274
   92SAPC  H11X 8913   6.934   1.023   5.438 -0.2549  0.3610 -1.7157
   92SAPC  H11Y 8914   6.805   1.137   5.465 -1.2206 -0.0798 -0.0932
   92SAPC  C312 8915   6.789   1.038   5.280  0.6961  0.3769 -0.3298
   92SAPC  H12X 8916   6.824   1.136   5.242  1.1299 -0.7501 -2.9830
   92SAPC  H12Y 8917   6.679   1.035   5.261  1.0351 -0.9484 -2.3805
   92SAPC  C313 8918   6.860   0.919   5.211 -0.8779  0.5202 -0.1455
   92SAPC  H13X 8919   6.777   0.845   5.213 -0.8857  0.5394  0.2705
   92SAPC  H13Y 8920   6.946   0.881   5.269 -0.6363 -2.9073 -2.4665
   92SAPC  C314 8921   6.908   0.963   5.071  0.2486  0.3191  0.6590
   92SAPC  H14X 8922   6.988   1.040   5.081  1.0840 -0.2742 -1.0424
   92SAPC  H14Y 8923   6.822   1.014   5.024  1.3515  2.7190  1.0737
   92SAPC  C315 8924   6.960   0.851   4.975  0.8836  0.0154  0.1836
   92SAPC  H15X 8925   6.887   0.769   4.962  1.2404 -0.0614 -1.7385
   92SAPC  H15Y 8926   7.048   0.804   5.023 -1.8008 -1.5744  4.1122
   92SAPC  C316 8927   6.986   0.907   4.837 -0.5231 -0.0159 -0.0620
   92SAPC  H16X 8928   7.071   0.975   4.856 -0.3452 -0.7947  2.1784
   92SAPC  H16Y 8929   6.898   0.960   4.795 -1.1480 -0.3816  0.7651
   92SAPC  C317 8930   7.026   0.802   4.727  0.0244 -0.4156 -0.8627
   92SAPC  H17X 8931   7.072   0.853   4.640  1.3540 -0.5958 -0.2999
   92SAPC  H17Y 8932   6.943   0.736   4.694 -1.4159  1.8812 -2.0289
   92SAPC  C318 8933   7.132   0.700   4.768  0.6104  0.0192  0.3105
   92SAPC  H18X 8934   7.214   0.763   4.807 -1.4273  2.2474  1.2390
   92SAPC  H18Y 8935   7.162   0.648   4.674 -1.2514  2.5809 -1.8705
   92SAPC  H18Z 8936   7.101   0.639   4.856 -0.3076  0.3079  0.2046
   93SAPC     N 8937   1.307   2.422   7.646  0.5916  0.4989 -0.2071
   93SAPC   C12 8938   1.281   2.415   7.497 -0.5084 -0.9124 -0.2767
   93SAPC  H12A 8939   1.179   2.383   7.480 -0.8253 -0.1093  0.0345
   93SAPC  H12B 8940   1.349   2.349   7.446  2.0956  0.6092  0.9814
   93SAPC   C13 8941   1.277   2.291   7.707 -0.0145  0.4786  0.7579
   93SAPC  H13A 8942   1.313   2.282   7.808  0.3688  2.0286  0.7952
   93SAPC  H13B 8943   1.171   2.275   7.713 -0.2217  2.0431  1.8877
   93SAPC  H13C 8944   1.329   2.214   7.652  0.3318  0.5112  1.0341
   93SAPC   C14 8945   1.450   2.453   7.671  0.7053  0.6845 -0.3313
   93SAPC  H14A 8946   1.509   2.375   7.625  0.7981  0.0790  0.7940
   93SAPC  H14B 8947   1.476   2.549   7.630 -0.5764  0.8634 -0.7650
   93SAPC  H14C 8948   1.462   2.465   7.777  3.0399 -1.4411 -0.2814
   93SAPC   C15 8949   1.219   2.538   7.702  0.0311 -0.2518 -0.0274
   93SAPC  H15A 8950   1.238   2.555   7.807  1.4936 -0.4058 -0.2476
   93SAPC  H15B 8951   1.251   2.629   7.653 -1.1818 -1.1974 -2.7695
   93SAPC  H15C 8952   1.115   2.530   7.673  0.7214 -1.0420 -2.5836
   93SAPC   C11 8953   1.315   2.549   7.417 -0.0495  0.7554  0.6660
   93SAPC  H11A 8954   1.277   2.637   7.473  0.6809 -0.5460  3.3135
   93SAPC  H11B 8955   1.268   2.524   7.319  0.9450  0.0351  0.3646
   93SAPC     P 8956   1.534   2.454   7.298  0.3247  0.3263 -0.2445
   93SAPC   O13 8957   1.669   2.431   7.353 -0.5676  0.0049 -0.0362
   93SAPC   O14 8958   1.451   2.334   7.279  0.3710  0.0989 -0.0563
   93SAPC   O12 8959   1.456   2.552   7.399 -0.2182 -0.6812 -0.2825
   93SAPC   O11 8960   1.534   2.540   7.164  0.1337 -0.2567  0.3556
   93SAPC    C1 8961   1.422   2.578   7.085  0.1046  0.4612  0.1658
   93SAPC    HA 8962   1.361   2.649   7.145  4.5995  2.8839  2.3231
   93SAPC    HB 8963   1.466   2.636   7.001  0.8667 -0.4116 -0.0518
   93SAPC    C2 8964   1.344   2.467   7.017 -0.7231 -0.0219  0.4627
   93SAPC    HS 8965   1.325   2.377   7.081  2.2612 -0.8787  0.3060
   93SAPC   O21 8966   1.426   2.426   6.902  0.2407 -0.4224 -0.3084
   93SAPC   C21 8967   1.382   2.309   6.844  0.1741  0.3233 -0.0446
   93SAPC   O22 8968   1.295   2.240   6.891  0.0993 -0.1784 -0.0189
   93SAPC   C22 8969   1.453   2.289   6.713  1.0198 -0.1238  0.4016
   93SAPC   H2R 8970   1.489   2.386   6.671  1.2836  0.2224  1.3944
   93SAPC   H2S 8971   1.547   2.230   6.721  0.6602 -0.5429  1.8673
   93SAPC    C3 8972   1.199   2.518   6.983  0.6871 -0.1506  0.0128
   93SAPC    HX 8973   1.155   2.580   7.064  1.7854 -1.5602  1.7680
   93SAPC    HY 8974   1.145   2.421   6.973  0.1562 -0.0290  1.5020
   93SAPC   O31 8975   1.191   2.593   6.862  0.1240  0.2878 -0.1665
   93SAPC   C31 8976   1.205   2.718   6.855  0.0666 -1.2915  0.2444
   93SAPC   O32 8977   1.223   2.800   6.943 -0.6425  0.1011 -0.1976
   93SAPC   C32 8978   1.189   2.750   6.698  0.8632 -0.3152 -0.6113
   93SAPC   H2X 8979   1.154   2.855   6.689 -0.6419 -0.7833 -0.5290
   93SAPC   H2Y 8980   1.107   2.688   6.656  1.3910 -0.3028 -1.6828
   93SAPC   C23 8981   1.352   2.219   6.616  0.7709 -0.0606 -0.0595
   93SAPC   H3R 8982   1.252   2.262   6.636  0.7011 -0.6279  0.8433
   93SAPC   H3S 8983   1.341   2.109   6.632 -0.6644 -0.1062 -1.0887
   93SAPC   C24 8984   1.379   2.253   6.473 -0.2500 -0.4056  0.2283
   93SAPC   H4R 8985   1.374   2.363   6.460  0.8394 -0.3520  0.1409
   93SAPC   H4S 8986   1.293   2.208   6.419 -0.6068  0.4963  0.0344
   93SAPC   C25 8987   1.510   2.188   6.428  0.1342  0.1521 -0.1279
   93SAPC   H5R 8988   1.590   2.205   6.501 -0.6037 -2.5950  1.4737
   93SAPC   C26 8989   1.543   2.130   6.314  0.2503  0.1375  0.3307
   93SAPC   H6R 8990   1.642   2.082   6.313 -0.2537 -0.9533 -0.7309
   93SAPC   C27 8991   1.447   2.116   6.194 -0.0717  0.5880 -0.2315
   93SAPC   H7R 8992   1.352   2.168   6.221 -0.7141 -0.7869  0.2038
   93SAPC   H7S 8993   1.418   2.011   6.174  0.5572  0.2844  0.4437
   93SAPC   C28 8994   1.487   2.185   6.064 -0.1515  0.3434 -0.2307
   93SAPC   H8R 8995   1.584   2.235   6.074  1.4836 -2.1671 -2.2280
   93SAPC   C29 8996   1.421   2.179   5.950  0.7060 -0.4796  0.2605
   93SAPC   H9R 8997   1.462   2.244   5.871  0.5673 -0.2481  0.3806
   93SAPC  C210 8998   1.298   2.100   5.908 -0.7467  0.2150  0.8601
   93SAPC  H10R 8999   1.256   2.044   5.994 -1.6773 -0.2260  0.1369
   93SAPC  H10S 9000   1.336   2.024   5.837  0.4891  2.9325 -1.6105
   93SAPC  C211 9001   1.198   2.184   5.830 -0.0535 -0.6644 -0.6502
   93SAPC  H11R 9002   1.109   2.213   5.889  0.4737  0.8091 -0.5401
   93SAPC  C212 9003   1.178   2.180   5.700 -0.0288 -0.3389 -0.4901
   93SAPC  H12R 9004   1.090   2.228   5.655 -0.9073 -1.0944  0.3954
   93SAPC  C213 9005   1.277   2.128   5.593 -0.0787  0.1103  0.2847
   93SAPC  H13R 9006   1.378   2.126   5.640  0.4985  0.2030 -0.9287
   93SAPC  H13S 9007   1.283   2.202   5.511  1.7074  0.6395  0.8254
   93SAPC  C214 9008   1.232   1.994   5.542 -0.3169  0.5292  0.3107
   93SAPC  H14R 9009   1.169   1.935   5.611 -0.9336  1.9029  0.9562
   93SAPC  C215 9010   1.275   1.938   5.426  0.5951  0.5626  0.2141
   93SAPC  H15R 9011   1.233   1.844   5.390 -0.0319  1.0142 -0.2398
   93SAPC  C216 9012   1.371   2.003   5.322 -0.4784  0.3179  0.2901
   93SAPC  H16R 9013   1.467   1.947   5.319 -1.2722 -1.0993  0.4096
   93SAPC  H16S 9014   1.401   2.107   5.347 -1.6563  0.8840 -0.5387
   93SAPC  C217 9015   1.324   1.995   5.173 -0.6260  0.0002 -0.8108
   93SAPC  H17R 9016   1.287   1.892   5.149  0.5698 -0.5389 -0.4093
   93SAPC  H17S 9017   1.416   2.007   5.112 -0.3175 -1.0923 -0.5936
   93SAPC  C218 9018   1.228   2.112   5.134  0.4132 -0.0025  0.1745
   93SAPC  H18R 9019   1.250   2.145   5.030 -1.7971  0.9117 -0.0518
   93SAPC  H18S 9020   1.247   2.198   5.201 -0.1881 -0.4391  0.9155
   93SAPC  C219 9021   1.076   2.090   5.145 -0.4068 -0.1795 -0.5692
   93SAPC  H19R 9022   1.062   2.062   5.252  0.0184 -1.1048 -0.7418
   93SAPC  H19S 9023   1.047   1.992   5.101  0.3407 -0.3458 -0.7128
   93SAPC  C220 9024   0.989   2.206   5.095  0.5273  0.1214 -0.2299
   93SAPC  H20R 9025   1.020   2.229   4.991  1.3281  1.9827  0.3728
   93SAPC  H20S 9026   1.020   2.300   5.145  1.3607  0.4759 -1.3661
   93SAPC  H20T 9027   0.883   2.198   5.125  0.0078  1.2371 -1.6760
   93SAPC   C33 9028   1.304   2.721   6.602  0.2438 -0.5960 -0.1619
   93SAPC   H3X 9029   1.366   2.638   6.642 -0.5992 -1.0497  0.2100
   93SAPC   H3Y 9030   1.359   2.816   6.584 -1.4407  0.1871 -1.5238
   93SAPC   C34 9031   1.261   2.681   6.463 -0.1156 -0.0132 -0.2024
   93SAPC   H4X 9032   1.173   2.736   6.422 -1.5599 -2.2187 -0.2427
   93SAPC   H4Y 9033   1.230   2.574   6.470  1.2187 -0.3889  0.3505
   93SAPC   C35 9034   1.363   2.677   6.350  0.4670 -0.7346  0.8103
   93SAPC   H5X 9035   1.444   2.600   6.356  0.1380 -1.2316 -0.5974
   93SAPC   H5Y 9036   1.411   2.777   6.346  0.4552 -0.7625 -0.2405
   93SAPC   C36 9037   1.292   2.674   6.217  0.0110  0.0216 -0.0808
   93SAPC   H6X 9038   1.230   2.765   6.203 -5.4511 -3.2148  0.4193
   93SAPC   H6Y 9039   1.218   2.592   6.227  2.2549 -2.0971  0.2344
   93SAPC   C37 9040   1.378   2.656   6.095 -0.4222 -0.5739  0.1544
   93SAPC   H7X 9041   1.432   2.559   6.105  2.2205  0.9485  2.0793
   93SAPC   H7Y 9042   1.466   2.725   6.093  0.9984 -2.3206 -0.3269
   93SAPC   C38 9043   1.315   2.651   5.956 -0.0880  1.2092  0.2708
   93SAPC   H8X 9044   1.281   2.750   5.919  0.5373  2.5325  2.9818
   93SAPC   H8Y 9045   1.234   2.577   5.971  0.7311  0.1967 -0.1524
   93SAPC   C39 9046   1.411   2.605   5.849 -0.1100  0.8128 -0.3974
   93SAPC   H9X 9047   1.435   2.500   5.878 -2.2223 -0.5356 -3.0806
   93SAPC   H9Y 9048   1.498   2.674   5.860  0.4356 -0.1592  1.9043
   93SAPC  C310 9049   1.328   2.582   5.719 -0.1489 -0.6283  0.0328
   93SAPC  H10X 9050   1.277   2.677   5.695 -0.5971 -1.3648 -2.1553
   93SAPC  H10Y 9051   1.250   2.508   5.745 -0.5545  0.0964  0.8935
   93SAPC  C311 9052   1.411   2.532   5.600  0.0348  0.0623  0.0396
   93SAPC  H11X 9053   1.407   2.422   5.611  2.1032 -0.1693 -0.9704
   93SAPC  H11Y 9054   1.516   2.564   5.616  0.3033 -1.2485  1.0587
   93SAPC  C312 9055   1.347   2.577   5.466  0.3720  0.1842 -0.5558
   93SAPC  H12X 9056   1.330   2.687   5.471 -2.5594 -0.1379 -1.4677
   93SAPC  H12Y 9057   1.247   2.529   5.454  0.2341  0.0480  0.9641
   93SAPC  C313 9058   1.436   2.548   5.338  0.1326  0.8735  0.1955
   93SAPC  H13X 9059   1.439   2.439   5.315  0.4878  1.2423 -1.6002
   93SAPC  H13Y 9060   1.536   2.592   5.355  0.4623 -0.2243  1.3140
   93SAPC  C314 9061   1.385   2.617   5.218  0.1349 -0.0043  1.0494
   93SAPC  H14X 9062   1.466   2.605   5.143 -0.6078 -1.7300  0.4493
   93SAPC  H14Y 9063   1.362   2.724   5.232  1.2448  0.7355 -1.9476
   93SAPC  C315 9064   1.258   2.555   5.155  0.1084  0.0939 -0.3662
   93SAPC  H15X 9065   1.179   2.556   5.233 -0.3404  0.7477 -0.8213
   93SAPC  H15Y 9066   1.284   2.448   5.135  2.1385  0.3008  0.8823
   93SAPC  C316 9067   1.229   2.620   5.016 -0.2494 -0.3327 -0.1577
   93SAPC  H16X 9068   1.317   2.623   4.948  0.1027  0.1661  0.3021
   93SAPC  H16Y 9069   1.187   2.722   5.031 -2.8666 -1.3093 -0.4442
   93SAPC  C317 9070   1.110   2.548   4.955 -0.0809  0.0582  1.0417
   93SAPC  H17X 9071   1.140   2.443   4.937 -1.7008 -0.1160 -1.0687
   93SAPC  H17Y 9072   1.099   2.595   4.854 -3.6410 -0.9149  0.8339
   93SAPC  C318 9073   0.986   2.560   5.033  0.1516 -0.0918 -0.6762
   93SAPC  H18X 9074   0.959   2.667   5.035  2.0185  0.4096  0.1851
   93SAPC  H18Y 9075   0.994   2.524   5.138  0.6619  0.1848 -0.6172
   93SAPC  H18Z 9076   0.905   2.517   4.971  1.6597 -0.8959 -2.1541
   94SAPC     N 9077   0.049   6.316   6.995  0.1302 -0.1188  0.4235
   94SAPC   C12 9078  -0.092   6.325   6.929 -0.4010 -0.2847  0.0180
   94SAPC  H12A 9079  -0.122   6.426   6.905 -0.3569  0.0157  1.1763
   94SAPC  H12B 9080  -0.161   6.282   7.000  0.3079 -0.7799  0.4237
   94SAPC   C13 9081   0.053   6.410   7.109 -0.3355 -0.5402  0.6562
   94SAPC  H13A 9082   0.019   6.510   7.084  0.9587  0.2959  2.0264
   94SAPC  H13B 9083  -0.010   6.378   7.191  1.8833  0.2632  2.8123
   94SAPC  H13C 9084   0.147   6.420   7.161  0.7959  2.6592 -1.6413
   94SAPC   C14 9085   0.051   6.179   7.056  0.5182 -0.5896 -0.5209
   94SAPC  H14A 9086   0.148   6.150   7.091  0.4416 -0.6207 -0.3301
   94SAPC  H14B 9087  -0.025   6.170   7.133  0.8065 -1.5919 -0.3453
   94SAPC  H14C 9088   0.039   6.106   6.978  1.7174  0.6126 -1.8931
   94SAPC   C15 9089   0.159   6.326   6.899 -0.3172 -0.9615 -0.0006
   94SAPC  H15A 9090   0.153   6.413   6.835  0.2390 -0.9357 -0.0202
   94SAPC  H15B 9091   0.257   6.306   6.940 -0.5972 -0.9266  0.6966
   94SAPC  H15C 9092   0.149   6.241   6.834 -0.1379 -0.0243 -1.2979
   94SAPC   C11 9093  -0.129   6.254   6.792  0.1549  0.1373  0.4282
   94SAPC  H11A 9094  -0.064   6.303   6.716  1.0630  1.6813  2.1214
   94SAPC  H11B 9095  -0.234   6.279   6.768  0.2426 -1.5307 -2.0736
   94SAPC     P 9096  -0.239   6.026   6.844 -0.2063  0.0869  0.3519
   94SAPC   O13 9097  -0.302   6.083   6.965  0.1347 -0.0190 -0.2669
   94SAPC   O14 9098  -0.313   6.022   6.717 -0.6682  0.3964 -0.2446
   94SAPC   O12 9099  -0.112   6.114   6.813 -0.1348  0.1552 -0.0597
   94SAPC   O11 9100  -0.169   5.883   6.867 -0.7685  0.1559 -0.5713
   94SAPC    C1 9101  -0.234   5.764   6.837  0.1084  0.2721  0.1262
   94SAPC    HA 9102  -0.263   5.713   6.931  1.1865 -1.5392 -0.4724
   94SAPC    HB 9103  -0.320   5.781   6.768  1.5955 -0.0663 -1.9084
   94SAPC    C2 9104  -0.140   5.673   6.754 -0.1096 -0.4228 -0.1723
   94SAPC    HS 9105  -0.039   5.687   6.798  1.0803  2.7808 -3.3671
   94SAPC   O21 9106  -0.141   5.719   6.613  0.3628  0.4698  0.6097
   94SAPC   C21 9107  -0.048   5.797   6.572 -0.5731 -0.9646 -0.4544
   94SAPC   O22 9108   0.050   5.836   6.633 -0.0104  0.4265 -0.2654
   94SAPC   C22 9109  -0.081   5.850   6.434  0.5301  0.8953 -0.3231
   94SAPC   H2R 9110  -0.071   5.773   6.355  1.7687  0.4637  0.2463
   94SAPC   H2S 9111  -0.187   5.884   6.429  0.3875  0.3497 -4.1200
   94SAPC    C3 9112  -0.195   5.532   6.764 -0.2721 -0.4997  0.5932
   94SAPC    HX 9113  -0.304   5.543   6.780 -0.3043 -1.0655  0.7848
   94SAPC    HY 9114  -0.156   5.492   6.859  0.2521 -2.1125 -0.2647
   94SAPC   O31 9115  -0.180   5.444   6.646  0.1381 -0.8298  0.1719
   94SAPC   C31 9116  -0.060   5.394   6.633  0.3190  0.0716  0.3851
   94SAPC   O32 9117   0.033   5.397   6.709  0.5129 -0.7421  0.4440
   94SAPC   C32 9118  -0.060   5.315   6.498  0.0581  0.0885 -0.5817
   94SAPC   H2X 9119  -0.105   5.383   6.422  0.3153  2.1614  1.0290
   94SAPC   H2Y 9120  -0.129   5.228   6.507  1.6425 -1.1033  0.7089
   94SAPC   C23 9121   0.004   5.975   6.406  0.3981 -1.0006  0.7869
   94SAPC   H3R 9122   0.105   5.948   6.369  0.6220 -0.1470  0.7620
   94SAPC   H3S 9123  -0.001   6.042   6.495 -2.3247  0.9147 -0.6349
   94SAPC   C24 9124  -0.067   6.078   6.301 -0.2380  0.7694  0.2636
   94SAPC   H4R 9125   0.002   6.166   6.301 -0.9135  1.3226  1.5817
   94SAPC   H4S 9126  -0.166   6.124   6.319  0.0238  1.3969  0.1391
   94SAPC   C25 9127  -0.058   6.015   6.160  0.8147 -0.3590  0.2260
   94SAPC   H5R 9128   0.006   5.928   6.139  0.6879 -0.2461 -0.6832
   94SAPC   C26 9129  -0.112   6.070   6.049  0.5065 -0.5477  1.2812
   94SAPC   H6R 9130  -0.077   6.023   5.956 -1.4754 -0.7364  0.5811
   94SAPC   C27 9131  -0.195   6.195   6.024 -0.4186 -0.3303 -0.3052
   94SAPC   H7R 9132  -0.125   6.272   5.985 -1.2003  0.6491  0.1562
   94SAPC   H7S 9133  -0.220   6.243   6.122 -1.3547  0.1453 -0.7662
   94SAPC   C28 9134  -0.317   6.175   5.933 -0.5252 -0.9713 -1.3818
   94SAPC   H8R 9135  -0.408   6.158   5.993 -0.8143  1.0671 -1.1650
   94SAPC   C29 9136  -0.324   6.209   5.804  0.0509 -0.1128  0.0990
   94SAPC   H9R 9137  -0.414   6.189   5.744  0.3798  0.8476 -0.7473
   94SAPC  C210 9138  -0.205   6.249   5.722 -0.0457  0.2816  0.1307
   94SAPC  H10R 9139  -0.109   6.218   5.770  0.2758 -0.0988 -0.7445
   94SAPC  H10S 9140  -0.211   6.360   5.715  1.7128  0.4543  0.7724
   94SAPC  C211 9141  -0.206   6.178   5.587 -0.1614  0.3940  0.6318
   94SAPC  H11R 9142  -0.166   6.076   5.583 -0.0443  0.4607 -0.2160
   94SAPC  C212 9143  -0.260   6.235   5.478  0.1219 -0.2440  0.6113
   94SAPC  H12R 9144  -0.245   6.183   5.382 -1.1129 -2.3313  1.4821
   94SAPC  C213 9145  -0.332   6.371   5.470  0.3394  0.4905  0.2530
   94SAPC  H13R 9146  -0.335   6.420   5.570  2.1697 -1.7696  1.4972
   94SAPC  H13S 9147  -0.438   6.351   5.443  0.4989  1.4161 -1.2024
   94SAPC  C214 9148  -0.266   6.457   5.370  0.5122 -0.2425  0.1257
   94SAPC  H14R 9149  -0.156   6.453   5.361  0.4089 -0.7124 -1.0348
   94SAPC  C215 9150  -0.319   6.541   5.283  0.5280  0.0724  0.1067
   94SAPC  H15R 9151  -0.255   6.587   5.206 -0.5917  0.7072 -0.4731
   94SAPC  C216 9152  -0.466   6.568   5.275  0.3600  0.4980  0.3977
   94SAPC  H16R 9153  -0.531   6.489   5.316 -0.1148  0.2123 -0.8628
   94SAPC  H16S 9154  -0.491   6.582   5.168 -1.9845 -1.5079  0.6201
   94SAPC  C217 9155  -0.518   6.699   5.344 -0.1327 -0.6763 -0.0769
   94SAPC  H17R 9156  -0.462   6.722   5.437  0.0703 -3.3567  0.5289
   94SAPC  H17S 9157  -0.622   6.675   5.374 -1.6325  2.3813 -2.2863
   94SAPC  C218 9158  -0.515   6.822   5.255 -0.0348 -0.9491 -0.0999
   94SAPC  H18R 9159  -0.576   6.810   5.162 -2.2398  3.0260  0.6027
   94SAPC  H18S 9160  -0.409   6.832   5.224 -0.1262 -1.6474 -0.6860
   94SAPC  C219 9161  -0.572   6.950   5.320  0.2105  0.8721  0.6981
   94SAPC  H19R 9162  -0.540   7.040   5.264  1.3387  0.6072  0.8759
   94SAPC  H19S 9163  -0.538   6.964   5.425  1.1467 -1.7829  0.8465
   94SAPC  C220 9164  -0.722   6.945   5.321 -0.7276  0.8299 -0.3397
   94SAPC  H20R 9165  -0.770   6.926   5.223 -1.6317 -0.4124  0.3220
   94SAPC  H20S 9166  -0.755   7.037   5.373  3.1123  1.6353  1.0702
   94SAPC  H20T 9167  -0.750   6.855   5.381  1.3353  1.5085  1.8154
   94SAPC   C33 9168   0.088   5.279   6.481 -0.2055 -0.3070  0.0511
   94SAPC   H3X 9169   0.108   5.190   6.545 -0.7295 -0.0471  0.5854
   94SAPC   H3Y 9170   0.162   5.358   6.502  0.2364 -1.0536  1.4080
   94SAPC   C34 9171   0.117   5.244   6.332 -0.0018 -0.5590 -0.7538
   94SAPC   H4X 9172   0.224   5.217   6.320  0.7062  1.0322  1.3470
   94SAPC   H4Y 9173   0.097   5.343   6.287 -1.7593  1.1044  3.1946
   94SAPC   C35 9174   0.027   5.138   6.269 -0.6478 -0.2765  0.1066
   94SAPC   H5X 9175  -0.073   5.186   6.257 -0.5269  0.1671  0.7832
   94SAPC   H5Y 9176   0.022   5.051   6.337 -0.4587 -1.0904 -0.9014
   94SAPC   C36 9177   0.080   5.120   6.129  0.4248  0.1442 -0.2546
   94SAPC   H6X 9178   0.004   5.066   6.069 -0.7402 -1.8412  2.7731
   94SAPC   H6Y 9179   0.174   5.062   6.124  0.0407 -0.3968 -2.2529
   94SAPC   C37 9180   0.086   5.253   6.042  0.1585  0.2165 -0.4135
   94SAPC   H7X 9181   0.173   5.313   6.077 -1.4987  2.3459  0.2474
   94SAPC   H7Y 9182  -0.007   5.312   6.053  1.5573  2.3262  0.8249
   94SAPC   C38 9183   0.113   5.208   5.899  0.0316  1.0980 -0.1235
   94SAPC   H8X 9184   0.174   5.116   5.901  0.0066  1.0207  3.4807
   94SAPC   H8Y 9185   0.158   5.296   5.848 -2.7562  2.8182  0.1126
   94SAPC   C39 9186  -0.015   5.187   5.823  0.6412  0.8505  0.0361
   94SAPC   H9X 9187  -0.078   5.277   5.838 -0.2327  0.2615 -0.0134
   94SAPC   H9Y 9188  -0.071   5.098   5.858  1.9106 -1.0021 -2.3613
   94SAPC  C310 9189   0.014   5.170   5.677  0.3965 -0.4840 -0.4116
   94SAPC  H10X 9190   0.060   5.075   5.643 -1.8433 -0.5290 -3.8610
   94SAPC  H10Y 9191   0.077   5.251   5.636 -0.6806  1.2441  1.2019
   94SAPC  C311 9192  -0.119   5.194   5.600  0.2150 -0.2384 -0.1381
   94SAPC  H11X 9193  -0.177   5.280   5.638  0.0799  0.0298 -0.9298
   94SAPC  H11Y 9194  -0.185   5.105   5.604 -3.3329  2.2541  2.0742
   94SAPC  C312 9195  -0.100   5.217   5.444 -0.2809  0.1837  0.1789
   94SAPC  H12X 9196  -0.184   5.172   5.388  1.9203 -0.2118 -3.0428
   94SAPC  H12Y 9197  -0.006   5.162   5.424  0.5940  1.9477 -0.8019
   94SAPC  C313 9198  -0.083   5.364   5.402 -0.2304 -0.0733 -0.0822
   94SAPC  H13X 9199  -0.037   5.347   5.303  1.3252  0.1551  0.5643
   94SAPC  H13Y 9200  -0.008   5.424   5.460  0.2096  0.6114 -1.3303
   94SAPC  C314 9201  -0.208   5.451   5.388  0.1982  0.2267 -0.9928
   94SAPC  H14X 9202  -0.271   5.457   5.479 -1.0320  0.9240 -1.8714
   94SAPC  H14Y 9203  -0.273   5.400   5.314  0.0475  0.0327 -0.7283
   94SAPC  C315 9204  -0.174   5.590   5.347  0.5563  0.3431 -0.0302
   94SAPC  H15X 9205  -0.147   5.597   5.239 -4.0675  1.9896 -1.3394
   94SAPC  H15Y 9206  -0.090   5.620   5.413 -0.0621 -0.0669  0.9633
   94SAPC  C316 9207  -0.294   5.680   5.377  0.6066 -0.3144 -0.9305
   94SAPC  H16X 9208  -0.286   5.717   5.482 -0.2646  1.3685 -1.4235
   94SAPC  H16Y 9209  -0.390   5.624   5.375  0.5205 -0.6780  3.5296
   94SAPC  C317 9210  -0.296   5.808   5.289  0.1480 -0.0585 -0.7066
   94SAPC  H17X 9211  -0.384   5.868   5.322  0.8544 -0.1163  1.4454
   94SAPC  H17Y 9212  -0.314   5.774   5.185  0.3607 -1.8239 -0.1948
   94SAPC  C318 9213  -0.162   5.884   5.291  0.6756 -0.1053  0.7626
   94SAPC  H18X 9214  -0.166   5.971   5.221 -2.0894  0.3789  1.4032
   94SAPC  H18Y 9215  -0.082   5.822   5.246 -1.7939 -4.6777  2.0182
   94SAPC  H18Z 9216  -0.131   5.931   5.387  1.4686  1.0975 -0.0530
   95SAPC     N 9217   5.690   6.415   2.864  0.1517 -0.6439 -0.2192
   95SAPC   C12 9218   5.737   6.547   2.921  0.2229 -0.1103  0.0749
   95SAPC  H12A 9219   5.757   6.611   2.837  1.4069 -2.0627 -1.2249
   95SAPC  H12B 9220   5.830   6.524   2.970 -0.7619 -0.2182  2.0104
   95SAPC   C13 9221   5.803   6.349   2.794  0.1909  0.6611 -0.0125
   95SAPC  H13A 9222   5.883   6.333   2.865 -0.8685 -0.2166  1.0136
   95SAPC  H13B 9223   5.783   6.248   2.764  0.9436  0.3747  0.4315
   95SAPC  H13C 9224   5.839   6.417   2.718 -0.6119  1.8628  0.6445
   95SAPC   C14 9225   5.647   6.320   2.973  0.5635 -0.1070  0.1655
   95SAPC  H14A 9226   5.733   6.301   3.036  0.6770  2.7392  0.9998
   95SAPC  H14B 9227   5.577   6.359   3.045  1.9076 -0.2004  1.5858
   95SAPC  H14C 9228   5.605   6.226   2.941 -0.0291 -0.7986  2.7647
   95SAPC   C15 9229   5.576   6.439   2.772  0.5707  0.5653  0.6254
   95SAPC  H15A 9230   5.549   6.344   2.727  0.5432  0.5460  0.6821
   95SAPC  H15B 9231   5.497   6.491   2.823  1.4845  0.1271  2.5834
   95SAPC  H15C 9232   5.600   6.505   2.690 -0.5230 -0.7613 -0.8413
   95SAPC   C11 9233   5.632   6.612   3.013  0.0798  0.4966  1.2159
   95SAPC  H11A 9234   5.686   6.696   3.060  1.4261 -0.9909  2.4703
   95SAPC  H11B 9235   5.606   6.543   3.096  0.8538 -1.6508 -0.2368
   95SAPC     P 9236   5.492   6.798   2.878  0.2745 -0.1084  0.2763
   95SAPC   O13 9237   5.604   6.846   2.794  0.2973  0.7497 -0.5301
   95SAPC   O14 9238   5.360   6.808   2.821 -0.2194 -0.4631  0.3127
   95SAPC   O12 9239   5.509   6.656   2.937 -0.0114  0.6919  0.1537
   95SAPC   O11 9240   5.490   6.879   3.013 -0.5416  0.0754 -0.7582
   95SAPC    C1 9241   5.430   6.848   3.139  0.4959 -0.1416  0.1842
   95SAPC    HA 9242   5.330   6.897   3.142 -0.0675 -1.2876  0.7841
   95SAPC    HB 9243   5.418   6.739   3.157 -0.6090 -0.4077 -1.8363
   95SAPC    C2 9244   5.517   6.901   3.258 -0.3517 -0.4896  0.0989
   95SAPC    HS 9245   5.610   6.844   3.236  0.2420  0.3889  0.3191
   95SAPC   O21 9246   5.444   6.878   3.378 -0.9950 -0.5894  0.0006
   95SAPC   C21 9247   5.527   6.881   3.491 -0.2688 -0.2515  0.3681
   95SAPC   O22 9248   5.646   6.887   3.493 -0.2796  0.2045 -0.3764
   95SAPC   C22 9249   5.438   6.879   3.617 -1.1051 -0.7144  0.4716
   95SAPC   H2R 9250   5.339   6.921   3.588  0.7458  2.5022 -1.9226
   95SAPC   H2S 9251   5.422   6.776   3.653 -1.6073 -1.0934 -0.7636
   95SAPC    C3 9252   5.544   7.055   3.234  0.6145  0.3140 -0.4204
   95SAPC    HX 9253   5.451   7.109   3.208  0.7251  0.3334 -0.7910
   95SAPC    HY 9254   5.608   7.049   3.143  0.5692  0.5880 -0.4696
   95SAPC   O31 9255   5.607   7.137   3.335  0.0060  0.5741 -0.5989
   95SAPC   C31 9256   5.736   7.160   3.322 -0.8918 -0.2620  0.1099
   95SAPC   O32 9257   5.808   7.127   3.230  0.5884 -0.3853  0.5000
   95SAPC   C32 9258   5.783   7.230   3.452 -0.1593 -1.1498 -0.3966
   95SAPC   H2X 9259   5.735   7.330   3.446 -1.0092 -1.5528 -0.4363
   95SAPC   H2Y 9260   5.892   7.247   3.439 -0.2518 -0.5509 -0.4218
   95SAPC   C23 9261   5.498   6.960   3.737  0.1947 -0.4615 -0.6256
   95SAPC   H3R 9262   5.528   7.064   3.712  0.4678  0.0982  1.8342
   95SAPC   H3S 9263   5.595   6.915   3.766  1.1116  0.8880 -1.4447
   95SAPC   C24 9264   5.402   6.963   3.860  0.1587 -0.0195  0.5845
   95SAPC   H4R 9265   5.301   6.984   3.819  0.5896 -0.2531 -0.6376
   95SAPC   H4S 9266   5.429   7.051   3.923  0.1369 -0.0067  0.5761
   95SAPC   C25 9267   5.407   6.839   3.948  0.8816  0.6262  1.0824
   95SAPC   H5R 9268   5.461   6.755   3.903  0.4996  0.3332  1.1625
   95SAPC   C26 9269   5.399   6.836   4.083  0.4425 -0.1162 -0.8543
   95SAPC   H6R 9270   5.412   6.742   4.138 -0.8485  0.5362  0.6406
   95SAPC   C27 9271   5.369   6.948   4.184 -0.1198  0.6428 -0.0677
   95SAPC   H7R 9272   5.301   6.919   4.267  1.3404 -1.7410  0.4094
   95SAPC   H7S 9273   5.310   7.027   4.135 -0.2497 -0.5131 -1.8620
   95SAPC   C28 9274   5.494   6.996   4.241  0.2589  0.2993  0.5842
   95SAPC   H8R 9275   5.558   7.049   4.170  2.0911 -2.4370  0.0231
   95SAPC   C29 9276   5.531   6.978   4.374 -0.1980 -1.0223  0.4235
   95SAPC   H9R 9277   5.631   7.015   4.403 -0.3334  1.1863 -1.5877
   95SAPC  C210 9278   5.461   6.915   4.486 -0.7266  0.5316  0.5371
   95SAPC  H10R 9279   5.365   6.971   4.486 -1.4829 -0.7084  1.7008
   95SAPC  H10S 9280   5.505   6.942   4.585  2.0290  1.1137 -0.7624
   95SAPC  C211 9281   5.435   6.770   4.467 -0.3443 -0.3830  0.2342
   95SAPC  H11R 9282   5.397   6.731   4.372  1.8981 -3.3763  0.4116
   95SAPC  C212 9283   5.414   6.688   4.576  0.2519 -0.4465 -0.3738
   95SAPC  H12R 9284   5.381   6.586   4.551 -2.0172 -0.6405  2.8392
   95SAPC  C213 9285   5.432   6.721   4.718  0.7336 -0.1649 -0.5906
   95SAPC  H13R 9286   5.360   6.803   4.738  0.5205 -0.1027 -1.5967
   95SAPC  H13S 9287   5.532   6.765   4.738  0.3636  0.6714 -0.5416
   95SAPC  C214 9288   5.398   6.603   4.810 -0.3491 -1.0960 -0.2579
   95SAPC  H14R 9289   5.312   6.544   4.774 -1.5407  2.4673 -3.9998
   95SAPC  C215 9290   5.450   6.576   4.931  0.0380 -0.7461  0.2796
   95SAPC  H15R 9291   5.414   6.489   4.989  0.5919 -1.7804 -0.8875
   95SAPC  C216 9292   5.573   6.646   4.989  0.4488 -0.1773 -0.6920
   95SAPC  H16R 9293   5.610   6.732   4.930  2.2119  1.1430  2.1233
   95SAPC  H16S 9294   5.650   6.568   5.007  0.4423 -0.2125 -0.8140
   95SAPC  C217 9295   5.540   6.723   5.116 -0.0363 -0.2380  0.2512
   95SAPC  H17R 9296   5.458   6.786   5.076  0.3540 -1.4538 -2.7220
   95SAPC  H17S 9297   5.623   6.787   5.154 -1.1185  0.6379  1.2101
   95SAPC  C218 9298   5.469   6.642   5.229 -0.7134 -0.0387 -0.4012
   95SAPC  H18R 9299   5.399   6.567   5.188  0.6882 -0.9989 -1.1100
   95SAPC  H18S 9300   5.406   6.711   5.290 -1.3665 -1.8312  1.0595
   95SAPC  C219 9301   5.572   6.574   5.321 -0.2634 -0.1373  0.1679
   95SAPC  H19R 9302   5.647   6.646   5.362 -0.7502 -0.2181  1.2332
   95SAPC  H19S 9303   5.632   6.498   5.266  0.8493 -1.4572  2.9805
   95SAPC  C220 9304   5.501   6.506   5.441 -0.0907 -0.0653  0.3578
   95SAPC  H20R 9305   5.410   6.443   5.427  0.2446 -0.3407 -0.6640
   95SAPC  H20S 9306   5.476   6.592   5.507 -0.7215 -0.3135  0.4501
   95SAPC  H20T 9307   5.572   6.455   5.509  0.7383  2.3171  1.3779
   95SAPC   C33 9308   5.762   7.169   3.585  0.3116  0.6490  1.1295
   95SAPC   H3X 9309   5.803   7.065   3.588  1.1273  0.9769  3.4805
   95SAPC   H3Y 9310   5.652   7.164   3.600 -0.4132 -0.0986 -3.0927
   95SAPC   C34 9311   5.831   7.246   3.697  0.8821 -0.9080  0.0521
   95SAPC   H4X 9312   5.803   7.354   3.704 -0.0450 -1.1114 -0.3332
   95SAPC   H4Y 9313   5.940   7.248   3.676  0.6808 -0.2180 -0.9954
   95SAPC   C35 9314   5.788   7.185   3.831 -0.4107  0.3718 -0.3169
   95SAPC   H5X 9315   5.820   7.080   3.843 -2.2467 -0.0876  0.9187
   95SAPC   H5Y 9316   5.678   7.181   3.849 -0.3888  0.6408 -0.1138
   95SAPC   C36 9317   5.839   7.256   3.955 -0.2176 -0.3403 -0.3969
   95SAPC   H6X 9318   5.763   7.266   4.036  1.7658 -0.0321  1.5299
   95SAPC   H6Y 9319   5.866   7.358   3.921  0.7822 -0.4509  0.0227
   95SAPC   C37 9320   5.964   7.181   4.018 -0.1425 -0.3386 -0.2369
   95SAPC   H7X 9321   6.038   7.195   3.936  0.0850  0.5563  0.1140
   95SAPC   H7Y 9322   5.935   7.075   4.031 -0.0399 -0.2757  0.5554
   95SAPC   C38 9323   6.023   7.236   4.143  0.1721 -0.0867  0.0240
   95SAPC   H8X 9324   6.044   7.343   4.127 -0.2728  0.2790  1.6903
   95SAPC   H8Y 9325   6.122   7.186   4.154 -0.5811 -2.0709 -1.4294
   95SAPC   C39 9326   5.940   7.223   4.272 -0.0056 -0.2645  0.6860
   95SAPC   H9X 9327   5.891   7.124   4.275  3.5869 -2.1503  1.4847
   95SAPC   H9Y 9328   5.861   7.302   4.266  0.4675  0.1569 -3.6627
   95SAPC  C310 9329   6.022   7.245   4.396 -0.5134 -0.0647  0.3434
   95SAPC  H10X 9330   5.967   7.294   4.479  0.8006 -0.5678  1.5645
   95SAPC  H10Y 9331   6.117   7.300   4.378 -0.7969  0.4234  0.3392
   95SAPC  C311 9332   6.069   7.104   4.444  0.1235  0.1691 -0.8915
   95SAPC  H11X 9333   6.130   7.064   4.360 -1.0408 -0.0753 -1.6402
   95SAPC  H11Y 9334   5.980   7.045   4.471  0.1640 -0.6773 -2.4741
   95SAPC  C312 9335   6.157   7.116   4.576 -0.3267  0.2153  0.1394
   95SAPC  H12X 9336   6.093   7.146   4.662  1.6443 -1.8065  2.4626
   95SAPC  H12Y 9337   6.240   7.187   4.559 -0.0762  0.6768  2.8084
   95SAPC  C313 9338   6.205   6.974   4.622  0.0271  0.6551  0.1473
   95SAPC  H13X 9339   6.270   6.939   4.539  0.3133  0.8729  0.2760
   95SAPC  H13Y 9340   6.126   6.898   4.641  0.6697  0.0092  0.2973
   95SAPC  C314 9341   6.284   6.981   4.751  0.2943  0.1562  0.2394
   95SAPC  H14X 9342   6.224   7.022   4.836 -0.1283 -1.1749  0.6066
   95SAPC  H14Y 9343   6.360   7.061   4.742  1.9498 -1.1211  2.0817
   95SAPC  C315 9344   6.345   6.842   4.780  0.0038 -0.0664  0.5738
   95SAPC  H15X 9345   6.383   6.789   4.690  2.4882  0.4417  1.2523
   95SAPC  H15Y 9346   6.269   6.772   4.821  1.4036 -0.6935  2.2194
   95SAPC  C316 9347   6.467   6.838   4.879 -0.0762  0.1240 -0.0828
   95SAPC  H16X 9348   6.456   6.739   4.928 -0.7207  0.1455 -0.1780
   95SAPC  H16Y 9349   6.454   6.904   4.968  0.9171  1.8935 -1.1920
   95SAPC  C317 9350   6.600   6.861   4.813  0.3103 -0.1443 -0.7220
   95SAPC  H17X 9351   6.587   6.962   4.767 -4.0577 -0.4391 -0.5860
   95SAPC  H17Y 9352   6.618   6.788   4.731 -0.4357  0.3778 -1.3746
   95SAPC  C318 9353   6.723   6.864   4.902 -0.3094  0.1217  0.4463
   95SAPC  H18X 9354   6.817   6.885   4.847 -0.0565  1.2335  1.2652
   95SAPC  H18Y 9355   6.737   6.772   4.962  0.5589 -0.4902 -0.6621
   95SAPC  H18Z 9356   6.702   6.944   4.976 -0.1095 -1.4640  2.2855
   96SAPC     N 9357   6.356   3.030   2.403  0.2722 -0.2735  0.0929
   96SAPC   C12 9358   6.450   3.137   2.453  0.2180  0.1492 -1.1420
   96SAPC  H12A 9359   6.385   3.220   2.478 -1.4018 -0.7732 -2.1293
   96SAPC  H12B 9360   6.497   3.179   2.366  1.9192  3.0281  0.9828
   96SAPC   C13 9361   6.264   2.992   2.508 -0.0116  0.1018 -0.1902
   96SAPC  H13A 9362   6.195   3.074   2.526 -0.9098 -0.7138  0.1468
   96SAPC  H13B 9363   6.208   2.904   2.482  1.1900 -1.2256  1.4721
   96SAPC  H13C 9364   6.321   2.980   2.598  2.2043 -0.0713 -1.5495
   96SAPC   C14 9365   6.287   3.073   2.280  0.0832 -0.2670 -0.7036
   96SAPC  H14A 9366   6.192   3.123   2.292  0.5724  0.2037  1.6710
   96SAPC  H14B 9367   6.352   3.115   2.204  2.0302  0.9467  1.5155
   96SAPC  H14C 9368   6.251   2.985   2.229  1.0145 -1.0980  0.0410
   96SAPC   C15 9369   6.428   2.906   2.368  0.4500 -0.5023  0.5630
   96SAPC  H15A 9370   6.361   2.827   2.335 -0.4927  0.9539 -1.2258
   96SAPC  H15B 9371   6.490   2.910   2.280  0.9557  1.0188  0.9648
   96SAPC  H15C 9372   6.501   2.880   2.443  0.0150 -1.4068  0.6942
   96SAPC   C11 9373   6.550   3.110   2.574 -0.2118  0.1784  0.0374
   96SAPC  H11A 9374   6.624   3.192   2.587 -1.6896  2.0018 -2.1437
   96SAPC  H11B 9375   6.611   3.023   2.543 -0.2169 -0.1361  0.8850
   96SAPC     P 9376   6.417   3.211   2.773 -0.2530  0.0355  0.1378
   96SAPC   O13 9377   6.432   3.335   2.695  0.2360 -0.1745 -0.4310
   96SAPC   O14 9378   6.281   3.186   2.825  0.7679  0.6018 -0.4230
   96SAPC   O12 9379   6.475   3.089   2.692 -0.1853 -0.1257 -0.0574
   96SAPC   O11 9380   6.520   3.217   2.888  0.2494 -0.4152 -0.3197
   96SAPC    C1 9381   6.573   3.109   2.966 -0.2989  0.3191 -0.1642
   96SAPC    HA 9382   6.560   3.015   2.907 -0.0027 -0.0044  0.2832
   96SAPC    HB 9383   6.683   3.113   2.974 -0.1720  1.6798 -1.8897
   96SAPC    C2 9384   6.498   3.083   3.096 -0.8853 -0.4100 -0.2250
   96SAPC    HS 9385   6.391   3.112   3.086 -0.3230  2.4160  1.1058
   96SAPC   O21 9386   6.568   3.162   3.191 -0.3781  0.0781 -0.0120
   96SAPC   C21 9387   6.507   3.199   3.298 -0.4162  0.1720  0.6660
   96SAPC   O22 9388   6.383   3.194   3.300 -0.0797  0.0996  0.3853
   96SAPC   C22 9389   6.604   3.254   3.394 -0.9619  0.0548  0.0605
   96SAPC   H2R 9390   6.683   3.179   3.417  0.6467  1.4348 -0.7587
   96SAPC   H2S 9391   6.650   3.342   3.344 -1.6528 -1.2322 -3.1400
   96SAPC    C3 9392   6.507   2.938   3.139  0.1243  0.5420  0.1068
   96SAPC    HX 9393   6.613   2.911   3.160 -0.5739 -1.2873  1.4805
   96SAPC    HY 9394   6.468   2.884   3.050  1.7459  0.4790 -0.6028
   96SAPC   O31 9395   6.430   2.907   3.259 -0.2753  0.1773 -0.0969
   96SAPC   C31 9396   6.297   2.895   3.239 -0.2625  0.0708  0.0519
   96SAPC   O32 9397   6.246   2.886   3.132  0.0471 -0.1575 -0.0213
   96SAPC   C32 9398   6.236   2.883   3.374  0.1783  0.4429  0.2808
   96SAPC   H2X 9399   6.205   2.976   3.426  0.2363  0.8433 -0.3932
   96SAPC   H2Y 9400   6.314   2.843   3.442 -0.3997 -1.0713  0.0823
   96SAPC   C23 9401   6.547   3.290   3.534  0.1443 -0.7344 -0.0262
   96SAPC   H3R 9402   6.466   3.365   3.521  0.6685 -0.1959 -0.2108
   96SAPC   H3S 9403   6.625   3.328   3.603 -0.3030  1.7191 -0.7884
   96SAPC   C24 9404   6.491   3.166   3.603 -0.1156 -0.5061  0.2830
   96SAPC   H4R 9405   6.580   3.100   3.597  1.0274  1.1013 -2.7272
   96SAPC   H4S 9406   6.411   3.129   3.534 -1.6829  0.4807  1.5061
   96SAPC   C25 9407   6.434   3.196   3.738  0.6271 -0.6851  1.5036
   96SAPC   H5R 9408   6.387   3.296   3.739  0.9302 -0.4980 -0.0820
   96SAPC   C26 9409   6.434   3.126   3.853 -0.4299 -0.2763  0.5577
   96SAPC   H6R 9410   6.368   3.172   3.928 -2.4743 -0.2878 -1.1186
   96SAPC   C27 9411   6.489   2.994   3.878 -1.2969  0.7539  0.4069
   96SAPC   H7R 9412   6.549   2.955   3.793 -0.5262  0.8998  0.8683
   96SAPC   H7S 9413   6.410   2.917   3.893  1.8046 -2.8606 -0.3278
   96SAPC   C28 9414   6.582   3.017   3.992 -0.7266  0.5973 -0.9332
   96SAPC   H8R 9415   6.688   3.031   3.968  0.2951 -2.0633  1.4789
   96SAPC   C29 9416   6.548   2.997   4.121 -0.5551  0.7497  0.0603
   96SAPC   H9R 9417   6.619   3.020   4.203  0.7703 -0.1594 -0.7923
   96SAPC  C210 9418   6.408   2.964   4.166  0.4692  1.4027  0.8700
   96SAPC  H10R 9419   6.337   3.030   4.111  1.2629 -0.4807 -2.7942
   96SAPC  H10S 9420   6.394   2.987   4.273 -1.5132  1.5636  0.6210
   96SAPC  C211 9421   6.364   2.819   4.143  0.1548  0.4118 -0.7767
   96SAPC  H11R 9422   6.418   2.762   4.067 -0.0336 -2.0285  0.8187
   96SAPC  C212 9423   6.290   2.750   4.227  0.4599 -0.3488 -0.4868
   96SAPC  H12R 9424   6.270   2.645   4.203 -2.0525 -0.4340  1.6284
   96SAPC  C213 9425   6.214   2.797   4.354 -0.8002  0.6004 -0.3265
   96SAPC  H13R 9426   6.124   2.736   4.375 -1.1415  0.9717 -0.6968
   96SAPC  H13S 9427   6.162   2.891   4.325  0.0399  0.5187 -2.2246
   96SAPC  C214 9428   6.289   2.816   4.484  0.2723 -0.2952 -0.0304
   96SAPC  H14R 9429   6.385   2.762   4.494  0.7006  0.2318 -1.0998
   96SAPC  C215 9430   6.247   2.901   4.578  0.6607  0.4756  0.6463
   96SAPC  H15R 9431   6.301   2.894   4.674 -0.1523 -0.0369  1.0788
   96SAPC  C216 9432   6.116   2.980   4.576  0.2047 -0.3706  0.6285
   96SAPC  H16R 9433   6.056   2.971   4.668 -0.9632  1.3279  0.0782
   96SAPC  H16S 9434   6.045   2.938   4.502 -0.5039 -1.6138  1.9661
   96SAPC  C217 9435   6.148   3.131   4.551 -0.0860  0.2331  0.2445
   96SAPC  H17R 9436   6.169   3.135   4.442  1.9461  0.7647  0.6104
   96SAPC  H17S 9437   6.235   3.170   4.607 -0.3449  1.3749 -0.1279
   96SAPC  C218 9438   6.017   3.204   4.590 -0.4422 -0.1764 -0.1788
   96SAPC  H18R 9439   6.000   3.176   4.696 -1.1902  0.0181 -0.2369
   96SAPC  H18S 9440   5.937   3.179   4.516 -1.0481 -0.3773  0.5314
   96SAPC  C219 9441   6.034   3.358   4.589 -0.2083 -0.0488 -0.0430
   96SAPC  H19R 9442   5.933   3.398   4.615 -0.5544 -0.8869 -0.0409
   96SAPC  H19S 9443   6.058   3.398   4.488 -0.3850  0.9264  0.2950
   96SAPC  C220 9444   6.151   3.411   4.677 -0.4577  0.5744  0.4901
   96SAPC  H20R 9445   6.150   3.522   4.677 -1.0457  0.5757  1.3467
   96SAPC  H20S 9446   6.251   3.376   4.642 -0.4629  1.7060 -0.7495
   96SAPC  H20T 9447   6.141   3.380   4.783 -1.0876 -0.6004  0.1049
   96SAPC   C33 9448   6.104   2.803   3.361 -0.0607  0.2293  0.3029
   96SAPC   H3X 9449   6.124   2.706   3.310 -0.5879 -0.5256  1.4910
   96SAPC   H3Y 9450   6.029   2.859   3.302 -1.4445  1.1593  2.7933
   96SAPC   C34 9451   6.041   2.765   3.496  0.6318 -0.0372  0.4590
   96SAPC   H4X 9452   5.951   2.704   3.472 -0.5520  2.3794 -1.6176
   96SAPC   H4Y 9453   6.004   2.855   3.550  1.2728 -0.6027  1.9034
   96SAPC   C35 9454   6.133   2.688   3.594 -0.0571 -0.4188 -0.0772
   96SAPC   H5X 9455   6.221   2.749   3.623  0.1522 -0.6057 -0.3171
   96SAPC   H5Y 9456   6.160   2.585   3.562  0.2804  0.4489 -2.8069
   96SAPC   C36 9457   6.064   2.669   3.730  0.1970 -0.2097  0.4556
   96SAPC   H6X 9458   5.962   2.628   3.712  0.5122  0.2916 -3.1622
   96SAPC   H6Y 9459   6.042   2.767   3.778  0.5898 -0.9811  2.3157
   96SAPC   C37 9460   6.152   2.589   3.835  0.2094 -1.0578  0.6431
   96SAPC   H7X 9461   6.247   2.638   3.864  1.3385 -3.0250  0.4464
   96SAPC   H7Y 9462   6.189   2.501   3.778 -2.4070 -0.6065 -2.0040
   96SAPC   C38 9463   6.072   2.548   3.958  0.1537  0.1325  0.0409
   96SAPC   H8X 9464   5.981   2.496   3.922 -0.2553 -0.5550  1.9259
   96SAPC   H8Y 9465   6.042   2.634   4.020 -5.5667 -1.3334 -0.1631
   96SAPC   C39 9466   6.138   2.447   4.048  0.0328 -0.3199  0.1663
   96SAPC   H9X 9467   6.237   2.490   4.075 -0.9992  2.1536  0.2552
   96SAPC   H9Y 9468   6.150   2.352   3.992 -0.7383  0.2659 -1.0343
   96SAPC  C310 9469   6.060   2.412   4.175  0.1564  0.6383 -0.0753
   96SAPC  H10X 9470   5.971   2.347   4.160  1.1964 -0.9762  0.4242
   96SAPC  H10Y 9471   6.024   2.509   4.216 -0.9325  0.1289  0.2090
   96SAPC  C311 9472   6.143   2.358   4.279 -0.2069 -0.1204 -0.6473
   96SAPC  H11X 9473   6.234   2.421   4.292 -0.1145 -0.3596 -0.0752
   96SAPC  H11Y 9474   6.174   2.252   4.260 -0.2873 -0.2058 -0.3157
   96SAPC  C312 9475   6.071   2.345   4.414  0.2034  0.4972 -0.0823
   96SAPC  H12X 9476   5.994   2.268   4.395  0.4886  0.4274 -0.9963
   96SAPC  H12Y 9477   6.012   2.436   4.441 -2.0335 -0.7571 -0.4504
   96SAPC  C313 9478   6.173   2.297   4.515  0.3519  0.6112 -0.2849
   96SAPC  H13X 9479   6.236   2.220   4.466 -0.9837 -0.3708 -0.5279
   96SAPC  H13Y 9480   6.115   2.252   4.598 -0.7231  1.6620 -0.4415
   96SAPC  C314 9481   6.260   2.414   4.564  0.2242 -0.2217 -1.2988
   96SAPC  H14X 9482   6.195   2.502   4.584 -0.3091 -0.5370 -1.6263
   96SAPC  H14Y 9483   6.348   2.438   4.500  1.5266 -0.3154  0.3730
   96SAPC  C315 9484   6.313   2.380   4.707 -0.4376 -0.1993 -0.0432
   96SAPC  H15X 9485   6.389   2.300   4.700 -0.0939  0.0204  1.0287
   96SAPC  H15Y 9486   6.223   2.348   4.764 -1.2282  1.8816 -0.0156
   96SAPC  C316 9487   6.369   2.508   4.772  0.1749 -0.2374  0.4603
   96SAPC  H16X 9488   6.292   2.580   4.808  2.1369  3.0139 -1.4555
   96SAPC  H16Y 9489   6.422   2.557   4.688 -0.7400  2.0935  1.1713
   96SAPC  C317 9490   6.464   2.491   4.893  0.1064  1.0482 -0.0594
   96SAPC  H17X 9491   6.524   2.401   4.867 -1.0307  0.4198 -0.5374
   96SAPC  H17Y 9492   6.399   2.465   4.979 -0.9362  1.4335 -0.7236
   96SAPC  C318 9493   6.560   2.606   4.922  0.7493 -0.0049  0.3740
   96SAPC  H18X 9494   6.620   2.602   5.016 -0.0661  0.9924  0.9487
   96SAPC  H18Y 9495   6.501   2.699   4.910 -1.8790 -1.8038 -2.0644
   96SAPC  H18Z 9496   6.625   2.602   4.832 -0.6078  1.5810 -0.7294
   97SAPC     N 9497   5.489   0.921   2.263  0.5735 -0.1689 -0.2503
   97SAPC   C12 9498   5.599   0.870   2.171 -0.7481  0.0188 -0.0083
   97SAPC  H12A 9499   5.554   0.826   2.083 -0.5679 -1.3879  0.5793
   97SAPC  H12B 9500   5.638   0.786   2.226 -1.1515  1.0358  1.9196
   97SAPC   C13 9501   5.425   1.044   2.203 -0.3991  0.2920 -0.3652
   97SAPC  H13A 9502   5.366   1.008   2.120 -0.5226  1.5337 -0.8334
   97SAPC  H13B 9503   5.348   1.084   2.268 -1.4922 -2.7240  0.3574
   97SAPC  H13C 9504   5.489   1.126   2.172 -0.2512  0.7638  1.0814
   97SAPC   C14 9505   5.387   0.817   2.272  0.1750  0.3069  0.0784
   97SAPC  H14A 9506   5.439   0.729   2.306  0.4832 -0.0800 -1.3392
   97SAPC  H14B 9507   5.313   0.835   2.348 -0.8327 -0.7670 -0.6211
   97SAPC  H14C 9508   5.339   0.794   2.178 -0.6742 -2.4342  1.0961
   97SAPC   C15 9509   5.540   0.956   2.404 -0.6723 -0.2341  1.3584
   97SAPC  H15A 9510   5.455   0.977   2.466 -1.4910 -2.3271  1.0352
   97SAPC  H15B 9511   5.591   0.867   2.436 -0.1568 -1.0883 -1.4832
   97SAPC  H15C 9512   5.619   1.029   2.394  0.3909 -1.4956 -0.1279
   97SAPC   C11 9513   5.707   0.971   2.131 -0.4781 -0.0833  0.0989
   97SAPC  H11A 9514   5.665   1.054   2.070  1.8951  0.6616 -0.6513
   97SAPC  H11B 9515   5.779   0.918   2.066 -1.8635 -2.2318  0.2186
   97SAPC     P 9516   5.878   1.139   2.244 -0.0245 -0.3068 -0.2410
   97SAPC   O13 9517   5.899   1.178   2.103  0.3411 -0.4149 -0.1886
   97SAPC   O14 9518   5.847   1.245   2.343 -0.5038  0.3475  0.6038
   97SAPC   O12 9519   5.771   1.015   2.253 -0.1071 -1.0238  0.7160
   97SAPC   O11 9520   6.013   1.063   2.293 -0.0098  0.4904  0.1942
   97SAPC    C1 9521   6.028   0.926   2.321 -0.8084  0.3982 -0.1230
   97SAPC    HA 9522   5.965   0.868   2.250 -1.6042 -0.8763  1.5612
   97SAPC    HB 9523   6.133   0.892   2.307 -0.7878 -0.2191  1.3537
   97SAPC    C2 9524   5.976   0.904   2.463 -0.5183 -0.7249 -0.6448
   97SAPC    HS 9525   5.876   0.953   2.459  1.4628  3.7544 -2.4963
   97SAPC   O21 9526   6.059   0.970   2.562  0.0157 -0.7803 -0.0156
   97SAPC   C21 9527   5.999   1.024   2.664  0.1010 -0.2022 -0.2692
   97SAPC   O22 9528   5.881   1.027   2.692  0.2919  0.2808 -0.2361
   97SAPC   C22 9529   6.106   1.058   2.768 -1.5082  0.6479 -0.3725
   97SAPC   H2R 9530   6.159   0.968   2.807 -2.8346 -0.2621 -0.6090
   97SAPC   H2S 9531   6.179   1.132   2.729  0.0554  1.7692  4.0481
   97SAPC    C3 9532   5.957   0.757   2.512 -0.4247 -0.8006 -0.2745
   97SAPC    HX 9533   6.058   0.714   2.495  0.3915  0.9212  0.0198
   97SAPC    HY 9534   5.898   0.704   2.434 -0.3097  0.0045 -0.9309
   97SAPC   O31 9535   5.916   0.741   2.645  0.0569 -0.1483 -0.2187
   97SAPC   C31 9536   5.784   0.752   2.662 -0.2316  0.4667 -0.0369
   97SAPC   O32 9537   5.701   0.772   2.575  0.3667 -0.0943  0.2198
   97SAPC   C32 9538   5.755   0.756   2.812 -0.1968  0.4667 -0.2750
   97SAPC   H2X 9539   5.701   0.852   2.827 -0.3918  0.0871  1.8236
   97SAPC   H2Y 9540   5.853   0.781   2.857 -0.8177  0.8717  0.8895
   97SAPC   C23 9541   6.040   1.142   2.880 -0.3170 -0.0109 -0.0226
   97SAPC   H3R 9542   5.976   1.089   2.953  0.1375  2.2694  2.1697
   97SAPC   H3S 9543   5.988   1.223   2.825 -0.2707  0.5665  0.7597
   97SAPC   C24 9544   6.148   1.216   2.970  0.6084 -0.3105 -0.6986
   97SAPC   H4R 9545   6.084   1.283   3.031 -0.3001  0.2571 -2.2007
   97SAPC   H4S 9546   6.211   1.286   2.911  0.2726  0.6476  0.0412
   97SAPC   C25 9547   6.240   1.133   3.053 -0.2303  0.6190  0.1759
   97SAPC   H5R 9548   6.307   1.069   2.993 -0.4894 -0.5416  1.0822
   97SAPC   C26 9549   6.264   1.143   3.185  0.1391 -0.2172  1.0624
   97SAPC   H6R 9550   6.339   1.074   3.229  0.1909 -1.1756 -0.4589
   97SAPC   C27 9551   6.195   1.238   3.280 -0.1204 -0.0741  0.3294
   97SAPC   H7R 9552   6.134   1.311   3.222  1.4832 -0.2008 -1.6420
   97SAPC   H7S 9553   6.280   1.296   3.322  1.1188 -0.3015 -1.6957
   97SAPC   C28 9554   6.118   1.191   3.390  0.5824 -0.6966 -0.1537
   97SAPC   H8R 9555   6.022   1.148   3.358  1.9191 -2.5204 -1.9182
   97SAPC   C29 9556   6.139   1.198   3.519 -0.9087 -0.7548 -0.2170
   97SAPC   H9R 9557   6.056   1.167   3.583 -2.8871  1.9154 -1.3046
   97SAPC  C210 9558   6.262   1.265   3.581 -0.6549  0.9799 -0.3194
   97SAPC  H10R 9559   6.249   1.375   3.587  4.2576  1.6809  2.0049
   97SAPC  H10S 9560   6.351   1.242   3.520  0.4472  0.0767  1.5294
   97SAPC  C211 9561   6.276   1.213   3.721  0.5411  0.1583  0.6216
   97SAPC  H11R 9562   6.192   1.159   3.768 -1.4680  0.5444 -2.2850
   97SAPC  C212 9563   6.400   1.206   3.787 -0.5662 -0.3351 -0.0826
   97SAPC  H12R 9564   6.396   1.165   3.889 -3.3308 -0.7853 -0.3011
   97SAPC  C213 9565   6.545   1.245   3.738 -0.0395 -0.2658  0.0789
   97SAPC  H13R 9566   6.541   1.273   3.631  0.3150 -3.6849 -0.9689
   97SAPC  H13S 9567   6.607   1.152   3.735  1.1384  0.5388 -1.3230
   97SAPC  C214 9568   6.641   1.345   3.799  0.2342 -0.0790  0.2943
   97SAPC  H14R 9569   6.678   1.431   3.740  0.0522 -0.3384 -0.1990
   97SAPC  C215 9570   6.683   1.345   3.931 -0.6948  0.4998 -0.1062
   97SAPC  H15R 9571   6.756   1.421   3.964 -1.2294  1.2328 -0.5895
   97SAPC  C216 9572   6.663   1.236   4.036  0.3052  0.2803  0.9256
   97SAPC  H16R 9573   6.759   1.200   4.081  0.5205 -0.3403  0.0079
   97SAPC  H16S 9574   6.606   1.151   3.993  2.3618 -1.7875  2.0500
   97SAPC  C217 9575   6.577   1.280   4.156  0.0868  0.5900  0.3928
   97SAPC  H17R 9576   6.480   1.303   4.106  0.4782  1.1554 -0.1315
   97SAPC  H17S 9577   6.617   1.374   4.200 -1.3010 -0.1668  3.5670
   97SAPC  C218 9578   6.567   1.180   4.271  0.1424 -0.8950 -0.3947
   97SAPC  H18R 9579   6.673   1.163   4.301  0.5452 -1.6847 -2.1487
   97SAPC  H18S 9580   6.530   1.083   4.233  0.8225 -1.6413  0.7949
   97SAPC  C219 9581   6.474   1.227   4.389  0.4214 -0.0360  0.2842
   97SAPC  H19R 9582   6.476   1.149   4.468 -2.6091 -1.2902 -0.7353
   97SAPC  H19S 9583   6.369   1.223   4.352  0.9688  1.1394 -1.5257
   97SAPC  C220 9584   6.502   1.360   4.456  0.5253  0.4259  0.7993
   97SAPC  H20R 9585   6.409   1.386   4.511 -2.9279 -1.1029 -3.7285
   97SAPC  H20S 9586   6.514   1.450   4.392  0.1462  2.0312  2.8520
   97SAPC  H20T 9587   6.595   1.358   4.518  0.5559  1.2802  0.7983
   97SAPC   C33 9588   5.693   0.631   2.873  0.4702  0.1814  0.1613
   97SAPC   H3X 9589   5.744   0.538   2.838 -0.1658  0.4346 -1.5681
   97SAPC   H3Y 9590   5.592   0.613   2.828  0.9007  2.1172 -1.7554
   97SAPC   C34 9591   5.688   0.629   3.027  0.2181 -0.1124  0.0034
   97SAPC   H4X 9592   5.789   0.640   3.073 -0.9209 -0.4760  2.7487
   97SAPC   H4Y 9593   5.656   0.527   3.056  1.2283 -0.6200 -0.6239
   97SAPC   C35 9594   5.596   0.731   3.088 -1.3833  0.1785  0.3382
   97SAPC   H5X 9595   5.494   0.708   3.050 -0.7602  0.1670 -1.3864
   97SAPC   H5Y 9596   5.627   0.831   3.051  0.3580 -0.3837  0.2239
   97SAPC   C36 9597   5.596   0.714   3.240  0.1019 -0.1108  0.8491
   97SAPC   H6X 9598   5.693   0.753   3.279  1.5675 -1.7116 -0.9853
   97SAPC   H6Y 9599   5.588   0.603   3.247 -3.8898 -0.1183 -1.0777
   97SAPC   C37 9600   5.471   0.780   3.306  0.4463  0.5303  0.0295
   97SAPC   H7X 9601   5.386   0.745   3.244  0.7078 -1.4186  0.6916
   97SAPC   H7Y 9602   5.482   0.890   3.300  0.2301  0.8625  3.7398
   97SAPC   C38 9603   5.457   0.748   3.457  0.1678  0.1456  0.9613
   97SAPC   H8X 9604   5.458   0.638   3.473  0.1498 -0.6016 -3.0946
   97SAPC   H8Y 9605   5.369   0.795   3.506 -0.1103 -0.2227  0.8239
   97SAPC   C39 9606   5.575   0.804   3.528  0.0190  0.3135 -0.6026
   97SAPC   H9X 9607   5.557   0.913   3.518 -0.3773  0.3188  0.0893
   97SAPC   H9Y 9608   5.674   0.774   3.489  0.3580 -0.8415  1.0373
   97SAPC  C310 9609   5.558   0.773   3.677 -0.9714 -0.1311  0.2921
   97SAPC  H10X 9610   5.575   0.668   3.708  0.4952 -0.1088 -0.3699
   97SAPC  H10Y 9611   5.457   0.807   3.707 -0.1423  0.1155  3.0952
   97SAPC  C311 9612   5.657   0.852   3.759  0.1691  0.4526 -0.2007
   97SAPC  H11X 9613   5.631   0.960   3.749  3.0706  1.2136 -0.4096
   97SAPC  H11Y 9614   5.761   0.850   3.720 -0.6098  1.3795 -2.4738
   97SAPC  C312 9615   5.647   0.822   3.909  0.2588  0.1024 -0.2085
   97SAPC  H12X 9616   5.701   0.726   3.921 -0.0180  0.0117  0.3078
   97SAPC  H12Y 9617   5.539   0.805   3.926 -0.0129 -0.0673 -1.8653
   97SAPC  C313 9618   5.703   0.923   4.012  0.1706 -0.0830  0.0027
   97SAPC  H13X 9619   5.646   1.018   4.002 -0.3306 -0.3164  0.5774
   97SAPC  H13Y 9620   5.808   0.938   3.979  0.2154 -3.0199 -1.5312
   97SAPC  C314 9621   5.683   0.870   4.155 -0.1200 -0.2548 -0.2164
   97SAPC  H14X 9622   5.730   0.769   4.159 -0.8847 -0.6025  0.1935
   97SAPC  H14Y 9623   5.576   0.855   4.183 -0.3162 -0.0285 -0.8322
   97SAPC  C315 9624   5.750   0.955   4.262 -0.8295  0.1165  0.4373
   97SAPC  H15X 9625   5.850   0.977   4.218 -0.6631 -0.2304  0.6365
   97SAPC  H15Y 9626   5.775   0.900   4.355 -0.4769 -1.3187 -0.4666
   97SAPC  C316 9627   5.672   1.088   4.299 -0.6361  0.4422  0.6055
   97SAPC  H16X 9628   5.619   1.127   4.209 -0.3328  0.0967  0.2740
   97SAPC  H16Y 9629   5.745   1.155   4.350  2.5554 -2.1910 -0.1613
   97SAPC  C317 9630   5.559   1.055   4.399  0.1758  0.0651 -0.8248
   97SAPC  H17X 9631   5.608   0.996   4.480 -0.3971 -0.8666 -1.1317
   97SAPC  H17Y 9632   5.491   0.984   4.347  0.3998 -1.4402  0.8238
   97SAPC  C318 9633   5.498   1.179   4.455 -0.4583 -0.3368  0.4669
   97SAPC  H18X 9634   5.573   1.234   4.515 -0.6056  0.7693 -0.3275
   97SAPC  H18Y 9635   5.410   1.148   4.516  0.2935 -0.9173  1.2705
   97SAPC  H18Z 9636   5.467   1.254   4.379  0.3615  0.2254  0.6848
   98SAPC     N 9637   1.752   1.204   2.324 -0.1457 -0.0273 -0.5637
   98SAPC   C12 9638   1.839   1.264   2.441 -0.0873 -0.2388  0.3850
   98SAPC  H12A 9639   1.894   1.352   2.409 -0.9214  0.3141  0.4334
   98SAPC  H12B 9640   1.920   1.195   2.459 -0.3137 -1.1824 -1.7978
   98SAPC   C13 9641   1.689   1.076   2.367  0.4404  0.3532 -0.3672
   98SAPC  H13A 9642   1.625   1.089   2.453  0.5095 -0.3523 -0.2029
   98SAPC  H13B 9643   1.619   1.050   2.289 -2.3337  0.4337  1.9336
   98SAPC  H13C 9644   1.768   1.007   2.392  1.1264  1.1829 -0.2139
   98SAPC   C14 9645   1.647   1.299   2.276 -0.6134 -0.3689  0.4258
   98SAPC  H14A 9646   1.581   1.251   2.205 -2.5462  1.6744  0.7230
   98SAPC  H14B 9647   1.591   1.324   2.365  3.0011  0.3629  2.6831
   98SAPC  H14C 9648   1.678   1.392   2.231  0.1138 -1.0600 -0.5502
   98SAPC   C15 9649   1.842   1.172   2.206  1.0389 -0.3089 -0.0133
   98SAPC  H15A 9650   1.783   1.127   2.129 -1.9589  2.8080  0.2272
   98SAPC  H15B 9651   1.893   1.257   2.164 -1.8369  1.0519 -0.9917
   98SAPC  H15C 9652   1.914   1.097   2.236  0.5102 -0.8036  0.0465
   98SAPC   C11 9653   1.759   1.306   2.569 -0.6859  0.2873 -0.1650
   98SAPC  H11A 9654   1.832   1.312   2.653 -1.0135  2.9042  0.0055
   98SAPC  H11B 9655   1.680   1.236   2.605 -1.2176  1.4454  0.9883
   98SAPC     P 9656   1.782   1.566   2.552 -0.3086  0.1894 -0.0894
   98SAPC   O13 9657   1.912   1.549   2.483  0.8677 -0.1593 -0.7738
   98SAPC   O14 9658   1.701   1.680   2.506 -0.3842 -0.6396 -0.0397
   98SAPC   O12 9659   1.701   1.432   2.550  0.1857 -0.5805 -0.4143
   98SAPC   O11 9660   1.790   1.580   2.705 -0.5937 -0.3248  0.9565
   98SAPC    C1 9661   1.849   1.696   2.762  0.3002  0.6041  0.3690
   98SAPC    HA 9662   1.957   1.670   2.760  0.8782  2.6129 -3.2211
   98SAPC    HB 9663   1.835   1.785   2.697  0.4179  0.7997  0.6147
   98SAPC    C2 9664   1.810   1.728   2.913  0.3533  0.3405 -0.0809
   98SAPC    HS 9665   1.844   1.832   2.929  0.5180  0.3508 -0.4648
   98SAPC   O21 9666   1.868   1.627   2.995 -0.2311 -0.5158 -0.2465
   98SAPC   C21 9667   1.998   1.627   3.009  0.0727 -0.1986 -0.3510
   98SAPC   O22 9668   2.070   1.716   2.964  0.3441  0.0512  0.4838
   98SAPC   C22 9669   2.050   1.517   3.104  0.3338 -0.1266 -0.3284
   98SAPC   H2R 9670   1.967   1.484   3.170 -1.0254 -1.0104 -2.3672
   98SAPC   H2S 9671   2.082   1.439   3.031 -3.4740 -1.4345 -0.8155
   98SAPC    C3 9672   1.657   1.734   2.935 -0.9956  0.1205  0.1654
   98SAPC    HX 9673   1.610   1.638   2.905 -2.1747  1.2244 -1.6984
   98SAPC    HY 9674   1.622   1.817   2.871  3.3768  3.9738  2.2081
   98SAPC   O31 9675   1.629   1.777   3.064 -0.0518 -0.6292 -0.7630
   98SAPC   C31 9676   1.612   1.681   3.152 -0.1989 -0.2551 -0.1822
   98SAPC   O32 9677   1.618   1.565   3.121  0.2216 -0.0573  0.2525
   98SAPC   C32 9678   1.582   1.733   3.293 -0.2931  0.5456  0.4710
   98SAPC   H2X 9679   1.479   1.705   3.327 -0.7019  1.8618  0.3830
   98SAPC   H2Y 9680   1.586   1.844   3.286 -1.0851  0.6511  1.3351
   98SAPC   C23 9681   2.169   1.560   3.203 -0.4885 -0.0681 -0.9053
   98SAPC   H3R 9682   2.253   1.601   3.143 -0.9743 -1.1304 -2.3650
   98SAPC   H3S 9683   2.216   1.475   3.255  2.3393  2.1380  0.4132
   98SAPC   C24 9684   2.123   1.666   3.313 -0.3792 -0.3521  0.0586
   98SAPC   H4R 9685   2.044   1.621   3.376  0.0382 -1.5905 -0.2659
   98SAPC   H4S 9686   2.061   1.745   3.265 -1.0106 -1.0260 -0.2561
   98SAPC   C25 9687   2.236   1.738   3.381 -0.4462  0.5884 -0.1047
   98SAPC   H5R 9688   2.299   1.783   3.303  1.2585 -0.1469  0.7905
   98SAPC   C26 9689   2.273   1.733   3.510  0.2939  0.0141 -0.4395
   98SAPC   H6R 9690   2.363   1.791   3.536 -0.6640  1.4368 -0.2195
   98SAPC   C27 9691   2.187   1.666   3.629  0.1000 -0.1877  0.2299
   98SAPC   H7R 9692   2.077   1.684   3.620  0.0481  0.1923  1.4514
   98SAPC   H7S 9693   2.221   1.713   3.723  0.8770 -1.5375  0.6391
   98SAPC   C28 9694   2.217   1.521   3.629  0.7300  0.1257 -0.0156
   98SAPC   H8R 9695   2.167   1.464   3.550 -1.1910  1.5434  0.0932
   98SAPC   C29 9696   2.269   1.445   3.727 -0.3837 -0.0532 -0.2283
   98SAPC   H9R 9697   2.278   1.335   3.724 -1.7132 -0.1598 -1.7358
   98SAPC  C210 9698   2.344   1.501   3.843  0.8765 -0.4461 -0.0812
   98SAPC  H10R 9699   2.412   1.580   3.804  0.0642  0.1863 -0.2238
   98SAPC  H10S 9700   2.415   1.423   3.878 -1.7938 -2.2564  1.5935
   98SAPC  C211 9701   2.261   1.550   3.957  0.0735 -0.7067 -0.3491
   98SAPC  H11R 9702   2.157   1.579   3.934 -0.1001 -0.3220  0.8264
   98SAPC  C212 9703   2.301   1.557   4.086  0.1617 -0.5329 -0.2128
   98SAPC  H12R 9704   2.227   1.603   4.153 -0.4899 -1.5246 -0.2291
   98SAPC  C213 9705   2.438   1.522   4.154 -0.0047 -0.0926 -0.4897
   98SAPC  H13R 9706   2.483   1.450   4.083 -1.0418  0.6663 -1.9641
   98SAPC  H13S 9707   2.421   1.475   4.253 -1.3351  0.2057 -0.5606
   98SAPC  C214 9708   2.525   1.647   4.176  0.1311  0.5070  0.3072
   98SAPC  H14R 9709   2.557   1.695   4.083  1.8108 -3.1242 -1.2112
   98SAPC  C215 9710   2.564   1.699   4.293 -0.0248 -0.6904  0.0685
   98SAPC  H15R 9711   2.634   1.784   4.294 -0.5925 -0.2058 -0.5663
   98SAPC  C216 9712   2.536   1.661   4.440  0.6247  0.4664 -0.0288
   98SAPC  H16R 9713   2.563   1.555   4.460 -1.3761  0.3883  2.8531
   98SAPC  H16S 9714   2.429   1.675   4.466  1.1137 -0.7487  3.0011
   98SAPC  C217 9715   2.614   1.741   4.546  0.2599 -0.4991  0.5761
   98SAPC  H17R 9716   2.572   1.843   4.535 -1.7075 -1.1448  1.5822
   98SAPC  H17S 9717   2.722   1.731   4.521 -0.1626 -2.4062 -0.6936
   98SAPC  C218 9718   2.579   1.681   4.688 -0.0875  0.1211  0.5384
   98SAPC  H18R 9719   2.597   1.572   4.700  0.1975  0.2242  1.1599
   98SAPC  H18S 9720   2.473   1.684   4.719 -0.0216 -0.2197  0.8112
   98SAPC  C219 9721   2.668   1.751   4.803  0.1702 -0.2140  0.7361
   98SAPC  H19R 9722   2.655   1.861   4.815 -1.6536 -0.1964 -0.7809
   98SAPC  H19S 9723   2.774   1.737   4.774 -0.5566  0.3336 -2.7211
   98SAPC  C220 9724   2.653   1.667   4.928 -0.3445 -0.6444 -0.5097
   98SAPC  H20R 9725   2.704   1.569   4.924  0.0321 -0.4480 -0.5497
   98SAPC  H20S 9726   2.547   1.651   4.960 -0.5776 -0.1115 -0.9901
   98SAPC  H20T 9727   2.705   1.720   5.010 -1.8454  1.5133 -0.8494
   98SAPC   C33 9728   1.686   1.662   3.384 -0.2144 -0.3611  0.6699
   98SAPC   H3X 9729   1.790   1.689   3.357 -0.0437 -0.0638  1.5899
   98SAPC   H3Y 9730   1.671   1.554   3.362 -1.4987  0.4273 -3.0716
   98SAPC   C34 9731   1.683   1.716   3.528  0.1884  0.7245  1.0696
   98SAPC   H4X 9732   1.577   1.713   3.562 -0.2156 -1.9207 -0.1825
   98SAPC   H4Y 9733   1.710   1.823   3.519 -0.4841  0.7904 -0.3874
   98SAPC   C35 9734   1.766   1.642   3.619  0.0001  0.5136  0.1304
   98SAPC   H5X 9735   1.861   1.609   3.572 -0.0166 -1.2817  1.2856
   98SAPC   H5Y 9736   1.712   1.549   3.648  1.6596 -0.9047 -1.1170
   98SAPC   C36 9737   1.783   1.721   3.746 -0.9042 -0.6110 -0.6269
   98SAPC   H6X 9738   1.682   1.752   3.780  0.0942  0.5847  1.4614
   98SAPC   H6Y 9739   1.832   1.819   3.725  0.9090 -1.4096 -0.3194
   98SAPC   C37 9740   1.855   1.640   3.846 -0.2373  0.2122 -0.7507
   98SAPC   H7X 9741   1.958   1.610   3.815  0.6401 -0.9953  2.8591
   98SAPC   H7Y 9742   1.804   1.544   3.869  0.4681  0.0042  0.0149
   98SAPC   C38 9743   1.880   1.712   3.978  0.2156  0.0864  0.3259
   98SAPC   H8X 9744   1.786   1.762   4.011  0.2817 -0.7746  1.9622
   98SAPC   H8Y 9745   1.957   1.791   3.965  1.6930 -1.1965  0.9075
   98SAPC   C39 9746   1.924   1.609   4.087  0.0069  0.3254 -0.3650
   98SAPC   H9X 9747   2.012   1.542   4.074 -1.3159 -1.8819  1.3053
   98SAPC   H9Y 9748   1.839   1.536   4.088 -1.4530  1.9577 -0.4195
   98SAPC  C310 9749   1.947   1.685   4.217 -0.2025  0.3373  0.0189
   98SAPC  H10X 9750   1.879   1.773   4.228  1.4902  1.8835 -1.3126
   98SAPC  H10Y 9751   2.048   1.731   4.216 -0.5189  1.0508 -0.5895
   98SAPC  C311 9752   1.928   1.591   4.334  0.0237  0.2021  0.0834
   98SAPC  H11X 9753   1.985   1.504   4.297 -3.0752 -2.3944  0.9303
   98SAPC  H11Y 9754   1.820   1.566   4.330  0.1442 -0.1888 -0.8310
   98SAPC  C312 9755   1.977   1.636   4.476  0.5699  0.1930 -0.1551
   98SAPC  H12X 9756   1.920   1.580   4.553 -0.9396 -0.6517 -1.8032
   98SAPC  H12Y 9757   1.955   1.744   4.482  1.3216  0.3700 -0.5773
   98SAPC  C313 9758   2.131   1.635   4.502 -0.1464  0.1524 -0.3622
   98SAPC  H13X 9759   2.176   1.727   4.459 -0.3536  0.8078  0.7834
   98SAPC  H13Y 9760   2.180   1.552   4.447  0.5444  0.3471 -0.0588
   98SAPC  C314 9761   2.167   1.619   4.654 -0.4115  0.1488  0.7684
   98SAPC  H14X 9762   2.094   1.679   4.712  0.7121  0.1097  2.2860
   98SAPC  H14Y 9763   2.267   1.661   4.678 -0.8682  2.6274 -1.2148
   98SAPC  C315 9764   2.145   1.471   4.696  0.3212  0.0009 -0.5179
   98SAPC  H15X 9765   2.229   1.404   4.667 -0.5738 -0.4231 -2.2428
   98SAPC  H15Y 9766   2.050   1.437   4.649  0.9888 -0.7341 -1.3838
   98SAPC  C316 9767   2.130   1.485   4.849 -0.0836  0.3523 -0.0570
   98SAPC  H16X 9768   2.028   1.521   4.874  0.2635  0.4486  1.3067
   98SAPC  H16Y 9769   2.215   1.545   4.887 -0.8342  1.5867 -0.2621
   98SAPC  C317 9770   2.146   1.350   4.920  0.2085  0.2108  0.2112
   98SAPC  H17X 9771   2.251   1.322   4.895  0.9521 -0.4067  3.6223
   98SAPC  H17Y 9772   2.082   1.281   4.861 -0.2869  0.3435  0.5952
   98SAPC  C318 9773   2.111   1.330   5.065  0.3013  0.5881  0.2410
   98SAPC  H18X 9774   2.180   1.370   5.143  1.4366 -2.0352  0.6876
   98SAPC  H18Y 9775   2.113   1.220   5.081 -1.4798  0.5860  0.6430
   98SAPC  H18Z 9776   2.006   1.357   5.089 -0.6361 -2.3313 -0.2001
   99SAPC     N 9777   1.148   3.811   2.265  0.0435  0.7914 -0.0321
   99SAPC   C12 9778   1.132   3.909   2.384 -0.1844 -0.4006  0.6395
   99SAPC  H12A 9779   1.079   3.867   2.469  2.4148  0.6133  2.9135
   99SAPC  H12B 9780   1.083   3.998   2.347  0.9389  0.5427  1.3586
   99SAPC   C13 9781   1.192   3.684   2.325 -0.2528  0.2030 -0.0841
   99SAPC  H13A 9782   1.222   3.610   2.253  0.8275 -0.2898  0.8485
   99SAPC  H13B 9783   1.279   3.713   2.382  0.8273  0.7056 -1.9006
   99SAPC  H13C 9784   1.114   3.647   2.390 -0.1291  0.2919  0.1170
   99SAPC   C14 9785   1.014   3.795   2.199  0.2447  0.4795  0.2529
   99SAPC  H14A 9786   0.942   3.768   2.275  0.5458  0.1681  0.4323
   99SAPC  H14B 9787   0.979   3.882   2.146 -0.7377 -0.9911 -1.6143
   99SAPC  H14C 9788   1.019   3.708   2.136 -0.6037 -0.6671  1.6991
   99SAPC   C15 9789   1.233   3.864   2.159 -0.6143  0.6714 -0.3479
   99SAPC  H15A 9790   1.329   3.900   2.192 -1.1180  2.1397 -0.4267
   99SAPC  H15B 9791   1.248   3.789   2.082 -3.3095 -0.6534  0.2897
   99SAPC  H15C 9792   1.176   3.946   2.119 -2.3573 -0.6246 -0.6555
   99SAPC   C11 9793   1.264   3.951   2.447 -0.8447 -0.2741  0.5075
   99SAPC  H11A 9794   1.262   4.052   2.492 -0.6542 -0.2486  0.4592
   99SAPC  H11B 9795   1.341   3.961   2.367 -1.7425  1.7740 -0.1511
   99SAPC     P 9796   1.248   3.820   2.675 -0.0781 -0.1480 -0.0168
   99SAPC   O13 9797   1.098   3.827   2.667 -0.5710 -0.4672 -0.0168
   99SAPC   O14 9798   1.307   3.695   2.729  0.4385 -0.2782 -0.4022
   99SAPC   O12 9799   1.307   3.848   2.534  0.3424 -0.6588 -0.2799
   99SAPC   O11 9800   1.297   3.946   2.755 -0.2486  0.1123  0.1953
   99SAPC    C1 9801   1.212   4.043   2.807  0.4183 -0.3528 -0.1224
   99SAPC    HA 9802   1.256   4.145   2.804  0.4118 -0.3615 -0.5684
   99SAPC    HB 9803   1.116   4.048   2.752  1.5076  0.2279 -2.0760
   99SAPC    C2 9804   1.175   4.021   2.960  0.3575  0.3046  0.1248
   99SAPC    HS 9805   1.133   4.111   3.010  0.0630  1.6532 -2.3884
   99SAPC   O21 9806   1.284   3.977   3.038 -0.6089 -0.7301 -0.1082
   99SAPC   C21 9807   1.376   4.064   3.058 -0.6552  0.0925 -0.3517
   99SAPC   O22 9808   1.364   4.185   3.039  0.1110  0.0986  1.0995
   99SAPC   C22 9809   1.499   3.999   3.119 -0.7254  0.2420 -0.5480
   99SAPC   H2R 9810   1.505   3.897   3.076  0.6872 -1.2335  2.8211
   99SAPC   H2S 9811   1.584   4.067   3.096 -1.7346  2.0196  0.7707
   99SAPC    C3 9812   1.070   3.909   2.978  0.9001  0.2833  0.1867
   99SAPC    HX 9813   1.104   3.813   2.933  0.5526  1.3306 -2.5117
   99SAPC    HY 9814   0.989   3.945   2.910  2.4445 -0.4022 -2.1421
   99SAPC   O31 9815   1.021   3.878   3.107  0.5067  0.1422 -1.2299
   99SAPC   C31 9816   0.918   3.954   3.150 -0.3189  0.3738 -0.6269
   99SAPC   O32 9817   0.879   4.053   3.088 -0.4202  0.0322 -0.2772
   99SAPC   C32 9818   0.855   3.895   3.276  0.1042  0.0838 -0.1623
   99SAPC   H2X 9819   0.939   3.877   3.347  3.0804  0.1418 -3.3597
   99SAPC   H2Y 9820   0.807   3.805   3.232  1.6300  0.4772 -2.8789
   99SAPC   C23 9821   1.497   3.986   3.273  0.1585  0.5463  0.2429
   99SAPC   H3R 9822   1.582   3.920   3.301 -0.7012 -0.4431  0.5846
   99SAPC   H3S 9823   1.405   3.931   3.303  1.4108 -0.4430  2.5577
   99SAPC   C24 9824   1.497   4.120   3.348  0.1098  0.0490 -0.3372
   99SAPC   H4R 9825   1.463   4.101   3.452  0.7452 -0.2415 -0.1782
   99SAPC   H4S 9826   1.417   4.186   3.309  1.4696  2.6799  1.0460
   99SAPC   C25 9827   1.623   4.203   3.353 -0.4965 -0.5931 -0.5841
   99SAPC   H5R 9828   1.679   4.207   3.258  0.0630  2.5980 -0.2397
   99SAPC   C26 9829   1.671   4.277   3.460 -0.4566 -0.1222 -0.0297
   99SAPC   H6R 9830   1.764   4.333   3.442 -1.3056  0.9397 -1.2557
   99SAPC   C27 9831   1.614   4.278   3.602 -0.0580  0.9705  0.1885
   99SAPC   H7R 9832   1.586   4.174   3.627  0.6856  0.8691  0.6247
   99SAPC   H7S 9833   1.517   4.331   3.616 -0.7363 -0.9770  4.1221
   99SAPC   C28 9834   1.710   4.335   3.700  0.5030 -0.4505 -0.1538
   99SAPC   H8R 9835   1.814   4.315   3.670  0.1384 -2.4226 -0.2414
   99SAPC   C29 9836   1.685   4.391   3.817 -0.2314 -0.9849  0.5290
   99SAPC   H9R 9837   1.768   4.426   3.880  1.1960 -0.6275 -1.4519
   99SAPC  C210 9838   1.554   4.411   3.885 -0.3897  0.6095 -0.2887
   99SAPC  H10R 9839   1.473   4.377   3.816 -0.1166  1.1848 -0.9088
   99SAPC  H10S 9840   1.540   4.521   3.888 -2.3233  0.4269 -1.0091
   99SAPC  C211 9841   1.555   4.335   4.015  0.2027  0.1802  0.0575
   99SAPC  H11R 9842   1.613   4.241   4.014 -0.8582 -0.5277  1.3158
   99SAPC  C212 9843   1.508   4.375   4.133 -0.1348 -0.6320  0.4309
   99SAPC  H12R 9844   1.523   4.321   4.227 -0.4067 -0.1033  0.7869
   99SAPC  C213 9845   1.422   4.495   4.152  0.0102  0.3741  0.4741
   99SAPC  H13R 9846   1.390   4.555   4.064 -0.1663 -1.1488 -0.5342
   99SAPC  H13S 9847   1.487   4.561   4.213 -0.2214  0.7275  0.3445
   99SAPC  C214 9848   1.299   4.461   4.233 -0.3558 -0.2363  0.3664
   99SAPC  H14R 9849   1.211   4.438   4.172  0.3431  0.6798 -1.0505
   99SAPC  C215 9850   1.284   4.447   4.366  0.4773  0.7604  0.1169
   99SAPC  H15R 9851   1.192   4.416   4.419 -0.0732  2.6635  0.3366
   99SAPC  C216 9852   1.389   4.466   4.469  0.0427 -0.0492 -0.3495
   99SAPC  H16R 9853   1.488   4.440   4.425 -0.9428  1.6583 -3.9645
   99SAPC  H16S 9854   1.371   4.395   4.552 -2.7079  2.9254  1.8111
   99SAPC  C217 9855   1.394   4.614   4.516  0.6565  0.4871 -0.3602
   99SAPC  H17R 9856   1.291   4.638   4.550  0.5598 -1.3772  0.8206
   99SAPC  H17S 9857   1.425   4.684   4.436  0.2497  1.8894  0.6694
   99SAPC  C218 9858   1.490   4.628   4.636 -0.0345 -0.2242  0.7792
   99SAPC  H18R 9859   1.482   4.733   4.673 -0.5693 -0.3384  0.9996
   99SAPC  H18S 9860   1.596   4.628   4.603  0.0492  1.5949  0.9041
   99SAPC  C219 9861   1.464   4.529   4.747  0.3087  0.7616  0.0698
   99SAPC  H19R 9862   1.498   4.425   4.728  0.6603  0.2653  2.9571
   99SAPC  H19S 9863   1.354   4.513   4.749  0.4106  0.0103  0.1029
   99SAPC  C220 9864   1.510   4.579   4.890  0.6695 -0.1950  0.2206
   99SAPC  H20R 9865   1.456   4.673   4.917 -1.1616 -0.9640 -0.6181
   99SAPC  H20S 9866   1.619   4.604   4.887  0.2711  1.8906  1.2560
   99SAPC  H20T 9867   1.488   4.501   4.966  0.0434 -0.8319 -0.6006
   99SAPC   C33 9868   0.744   3.989   3.347  0.1210 -0.8235 -0.0059
   99SAPC   H3X 9869   0.674   4.021   3.268 -0.1211  2.3460  1.3533
   99SAPC   H3Y 9870   0.798   4.081   3.378 -1.7467  0.4086 -0.2875
   99SAPC   C34 9871   0.667   3.923   3.462  0.0579 -0.1050  0.1980
   99SAPC   H4X 9872   0.635   3.822   3.430  1.3278 -0.1244 -1.1380
   99SAPC   H4Y 9873   0.586   3.992   3.496  1.5359  1.1081  1.4023
   99SAPC   C35 9874   0.759   3.903   3.583  0.6346 -0.0954 -0.7850
   99SAPC   H5X 9875   0.787   4.004   3.620 -1.6445 -0.0711  1.1645
   99SAPC   H5Y 9876   0.852   3.849   3.557 -0.5403 -2.8673  0.3421
   99SAPC   C36 9877   0.675   3.839   3.696  0.2328  0.6580  0.3898
   99SAPC   H6X 9878   0.615   3.749   3.673 -0.2313  1.1975 -0.5868
   99SAPC   H6Y 9879   0.607   3.925   3.714  0.1291  0.1770  2.4643
   99SAPC   C37 9880   0.758   3.832   3.822 -0.4344 -0.6164 -0.3192
   99SAPC   H7X 9881   0.694   3.803   3.907  2.8412 -1.1158  2.1782
   99SAPC   H7Y 9882   0.821   3.922   3.840  1.0229 -1.5033 -0.7592
   99SAPC   C38 9883   0.855   3.715   3.833 -0.1637  0.0904 -0.2943
   99SAPC   H8X 9884   0.930   3.740   3.755 -2.1829 -2.0797 -3.1444
   99SAPC   H8Y 9885   0.806   3.619   3.803  0.7969 -0.0415 -1.5425
   99SAPC   C39 9886   0.919   3.708   3.974 -0.1717 -0.6042  0.0484
   99SAPC   H9X 9887   0.948   3.798   4.031  0.3924 -0.0002 -1.1558
   99SAPC   H9Y 9888   1.021   3.663   3.973 -0.9474 -2.4796 -0.5800
   99SAPC  C310 9889   0.830   3.622   4.067 -0.2125  0.3053  0.5234
   99SAPC  H10X 9890   0.788   3.534   4.014 -2.8035  2.0889 -0.5729
   99SAPC  H10Y 9891   0.747   3.690   4.097  1.9839  2.9517  0.9279
   99SAPC  C311 9892   0.902   3.559   4.196  0.0753  0.5776 -0.8010
   99SAPC  H11X 9893   0.984   3.492   4.164 -0.5862 -0.3059 -0.6746
   99SAPC  H11Y 9894   0.824   3.497   4.243  1.9395 -2.6563 -1.6835
   99SAPC  C312 9895   0.950   3.667   4.288  0.6888  0.3535 -0.3680
   99SAPC  H12X 9896   0.860   3.718   4.327  0.5418 -1.6335  2.1210
   99SAPC  H12Y 9897   1.023   3.729   4.232  1.0556 -1.3917 -1.9116
   99SAPC  C313 9898   1.032   3.605   4.404 -0.4704  0.3400 -0.0333
   99SAPC  H13X 9899   1.087   3.511   4.381 -2.0058 -0.9351  1.2197
   99SAPC  H13Y 9900   0.961   3.560   4.477  0.8237 -1.6188  0.0965
   99SAPC  C314 9901   1.117   3.708   4.475  0.2335  0.4881  0.0496
   99SAPC  H14X 9902   1.052   3.780   4.528  0.4506  2.1574 -1.8216
   99SAPC  H14Y 9903   1.174   3.768   4.400 -2.1468  1.7509 -0.8402
   99SAPC  C315 9904   1.224   3.651   4.575 -0.7289  0.5350  0.0453
   99SAPC  H15X 9905   1.251   3.740   4.636 -1.1468 -1.2917  3.0762
   99SAPC  H15Y 9906   1.314   3.620   4.517 -0.2344 -0.8319  1.4737
   99SAPC  C316 9907   1.190   3.535   4.672  0.3830 -0.5731  0.5145
   99SAPC  H16X 9908   1.174   3.445   4.609 -1.9616  0.5151 -0.5517
   99SAPC  H16Y 9909   1.090   3.560   4.713  1.3629 -2.2873  4.4419
   99SAPC  C317 9910   1.291   3.512   4.780  0.2429 -0.3755  0.8882
   99SAPC  H17X 9911   1.324   3.599   4.840  1.2828  0.9748 -1.4889
   99SAPC  H17Y 9912   1.384   3.476   4.730 -0.4336  1.0239 -1.5169
   99SAPC  C318 9913   1.236   3.408   4.876 -0.5148 -0.1136  0.0549
   99SAPC  H18X 9914   1.304   3.393   4.963 -0.2759  1.1058  0.0946
   99SAPC  H18Y 9915   1.207   3.312   4.829  0.5944 -0.3220 -0.2281
   99SAPC  H18Z 9916   1.146   3.455   4.922  0.7781  2.1605  0.4347
  100SAPC     N 9917   4.828   5.806   2.372 -0.0830  0.0144 -0.7075
  100SAPC   C12 9918   4.700   5.872   2.324  0.6057  0.7105 -0.2438
  100SAPC  H12A 9919   4.718   5.936   2.239  1.2351  0.5742 -0.2209
  100SAPC  H12B 9920   4.671   5.946   2.396  1.0411  0.1687  0.5145
  100SAPC   C13 9921   4.793   5.732   2.505 -0.6543 -0.3250  0.6590
  100SAPC  H13A 9922   4.759   5.799   2.582 -3.4233 -0.8309 -0.0264
  100SAPC  H13B 9923   4.712   5.669   2.471 -1.8236  1.0486  0.8120
  100SAPC  H13C 9924   4.882   5.682   2.540  1.6285  1.9105 -1.5353
  100SAPC   C14 9925   4.884   5.707   2.269  0.0103 -0.3220 -0.0120
  100SAPC  H14A 9926   4.829   5.617   2.248  0.6931 -0.5950 -0.6916
  100SAPC  H14B 9927   4.907   5.741   2.169  2.3615 -0.0377  0.5575
  100SAPC  H14C 9928   4.978   5.671   2.309 -0.1598 -0.5376  0.1914
  100SAPC   C15 9929   4.934   5.907   2.403 -0.0999  0.5002  0.8852
  100SAPC  H15A 9930   4.884   5.982   2.463 -3.0627 -0.4193 -0.2509
  100SAPC  H15B 9931   5.014   5.868   2.464  1.6651  0.5224 -1.2891
  100SAPC  H15C 9932   4.993   5.953   2.325 -0.6616 -0.7058 -0.2940
  100SAPC   C11 9933   4.578   5.784   2.301  0.4881  0.0953 -0.6868
  100SAPC  H11A 9934   4.601   5.698   2.234  0.1811 -0.9674  0.5245
  100SAPC  H11B 9935   4.519   5.859   2.244  1.7742  4.2462  2.8353
  100SAPC     P 9936   4.380   5.810   2.471  0.2265 -0.2516  0.3543
  100SAPC   O13 9937   4.412   5.932   2.551 -0.4302 -0.1318  0.3440
  100SAPC   O14 9938   4.294   5.830   2.353 -0.4330 -0.3590 -0.3203
  100SAPC   O12 9939   4.510   5.739   2.423  0.2911  0.0244  0.1072
  100SAPC   O11 9940   4.311   5.707   2.565  0.2929  0.5699 -0.0767
  100SAPC    C1 9941   4.395   5.598   2.614 -0.3903  0.0264  0.5849
  100SAPC    HA 9942   4.411   5.529   2.529  0.9965  0.9854  0.0215
  100SAPC    HB 9943   4.495   5.626   2.653 -0.2807 -2.0673  1.9628
  100SAPC    C2 9944   4.326   5.516   2.733  0.6224 -0.4009  0.3285
  100SAPC    HS 9945   4.222   5.506   2.693 -0.4826  2.2009  2.2604
  100SAPC   O21 9946   4.329   5.611   2.843  0.2104  0.1765  0.1823
  100SAPC   C21 9947   4.235   5.589   2.925 -0.1444  0.5661 -0.3433
  100SAPC   O22 9948   4.135   5.515   2.908  0.2152  0.0961  0.0746
  100SAPC   C22 9949   4.266   5.643   3.067  0.1665  0.0964  0.2842
  100SAPC   H2R 9950   4.359   5.606   3.115 -0.9640 -1.7788  1.1534
  100SAPC   H2S 9951   4.273   5.752   3.047  0.3221 -0.3404 -2.4258
  100SAPC    C3 9952   4.386   5.381   2.766 -0.2021 -0.8664  0.0839
  100SAPC    HX 9953   4.493   5.404   2.787  0.4200 -1.6488 -1.9621
  100SAPC    HY 9954   4.395   5.322   2.672  1.5668  0.1146 -0.4200
  100SAPC   O31 9955   4.311   5.318   2.874 -0.6056  1.3701 -0.5216
  100SAPC   C31 9956   4.224   5.223   2.826  0.2107  0.8456 -0.8711
  100SAPC   O32 9957   4.183   5.215   2.712  0.8888 -0.0702 -0.1764
  100SAPC   C32 9958   4.190   5.134   2.937  0.0967 -0.2498 -0.2296
  100SAPC   H2X 9959   4.281   5.076   2.964  0.3362  1.5476  3.3986
  100SAPC   H2Y 9960   4.113   5.059   2.910  0.4162 -0.3547 -0.8615
  100SAPC   C23 9961   4.146   5.625   3.167  0.0130  0.5680  1.4587
  100SAPC   H3R 9962   4.125   5.516   3.171 -1.5196  0.6753 -1.2850
  100SAPC   H3S 9963   4.051   5.672   3.131  0.7974 -0.9287 -3.2186
  100SAPC   C24 9964   4.169   5.664   3.311 -0.1539 -0.1158 -0.3778
  100SAPC   H4R 9965   4.270   5.621   3.330  0.6502  2.2355  1.2574
  100SAPC   H4S 9966   4.104   5.609   3.382  2.4605  0.0001  2.3237
  100SAPC   C25 9967   4.172   5.815   3.346  0.1064  0.2889 -0.1754
  100SAPC   H5R 9968   4.246   5.885   3.306  1.0562 -0.1734  0.7125
  100SAPC   C26 9969   4.103   5.866   3.445  0.7186 -0.2550 -0.8237
  100SAPC   H6R 9970   4.122   5.970   3.473 -2.9224  0.3697 -0.2603
  100SAPC   C27 9971   3.998   5.810   3.529 -0.1179 -0.3842  0.3317
  100SAPC   H7R 9972   4.047   5.721   3.573 -1.3653 -0.4238  1.7103
  100SAPC   H7S 9973   3.909   5.785   3.468  0.7887  0.8935 -1.6199
  100SAPC   C28 9974   3.950   5.903   3.647  0.3050  0.3601 -0.2132
  100SAPC   H8R 9975   3.981   6.008   3.648 -1.9904  1.0830 -0.7234
  100SAPC   C29 9976   3.863   5.855   3.736  0.1316  0.5546  0.5537
  100SAPC   H9R 9977   3.824   5.920   3.816  0.5959  2.2218 -0.5145
  100SAPC  C210 9978   3.800   5.713   3.729  0.9188 -0.6000 -0.3834
  100SAPC  H10R 9979   3.844   5.648   3.650  2.3567 -2.0815  1.5446
  100SAPC  H10S 9980   3.693   5.728   3.707  1.0568 -0.8194 -1.2356
  100SAPC  C211 9981   3.818   5.642   3.859  0.0690  0.5617 -0.9127
  100SAPC  H11R 9982   3.922   5.621   3.891 -0.9697 -0.3310  2.2268
  100SAPC  C212 9983   3.726   5.642   3.964  0.2496  0.6264  1.1026
  100SAPC  H12R 9984   3.777   5.615   4.058  3.5058  1.1636 -0.3868
  100SAPC  C213 9985   3.586   5.699   3.968  0.0334 -0.3538  0.3660
  100SAPC  H13R 9986   3.571   5.775   3.888  1.5850  0.1764  0.5412
  100SAPC  H13S 9987   3.566   5.738   4.070  2.6442  1.3604  0.3277
  100SAPC  C214 9988   3.496   5.584   3.944  0.1920  0.3551 -0.0709
  100SAPC  H14R 9989   3.536   5.513   3.870 -0.4248  0.2654 -0.3158
  100SAPC  C215 9990   3.374   5.562   3.994  0.4802 -0.6804  0.0807
  100SAPC  H15R 9991   3.330   5.466   3.966  0.2318 -0.4267 -0.4017
  100SAPC  C216 9992   3.289   5.653   4.085  0.4500 -0.0146 -0.6792
  100SAPC  H16R 9993   3.181   5.637   4.067  0.1326  1.7970 -0.6353
  100SAPC  H16S 9994   3.308   5.757   4.048  0.9891 -0.3598 -1.4025
  100SAPC  C217 9995   3.306   5.633   4.242  0.3101 -0.0197  0.2137
  100SAPC  H17R 9996   3.233   5.704   4.285  1.7680  1.0046  1.0831
  100SAPC  H17S 9997   3.409   5.662   4.274  0.0300  1.3694 -0.0652
  100SAPC  C218 9998   3.270   5.495   4.289  0.2845  1.0365  0.0727
  100SAPC  H18R 9999   3.358   5.433   4.264 -0.8464 -0.2214 -0.9243
  100SAPC  H18S10000   3.177   5.475   4.232 -0.0006  1.6933  0.2914
  100SAPC  C21910001   3.236   5.500   4.432  0.2234 -0.8086  0.1948
  100SAPC  H19R10002   3.167   5.583   4.457 -1.4610 -2.3574  0.9123
  100SAPC  H19S10003   3.325   5.524   4.493  0.2540 -1.4228  0.3975
  100SAPC  C22010004   3.173   5.367   4.493  0.5151 -0.2152 -0.2530
  100SAPC  H20R10005   3.158   5.385   4.601 -0.3935  0.0125 -0.4096
  100SAPC  H20S10006   3.231   5.279   4.459 -0.8612 -0.2242 -2.8218
  100SAPC  H20T10007   3.079   5.351   4.437 -0.6552  2.8149  0.6182
  100SAPC   C3310008   4.134   5.206   3.063  0.3137  0.0123 -0.2554
  100SAPC   H3X10009   4.034   5.247   3.041  0.1087  0.1640  0.9262
  100SAPC   H3Y10010   4.189   5.300   3.089 -0.5956  0.6458 -0.5853
  100SAPC   C3410011   4.105   5.109   3.177  0.3279  0.4718 -0.5228
  100SAPC   H4X10012   4.196   5.050   3.201 -0.5894 -1.1012 -0.7847
  100SAPC   H4Y10013   4.037   5.035   3.131 -0.1801  0.6915 -0.1330
  100SAPC   C3510014   4.044   5.167   3.311 -0.4953  0.3065 -0.0112
  100SAPC   H5X10015   4.013   5.080   3.371  0.6614  1.2772  2.1034
  100SAPC   H5Y10016   3.953   5.230   3.296  0.9271  2.0131 -2.1566
  100SAPC   C3610017   4.141   5.260   3.383 -0.4418 -0.2766 -0.6536
  100SAPC   H6X10018   4.195   5.336   3.322  0.4267 -0.7346 -0.4755
  100SAPC   H6Y10019   4.216   5.201   3.440  0.0283  0.5256 -0.4155
  100SAPC   C3710020   4.069   5.339   3.497 -0.2301  0.2055 -0.3475
  100SAPC   H7X10021   4.017   5.433   3.469  0.6174  2.4254  4.3729
  100SAPC   H7Y10022   4.151   5.382   3.559 -1.4511  0.5813  1.0471
  100SAPC   C3810023   3.980   5.254   3.587  0.7743  0.4274  0.0130
  100SAPC   H8X10024   4.034   5.159   3.607 -0.3828 -0.4762 -1.0038
  100SAPC   H8Y10025   3.890   5.228   3.528  0.3561  0.5770  0.5850
  100SAPC   C3910026   3.928   5.315   3.716 -0.2908 -0.1986 -0.1097
  100SAPC   H9X10027   3.856   5.397   3.696 -1.5982 -1.2050  0.3213
  100SAPC   H9Y10028   4.007   5.366   3.775 -0.9472 -0.9729  1.5039
  100SAPC  C31010029   3.865   5.213   3.811  0.6494  0.6317  0.9141
  100SAPC  H10X10030   3.943   5.135   3.823 -0.1649 -1.0187 -3.0454
  100SAPC  H10Y10031   3.782   5.166   3.754  0.0659  2.7643 -0.1048
  100SAPC  C31110032   3.799   5.272   3.938 -0.4510  0.4790  0.0484
  100SAPC  H11X10033   3.700   5.312   3.907  0.0992  1.2185 -0.8009
  100SAPC  H11Y10034   3.855   5.357   3.981 -0.1686 -0.1080  0.8619
  100SAPC  C31210035   3.784   5.172   4.054  0.0734  0.0155 -0.1234
  100SAPC  H12X10036   3.874   5.110   4.071  0.0290 -0.2395 -0.7880
  100SAPC  H12Y10037   3.713   5.095   4.016  0.4507 -0.2528 -0.2882
  100SAPC  C31310038   3.726   5.246   4.180  0.1121 -0.0461 -0.0680
  100SAPC  H13X10039   3.702   5.171   4.259  0.0814 -0.6300 -0.6197
  100SAPC  H13Y10040   3.625   5.281   4.149  0.1890  0.0857 -0.1710
  100SAPC  C31410041   3.821   5.353   4.238  0.3598  0.2154  0.3922
  100SAPC  H14X10042   3.848   5.426   4.158 -0.9393  0.6228  0.2988
  100SAPC  H14Y10043   3.903   5.288   4.276 -1.4772 -2.6547 -0.2787
  100SAPC  C31510044   3.766   5.441   4.347  0.2107  0.8626 -0.3234
  100SAPC  H15X10045   3.667   5.477   4.312 -0.8638 -0.8656  0.7712
  100SAPC  H15Y10046   3.834   5.529   4.347  0.2301  0.8552  0.7925
  100SAPC  C31610047   3.759   5.372   4.485  0.2834 -0.1995  0.4179
  100SAPC  H16X10048   3.719   5.269   4.480 -0.5673  0.1375  0.1718
  100SAPC  H16Y10049   3.692   5.427   4.555  0.2638 -2.1467  2.0076
  100SAPC  C31710050   3.889   5.374   4.564  0.3285  0.1589 -0.4869
  100SAPC  H17X10051   3.917   5.480   4.583 -1.1889  0.3302  0.9687
  100SAPC  H17Y10052   3.967   5.331   4.497 -0.0855 -0.8346 -0.3414
  100SAPC  C31810053   3.884   5.297   4.695  0.0867 -0.1646  0.1952
  100SAPC  H18X10054   3.794   5.335   4.748  0.5772  0.6867  0.4445
  100SAPC  H18Y10055   3.976   5.304   4.756  0.5401  1.4713 -0.5983
  100SAPC  H18Z10056   3.869   5.188   4.684 -1.3793  0.1674 -1.7578
  101OSM      N10057   4.544   3.117   7.117  0.3750  0.6382 -0.2774
  101OSM    C1510058   4.624   3.187   7.230  1.0581  0.9732  0.0013
  101OSM   H15A10059   4.719   3.137   7.239  0.9086  0.7308  0.2127
  101OSM   H15B10060   4.566   3.193   7.320  3.0350  0.0502  1.4128
  101OSM   H15C10061   4.652   3.288   7.201 -1.5050  1.3584 -1.4476
  101OSM    C1410062   4.496   2.989   7.185 -0.2951  0.6091  0.4795
  101OSM   H14A10063   4.580   2.927   7.208 -0.9837 -0.2864  0.6253
  101OSM   H14B10064   4.428   2.926   7.130 -0.2241 -1.3236  2.4471
  101OSM   H14C10065   4.442   3.004   7.278 -0.6285 -3.3431  1.0993
  101OSM    C1310066   4.432   3.197   7.082 -0.1691 -0.3167 -0.7410
  101OSM   H13A10067   4.459   3.289   7.032 -2.4812 -0.3070 -2.1038
  101OSM   H13B10068   4.368   3.207   7.169 -0.1510 -3.5102 -0.2218
  101OSM   H13C10069   4.369   3.150   7.009  0.2011 -0.9777 -0.6494
  101OSM    C1210070   4.638   3.076   7.005 -0.2766 -0.2462 -0.3514
  101OSM   H12A10071   4.588   3.000   6.947 -2.1281  0.2844  0.4589
  101OSM   H12B10072   4.724   3.025   7.047 -0.3321  0.1129  0.2158
  101OSM    C1110073   4.684   3.197   6.914  0.6811  0.0230 -0.1590
  101OSM   H11A10074   4.598   3.262   6.887  0.6136  1.5341  3.1739
  101OSM   H11B10075   4.722   3.154   6.819  3.6846  0.6141  0.6511
  101OSM      P10076   4.809   3.415   6.971 -0.2729  0.2079  0.2718
  101OSM    O1310077   4.733   3.478   7.076 -0.7845 -0.0930 -0.1141
  101OSM    O1410078   4.954   3.444   6.966 -0.2102 -0.5087 -0.3390
  101OSM    O1110079   4.747   3.460   6.832 -0.0682  0.1233  0.5609
  101OSM    O1210080   4.791   3.270   6.975  0.6273  0.8029  0.1699
  101OSM    C1S10081   4.810   3.409   6.706  0.6056 -0.3391 -0.7533
  101OSM    H1S10082   4.747   3.327   6.669  0.0286 -0.7741  1.0614
  101OSM    H1T10083   4.916   3.378   6.722  0.5334 -0.0075  0.5453
  101OSM     NF10084   4.850   3.442   6.466 -0.0901  0.0426 -0.3042
  101OSM    HNF10085   4.926   3.488   6.420 -0.4565  1.5573  0.5556
  101OSM    C2S10086   4.801   3.501   6.587  0.4437 -0.0749 -0.4038
  101OSM    H2S10087   4.696   3.533   6.572  0.4414  0.7754  1.2183
  101OSM    C3S10088   4.866   3.639   6.620  0.1031  0.0893  0.5876
  101OSM    H3S10089   4.965   3.637   6.670 -0.0469  0.7838  0.9251
  101OSM     O310090   4.778   3.716   6.715  0.5116  0.9437 -0.3437
  101OSM    HO310091   4.715   3.653   6.752 -0.2542  1.3284 -0.9653
  101OSM    C4S10092   4.881   3.729   6.493 -0.3201 -0.0585 -0.2645
  101OSM    H4S10093   4.978   3.702   6.449 -0.0237 -2.0538  1.4411
  101OSM    C5S10094   4.815   3.847   6.453  0.3512  0.0772  0.7037
  101OSM    H5S10095   4.724   3.876   6.508 -1.0318 -2.2797 -0.1772
  101OSM    C6S10096   4.849   3.924   6.325  0.1283  0.1845  0.0965
  101OSM    H6S10097   4.949   3.891   6.290 -0.7975  0.3443 -2.9977
  101OSM    H6T10098   4.858   4.033   6.346 -2.4742  0.5667 -0.4658
  101OSM    C7S10099   4.752   3.914   6.210  0.5041  0.0072 -0.1739
  101OSM    H7S10100   4.646   3.946   6.217  0.5572 -0.1446  2.2391
  101OSM    H7T10101   4.740   3.806   6.187 -0.6123  0.2965 -1.0038
  101OSM    C8S10102   4.808   3.999   6.097  0.4969  1.0330  0.1211
  101OSM    H8S10103   4.918   4.011   6.097  0.7523 -0.8430 -0.4371
  101OSM    H8T10104   4.755   4.095   6.112 -3.7371 -1.0633 -0.0399
  101OSM    C9S10105   4.759   3.955   5.956  0.1276 -0.5265  0.0160
  101OSM    H9S10106   4.648   3.945   5.950  0.0814 -0.1098  0.1309
  101OSM    H9T10107   4.817   3.862   5.942  3.4441  1.4539 -0.3272
  101OSM   C10S10108   4.795   4.055   5.847  0.1454  0.1271 -0.4975
  101OSM   H10S10109   4.904   4.075   5.853  0.3234 -0.7355 -0.7203
  101OSM   H10T10110   4.752   4.155   5.871  2.6672  1.1918 -0.0867
  101OSM   C11S10111   4.756   4.012   5.706 -0.3323 -0.1765 -0.6310
  101OSM   H11S10112   4.652   3.973   5.713 -0.1838 -0.5099 -0.2269
  101OSM   H11T10113   4.823   3.930   5.672  0.0689  0.3911 -1.2222
  101OSM   C12S10114   4.746   4.122   5.598  0.1322 -0.7757  0.2775
  101OSM   H12S10115   4.676   4.197   5.640 -0.7622 -2.8605  2.8212
  101OSM   H12T10116   4.695   4.076   5.511  0.2150 -1.4439  0.5723
  101OSM   C13S10117   4.877   4.188   5.556  0.3085 -0.1979 -0.3516
  101OSM   H13S10118   4.937   4.190   5.649  1.5133 -1.2455 -1.0767
  101OSM   H13T10119   4.874   4.287   5.506  0.0910 -0.2463 -0.4395
  101OSM   C14S10120   4.950   4.090   5.456  0.2811 -0.1089 -0.6449
  101OSM   H14S10121   4.931   3.983   5.476  2.6120 -0.5375 -0.4193
  101OSM   H14T10122   5.061   4.099   5.459  0.3946 -1.4391 -0.3676
  101OSM   C15S10123   4.905   4.124   5.309 -0.1055  0.0111 -0.4616
  101OSM   H15S10124   4.911   4.235   5.300  0.9361  0.3539  3.0532
  101OSM   H15T10125   4.800   4.087   5.310  0.1872 -0.8300 -0.0227
  101OSM   C16S10126   4.955   4.035   5.200 -0.6844  0.1983 -0.9752
  101OSM   H16S10127   4.906   3.937   5.218 -3.3713  1.0637 -2.8965
  101OSM   H16T10128   5.064   4.018   5.214 -0.2468  2.6677 -0.9519
  101OSM   C17S10129   4.920   4.071   5.055  0.1520 -0.6192  0.0062
  101OSM   H17S10130   4.809   4.069   5.046 -0.2148 -0.9209  3.3122
  101OSM   H17T10131   4.947   3.984   4.991  0.5474 -1.7843  1.6819
  101OSM   C18S10132   4.978   4.204   5.000 -0.3707  0.0203 -0.3989
  101OSM   H18S10133   4.982   4.207   4.889 -0.0142  2.4994 -0.3610
  101OSM   H18T10134   5.079   4.237   5.033 -0.6611  0.9632 -0.4180
  101OSM   H18U10135   4.912   4.288   5.029  0.8164  0.9145 -0.2049
  101OSM    C1F10136   4.789   3.334   6.407 -0.1761 -0.2330  0.5014
  101OSM     OF10137   4.679   3.301   6.446 -0.7719  0.1392 -0.5399
  101OSM    C2F10138   4.860   3.262   6.299  0.7291  0.0686  1.1935
  101OSM    H2F10139   4.966   3.264   6.332  0.6847 -0.6350  1.3933
  101OSM    H2G10140   4.838   3.320   6.207  1.5473 -3.1320 -1.1724
  101OSM    C3F10141   4.811   3.121   6.286  0.1105 -0.1135  0.6936
  101OSM    H3F10142   4.700   3.114   6.280 -0.0076  0.5289  1.8634
  101OSM    H3G10143   4.853   3.081   6.380 -2.1404  1.2058  2.3761
  101OSM    C4F10144   4.890   3.059   6.168  0.8807  0.0792  0.6405
  101OSM    H4F10145   4.925   2.958   6.196  1.6763 -0.1949 -1.1873
  101OSM    H4G10146   4.987   3.111   6.151  1.1109 -0.9406 -1.3962
  101OSM    C5F10147   4.825   3.064   6.024 -0.3142 -0.0848  0.1056
  101OSM    H5F10148   4.846   3.165   5.984 -0.4130 -0.4578 -0.9149
  101OSM    H5G10149   4.715   3.056   6.036 -0.2999  0.0369  0.3199
  101OSM    C6F10150   4.866   2.960   5.923  0.9710 -0.2753 -0.2862
  101OSM    H6F10151   4.881   2.863   5.974  1.8922  0.4876  0.9276
  101OSM    H6G10152   4.966   2.983   5.880  1.1179  0.4489  0.4224
  101OSM    C7F10153   4.766   2.937   5.813 -0.1667 -0.1299  0.0084
  101OSM    H7F10154   4.679   2.892   5.864  1.2346 -4.4623 -1.0260
  101OSM    H7G10155   4.814   2.861   5.748  1.1356 -1.0945  1.9854
  101OSM    C8F10156   4.708   3.068   5.747  0.0764 -0.2565  0.5055
  101OSM    H8F10157   4.668   3.137   5.824 -0.5652  1.6601 -1.4207
  101OSM    H8G10158   4.623   3.034   5.682  0.6853  0.0374 -0.4699
  101OSM    C9F10159   4.822   3.132   5.675 -0.4427 -0.2173  0.0569
  101OSM    H9F10160   4.903   3.173   5.737  1.7365 -1.3062 -1.9012
  101OSM   C10F10161   4.850   3.106   5.544 -0.6119  0.0770  0.5055
  101OSM   H10F10162   4.938   3.152   5.498 -1.0370  0.4635  0.0707
  101OSM   C11F10163   4.771   3.029   5.444 -0.0024 -0.4812  0.0673
  101OSM   H11F10164   4.689   2.963   5.479 -0.7581  0.0296 -0.6886
  101OSM   H11G10165   4.837   2.964   5.382  1.0325  0.6888 -0.1061
  101OSM   C12F10166   4.692   3.119   5.341 -0.1622 -0.3043 -0.2599
  101OSM   H12F10167   4.761   3.197   5.301 -0.9981 -0.8262 -2.9196
  101OSM   H12G10168   4.614   3.165   5.405  0.4189 -1.9459  1.7409
  101OSM   C13F10169   4.627   3.030   5.225  0.4337  0.1539 -0.2105
  101OSM   H13F10170   4.530   3.070   5.189  0.2971 -0.4824 -0.5692
  101OSM   H13G10171   4.603   2.941   5.288 -1.8340  1.1536  0.4544
  101OSM   C14F10172   4.727   3.000   5.111  0.2296 -0.3835  0.6852
  101OSM   H14F10173   4.695   2.905   5.065  0.8123  0.2272 -1.0677
  101OSM   H14G10174   4.827   2.988   5.158  0.2539  2.0659  1.3861
  101OSM   C15F10175   4.741   3.102   5.003  0.9220 -0.0118  0.6350
  101OSM   H15F10176   4.815   3.090   4.921  1.6600 -1.7062  1.5080
  101OSM   H15G10177   4.778   3.195   5.053  0.9185  1.9906 -2.7805
  101OSM   C16F10178   4.605   3.140   4.935  0.0977 -0.1515  0.3327
  101OSM   H16F10179   4.518   3.128   5.004 -0.1943 -2.2868 -0.3341
  101OSM   H16G10180   4.589   3.060   4.860  0.2725 -1.9194  2.1184
  101OSM   C17F10181   4.604   3.278   4.872  0.5993 -0.0485 -0.5393
  101OSM   H17F10182   4.674   3.275   4.786 -0.2699 -0.4712 -1.2580
  101OSM   H17G10183   4.638   3.343   4.955 -1.9818  0.4187  0.2574
  101OSM   C18F10184   4.476   3.337   4.809  0.2069  0.7915 -0.6613
  101OSM   H18F10185   4.393   3.325   4.882  1.2644 -2.5459  0.1666
  101OSM   H18G10186   4.439   3.275   4.724  0.8528 -2.0705  1.0113
  101OSM   H18H10187   4.496   3.442   4.777 -1.7503  1.3359 -0.2137
  102OSM      N10188   6.051   3.467   7.010 -0.2135  0.0725  0.2147
  102OSM    C1510189   6.153   3.575   6.979 -0.5515 -0.0302  0.1776
  102OSM   H15A10190   6.140   3.609   6.878  1.5703  2.3726  0.6081
  102OSM   H15B10191   6.250   3.534   7.000 -0.9906 -1.3613 -0.3185
  102OSM   H15C10192   6.134   3.657   7.048 -0.2554 -1.1611  1.6419
  102OSM    C1410193   6.078   3.412   7.150 -1.0044  0.0080  0.7899
  102OSM   H14A10194   6.184   3.416   7.173 -0.6564 -2.0963 -0.2153
  102OSM   H14B10195   6.026   3.318   7.164 -2.1544  0.6425  0.8639
  102OSM   H14C10196   6.026   3.487   7.207 -1.3784  0.2301  0.1710
  102OSM    C1310197   5.908   3.522   7.011 -0.2253 -0.0741  0.1571
  102OSM   H13A10198   5.897   3.598   7.087  0.8399 -0.8610  1.1379
  102OSM   H13B10199   5.845   3.440   7.042  1.2439 -0.8111  1.3383
  102OSM   H13C10200   5.887   3.558   6.912  1.8212  0.1527 -0.2426
  102OSM    C1210201   6.060   3.372   6.895  0.7511  0.2743 -0.4623
  102OSM   H12A10202   6.161   3.334   6.890  0.6951  0.2891 -2.0377
  102OSM   H12B10203   6.046   3.431   6.806  0.7196 -1.4038 -1.6128
  102OSM    C1110204   5.970   3.254   6.894  0.5939  1.1839  0.6477
  102OSM   H11A10205   5.993   3.209   6.993 -1.0395  0.8288  0.8845
  102OSM   H11B10206   6.003   3.165   6.836  0.8725  2.7173 -1.7107
  102OSM      P10207   5.722   3.184   6.902 -0.2368 -0.1769 -0.0350
  102OSM    O1310208   5.779   3.082   6.997 -0.5560  0.7920 -0.2628
  102OSM    O1410209   5.599   3.255   6.943 -0.5201  0.0362 -0.3869
  102OSM    O1110210   5.702   3.114   6.760  0.0747 -0.1157 -0.1032
  102OSM    O1210211   5.835   3.290   6.870  0.1966 -0.3165  0.1556
  102OSM    C1S10212   5.607   3.156   6.661  0.1521  0.0667  0.2881
  102OSM    H1S10213   5.619   3.266   6.649  0.2233  0.0040 -0.2428
  102OSM    H1T10214   5.502   3.142   6.693 -0.2028  0.7689 -0.5296
  102OSM     NF10215   5.581   3.144   6.414 -0.3145  0.1228  1.0937
  102OSM    HNF10216   5.506   3.102   6.362  0.0685  0.0245  0.6141
  102OSM    C2S10217   5.627   3.076   6.532  0.2083 -0.1357  0.0299
  102OSM    H2S10218   5.736   3.057   6.523  0.1118 -1.8539  1.9559
  102OSM    C3S10219   5.565   2.936   6.555 -0.4878 -0.5852 -0.2290
  102OSM    H3S10220   5.456   2.940   6.579 -0.4028  2.5525  0.0415
  102OSM     O310221   5.622   2.870   6.670  0.4674  0.3193 -0.0858
  102OSM    HO310222   5.651   2.944   6.724  0.8513  0.0988  0.0114
  102OSM    C4S10223   5.589   2.842   6.438 -0.3174 -0.2279 -0.1379
  102OSM    H4S10224   5.514   2.827   6.359 -2.2401 -1.5370  1.8266
  102OSM    C5S10225   5.715   2.785   6.419  0.0086 -0.4668 -0.1363
  102OSM    H5S10226   5.802   2.820   6.477 -0.9190 -0.1062  1.0704
  102OSM    C6S10227   5.742   2.720   6.287 -0.2074  0.5744 -0.0723
  102OSM    H6S10228   5.842   2.758   6.259  0.1574  1.5544  2.2793
  102OSM    H6T10229   5.674   2.751   6.205 -0.6377 -0.2393 -0.0393
  102OSM    C7S10230   5.734   2.568   6.292 -0.1079  0.3943 -0.5436
  102OSM    H7S10231   5.628   2.541   6.275 -0.9391  3.1879 -0.3396
  102OSM    H7T10232   5.776   2.533   6.388  2.9145 -0.3652 -2.0133
  102OSM    C8S10233   5.816   2.490   6.190  0.2336 -0.5517 -0.1225
  102OSM    H8S10234   5.843   2.390   6.231 -2.5530 -1.8213 -1.1327
  102OSM    H8T10235   5.916   2.535   6.174  0.7166 -0.6821  2.1045
  102OSM    C9S10236   5.748   2.499   6.049  0.7341 -0.4095  0.2506
  102OSM    H9S10237   5.704   2.601   6.039  1.0596 -0.1993  0.8845
  102OSM    H9T10238   5.664   2.426   6.053  0.7460 -0.4156  0.3980
  102OSM   C10S10239   5.847   2.482   5.934  0.2695  0.0670  0.3989
  102OSM   H10S10240   5.799   2.473   5.834  1.0311 -2.3299  0.1950
  102OSM   H10T10241   5.911   2.392   5.945  1.3861  0.4732 -2.0813
  102OSM   C11S10242   5.938   2.610   5.923 -0.0714  0.7651 -0.2716
  102OSM   H11S10243   6.023   2.598   5.994  1.4484  2.3486 -1.7420
  102OSM   H11T10244   5.889   2.696   5.974 -0.5644 -0.1964  0.9372
  102OSM   C12S10245   5.994   2.643   5.782 -0.0835 -0.1242  0.4246
  102OSM   H12S10246   5.924   2.681   5.705 -0.7050  1.7542  1.8500
  102OSM   H12T10247   6.044   2.548   5.751 -0.5240 -0.9052  2.0279
  102OSM   C13S10248   6.113   2.746   5.780  0.0309  0.1676 -0.2356
  102OSM   H13S10249   6.154   2.744   5.883  2.3309 -0.4392 -1.1094
  102OSM   H13T10250   6.073   2.843   5.743 -1.1388 -0.7491 -1.4742
  102OSM   C14S10251   6.212   2.702   5.674  0.3881 -0.2160 -0.3382
  102OSM   H14S10252   6.160   2.690   5.576 -0.9463 -3.1094  0.6105
  102OSM   H14T10253   6.249   2.604   5.711  0.2927  0.6714  2.2452
  102OSM   C15S10254   6.327   2.797   5.650 -0.2448 -0.1821  1.3125
  102OSM   H15S10255   6.355   2.846   5.745 -0.4532  0.9828  0.7959
  102OSM   H15T10256   6.277   2.874   5.586 -1.1316 -2.3250 -0.7262
  102OSM   C16S10257   6.451   2.734   5.589  0.3886  0.1158 -0.2060
  102OSM   H16S10258   6.422   2.671   5.502  0.2346 -1.0192  0.6466
  102OSM   H16T10259   6.495   2.681   5.676  0.4697  1.3539  0.5418
  102OSM   C17S10260   6.554   2.836   5.547 -0.1768 -0.7033  0.0646
  102OSM   H17S10261   6.575   2.900   5.635 -0.4728 -1.4745  0.7173
  102OSM   H17T10262   6.513   2.902   5.468  0.4407 -2.4869 -1.8481
  102OSM   C18S10263   6.679   2.763   5.507  0.2077 -0.7990 -0.8784
  102OSM   H18S10264   6.716   2.693   5.585  1.8961  0.8989 -0.0956
  102OSM   H18T10265   6.757   2.840   5.493 -0.3036 -0.1056  0.0187
  102OSM   H18U10266   6.665   2.718   5.406 -1.3288  0.1707 -1.1211
  102OSM    C1F10267   5.641   3.260   6.376 -0.5008 -0.5659 -0.5679
  102OSM     OF10268   5.733   3.306   6.439  0.0901 -0.2707  0.2643
  102OSM    C2F10269   5.587   3.325   6.255  0.6262 -0.1726  0.1548
  102OSM    H2F10270   5.526   3.412   6.287  1.4137  0.1157  0.8949
  102OSM    H2G10271   5.504   3.266   6.209 -0.5695  1.3505  0.2918
  102OSM    C3F10272   5.693   3.367   6.155 -0.1882 -0.0739  0.6980
  102OSM    H3F10273   5.753   3.282   6.115  0.5939 -0.7574  3.1707
  102OSM    H3G10274   5.756   3.450   6.193 -0.7128 -0.1722  1.8066
  102OSM    C4F10275   5.627   3.417   6.021  0.1233  0.3028  0.5008
  102OSM    H4F10276   5.546   3.344   5.997  1.1016  0.5339 -4.3303
  102OSM    H4G10277   5.700   3.419   5.938  0.4133  1.9152  0.7672
  102OSM    C5F10278   5.579   3.558   6.035  0.6070  0.2111 -0.2198
  102OSM    H5F10279   5.640   3.602   6.117  0.0959  2.0548 -0.7840
  102OSM    H5G10280   5.472   3.547   6.061  0.9907 -0.3213  1.2179
  102OSM    C6F10281   5.595   3.650   5.911  0.1217 -0.7689 -0.2351
  102OSM    H6F10282   5.699   3.652   5.873  0.4305 -0.3736  0.6036
  102OSM    H6G10283   5.555   3.747   5.949 -0.8742 -1.6635  1.1219
  102OSM    C7F10284   5.514   3.611   5.788  0.5407  0.2652 -1.0106
  102OSM    H7F10285   5.410   3.604   5.826  1.2882 -3.8648  0.8039
  102OSM    H7G10286   5.541   3.507   5.760 -1.7636 -1.3738  2.2843
  102OSM    C8F10287   5.524   3.707   5.664 -0.1257  0.2039  0.6381
  102OSM    H8F10288   5.519   3.816   5.682 -1.4125  0.0668  1.2381
  102OSM    H8G10289   5.432   3.677   5.611  0.4973  0.3579 -0.5552
  102OSM    C9F10290   5.649   3.676   5.580 -0.0239  0.8655 -0.1818
  102OSM    H9F10291   5.743   3.680   5.637  0.4322 -0.4015 -0.7996
  102OSM   C10F10292   5.653   3.635   5.450 -0.1235  0.3162  0.8034
  102OSM   H10F10293   5.746   3.624   5.392 -0.2462  3.3777 -0.1125
  102OSM   C11F10294   5.540   3.595   5.359 -0.5752  1.0692  0.0837
  102OSM   H11F10295   5.544   3.663   5.272  2.4444  1.0197  0.0877
  102OSM   H11G10296   5.441   3.604   5.410 -0.2188  0.2244  0.9590
  102OSM   C12F10297   5.563   3.450   5.306  0.4433  0.9207 -0.7380
  102OSM   H12F10298   5.469   3.421   5.254 -0.1018  0.5500  0.4165
  102OSM   H12G10299   5.576   3.376   5.389 -0.0463 -1.0511 -2.3241
  102OSM   C13F10300   5.683   3.438   5.208  0.7594 -0.7691  0.1559
  102OSM   H13F10301   5.782   3.461   5.254  0.6001  3.3951 -1.0971
  102OSM   H13G10302   5.661   3.520   5.136  0.7958 -0.8859  0.0127
  102OSM   C14F10303   5.685   3.303   5.136  0.0530 -0.3539 -0.1972
  102OSM   H14F10304   5.577   3.279   5.131 -1.2570  4.5494 -0.3222
  102OSM   H14G10305   5.733   3.216   5.185 -0.6162 -1.0085 -0.6703
  102OSM   C15F10306   5.738   3.312   4.990 -0.5315 -0.8199  0.6260
  102OSM   H15F10307   5.840   3.353   4.973 -0.9345 -0.2049 -0.3631
  102OSM   H15G10308   5.668   3.381   4.939  0.5195 -1.8968 -2.4943
  102OSM   C16F10309   5.720   3.175   4.917  0.5230  0.1625  0.3465
  102OSM   H16F10310   5.771   3.089   4.963 -1.5129 -1.8563 -0.9495
  102OSM   H16G10311   5.782   3.188   4.826 -0.3106  0.9894 -0.1308
  102OSM   C17F10312   5.572   3.139   4.876 -0.4031 -0.0339 -0.1568
  102OSM   H17F10313   5.525   3.206   4.800 -1.2161 -1.4035 -0.9120
  102OSM   H17G10314   5.526   3.126   4.976  1.1876 -2.2187  0.3538
  102OSM   C18F10315   5.578   3.004   4.804 -0.2416  0.0883  0.7626
  102OSM   H18F10316   5.590   2.920   4.875  2.6098  0.8129  1.2697
  102OSM   H18G10317   5.669   3.001   4.740 -0.4378 -0.1117  0.4930
  102OSM   H18H10318   5.486   2.999   4.742 -0.1830  1.4076  0.5369
  103OSM      N10319   3.468   4.112   7.455 -0.0030  0.3247  0.4737
  103OSM    C1510320   3.365   4.220   7.466 -0.2138 -1.0965  0.2275
  103OSM   H15A10321   3.329   4.227   7.568 -2.5290  1.0593 -0.6307
  103OSM   H15B10322   3.274   4.193   7.414 -0.8316  1.2682 -0.0487
  103OSM   H15C10323   3.402   4.317   7.436 -0.0131 -1.4821 -0.8130
  103OSM    C1410324   3.585   4.171   7.521  0.3487  0.3481 -0.0249
  103OSM   H14A10325   3.593   4.277   7.502 -1.1972  0.2730 -1.3780
  103OSM   H14B10326   3.679   4.121   7.504  0.0942 -0.8598  1.8902
  103OSM   H14C10327   3.580   4.165   7.628  1.6678  1.0804  0.0931
  103OSM    C1310328   3.420   3.986   7.522  0.7366  0.3027  0.2601
  103OSM   H13A10329   3.343   3.938   7.463  1.1504  0.7163 -0.6311
  103OSM   H13B10330   3.378   4.013   7.618 -0.1725 -1.1220  0.2966
  103OSM   H13C10331   3.504   3.920   7.537  1.3657  0.4848 -2.1226
  103OSM    C1210332   3.506   4.080   7.311 -0.2400  0.4549 -0.0304
  103OSM   H12A10333   3.589   4.011   7.309 -1.0213 -0.5085 -0.8971
  103OSM   H12B10334   3.537   4.165   7.253  0.4181  0.2236 -0.0205
  103OSM    C1110335   3.404   4.012   7.219  0.2447 -0.4018 -0.2689
  103OSM   H11A10336   3.454   3.991   7.122  0.5220  1.1390 -0.4843
  103OSM   H11B10337   3.329   4.086   7.181  1.7962  0.4647 -1.7960
  103OSM      P10338   3.423   3.750   7.253 -0.4848 -0.1010 -0.1319
  103OSM    O1310339   3.569   3.769   7.240  0.1813  0.1880  0.4676
  103OSM    O1410340   3.381   3.669   7.365 -0.2635 -0.0336  0.3672
  103OSM    O1110341   3.357   3.687   7.117 -0.0816 -0.0566 -0.0950
  103OSM    O1210342   3.346   3.893   7.269 -0.3183 -0.0466  0.3648
  103OSM    C1S10343   3.321   3.741   6.988  0.0021  0.0939  0.1917
  103OSM    H1S10344   3.287   3.846   6.996 -0.3099 -0.0283  0.4707
  103OSM    H1T10345   3.227   3.691   6.956 -1.3307  0.0821  3.6931
  103OSM     NF10346   3.388   3.805   6.752 -0.0203 -0.4333  0.1273
  103OSM    HNF10347   3.344   3.752   6.679 -0.1291 -0.9102  0.5355
  103OSM    C2S10348   3.424   3.726   6.872 -0.7730  0.2926 -0.3095
  103OSM    H2S10349   3.517   3.771   6.914  0.1655 -0.3135 -1.6542
  103OSM    C3S10350   3.456   3.575   6.851 -0.5757  0.4280  0.3303
  103OSM    H3S10351   3.361   3.529   6.817  0.7196 -0.0813 -2.9842
  103OSM     O310352   3.496   3.502   6.968 -0.1177  0.3367  0.6433
  103OSM    HO310353   3.498   3.564   7.040 -0.1208 -0.3742  1.2707
  103OSM    C4S10354   3.566   3.556   6.754 -0.4977  0.5870 -0.3741
  103OSM    H4S10355   3.667   3.568   6.797 -0.2889 -1.2733 -0.2436
  103OSM    C5S10356   3.550   3.528   6.623  0.4848  0.9399  0.4535
  103OSM    H5S10357   3.449   3.493   6.595  0.6475  0.4700  0.4448
  103OSM    C6S10358   3.657   3.537   6.515 -0.4249 -0.4919 -0.7294
  103OSM    H6S10359   3.691   3.439   6.475 -0.4168 -0.9083  0.2497
  103OSM    H6T10360   3.742   3.582   6.571 -2.1023  1.1376  0.6414
  103OSM    C7S10361   3.619   3.631   6.397 -0.0582  0.4966 -0.1023
  103OSM    H7S10362   3.714   3.661   6.346 -0.7774  0.6297 -1.4008
  103OSM    H7T10363   3.587   3.725   6.446  0.9690  0.6513  0.3181
  103OSM    C8S10364   3.521   3.571   6.303  0.3169  0.4291 -0.5214
  103OSM    H8S10365   3.434   3.540   6.364 -1.2622  1.7486 -1.9783
  103OSM    H8T10366   3.562   3.479   6.258 -0.4756  1.0828 -2.7140
  103OSM    C9S10367   3.484   3.668   6.191 -0.2362  0.0948  0.0916
  103OSM    H9S10368   3.577   3.698   6.139  0.4937 -2.2232 -0.0227
  103OSM    H9T10369   3.436   3.760   6.233 -0.4853  0.7681 -1.5867
  103OSM   C10S10370   3.384   3.621   6.089 -0.3164  1.0659  0.2112
  103OSM   H10S10371   3.289   3.586   6.136  0.0466 -0.7271 -0.3024
  103OSM   H10T10372   3.427   3.521   6.066  1.1374  2.1605 -2.2281
  103OSM   C11S10373   3.376   3.704   5.962  0.3953  0.0686 -0.0282
  103OSM   H11S10374   3.479   3.720   5.923  1.3278 -1.9856  1.4338
  103OSM   H11T10375   3.328   3.801   5.989  0.4900 -0.6487  2.9532
  103OSM   C12S10376   3.286   3.638   5.863 -0.4208 -0.4235 -0.6718
  103OSM   H12S10377   3.192   3.617   5.918 -1.3177  0.2485 -1.9310
  103OSM   H12T10378   3.340   3.541   5.850 -2.3030 -1.2617 -2.7404
  103OSM   C13S10379   3.274   3.713   5.729 -0.0062  0.0395  0.8934
  103OSM   H13S10380   3.203   3.799   5.737  1.2591  1.5471 -2.2938
  103OSM   H13T10381   3.211   3.651   5.662  0.6126 -1.2799  1.5077
  103OSM   C14S10382   3.400   3.772   5.662  0.0463  0.6527 -0.6232
  103OSM   H14S10383   3.464   3.685   5.636  1.0827  0.8818  1.0134
  103OSM   H14T10384   3.463   3.822   5.739 -0.6550 -2.4679  2.2174
  103OSM   C15S10385   3.379   3.851   5.528 -0.3257 -0.2826  0.1568
  103OSM   H15S10386   3.311   3.936   5.553 -2.4050 -0.9035 -2.8447
  103OSM   H15T10387   3.325   3.783   5.459 -0.2142 -0.8528  0.6201
  103OSM   C16S10388   3.500   3.884   5.453  0.1373  0.5071  0.2226
  103OSM   H16S10389   3.555   3.792   5.426  1.4619  1.0994  0.7916
  103OSM   H16T10390   3.576   3.940   5.512  1.9297 -1.8348  0.2628
  103OSM   C17S10391   3.464   3.975   5.332  0.2043  0.3152 -0.3473
  103OSM   H17S10392   3.415   4.073   5.351 -0.0480 -0.0541  1.0027
  103OSM   H17T10393   3.384   3.927   5.271  0.0913 -3.1533  2.2635
  103OSM   C18S10394   3.584   3.989   5.237 -0.9144  0.2979  0.0018
  103OSM   H18S10395   3.551   4.009   5.133  0.6012  4.0885  0.0856
  103OSM   H18T10396   3.640   3.893   5.226  0.8151  1.4403 -1.8093
  103OSM   H18U10397   3.645   4.078   5.261 -0.0632 -0.8288  2.3120
  103OSM    C1F10398   3.402   3.944   6.755  1.1966  0.2520  0.1285
  103OSM     OF10399   3.452   4.002   6.847  0.0120 -0.1418 -0.1770
  103OSM    C2F10400   3.334   4.013   6.639  0.4366 -0.1240  0.0754
  103OSM    H2F10401   3.242   4.059   6.681 -0.1905  0.0808 -1.4825
  103OSM    H2G10402   3.311   3.943   6.556 -2.0316  1.7052 -0.8995
  103OSM    C3F10403   3.431   4.118   6.580 -0.2505  0.8970  0.4209
  103OSM    H3F10404   3.521   4.075   6.532 -0.6277 -1.5307  1.7423
  103OSM    H3G10405   3.471   4.187   6.657 -0.6653  0.5629  0.9366
  103OSM    C4F10406   3.362   4.212   6.474 -0.4663  0.0587 -0.0874
  103OSM    H4F10407   3.431   4.296   6.452 -0.1209  0.5012  2.3725
  103OSM    H4G10408   3.274   4.251   6.530 -0.9087 -0.7304 -0.2130
  103OSM    C5F10409   3.326   4.127   6.354  0.3096  0.1418  0.1337
  103OSM    H5F10410   3.249   4.056   6.390  0.3939  0.5852  1.2320
  103OSM    H5G10411   3.414   4.070   6.314  0.7648  1.7577 -1.2899
  103OSM    C6F10412   3.268   4.206   6.234  0.2406 -0.2067  0.0717
  103OSM    H6F10413   3.347   4.277   6.201  0.3957  0.0668  1.0076
  103OSM    H6G10414   3.189   4.272   6.276 -0.5620 -0.7084 -0.6087
  103OSM    C7F10415   3.206   4.115   6.124  0.1420 -0.4070 -0.2690
  103OSM    H7F10416   3.107   4.083   6.164  0.5948 -0.7118  0.6159
  103OSM    H7G10417   3.271   4.026   6.118 -0.2059 -0.6616 -0.3078
  103OSM    C8F10418   3.178   4.189   5.996 -0.3350 -0.6179 -0.8313
  103OSM    H8F10419   3.277   4.226   5.961  0.4540  0.7637  2.4919
  103OSM    H8G10420   3.105   4.269   6.018 -0.4428 -0.8257 -0.4231
  103OSM    C9F10421   3.124   4.091   5.891  0.1641 -0.7563  0.4378
  103OSM    H9F10422   3.078   4.006   5.944  0.3935  0.8079  3.4001
  103OSM   C10F10423   3.143   4.076   5.753  0.4231 -0.6034  0.0322
  103OSM   H10F10424   3.094   3.997   5.695  0.7073  0.2575 -1.4373
  103OSM   C11F10425   3.210   4.180   5.666 -0.0001 -0.5655 -0.4156
  103OSM   H11F10426   3.304   4.158   5.612  0.1244  0.7692 -0.7803
  103OSM   H11G10427   3.240   4.268   5.727 -1.0042  0.6957 -1.6512
  103OSM   C12F10428   3.106   4.215   5.554  0.2124  0.2537  0.1245
  103OSM   H12F10429   3.133   4.312   5.507  1.6916 -0.4828 -0.6206
  103OSM   H12G10430   3.007   4.219   5.604  0.8927 -0.4886  1.5678
  103OSM   C13F10431   3.110   4.116   5.439  0.1629 -0.8057 -0.8682
  103OSM   H13F10432   3.072   4.016   5.470  0.9505 -0.9951 -0.4767
  103OSM   H13G10433   3.216   4.101   5.408  0.8413  0.8963  0.4474
  103OSM   C14F10434   3.032   4.160   5.310  0.2244 -0.1714 -0.1539
  103OSM   H14F10435   3.070   4.255   5.266  1.4369 -0.7027 -0.2939
  103OSM   H14G10436   2.926   4.185   5.329  0.5515  3.7568 -2.5262
  103OSM   C15F10437   3.029   4.052   5.206  0.2665  0.0397 -0.1352
  103OSM   H15F10438   2.990   3.953   5.239 -1.1990  0.5005 -0.4021
  103OSM   H15G10439   3.131   4.025   5.173  0.0888 -0.3340 -0.3937
  103OSM   C16F10440   2.942   4.100   5.097 -0.5042  0.3465 -0.0486
  103OSM   H16F10441   2.981   4.194   5.051  0.8270 -1.8464 -3.8455
  103OSM   H16G10442   2.837   4.113   5.131 -0.6313  0.5594 -0.5068
  103OSM   C17F10443   2.944   4.003   4.978  0.6204 -0.0748 -0.3915
  103OSM   H17F10444   2.909   3.903   5.012  2.9999 -1.5060 -1.8761
  103OSM   H17G10445   3.051   3.980   4.959  1.0516  0.2032  1.4784
  103OSM   C18F10446   2.862   4.043   4.854 -0.1742  0.8562 -0.0841
  103OSM   H18F10447   2.912   4.133   4.814 -0.0529 -0.4895 -3.2485
  103OSM   H18G10448   2.757   4.063   4.884 -0.3647 -0.6011  0.3070
  103OSM   H18H10449   2.868   3.966   4.774 -0.3713  0.6994  0.0484
  104OSM      N10450   4.159   4.457   7.435  0.1713  0.2995 -0.4612
  104OSM    C1510451   4.024   4.469   7.504  0.2549 -0.0969  0.9575
  104OSM   H15A10452   4.036   4.483   7.611 -1.5975 -1.7286  1.4430
  104OSM   H15B10453   3.979   4.371   7.490  2.1318 -0.7056 -1.6031
  104OSM   H15C10454   3.969   4.550   7.460 -0.9491 -0.1294  2.3116
  104OSM    C1410455   4.249   4.574   7.471 -0.2181  0.1806 -0.0698
  104OSM   H14A10456   4.301   4.558   7.564  0.8735 -0.5008 -0.7857
  104OSM   H14B10457   4.202   4.669   7.493  1.0471  0.7230  0.3582
  104OSM   H14C10458   4.323   4.594   7.395  0.2408  0.5885  0.4776
  104OSM    C1310459   4.221   4.335   7.481 -0.5100 -0.2171  0.1739
  104OSM   H13A10460   4.227   4.322   7.588 -0.4260 -1.1451  0.0683
  104OSM   H13B10461   4.319   4.333   7.436 -0.2450  0.2711  0.7197
  104OSM   H13C10462   4.170   4.247   7.446  1.3811 -0.4590 -2.1778
  104OSM    C1210463   4.149   4.456   7.278 -0.2821  0.4259  0.2848
  104OSM   H12A10464   4.093   4.544   7.249 -0.1728 -0.0704 -1.5117
  104OSM   H12B10465   4.087   4.369   7.259 -2.3589  2.0286 -0.6731
  104OSM    C1110466   4.281   4.453   7.187  0.9294  0.1508 -0.2684
  104OSM   H11A10467   4.312   4.559   7.202  3.9089 -0.6530 -0.0947
  104OSM   H11B10468   4.268   4.438   7.078  1.6806  1.7847 -0.6230
  104OSM      P10469   4.531   4.393   7.265 -0.0699 -0.0997 -0.0649
  104OSM    O1310470   4.534   4.534   7.310 -0.1475  0.1460 -0.0901
  104OSM    O1410471   4.592   4.297   7.351 -0.1316  0.0886 -0.0926
  104OSM    O1110472   4.587   4.389   7.118  0.5468  0.3694  0.0547
  104OSM    O1210473   4.379   4.358   7.232  0.0409  0.8243  0.5597
  104OSM    C1S10474   4.592   4.262   7.040 -0.2557 -0.5185  0.2687
  104OSM    H1S10475   4.489   4.232   7.012 -0.6753  0.7052  0.4428
  104OSM    H1T10476   4.632   4.172   7.092 -1.6872 -0.8171  0.8898
  104OSM     NF10477   4.647   4.171   6.811  0.4978  0.3323 -0.2174
  104OSM    HNF10478   4.716   4.101   6.796 -2.0535 -2.7624  1.4430
  104OSM    C2S10479   4.668   4.275   6.905 -1.0760 -0.3116 -0.1799
  104OSM    H2S10480   4.631   4.367   6.855 -0.2414  1.2829  1.9917
  104OSM    C3S10481   4.830   4.301   6.937  0.1320 -0.1127  0.0983
  104OSM    H3S10482   4.873   4.204   6.969  1.3411  0.3821  0.0093
  104OSM     O310483   4.855   4.378   7.044 -0.2481  0.0467 -0.3506
  104OSM    HO310484   4.772   4.389   7.091  1.2112  0.0648  2.4259
  104OSM    C4S10485   4.907   4.345   6.826  0.4636 -0.5650  0.4914
  104OSM    H4S10486   4.868   4.436   6.779  1.2979  0.5650  1.9016
  104OSM    C5S10487   5.002   4.277   6.754 -0.4598  0.4844 -0.0597
  104OSM    H5S10488   5.030   4.172   6.771  2.3081  0.6727 -2.5752
  104OSM    C6S10489   5.050   4.336   6.618 -0.9787  0.6132 -0.6824
  104OSM    H6S10490   5.160   4.334   6.610 -0.8342 -3.8734 -0.1562
  104OSM    H6T10491   5.019   4.443   6.608 -1.5986  0.3589 -1.6857
  104OSM    C7S10492   4.991   4.262   6.491 -0.0967 -0.1564  0.2698
  104OSM    H7S10493   4.880   4.266   6.489 -0.0803  1.7626  1.0943
  104OSM    H7T10494   5.027   4.158   6.500 -0.2706 -0.3147 -0.7432
  104OSM    C8S10495   5.043   4.332   6.364 -1.3378 -0.1733 -0.2069
  104OSM    H8S10496   5.153   4.316   6.357 -1.5658 -1.2275 -2.3303
  104OSM    H8T10497   5.024   4.441   6.372  0.0316  0.0817 -0.0365
  104OSM    C9S10498   4.971   4.292   6.236 -0.7270 -0.4225  0.5137
  104OSM    H9S10499   4.862   4.309   6.249 -0.5737  0.5989  0.5920
  104OSM    H9T10500   4.991   4.185   6.218 -0.3436  0.0490 -2.2831
  104OSM   C10S10501   5.039   4.368   6.126  0.0137  0.1501 -0.2683
  104OSM   H10S10502   5.146   4.341   6.117 -0.1031 -0.5402  0.3905
  104OSM   H10T10503   5.037   4.476   6.151  0.7947 -0.1455  1.1745
  104OSM   C11S10504   4.964   4.366   5.994  0.3248 -0.5875  0.4136
  104OSM   H11S10505   4.863   4.412   5.995  0.7083  0.5678 -2.9051
  104OSM   H11T10506   4.948   4.264   5.952  2.2383 -1.4305  1.5814
  104OSM   C12S10507   5.048   4.452   5.886  0.0042  0.4208 -0.1868
  104OSM   H12S10508   5.140   4.392   5.866 -1.8020 -1.9104 -2.0299
  104OSM   H12T10509   5.074   4.548   5.937  2.5729 -1.3417  2.1253
  104OSM   C13S10510   4.950   4.485   5.766  0.4045  0.7188 -0.4451
  104OSM   H13S10511   4.864   4.546   5.800  0.9897  1.8431 -0.9174
  104OSM   H13T10512   4.920   4.385   5.729  0.4577 -0.2643  2.0000
  104OSM   C14S10513   5.023   4.566   5.655  0.0404 -0.2773  0.2609
  104OSM   H14S10514   5.050   4.668   5.692  1.6352  0.4016 -2.5456
  104OSM   H14T10515   4.939   4.581   5.584  0.9797 -1.3547 -1.1210
  104OSM   C15S10516   5.127   4.472   5.576  0.1520 -0.2824  1.0216
  104OSM   H15S10517   5.077   4.373   5.574 -1.1069  0.2652 -2.6203
  104OSM   H15T10518   5.218   4.454   5.637  0.5752  0.6374  0.6823
  104OSM   C16S10519   5.163   4.525   5.435 -0.0853 -0.0519 -0.5435
  104OSM   H16S10520   5.188   4.633   5.443 -1.8857  0.4626 -1.2403
  104OSM   H16T10521   5.069   4.539   5.378 -0.2571  2.8900  0.2947
  104OSM   C17S10522   5.266   4.444   5.360  0.3092  0.5433  0.0333
  104OSM   H17S10523   5.222   4.349   5.322  0.4131 -0.3788  2.0593
  104OSM   H17T10524   5.342   4.410   5.433  0.2628 -0.1402 -0.2290
  104OSM   C18S10525   5.327   4.520   5.246  0.0240 -0.2779  0.1624
  104OSM   H18S10526   5.380   4.614   5.275  0.9300 -1.3140  2.1286
  104OSM   H18T10527   5.247   4.548   5.175 -0.2178 -1.8457 -0.2038
  104OSM   H18U10528   5.397   4.468   5.178 -1.3325  1.2761 -2.5798
  104OSM    C1F10529   4.532   4.152   6.741  0.0368  0.0074  0.5457
  104OSM     OF10530   4.425   4.199   6.775  0.6687  0.2588 -0.3217
  104OSM    C2F10531   4.539   4.077   6.612  0.1014  0.4002  0.2224
  104OSM    H2F10532   4.551   3.967   6.624  2.1322  0.3270 -1.7902
  104OSM    H2G10533   4.629   4.117   6.561 -1.3975  0.2915 -2.6906
  104OSM    C3F10534   4.419   4.105   6.515  0.6635  0.0724 -0.5585
  104OSM    H3F10535   4.392   4.212   6.532  1.5136  0.1090  0.6825
  104OSM    H3G10536   4.334   4.045   6.552  1.0626 -1.2897 -1.7489
  104OSM    C4F10537   4.453   4.084   6.368 -0.0215 -0.0296 -0.3079
  104OSM    H4F10538   4.490   3.981   6.349  0.6920  0.4586 -1.7214
  104OSM    H4G10539   4.539   4.150   6.343 -1.1138  0.4446 -3.1973
  104OSM    C5F10540   4.324   4.115   6.291  0.2815  0.2688  0.9877
  104OSM    H5F10541   4.295   4.219   6.315  1.9428  0.4092  2.5773
  104OSM    H5G10542   4.233   4.057   6.319  0.4452 -0.3152  0.3619
  104OSM    C6F10543   4.337   4.087   6.137 -0.0772  0.0932  0.0380
  104OSM    H6F10544   4.380   3.985   6.129  0.1769 -0.0242  2.2458
  104OSM    H6G10545   4.405   4.160   6.087 -1.8634 -0.6723 -3.8768
  104OSM    C7F10546   4.199   4.082   6.063 -0.2742  0.0250  0.2716
  104OSM    H7F10547   4.112   4.087   6.132 -0.5703 -0.8047 -0.0211
  104OSM    H7G10548   4.183   3.982   6.018  0.2723  0.7065 -1.5009
  104OSM    C8F10549   4.189   4.178   5.945 -0.8211  0.5368  0.1088
  104OSM    H8F10550   4.184   4.283   5.981  0.1709  0.7942 -0.4707
  104OSM    H8G10551   4.089   4.165   5.899 -1.0309  0.4913  0.5750
  104OSM    C9F10552   4.299   4.159   5.848  0.0723 -0.3230 -0.3422
  104OSM    H9F10553   4.395   4.203   5.880  0.9367 -0.0934 -2.9667
  104OSM   C10F10554   4.291   4.114   5.721  0.7900 -0.9600 -0.2818
  104OSM   H10F10555   4.382   4.098   5.662 -0.1326 -1.8030 -1.5217
  104OSM   C11F10556   4.166   4.058   5.656  0.4572  0.4901  0.0462
  104OSM   H11F10557   4.087   4.014   5.721 -0.0226  0.2380 -0.6879
  104OSM   H11G10558   4.205   3.981   5.585 -0.9712 -0.6383  0.4206
  104OSM   C12F10559   4.091   4.158   5.566  0.3689  0.4130  0.1113
  104OSM   H12F10560   4.033   4.227   5.631  0.6343 -0.7408  1.6284
  104OSM   H12G10561   4.016   4.092   5.516  0.1759 -0.5491  1.5886
  104OSM   C13F10562   4.153   4.247   5.454 -0.0870  0.0768 -0.5996
  104OSM   H13F10563   4.201   4.331   5.508 -0.3177 -0.6880  0.8528
  104OSM   H13G10564   4.061   4.275   5.398  0.3826  1.8606 -0.5253
  104OSM   C14F10565   4.246   4.180   5.363 -0.2200  0.0529  0.4026
  104OSM   H14F10566   4.195   4.087   5.332  0.6731 -0.7007  1.1551
  104OSM   H14G10567   4.343   4.147   5.404 -0.2368 -1.4292 -0.6843
  104OSM   C15F10568   4.275   4.275   5.250  0.0832 -0.3184  0.3994
  104OSM   H15F10569   4.312   4.365   5.305  0.5285 -0.9931  1.2210
  104OSM   H15G10570   4.173   4.307   5.221 -0.1509 -1.7134 -0.4024
  104OSM   C16F10571   4.361   4.221   5.135  0.2100  0.0304  0.3709
  104OSM   H16F10572   4.293   4.171   5.063 -0.6248 -0.8762  1.7356
  104OSM   H16G10573   4.411   4.133   5.179  0.8817 -0.6251 -1.6176
  104OSM   C17F10574   4.457   4.323   5.081  0.1792 -0.1662  0.5453
  104OSM   H17F10575   4.517   4.374   5.160  0.7482  0.0747 -0.0367
  104OSM   H17G10576   4.405   4.415   5.045 -0.8290 -0.7047  0.5663
  104OSM   C18F10577   4.549   4.271   4.983 -0.3114  0.2143  0.6861
  104OSM   H18F10578   4.503   4.242   4.886 -0.5389 -0.2102  0.9208
  104OSM   H18G10579   4.590   4.171   5.009 -2.6702 -1.0559 -0.2125
  104OSM   H18H10580   4.625   4.345   4.948  0.9056 -1.0593  0.5642
  105OSM      N10581   6.110   5.393   7.336  0.2081 -0.5381 -0.1685
  105OSM    C1510582   6.001   5.404   7.438 -0.3174  0.2082  0.4757
  105OSM   H15A10583   5.987   5.317   7.501 -0.2083 -0.1107  0.0582
  105OSM   H15B10584   5.910   5.429   7.386 -1.6772 -1.7525  1.7446
  105OSM   H15C10585   6.018   5.486   7.507  0.5415 -0.0303  0.5629
  105OSM    C1410586   6.223   5.310   7.390  0.0645  0.0749 -0.4782
  105OSM   H14A10587   6.292   5.357   7.459  1.0985 -2.6897  0.5498
  105OSM   H14B10588   6.282   5.269   7.309 -0.5051 -0.0752 -0.8170
  105OSM   H14C10589   6.178   5.233   7.452 -0.0876  0.9110  0.4788
  105OSM    C1310590   6.053   5.322   7.220  0.9650  0.2488  0.1837
  105OSM   H13A10591   6.024   5.223   7.253  3.0304  0.2774  2.2625
  105OSM   H13B10592   6.120   5.317   7.135  1.2380  2.9952  0.1455
  105OSM   H13C10593   5.968   5.380   7.186  0.4383  0.6846  2.1244
  105OSM    C1210594   6.154   5.539   7.305 -0.6053  0.3189 -0.8756
  105OSM   H12A10595   6.241   5.552   7.243  1.4719  1.3974  2.0338
  105OSM   H12B10596   6.189   5.580   7.399 -1.2997  1.2109 -0.9915
  105OSM    C1110597   6.052   5.647   7.263 -0.4534 -0.4370  0.2803
  105OSM   H11A10598   5.959   5.653   7.323  0.1876  0.3974  1.2248
  105OSM   H11B10599   6.020   5.623   7.159 -0.7779  0.8100  0.0769
  105OSM      P10600   6.214   5.837   7.164  0.2220 -0.3484 -0.0193
  105OSM    O1310601   6.220   5.983   7.192  0.0818  0.1077 -0.1239
  105OSM    O1410602   6.341   5.752   7.168  0.0737 -0.0284 -0.6188
  105OSM    O1110603   6.129   5.817   7.029 -0.2541 -0.2799  0.2745
  105OSM    O1210604   6.114   5.775   7.266  0.3310 -0.1354  0.1187
  105OSM    C1S10605   6.201   5.789   6.911 -0.3987 -0.2313  0.7952
  105OSM    H1S10606   6.239   5.685   6.922  0.2074  0.1628  2.8976
  105OSM    H1T10607   6.282   5.864   6.898  0.4522 -0.7903  2.5508
  105OSM     NF10608   6.187   5.760   6.662  0.4176 -0.0302  0.0190
  105OSM    HNF10609   6.218   5.832   6.601 -2.0625 -0.6714 -2.1787
  105OSM    C2S10610   6.111   5.800   6.781  0.1103  0.1139 -0.4863
  105OSM    H2S10611   6.028   5.728   6.796  0.5224 -0.2365  0.1804
  105OSM    C3S10612   6.044   5.939   6.771 -0.6460 -0.1462  0.1434
  105OSM    H3S10613   6.111   6.009   6.716  0.4187 -2.3925 -1.6027
  105OSM     O310614   6.013   6.005   6.893 -0.0910  0.2683 -0.1244
  105OSM    HO310615   6.050   5.942   6.956 -1.7032 -0.3127  0.3183
  105OSM    C4S10616   5.910   5.931   6.705 -0.4297 -0.3822 -0.4124
  105OSM    H4S10617   5.835   5.890   6.774 -0.5432  2.8219  1.6253
  105OSM    C5S10618   5.887   5.978   6.580  0.2216 -0.1752  0.6184
  105OSM    H5S10619   5.967   6.022   6.518 -1.2479  1.1026 -0.4243
  105OSM    C6S10620   5.752   5.962   6.516  0.4092  0.5454  0.8629
  105OSM    H6S10621   5.719   6.047   6.453  0.0168 -1.8812 -2.4880
  105OSM    H6T10622   5.684   5.962   6.604  1.0644 -0.6245  1.3915
  105OSM    C7S10623   5.734   5.821   6.439  0.0311 -0.1689 -0.1596
  105OSM    H7S10624   5.629   5.799   6.412 -0.2405  1.1775 -0.2365
  105OSM    H7T10625   5.765   5.753   6.522 -1.2785 -0.0287  0.4716
  105OSM    C8S10626   5.815   5.809   6.306 -0.2721  0.1205  0.0090
  105OSM    H8S10627   5.797   5.709   6.261  0.2482 -0.2425  0.5786
  105OSM    H8T10628   5.920   5.807   6.343 -0.6270  0.5525  1.0738
  105OSM    C9S10629   5.794   5.923   6.213  0.4292  0.1128  0.0644
  105OSM    H9S10630   5.819   6.016   6.268  1.0946 -0.9577  1.6507
  105OSM    H9T10631   5.686   5.930   6.187  0.3215 -1.3038  0.0184
  105OSM   C10S10632   5.867   5.912   6.081  0.6803 -0.2555  0.7200
  105OSM   H10S10633   5.830   6.002   6.028  1.6904  0.7255  1.6309
  105OSM   H10T10634   5.843   5.822   6.020 -0.7921  1.2568 -1.0649
  105OSM   C11S10635   6.011   5.933   6.093 -0.6979 -0.1553 -0.2265
  105OSM   H11S10636   6.046   5.870   6.177 -1.2244  0.5222  0.5165
  105OSM   H11T10637   6.033   6.038   6.121  0.3074 -0.4019 -0.0536
  105OSM   C12S10638   6.097   5.898   5.965  0.3385 -0.2557  0.7508
  105OSM   H12S10639   6.084   5.789   5.949  1.2741 -0.0263 -2.3118
  105OSM   H12T10640   6.205   5.906   5.989  0.4809 -0.1671  0.0937
  105OSM   C13S10641   6.056   5.975   5.836 -0.3506  0.3215  0.7222
  105OSM   H13S10642   6.096   6.076   5.861  1.9475 -0.0251 -1.2370
  105OSM   H13T10643   5.946   5.966   5.822 -0.4297 -0.8016  1.8244
  105OSM   C14S10644   6.134   5.918   5.721 -0.3897 -0.2389  0.2880
  105OSM   H14S10645   6.134   5.808   5.737 -0.7275 -0.2456  0.2548
  105OSM   H14T10646   6.241   5.946   5.716  0.1370 -1.6878  2.1734
  105OSM   C15S10647   6.068   5.966   5.588 -0.1579  0.5538  0.2213
  105OSM   H15S10648   5.974   5.906   5.581 -0.2331  0.2255  3.0346
  105OSM   H15T10649   6.138   5.929   5.510  1.4631  1.7551  1.0666
  105OSM   C16S10650   6.050   6.117   5.577  0.4396 -0.7793  0.6076
  105OSM   H16S10651   6.139   6.167   5.621 -0.9473  1.7377  0.7665
  105OSM   H16T10652   5.967   6.148   5.644 -1.6534 -2.6599 -0.9599
  105OSM   C17S10653   6.018   6.163   5.431  0.2375 -1.1304  0.0846
  105OSM   H17S10654   5.927   6.109   5.397 -0.5228 -0.4752  1.0216
  105OSM   H17T10655   6.100   6.128   5.366  1.3597  0.2335  0.7086
  105OSM   C18S10656   6.014   6.314   5.411 -0.4616 -0.0305  0.5565
  105OSM   H18S10657   5.961   6.349   5.319  1.9413  2.5377  0.0156
  105OSM   H18T10658   6.115   6.359   5.426 -0.7365  0.2345  1.6753
  105OSM   H18U10659   5.950   6.346   5.495  0.3582  1.5027  0.6474
  105OSM    C1F10660   6.222   5.633   6.642 -1.2206 -0.0968 -0.0413
  105OSM     OF10661   6.166   5.546   6.710 -0.3082 -0.3606 -0.0443
  105OSM    C2F10662   6.323   5.595   6.532 -0.4071  0.4116  0.2085
  105OSM    H2F10663   6.372   5.496   6.546  1.3689  1.2502  0.2199
  105OSM    H2G10664   6.403   5.672   6.533 -0.7375  0.8189 -1.9293
  105OSM    C3F10665   6.256   5.609   6.388  0.0398  0.9999  0.0618
  105OSM    H3F10666   6.180   5.687   6.369 -2.1703 -0.6489  1.6998
  105OSM    H3G10667   6.196   5.518   6.367  0.6586  1.1970 -2.8977
  105OSM    C4F10668   6.372   5.616   6.285  0.7644  0.2944 -0.2724
  105OSM    H4F10669   6.452   5.539   6.293  0.3571 -0.1135 -0.0622
  105OSM    H4G10670   6.419   5.716   6.293  0.6206  0.3387  0.0401
  105OSM    C5F10671   6.335   5.618   6.140  1.0699 -0.0607 -0.8055
  105OSM    H5F10672   6.255   5.692   6.121  1.9862  0.5568 -2.4968
  105OSM    H5G10673   6.278   5.528   6.109 -1.1758  0.6023  1.1432
  105OSM    C6F10674   6.445   5.659   6.045 -0.7884  0.0037 -0.8450
  105OSM    H6F10675   6.534   5.594   6.053 -2.1510 -2.2220 -2.5690
  105OSM    H6G10676   6.491   5.758   6.065 -0.8781  0.0064 -0.6519
  105OSM    C7F10677   6.397   5.638   5.902  0.5139  0.0691  0.7250
  105OSM    H7F10678   6.322   5.715   5.874 -0.9281 -1.2800  0.7044
  105OSM    H7G10679   6.345   5.539   5.906  2.0518 -0.8615 -0.9244
  105OSM    C8F10680   6.511   5.645   5.802 -0.7757  0.3267 -0.2650
  105OSM    H8F10681   6.462   5.622   5.705 -0.2967 -1.2898 -0.1557
  105OSM    H8G10682   6.579   5.559   5.821 -1.3887 -0.7698 -2.5670
  105OSM    C9F10683   6.585   5.774   5.783 -0.5812 -0.0427 -0.0282
  105OSM    H9F10684   6.517   5.858   5.803 -1.3860 -0.4267 -1.0330
  105OSM   C10F10685   6.711   5.795   5.732  0.0691 -0.7630 -0.7868
  105OSM   H10F10686   6.745   5.900   5.729 -2.6070  0.1889 -3.9267
  105OSM   C11F10687   6.819   5.696   5.715 -0.4136 -0.9285 -0.2284
  105OSM   H11F10688   6.863   5.697   5.613 -0.2006  1.9592 -0.1706
  105OSM   H11G10689   6.775   5.595   5.732 -0.6940 -1.0516 -1.5451
  105OSM   C12F10690   6.940   5.705   5.813  0.2266  0.0973  0.0930
  105OSM   H12F10691   6.986   5.807   5.810 -0.1662  0.2571 -1.3592
  105OSM   H12G10692   7.018   5.640   5.768  0.9178  1.0573 -0.1567
  105OSM   C13F10693   6.914   5.661   5.959 -0.3734 -0.2926 -0.0373
  105OSM   H13F10694   6.890   5.552   5.955  0.9107 -0.6634  1.3415
  105OSM   H13G10695   6.823   5.700   6.008  0.2424 -2.7632  3.4476
  105OSM   C14F10696   7.026   5.701   6.052  0.0931  0.4771  0.0952
  105OSM   H14F10697   7.025   5.812   6.059  0.8609  0.7749 -2.9688
  105OSM   H14G10698   7.127   5.666   6.022  0.8007  2.2856  0.2330
  105OSM   C15F10699   7.010   5.659   6.202 -0.2677  0.3704 -0.1519
  105OSM   H15F10700   7.008   5.547   6.203 -0.8165  0.3750 -0.3546
  105OSM   H15G10701   6.908   5.697   6.224 -0.0633  1.0414 -0.3521
  105OSM   C16F10702   7.114   5.717   6.293  0.4624 -0.3059 -0.0307
  105OSM   H16F10703   7.117   5.828   6.280 -0.8672 -0.3323 -0.7270
  105OSM   H16G10704   7.218   5.682   6.274  0.3274 -0.4012 -0.6179
  105OSM   C17F10705   7.087   5.677   6.438  0.0277 -0.0220  0.3081
  105OSM   H17F10706   7.046   5.574   6.444  0.1769 -0.2067 -1.3711
  105OSM   H17G10707   7.009   5.739   6.487  0.0011 -1.5187  2.3183
  105OSM   C18F10708   7.215   5.683   6.527  0.3698  0.4536 -0.1313
  105OSM   H18F10709   7.200   5.633   6.626  0.2852 -1.0247 -0.8611
  105OSM   H18G10710   7.229   5.791   6.546 -0.1222  0.4936  0.0148
  105OSM   H18H10711   7.309   5.644   6.481  0.4531 -0.6397  0.9041
  106OSM      N10712   5.603   1.427   7.034 -0.9797  0.8445 -0.3326
  106OSM    C1510713   5.687   1.533   6.977  0.3634 -0.8244  0.2359
  106OSM   H15A10714   5.792   1.506   6.976  0.5514 -0.3944  2.6110
  106OSM   H15B10715   5.673   1.628   7.026  1.0308 -0.8606  0.5111
  106OSM   H15C10716   5.656   1.534   6.873 -2.6536 -2.3990  1.0220
  106OSM    C1410717   5.643   1.290   6.979  0.1947 -0.3098 -0.1880
  106OSM   H14A10718   5.643   1.296   6.871  4.0204  0.9907 -0.2424
  106OSM   H14B10719   5.562   1.225   7.010  0.4957 -0.5428  0.1043
  106OSM   H14C10720   5.733   1.244   7.017  0.5176  1.3529  1.1837
  106OSM    C1310721   5.634   1.416   7.185 -0.2101 -0.0991  0.4210
  106OSM   H13A10722   5.646   1.513   7.231  1.1392  0.3272 -0.7508
  106OSM   H13B10723   5.732   1.372   7.201 -0.1940 -0.1711  0.1190
  106OSM   H13C10724   5.567   1.350   7.238  2.2361 -0.8729  2.8124
  106OSM    C1210725   5.456   1.451   7.011  0.3593  0.3504  0.1289
  106OSM   H12A10726   5.440   1.539   7.072  0.1111 -0.9167  1.9803
  106OSM   H12B10727   5.390   1.371   7.040  1.0769  0.1852  1.3948
  106OSM    C1110728   5.414   1.499   6.873 -0.5274  1.4760 -0.0721
  106OSM   H11A10729   5.303   1.506   6.861 -0.2743  3.3096 -1.8145
  106OSM   H11B10730   5.442   1.415   6.805 -1.7332 -0.5504  1.7956
  106OSM      P10731   5.425   1.765   6.895 -0.0597  0.2352 -0.0764
  106OSM    O1310732   5.414   1.763   7.038 -0.4574  0.0338  0.1966
  106OSM    O1410733   5.525   1.864   6.846  0.2835  0.5060  0.4745
  106OSM    O1110734   5.284   1.785   6.831  0.1320 -0.0625 -0.6935
  106OSM    O1210735   5.476   1.626   6.835  0.4765  0.1909 -0.2762
  106OSM    C1S10736   5.275   1.856   6.703  0.2071 -0.3067  0.1124
  106OSM    H1S10737   5.327   1.954   6.695 -2.0382  1.2576  2.9341
  106OSM    H1T10738   5.174   1.898   6.685  0.3352 -0.6522 -1.5851
  106OSM     NF10739   5.333   1.844   6.459  0.3136 -0.0477 -0.3320
  106OSM    HNF10740   5.259   1.864   6.396 -2.0653 -0.1230  2.2694
  106OSM    C2S10741   5.292   1.768   6.576 -0.4861  0.6512  0.0762
  106OSM    H2S10742   5.384   1.708   6.594  1.1829  2.7318 -0.9684
  106OSM    C3S10743   5.170   1.668   6.570 -0.7034 -0.2903  0.6780
  106OSM    H3S10744   5.081   1.730   6.546 -0.8571 -0.6944  0.2032
  106OSM     O310745   5.145   1.607   6.696 -0.4508  0.2210 -0.2882
  106OSM    HO310746   5.195   1.657   6.761 -1.9893  0.4992  0.7241
  106OSM    C4S10747   5.186   1.570   6.459  0.2555 -0.2105 -0.1956
  106OSM    H4S10748   5.187   1.617   6.360 -1.5296 -0.3093 -0.2913
  106OSM    C5S10749   5.232   1.444   6.472 -0.5882  0.2869 -0.2531
  106OSM    H5S10750   5.272   1.403   6.566  2.0730 -1.9540 -2.2299
  106OSM    C6S10751   5.277   1.351   6.362  0.5108  0.3480  0.5301
  106OSM    H6S10752   5.387   1.358   6.346  0.2840  0.2230 -1.4134
  106OSM    H6T10753   5.236   1.376   6.262  0.0291 -2.1119  0.0574
  106OSM    C7S10754   5.239   1.206   6.390 -0.2799  0.1591  0.8306
  106OSM    H7S10755   5.128   1.201   6.389 -0.3661  1.3040  2.0204
  106OSM    H7T10756   5.264   1.188   6.497 -1.4078  0.0118  1.0816
  106OSM    C8S10757   5.300   1.100   6.306 -0.0057  0.5250  0.5546
  106OSM    H8S10758   5.269   0.997   6.335 -0.8273  1.6896  4.4704
  106OSM    H8T10759   5.410   1.106   6.319 -0.0822 -0.3451  1.8860
  106OSM    C9S10760   5.266   1.110   6.154  0.7027 -0.3208  0.2626
  106OSM    H9S10761   5.344   1.049   6.104 -0.9409 -1.7774 -0.5984
  106OSM    H9T10762   5.291   1.210   6.112  3.1677 -0.6766  0.7026
  106OSM   C10S10763   5.118   1.069   6.112 -0.0733 -0.4524  0.5100
  106OSM   H10S10764   5.055   1.110   6.194  1.5267 -4.0423  3.8833
  106OSM   H10T10765   5.106   0.959   6.120 -1.0634 -0.6529 -2.4019
  106OSM   C11S10766   5.089   1.100   5.963  0.2532  0.0807  0.0042
  106OSM   H11S10767   5.126   1.202   5.938  2.4259 -1.0466 -1.7665
  106OSM   H11T10768   4.980   1.106   5.944  0.6595 -0.3392 -2.8405
  106OSM   C12S10769   5.141   0.999   5.868 -0.3124  0.3522 -0.1298
  106OSM   H12S10770   5.066   0.917   5.854 -0.2176  0.6512 -2.9395
  106OSM   H12T10771   5.220   0.938   5.917 -0.7010 -1.1577 -1.3019
  106OSM   C13S10772   5.198   1.033   5.726  0.2158 -0.0971  0.1279
  106OSM   H13S10773   5.260   0.951   5.684 -0.9999 -0.1412 -1.6815
  106OSM   H13T10774   5.266   1.121   5.736  0.6239 -0.0043 -2.6240
  106OSM   C14S10775   5.096   1.092   5.625 -0.4200 -0.6591 -0.5912
  106OSM   H14S10776   5.092   1.198   5.657  2.5080 -0.4582 -0.5667
  106OSM   H14T10777   5.004   1.037   5.654 -0.1302  0.0713  1.8833
  106OSM   C15S10778   5.136   1.096   5.479  0.2086 -0.0562  1.1727
  106OSM   H15S10779   5.052   1.146   5.426  1.1005  0.1996 -0.0573
  106OSM   H15T10780   5.147   0.994   5.435 -0.6784  1.1561 -2.2387
  106OSM   C16S10781   5.268   1.173   5.457  0.1895  0.2157  1.0439
  106OSM   H16S10782   5.349   1.127   5.518 -1.8112 -2.8629  1.6060
  106OSM   H16T10783   5.241   1.273   5.499 -1.9780 -0.3211  1.0497
  106OSM   C17S10784   5.305   1.182   5.311  0.1392  0.1922  0.3325
  106OSM   H17S10785   5.229   1.250   5.267  2.3941  3.1472  0.7269
  106OSM   H17T10786   5.301   1.077   5.275  3.1037  0.4762 -1.0944
  106OSM   C18S10787   5.443   1.231   5.280 -0.1521  0.0757 -0.1610
  106OSM   H18S10788   5.513   1.178   5.347 -0.9425 -2.8039 -1.4735
  106OSM   H18T10789   5.450   1.338   5.311 -1.2243 -0.3127  1.5516
  106OSM   H18U10790   5.457   1.198   5.174  0.7722 -2.1786  0.6108
  106OSM    C1F10791   5.439   1.915   6.445 -0.2537  0.1606 -0.7578
  106OSM     OF10792   5.523   1.929   6.535 -0.0928 -0.2555  0.1051
  106OSM    C2F10793   5.459   1.987   6.309 -0.2300 -0.1838  1.2287
  106OSM    H2F10794   5.377   2.059   6.290 -2.7262 -3.1680 -0.2745
  106OSM    H2G10795   5.441   1.916   6.225 -2.5650  2.2977 -0.5429
  106OSM    C3F10796   5.600   2.059   6.290 -0.3941  0.2554  0.1443
  106OSM    H3F10797   5.693   1.998   6.296  2.0408  3.6826  0.9079
  106OSM    H3G10798   5.605   2.135   6.372 -2.9892  0.6656  0.0109
  106OSM    C4F10799   5.611   2.123   6.148 -0.4902  0.2251 -0.2917
  106OSM    H4F10800   5.708   2.178   6.153 -1.5278  2.0241  2.0183
  106OSM    H4G10801   5.533   2.202   6.141 -0.3210  0.4036 -0.1921
  106OSM    C5F10802   5.597   2.027   6.035 -0.1979  0.1985 -0.3548
  106OSM    H5F10803   5.491   1.995   6.020  0.1107 -0.4476 -1.2429
  106OSM    H5G10804   5.642   1.927   6.052 -2.9480 -1.2702 -1.0675
  106OSM    C6F10805   5.630   2.099   5.898  0.2372  0.4371  0.8602
  106OSM    H6F10806   5.741   2.104   5.888  0.2801 -0.8387  0.5158
  106OSM    H6G10807   5.587   2.201   5.889 -3.5736 -1.0881 -0.4363
  106OSM    C7F10808   5.576   2.019   5.774  0.0287 -0.9142  0.2408
  106OSM    H7F10809   5.469   2.010   5.803  0.3980  1.8950  3.0333
  106OSM    H7G10810   5.620   1.917   5.764 -0.0341 -0.9553  0.3760
  106OSM    C8F10811   5.575   2.112   5.645 -0.5477 -0.5978  0.0857
  106OSM    H8F10812   5.608   2.214   5.673 -0.6120 -0.0556 -1.7166
  106OSM    H8G10813   5.468   2.109   5.619 -0.2189  0.5469 -1.5092
  106OSM    C9F10814   5.664   2.058   5.540 -0.2465 -0.4037 -0.2119
  106OSM    H9F10815   5.769   2.084   5.558 -1.0963  4.0605 -0.6196
  106OSM   C10F10816   5.628   2.004   5.420 -0.4208 -0.6853  0.1492
  106OSM   H10F10817   5.707   1.986   5.345 -0.7112  0.1892 -0.3917
  106OSM   C11F10818   5.483   1.974   5.379  0.2681 -0.1932 -0.1298
  106OSM   H11F10819   5.410   2.004   5.457  0.7048  0.7148 -0.0559
  106OSM   H11G10820   5.478   1.864   5.361  1.7017 -0.5506  1.3846
  106OSM   C12F10821   5.464   2.050   5.249 -0.4125 -0.3119  0.2381
  106OSM   H12F10822   5.357   2.034   5.224 -0.6593  1.4260  0.0201
  106OSM   H12G10823   5.520   2.008   5.163 -2.4051 -0.2845 -1.1499
  106OSM   C13F10824   5.492   2.201   5.244  0.6536 -0.8013 -0.9071
  106OSM   H13F10825   5.587   2.218   5.190  0.7298 -0.8511 -0.7903
  106OSM   H13G10826   5.496   2.241   5.348 -3.4213  1.2499 -1.3481
  106OSM   C14F10827   5.373   2.271   5.168  0.2152 -0.8261  0.1833
  106OSM   H14F10828   5.400   2.378   5.179  0.7701 -0.9055 -0.3545
  106OSM   H14G10829   5.283   2.254   5.232  0.3466  2.2738  1.3286
  106OSM   C15F10830   5.349   2.231   5.026  0.4609  0.0614 -0.5017
  106OSM   H15F10831   5.329   2.122   5.030 -1.7804  0.4339 -0.1108
  106OSM   H15G10832   5.443   2.243   4.968 -0.2128  0.5920 -1.5198
  106OSM   C16F10833   5.233   2.288   4.940  0.0978  0.8523  0.2859
  106OSM   H16F10834   5.222   2.398   4.941 -1.4167  0.7325  0.2220
  106OSM   H16G10835   5.141   2.253   4.992  1.4234  0.9376  2.8367
  106OSM   C17F10836   5.244   2.230   4.796  0.1362  0.0759  0.1665
  106OSM   H17F10837   5.233   2.120   4.785  0.3861  0.1113 -0.4823
  106OSM   H17G10838   5.348   2.233   4.756  0.4428 -2.3892  0.6346
  106OSM   C18F10839   5.152   2.297   4.697 -0.0993 -0.5369 -1.1755
  106OSM   H18F10840   5.052   2.285   4.742  0.3131 -0.1387 -0.1302
  106OSM   H18G10841   5.156   2.251   4.595 -1.2630 -1.3097 -0.8805
  106OSM   H18H10842   5.176   2.405   4.681  0.1193 -0.1848  1.2540
  107OSM      N10843   5.645   6.336   7.556  0.1621 -0.2938  0.2254
  107OSM    C1510844   5.700   6.234   7.459  0.3725  0.2683  0.2629
  107OSM   H15A10845   5.631   6.156   7.432 -0.1545  0.0060  2.2288
  107OSM   H15B10846   5.788   6.194   7.508  0.1780  0.6102  0.9053
  107OSM   H15C10847   5.738   6.280   7.369 -0.3487  0.0092 -0.1837
  107OSM    C1410848   5.577   6.260   7.664  0.2093 -0.4553 -0.6147
  107OSM   H14A10849   5.643   6.179   7.690  1.8152  0.5308 -1.4772
  107OSM   H14B10850   5.491   6.212   7.619 -1.1972  2.6551 -1.4935
  107OSM   H14C10851   5.540   6.316   7.748  1.0790 -0.4040 -0.2586
  107OSM    C1310852   5.749   6.424   7.603 -0.2747 -0.3776 -0.0923
  107OSM   H13A10853   5.774   6.499   7.529  1.3753 -1.7811 -1.0322
  107OSM   H13B10854   5.831   6.368   7.646  1.2752  2.3074  0.7076
  107OSM   H13C10855   5.712   6.471   7.693  1.1387  0.3714  0.1365
  107OSM    C1210856   5.541   6.418   7.486 -0.0184 -0.2142  0.6401
  107OSM   H12A10857   5.470   6.350   7.441 -0.6845 -0.7442  2.3793
  107OSM   H12B10858   5.584   6.468   7.401 -0.5279 -0.2203  0.3758
  107OSM    C1110859   5.451   6.516   7.563  0.2321 -0.0657  0.1581
  107OSM   H11A10860   5.425   6.472   7.662  2.0329  0.8106  1.0801
  107OSM   H11B10861   5.358   6.530   7.504 -1.4592 -2.0502  2.1812
  107OSM      P10862   5.566   6.725   7.454  0.1485  0.0498  0.1545
  107OSM    O1310863   5.606   6.852   7.516  0.1460 -0.6440  0.1423
  107OSM    O1410864   5.668   6.658   7.368 -0.2605 -0.2710 -0.3146
  107OSM    O1110865   5.430   6.748   7.372 -0.0813 -0.8097 -0.0333
  107OSM    O1210866   5.524   6.642   7.581 -0.2651  0.6472 -0.1202
  107OSM    C1S10867   5.440   6.820   7.249  0.7225 -1.0696  0.7874
  107OSM    H1S10868   5.542   6.859   7.227 -0.2042  1.0272 -0.0753
  107OSM    H1T10869   5.380   6.914   7.249  1.3166 -0.6830  0.8930
  107OSM     NF10870   5.417   6.819   6.998 -0.0318  0.2653 -0.2625
  107OSM    HNF10871   5.346   6.875   6.957 -0.6067  1.5047  2.2688
  107OSM    C2S10872   5.390   6.743   7.119 -0.2936  0.0248  0.2803
  107OSM    H2S10873   5.439   6.643   7.115 -0.8690 -0.2457 -0.1768
  107OSM    C3S10874   5.240   6.713   7.141  0.6158 -0.2916  0.6224
  107OSM    H3S10875   5.180   6.804   7.164  0.9691  0.0193  0.3032
  107OSM     O310876   5.205   6.625   7.249  0.0471  0.0172 -0.1468
  107OSM    HO310877   5.293   6.602   7.279  0.0507  0.8908  0.5507
  107OSM    C4S10878   5.184   6.661   7.011 -0.1544  0.2751 -0.0627
  107OSM    H4S10879   5.233   6.568   6.979 -2.5287 -0.8663 -0.5817
  107OSM    C5S10880   5.103   6.721   6.916  0.9955 -0.6231 -0.4947
  107OSM    H5S10881   5.062   6.820   6.940 -0.9414 -1.4231 -0.3394
  107OSM    C6S10882   5.063   6.660   6.787 -0.5027  0.0092  0.6000
  107OSM    H6S10883   5.013   6.734   6.721 -1.7881 -2.1710 -1.0091
  107OSM    H6T10884   4.999   6.577   6.821 -0.9309  0.2460  0.3755
  107OSM    C7S10885   5.184   6.612   6.710  0.0419  0.3547  0.3999
  107OSM    H7S10886   5.219   6.515   6.751 -0.9825  0.6822  2.1621
  107OSM    H7T10887   5.273   6.678   6.699  0.2668 -0.2174 -1.7799
  107OSM    C8S10888   5.135   6.578   6.564 -0.1197  0.9390  0.0388
  107OSM    H8S10889   5.226   6.557   6.505  0.3282  1.7485  0.4162
  107OSM    H8T10890   5.083   6.665   6.519 -0.1772  2.7392  3.2632
  107OSM    C9S10891   5.035   6.458   6.564 -0.7074  0.0257  0.0629
  107OSM    H9S10892   4.958   6.453   6.644 -2.2643 -1.3201 -1.4464
  107OSM    H9T10893   5.105   6.374   6.582 -2.2513 -1.5994 -1.1619
  107OSM   C10S10894   4.968   6.442   6.429 -0.4895  0.2038  0.3448
  107OSM   H10S10895   5.055   6.440   6.359  0.2019  0.2291  1.1958
  107OSM   H10T10896   4.912   6.537   6.415  1.5080  1.4125  0.0902
  107OSM   C11S10897   4.865   6.331   6.412  0.4155  0.2884 -0.0712
  107OSM   H11S10898   4.810   6.330   6.508  2.2437  1.1675  1.0408
  107OSM   H11T10899   4.927   6.239   6.419 -0.3359 -0.2781 -0.7092
  107OSM   C12S10900   4.769   6.344   6.287  0.0921  0.3633 -0.4214
  107OSM   H12S10901   4.669   6.381   6.320 -0.2428  0.6228 -1.6997
  107OSM   H12T10902   4.749   6.240   6.254  1.4362  0.1083 -0.4707
  107OSM   C13S10903   4.835   6.423   6.169 -0.4949 -0.2938 -0.5626
  107OSM   H13S10904   4.944   6.402   6.165 -0.1241  1.6004 -1.7751
  107OSM   H13T10905   4.832   6.531   6.195 -1.6941 -0.8261  1.7901
  107OSM   C14S10906   4.775   6.389   6.033 -0.2236 -0.1745  0.0755
  107OSM   H14S10907   4.774   6.280   6.016  2.5397 -0.1760 -0.5934
  107OSM   H14T10908   4.844   6.433   5.959  0.9631  0.1953  1.3479
  107OSM   C15S10909   4.642   6.468   6.015  0.6293  0.3057 -0.2183
  107OSM   H15S10910   4.646   6.575   6.045  2.0559  0.7723 -1.9019
  107OSM   H15T10911   4.556   6.419   6.066 -1.0770  0.8405 -2.4168
  107OSM   C16S10912   4.588   6.466   5.871  0.5464  0.2773  0.1344
  107OSM   H16S10913   4.584   6.365   5.825  0.4026  0.9286 -1.3561
  107OSM   H16T10914   4.655   6.530   5.809 -1.1075  1.0231 -0.9457
  107OSM   C17S10915   4.436   6.517   5.864  0.0172  0.6869 -0.7969
  107OSM   H17S10916   4.440   6.623   5.899 -0.2375  0.4332  0.0314
  107OSM   H17T10917   4.370   6.454   5.927  0.9483 -0.1752 -0.6502
  107OSM   C18S10918   4.387   6.529   5.719  0.7169  0.3270 -0.5161
  107OSM   H18S10919   4.359   6.431   5.674  1.8718 -0.4350  0.3498
  107OSM   H18T10920   4.476   6.566   5.664  1.5542  1.4663  1.5057
  107OSM   H18U10921   4.303   6.599   5.697  2.2706  1.6180 -2.6823
  107OSM    C1F10922   5.537   6.816   6.948  0.1668 -0.6978  0.5914
  107OSM     OF10923   5.626   6.748   6.988 -0.1807  0.2623  0.7783
  107OSM    C2F10924   5.553   6.901   6.827  0.1314  0.5018 -0.0992
  107OSM    H2F10925   5.603   6.994   6.863 -0.9820 -0.1658  3.5308
  107OSM    H2G10926   5.456   6.928   6.780  0.4100  0.8843 -0.4595
  107OSM    C3F10927   5.643   6.837   6.715 -0.0761  0.5667 -0.2925
  107OSM    H3F10928   5.612   6.732   6.700 -0.3070  0.4000  1.1456
  107OSM    H3G10929   5.742   6.827   6.765 -0.4185 -1.8897  0.0236
  107OSM    C4F10930   5.651   6.916   6.580  0.4152  0.3013 -0.3445
  107OSM    H4F10931   5.732   6.885   6.511  0.3278  0.7212 -0.6341
  107OSM    H4G10932   5.683   7.018   6.607  0.9398  0.7962 -2.6946
  107OSM    C5F10933   5.524   6.924   6.501  0.7289 -0.1547  0.0607
  107OSM    H5F10934   5.537   7.013   6.436  2.1468 -0.9189 -0.7422
  107OSM    H5G10935   5.433   6.940   6.563 -1.4318 -0.7483 -2.7601
  107OSM    C6F10936   5.510   6.794   6.425  0.7131  0.0753 -0.5064
  107OSM    H6F10937   5.527   6.703   6.487  0.8276 -0.1015 -0.7965
  107OSM    H6G10938   5.589   6.790   6.346 -0.9263  0.8590 -2.2579
  107OSM    C7F10939   5.370   6.787   6.372  1.1731 -0.4319  0.5868
  107OSM    H7F10940   5.347   6.884   6.322 -0.7456 -1.0550  0.1620
  107OSM    H7G10941   5.298   6.786   6.456 -0.1583  1.1530 -0.4650
  107OSM    C8F10942   5.342   6.655   6.294 -0.1151  0.1469  0.2908
  107OSM    H8F10943   5.233   6.635   6.304 -0.9322  3.0029 -1.5354
  107OSM    H8G10944   5.385   6.573   6.355  0.2721  1.0007  1.1765
  107OSM    C9F10945   5.352   6.653   6.146  0.3920  0.0880  0.0200
  107OSM    H9F10946   5.438   6.604   6.099  1.5218  0.9671  1.0950
  107OSM   C10F10947   5.265   6.709   6.062 -0.7815  0.7291  0.1516
  107OSM   H10F10948   5.298   6.726   5.958 -1.1112 -1.4215 -0.3710
  107OSM   C11F10949   5.128   6.768   6.082 -0.1396  0.4692  0.1418
  107OSM   H11F10950   5.091   6.732   6.180  1.2000  0.0725  0.5129
  107OSM   H11G10951   5.052   6.741   6.006 -0.0543  1.4539 -0.3083
  107OSM   C12F10952   5.141   6.919   6.080 -0.4095 -0.5111 -0.0508
  107OSM   H12F10953   5.166   6.955   5.977  0.8619  1.2023  0.8133
  107OSM   H12G10954   5.224   6.946   6.148 -0.0255  0.0982 -0.7419
  107OSM   C13F10955   5.013   6.994   6.111  0.4313 -0.5661 -0.4675
  107OSM   H13F10956   4.934   6.959   6.041 -2.4548  0.5612  2.0322
  107OSM   H13G10957   5.029   7.102   6.085 -0.5104  0.3711  2.5107
  107OSM   C14F10958   4.954   6.975   6.247  0.3413 -0.0388  0.3269
  107OSM   H14F10959   4.919   6.870   6.251 -1.4488  0.4954 -0.2556
  107OSM   H14G10960   4.857   7.030   6.245 -0.4213 -1.3139 -2.0733
  107OSM   C15F10961   5.051   7.031   6.347  0.1727  0.3552 -0.3121
  107OSM   H15F10962   5.081   7.129   6.303  1.9215 -1.3094 -3.1487
  107OSM   H15G10963   5.142   6.970   6.365 -1.8013 -1.9026  3.1929
  107OSM   C16F10964   4.994   7.051   6.486  0.3502 -0.0988  0.3367
  107OSM   H16F10965   4.984   6.961   6.551 -0.8237  1.0154  1.7772
  107OSM   H16G10966   4.894   7.097   6.471 -0.0666 -0.7328  1.0910
  107OSM   C17F10967   5.076   7.163   6.554  0.6582  0.0535 -0.5156
  107OSM   H17F10968   5.069   7.256   6.494  1.2670 -0.3631 -1.2429
  107OSM   H17G10969   5.181   7.125   6.553  0.6104 -0.0750 -0.5880
  107OSM   C18F10970   5.025   7.208   6.699 -0.4394 -0.8976  0.2244
  107OSM   H18F10971   5.022   7.119   6.764 -1.7397 -1.0698 -0.0453
  107OSM   H18G10972   4.919   7.239   6.691 -0.3055 -0.8588 -2.4453
  107OSM   H18H10973   5.089   7.292   6.734 -0.8635  0.8374 -2.7838
  108OSM      N10974   2.027   0.617   7.388 -0.0857 -0.0928 -0.6036
  108OSM    C1510975   2.155   0.676   7.338 -0.6149  0.7651 -0.3038
  108OSM   H15A10976   2.131   0.780   7.322 -1.5632  0.7417  0.7785
  108OSM   H15B10977   2.180   0.625   7.246  0.2505 -1.8716  1.2582
  108OSM   H15C10978   2.238   0.682   7.406 -0.6168  0.5356 -0.2788
  108OSM    C1410979   1.941   0.601   7.268 -0.7373  0.3989  0.0714
  108OSM   H14A10980   1.949   0.690   7.208 -0.7019  0.0384 -0.4625
  108OSM   H14B10981   1.840   0.587   7.306 -0.3890  3.3347  2.5185
  108OSM   H14C10982   1.963   0.514   7.209 -1.2180  1.9646 -2.6143
  108OSM    C1310983   2.064   0.481   7.437  0.6523  0.4930  0.3009
  108OSM   H13A10984   2.116   0.426   7.360  1.2489  0.8606  0.4335
  108OSM   H13B10985   1.978   0.419   7.458  0.4342  1.1351  1.3624
  108OSM   H13C10986   2.134   0.482   7.519 -0.6392 -3.4663  1.6821
  108OSM    C1210987   1.963   0.696   7.497  0.0211 -0.8256 -0.2231
  108OSM   H12A10988   2.024   0.694   7.585  0.6709 -0.5188 -0.6601
  108OSM   H12B10989   1.866   0.653   7.519 -0.4409 -1.0480 -2.3779
  108OSM    C1110990   1.938   0.846   7.470  0.4362  0.3377 -0.2443
  108OSM   H11A10991   1.856   0.886   7.534  1.4519 -0.0776  1.3727
  108OSM   H11B10992   1.918   0.844   7.361  0.3310 -0.5925 -0.2211
  108OSM      P10993   2.060   1.071   7.519  0.1029  0.5418  0.7015
  108OSM    O1310994   1.970   1.105   7.630 -0.2891 -0.3714 -0.2427
  108OSM    O1410995   2.194   1.133   7.516  0.3037  0.7004  0.0559
  108OSM    O1110996   1.976   1.118   7.388 -0.4278 -0.4947  0.2207
  108OSM    O1210997   2.058   0.915   7.489 -0.0781  0.0674  0.5030
  108OSM    C1S10998   2.032   1.126   7.258 -0.8320  0.1507  0.6752
  108OSM    H1S10999   2.100   1.041   7.235 -0.7854  0.1967  0.6446
  108OSM    H1T11000   2.101   1.213   7.252  0.2119 -0.7693 -2.1087
  108OSM     NF11001   1.999   1.161   6.997 -0.6717  0.2076  0.1334
  108OSM    HNF11002   2.012   1.254   6.964 -1.2710  0.6207  1.0223
  108OSM    C2S11003   1.929   1.132   7.132 -0.6821  0.3122  0.5525
  108OSM    H2S11004   1.895   1.026   7.132  1.7079 -0.5140  0.9136
  108OSM    C3S11005   1.815   1.230   7.167  0.0533  0.3707 -0.3538
  108OSM    H3S11006   1.846   1.334   7.192 -0.5131  0.3861  0.3049
  108OSM     O311007   1.754   1.191   7.287  0.1643 -0.1680 -0.0144
  108OSM    HO311008   1.811   1.131   7.334 -1.3462 -1.6605 -0.0015
  108OSM    C4S11009   1.708   1.236   7.064  1.1574 -0.3937  0.5125
  108OSM    H4S11010   1.654   1.145   7.034 -1.0150  1.2721 -1.0046
  108OSM    C5S11011   1.674   1.352   6.999 -0.0002  0.2805  0.4783
  108OSM    H5S11012   1.745   1.435   7.010  0.7957 -0.0812 -1.5862
  108OSM    C6S11013   1.573   1.349   6.889 -0.3626  0.2376 -0.1708
  108OSM    H6S11014   1.620   1.380   6.793 -0.8339  4.1633  0.6912
  108OSM    H6T11015   1.509   1.439   6.903 -0.2954  0.1755  0.5879
  108OSM    C7S11016   1.500   1.218   6.860  0.5175 -0.4833 -0.0537
  108OSM    H7S11017   1.450   1.201   6.958  2.5033  0.2316  1.1362
  108OSM    H7T11018   1.564   1.129   6.846 -0.7854 -1.4336 -0.1853
  108OSM    C8S11019   1.397   1.234   6.745  0.9818  0.3227  0.0829
  108OSM    H8S11020   1.463   1.257   6.659 -1.0687  0.6708 -1.4771
  108OSM    H8T11021   1.321   1.314   6.763 -0.1003 -0.8035  0.6571
  108OSM    C9S11022   1.318   1.115   6.721 -0.1931 -0.4071 -0.2546
  108OSM    H9S11023   1.277   1.077   6.817 -2.5629 -2.6410 -2.0036
  108OSM    H9T11024   1.397   1.046   6.685 -0.4013 -1.6357  1.4746
  108OSM   C10S11025   1.213   1.131   6.610  0.0248  0.8948  0.4521
  108OSM   H10S11026   1.126   1.189   6.647 -0.8690  2.0710 -3.1223
  108OSM   H10T11027   1.149   1.044   6.582 -1.4764  1.5526  1.6445
  108OSM   C11S11028   1.261   1.183   6.475 -0.2517  0.6086 -0.2302
  108OSM   H11S11029   1.369   1.207   6.482  0.2386 -1.5779  0.7525
  108OSM   H11T11030   1.200   1.270   6.446 -1.6556  0.0841  1.0296
  108OSM   C12S11031   1.269   1.078   6.366  0.1175 -0.1763 -0.2342
  108OSM   H12S11032   1.188   1.001   6.367  0.2305 -0.3391 -1.4138
  108OSM   H12T11033   1.350   1.011   6.401  0.4172  0.6394  0.6728
  108OSM   C13S11034   1.311   1.148   6.238  0.4127  0.2936  0.1842
  108OSM   H13S11035   1.414   1.188   6.247  0.2908  0.3164  1.6566
  108OSM   H13T11036   1.253   1.240   6.218  0.8203  0.9633  1.9188
  108OSM   C14S11037   1.304   1.055   6.116 -0.2975  0.8711 -0.9786
  108OSM   H14S11038   1.204   1.008   6.113  0.8575 -1.7596 -1.6544
  108OSM   H14T11039   1.377   0.974   6.137 -1.0953  0.0456 -1.3243
  108OSM   C15S11040   1.334   1.118   5.982  0.4129 -0.9565 -0.6798
  108OSM   H15S11041   1.423   1.184   5.988  1.9881 -3.1012  1.0054
  108OSM   H15T11042   1.252   1.192   5.972 -0.6546 -1.8251  1.1909
  108OSM   C16S11043   1.351   1.025   5.866  0.2290 -0.3286  0.1861
  108OSM   H16S11044   1.287   0.934   5.876  0.5265 -0.5589  0.0360
  108OSM   H16T11045   1.451   0.976   5.876  0.3732  0.1430  1.1078
  108OSM   C17S11046   1.349   1.086   5.730  0.5191 -0.1504 -0.4011
  108OSM   H17S11047   1.363   1.023   5.640 -0.1814 -0.5519 -0.2375
  108OSM   H17T11048   1.435   1.156   5.734  1.3819 -1.2547  1.3715
  108OSM   C18S11049   1.238   1.185   5.685  0.0273  0.0974  0.0926
  108OSM   H18S11050   1.286   1.235   5.598  0.5367 -3.3245 -1.8166
  108OSM   H18T11051   1.205   1.254   5.765  1.1639  0.3680  0.3474
  108OSM   H18U11052   1.145   1.134   5.652 -0.1622 -0.1199  0.9543
  108OSM    C1F11053   2.082   1.068   6.953 -0.7424  0.0953 -0.3514
  108OSM     OF11054   2.074   0.956   6.996  0.3398  0.5170 -0.2294
  108OSM    C2F11055   2.182   1.111   6.848  0.2944 -0.6624  0.3290
  108OSM    H2F11056   2.234   1.199   6.891 -1.7476  1.3925 -1.1954
  108OSM    H2G11057   2.122   1.151   6.764 -0.4163  1.8365  1.9171
  108OSM    C3F11058   2.288   1.003   6.807  0.5421  0.3023  0.0571
  108OSM    H3F11059   2.229   0.916   6.773  0.1918  0.9929 -1.1840
  108OSM    H3G11060   2.362   0.976   6.886  0.8259 -1.7477 -0.8469
  108OSM    C4F11061   2.378   1.040   6.681  0.3774 -0.7068 -0.1650
  108OSM    H4F11062   2.450   0.956   6.674  0.6844 -0.3414 -1.5418
  108OSM    H4G11063   2.425   1.130   6.726 -0.6112 -0.4586  0.4234
  108OSM    C5F11064   2.301   1.059   6.550  0.1739  0.5287  0.2008
  108OSM    H5F11065   2.372   1.080   6.467 -1.2547 -0.4601 -1.3388
  108OSM    H5G11066   2.231   1.145   6.561 -0.8303 -0.4454  1.8587
  108OSM    C6F11067   2.212   0.943   6.509 -0.4637 -0.0842 -0.1675
  108OSM    H6F11068   2.121   0.954   6.572 -0.6591 -2.5385  0.0846
  108OSM    H6G11069   2.272   0.849   6.514  0.2241  0.4114  2.6616
  108OSM    C7F11070   2.155   0.963   6.366 -0.5431  0.0447 -0.9741
  108OSM    H7F11071   2.244   0.984   6.303  1.1287 -2.0236  0.5219
  108OSM    H7G11072   2.092   1.054   6.371 -0.3600  0.2974 -2.7992
  108OSM    C8F11073   2.090   0.833   6.316 -0.3512 -0.6914 -0.4324
  108OSM    H8F11074   2.066   0.761   6.397  2.5453 -0.9161  0.3216
  108OSM    H8G11075   2.163   0.774   6.258 -1.3611 -1.1536 -1.2743
  108OSM    C9F11076   1.969   0.866   6.229 -0.0787  0.5881  0.6110
  108OSM    H9F11077   1.874   0.829   6.269  1.0215 -1.4584  1.5260
  108OSM   C10F11078   1.976   0.901   6.096  0.4014  0.3617  0.5476
  108OSM   H10F11079   1.880   0.914   6.043 -0.6324  1.4800  2.5981
  108OSM   C11F11080   2.106   0.941   6.026 -0.1804  0.4211 -0.3991
  108OSM   H11F11081   2.192   0.889   6.073  1.4447  2.7003 -0.6443
  108OSM   H11G11082   2.130   1.049   6.041 -0.5925  0.4774 -0.1275
  108OSM   C12F11083   2.117   0.904   5.880 -0.5275 -0.6250 -0.4588
  108OSM   H12F11084   2.052   0.969   5.817  1.6074 -0.0606 -2.2047
  108OSM   H12G11085   2.079   0.801   5.863  0.7487 -1.4987  1.5591
  108OSM   C13F11086   2.258   0.925   5.826  0.1865 -0.0030 -0.5048
  108OSM   H13F11087   2.326   0.869   5.894  0.4960 -1.5342 -2.0020
  108OSM   H13G11088   2.289   1.032   5.832  1.1644 -0.1943 -1.6737
  108OSM   C14F11089   2.265   0.883   5.675 -0.1333 -0.3159  0.3900
  108OSM   H14F11090   2.205   0.951   5.610  0.4033  0.5138  0.7440
  108OSM   H14G11091   2.200   0.793   5.669 -1.4540  0.5772  0.8833
  108OSM   C15F11092   2.409   0.871   5.615 -0.4524  0.0350  0.1036
  108OSM   H15F11093   2.471   0.810   5.685 -0.4071  0.4385  0.4203
  108OSM   H15G11094   2.463   0.966   5.596  1.2516 -1.1436 -1.3637
  108OSM   C16F11095   2.413   0.783   5.480 -0.0682 -0.1603 -0.6893
  108OSM   H16F11096   2.522   0.782   5.460 -0.2539  0.3537 -1.7857
  108OSM   H16G11097   2.363   0.845   5.403  0.4063  1.2491  0.0985
  108OSM   C17F11098   2.342   0.651   5.489  0.1659  0.2254  0.0118
  108OSM   H17F11099   2.234   0.655   5.465  0.5859 -1.4360 -2.5800
  108OSM   H17G11100   2.353   0.618   5.594 -1.3827  1.1609  0.5038
  108OSM   C18F11101   2.423   0.546   5.409  0.1273 -0.0706  0.1060
  108OSM   H18F11102   2.380   0.449   5.440  0.4444 -0.6741 -1.2520
  108OSM   H18G11103   2.532   0.548   5.429  0.0708 -0.6018  0.4840
  108OSM   H18H11104   2.392   0.546   5.302 -1.5695  0.6240  0.5710
  109OSM      N11105   4.733   2.040   6.984 -0.5461 -0.3694  0.1208
  109OSM    C1511106   4.684   1.902   6.997 -0.0966 -0.1431  0.3864
  109OSM   H15A11107   4.577   1.901   7.012  0.1576 -0.6122  2.4499
  109OSM   H15B11108   4.716   1.852   7.087 -4.1518 -1.5346  1.2889
  109OSM   H15C11109   4.696   1.844   6.906 -1.0066  0.5688 -0.2087
  109OSM    C1411110   4.664   2.113   6.873  0.0414 -0.4968 -0.0837
  109OSM   H14A11111   4.708   2.211   6.858 -0.2822 -0.5151 -1.2849
  109OSM   H14B11112   4.557   2.123   6.889  0.3436  0.6358  1.4510
  109OSM   H14C11113   4.678   2.062   6.779  1.5391 -0.3677  0.0468
  109OSM    C1311114   4.702   2.116   7.110  0.8516  0.2093 -0.1458
  109OSM   H13A11115   4.598   2.145   7.115  0.2926 -1.8350  3.3264
  109OSM   H13B11116   4.746   2.215   7.103 -0.1868  0.5940 -2.3074
  109OSM   H13C11117   4.741   2.061   7.195  1.3100  2.7844  1.4318
  109OSM    C1211118   4.886   2.032   6.956  0.8032  0.3832 -0.5580
  109OSM   H12A11119   4.900   1.977   6.864 -0.6578  1.0398 -1.1971
  109OSM   H12B11120   4.931   1.973   7.035  0.2589  0.6488 -0.0456
  109OSM    C1111121   4.969   2.161   6.942  0.1155  0.0680  0.3819
  109OSM   H11A11122   5.078   2.142   6.953 -0.2667 -2.7972 -0.0156
  109OSM   H11B11123   4.946   2.240   7.017  0.2652  2.4460 -1.9379
  109OSM      P11124   5.032   2.207   6.702 -0.2425 -0.1555  0.1980
  109OSM    O1311125   5.019   2.319   6.604 -0.5271  0.8212  0.1167
  109OSM    O1411126   5.168   2.176   6.744  0.0463  0.5292 -0.7108
  109OSM    O1111127   4.979   2.075   6.624 -0.2190 -0.0428  0.1691
  109OSM    O1211128   4.936   2.226   6.822 -0.1117  0.5288 -0.2850
  109OSM    C1S11129   4.987   2.089   6.481 -0.1752  0.1155 -0.2853
  109OSM    H1S11130   5.092   2.097   6.445 -0.2713  1.4050 -0.3178
  109OSM    H1T11131   4.924   2.177   6.456 -0.8140  0.7069  2.9519
  109OSM     NF11132   4.916   1.993   6.272  0.9754 -0.0195  0.3421
  109OSM    HNF11133   4.830   2.005   6.224  0.1885 -1.0137  1.4359
  109OSM    C2S11134   4.911   1.974   6.413 -0.2149  0.2789  0.0176
  109OSM    H2S11135   4.960   1.880   6.445  0.2086  0.2231 -0.7642
  109OSM    C3S11136   4.760   1.956   6.466 -0.5243  0.0279  0.3960
  109OSM    H3S11137   4.707   2.046   6.428  0.3192  0.5686  0.4604
  109OSM     O311138   4.744   1.963   6.608 -0.1022 -0.2121 -0.1174
  109OSM    HO311139   4.829   1.998   6.637  0.0840  1.8922 -2.7666
  109OSM    C4S11140   4.713   1.828   6.407  0.0323  0.2415  0.8330
  109OSM    H4S11141   4.650   1.832   6.317 -0.4403 -1.8977  1.0094
  109OSM    C5S11142   4.761   1.711   6.441 -0.7219 -0.1349 -0.4938
  109OSM    H5S11143   4.841   1.706   6.516 -0.3363 -0.8501 -0.9445
  109OSM    C6S11144   4.736   1.573   6.389 -0.0003  0.6282 -0.2123
  109OSM    H6S11145   4.635   1.529   6.405  1.1343 -2.6471 -1.2599
  109OSM    H6T11146   4.800   1.495   6.435 -2.0752 -3.0885 -3.0373
  109OSM    C7S11147   4.750   1.573   6.235  0.5055  0.5089 -0.4711
  109OSM    H7S11148   4.693   1.662   6.199 -0.8701 -0.3383 -0.4449
  109OSM    H7T11149   4.698   1.482   6.197  1.6507 -0.3596 -0.0105
  109OSM    C8S11150   4.894   1.580   6.182 -0.5859 -0.2290  0.9313
  109OSM    H8S11151   4.963   1.533   6.255 -0.6818  1.1382  1.9545
  109OSM    H8T11152   4.933   1.684   6.176  2.2671 -1.2760 -0.1201
  109OSM    C9S11153   4.917   1.503   6.048 -0.0328  0.1316  0.3785
  109OSM    H9S11154   4.882   1.398   6.049 -1.5699  0.5625 -1.5381
  109OSM    H9T11155   5.026   1.518   6.038 -0.2860  2.4921  0.4934
  109OSM   C10S11156   4.853   1.570   5.921 -0.3961  0.3325 -0.7029
  109OSM   H10S11157   4.880   1.678   5.920 -1.3512  0.5948  0.6193
  109OSM   H10T11158   4.747   1.561   5.951  0.1329  1.7552  1.9216
  109OSM   C11S11159   4.895   1.502   5.793 -0.9791 -0.5165 -1.1514
  109OSM   H11S11160   4.902   1.392   5.801  0.0670 -0.3932  0.0012
  109OSM   H11T11161   4.996   1.546   5.778 -1.4009  1.0910  0.3467
  109OSM   C12S11162   4.794   1.539   5.683  0.4318  0.5912 -0.3102
  109OSM   H12S11163   4.790   1.648   5.661 -0.1311  0.1706 -2.6214
  109OSM   H12T11164   4.698   1.508   5.729  1.2840 -0.0158  1.1328
  109OSM   C13S11165   4.817   1.469   5.552  0.1565 -0.0072 -0.3001
  109OSM   H13S11166   4.802   1.361   5.576  0.7925  0.0425  0.3459
  109OSM   H13T11167   4.920   1.491   5.519 -0.3221  1.4603 -0.8576
  109OSM   C14S11168   4.717   1.519   5.445  0.2077  1.1580 -0.1138
  109OSM   H14S11169   4.723   1.630   5.439 -2.6012  1.4025  0.4901
  109OSM   H14T11170   4.619   1.496   5.492  0.7558 -1.6493 -0.1509
  109OSM   C15S11171   4.723   1.444   5.309  0.3984  0.3057 -0.0388
  109OSM   H15S11172   4.649   1.493   5.242  0.7508 -2.9546 -3.0759
  109OSM   H15T11173   4.674   1.348   5.335 -0.9872  1.1400  0.5585
  109OSM   C16S11174   4.860   1.421   5.241 -0.3193 -0.0161 -0.0058
  109OSM   H16S11175   4.931   1.377   5.314  1.2800  2.1555 -0.1729
  109OSM   H16T11176   4.891   1.522   5.208  0.8341 -0.5071 -0.4778
  109OSM   C17S11177   4.846   1.336   5.106 -0.0137  0.0654 -0.1159
  109OSM   H17S11178   4.767   1.391   5.051  0.7955  1.3640 -0.0245
  109OSM   H17T11179   4.796   1.240   5.130  0.2820 -0.8863 -2.8837
  109OSM   C18S11180   4.964   1.321   5.012 -0.3426 -0.6792  0.5392
  109OSM   H18S11181   4.924   1.255   4.932 -7.5371 -0.5778  3.2476
  109OSM   H18T11182   5.055   1.286   5.064  2.0043  1.9686 -1.4455
  109OSM   H18U11183   4.999   1.418   4.971 -1.7897  0.5333  2.0075
  109OSM    C1F11184   5.034   1.979   6.212  0.4802  0.3351  0.6120
  109OSM     OF11185   5.130   1.930   6.266 -0.0704  0.3377  0.2667
  109OSM    C2F11186   5.055   2.036   6.074  0.1837  0.8114 -0.2767
  109OSM    H2F11187   5.146   2.099   6.082  0.3900  0.5693 -0.6866
  109OSM    H2G11188   4.970   2.103   6.050 -2.0291 -1.5655  0.5231
  109OSM    C3F11189   5.072   1.927   5.971 -0.1088 -0.5831  1.1551
  109OSM    H3F11190   4.994   1.848   5.966  0.4583 -1.0934 -0.3983
  109OSM    H3G11191   5.163   1.869   5.998  0.5981 -1.1456 -1.9863
  109OSM    C4F11192   5.081   1.990   5.831 -0.0984 -0.2452  0.4594
  109OSM    H4F11193   5.187   2.018   5.815 -0.0934  1.0249  2.3479
  109OSM    H4G11194   5.019   2.083   5.833 -1.0268 -0.8510  1.6587
  109OSM    C5F11195   5.016   1.902   5.722  0.1372 -0.3965 -0.7141
  109OSM    H5F11196   4.911   1.878   5.746  0.6107 -0.3531  1.6089
  109OSM    H5G11197   5.057   1.799   5.723  0.8874 -0.1276  1.7543
  109OSM    C6F11198   5.016   1.966   5.581  0.1662  0.0656 -0.2211
  109OSM    H6F11199   5.117   1.970   5.534 -0.2368 -1.1152 -1.2302
  109OSM    H6G11200   4.985   2.072   5.586 -0.1115  0.0096 -0.7328
  109OSM    C7F11201   4.919   1.896   5.495  0.7644 -0.5651  0.6246
  109OSM    H7F11202   4.824   1.897   5.554  0.6506 -0.0303  0.4351
  109OSM    H7G11203   4.952   1.793   5.469  1.3025 -0.3825  0.5681
  109OSM    C8F11204   4.907   1.972   5.359 -0.2524  0.4070 -0.6706
  109OSM    H8F11205   4.883   2.078   5.384 -0.6504  0.0077  0.7084
  109OSM    H8G11206   4.825   1.924   5.302  1.3620 -1.4806 -1.5209
  109OSM    C9F11207   5.033   1.981   5.274  0.0181  0.1251  0.3143
  109OSM    H9F11208   5.130   1.978   5.325  0.1950  0.0766 -0.0241
  109OSM   C10F11209   5.040   1.986   5.135  0.5394  0.5524  0.0859
  109OSM   H10F11210   5.139   1.981   5.087  0.6150 -1.2444  0.3356
  109OSM   C11F11211   4.915   2.003   5.048 -0.1870 -0.3195 -0.2433
  109OSM   H11F11212   4.903   2.101   4.997 -2.4148 -0.4606 -0.0691
  109OSM   H11G11213   4.821   1.988   5.105  0.1661 -1.1727  0.1230
  109OSM   C12F11214   4.914   1.906   4.928  0.0667 -0.8373  0.3294
  109OSM   H12F11215   4.810   1.898   4.892  0.0889 -1.0058  0.3034
  109OSM   H12G11216   4.945   1.807   4.968  2.3209 -0.0438  0.7527
  109OSM   C13F11217   4.998   1.934   4.810 -0.6024 -0.1466 -0.0460
  109OSM   H13F11218   5.102   1.900   4.833 -0.7814  0.1117  1.2352
  109OSM   H13G11219   5.004   2.042   4.787  1.2948 -0.6370 -2.2595
  109OSM   C14F11220   4.955   1.851   4.691 -0.3671 -0.3204  0.0145
  109OSM   H14F11221   5.004   1.886   4.597  3.3159 -3.4153  0.5275
  109OSM   H14G11222   4.845   1.856   4.676 -0.6176 -0.2005  1.7627
  109OSM   C15F11223   4.997   1.703   4.698  0.8662  0.2348 -0.0177
  109OSM   H15F11224   4.952   1.659   4.790  2.2123  0.1001  0.5934
  109OSM   H15G11225   5.103   1.683   4.725  0.2275 -0.4299  2.3093
  109OSM   C16F11226   4.959   1.634   4.566  0.2493  0.3483  0.2470
  109OSM   H16F11227   5.026   1.683   4.493 -0.0075 -0.5563 -0.6252
  109OSM   H16G11228   4.851   1.645   4.543  0.4532 -0.2279 -1.1092
  109OSM   C17F11229   4.993   1.482   4.564  0.4348  0.4138  0.1602
  109OSM   H17F11230   5.102   1.465   4.579  0.3134  0.9718  1.8686
  109OSM   H17G11231   4.967   1.466   4.457  0.6712 -0.0109  0.1669
  109OSM   C18F11232   4.921   1.397   4.666  0.0799 -0.1039  0.3261
  109OSM   H18F11233   4.810   1.395   4.653  0.3457  0.7336 -3.1777
  109OSM   H18G11234   4.948   1.441   4.764  1.2794  2.0369 -0.8996
  109OSM   H18H11235   4.959   1.293   4.661  2.4826  0.7780 -2.4731
  110OSM      N11236   4.866   6.232   7.440 -0.0198  0.2499  0.6092
  110OSM    C1511237   4.888   6.122   7.535 -0.4054  1.0184 -0.0234
  110OSM   H15A11238   4.804   6.108   7.602 -2.6244  2.2964 -2.3655
  110OSM   H15B11239   4.968   6.145   7.604  0.4495 -1.9450  0.0933
  110OSM   H15C11240   4.912   6.029   7.486 -1.9772 -0.4269  1.7776
  110OSM    C1411241   4.751   6.192   7.349 -0.2377 -0.1188  0.0151
  110OSM   H14A11242   4.660   6.189   7.407 -0.7052  1.5412 -0.5822
  110OSM   H14B11243   4.759   6.099   7.296  0.2689  0.0448 -0.2058
  110OSM   H14C11244   4.741   6.266   7.271  1.5290 -1.7343 -1.8445
  110OSM    C1311245   4.832   6.354   7.509 -0.6130 -0.4419 -0.2222
  110OSM   H13A11246   4.834   6.432   7.434  2.8754 -0.2599 -0.1046
  110OSM   H13B11247   4.914   6.391   7.569  1.4244 -2.0988 -1.8144
  110OSM   H13C11248   4.731   6.349   7.545 -0.8405 -0.6073 -0.8770
  110OSM    C1211249   4.985   6.262   7.349 -0.5143  0.1502  0.3310
  110OSM   H12A11250   5.061   6.311   7.409  0.7084 -2.4191  1.0112
  110OSM   H12B11251   4.953   6.319   7.263 -1.3345 -1.2193 -0.3024
  110OSM    C1111252   5.062   6.138   7.294 -1.0862  0.7243 -0.4235
  110OSM   H11A11253   5.119   6.163   7.202 -3.1686 -1.7499 -2.5343
  110OSM   H11B11254   4.986   6.061   7.271 -2.2168  1.7430 -0.2021
  110OSM      P11255   5.267   6.164   7.464  0.0080 -0.0971  0.1835
  110OSM    O1311256   5.216   6.288   7.525  0.2644 -0.5198 -0.1958
  110OSM    O1411257   5.349   6.080   7.559 -0.2948 -0.3809 -0.4932
  110OSM    O1111258   5.361   6.196   7.343 -0.1218 -0.8358 -0.4379
  110OSM    O1211259   5.152   6.085   7.402 -0.0887  0.1385  0.6707
  110OSM    C1S11260   5.416   6.093   7.266 -0.1194  0.0561 -0.3076
  110OSM    H1S11261   5.355   6.001   7.255 -0.7066  0.4705 -0.5709
  110OSM    H1T11262   5.516   6.062   7.304  0.3299 -1.3957 -2.4997
  110OSM     NF11263   5.537   6.051   7.054  0.0063 -0.3246 -0.5687
  110OSM    HNF11264   5.629   6.075   7.026 -0.3738  1.1576 -0.6558
  110OSM    C2S11265   5.451   6.148   7.124  0.1033  0.7284  0.3178
  110OSM    H2S11266   5.353   6.141   7.073  0.9991 -1.5959 -1.2970
  110OSM    C3S11267   5.491   6.298   7.113  0.6151 -0.1673 -0.9537
  110OSM    H3S11268   5.573   6.305   7.187 -1.2169 -1.4353  1.3046
  110OSM     O311269   5.389   6.388   7.162 -0.4485  0.6261  0.2025
  110OSM    HO311270   5.351   6.345   7.239 -0.6364 -0.3349 -0.4102
  110OSM    C4S11271   5.530   6.335   6.976  0.0265  0.0973  0.4282
  110OSM    H4S11272   5.636   6.322   6.952  0.6863  1.3388  2.4594
  110OSM    C5S11273   5.456   6.385   6.871  0.1114  0.7345 -0.0772
  110OSM    H5S11274   5.356   6.419   6.899  0.8312  2.5067  0.5233
  110OSM    C6S11275   5.506   6.427   6.732  0.6736 -0.2145  0.6278
  110OSM    H6S11276   5.535   6.534   6.732  2.2848 -0.5583 -2.0430
  110OSM    H6T11277   5.420   6.420   6.662 -0.6363  1.7812  1.9407
  110OSM    C7S11278   5.622   6.349   6.671 -0.4289  0.6064  0.2319
  110OSM    H7S11279   5.605   6.240   6.685 -0.2936  0.6985  1.1460
  110OSM    H7T11280   5.711   6.375   6.732  0.5284  1.9815 -1.6287
  110OSM    C8S11281   5.642   6.393   6.522  0.2183 -0.3524  0.2787
  110OSM    H8S11282   5.640   6.504   6.516 -1.6187 -0.4244 -2.8525
  110OSM    H8T11283   5.564   6.344   6.459  0.7005 -0.6107 -0.1318
  110OSM    C9S11284   5.779   6.343   6.464  0.5708 -0.0410  0.3288
  110OSM    H9S11285   5.782   6.236   6.492  0.4439  0.1515  1.0985
  110OSM    H9T11286   5.865   6.376   6.525  0.4830 -1.6964  1.4256
  110OSM   C10S11287   5.793   6.365   6.316  0.1763 -1.4061  0.0967
  110OSM   H10S11288   5.702   6.324   6.269 -2.3123 -0.2408  3.5045
  110OSM   H10T11289   5.886   6.322   6.272 -0.3406 -0.8379 -1.6453
  110OSM   C11S11290   5.786   6.520   6.287  0.3420 -0.3627 -0.1004
  110OSM   H11S11291   5.880   6.556   6.335  0.7662 -0.5187 -0.8087
  110OSM   H11T11292   5.697   6.566   6.335  0.7191 -0.8311  1.1007
  110OSM   C12S11293   5.815   6.570   6.139  0.0746  0.2514 -0.2117
  110OSM   H12S11294   5.742   6.531   6.066  1.0894  2.0644 -2.3271
  110OSM   H12T11295   5.916   6.543   6.101 -0.1578  1.0080 -1.4159
  110OSM   C13S11296   5.795   6.722   6.126 -0.2168  0.2842  0.1488
  110OSM   H13S11297   5.693   6.754   6.154  0.0176  0.7450  0.4932
  110OSM   H13T11298   5.805   6.748   6.019 -1.2040  1.2485  0.2790
  110OSM   C14S11299   5.877   6.814   6.221  0.3689  0.7072 -0.5184
  110OSM   H14S11300   5.987   6.797   6.228  0.4673 -0.2043 -3.2486
  110OSM   H14T11301   5.834   6.817   6.324  0.5007 -1.3797 -0.3744
  110OSM   C15S11302   5.858   6.963   6.176 -0.8685  0.1932 -0.0104
  110OSM   H15S11303   5.896   7.036   6.251 -1.7310 -0.4990  1.1363
  110OSM   H15T11304   5.747   6.971   6.165 -0.9027 -0.5236 -0.2304
  110OSM   C16S11305   5.944   6.995   6.043  0.1775  0.3875 -0.9889
  110OSM   H16S11306   5.929   6.913   5.970  0.4209  0.5990 -1.2784
  110OSM   H16T11307   6.054   6.986   6.059  0.0636 -1.0425 -0.8526
  110OSM   C17S11308   5.914   7.125   5.975 -0.2739 -0.6399  0.3901
  110OSM   H17S11309   5.807   7.155   5.966  0.4334  2.0645 -0.1621
  110OSM   H17T11310   5.966   7.122   5.877  2.7328  1.3961  1.7700
  110OSM   C18S11311   5.973   7.247   6.049  0.1970 -0.2664 -0.4196
  110OSM   H18S11312   5.942   7.341   5.998  0.0189  0.5099  1.0787
  110OSM   H18T11313   6.084   7.252   6.045  0.5101 -3.1073  1.5740
  110OSM   H18U11314   5.943   7.254   6.156  0.9015  1.1002 -0.2939
  110OSM    C1F11315   5.503   5.917   7.046 -0.4325 -0.4231  0.4211
  110OSM     OF11316   5.384   5.876   7.043 -0.4711  0.1711 -0.3908
  110OSM    C2F11317   5.615   5.817   7.029 -0.2721 -0.4734 -0.3807
  110OSM    H2F11318   5.630   5.758   7.121  1.7917 -0.2999 -0.5627
  110OSM    H2G11319   5.712   5.865   7.003 -0.3214 -1.0145 -1.6323
  110OSM    C3F11320   5.594   5.718   6.914 -0.0490  0.6627 -0.0419
  110OSM    H3F11321   5.595   5.770   6.816  2.5588 -0.0609 -0.4743
  110OSM    H3G11322   5.494   5.670   6.920  1.0125 -1.9184 -1.4620
  110OSM    C4F11323   5.713   5.613   6.894  0.3511  0.1218  0.0121
  110OSM    H4F11324   5.718   5.539   6.977 -1.0380  2.0036  1.8890
  110OSM    H4G11325   5.811   5.666   6.891  1.6991 -2.0670  1.9548
  110OSM    C5F11326   5.690   5.545   6.756 -0.0920  0.0722 -0.5853
  110OSM    H5F11327   5.693   5.632   6.688  1.5147  0.3086 -0.2600
  110OSM    H5G11328   5.591   5.497   6.740 -0.1149  0.0382 -0.3486
  110OSM    C6F11329   5.808   5.447   6.733 -0.4365  1.1847  0.1816
  110OSM    H6F11330   5.803   5.384   6.824 -2.0789  0.3193 -0.4709
  110OSM    H6G11331   5.902   5.506   6.739  0.1612  0.2055  0.6064
  110OSM    C7F11332   5.806   5.355   6.607 -0.3816 -0.1909 -0.5111
  110OSM    H7F11333   5.812   5.419   6.516 -1.0049 -0.3433 -0.6697
  110OSM    H7G11334   5.708   5.302   6.604  0.0779 -1.5539  3.1884
  110OSM    C8F11335   5.918   5.256   6.613 -0.2708 -0.2121 -0.8170
  110OSM    H8F11336   5.908   5.212   6.714 -0.8477  0.4768 -0.5624
  110OSM    H8G11337   6.018   5.304   6.616  0.2033 -1.2092 -0.2993
  110OSM    C9F11338   5.916   5.148   6.505 -0.8172 -0.2753 -0.0900
  110OSM    H9F11339   5.877   5.055   6.548  2.5872 -0.4519  3.1611
  110OSM   C10F11340   5.963   5.148   6.373  0.5474  0.2109  0.1687
  110OSM   H10F11341   5.952   5.058   6.311  1.9770  1.7303 -2.4307
  110OSM   C11F11342   5.996   5.269   6.289 -0.5243  0.4310  0.0935
  110OSM   H11F11343   6.095   5.247   6.243 -0.8924 -0.2514 -0.3966
  110OSM   H11G11344   6.003   5.362   6.349 -0.5692  0.8809 -0.5860
  110OSM   C12F11345   5.912   5.284   6.156 -0.2910 -0.7794 -0.1270
  110OSM   H12F11346   5.803   5.295   6.176 -0.4816  0.7646 -1.8098
  110OSM   H12G11347   5.933   5.189   6.103 -2.6307 -2.6441  2.0163
  110OSM   C13F11348   5.956   5.398   6.070 -0.2391  0.4391  1.0858
  110OSM   H13F11349   6.063   5.375   6.050 -0.5408 -0.5728  0.5422
  110OSM   H13G11350   5.950   5.498   6.117 -0.5178  1.6676 -1.3988
  110OSM   C14F11351   5.881   5.406   5.935  0.2134  0.4601  0.3599
  110OSM   H14F11352   5.778   5.443   5.955  0.2293 -0.5289  2.6743
  110OSM   H14G11353   5.883   5.306   5.888 -1.1783  0.3610  0.4702
  110OSM   C15F11354   5.945   5.510   5.832  0.7185  0.8902 -0.3253
  110OSM   H15F11355   6.046   5.467   5.815 -0.1547 -0.7504 -1.6041
  110OSM   H15G11356   5.953   5.607   5.887 -0.8580  1.0274 -0.2702
  110OSM   C16F11357   5.852   5.530   5.708  0.5466  0.0035 -0.2202
  110OSM   H16F11358   5.780   5.615   5.716  1.4686  1.0165 -1.9686
  110OSM   H16G11359   5.789   5.439   5.706 -3.0030  2.2287  0.8301
  110OSM   C17F11360   5.922   5.540   5.574 -0.4638  0.1996 -0.1489
  110OSM   H17F11361   5.980   5.445   5.565  0.2935  0.7086 -0.8438
  110OSM   H17G11362   5.987   5.629   5.563  2.0841 -1.6393 -1.0654
  110OSM   C18F11363   5.824   5.532   5.458 -0.4318 -0.2833 -0.2561
  110OSM   H18F11364   5.855   5.534   5.352 -0.0787  0.5235 -0.1431
  110OSM   H18G11365   5.754   5.619   5.462  1.6686  1.4696  1.0343
  110OSM   H18H11366   5.750   5.451   5.478 -2.3938  1.6579  0.8613
  111OSM      N11367   2.070   6.035   7.256 -0.5544 -0.0504  0.2989
  111OSM    C1511368   2.222   6.051   7.288  0.1786  1.2197 -0.2833
  111OSM   H15A11369   2.253   6.007   7.382 -0.4972 -0.7945 -0.9406
  111OSM   H15B11370   2.255   6.153   7.282  1.4008  0.8984  0.5334
  111OSM   H15C11371   2.278   6.004   7.208  0.0326  2.2917 -1.0281
  111OSM    C1411372   2.051   5.890   7.223 -0.2766  0.3420 -0.5647
  111OSM   H14A11373   2.122   5.868   7.144  0.9555 -0.6849  0.7758
  111OSM   H14B11374   1.953   5.860   7.190 -1.2151  2.9499 -0.3527
  111OSM   H14C11375   2.075   5.827   7.307 -2.4620 -0.7656 -0.7100
  111OSM    C1311376   1.980   6.082   7.365 -0.0917  0.0857  0.3610
  111OSM   H13A11377   1.976   6.189   7.379 -1.6053 -0.1582  2.3060
  111OSM   H13B11378   2.008   6.033   7.457  1.7397 -1.3711 -0.9092
  111OSM   H13C11379   1.879   6.059   7.337 -0.1282  2.0017 -1.2632
  111OSM    C1211380   2.051   6.120   7.129  0.6895  0.5230 -0.2358
  111OSM   H12A11381   2.137   6.114   7.065  0.6746  2.9792 -0.5915
  111OSM   H12B11382   2.046   6.224   7.156 -2.6822  0.0767  1.4193
  111OSM    C1111383   1.923   6.099   7.045  0.5958 -0.6060 -0.1620
  111OSM   H11A11384   1.939   6.000   6.998 -1.1755 -1.6458  1.3227
  111OSM   H11B11385   1.914   6.167   6.957 -0.7548 -1.9614 -1.1349
  111OSM      P11386   1.691   6.196   7.119  0.3522 -0.0069  0.0118
  111OSM    O1311387   1.586   6.131   7.193  0.5220  0.1331  0.3636
  111OSM    O1411388   1.744   6.333   7.159  0.2726  0.6204 -0.0820
  111OSM    O1111389   1.654   6.191   6.958 -0.4182 -0.0346 -0.3159
  111OSM    O1211390   1.810   6.089   7.122  0.2926  0.1623 -0.2290
  111OSM    C1S11391   1.636   6.067   6.895 -0.2984 -0.2020  0.3195
  111OSM    H1S11392   1.551   6.013   6.941 -0.2417  0.8595  1.7184
  111OSM    H1T11393   1.718   5.992   6.902  1.5519  1.7558  0.8243
  111OSM     NF11394   1.566   5.958   6.691  0.0649 -0.1437 -0.0989
  111OSM    HNF11395   1.636   5.900   6.648  0.3510 -0.4113  0.7077
  111OSM    C2S11396   1.610   6.084   6.741  0.6677 -0.4315  0.0011
  111OSM    H2S11397   1.524   6.154   6.740 -0.9390 -2.2625  1.9103
  111OSM    C3S11398   1.733   6.148   6.668 -0.0429  0.2569 -0.2131
  111OSM    H3S11399   1.816   6.074   6.671  1.2067  1.6391  1.5151
  111OSM     O311400   1.792   6.259   6.736 -0.4658  0.7286 -0.0470
  111OSM    HO311401   1.759   6.243   6.825 -1.9417  1.0680 -0.5236
  111OSM    C4S11402   1.701   6.185   6.528  0.2524  0.7687  0.1667
  111OSM    H4S11403   1.702   6.106   6.451 -0.3843  1.9692 -1.1214
  111OSM    C5S11404   1.671   6.307   6.487 -0.0871  0.1704 -0.0459
  111OSM    H5S11405   1.662   6.388   6.561 -1.5257 -0.7389  0.8236
  111OSM    C6S11406   1.642   6.357   6.351  0.1984 -0.4513  0.2627
  111OSM    H6S11407   1.682   6.461   6.346  2.1464 -1.0530  2.1117
  111OSM    H6T11408   1.532   6.368   6.341  0.3336  0.4005 -0.4238
  111OSM    C7S11409   1.694   6.276   6.231 -0.3550  0.0560 -0.3231
  111OSM    H7S11410   1.647   6.175   6.236  0.0430 -0.0968  0.4756
  111OSM    H7T11411   1.802   6.262   6.253 -0.6341 -0.0445  1.1073
  111OSM    C8S11412   1.668   6.357   6.104  1.0774 -0.8154  0.5356
  111OSM    H8S11413   1.754   6.428   6.098  0.9145 -0.7360 -1.4272
  111OSM    H8T11414   1.582   6.426   6.120  0.8680 -1.3220  1.7163
  111OSM    C9S11415   1.644   6.274   5.974  0.4337  0.3784 -0.4841
  111OSM    H9S11416   1.556   6.206   5.976  1.5457 -1.1266 -0.7677
  111OSM    H9T11417   1.729   6.205   5.991  2.1052  2.2463 -0.9190
  111OSM   C10S11418   1.655   6.347   5.839 -0.2197  0.5015  0.5405
  111OSM   H10S11419   1.746   6.411   5.839 -0.6451  1.1608 -1.3199
  111OSM   H10T11420   1.575   6.420   5.816  1.5483  2.7597  1.2198
  111OSM   C11S11421   1.657   6.250   5.715  0.1829  0.6310 -0.5995
  111OSM   H11S11422   1.557   6.203   5.707  0.9273 -1.1813  0.2529
  111OSM   H11T11423   1.736   6.173   5.732  1.0688  1.3128 -1.5071
  111OSM   C12S11424   1.682   6.326   5.589 -0.3548  0.1914 -0.5938
  111OSM   H12S11425   1.778   6.382   5.592  0.1071 -0.6085  2.0914
  111OSM   H12T11426   1.595   6.394   5.582  0.0149  0.5716 -1.8166
  111OSM   C13S11427   1.698   6.225   5.475 -0.3409 -0.4079  0.2830
  111OSM   H13S11428   1.618   6.148   5.483  1.1421 -1.9701  0.7716
  111OSM   H13T11429   1.794   6.172   5.490 -0.0522 -1.1537 -3.3793
  111OSM   C14S11430   1.674   6.270   5.328 -0.4208  0.6606  0.5760
  111OSM   H14S11431   1.759   6.338   5.308 -0.0588  0.7940  2.3525
  111OSM   H14T11432   1.579   6.323   5.306  0.4151  0.4741 -4.5231
  111OSM   C15S11433   1.686   6.159   5.226  0.6916 -0.7176  0.5373
  111OSM   H15S11434   1.698   6.058   5.271 -0.6467 -0.4088  1.6908
  111OSM   H15T11435   1.771   6.172   5.156  1.3068  1.1829  1.5471
  111OSM   C16S11436   1.561   6.157   5.137  0.0756  0.2885 -0.0748
  111OSM   H16S11437   1.468   6.139   5.195  0.7772 -2.3711  0.3271
  111OSM   H16T11438   1.578   6.068   5.074 -1.5620  1.1881 -1.8776
  111OSM   C17S11439   1.562   6.281   5.046  0.0854  0.7183 -0.7339
  111OSM   H17S11440   1.663   6.303   5.004 -0.3097  2.7575 -0.7284
  111OSM   H17T11441   1.528   6.359   5.117 -0.1242 -0.8077  0.9156
  111OSM   C18S11442   1.468   6.262   4.926 -0.2755 -0.0899 -0.7123
  111OSM   H18S11443   1.363   6.265   4.962 -0.0041  0.8851  0.0183
  111OSM   H18T11444   1.480   6.156   4.896 -0.6679 -0.3834  0.1488
  111OSM   H18U11445   1.481   6.343   4.850  2.6719  1.1475  0.9182
  111OSM    C1F11446   1.458   5.892   6.723 -0.4806 -0.4900  0.4132
  111OSM     OF11447   1.367   5.943   6.790 -0.5240 -0.1915  0.2411
  111OSM    C2F11448   1.451   5.751   6.678 -0.1681  0.6522 -0.7143
  111OSM    H2F11449   1.499   5.682   6.752  1.4992  1.7998 -0.6821
  111OSM    H2G11450   1.521   5.742   6.593  0.5332  0.2305 -0.1085
  111OSM    C3F11451   1.307   5.692   6.653 -0.6328  0.4039  1.3526
  111OSM    H3F11452   1.243   5.769   6.605 -0.0323 -0.1691 -0.4672
  111OSM    H3G11453   1.247   5.662   6.741 -3.3983  1.0154 -0.2053
  111OSM    C4F11454   1.307   5.572   6.553  0.0068 -0.6538  0.7855
  111OSM    H4F11455   1.376   5.492   6.585  2.5825  1.2510  0.3361
  111OSM    H4G11456   1.335   5.618   6.456  0.8590 -3.8076 -0.5563
  111OSM    C5F11457   1.162   5.513   6.543  0.9337  0.0666  0.7429
  111OSM    H5F11458   1.079   5.576   6.581  0.2575 -0.6645  0.5209
  111OSM    H5G11459   1.154   5.428   6.614 -0.0207 -1.2685 -0.8739
  111OSM    C6F11460   1.132   5.466   6.395  0.0263 -0.0140 -0.1203
  111OSM    H6F11461   1.051   5.392   6.379 -1.4174  1.3554  0.6315
  111OSM    H6G11462   1.224   5.414   6.361 -1.1883 -1.6373 -1.0290
  111OSM    C7F11463   1.115   5.583   6.300 -0.1756 -0.5256 -0.6248
  111OSM    H7F11464   1.189   5.659   6.333  2.6857 -3.1438 -0.5353
  111OSM    H7G11465   1.013   5.622   6.316 -0.8759 -2.5480  0.1879
  111OSM    C8F11466   1.142   5.555   6.152 -0.0739  0.5599 -0.1937
  111OSM    H8F11467   1.251   5.539   6.141  0.0384  1.7057 -0.9326
  111OSM    H8G11468   1.130   5.654   6.103 -1.6007  1.5015  1.9658
  111OSM    C9F11469   1.057   5.446   6.095  0.0534  0.3685  0.5297
  111OSM    H9F11470   1.066   5.352   6.151  0.3598 -0.5437 -0.9960
  111OSM   C10F11471   0.972   5.462   5.985  0.5381  0.7874 -0.5125
  111OSM   H10F11472   0.909   5.375   5.959 -0.6210  1.7074 -0.8762
  111OSM   C11F11473   0.949   5.586   5.909 -0.1686 -0.6116 -0.0315
  111OSM   H11F11474   1.001   5.676   5.950 -0.2362 -0.4221 -0.3536
  111OSM   H11G11475   0.841   5.608   5.924  0.4041  1.5523  1.4114
  111OSM   C12F11476   0.984   5.563   5.761 -0.5099  0.0126  0.3955
  111OSM   H12F11477   1.093   5.543   5.757 -0.6863 -1.0262  0.5046
  111OSM   H12G11478   0.961   5.666   5.725  1.5842  0.3788  0.0243
  111OSM   C13F11479   0.895   5.461   5.697 -0.1440  0.6954  0.4186
  111OSM   H13F11480   0.791   5.498   5.700  0.1375  1.5609 -0.1860
  111OSM   H13G11481   0.910   5.358   5.735  0.5700  0.3204 -0.8213
  111OSM   C14F11482   0.914   5.446   5.542  0.4534 -0.4593 -0.3650
  111OSM   H14F11483   1.001   5.378   5.527  0.8845 -0.3989  1.5539
  111OSM   H14G11484   0.935   5.547   5.501 -0.1673  0.7566  2.1212
  111OSM   C15F11485   0.786   5.373   5.481 -0.0580 -0.1344  0.2057
  111OSM   H15F11486   0.699   5.442   5.483  0.5749  0.6791  2.6664
  111OSM   H15G11487   0.768   5.282   5.541 -1.2714 -0.3474 -0.4478
  111OSM   C16F11488   0.813   5.322   5.341 -0.5008  0.3445  1.0530
  111OSM   H16F11489   0.899   5.252   5.341 -3.0183 -3.0937 -0.4714
  111OSM   H16G11490   0.837   5.402   5.268 -0.0793 -2.6621 -2.3515
  111OSM   C17F11491   0.700   5.235   5.281 -0.1479  0.5843  1.0122
  111OSM   H17F11492   0.609   5.298   5.272 -0.6409 -0.0869  1.1960
  111OSM   H17G11493   0.675   5.150   5.348 -0.4519 -0.2502 -0.1306
  111OSM   C18F11494   0.738   5.182   5.144 -1.0683  0.1942 -0.1871
  111OSM   H18F11495   0.842   5.144   5.145 -0.6635  1.1099 -2.4776
  111OSM   H18G11496   0.741   5.260   5.065  1.1175  1.4310  1.0037
  111OSM   H18H11497   0.675   5.097   5.112 -1.4625  0.1664  0.6259
  112OSM      N11498   4.732   1.514   7.663 -0.0269  0.4755 -0.0228
  112OSM    C1511499   4.733   1.384   7.730  0.5144  0.4082 -0.1021
  112OSM   H15A11500   4.836   1.355   7.745  0.3838  0.7073  1.4631
  112OSM   H15B11501   4.681   1.309   7.672 -1.7034  0.9506  1.0694
  112OSM   H15C11502   4.687   1.401   7.826 -2.3995 -1.3307 -1.0545
  112OSM    C1411503   4.788   1.624   7.756 -0.6467 -0.3050  0.6437
  112OSM   H14A11504   4.711   1.669   7.817 -1.1669  0.1730 -0.3370
  112OSM   H14B11505   4.828   1.706   7.699  1.5402 -2.0557 -0.5085
  112OSM   H14C11506   4.860   1.588   7.828  0.8880  1.4230  0.0646
  112OSM    C1311507   4.809   1.504   7.540  0.8005 -0.1361 -0.1747
  112OSM   H13A11508   4.813   1.593   7.479  0.9223  0.4313  0.6373
  112OSM   H13B11509   4.769   1.420   7.484  2.8091 -1.5062  0.3402
  112OSM   H13C11510   4.907   1.467   7.567  0.0077 -0.7032  2.1363
  112OSM    C1211511   4.596   1.550   7.621  0.2033 -0.2611  0.6871
  112OSM   H12A11512   4.615   1.593   7.524 -1.1461  0.8491  0.8803
  112OSM   H12B11513   4.545   1.611   7.694 -0.3856 -0.9580  0.8799
  112OSM    C1111514   4.492   1.444   7.588  0.2260  0.1787 -0.7978
  112OSM   H11A11515   4.399   1.487   7.546 -0.9685  0.1530  1.6133
  112OSM   H11B11516   4.463   1.389   7.680 -0.6292  2.8632  0.6230
  112OSM      P11517   4.474   1.230   7.446  0.2703  0.0791  0.0471
  112OSM    O1311518   4.572   1.159   7.353 -0.4829  0.5328 -0.6443
  112OSM    O1411519   4.434   1.160   7.570  0.2144 -0.0334 -0.0643
  112OSM    O1111520   4.345   1.274   7.368 -0.3372 -0.1967  0.2044
  112OSM    O1211521   4.557   1.349   7.497  0.2148 -1.1346 -0.1639
  112OSM    C1S11522   4.362   1.388   7.278  0.3027  0.0400  0.3058
  112OSM    H1S11523   4.441   1.358   7.205 -1.0996 -0.3338 -1.1168
  112OSM    H1T11524   4.376   1.481   7.337 -0.7962 -1.2907  2.7717
  112OSM     NF11525   4.250   1.475   7.064  0.5313 -0.0177 -0.4039
  112OSM    HNF11526   4.203   1.563   7.058 -0.5862 -0.3158  2.5825
  112OSM    C2S11527   4.232   1.392   7.184 -0.2583  0.3066  0.3019
  112OSM    H2S11528   4.212   1.286   7.158  1.2264 -0.5526  2.3181
  112OSM    C3S11529   4.102   1.435   7.271  0.2769 -0.0954  0.7417
  112OSM    H3S11530   4.099   1.545   7.285 -1.7094 -0.1214  0.7563
  112OSM     O311531   4.088   1.382   7.398 -0.5807 -0.1344  0.0611
  112OSM    HO311532   4.169   1.333   7.414  1.0125  1.2373 -2.8756
  112OSM    C4S11533   3.979   1.399   7.189  0.3240 -1.0016  0.2127
  112OSM    H4S11534   3.929   1.490   7.155  1.8285 -0.1584  0.1639
  112OSM    C5S11535   3.936   1.272   7.161 -0.1639 -0.2975  0.5695
  112OSM    H5S11536   3.989   1.182   7.196  0.2420  0.0875  0.9549
  112OSM    C6S11537   3.809   1.241   7.081  0.2037 -0.8773 -0.8045
  112OSM    H6S11538   3.722   1.308   7.098  0.4614 -1.2082  2.3834
  112OSM    H6T11539   3.772   1.141   7.112 -1.3647  0.3273  1.4561
  112OSM    C7S11540   3.836   1.240   6.927 -0.0856  0.0270 -0.5145
  112OSM    H7S11541   3.944   1.242   6.901  0.3051 -3.1904  0.4399
  112OSM    H7T11542   3.780   1.321   6.874  1.6451  0.1698 -2.2248
  112OSM    C8S11543   3.777   1.113   6.849  0.0997 -0.8094 -0.5326
  112OSM    H8S11544   3.829   1.017   6.870  1.2146 -0.1117 -0.0239
  112OSM    H8T11545   3.806   1.131   6.743  1.1111  0.9224 -0.0138
  112OSM    C9S11546   3.621   1.106   6.860 -0.0928  0.0420  0.4674
  112OSM    H9S11547   3.576   1.204   6.833 -2.1987 -0.6504  1.2343
  112OSM    H9T11548   3.577   1.073   6.957 -0.3541 -2.2145 -0.3565
  112OSM   C10S11549   3.556   1.006   6.758 -0.0058  0.4040 -0.4454
  112OSM   H10S11550   3.454   0.986   6.799  0.1247 -0.6270 -0.6022
  112OSM   H10T11551   3.600   0.904   6.752 -0.4974  0.2408 -1.4598
  112OSM   C11S11552   3.559   1.069   6.614  0.0807  0.3098 -0.1562
  112OSM   H11S11553   3.664   1.103   6.598  0.2301 -0.7238 -1.5033
  112OSM   H11T11554   3.497   1.161   6.610  0.7886  0.7735 -0.7363
  112OSM   C12S11555   3.515   0.968   6.505  0.5415 -0.1988  0.2011
  112OSM   H12S11556   3.405   0.963   6.522 -0.0439  0.1148 -2.9540
  112OSM   H12T11557   3.564   0.869   6.523  0.0762 -0.2706  1.1166
  112OSM   C13S11558   3.551   1.002   6.358  1.5238  1.0429  0.5456
  112OSM   H13S11559   3.656   0.976   6.330  1.2141  0.6287 -0.2586
  112OSM   H13T11560   3.530   1.107   6.327 -0.4655  0.6575  0.4427
  112OSM   C14S11561   3.450   0.926   6.262  0.3200 -0.1397 -0.3814
  112OSM   H14S11562   3.346   0.959   6.282  0.4415  1.5431 -2.2396
  112OSM   H14T11563   3.467   0.818   6.281  0.6607 -0.2776 -1.4156
  112OSM   C15S11564   3.488   0.942   6.116 -0.3615 -0.5462  0.2511
  112OSM   H15S11565   3.594   0.908   6.108 -1.1367 -2.9918 -0.4891
  112OSM   H15T11566   3.487   1.051   6.092  1.0981 -0.2309  1.4447
  112OSM   C16S11567   3.409   0.845   6.019 -0.0841 -1.1542 -0.5132
  112OSM   H16S11568   3.301   0.866   6.037  0.7350  1.2262  2.4980
  112OSM   H16T11569   3.433   0.737   6.034  1.0777 -0.9097 -0.5743
  112OSM   C17S11570   3.445   0.876   5.864 -0.8206  0.0902 -0.7026
  112OSM   H17S11571   3.548   0.838   5.848 -1.4180 -2.2380  0.5328
  112OSM   H17T11572   3.434   0.986   5.853 -2.6324  0.1754  1.3174
  112OSM   C18S11573   3.345   0.806   5.773  0.4133 -0.4030 -0.0763
  112OSM   H18S11574   3.373   0.818   5.666 -0.2094 -1.3566 -0.3672
  112OSM   H18T11575   3.242   0.845   5.790  0.4799 -0.3975  0.3084
  112OSM   H18U11576   3.346   0.695   5.783  0.4278 -0.3961 -0.0020
  112OSM    C1F11577   4.306   1.425   6.951  0.4556 -0.2725 -0.8314
  112OSM     OF11578   4.351   1.311   6.953  0.2615  0.6952 -0.0239
  112OSM    C2F11579   4.317   1.515   6.827  0.4450 -0.1802 -0.9544
  112OSM    H2F11580   4.396   1.592   6.839  1.1333 -0.8509 -1.1499
  112OSM    H2G11581   4.219   1.566   6.814 -1.3608 -3.0530  0.1826
  112OSM    C3F11582   4.346   1.431   6.705 -0.6315 -0.7055  0.3164
  112OSM    H3F11583   4.278   1.344   6.699  1.9413 -2.7280 -2.8110
  112OSM    H3G11584   4.446   1.382   6.710 -0.1250 -0.6745 -4.5674
  112OSM    C4F11585   4.332   1.502   6.575 -0.1941 -0.9804 -0.5281
  112OSM    H4F11586   4.399   1.590   6.584 -1.9808  0.5219 -1.3387
  112OSM    H4G11587   4.229   1.541   6.569 -0.7700 -2.3254  0.1811
  112OSM    C5F11588   4.366   1.424   6.447 -0.2179 -0.6897 -0.2423
  112OSM    H5F11589   4.321   1.324   6.467 -1.4487 -0.4418 -1.6527
  112OSM    H5G11590   4.470   1.391   6.424 -0.0389  0.7552 -1.6909
  112OSM    C6F11591   4.304   1.488   6.322 -0.1309  0.6638 -0.6305
  112OSM    H6F11592   4.354   1.586   6.310  0.6478  0.7473  2.4167
  112OSM    H6G11593   4.195   1.501   6.342 -0.1147 -0.1005  0.0245
  112OSM    C7F11594   4.322   1.400   6.198  0.3713  0.0438  0.1665
  112OSM    H7F11595   4.223   1.350   6.187  0.9104 -1.7956  2.7957
  112OSM    H7G11596   4.391   1.317   6.223  0.2733 -0.1219 -0.1041
  112OSM    C8F11597   4.365   1.474   6.073 -0.0702  0.5544  0.0905
  112OSM    H8F11598   4.454   1.533   6.102  0.5785 -0.1442 -0.4645
  112OSM    H8G11599   4.288   1.545   6.036 -0.5670 -0.7055 -1.4225
  112OSM    C9F11600   4.408   1.384   5.962 -0.3919 -0.5155  0.1725
  112OSM    H9F11601   4.510   1.349   5.983  0.3217  1.3797  0.0651
  112OSM   C10F11602   4.353   1.351   5.848  0.1401  0.5882  0.3126
  112OSM   H10F11603   4.396   1.280   5.777 -2.6043  1.5695 -2.5384
  112OSM   C11F11604   4.213   1.379   5.806 -0.1927  0.8613 -0.0379
  112OSM   H11F11605   4.155   1.406   5.897 -0.1474 -0.0514  0.2599
  112OSM   H11G11606   4.170   1.285   5.765  1.4125 -1.1434  2.5687
  112OSM   C12F11607   4.188   1.488   5.697  0.3829  0.1522  0.2167
  112OSM   H12F11608   4.223   1.585   5.736 -0.9608  1.7703 -2.3122
  112OSM   H12G11609   4.083   1.498   5.663  0.8378 -1.7790 -2.0554
  112OSM   C13F11610   4.257   1.459   5.561  0.2358  0.3542 -0.5922
  112OSM   H13F11611   4.364   1.433   5.571 -0.3364 -2.9973 -2.0343
  112OSM   H13G11612   4.250   1.558   5.510 -0.2453  1.1428  0.9272
  112OSM   C14F11613   4.191   1.352   5.479 -0.1673 -0.1462  0.0160
  112OSM   H14F11614   4.126   1.284   5.538  1.1026 -1.0265  0.4380
  112OSM   H14G11615   4.270   1.285   5.441  0.5427  0.2196  0.8159
  112OSM   C15F11616   4.106   1.405   5.361 -0.3719  0.6426  0.5339
  112OSM   H15F11617   4.163   1.456   5.281 -2.1333  1.2809 -0.3611
  112OSM   H15G11618   4.031   1.477   5.401 -1.2788  0.5697 -0.9814
  112OSM   C16F11619   4.021   1.290   5.292  0.4123  0.1012 -0.4472
  112OSM   H16F11620   4.089   1.209   5.257 -1.2327 -1.5016 -0.0842
  112OSM   H16G11621   3.983   1.335   5.198 -1.1974 -1.8055 -0.7731
  112OSM   C17F11622   3.904   1.222   5.369 -0.4598 -0.5407  0.3126
  112OSM   H17F11623   3.808   1.276   5.353 -0.3399 -0.4015  0.0674
  112OSM   H17G11624   3.922   1.223   5.478  2.8994 -1.9881 -0.1244
  112OSM   C18F11625   3.883   1.077   5.313 -0.6529 -0.1309 -0.5097
  112OSM   H18F11626   3.780   1.045   5.339 -1.3274  1.0025 -1.6394
  112OSM   H18G11627   3.963   1.009   5.350 -0.2461 -0.6879 -2.2904
  112OSM   H18H11628   3.879   1.064   5.202 -1.1709 -0.8128 -0.4212
  113OSM      N11629   1.835   4.319   7.016  0.1951 -0.8425  0.1472
  113OSM    C1511630   1.971   4.318   7.073  0.2550 -0.5214 -0.1736
  113OSM   H15A11631   2.041   4.250   7.028 -0.3763 -2.1320  1.1629
  113OSM   H15B11632   1.977   4.297   7.178  1.5292 -1.6880 -0.4550
  113OSM   H15C11633   2.027   4.410   7.070  1.5975 -1.2881  0.7390
  113OSM    C1411634   1.759   4.440   7.075  0.5726  0.6650  0.0993
  113OSM   H14A11635   1.782   4.522   7.008 -1.8077 -0.2375 -1.9966
  113OSM   H14B11636   1.785   4.465   7.176 -0.0358 -1.7072  0.9025
  113OSM   H14C11637   1.653   4.429   7.059  0.5577 -0.0027  0.5821
  113OSM    C1311638   1.838   4.337   6.873 -0.3038 -0.0418  0.6556
  113OSM   H13A11639   1.908   4.267   6.828 -0.0729  1.5760 -1.7113
  113OSM   H13B11640   1.895   4.425   6.848  1.3605 -1.6915 -1.8303
  113OSM   H13C11641   1.745   4.352   6.819  0.6442  1.8100 -0.5619
  113OSM    C1211642   1.773   4.184   7.047  0.9104  0.0467 -0.1571
  113OSM   H12A11643   1.803   4.144   7.143  0.8990 -1.2660 -0.6941
  113OSM   H12B11644   1.817   4.101   6.995  0.0896 -1.0447  0.8222
  113OSM    C1111645   1.626   4.161   7.027  0.6537 -0.3360 -0.5156
  113OSM   H11A11646   1.581   4.200   6.933  2.5529  0.8103 -1.0103
  113OSM   H11B11647   1.563   4.206   7.106  1.3277 -0.0464 -0.1338
  113OSM      P11648   1.462   3.967   7.035 -0.1308 -0.1371 -0.3881
  113OSM    O1311649   1.457   3.823   7.026  0.1084  0.3959 -0.0853
  113OSM    O1411650   1.412   4.029   7.163 -0.0423  0.1012  0.2010
  113OSM    O1111651   1.392   4.030   6.905  0.3135  0.6159  0.4270
  113OSM    O1211652   1.609   4.019   7.019 -0.5421 -0.2087 -0.3737
  113OSM    C1S11653   1.448   3.988   6.775 -0.2239 -0.2396  0.0543
  113OSM    H1S11654   1.486   3.885   6.791  1.5108  0.7928  3.7283
  113OSM    H1T11655   1.522   4.063   6.740 -2.0771  0.6914 -2.0789
  113OSM     NF11656   1.345   3.876   6.569  1.0575 -0.0939  0.3770
  113OSM    HNF11657   1.356   3.912   6.477  0.4944  1.4708  0.9046
  113OSM    C2S11658   1.328   3.975   6.679 -0.5800  0.6500  0.4944
  113OSM    H2S11659   1.239   3.952   6.741 -0.3555 -0.6459  0.3535
  113OSM    C3S11660   1.310   4.119   6.631  0.6047  0.5703  0.8904
  113OSM    H3S11661   1.410   4.149   6.593  1.0572 -3.6233 -1.9441
  113OSM     O311662   1.268   4.212   6.726  0.0857 -0.3992 -0.0442
  113OSM    HO311663   1.287   4.162   6.806  0.9451 -0.6259 -0.3788
  113OSM    C4S11664   1.204   4.121   6.511  0.5316  0.5684 -0.0222
  113OSM    H4S11665   1.243   4.092   6.413 -2.5897  0.3822 -1.3128
  113OSM    C5S11666   1.068   4.146   6.526 -0.2677  0.1440 -0.5421
  113OSM    H5S11667   1.016   4.175   6.619  0.6252 -0.4256  0.1479
  113OSM    C6S11668   0.975   4.142   6.414  0.2565 -0.1709 -0.0648
  113OSM    H6S11669   0.924   4.241   6.409 -0.8478 -0.5431  2.3718
  113OSM    H6T11670   0.885   4.078   6.428  0.0624 -0.0642 -0.7615
  113OSM    C7S11671   1.034   4.096   6.281 -0.0713 -0.1866 -0.0489
  113OSM    H7S11672   1.083   3.997   6.291 -1.7350 -1.2253 -1.5268
  113OSM    H7T11673   1.113   4.171   6.258 -1.3937  1.4239  0.3811
  113OSM    C8S11674   0.921   4.090   6.183  0.7563 -0.0113  0.3974
  113OSM    H8S11675   0.846   4.169   6.202 -0.8376 -1.5665  0.8515
  113OSM    H8T11676   0.865   3.995   6.195  0.3709  0.4448  2.5693
  113OSM    C9S11677   0.964   4.099   6.038 -0.0116  0.3448  0.1598
  113OSM    H9S11678   1.027   4.012   6.008 -0.7065 -0.5762  1.3281
  113OSM    H9T11679   1.034   4.185   6.034  2.5173 -1.6164 -1.7231
  113OSM   C10S11680   0.839   4.107   5.946 -0.5223 -0.5238  0.6515
  113OSM   H10S11681   0.783   4.192   5.988 -1.3374 -1.2588  1.0869
  113OSM   H10T11682   0.766   4.025   5.962  0.5555 -1.2763  1.9308
  113OSM   C11S11683   0.868   4.128   5.795  0.1472 -0.6933  0.2135
  113OSM   H11S11684   0.961   4.188   5.791  1.6445 -2.9743 -0.9784
  113OSM   H11T11685   0.791   4.200   5.760 -0.1631 -0.4427  1.3484
  113OSM   C12S11686   0.872   4.002   5.715  0.1727 -0.0846  0.0311
  113OSM   H12S11687   0.786   3.946   5.757 -0.0738  0.8513  0.8298
  113OSM   H12T11688   0.966   3.949   5.740  0.0524 -0.6862 -0.7566
  113OSM   C13S11689   0.869   4.017   5.557  0.7846  0.1081 -0.9633
  113OSM   H13S11690   0.770   4.056   5.525 -1.0480 -4.1254 -1.0955
  113OSM   H13T11691   0.882   3.915   5.514  1.2806 -0.2585  0.0154
  113OSM   C14S11692   0.985   4.101   5.495 -0.3637  0.3086 -0.4409
  113OSM   H14S11693   1.077   4.073   5.551  0.5368  1.1592 -1.4614
  113OSM   H14T11694   0.972   4.202   5.539  0.6544 -0.5435  2.0232
  113OSM   C15S11695   1.007   4.074   5.346  0.0720 -0.6187  0.2855
  113OSM   H15S11696   1.049   3.976   5.317 -0.0299 -0.4032 -0.6529
  113OSM   H15T11697   1.088   4.144   5.316  0.5241 -0.7291  1.2343
  113OSM   C16S11698   0.884   4.091   5.255  0.6941 -0.4407 -0.1043
  113OSM   H16S11699   0.838   4.189   5.281 -1.4517 -1.2450 -0.6432
  113OSM   H16T11700   0.806   4.015   5.277 -0.3110  0.7897  0.7089
  113OSM   C17S11701   0.916   4.092   5.110 -0.0926  0.3596 -0.3271
  113OSM   H17S11702   0.957   3.993   5.078  0.4324  0.3798  0.2406
  113OSM   H17T11703   0.994   4.166   5.082 -0.4551  0.5990 -0.7068
  113OSM   C18S11704   0.790   4.109   5.029 -0.7636 -0.3211  0.4433
  113OSM   H18S11705   0.826   4.120   4.924 -1.1466 -1.0918  0.2246
  113OSM   H18T11706   0.728   4.197   5.058  0.1464  0.2981  0.5571
  113OSM   H18U11707   0.729   4.016   5.022 -0.1510 -0.7376  0.5622
  113OSM    C1F11708   1.358   3.745   6.589 -0.1126 -0.2587 -0.2940
  113OSM     OF11709   1.314   3.700   6.694 -0.0674  0.9399 -0.1775
  113OSM    C2F11710   1.419   3.667   6.484  0.5003  0.5242 -0.5446
  113OSM    H2F11711   1.477   3.743   6.428 -0.9963  0.9807 -1.5712
  113OSM    H2G11712   1.351   3.605   6.420  0.7098 -1.6416  1.2301
  113OSM    C3F11713   1.522   3.560   6.531 -0.3810  0.3181  0.4005
  113OSM    H3F11714   1.467   3.476   6.579  0.6804 -0.6799 -0.0926
  113OSM    H3G11715   1.570   3.608   6.619  0.9514 -0.1067 -0.0704
  113OSM    C4F11716   1.629   3.524   6.431 -0.0940  0.6335 -1.0241
  113OSM    H4F11717   1.720   3.489   6.486  0.5160  2.6535 -0.6815
  113OSM    H4G11718   1.660   3.613   6.372 -2.4664  1.7543 -0.6634
  113OSM    C5F11719   1.586   3.410   6.343  0.1932  0.2865 -0.1474
  113OSM    H5F11720   1.487   3.428   6.297  1.0887  0.6166 -2.0395
  113OSM    H5G11721   1.571   3.315   6.399 -3.6304  0.5456 -0.4726
  113OSM    C6F11722   1.682   3.391   6.221  0.6621  0.4706 -0.4468
  113OSM    H6F11723   1.779   3.372   6.272 -1.1140 -0.3518  2.9168
  113OSM    H6G11724   1.684   3.481   6.156 -2.4250  0.2948 -0.9421
  113OSM    C7F11725   1.640   3.274   6.128  0.4150 -0.0591 -0.5341
  113OSM    H7F11726   1.537   3.303   6.100 -0.0741  1.3814  2.2914
  113OSM    H7G11727   1.623   3.183   6.189 -0.6831 -0.0344 -0.7808
  113OSM    C8F11728   1.722   3.241   6.005 -0.0253 -0.7212 -0.4343
  113OSM    H8F11729   1.687   3.144   5.965 -1.6438 -0.6262  0.6430
  113OSM    H8G11730   1.827   3.226   6.039  1.1385  2.7800 -2.0011
  113OSM    C9F11731   1.695   3.351   5.908  0.5578 -1.1371  0.0694
  113OSM    H9F11732   1.628   3.429   5.947  1.7776  1.7267 -3.1151
  113OSM   C10F11733   1.748   3.369   5.787  0.1328  0.3780 -0.1396
  113OSM   H10F11734   1.723   3.450   5.717  2.4811  2.1637  0.9389
  113OSM   C11F11735   1.844   3.260   5.726  0.4617 -0.7830 -0.2298
  113OSM   H11F11736   1.848   3.169   5.789  0.3320 -2.4606 -2.5187
  113OSM   H11G11737   1.952   3.287   5.721  0.8034 -1.4476  2.2049
  113OSM   C12F11738   1.795   3.227   5.589  0.2025  0.2751 -0.9362
  113OSM   H12F11739   1.684   3.225   5.584 -0.0311 -0.6540  2.2968
  113OSM   H12G11740   1.837   3.130   5.555  0.6027  0.7515 -1.8382
  113OSM   C13F11741   1.854   3.316   5.486 -0.0252  0.4587  0.1057
  113OSM   H13F11742   1.962   3.339   5.499  0.7007 -0.2008 -3.7712
  113OSM   H13G11743   1.799   3.412   5.496 -0.0690  0.6883 -2.0625
  113OSM   C14F11744   1.840   3.247   5.348  0.7220  0.1188 -0.5627
  113OSM   H14F11745   1.738   3.209   5.326  0.6841  0.6678 -1.3850
  113OSM   H14G11746   1.905   3.158   5.351 -0.5158 -0.8054  1.1537
  113OSM   C15F11747   1.880   3.342   5.235  0.8739 -0.0758 -0.7845
  113OSM   H15F11748   1.990   3.356   5.250  0.7195 -0.8722  1.5712
  113OSM   H15G11749   1.829   3.440   5.242 -0.8629 -1.0207  0.6329
  113OSM   C16F11750   1.839   3.293   5.094  0.0149  0.4181  0.3074
  113OSM   H16F11751   1.728   3.289   5.091  0.0613 -1.3659 -0.7196
  113OSM   H16G11752   1.868   3.188   5.073 -2.9618 -0.4504  0.1889
  113OSM   C17F11753   1.894   3.390   4.992 -0.3204 -0.4255  0.8768
  113OSM   H17F11754   2.004   3.401   4.980 -0.5465 -0.7385 -2.5202
  113OSM   H17G11755   1.867   3.494   5.021  0.9539 -0.4469  2.2331
  113OSM   C18F11756   1.840   3.357   4.851 -0.7978  0.3893  0.6454
  113OSM   H18F11757   1.875   3.430   4.775  0.5510  2.1118  2.7824
  113OSM   H18G11758   1.729   3.364   4.852 -0.9389 -0.6186 -1.3392
  113OSM   H18H11759   1.884   3.263   4.810  1.3421  1.1026  1.1851
  114OSM      N11760   1.873   3.356   7.626 -0.2672  0.4673  0.4373
  114OSM    C1511761   1.920   3.215   7.609 -0.0586 -0.6093 -0.3239
  114OSM   H15A11762   1.842   3.148   7.642  1.0365 -2.5211 -1.4234
  114OSM   H15B11763   2.008   3.202   7.670 -1.4801  0.7865  2.1885
  114OSM   H15C11764   1.931   3.199   7.503 -4.6842 -0.5218 -1.0474
  114OSM    C1411765   1.828   3.372   7.767  0.0586 -0.0659  0.3609
  114OSM   H14A11766   1.903   3.348   7.841 -0.2230  0.6971  0.9132
  114OSM   H14B11767   1.743   3.306   7.774  1.4958 -1.9395  0.9054
  114OSM   H14C11768   1.789   3.469   7.794 -4.3806 -2.0041  1.7074
  114OSM    C1311769   1.989   3.445   7.595 -0.5108 -0.2252  0.1958
  114OSM   H13A11770   2.015   3.423   7.492 -0.2444 -1.4458  0.5120
  114OSM   H13B11771   2.076   3.421   7.654 -0.5045 -2.8221 -0.7282
  114OSM   H13C11772   1.965   3.550   7.599 -0.9328 -0.3516  1.3560
  114OSM    C1211773   1.756   3.384   7.531 -0.3341 -0.4170  0.3610
  114OSM   H12A11774   1.720   3.482   7.557 -1.1221 -0.1651 -1.5716
  114OSM   H12B11775   1.673   3.317   7.550 -0.1890 -0.4978  0.7363
  114OSM    C1111776   1.787   3.377   7.377 -0.2154 -0.1948  0.1481
  114OSM   H11A11777   1.861   3.454   7.345 -2.3128  0.3587 -4.1981
  114OSM   H11B11778   1.687   3.396   7.332 -0.2082 -3.7525 -1.7066
  114OSM      P11779   1.727   3.138   7.306 -0.3748  0.5134 -0.1363
  114OSM    O1311780   1.756   3.017   7.387  0.5563 -0.1633  0.7955
  114OSM    O1411781   1.587   3.187   7.314 -0.1198  0.6427  0.0467
  114OSM    O1111782   1.779   3.101   7.162 -0.6255  0.2130 -0.4210
  114OSM    O1211783   1.833   3.251   7.341  0.4850  0.2217  0.1743
  114OSM    C1S11784   1.780   3.180   7.045 -0.0406 -0.2423 -0.3878
  114OSM    H1S11785   1.860   3.256   7.058 -0.1051 -0.1344 -0.6095
  114OSM    H1T11786   1.689   3.244   7.036  0.0573  0.3540  2.1551
  114OSM     NF11787   1.810   3.198   6.806 -0.4574  0.0840 -0.7991
  114OSM    HNF11788   1.722   3.231   6.772 -1.1065 -2.1838 -1.4966
  114OSM    C2S11789   1.803   3.101   6.917 -0.5332 -0.5926  0.5476
  114OSM    H2S11790   1.897   3.044   6.931  0.7720  1.5321  0.8163
  114OSM    C3S11791   1.691   2.998   6.899 -0.2193  0.3769 -0.7195
  114OSM    H3S11792   1.597   3.057   6.908 -1.7473 -2.1561  1.5688
  114OSM     O311793   1.692   2.895   7.002  0.8792  0.1820  0.4583
  114OSM    HO311794   1.765   2.925   7.057  0.6106  0.5853  0.5932
  114OSM    C4S11795   1.725   2.933   6.771  0.2061  0.1836  0.4966
  114OSM    H4S11796   1.819   2.875   6.767 -0.9639 -1.7206 -0.6238
  114OSM    C5S11797   1.636   2.927   6.664 -0.3170  0.2312  0.1553
  114OSM    H5S11798   1.534   2.968   6.673 -0.5372  0.3682 -2.3217
  114OSM    C6S11799   1.657   2.843   6.546  0.1264  0.3308  0.3148
  114OSM    H6S11800   1.568   2.779   6.530  0.4145 -0.4973  1.8159
  114OSM    H6T11801   1.739   2.770   6.561 -0.4116 -0.4224 -0.3802
  114OSM    C7S11802   1.693   2.920   6.417 -0.1507  0.2499  0.5145
  114OSM    H7S11803   1.783   2.986   6.419  0.3003 -0.1103 -2.7257
  114OSM    H7T11804   1.605   2.986   6.404 -0.2317 -0.0476 -0.5418
  114OSM    C8S11805   1.700   2.830   6.298  0.1981 -0.0534  0.5043
  114OSM    H8S11806   1.613   2.762   6.300 -0.2580  0.1526 -3.4440
  114OSM    H8T11807   1.796   2.777   6.314  1.4297  1.0163 -2.5341
  114OSM    C9S11808   1.706   2.903   6.165 -0.7617  0.6187  0.0059
  114OSM    H9S11809   1.770   2.992   6.181  0.9794 -0.8393  1.5727
  114OSM    H9T11810   1.604   2.936   6.135 -0.8966  1.6418  1.5296
  114OSM   C10S11811   1.756   2.810   6.053 -0.0926  0.0328 -0.2936
  114OSM   H10S11812   1.701   2.716   6.078 -1.7765  0.9385 -0.4969
  114OSM   H10T11813   1.866   2.798   6.069 -0.4926 -0.1139  3.0994
  114OSM   C11S11814   1.726   2.864   5.912 -0.1187 -0.7459 -0.4118
  114OSM   H11S11815   1.780   2.959   5.896  1.7269 -1.8653 -1.1562
  114OSM   H11T11816   1.616   2.869   5.896 -0.3403  0.9036  1.3170
  114OSM   C12S11817   1.772   2.779   5.797 -0.2195 -0.0231  0.5658
  114OSM   H12S11818   1.733   2.675   5.788 -0.0135  0.0754 -2.8921
  114OSM   H12T11819   1.881   2.761   5.795 -0.5749 -2.5325  0.9998
  114OSM   C13S11820   1.745   2.842   5.659  0.2204 -0.1439  0.0200
  114OSM   H13S11821   1.816   2.928   5.657  1.3333 -1.0272 -2.3873
  114OSM   H13T11822   1.639   2.874   5.651 -0.0759 -1.0969  0.1109
  114OSM   C14S11823   1.781   2.754   5.543 -0.5838  0.3230 -0.5479
  114OSM   H14S11824   1.712   2.667   5.544  0.9507 -1.0021 -2.2373
  114OSM   H14T11825   1.881   2.719   5.579  0.7860  2.9582 -1.5259
  114OSM   C15S11826   1.802   2.817   5.411 -0.2163 -0.0520  0.1781
  114OSM   H15S11827   1.869   2.905   5.424  1.1824 -1.2592  1.4280
  114OSM   H15T11828   1.703   2.847   5.371 -0.7080  0.5591  1.7523
  114OSM   C16S11829   1.876   2.730   5.317 -0.0777  0.1027  0.2412
  114OSM   H16S11830   1.820   2.637   5.295 -1.1201  1.1317 -1.6350
  114OSM   H16T11831   1.964   2.687   5.371 -0.6714 -1.1018  0.2769
  114OSM   C17S11832   1.921   2.810   5.189  0.0698  0.2899  0.1365
  114OSM   H17S11833   1.978   2.905   5.201 -1.5427  1.6094 -1.8614
  114OSM   H17T11834   1.833   2.830   5.124  1.6306 -1.5913 -2.7507
  114OSM   C18S11835   1.997   2.707   5.101  0.1171  0.3661 -0.3111
  114OSM   H18S11836   2.090   2.680   5.156 -1.6619  0.7656  3.1566
  114OSM   H18T11837   2.015   2.745   4.998  0.1084 -3.3815 -1.8628
  114OSM   H18U11838   1.932   2.619   5.083 -1.5689  1.4161  0.4965
  114OSM    C1F11839   1.922   3.261   6.779  0.1189  0.1843 -0.4772
  114OSM     OF11840   2.001   3.296   6.870 -0.4266 -0.7154  0.0567
  114OSM    C2F11841   1.942   3.304   6.637 -0.3095  0.3044  0.0903
  114OSM    H2F11842   1.911   3.410   6.627  0.1228  0.5585  1.2125
  114OSM    H2G11843   1.873   3.246   6.573 -0.0660 -0.9306  0.9075
  114OSM    C3F11844   2.090   3.295   6.595 -0.3275 -0.5446  0.6366
  114OSM    H3F11845   2.129   3.193   6.619  2.6443  0.1617 -0.7389
  114OSM    H3G11846   2.152   3.378   6.635 -1.0301  0.1616  0.2748
  114OSM    C4F11847   2.103   3.288   6.444  0.0198  0.3566  1.1858
  114OSM    H4F11848   2.070   3.379   6.389 -0.8035 -1.5671 -1.7198
  114OSM    H4G11849   2.034   3.214   6.399 -0.2222  1.5646 -0.5299
  114OSM    C5F11850   2.243   3.258   6.389  0.3208  0.5245 -0.4052
  114OSM    H5F11851   2.293   3.185   6.456  0.9778  0.9818 -0.3939
  114OSM    H5G11852   2.293   3.356   6.379  1.0412  0.1325 -0.6574
  114OSM    C6F11853   2.234   3.196   6.250 -0.3446  0.2117  0.3217
  114OSM    H6F11854   2.328   3.214   6.193  0.1947 -4.2401 -0.5273
  114OSM    H6G11855   2.145   3.239   6.200 -0.0454  0.7967  0.2838
  114OSM    C7F11856   2.220   3.046   6.258  0.1001  0.2893 -0.4769
  114OSM    H7F11857   2.131   3.014   6.315  0.2954  1.4029  0.4980
  114OSM    H7G11858   2.307   3.002   6.312  0.1006  1.5259  0.5689
  114OSM    C8F11859   2.220   2.972   6.121  0.1570  0.8060  0.3421
  114OSM    H8F11860   2.238   2.866   6.151 -1.0635  1.1230  2.3150
  114OSM    H8G11861   2.308   3.010   6.065 -0.3877  0.9579 -0.4301
  114OSM    C9F11862   2.105   2.971   6.023 -0.1395  0.2004 -0.3636
  114OSM    H9F11863   2.017   2.984   6.088  0.9724 -2.5931  1.8860
  114OSM   C10F11864   2.100   2.965   5.891  0.4557 -0.3056  0.6479
  114OSM   H10F11865   2.002   2.974   5.841  0.4070  1.0631  0.9539
  114OSM   C11F11866   2.213   2.947   5.797  0.8556 -0.0481 -0.1548
  114OSM   H11F11867   2.299   2.894   5.843 -0.0738 -2.8711 -1.3903
  114OSM   H11G11868   2.244   3.051   5.777  0.4142  0.3926  1.3373
  114OSM   C12F11869   2.167   2.879   5.665 -0.8889  0.1063 -0.7330
  114OSM   H12F11870   2.060   2.889   5.637 -1.2416 -1.8202 -0.2586
  114OSM   H12G11871   2.182   2.769   5.674  0.2366  0.2212 -1.0984
  114OSM   C13F11872   2.238   2.932   5.537  0.1211 -0.4003 -0.4286
  114OSM   H13F11873   2.347   2.925   5.554  0.4314 -0.4389 -2.1808
  114OSM   H13G11874   2.220   3.041   5.527  0.9423 -0.0679  1.4562
  114OSM   C14F11875   2.210   2.863   5.397  0.1573 -0.1683 -0.1867
  114OSM   H14F11876   2.102   2.877   5.374  0.2287  3.0804  1.0277
  114OSM   H14G11877   2.209   2.754   5.419  2.4030 -0.3485 -0.7673
  114OSM   C15F11878   2.312   2.900   5.290  0.5407 -0.6894  0.9647
  114OSM   H15F11879   2.279   2.841   5.201  1.1727  0.7343 -0.2522
  114OSM   H15G11880   2.401   2.846   5.331 -1.2269 -3.8427  0.9784
  114OSM   C16F11881   2.337   3.053   5.267 -0.2927  0.0199  0.2753
  114OSM   H16F11882   2.435   3.045   5.215 -1.1880  1.0602 -1.6767
  114OSM   H16G11883   2.339   3.114   5.360 -1.6071  1.1662 -0.4194
  114OSM   C17F11884   2.234   3.114   5.175 -0.6236  0.1394 -0.1231
  114OSM   H17F11885   2.136   3.115   5.227 -1.9260 -0.4138 -2.4579
  114OSM   H17G11886   2.210   3.049   5.089  0.9208  2.4180 -2.4455
  114OSM   C18F11887   2.278   3.247   5.118 -0.0833  1.1057  0.3854
  114OSM   H18F11888   2.320   3.317   5.194  1.0628 -0.5341  1.3085
  114OSM   H18G11889   2.190   3.296   5.071 -0.1588  1.3695  0.7881
  114OSM   H18H11890   2.351   3.230   5.036 -0.9140 -0.7517 -0.0020
  115OSM      N11891   1.418   5.614   7.132 -0.1081  0.3360 -0.3572
  115OSM    C1511892   1.405   5.761   7.128 -0.0040  0.5644  0.1964
  115OSM   H15A11893   1.410   5.807   7.226 -0.6180 -0.5789  0.7833
  115OSM   H15B11894   1.308   5.789   7.089 -0.3065  1.3458  1.4458
  115OSM   H15C11895   1.484   5.804   7.068 -2.5406  2.4799 -2.0679
  115OSM    C1411896   1.291   5.568   7.205 -0.0381  0.5623  0.1460
  115OSM   H14A11897   1.288   5.604   7.307 -2.2134  0.8357  0.0316
  115OSM   H14B11898   1.304   5.461   7.206  2.3915  0.8131  1.2745
  115OSM   H14C11899   1.199   5.599   7.158 -0.2166 -0.0566  0.0796
  115OSM    C1311900   1.417   5.561   6.998  0.6297  0.2630 -0.0492
  115OSM   H13A11901   1.317   5.559   6.955  1.6095 -0.0213 -2.4861
  115OSM   H13B11902   1.435   5.454   7.003  0.4113  0.2211 -0.1036
  115OSM   H13C11903   1.487   5.605   6.928 -0.1208  1.0244 -0.3401
  115OSM    C1211904   1.540   5.560   7.204  0.8183 -0.6390 -0.4728
  115OSM   H12A11905   1.548   5.621   7.293 -0.6617  1.9094 -1.9819
  115OSM   H12B11906   1.626   5.592   7.148  0.4580  1.6102  0.1474
  115OSM    C1111907   1.546   5.410   7.249 -0.1248  0.6268 -0.3717
  115OSM   H11A11908   1.462   5.378   7.314 -0.1430 -1.3798 -1.3252
  115OSM   H11B11909   1.636   5.405   7.314 -1.1793  2.8981  1.4472
  115OSM      P11910   1.694   5.312   7.076 -0.1207 -0.1803  0.2209
  115OSM    O1311911   1.729   5.444   7.019  0.2030  0.1533 -0.1453
  115OSM    O1411912   1.779   5.264   7.185  0.5151 -0.4354 -0.2646
  115OSM    O1111913   1.690   5.204   6.959 -0.4503 -0.5328 -0.6879
  115OSM    O1211914   1.548   5.321   7.139  0.2396 -0.5108 -0.3740
  115OSM    C1S11915   1.563   5.177   6.900  0.5211  0.4920 -0.3490
  115OSM    H1S11916   1.479   5.205   6.966  0.2629  1.8830 -1.2362
  115OSM    H1T11917   1.557   5.068   6.879  0.2718  0.5624 -0.6439
  115OSM     NF11918   1.411   5.216   6.697  0.4186  0.3384  0.1442
  115OSM    HNF11919   1.417   5.186   6.602  1.8650 -2.8337  1.0811
  115OSM    C2S11920   1.538   5.240   6.764  0.1138  0.3879  0.1368
  115OSM    H2S11921   1.533   5.349   6.782 -1.3757  0.8926 -2.7303
  115OSM    C3S11922   1.661   5.226   6.670  0.6524 -0.5092 -0.3534
  115OSM    H3S11923   1.674   5.120   6.639 -1.6047 -0.2520 -2.5417
  115OSM     O311924   1.787   5.266   6.718 -0.1491  0.6227 -0.1148
  115OSM    HO311925   1.773   5.272   6.813 -2.7520  1.7828 -0.4753
  115OSM    C4S11926   1.632   5.303   6.539  0.0046  0.1192 -0.3552
  115OSM    H4S11927   1.617   5.236   6.453 -0.0433  0.2309 -0.4343
  115OSM    C5S11928   1.646   5.437   6.523  0.0464  0.1043  0.2656
  115OSM    H5S11929   1.691   5.496   6.605  0.4680  1.4075 -0.8793
  115OSM    C6S11930   1.642   5.521   6.398  0.3770  0.6630 -0.1926
  115OSM    H6S11931   1.737   5.576   6.380  1.3005 -1.6072 -3.1093
  115OSM    H6T11932   1.562   5.596   6.420  0.0643  0.0186  0.9423
  115OSM    C7S11933   1.605   5.448   6.270  0.7596 -0.3224 -0.1579
  115OSM    H7S11934   1.512   5.393   6.298  0.6399  0.8951  2.0859
  115OSM    H7T11935   1.683   5.377   6.236  1.8874 -0.5169  2.5930
  115OSM    C8S11936   1.571   5.541   6.154  0.4210  0.7000  0.2702
  115OSM    H8S11937   1.652   5.602   6.110 -2.7136  3.6950 -1.8654
  115OSM    H8T11938   1.499   5.613   6.199  0.8700  1.6730 -0.5429
  115OSM    C9S11939   1.506   5.464   6.043 -0.2106 -0.7533  0.0847
  115OSM    H9S11940   1.413   5.425   6.089 -1.1628  1.1537 -0.0907
  115OSM    H9T11941   1.578   5.382   6.022  1.6430  0.9001 -0.4080
  115OSM   C10S11942   1.465   5.555   5.921 -0.3672  0.4785  0.0204
  115OSM   H10S11943   1.546   5.597   5.858 -1.7097  1.1011 -1.3656
  115OSM   H10T11944   1.408   5.640   5.963  0.3408  0.6869  0.5788
  115OSM   C11S11945   1.382   5.484   5.819 -0.0707  0.1221 -0.4503
  115OSM   H11S11946   1.283   5.462   5.865  0.4852 -1.4760  0.0725
  115OSM   H11T11947   1.441   5.391   5.802  2.1095  0.9984  1.6996
  115OSM   C12S11948   1.355   5.548   5.676  0.1275  0.4075 -0.2060
  115OSM   H12S11949   1.299   5.643   5.690 -0.3452  0.5424 -2.5687
  115OSM   H12T11950   1.293   5.476   5.620  0.2341 -0.4849  0.7898
  115OSM   C13S11951   1.484   5.587   5.596  0.3275 -0.7781 -0.4807
  115OSM   H13S11952   1.540   5.657   5.661 -0.5087 -1.6483  1.2548
  115OSM   H13T11953   1.455   5.636   5.501 -0.3597  0.9305  0.5556
  115OSM   C14S11954   1.568   5.470   5.562 -0.3937  0.3325 -0.2355
  115OSM   H14S11955   1.619   5.415   5.644 -0.4729  3.1498  1.8237
  115OSM   H14T11956   1.651   5.506   5.497  0.1743  1.4929  1.0729
  115OSM   C15S11957   1.497   5.361   5.486 -0.3157  0.3024 -0.6258
  115OSM   H15S11958   1.408   5.323   5.541  0.4385 -1.2769 -0.4489
  115OSM   H15T11959   1.569   5.277   5.485 -0.1834  0.2831  2.2568
  115OSM   C16S11960   1.450   5.409   5.347  0.5240 -0.1776 -0.7833
  115OSM   H16S11961   1.549   5.438   5.305  1.8243  0.4246  2.3908
  115OSM   H16T11962   1.373   5.489   5.344  0.7138  0.1198  1.0158
  115OSM   C17S11963   1.396   5.288   5.271  0.5961  0.2138 -0.3167
  115OSM   H17S11964   1.469   5.205   5.285 -0.7432 -0.6396  2.4001
  115OSM   H17T11965   1.384   5.302   5.162 -0.4968  0.0534 -0.2238
  115OSM   C18S11966   1.268   5.229   5.325 -0.5857  0.3407 -0.2951
  115OSM   H18S11967   1.182   5.287   5.284 -0.0719 -0.0879 -2.0700
  115OSM   H18T11968   1.262   5.229   5.436  1.6371  0.0655 -0.1191
  115OSM   H18U11969   1.251   5.127   5.286  0.1150  0.2673 -0.4198
  115OSM    C1F11970   1.292   5.247   6.748 -0.2880  0.3913 -0.0370
  115OSM     OF11971   1.294   5.343   6.828 -0.0205  0.2833 -0.0817
  115OSM    C2F11972   1.165   5.180   6.693  0.4874 -0.5085 -0.0639
  115OSM    H2F11973   1.192   5.074   6.669 -0.5958 -0.8967  0.3838
  115OSM    H2G11974   1.136   5.209   6.590  0.4359 -0.0887  0.0698
  115OSM    C3F11975   1.047   5.179   6.793  0.0388  0.1372  0.3196
  115OSM    H3F11976   1.029   5.285   6.820  2.2556  0.3537  1.1594
  115OSM    H3G11977   1.081   5.123   6.883  0.6277  0.2735  0.1852
  115OSM    C4F11978   0.927   5.104   6.727  0.5715  0.1753 -0.6784
  115OSM    H4F11979   0.888   5.154   6.636  0.7589  1.3042 -0.1431
  115OSM    H4G11980   0.839   5.115   6.795  1.4053 -1.3637  0.7189
  115OSM    C5F11981   0.953   4.956   6.702  0.3220  0.0606  0.1521
  115OSM    H5F11982   1.013   4.913   6.786  0.4588  3.6763  2.1011
  115OSM    H5G11983   1.025   4.939   6.618 -0.6592  0.1822 -0.7313
  115OSM    C6F11984   0.827   4.873   6.678 -0.5751 -0.4775 -0.2963
  115OSM    H6F11985   0.751   4.929   6.620 -1.1853 -1.3045 -0.3165
  115OSM    H6G11986   0.783   4.845   6.776  2.8889 -1.9548  0.9936
  115OSM    C7F11987   0.853   4.740   6.608 -1.1791  0.5331 -0.3220
  115OSM    H7F11988   0.759   4.683   6.592 -0.3681 -1.0419  0.3757
  115OSM    H7G11989   0.934   4.683   6.659 -1.1744  1.9886  1.4105
  115OSM    C8F11990   0.896   4.753   6.456  0.2850 -0.2611 -0.1252
  115OSM    H8F11991   0.975   4.830   6.444  0.5119 -0.2875  1.0345
  115OSM    H8G11992   0.803   4.785   6.404  0.9242  1.3713 -0.3234
  115OSM    C9F11993   0.950   4.629   6.394 -0.3991  0.4974 -0.4883
  115OSM    H9F11994   1.030   4.590   6.460  0.2425 -1.3892 -2.2648
  115OSM   C10F11995   0.902   4.551   6.295  0.1842 -0.4010  0.2783
  115OSM   H10F11996   0.951   4.456   6.267 -2.3770 -1.7097 -0.1021
  115OSM   C11F11997   0.780   4.589   6.215  0.1787  0.7239 -0.6190
  115OSM   H11F11998   0.784   4.695   6.180  0.8530  1.1060  0.5544
  115OSM   H11G11999   0.694   4.595   6.286 -0.4300  1.4186 -1.3912
  115OSM   C12F12000   0.763   4.491   6.103 -0.3689  0.1241  0.8059
  115OSM   H12F12001   0.735   4.386   6.123  0.5959 -0.6508 -1.5343
  115OSM   H12G12002   0.854   4.488   6.039  0.4738  2.1871  1.8276
  115OSM   C13F12003   0.642   4.530   6.010  0.0652  0.3076  0.5453
  115OSM   H13F12004   0.666   4.632   5.975  0.3203  0.0691  0.0042
  115OSM   H13G12005   0.544   4.536   6.061  0.0348 -1.1899  0.7097
  115OSM   C14F12006   0.636   4.439   5.881 -0.3744 -0.1941  0.0003
  115OSM   H14F12007   0.618   4.334   5.911 -2.5254  0.1743  0.1691
  115OSM   H14G12008   0.732   4.440   5.825  1.7948 -0.5900  3.4328
  115OSM   C15F12009   0.514   4.476   5.801 -0.0517 -0.1619  0.2103
  115OSM   H15F12010   0.499   4.586   5.789 -2.7813 -0.2663  1.8325
  115OSM   H15G12011   0.425   4.446   5.860 -0.9461  0.7631 -0.6294
  115OSM   C16F12012   0.526   4.405   5.669  0.2240  0.3976  0.9204
  115OSM   H16F12013   0.558   4.302   5.693 -0.9546  0.1872  1.6805
  115OSM   H16G12014   0.606   4.450   5.608 -1.6875  0.2564 -1.9009
  115OSM   C17F12015   0.397   4.410   5.579 -0.5087 -0.2211  0.5516
  115OSM   H17F12016   0.326   4.475   5.635 -1.8589 -0.1862 -1.1343
  115OSM   H17G12017   0.349   4.310   5.574  0.3580 -0.6072 -0.5154
  115OSM   C18F12018   0.433   4.458   5.436  0.4512  0.1875  0.0666
  115OSM   H18F12019   0.347   4.477   5.367  0.0001  2.8626  1.2252
  115OSM   H18G12020   0.498   4.387   5.383  0.1799 -1.5040  1.8717
  115OSM   H18H12021   0.504   4.543   5.445  2.1283 -1.1409 -0.1845
  116OSM      N12022   2.610   3.046   7.427 -0.6756  0.1174 -0.1259
  116OSM    C1512023   2.668   3.135   7.316  0.2235  0.0861  0.0081
  116OSM   H15A12024   2.594   3.170   7.245  1.1010  0.7719 -0.5877
  116OSM   H15B12025   2.739   3.084   7.252  0.6943 -1.2362  1.5068
  116OSM   H15C12026   2.723   3.221   7.350  2.5521 -0.5552 -1.7960
  116OSM    C1412027   2.727   2.990   7.505  0.2115  0.0441 -0.2050
  116OSM   H14A12028   2.786   3.065   7.557 -0.3265  0.1160  0.3194
  116OSM   H14B12029   2.804   2.936   7.453  1.0416  1.4575 -0.4869
  116OSM   H14C12030   2.691   2.942   7.595 -0.7829  0.7278 -0.2151
  116OSM    C1312031   2.536   3.140   7.519  0.1717 -0.8014 -0.3804
  116OSM   H13A12032   2.610   3.210   7.554  1.0343 -0.3463 -2.9179
  116OSM   H13B12033   2.496   3.088   7.605  0.4602 -1.9607 -0.9260
  116OSM   H13C12034   2.461   3.203   7.473 -0.8205 -1.0997  0.7767
  116OSM    C1212035   2.530   2.936   7.362  0.2151 -0.3939  0.1510
  116OSM   H12A12036   2.602   2.882   7.303 -1.8558 -1.1707 -1.8100
  116OSM   H12B12037   2.461   2.980   7.292  0.0608 -1.7992 -0.6215
  116OSM    C1112038   2.450   2.838   7.445 -0.1120 -0.0467  0.0226
  116OSM   H11A12039   2.523   2.783   7.509 -0.4138  0.7916  1.1112
  116OSM   H11B12040   2.416   2.755   7.379  1.2708  0.3508 -1.2591
  116OSM      P12041   2.221   2.954   7.444 -0.0234  0.0893 -0.2894
  116OSM    O1312042   2.113   2.855   7.438  0.4473  0.1436  0.3178
  116OSM    O1412043   2.189   3.091   7.475 -0.2869  0.1431  0.5951
  116OSM    O1112044   2.259   2.961   7.294  0.1501  0.1591 -0.0516
  116OSM    O1212045   2.341   2.896   7.525 -0.4123 -0.1842  0.2297
  116OSM    C1S12046   2.240   3.080   7.219 -0.4973  0.6602 -0.1071
  116OSM    H1S12047   2.290   3.170   7.260 -1.3392  0.3415  1.7183
  116OSM    H1T12048   2.131   3.097   7.212 -0.8045 -1.5799 -2.1907
  116OSM     NF12049   2.282   3.181   6.998 -0.0604  0.2306 -0.0606
  116OSM    HNF12050   2.205   3.209   6.941 -1.6692 -0.3195  1.7378
  116OSM    C2S12051   2.280   3.053   7.069  0.0218 -0.5023 -0.5398
  116OSM    H2S12052   2.385   3.017   7.064 -0.0328 -0.4702 -2.9446
  116OSM    C3S12053   2.194   2.939   7.007 -0.8198 -0.6378  0.3230
  116OSM    H3S12054   2.086   2.967   7.008 -0.5991  0.2757 -0.1129
  116OSM     O312055   2.195   2.813   7.073  0.5179  1.0570 -0.5511
  116OSM    HO312056   2.192   2.851   7.161 -0.4248  0.6107 -0.3765
  116OSM    C4S12057   2.233   2.926   6.867  0.5120 -0.4426  0.3158
  116OSM    H4S12058   2.340   2.918   6.841  0.1727 -0.2270 -1.2687
  116OSM    C5S12059   2.149   2.922   6.763  0.4892  0.4123  0.9895
  116OSM    H5S12060   2.040   2.915   6.779  0.1956  0.6017 -0.7128
  116OSM    C6S12061   2.195   2.896   6.618  0.2740  0.1033 -0.0969
  116OSM    H6S12062   2.285   2.832   6.608  0.7320  0.7261 -0.0621
  116OSM    H6T12063   2.214   2.988   6.558 -3.2818  0.5981 -0.6456
  116OSM    C7S12064   2.104   2.800   6.537  0.0481 -0.0708 -0.3016
  116OSM    H7S12065   2.126   2.795   6.428 -1.0391  0.6167 -0.5677
  116OSM    H7T12066   2.000   2.838   6.531 -0.4880 -1.4681 -0.1513
  116OSM    C8S12067   2.109   2.656   6.594 -0.1493  0.6294  0.6288
  116OSM    H8S12068   2.072   2.656   6.699 -1.4283 -1.3929  0.2302
  116OSM    H8T12069   2.216   2.626   6.587 -0.5696 -0.6952 -0.4135
  116OSM    C9S12070   2.014   2.555   6.525 -0.4720  0.0507  0.3948
  116OSM    H9S12071   1.918   2.601   6.555  0.3011  1.1212  1.3345
  116OSM    H9T12072   2.008   2.456   6.575  0.2450 -1.0020 -1.5083
  116OSM   C10S12073   2.027   2.554   6.374  0.5099  0.2292  0.0835
  116OSM   H10S12074   2.128   2.537   6.332 -0.7279 -1.1319 -2.6729
  116OSM   H10T12075   1.995   2.652   6.333 -2.5290 -1.3558 -1.7387
  116OSM   C11S12076   1.926   2.459   6.306  0.4698  0.1630  0.2452
  116OSM   H11S12077   1.824   2.483   6.343  0.3477 -0.8022  0.5750
  116OSM   H11T12078   1.939   2.353   6.337 -1.1253 -0.0315  0.3115
  116OSM   C12S12079   1.926   2.465   6.152 -0.4882 -0.3481  0.6674
  116OSM   H12S12080   2.013   2.405   6.118 -0.0014  0.6201  0.1514
  116OSM   H12T12081   1.949   2.569   6.119  1.4557 -0.4472  1.6165
  116OSM   C13S12082   1.811   2.398   6.078 -0.0505 -1.3540 -0.0127
  116OSM   H13S12083   1.720   2.461   6.091  1.4332  0.5717  1.9548
  116OSM   H13T12084   1.783   2.307   6.134  1.6039 -1.0975  1.3175
  116OSM   C14S12085   1.841   2.396   5.923  0.2159 -0.1757 -0.2075
  116OSM   H14S12086   1.936   2.341   5.908  0.1422 -0.0683 -1.1375
  116OSM   H14T12087   1.861   2.497   5.882  0.9469 -0.7367 -1.2743
  116OSM   C15S12088   1.743   2.312   5.844 -0.3268  0.3707 -0.0951
  116OSM   H15S12089   1.645   2.352   5.877  0.2114  0.3000  1.6710
  116OSM   H15T12090   1.746   2.207   5.880  1.0790  1.6619  4.1231
  116OSM   C16S12091   1.762   2.316   5.694 -0.4270 -0.1463 -0.5220
  116OSM   H16S12092   1.865   2.278   5.678  0.0729 -0.2105  2.3713
  116OSM   H16T12093   1.768   2.424   5.668  0.6639  0.4373  1.8398
  116OSM   C17S12094   1.663   2.247   5.596  0.0879  0.4949  0.1681
  116OSM   H17S12095   1.558   2.266   5.629  0.2381  0.3918  0.7236
  116OSM   H17T12096   1.678   2.137   5.596 -0.6533  0.3739  0.9685
  116OSM   C18S12097   1.672   2.312   5.458  0.4199 -0.5073 -0.4006
  116OSM   H18S12098   1.591   2.276   5.391 -1.2046  2.2418 -0.0824
  116OSM   H18T12099   1.755   2.269   5.398  1.0726 -2.1069  1.5157
  116OSM   H18U12100   1.673   2.423   5.456 -0.2966 -0.4985 -0.4285
  116OSM    C1F12101   2.370   3.276   7.020  0.2249  0.5166  0.0922
  116OSM     OF12102   2.460   3.272   7.106 -0.1195  0.3625 -0.2631
  116OSM    C2F12103   2.360   3.398   6.933  0.1962 -0.2702  0.5063
  116OSM    H2F12104   2.355   3.482   7.005  0.4669 -1.1752  1.6141
  116OSM    H2G12105   2.270   3.395   6.869  0.2168 -0.7909  0.5009
  116OSM    C3F12106   2.471   3.417   6.835 -0.7527 -0.1029  0.3264
  116OSM    H3F12107   2.569   3.406   6.887 -0.7592 -2.7889 -0.0580
  116OSM    H3G12108   2.452   3.521   6.801 -1.9712 -0.5857 -0.5682
  116OSM    C4F12109   2.462   3.320   6.715 -0.7923  0.0297  0.6862
  116OSM    H4F12110   2.505   3.382   6.633  1.0515 -2.1653 -0.1297
  116OSM    H4G12111   2.362   3.284   6.684 -0.5563 -1.1107  1.1824
  116OSM    C5F12112   2.563   3.205   6.716  0.4348 -0.2645  0.4395
  116OSM    H5F12113   2.544   3.139   6.803 -1.3340  0.4360  0.6158
  116OSM    H5G12114   2.660   3.259   6.726  0.7622 -0.5638 -0.8326
  116OSM    C6F12115   2.584   3.115   6.588 -0.2139 -0.3263  0.4674
  116OSM    H6F12116   2.489   3.059   6.577 -1.3163  1.5202  0.1555
  116OSM    H6G12117   2.662   3.038   6.606  0.1989 -0.3696 -1.3696
  116OSM    C7F12118   2.621   3.197   6.466 -0.7440 -0.0804  0.1704
  116OSM    H7F12119   2.698   3.275   6.487 -0.0844 -0.6169 -0.1973
  116OSM    H7G12120   2.533   3.251   6.425 -0.6167  0.0385  0.0527
  116OSM    C8F12121   2.672   3.115   6.347  0.1392 -0.1840 -0.0521
  116OSM    H8F12122   2.609   3.024   6.352  0.3404 -0.4833 -2.1011
  116OSM    H8G12123   2.776   3.088   6.375 -0.2715  0.5176  2.3645
  116OSM    C9F12124   2.639   3.184   6.212 -0.2248 -0.1853 -0.1072
  116OSM    H9F12125   2.651   3.293   6.220 -2.2974  0.0810 -0.1835
  116OSM   C10F12126   2.623   3.132   6.088 -0.0958 -0.2100 -0.5397
  116OSM   H10F12127   2.580   3.200   6.013  0.0911 -0.6770 -1.0750
  116OSM   C11F12128   2.620   2.980   6.066 -0.3257  0.5267  0.3773
  116OSM   H11F12129   2.515   2.954   6.043  0.3746 -0.9429 -1.4180
  116OSM   H11G12130   2.636   2.923   6.161 -1.6564 -3.1315 -1.3843
  116OSM   C12F12131   2.704   2.913   5.951  0.6877  0.2429 -0.4805
  116OSM   H12F12132   2.700   2.804   5.971 -1.9288  0.6316  1.8187
  116OSM   H12G12133   2.813   2.936   5.952  0.7244  0.2544 -2.0610
  116OSM   C13F12134   2.666   2.945   5.808  0.2619 -0.2114 -0.2914
  116OSM   H13F12135   2.650   3.054   5.796 -1.2093 -0.1720  1.5405
  116OSM   H13G12136   2.570   2.897   5.779 -0.1780  0.1601  0.5103
  116OSM   C14F12137   2.771   2.892   5.706 -0.1086 -0.8300 -0.6312
  116OSM   H14F12138   2.805   2.791   5.739  1.2319 -0.2041 -0.0256
  116OSM   H14G12139   2.863   2.953   5.713 -0.2482 -0.6740 -0.1153
  116OSM   C15F12140   2.721   2.880   5.563 -0.1885 -0.2001 -0.0452
  116OSM   H15F12141   2.661   2.972   5.544 -0.1339 -0.5810 -2.2313
  116OSM   H15G12142   2.661   2.788   5.550 -1.3860  0.5635 -0.0988
  116OSM   C16F12143   2.833   2.889   5.462 -1.2850  0.0564  0.7745
  116OSM   H16F12144   2.888   2.794   5.478 -3.3923 -1.4145 -0.4097
  116OSM   H16G12145   2.909   2.968   5.482 -0.4584  0.0617 -2.0101
  116OSM   C17F12146   2.771   2.899   5.320 -0.1541  0.1890 -0.8941
  116OSM   H17F12147   2.728   3.002   5.316  0.2399  0.3826 -0.2840
  116OSM   H17G12148   2.687   2.827   5.314 -2.6851  2.7476  0.9598
  116OSM   C18F12149   2.863   2.895   5.200 -0.3330  0.2781 -0.5096
  116OSM   H18F12150   2.949   2.965   5.207  0.3767 -0.6617  0.3256
  116OSM   H18G12151   2.812   2.916   5.103  1.9448 -0.4269 -1.9283
  116OSM   H18H12152   2.911   2.796   5.189 -0.0352  0.1353  1.5719
  117OSM      N12153   1.528   0.017   7.421 -0.2287 -0.3525 -0.6853
  117OSM    C1512154   1.398   0.082   7.395 -0.3066  0.2643 -0.6651
  117OSM   H15A12155   1.340   0.020   7.328  1.1950 -0.5518 -1.2403
  117OSM   H15B12156   1.410   0.178   7.346  3.3656  0.3351  0.0888
  117OSM   H15C12157   1.344   0.103   7.487  1.5014 -0.6535  0.6765
  117OSM    C1412158   1.595   0.006   7.283  0.1323 -0.3003 -0.0084
  117OSM   H14A12159   1.629   0.105   7.259 -0.3276  0.0549  0.7471
  117OSM   H14B12160   1.531  -0.030   7.204 -1.9104  0.9090  1.0112
  117OSM   H14C12161   1.681  -0.060   7.286  0.2640 -0.1098  0.6424
  117OSM    C1312162   1.619   0.112   7.497  0.5432  0.0803 -0.0050
  117OSM   H13A12163   1.610   0.209   7.451  1.4729 -0.6351 -1.7872
  117OSM   H13B12164   1.723   0.097   7.475  1.2364  1.2751  2.1452
  117OSM   H13C12165   1.598   0.118   7.603  0.7265 -2.1652  0.2114
  117OSM    C1212166   1.528  -0.117   7.491 -0.3902  0.4200  0.5728
  117OSM   H12A12167   1.509  -0.095   7.595 -0.0225 -4.0583  1.7991
  117OSM   H12B12168   1.629  -0.156   7.498 -0.1742  1.0128  0.8223
  117OSM    C1112169   1.440  -0.234   7.442  0.5947 -0.0293 -0.0561
  117OSM   H11A12170   1.452  -0.315   7.517  3.2492  1.1507  0.9035
  117OSM   H11B12171   1.474  -0.269   7.342  1.1612  2.0646 -0.6437
  117OSM      P12172   1.205  -0.219   7.330 -0.5079 -0.0144 -0.1721
  117OSM    O1312173   1.091  -0.297   7.387 -0.2922 -1.2036 -0.3032
  117OSM    O1412174   1.177  -0.093   7.260  0.0439 -0.0829  0.3620
  117OSM    O1112175   1.282  -0.321   7.241 -0.0346  0.9502  0.1619
  117OSM    O1212176   1.302  -0.186   7.446 -0.5584 -0.4252 -0.4575
  117OSM    C1S12177   1.204  -0.405   7.150 -0.4758 -0.1764 -0.1384
  117OSM    H1S12178   1.097  -0.421   7.176 -0.3158  1.3394  1.6602
  117OSM    H1T12179   1.241  -0.510   7.140  0.5996  0.1152  0.6468
  117OSM     NF12180   1.107  -0.405   6.919 -0.6265 -0.1993 -0.1974
  117OSM    HNF12181   1.147  -0.452   6.842  0.1490  0.7326 -0.3831
  117OSM    C2S12182   1.201  -0.337   7.007  0.1901  0.9754  0.1250
  117OSM    H2S12183   1.159  -0.238   7.036 -2.3120  0.0375 -0.1202
  117OSM    C3S12184   1.341  -0.318   6.942  0.5195  0.0472 -0.1354
  117OSM    H3S12185   1.388  -0.418   6.937  0.8516  0.0921  1.4634
  117OSM     O312186   1.432  -0.248   7.028  0.3037  0.1297 -0.0670
  117OSM    HO312187   1.406  -0.274   7.117 -0.8100 -0.6101 -0.5880
  117OSM    C4S12188   1.337  -0.271   6.796 -0.4784 -1.0205 -0.0193
  117OSM    H4S12189   1.330  -0.342   6.713 -0.5313  0.9806 -1.8239
  117OSM    C5S12190   1.361  -0.138   6.765 -0.1244  0.1843  1.2538
  117OSM    H5S12191   1.377  -0.060   6.842  1.5098  1.5341 -0.3669
  117OSM    C6S12192   1.359  -0.067   6.635 -0.6471 -0.1779  1.2851
  117OSM    H6S12193   1.426   0.022   6.633 -1.7461  0.7669 -2.5420
  117OSM    H6T12194   1.259  -0.022   6.616 -0.0052  0.4995 -0.7942
  117OSM    C7S12195   1.378  -0.153   6.510 -0.0570 -0.5550 -0.3531
  117OSM    H7S12196   1.297  -0.228   6.517 -1.8422  1.4642  2.6230
  117OSM    H7T12197   1.480  -0.199   6.506  0.3906  0.2220  1.2716
  117OSM    C8S12198   1.351  -0.077   6.384  0.2814  0.1829  1.4462
  117OSM    H8S12199   1.412   0.016   6.380 -0.8031  0.9690  2.5426
  117OSM    H8T12200   1.245  -0.045   6.382  0.7782  2.1966 -2.5644
  117OSM    C9S12201   1.382  -0.169   6.266  0.7277 -0.1480 -0.5601
  117OSM    H9S12202   1.326  -0.265   6.270  0.4756  0.0192  2.8226
  117OSM    H9T12203   1.489  -0.199   6.255  1.1105  0.8543  0.2735
  117OSM   C10S12204   1.346  -0.120   6.122  0.1598  0.0465 -0.0213
  117OSM   H10S12205   1.425  -0.054   6.080 -0.2600  0.0275 -0.8548
  117OSM   H10T12206   1.254  -0.057   6.129 -0.2335 -0.3177 -1.4985
  117OSM   C11S12207   1.305  -0.227   6.015  0.5499 -0.0712 -0.2232
  117OSM   H11S12208   1.212  -0.282   6.041 -0.5239  0.8936 -1.8971
  117OSM   H11T12209   1.390  -0.299   6.011 -0.6755 -1.5423 -3.2418
  117OSM   C12S12210   1.271  -0.168   5.875  0.3212  0.2151 -0.5151
  117OSM   H12S12211   1.349  -0.096   5.841 -1.3826  1.3625 -2.1467
  117OSM   H12T12212   1.175  -0.113   5.884  0.0433 -0.4468  0.8407
  117OSM   C13S12213   1.265  -0.267   5.758 -0.7443  0.5039 -0.3810
  117OSM   H13S12214   1.195  -0.347   5.790 -1.3085  0.9345 -0.5150
  117OSM   H13T12215   1.367  -0.310   5.745 -0.3289  1.1320  0.6375
  117OSM   C14S12216   1.205  -0.208   5.633  0.0800 -0.0078  0.1437
  117OSM   H14S12217   1.252  -0.110   5.610  1.4054 -0.7728 -0.5154
  117OSM   H14T12218   1.097  -0.190   5.653  0.0380 -0.4212  0.2910
  117OSM   C15S12219   1.212  -0.297   5.513  0.0506 -0.3197 -0.8424
  117OSM   H15S12220   1.198  -0.397   5.561  1.2220 -0.3337 -0.4920
  117OSM   H15T12221   1.315  -0.305   5.472 -0.1701 -3.0774 -1.0662
  117OSM   C16S12222   1.104  -0.272   5.409 -0.1245  0.3188 -0.0155
  117OSM   H16S12223   1.017  -0.221   5.455 -0.5604 -1.2562  0.9684
  117OSM   H16T12224   1.071  -0.368   5.362  1.4403 -0.3952  0.2922
  117OSM   C17S12225   1.162  -0.185   5.291  0.7597  0.1349 -0.6799
  117OSM   H17S12226   1.257  -0.236   5.268  0.4939 -1.3824  1.3896
  117OSM   H17T12227   1.174  -0.083   5.334 -1.8165  0.3137 -0.2270
  117OSM   C18S12228   1.075  -0.190   5.166  0.4063 -0.1182 -0.6019
  117OSM   H18S12229   1.113  -0.116   5.093  2.1287 -0.4173 -0.0528
  117OSM   H18T12230   0.967  -0.176   5.188  0.2586  1.0809 -1.9659
  117OSM   H18U12231   1.076  -0.290   5.118 -0.0981 -0.4687  0.0924
  117OSM    C1F12232   0.979  -0.392   6.936 -0.1711 -0.2101 -0.3165
  117OSM     OF12233   0.930  -0.328   7.030  0.3078  0.2686  0.2773
  117OSM    C2F12234   0.889  -0.475   6.846  0.5054 -0.3724  0.1700
  117OSM    H2F12235   0.946  -0.529   6.767  2.8355 -0.3883  1.7709
  117OSM    H2G12236   0.828  -0.393   6.802 -0.8398 -0.5793  1.5705
  117OSM    C3F12237   0.796  -0.575   6.921 -0.1896 -0.1657  0.1130
  117OSM    H3F12238   0.739  -0.522   7.001  1.1567 -0.8261  1.5677
  117OSM    H3G12239   0.855  -0.652   6.976 -0.0521  0.4130  0.7843
  117OSM    C4F12240   0.695  -0.651   6.831 -0.6766 -0.1138  0.7955
  117OSM    H4F12241   0.619  -0.696   6.897 -1.2198  1.7329  1.4925
  117OSM    H4G12242   0.756  -0.733   6.787  0.7108  0.3378  1.8084
  117OSM    C5F12243   0.613  -0.580   6.719 -0.9020 -0.3491 -0.2707
  117OSM    H5F12244   0.685  -0.525   6.655  0.6716  1.8292  3.0940
  117OSM    H5G12245   0.535  -0.524   6.774 -0.3016 -0.6280  0.8851
  117OSM    C6F12246   0.533  -0.695   6.649  0.2823 -0.5162 -0.0762
  117OSM    H6F12247   0.466  -0.742   6.724 -2.5114 -0.6382 -2.4650
  117OSM    H6G12248   0.600  -0.773   6.607 -1.4484 -0.9948 -2.1270
  117OSM    C7F12249   0.428  -0.650   6.548 -0.2209 -0.3982 -0.1740
  117OSM    H7F12250   0.377  -0.558   6.585 -1.1425 -0.5390 -1.0742
  117OSM    H7G12251   0.358  -0.734   6.532 -0.0551 -0.9101  1.5706
  117OSM    C8F12252   0.491  -0.611   6.415 -0.0881  0.3010  0.2808
  117OSM    H8F12253   0.539  -0.700   6.371 -0.3775  0.5608 -0.5821
  117OSM    H8G12254   0.570  -0.534   6.432  3.1254 -2.4143 -1.2610
  117OSM    C9F12255   0.385  -0.549   6.325 -0.4834 -0.0323 -0.6790
  117OSM    H9F12256   0.308  -0.487   6.373 -0.5677  0.7375 -1.7742
  117OSM   C10F12257   0.359  -0.573   6.193 -0.3705 -0.1916 -1.0214
  117OSM   H10F12258   0.272  -0.525   6.146  0.0959 -0.2228 -1.9395
  117OSM   C11F12259   0.435  -0.663   6.104 -0.3735  0.0349 -0.6822
  117OSM   H11F12260   0.399  -0.768   6.108 -0.7061  0.1476 -0.7592
  117OSM   H11G12261   0.546  -0.663   6.119 -0.3665 -0.9369 -0.6333
  117OSM   C12F12262   0.431  -0.612   5.957 -1.1429 -0.2802  0.7126
  117OSM   H12F12263   0.497  -0.676   5.894 -1.6082  0.5416 -0.6669
  117OSM   H12G12264   0.468  -0.508   5.959 -1.7963 -0.0147 -0.1540
  117OSM   C13F12265   0.292  -0.632   5.889 -0.1664  0.2863 -1.1960
  117OSM   H13F12266   0.221  -0.556   5.927  0.3691  0.5173 -0.6641
  117OSM   H13G12267   0.267  -0.739   5.909  1.4325  0.0126 -0.5369
  117OSM   C14F12268   0.302  -0.624   5.740  0.3778  0.2420 -0.2025
  117OSM   H14F12269   0.371  -0.703   5.703 -0.2928 -0.8843  0.9079
  117OSM   H14G12270   0.331  -0.521   5.710 -1.4639  1.2965  1.4325
  117OSM   C15F12271   0.168  -0.642   5.672  0.4617 -0.0714  0.2872
  117OSM   H15F12272   0.118  -0.547   5.700  1.3527  0.5801 -0.2405
  117OSM   H15G12273   0.123  -0.730   5.722 -0.2461  0.2120  0.1487
  117OSM   C16F12274   0.177  -0.673   5.524  0.0187 -0.7257  0.3165
  117OSM   H16F12275   0.240  -0.605   5.462  1.6412 -2.9643 -0.5929
  117OSM   H16G12276   0.075  -0.667   5.478  0.6265  1.4644 -0.9134
  117OSM   C17F12277   0.238  -0.815   5.490 -0.5832 -0.0126 -0.1157
  117OSM   H17F12278   0.176  -0.900   5.525  1.4411 -1.7420 -0.4904
  117OSM   H17G12279   0.344  -0.826   5.522 -0.0042 -3.0480 -2.5794
  117OSM   C18F12280   0.232  -0.840   5.340 -0.2652 -0.7391  0.1131
  117OSM   H18F12281   0.279  -0.938   5.314  0.2106 -0.0654 -1.7979
  117OSM   H18G12282   0.288  -0.758   5.291 -0.2713 -0.4445  0.5978
  117OSM   H18H12283   0.124  -0.842   5.314 -0.2161  1.2915 -0.3684
  118OSM      N12284   0.452   5.152   7.187 -0.1518 -0.4854  0.6936
  118OSM    C1512285   0.361   5.273   7.186 -0.2747 -0.2755 -0.0264
  118OSM   H15A12286   0.324   5.293   7.087 -0.2353 -1.8998 -0.3979
  118OSM   H15B12287   0.410   5.361   7.224  1.2910 -1.1879  0.1820
  118OSM   H15C12288   0.274   5.249   7.246  0.0381  1.9989  1.4467
  118OSM    C1412289   0.586   5.188   7.139  0.1627  0.1107 -0.9729
  118OSM   H14A12290   0.648   5.101   7.157 -0.2249 -0.0518 -0.3917
  118OSM   H14B12291   0.626   5.266   7.202  2.4604 -1.0701 -0.8462
  118OSM   H14C12292   0.583   5.226   7.038 -0.1580 -0.0762 -1.0369
  118OSM    C1312293   0.475   5.124   7.330 -0.1792  0.0321  0.0235
  118OSM   H13A12294   0.387   5.083   7.378  0.3969 -0.4611  0.6634
  118OSM   H13B12295   0.506   5.215   7.379  0.4840  0.3067 -0.8780
  118OSM   H13C12296   0.548   5.045   7.340 -0.2396  0.0529  0.6737
  118OSM    C1212297   0.389   5.034   7.113  0.0554  0.1593  0.0475
  118OSM   H12A12298   0.465   4.959   7.101 -0.9376 -0.7689 -0.6169
  118OSM   H12B12299   0.356   5.059   7.013  0.2488 -1.8229 -0.5565
  118OSM    C1112300   0.261   4.974   7.165 -0.2117  0.6036  0.3954
  118OSM   H11A12301   0.224   4.914   7.079  2.0716  1.5661 -1.3407
  118OSM   H11B12302   0.177   5.045   7.184 -0.3106  0.8002 -0.7216
  118OSM      P12303   0.320   4.751   7.295 -0.5595  0.0609 -0.0621
  118OSM    O1312304   0.465   4.751   7.287 -0.0535  0.0189  0.1792
  118OSM    O1412305   0.257   4.696   7.417 -0.6925  0.6433 -0.1590
  118OSM    O1112306   0.255   4.673   7.168  0.6388  0.2516  0.4939
  118OSM    O1212307   0.269   4.903   7.288 -0.0208  0.6602 -0.0036
  118OSM    C1S12308   0.114   4.670   7.161  0.3058  0.7172 -0.0520
  118OSM    H1S12309   0.075   4.774   7.167  2.2308  1.4252  1.3914
  118OSM    H1T12310   0.072   4.631   7.255 -1.0752  1.8251 -0.1753
  118OSM     NF12311  -0.071   4.633   7.003 -1.0316  0.0702  0.1162
  118OSM    HNF12312  -0.136   4.558   7.015 -0.0084 -1.0926 -1.2314
  118OSM    C2S12313   0.068   4.595   7.037  0.2652 -0.6482  0.1720
  118OSM    H2S12314   0.126   4.627   6.947 -0.6636 -0.5868 -0.4273
  118OSM    C3S12315   0.095   4.444   7.061  0.9577  0.1446 -0.1585
  118OSM    H3S12316   0.018   4.410   7.133  1.2018 -0.6898 -0.2787
  118OSM     O312317   0.226   4.413   7.114 -0.4590 -0.1635 -0.3607
  118OSM    HO312318   0.253   4.489   7.164 -1.5497 -0.6377  1.0159
  118OSM    C4S12319   0.062   4.373   6.935  0.8031 -0.2773  0.1365
  118OSM    H4S12320  -0.037   4.327   6.944 -0.5556  2.7029  2.6390
  118OSM    C5S12321   0.142   4.364   6.829  0.3479 -0.6863 -0.3426
  118OSM    H5S12322   0.240   4.406   6.853 -1.7199  2.7678  3.4151
  118OSM    C6S12323   0.101   4.279   6.714 -0.0044 -0.4166 -0.7843
  118OSM    H6S12324   0.011   4.215   6.728 -0.6437  0.5109 -0.5652
  118OSM    H6T12325   0.183   4.208   6.691  0.0928 -0.5151 -0.1641
  118OSM    C7S12326   0.081   4.363   6.591 -0.5375 -0.4767  0.1329
  118OSM    H7S12327   0.159   4.442   6.587  0.4207 -1.1794  2.8429
  118OSM    H7T12328  -0.022   4.405   6.591 -0.9168 -1.1526  3.4185
  118OSM    C8S12329   0.105   4.283   6.457 -0.2771 -0.4115 -0.0469
  118OSM    H8S12330   0.021   4.210   6.443  1.4273 -2.7063  1.0316
  118OSM    H8T12331   0.203   4.232   6.467  0.7799  1.7481  1.0562
  118OSM    C9S12332   0.104   4.379   6.339 -0.2717 -0.3984  0.5994
  118OSM    H9S12333   0.210   4.411   6.327  0.5087 -2.0722  2.5224
  118OSM    H9T12334   0.034   4.463   6.356  1.3420  1.0110  0.5119
  118OSM   C10S12335   0.073   4.314   6.207  0.3426  0.1052  0.1847
  118OSM   H10S12336  -0.035   4.292   6.198  0.4887 -0.0106 -1.7361
  118OSM   H10T12337   0.137   4.223   6.206  1.4948  0.8633  1.4476
  118OSM   C11S12338   0.107   4.408   6.083 -0.0207  0.2569 -0.5235
  118OSM   H11S12339   0.217   4.404   6.063 -0.2109 -0.0900 -1.6017
  118OSM   H11T12340   0.083   4.514   6.109 -1.0418 -0.0137 -0.3358
  118OSM   C12S12341   0.033   4.382   5.951  0.0588  0.4368 -0.1738
  118OSM   H12S12342  -0.078   4.389   5.943  0.1409  1.0257 -1.0829
  118OSM   H12T12343   0.054   4.274   5.937 -3.4394 -0.3222 -0.5466
  118OSM   C13S12344   0.090   4.477   5.837  0.2592  0.0223 -0.7520
  118OSM   H13S12345   0.200   4.465   5.831  0.8648  2.2734  2.7466
  118OSM   H13T12346   0.053   4.579   5.859  0.0920 -0.5202  1.8150
  118OSM   C14S12347   0.042   4.444   5.695  0.0431  0.0294 -0.1742
  118OSM   H14S12348   0.102   4.503   5.623  0.3627  0.4231  0.4043
  118OSM   H14T12349  -0.064   4.476   5.691 -0.3266 -1.1086  0.1136
  118OSM   C15S12350   0.034   4.301   5.646  0.3752 -0.7658  0.4317
  118OSM   H15S12351  -0.044   4.245   5.702 -0.9658  0.6284  0.0272
  118OSM   H15T12352   0.135   4.258   5.661  0.9188  1.0513  2.5172
  118OSM   C16S12353   0.000   4.296   5.500 -0.2017  0.0893  0.1653
  118OSM   H16S12354   0.078   4.352   5.445 -2.2362  0.1033 -2.9611
  118OSM   H16T12355  -0.099   4.343   5.485  0.2443  0.7150 -1.0193
  118OSM   C17S12356  -0.003   4.151   5.446  0.4209  0.5509 -0.8241
  118OSM   H17S12357  -0.084   4.089   5.489  2.1452 -2.3653 -1.5083
  118OSM   H17T12358   0.089   4.108   5.491  0.6930  2.4487  0.5900
  118OSM   C18S12359   0.006   4.132   5.296 -0.7466  0.2018 -0.5770
  118OSM   H18S12360   0.110   4.158   5.264 -0.1136 -0.4660  0.8266
  118OSM   H18T12361  -0.066   4.193   5.238 -0.1900  0.6991 -0.7615
  118OSM   H18U12362  -0.012   4.024   5.275  1.0133 -0.9959  3.1376
  118OSM    C1F12363  -0.106   4.752   6.950 -0.4364  0.1254 -0.2479
  118OSM     OF12364  -0.022   4.841   6.947  0.3317 -0.6711  0.3121
  118OSM    C2F12365  -0.246   4.769   6.913 -0.5366 -0.6952  0.1606
  118OSM    H2F12366  -0.267   4.875   6.889  0.1595 -0.7843 -0.9152
  118OSM    H2G12367  -0.299   4.738   7.005  0.2984 -2.3293  0.1223
  118OSM    C3F12368  -0.288   4.686   6.785 -0.6641 -0.5425  0.7982
  118OSM    H3F12369  -0.396   4.691   6.759 -0.6508 -2.8244  0.0899
  118OSM    H3G12370  -0.264   4.578   6.782 -2.1779 -0.9090 -1.9171
  118OSM    C4F12371  -0.213   4.747   6.664 -0.3040 -0.1716 -0.4020
  118OSM    H4F12372  -0.105   4.751   6.691  0.1670 -2.3966 -1.6900
  118OSM    H4G12373  -0.255   4.846   6.636  0.1284  0.3353  0.7202
  118OSM    C5F12374  -0.221   4.650   6.550  0.6354  0.1848 -0.0170
  118OSM    H5F12375  -0.326   4.641   6.514  1.4601 -0.9689 -2.2521
  118OSM    H5G12376  -0.199   4.547   6.586  0.8442 -0.5361 -2.1252
  118OSM    C6F12377  -0.137   4.682   6.430  0.4578  0.1698  0.4158
  118OSM    H6F12378  -0.031   4.655   6.450  0.4914 -0.2703 -0.3205
  118OSM    H6G12379  -0.143   4.791   6.409  1.2116  0.3950  1.3064
  118OSM    C7F12380  -0.186   4.602   6.305 -0.2849  0.1850 -0.4000
  118OSM    H7F12381  -0.251   4.520   6.343  1.0777 -0.6622  0.1804
  118OSM    H7G12382  -0.118   4.550   6.234  0.3602  0.5907 -0.0951
  118OSM    C8F12383  -0.281   4.681   6.216  0.3148 -0.9689  0.3330
  118OSM    H8F12384  -0.359   4.732   6.276  1.8167  0.9623  0.7323
  118OSM    H8G12385  -0.311   4.595   6.153 -1.2943 -0.5581  0.4862
  118OSM    C9F12386  -0.210   4.781   6.133  0.4746  0.2295 -0.2880
  118OSM    H9F12387  -0.167   4.868   6.185 -0.0485  0.7718 -0.7384
  118OSM   C10F12388  -0.201   4.785   6.001 -0.2667 -0.3572  0.3359
  118OSM   H10F12389  -0.151   4.868   5.949  1.7316 -1.7564 -0.0885
  118OSM   C11F12390  -0.264   4.683   5.904  0.3802 -0.1374  0.3968
  118OSM   H11F12391  -0.341   4.625   5.960 -0.1602 -0.0292 -0.2301
  118OSM   H11G12392  -0.197   4.600   5.875 -0.7946 -0.3651 -1.8474
  118OSM   C12F12393  -0.311   4.740   5.772  0.1315  0.3215 -0.1686
  118OSM   H12F12394  -0.373   4.831   5.781  1.0809  1.2908 -2.6418
  118OSM   H12G12395  -0.375   4.662   5.726  2.4232 -2.5854  1.1791
  118OSM   C13F12396  -0.193   4.771   5.678  0.0252 -0.0690 -0.0484
  118OSM   H13F12397  -0.132   4.679   5.661 -0.4517 -0.1507 -1.4347
  118OSM   H13G12398  -0.129   4.856   5.711 -1.4180  1.3311 -0.7188
  118OSM   C14F12399  -0.258   4.813   5.538 -0.4522 -0.0881  0.1768
  118OSM   H14F12400  -0.266   4.924   5.538  1.6536  0.1269  1.5727
  118OSM   H14G12401  -0.357   4.764   5.533  0.8431 -3.0515  1.4667
  118OSM   C15F12402  -0.185   4.769   5.409 -0.4836  0.3168 -0.4716
  118OSM   H15F12403  -0.084   4.813   5.399 -0.2362 -0.1506 -0.0558
  118OSM   H15G12404  -0.244   4.793   5.318  2.7114  0.4483 -2.6484
  118OSM   C16F12405  -0.169   4.618   5.401 -0.2648  0.3096 -0.8659
  118OSM   H16F12406  -0.267   4.568   5.422 -1.8467  2.9431 -1.4795
  118OSM   H16G12407  -0.102   4.585   5.484 -0.8005 -1.4234 -1.0765
  118OSM   C17F12408  -0.117   4.566   5.267  0.2189  0.7131 -0.1551
  118OSM   H17F12409  -0.196   4.609   5.202 -1.3278  2.5773  2.7279
  118OSM   H17G12410  -0.120   4.455   5.271  2.9730  0.5664 -0.1254
  118OSM   C18F12411   0.013   4.622   5.211  0.0651  0.7024  0.0283
  118OSM   H18F12412   0.017   4.591   5.105 -0.1769 -0.5652  0.3681
  118OSM   H18G12413   0.101   4.579   5.265 -0.8715  1.6026  2.4041
  118OSM   H18H12414   0.017   4.733   5.209  3.2032  0.6721 -1.1028
  119OSM      N12415   3.028   0.243   7.359 -0.2578  0.2039 -0.1445
  119OSM    C1512416   2.960   0.328   7.252  0.5601  0.8506  0.4176
  119OSM   H15A12417   2.976   0.289   7.153  2.0443  1.5748  0.3406
  119OSM   H15B12418   3.009   0.424   7.243  1.4442  0.3466 -0.3100
  119OSM   H15C12419   2.855   0.335   7.274  0.8384  0.7072  1.8375
  119OSM    C1412420   3.177   0.235   7.326  0.0852 -0.3062  0.0473
  119OSM   H14A12421   3.195   0.185   7.232 -0.5684 -2.2464  0.9070
  119OSM   H14B12422   3.231   0.176   7.398  1.0386  0.7279  0.2165
  119OSM   H14C12423   3.214   0.336   7.328  1.5513 -0.7683 -1.3432
  119OSM    C1312424   3.003   0.306   7.494  0.1597  0.9794 -0.4967
  119OSM   H13A12425   2.899   0.313   7.521  0.2185  0.5075 -0.1163
  119OSM   H13B12426   3.050   0.403   7.499 -1.5882  1.8270  0.1343
  119OSM   H13C12427   3.061   0.259   7.573 -0.5298  1.7905  0.5077
  119OSM    C1212428   2.976   0.107   7.353  0.2852 -0.1042  0.3502
  119OSM   H12A12429   3.026   0.041   7.422 -1.5545 -1.4470  0.5018
  119OSM   H12B12430   2.976   0.064   7.254 -1.9791  1.4694 -0.4238
  119OSM    C1112431   2.833   0.082   7.412  0.4746 -0.1717  0.0975
  119OSM   H11A12432   2.838   0.101   7.521 -1.0912  0.0320  0.1590
  119OSM   H11B12433   2.808  -0.026   7.410 -0.4187 -0.0041  1.3708
  119OSM      P12434   2.576   0.151   7.386  0.2636 -0.1599 -0.2228
  119OSM    O1312435   2.511   0.021   7.342  0.1013 -0.2627 -0.4879
  119OSM    O1412436   2.562   0.192   7.528 -0.0766  0.3093  0.0531
  119OSM    O1112437   2.504   0.255   7.296 -0.4959 -0.3540 -0.0665
  119OSM    O1212438   2.730   0.154   7.347  0.1678 -0.0864 -0.7676
  119OSM    C1S12439   2.578   0.351   7.210  0.2812  0.5409 -0.2110
  119OSM    H1S12440   2.678   0.310   7.184 -0.9141 -0.8759 -3.0570
  119OSM    H1T12441   2.597   0.449   7.258 -2.4538  2.0374 -1.8905
  119OSM     NF12442   2.562   0.463   6.985  0.0235  0.0384 -0.0872
  119OSM    HNF12443   2.538   0.560   6.983  0.2074  0.1070  0.7290
  119OSM    C2S12444   2.487   0.384   7.087  0.3897  0.1039  0.1246
  119OSM    H2S12445   2.447   0.289   7.046 -0.9368 -0.9473  3.4529
  119OSM    C3S12446   2.346   0.453   7.133 -0.1172 -0.1951 -0.2525
  119OSM    H3S12447   2.372   0.553   7.174 -0.8954  0.3974 -1.1336
  119OSM     O312448   2.267   0.389   7.235  0.0680  0.4293 -0.3149
  119OSM    HO312449   2.342   0.345   7.275  0.2727  1.3633  0.3604
  119OSM    C4S12450   2.265   0.496   7.009  0.3730  0.3964  0.0152
  119OSM    H4S12451   2.301   0.588   6.962  1.3502  1.2270  2.2485
  119OSM    C5S12452   2.165   0.426   6.954 -0.4870 -0.8382 -0.2402
  119OSM    H5S12453   2.142   0.339   7.017 -1.4152  0.9213  1.9740
  119OSM    C6S12454   2.078   0.455   6.833 -0.0384 -0.2681  0.5639
  119OSM    H6S12455   2.050   0.562   6.826 -0.5801 -0.5232 -2.6874
  119OSM    H6T12456   1.981   0.404   6.848  0.1143 -1.4529 -1.9153
  119OSM    C7S12457   2.134   0.424   6.697 -0.1611 -0.4364 -0.8311
  119OSM    H7S12458   2.137   0.313   6.694 -1.3200 -0.6299  1.8844
  119OSM    H7T12459   2.238   0.464   6.686  0.8106 -3.1753 -2.5170
  119OSM    C8S12460   2.057   0.473   6.575 -0.2703  0.5580 -0.2272
  119OSM    H8S12461   2.034   0.581   6.581 -0.3324  0.5189  0.2204
  119OSM    H8T12462   1.957   0.427   6.592 -1.1469  2.5980  0.4113
  119OSM    C9S12463   2.108   0.421   6.441  0.0404  0.5130 -0.3328
  119OSM    H9S12464   2.104   0.310   6.441 -1.4373  0.4992  1.9481
  119OSM    H9T12465   2.215   0.449   6.435 -0.4561  2.4165 -1.2201
  119OSM   C10S12466   2.024   0.480   6.324  0.0570  0.6494 -0.1524
  119OSM   H10S12467   2.012   0.591   6.325 -3.6895  0.3706 -0.5868
  119OSM   H10T12468   1.918   0.452   6.338 -0.6758  2.9773 -0.5602
  119OSM   C11S12469   2.070   0.434   6.183  0.4875 -0.5543 -0.5045
  119OSM   H11S12470   2.054   0.324   6.178 -1.4698 -0.2899 -0.8938
  119OSM   H11T12471   2.181   0.441   6.185  0.6891 -2.5912 -1.5147
  119OSM   C12S12472   1.993   0.519   6.074  0.0791  0.1223  0.2804
  119OSM   H12S12473   1.993   0.627   6.100 -0.5782  0.0989  0.3909
  119OSM   H12T12474   1.890   0.480   6.063  0.7269 -1.2847 -1.4043
  119OSM   C13S12475   2.048   0.490   5.934  0.1354  0.5141 -0.5579
  119OSM   H13S12476   2.075   0.383   5.915  1.1686  1.0537 -2.4753
  119OSM   H13T12477   2.134   0.557   5.911  0.2266  0.7463  0.4387
  119OSM   C14S12478   1.948   0.540   5.823 -0.1965  0.1374 -0.2796
  119OSM   H14S12479   1.919   0.646   5.841 -0.3102 -0.2091  1.7859
  119OSM   H14T12480   1.854   0.480   5.825  0.4200 -0.8360  0.9471
  119OSM   C15S12481   2.009   0.542   5.685 -0.4401  0.1128 -0.0651
  119OSM   H15S12482   2.059   0.445   5.667  0.1822 -0.0820  2.3862
  119OSM   H15T12483   2.099   0.605   5.676 -2.7469  3.4679 -1.8525
  119OSM   C16S12484   1.910   0.571   5.567 -0.2216  0.0070  0.0025
  119OSM   H16S12485   1.957   0.581   5.467 -0.7042  0.1682 -0.2093
  119OSM   H16T12486   1.870   0.671   5.593  2.4629  1.4306 -1.0384
  119OSM   C17S12487   1.795   0.473   5.541 -0.7441 -0.6243 -0.3241
  119OSM   H17S12488   1.710   0.484   5.611  0.4078 -1.2568  1.2447
  119OSM   H17T12489   1.820   0.364   5.545 -1.9202 -0.9022 -0.2837
  119OSM   C18S12490   1.738   0.505   5.394 -0.5926  0.1976  0.0938
  119OSM   H18S12491   1.732   0.615   5.378 -2.2597  0.1740  0.3436
  119OSM   H18T12492   1.633   0.469   5.386 -0.2065 -0.7492 -0.9126
  119OSM   H18U12493   1.793   0.455   5.312  1.6503 -0.0584  1.6641
  119OSM    C1F12494   2.668   0.427   6.914 -0.2842  0.2240 -0.9554
  119OSM     OF12495   2.714   0.318   6.921 -0.8427 -0.2461  0.8000
  119OSM    C2F12496   2.731   0.528   6.818  0.3653  0.1286  0.2663
  119OSM    H2F12497   2.842   0.524   6.827  0.5175 -2.9442 -1.8380
  119OSM    H2G12498   2.704   0.632   6.848  0.8076 -0.1704  1.8052
  119OSM    C3F12499   2.712   0.500   6.660  0.0382 -0.3987 -0.4595
  119OSM    H3F12500   2.762   0.405   6.630 -0.4306 -0.5036 -0.9024
  119OSM    H3G12501   2.769   0.578   6.606  0.2893  0.2009  0.6393
  119OSM    C4F12502   2.564   0.509   6.627  0.0186 -0.1002  0.7631
  119OSM    H4F12503   2.532   0.608   6.667 -1.9313 -1.3469  2.5043
  119OSM    H4G12504   2.509   0.431   6.684  0.9852 -2.2210 -1.0579
  119OSM    C5F12505   2.538   0.502   6.480 -0.1144  0.4370 -0.7825
  119OSM    H5F12506   2.434   0.468   6.458  0.0839 -1.1896  0.5038
  119OSM    H5G12507   2.609   0.425   6.441 -1.1247 -0.1412 -1.5357
  119OSM    C6F12508   2.566   0.628   6.396 -0.2980  0.0656  0.4311
  119OSM    H6F12509   2.674   0.639   6.376 -0.4153 -1.3418 -1.1512
  119OSM    H6G12510   2.530   0.719   6.450 -0.6701  0.0712  0.1805
  119OSM    C7F12511   2.510   0.612   6.256 -0.3014 -0.1318 -0.4849
  119OSM    H7F12512   2.406   0.652   6.259 -0.0673  0.4404  0.0800
  119OSM    H7G12513   2.515   0.504   6.231 -1.4831  0.2710 -2.7708
  119OSM    C8F12514   2.587   0.703   6.151  0.3128  0.3611  0.3061
  119OSM    H8F12515   2.694   0.672   6.146 -0.0998 -0.9717 -3.2645
  119OSM    H8G12516   2.567   0.805   6.189 -0.9147 -0.1137  0.9578
  119OSM    C9F12517   2.510   0.684   6.027 -0.1622 -0.5929  0.8082
  119OSM    H9F12518   2.406   0.719   6.033  0.8904  3.6998 -1.8673
  119OSM   C10F12519   2.553   0.633   5.912  1.0058  0.3750  0.8637
  119OSM   H10F12520   2.490   0.621   5.823  3.7231  0.0764 -1.1487
  119OSM   C11F12521   2.688   0.566   5.896 -0.1586  0.2155 -0.4089
  119OSM   H11F12522   2.674   0.456   5.887  1.9859 -0.3201  1.8686
  119OSM   H11G12523   2.746   0.574   5.990 -1.2864 -3.9269  0.8376
  119OSM   C12F12524   2.771   0.610   5.779  0.6190 -0.5205 -0.0783
  119OSM   H12F12525   2.784   0.720   5.783 -0.1546 -0.4396  0.4563
  119OSM   H12G12526   2.711   0.594   5.687  0.4319  0.9672 -0.2368
  119OSM   C13F12527   2.902   0.530   5.776 -0.3934  0.2197  0.4864
  119OSM   H13F12528   2.884   0.423   5.750  1.2478  0.2313 -0.8427
  119OSM   H13G12529   2.950   0.547   5.875 -1.2925 -3.5793  1.7595
  119OSM   C14F12530   3.013   0.593   5.681 -0.2745  0.6104  0.0396
  119OSM   H14F12531   3.113   0.558   5.713 -1.5025 -0.3526  3.2157
  119OSM   H14G12532   3.020   0.703   5.688 -0.4793  0.7404 -1.4705
  119OSM   C15F12533   2.986   0.551   5.531  0.2437  0.2587 -0.8006
  119OSM   H15F12534   2.882   0.564   5.496 -0.3466 -2.5287 -0.2802
  119OSM   H15G12535   3.003   0.441   5.534 -1.6230 -0.0521 -0.2330
  119OSM   C16F12536   3.101   0.599   5.436  0.1336  0.0870  0.4123
  119OSM   H16F12537   3.205   0.585   5.472 -0.0177 -2.5374 -0.0111
  119OSM   H16G12538   3.086   0.709   5.422  4.3284  0.7757  0.2298
  119OSM   C17F12539   3.078   0.539   5.295 -0.1903 -0.3678  0.2049
  119OSM   H17F12540   2.970   0.521   5.281 -0.4134  1.4440 -0.6808
  119OSM   H17G12541   3.119   0.437   5.279 -0.6957 -0.9099  2.2075
  119OSM   C18F12542   3.132   0.624   5.178  0.5928  0.0082  0.2460
  119OSM   H18F12543   3.052   0.622   5.101  0.0650  2.2139  0.6765
  119OSM   H18G12544   3.225   0.595   5.124 -0.3564  0.5460 -1.7684
  119OSM   H18H12545   3.142   0.730   5.209  0.8682  0.0425  0.0479
  120OSM      N12546   5.254   0.141   7.679 -0.3233  0.4628 -0.0592
  120OSM    C1512547   5.146   0.124   7.781 -0.0515 -0.4506 -0.1020
  120OSM   H15A12548   5.132   0.023   7.816 -1.4196  0.5382  2.4540
  120OSM   H15B12549   5.069   0.175   7.725 -0.6669  0.1393  1.2090
  120OSM   H15C12550   5.167   0.175   7.875  1.9329 -1.8788  0.3034
  120OSM    C1412551   5.277   0.288   7.645  0.9375 -1.0618 -0.2953
  120OSM   H14A12552   5.274   0.346   7.736 -2.5302 -0.8631 -0.4241
  120OSM   H14B12553   5.196   0.328   7.587  0.7236 -1.1369 -0.0518
  120OSM   H14C12554   5.369   0.301   7.590  0.3624 -0.1623 -1.0606
  120OSM    C1312555   5.384   0.091   7.736 -0.3294  0.6276 -0.3268
  120OSM   H13A12556   5.365  -0.007   7.777 -0.3779  0.9833  0.5111
  120OSM   H13B12557   5.410   0.164   7.811  0.3904 -2.2384  2.4503
  120OSM   H13C12558   5.468   0.088   7.667 -1.0011  0.2914 -1.1537
  120OSM    C1212559   5.222   0.056   7.558  0.0693  0.2967  0.3556
  120OSM   H12A12560   5.180  -0.039   7.588 -1.2986  0.8957  0.4125
  120OSM   H12B12561   5.318   0.027   7.517 -0.4815 -1.8449  0.4525
  120OSM    C1112562   5.122   0.115   7.451 -0.3303 -0.2032 -0.0372
  120OSM   H11A12563   5.113   0.034   7.375  0.2141 -1.6251  1.3585
  120OSM   H11B12564   5.165   0.205   7.404 -0.1936 -1.2403 -2.0298
  120OSM      P12565   4.867   0.179   7.425 -0.5820 -0.4000  0.1192
  120OSM    O1312566   4.752   0.173   7.507  0.3981  0.2770  0.1318
  120OSM    O1412567   4.893   0.300   7.341 -0.2331 -0.1046  0.1398
  120OSM    O1112568   4.855   0.058   7.327 -0.2975 -0.2479 -0.5430
  120OSM    O1212569   4.999   0.145   7.508 -0.2395  0.4666  0.0510
  120OSM    C1S12570   4.755   0.060   7.229 -0.1120  1.1897 -0.3258
  120OSM    H1S12571   4.732   0.163   7.194 -0.6914  1.1970  0.0576
  120OSM    H1T12572   4.658   0.038   7.279 -0.1396  0.4005 -0.7237
  120OSM     NF12573   4.723  -0.005   6.994  0.5641 -0.2648  0.3025
  120OSM    HNF12574   4.656  -0.069   6.958  1.6468 -2.3575  1.7893
  120OSM    C2S12575   4.788  -0.041   7.115 -0.4664  0.2188  0.3439
  120OSM    H2S12576   4.898  -0.032   7.103 -0.5644  1.9769  0.4552
  120OSM    C3S12577   4.771  -0.182   7.171 -0.7023  0.5634  0.0869
  120OSM    H3S12578   4.669  -0.205   7.208 -0.8852  2.2158  0.7052
  120OSM     O312579   4.838  -0.195   7.293  0.5777  0.1309  0.2831
  120OSM    HO312580   4.857  -0.103   7.313 -0.7412  0.0851  2.0066
  120OSM    C4S12581   4.822  -0.292   7.080  0.7731 -0.1969  0.6537
  120OSM    H4S12582   4.929  -0.285   7.054  0.0122 -0.4156 -3.0802
  120OSM    C5S12583   4.739  -0.395   7.039  0.6266 -0.7890 -0.7135
  120OSM    H5S12584   4.632  -0.389   7.067  1.3896  0.0516  2.3752
  120OSM    C6S12585   4.771  -0.512   6.960  0.1763 -0.1098 -0.1701
  120OSM    H6S12586   4.735  -0.485   6.859 -0.4912 -0.1392  0.0552
  120OSM    H6T12587   4.704  -0.596   6.990 -0.1756  0.6980  1.4187
  120OSM    C7S12588   4.917  -0.561   6.950 -0.1774  0.5357  0.0032
  120OSM    H7S12589   4.933  -0.632   7.034 -2.6769 -1.0355 -0.7473
  120OSM    H7T12590   4.985  -0.473   6.961  1.7600 -1.1381  2.8584
  120OSM    C8S12591   4.949  -0.635   6.817 -0.1598 -0.0362 -0.3969
  120OSM    H8S12592   4.929  -0.565   6.733 -0.5326  0.9012  0.4548
  120OSM    H8T12593   4.884  -0.725   6.804  0.1744 -0.9620  3.2161
  120OSM    C9S12594   5.098  -0.660   6.813  0.1285 -0.2304 -0.3341
  120OSM    H9S12595   5.124  -0.736   6.890  1.7906  1.3469  0.7643
  120OSM    H9T12596   5.153  -0.566   6.835  1.3104 -0.4538 -2.0685
  120OSM   C10S12597   5.149  -0.710   6.680  0.5006 -0.3695 -0.5952
  120OSM   H10S12598   5.130  -0.637   6.599 -0.7415  1.6362  1.3842
  120OSM   H10T12599   5.096  -0.806   6.664 -1.4383  0.0232  2.6027
  120OSM   C11S12600   5.298  -0.729   6.691 -0.4210  0.2221 -0.6535
  120OSM   H11S12601   5.312  -0.805   6.770 -2.3208  1.0530  0.5515
  120OSM   H11T12602   5.343  -0.631   6.716  0.3448 -0.4030  0.5127
  120OSM   C12S12603   5.366  -0.777   6.563 -0.6380  0.1832  1.0999
  120OSM   H12S12604   5.338  -0.877   6.525  1.0908  0.6168 -1.5882
  120OSM   H12T12605   5.475  -0.785   6.584 -0.7968 -0.7638  1.6164
  120OSM   C13S12606   5.349  -0.678   6.439  0.0243  0.1253  0.4403
  120OSM   H13S12607   5.363  -0.578   6.486  2.0941 -0.9758  2.3770
  120OSM   H13T12608   5.243  -0.696   6.410  0.2827  0.7486 -0.9513
  120OSM   C14S12609   5.443  -0.701   6.329 -1.1137 -0.2989 -0.9160
  120OSM   H14S12610   5.448  -0.806   6.293  1.8070 -0.2542 -0.9044
  120OSM   H14T12611   5.546  -0.678   6.365 -0.4614 -2.2159 -1.3926
  120OSM   C15S12612   5.415  -0.605   6.214  1.0268 -0.4253  0.3893
  120OSM   H15S12613   5.424  -0.502   6.256  0.2697  0.4309 -1.4618
  120OSM   H15T12614   5.309  -0.626   6.188  0.6530 -2.3591  3.0517
  120OSM   C16S12615   5.513  -0.605   6.094 -0.3880  0.4663  0.7551
  120OSM   H16S12616   5.494  -0.686   6.020 -1.3917 -0.0184  1.5226
  120OSM   H16T12617   5.620  -0.619   6.123 -0.4501  0.6496  1.0694
  120OSM   C17S12618   5.498  -0.462   6.029  0.4811 -0.3641 -0.1048
  120OSM   H17S12619   5.545  -0.384   6.093 -0.8920  0.3331  0.0942
  120OSM   H17T12620   5.390  -0.438   6.016  1.0442  2.2990 -0.4003
  120OSM   C18S12621   5.576  -0.462   5.903  0.8544  0.3238  1.2119
  120OSM   H18S12622   5.559  -0.559   5.851 -0.7479 -0.7692  3.6114
  120OSM   H18T12623   5.684  -0.453   5.929  1.4628  0.3578 -1.0931
  120OSM   H18U12624   5.554  -0.381   5.830 -1.9220 -0.8924  0.5423
  120OSM    C1F12625   4.742   0.100   6.918 -0.0595  0.7046  0.2154
  120OSM     OF12626   4.809   0.190   6.962  0.0173 -0.2241  0.8844
  120OSM    C2F12627   4.673   0.094   6.787 -0.1912 -0.0357 -0.1186
  120OSM    H2F12628   4.564   0.078   6.807  0.2235 -3.0200  0.2288
  120OSM    H2G12629   4.703   0.006   6.726 -1.5633  0.5022 -1.6585
  120OSM    C3F12630   4.709   0.225   6.708  0.5190 -0.2945  0.3178
  120OSM    H3F12631   4.819   0.220   6.698  0.5234  0.6358 -0.1210
  120OSM    H3G12632   4.677   0.310   6.771 -0.0689 -0.6655  0.5290
  120OSM    C4F12633   4.642   0.234   6.569  0.0357 -0.3728 -0.5320
  120OSM    H4F12634   4.685   0.318   6.511 -0.7412 -0.9564 -2.0147
  120OSM    H4G12635   4.534   0.257   6.587  0.7120  1.5638  1.5046
  120OSM    C5F12636   4.641   0.113   6.478 -0.0817  0.0244 -0.3109
  120OSM    H5F12637   4.575   0.039   6.528  0.3576  1.2453  2.2279
  120OSM    H5G12638   4.743   0.070   6.471 -0.1244 -0.2037  0.4057
  120OSM    C6F12639   4.590   0.154   6.336  0.3935  1.0836  0.1497
  120OSM    H6F12640   4.670   0.225   6.307  1.6484  0.4600  1.8870
  120OSM    H6G12641   4.493   0.208   6.333  0.2281  0.7803 -0.0201
  120OSM    C7F12642   4.594   0.041   6.229 -0.0744 -0.0402 -0.7053
  120OSM    H7F12643   4.533  -0.046   6.258 -0.3638 -0.0411 -1.2993
  120OSM    H7G12644   4.698   0.006   6.215 -0.4809 -1.1732 -0.9331
  120OSM    C8F12645   4.546   0.090   6.091  0.5779  0.3905 -0.0317
  120OSM    H8F12646   4.441   0.124   6.078 -0.5431 -3.4862 -2.6390
  120OSM    H8G12647   4.538  -0.006   6.036 -2.6248  1.1202 -1.0540
  120OSM    C9F12648   4.640   0.185   6.027 -0.7043 -0.2298  0.3699
  120OSM    H9F12649   4.670   0.278   6.078  2.0525  0.5576 -2.3592
  120OSM   C10F12650   4.712   0.159   5.917 -0.6377 -0.2935  0.2463
  120OSM   H10F12651   4.774   0.239   5.874  0.1789 -1.0729 -0.0380
  120OSM   C11F12652   4.719   0.039   5.835  0.7862  0.7483  0.5482
  120OSM   H11F12653   4.617  -0.004   5.818  0.4607  2.7924 -4.2491
  120OSM   H11G12654   4.767  -0.048   5.884 -0.0313 -0.1675 -0.2216
  120OSM   C12F12655   4.778   0.056   5.689 -0.3950 -0.3710 -0.4458
  120OSM   H12F12656   4.882   0.094   5.701 -0.5366 -0.4060  1.0517
  120OSM   H12G12657   4.721   0.132   5.632 -0.9510 -0.0302  0.5321
  120OSM   C13F12658   4.791  -0.082   5.625 -0.1153  0.1620 -0.3562
  120OSM   H13F12659   4.688  -0.121   5.610  0.2488 -1.1989  0.4250
  120OSM   H13G12660   4.840  -0.148   5.700 -0.2572 -0.1497 -0.5335
  120OSM   C14F12661   4.872  -0.075   5.493 -0.2354  0.2214 -0.1487
  120OSM   H14F12662   4.964  -0.016   5.511 -0.0339  0.0723 -0.6660
  120OSM   H14G12663   4.807  -0.028   5.417 -1.1583  0.4524  0.7727
  120OSM   C15F12664   4.894  -0.208   5.429  0.2446  0.5838 -0.0115
  120OSM   H15F12665   4.794  -0.256   5.434  0.7072 -0.2750  1.2488
  120OSM   H15G12666   4.968  -0.267   5.487  0.1773  0.5841  0.0735
  120OSM   C16F12667   4.937  -0.214   5.283  0.4577 -0.5855  0.4203
  120OSM   H16F12668   4.876  -0.151   5.215  2.4678 -0.5251 -1.4188
  120OSM   H16G12669   4.938  -0.322   5.256 -0.1518  0.0304 -2.3934
  120OSM   C17F12670   5.078  -0.166   5.261 -0.3613 -0.3580  0.7589
  120OSM   H17F12671   5.145  -0.222   5.330 -0.0762 -0.2873  0.5412
  120OSM   H17G12672   5.078  -0.056   5.279 -0.1468 -0.3265  0.5754
  120OSM   C18F12673   5.119  -0.175   5.111 -0.0133  0.2438  0.2850
  120OSM   H18F12674   5.195  -0.097   5.091  0.1989 -0.1746 -0.6099
  120OSM   H18G12675   5.035  -0.151   5.042  1.1452  1.2310 -0.8282
  120OSM   H18H12676   5.146  -0.280   5.085 -0.7225 -0.1204  0.9594
  121OSM      N12677   0.200   2.841   7.543 -0.2919  0.2106 -0.3855
  121OSM    C1512678   0.293   2.815   7.426 -0.0948 -0.3214 -0.4338
  121OSM   H15A12679   0.303   2.898   7.358  1.3887  0.2393  0.4327
  121OSM   H15B12680   0.255   2.730   7.372  0.6698 -1.3616  0.6274
  121OSM   H15C12681   0.387   2.775   7.459  0.3406 -0.9116 -2.2983
  121OSM    C1412682   0.055   2.852   7.493  0.7366  0.3505 -0.5716
  121OSM   H14A12683  -0.015   2.903   7.557  1.0185 -1.2581  1.0904
  121OSM   H14B12684   0.014   2.752   7.484  0.5061  0.3634  0.2577
  121OSM   H14C12685   0.066   2.906   7.400  0.1246  0.8666 -0.3545
  121OSM    C1312686   0.218   2.724   7.627 -0.1176  0.5667  0.0806
  121OSM   H13A12687   0.318   2.712   7.666  0.3786  1.2800 -0.9468
  121OSM   H13B12688   0.201   2.638   7.563  0.3316  0.4812  0.0707
  121OSM   H13C12689   0.139   2.721   7.701 -0.1747 -0.7893 -0.0081
  121OSM    C1212690   0.235   2.971   7.614 -0.8401  0.5668  0.3239
  121OSM   H12A12691   0.333   2.962   7.658  0.0967  0.6812 -1.6549
  121OSM   H12B12692   0.164   2.986   7.695 -1.0955  1.1909 -0.0063
  121OSM    C1112693   0.228   3.106   7.536 -0.5373 -0.0723 -0.7313
  121OSM   H11A12694   0.231   3.186   7.612  0.7438  0.5679 -1.4227
  121OSM   H11B12695   0.130   3.095   7.485 -1.1278 -2.3639  0.7701
  121OSM      P12696   0.462   3.207   7.470  0.1281 -0.3377  0.2859
  121OSM    O1312697   0.425   3.351   7.486  0.1783  0.2250  0.6350
  121OSM    O1412698   0.541   3.148   7.580 -0.0029 -0.1540 -0.2768
  121OSM    O1112699   0.546   3.184   7.338  0.1881  0.0218  0.0376
  121OSM    O1212700   0.332   3.115   7.445 -0.5452  0.0017  0.6085
  121OSM    C1S12701   0.492   3.217   7.208 -0.4057 -0.5224  0.2745
  121OSM    H1S12702   0.484   3.328   7.201 -1.1078 -0.6634 -3.7613
  121OSM    H1T12703   0.387   3.183   7.194 -1.1404  2.0098 -1.1291
  121OSM     NF12704   0.548   3.232   6.956  0.0152  1.5139 -0.4471
  121OSM    HNF12705   0.527   3.165   6.886  2.5590  0.6667 -0.4964
  121OSM    C2S12706   0.593   3.173   7.093 -0.3031  0.1311  0.2423
  121OSM    H2S12707   0.694   3.213   7.117 -0.3439  1.7516 -1.8968
  121OSM    C3S12708   0.615   3.022   7.089 -0.6855 -0.1327 -0.9930
  121OSM    H3S12709   0.514   2.982   7.070 -1.0005  0.8192 -1.3933
  121OSM     O312710   0.642   2.977   7.221  0.0907 -0.2110  1.0180
  121OSM    HO312711   0.614   3.049   7.277 -1.6131 -0.3975  0.4504
  121OSM    C4S12712   0.714   2.981   6.991 -0.8549  0.2248 -0.4399
  121OSM    H4S12713   0.814   3.014   7.023 -0.4463 -0.8294 -0.5726
  121OSM    C5S12714   0.701   2.908   6.884 -0.3785  0.7100  0.4898
  121OSM    H5S12715   0.600   2.871   6.863 -0.1465  1.3893 -2.1642
  121OSM    C6S12716   0.811   2.866   6.790 -0.4604 -0.2346  0.1303
  121OSM    H6S12717   0.825   2.757   6.776  3.0322  0.1598 -0.4367
  121OSM    H6T12718   0.906   2.897   6.839 -0.6466 -0.7976  0.8613
  121OSM    C7S12719   0.793   2.932   6.644 -0.2644 -0.5482 -0.5975
  121OSM    H7S12720   0.813   3.040   6.661 -0.4689 -0.7720  1.3365
  121OSM    H7T12721   0.690   2.928   6.601  0.6622  1.1679 -3.2117
  121OSM    C8S12722   0.893   2.872   6.535  1.4631  0.2818  0.1586
  121OSM    H8S12723   0.904   2.762   6.546 -0.7700  0.1281  1.5401
  121OSM    H8T12724   0.989   2.926   6.551  0.1463  2.2031  2.2785
  121OSM    C9S12725   0.834   2.905   6.395 -0.1025 -0.0559 -0.1967
  121OSM    H9S12726   0.827   3.015   6.385 -0.2696  0.1114  1.4949
  121OSM    H9T12727   0.740   2.848   6.380  0.5728 -0.7740 -2.1405
  121OSM   C10S12728   0.928   2.866   6.277 -0.4114  0.2676 -0.4414
  121OSM   H10S12729   0.969   2.764   6.295 -1.2304 -0.0434 -0.3211
  121OSM   H10T12730   1.022   2.925   6.288  1.5324 -2.1914 -2.3676
  121OSM   C11S12731   0.865   2.884   6.141 -0.1309 -0.2167 -0.7252
  121OSM   H11S12732   0.873   2.993   6.120 -0.2661 -0.1238 -0.2855
  121OSM   H11T12733   0.758   2.863   6.159 -0.7758  2.6508 -0.7019
  121OSM   C12S12734   0.914   2.802   6.025 -0.0044  0.0370  0.2618
  121OSM   H12S12735   0.893   2.693   6.029  2.3698 -0.8331 -4.1481
  121OSM   H12T12736   1.019   2.837   6.016  0.0917  0.0937  1.4632
  121OSM   C13S12737   0.830   2.840   5.895  0.3621  0.0327 -0.3164
  121OSM   H13S12738   0.808   2.948   5.899 -1.1839 -0.2896  1.3879
  121OSM   H13T12739   0.726   2.801   5.903  0.1780  0.6084  0.1654
  121OSM   C14S12740   0.886   2.791   5.761 -0.1943  0.0194 -0.0411
  121OSM   H14S12741   0.806   2.813   5.687  0.4648  2.9102 -0.0113
  121OSM   H14T12742   0.886   2.680   5.760 -3.9761 -0.1106 -0.2440
  121OSM   C15S12743   1.017   2.853   5.718 -0.2032 -0.2604 -0.4705
  121OSM   H15S12744   1.091   2.824   5.796  0.2286  0.1330 -0.7285
  121OSM   H15T12745   1.009   2.964   5.721 -0.4396 -0.2779 -0.4466
  121OSM   C16S12746   1.070   2.821   5.579  0.4559  0.2373  0.3116
  121OSM   H16S12747   1.069   2.711   5.571  0.0355  0.1511  1.3830
  121OSM   H16T12748   1.174   2.859   5.580  0.7754 -0.4718 -1.6113
  121OSM   C17S12749   0.999   2.878   5.458  0.4015 -0.4363  0.0614
  121OSM   H17S12750   1.014   2.988   5.456  1.0495 -0.4716  1.4220
  121OSM   H17T12751   0.889   2.867   5.465  0.4157 -0.9060 -0.3979
  121OSM   C18S12752   1.035   2.808   5.326  0.1409 -0.3992 -0.1261
  121OSM   H18S12753   0.999   2.703   5.318 -1.6232  0.2332 -0.9725
  121OSM   H18T12754   1.146   2.814   5.314  0.3416  0.2244  1.7308
  121OSM   H18U12755   0.989   2.862   5.241 -1.9883 -2.6732 -0.5166
  121OSM    C1F12756   0.561   3.360   6.922  0.5955 -0.3311  0.1270
  121OSM     OF12757   0.599   3.442   7.001  0.1486 -0.2387  0.5388
  121OSM    C2F12758   0.537   3.393   6.773 -0.4491 -0.5371  0.3663
  121OSM    H2F12759   0.610   3.468   6.737  0.9993 -1.9510  0.2602
  121OSM    H2G12760   0.433   3.433   6.771 -0.7939 -1.3384 -2.4237
  121OSM    C3F12761   0.538   3.270   6.676  0.2888  0.1052 -0.0165
  121OSM    H3F12762   0.459   3.194   6.694 -0.2533  0.3471 -1.2926
  121OSM    H3G12763   0.635   3.218   6.694  0.0131 -0.0291  1.2018
  121OSM    C4F12764   0.523   3.311   6.528  0.2847  0.2180 -0.3420
  121OSM    H4F12765   0.589   3.396   6.499  0.1713 -0.5435 -3.1084
  121OSM    H4G12766   0.416   3.343   6.521  0.2872  0.3146  0.0397
  121OSM    C5F12767   0.553   3.192   6.435  0.2447  0.0311 -0.0280
  121OSM    H5F12768   0.497   3.101   6.464  1.3127 -0.8612 -0.6982
  121OSM    H5G12769   0.656   3.158   6.460 -0.4178 -1.7246  0.4232
  121OSM    C6F12770   0.544   3.226   6.288  0.2702 -0.6218  0.2030
  121OSM    H6F12771   0.623   3.300   6.262 -0.7072  0.5535  0.4737
  121OSM    H6G12772   0.444   3.273   6.272  0.0729 -0.8399  0.7570
  121OSM    C7F12773   0.532   3.112   6.186  0.0544  0.3024 -0.0703
  121OSM    H7F12774   0.442   3.048   6.201  0.2527 -0.4607 -1.9226
  121OSM    H7G12775   0.623   3.053   6.210  0.3049  0.1978 -1.2171
  121OSM    C8F12776   0.514   3.160   6.039 -0.6309 -0.0042 -0.6467
  121OSM    H8F12777   0.431   3.233   6.030  0.6929  1.9132  1.5595
  121OSM    H8G12778   0.490   3.070   5.979  0.7067 -1.1675  0.4715
  121OSM    C9F12779   0.642   3.223   5.993  0.3107  0.2278  0.4769
  121OSM    H9F12780   0.711   3.246   6.076  0.4213  0.9594  0.1939
  121OSM   C10F12781   0.675   3.244   5.866  0.2420 -0.8409 -0.4315
  121OSM   H10F12782   0.775   3.284   5.842 -0.4311  0.5525 -1.0575
  121OSM   C11F12783   0.587   3.217   5.748 -0.0359 -0.0112  0.3584
  121OSM   H11F12784   0.571   3.307   5.685  0.1074  0.2111  0.6392
  121OSM   H11G12785   0.483   3.187   5.773  0.4596 -1.1761  1.0636
  121OSM   C12F12786   0.653   3.119   5.655  0.1255 -0.0728  0.0251
  121OSM   H12F12787   0.657   3.020   5.704 -0.0378  0.4490  1.1268
  121OSM   H12G12788   0.754   3.159   5.632 -1.1181  2.3719 -1.7197
  121OSM   C13F12789   0.568   3.112   5.526  0.1247 -0.5592  0.0457
  121OSM   H13F12790   0.571   3.212   5.479 -1.0683  0.3361  1.7781
  121OSM   H13G12791   0.462   3.089   5.550  0.0084 -0.3049 -0.2226
  121OSM   C14F12792   0.608   3.001   5.429 -0.0632 -1.1355 -0.8709
  121OSM   H14F12793   0.609   2.902   5.480  0.0092  0.0285  1.5450
  121OSM   H14G12794   0.715   3.014   5.405  0.1578  0.4020  0.7437
  121OSM   C15F12795   0.522   2.989   5.304 -0.4273 -0.0381 -0.0657
  121OSM   H15F12796   0.512   3.089   5.255 -0.3927  1.0857  2.0907
  121OSM   H15G12797   0.416   2.972   5.331 -1.0170 -1.0419 -2.7080
  121OSM   C16F12798   0.569   2.870   5.218 -0.4250  0.2375 -0.3171
  121OSM   H16F12799   0.484   2.799   5.209 -0.9427  0.4715  2.0911
  121OSM   H16G12800   0.645   2.811   5.275 -2.2834 -0.4204  1.5953
  121OSM   C17F12801   0.614   2.906   5.067  0.6411  0.0250 -0.7614
  121OSM   H17F12802   0.692   2.984   5.071  0.7864 -0.0658  3.7705
  121OSM   H17G12803   0.525   2.950   5.016  0.5814 -0.9123 -1.4895
  121OSM   C18F12804   0.670   2.776   5.000 -0.2388 -0.1801  0.6424
  121OSM   H18F12805   0.722   2.810   4.908  5.1336  1.1060  3.7155
  121OSM   H18G12806   0.583   2.713   4.969 -0.0555 -0.8979  1.5634
  121OSM   H18H12807   0.736   2.711   5.061 -1.3398 -1.5662  0.4015
  122OSM      N12808   0.787   6.221   7.414 -0.1949  0.3389  0.3052
  122OSM    C1512809   0.638   6.225   7.379  0.3818 -0.2342 -0.1704
  122OSM   H15A12810   0.579   6.141   7.413  2.2716 -0.9752  1.4750
  122OSM   H15B12811   0.630   6.220   7.271  1.1895  1.4025 -0.3373
  122OSM   H15C12812   0.592   6.321   7.399  0.4085  0.5802 -3.4637
  122OSM    C1412813   0.846   6.337   7.338 -0.4190  0.2121  0.5917
  122OSM   H14A12814   0.954   6.336   7.346 -0.0356  1.2879 -2.8712
  122OSM   H14B12815   0.808   6.433   7.368  0.5935  1.3050 -1.4153
  122OSM   H14C12816   0.829   6.323   7.232  3.6584  1.7995 -0.4681
  122OSM    C1312817   0.820   6.248   7.558 -0.0143 -0.4516  0.2026
  122OSM   H13A12818   0.809   6.162   7.622 -1.3494 -0.1195  0.4534
  122OSM   H13B12819   0.758   6.329   7.594 -1.2616 -0.4321 -1.8743
  122OSM   H13C12820   0.926   6.268   7.567  0.5630 -3.3202  0.7409
  122OSM    C1212821   0.857   6.086   7.372  0.0475  0.5578  0.6679
  122OSM   H12A12822   0.829   6.000   7.430  2.1541 -2.1232 -1.9973
  122OSM   H12B12823   0.962   6.097   7.393  0.0503  0.0155  0.9668
  122OSM    C1112824   0.849   6.037   7.226 -0.5545 -0.1423 -0.0135
  122OSM   H11A12825   0.916   5.948   7.216  0.6014  0.5982  0.9232
  122OSM   H11B12826   0.900   6.110   7.161 -0.6173  0.7929  0.9647
  122OSM      P12827   0.652   5.879   7.209  0.0490 -0.2528  0.0193
  122OSM    O1312828   0.696   5.836   7.343 -0.3492  0.5076  0.5636
  122OSM    O1412829   0.503   5.894   7.186  0.0350  0.8693 -0.0069
  122OSM    O1112830   0.721   5.774   7.111  0.1548 -0.1560  0.6314
  122OSM    O1212831   0.720   6.016   7.168  0.0640 -0.2661  0.1359
  122OSM    C1S12832   0.702   5.796   6.967 -0.3128  0.0422 -0.5278
  122OSM    H1S12833   0.781   5.858   6.919  0.2036 -0.3950 -0.2378
  122OSM    H1T12834   0.603   5.840   6.942  0.2358  0.9101 -1.2470
  122OSM     NF12835   0.725   5.665   6.748  0.1467  0.5159 -0.2583
  122OSM    HNF12836   0.646   5.633   6.696  1.7046 -2.6898 -0.9124
  122OSM    C2S12837   0.715   5.654   6.896 -0.2122  0.2532  0.5966
  122OSM    H2S12838   0.805   5.602   6.937 -0.7449 -0.2507  1.1422
  122OSM    C3S12839   0.589   5.572   6.944 -0.5248  0.4768  0.1152
  122OSM    H3S12840   0.494   5.625   6.920 -0.8416  0.6842  1.6950
  122OSM     O312841   0.577   5.547   7.083  0.2644  0.7868  0.0144
  122OSM    HO312842   0.631   5.614   7.127 -0.3213  0.1812  1.7228
  122OSM    C4S12843   0.586   5.440   6.874 -0.7983  0.0639 -1.0259
  122OSM    H4S12844   0.679   5.382   6.878 -0.3771  0.5182 -3.1923
  122OSM    C5S12845   0.475   5.388   6.822  0.6340 -0.7787 -1.0239
  122OSM    H5S12846   0.384   5.449   6.836  0.7545 -0.5615 -1.2000
  122OSM    C6S12847   0.454   5.252   6.758 -0.3023 -0.6841  0.4436
  122OSM    H6S12848   0.367   5.191   6.790 -0.5675 -1.8356 -2.1986
  122OSM    H6T12849   0.545   5.188   6.761 -0.8290 -1.4791 -0.0076
  122OSM    C7S12850   0.434   5.274   6.610  0.1226  0.1245  0.3054
  122OSM    H7S12851   0.343   5.336   6.591 -1.4285 -1.4174  2.2493
  122OSM    H7T12852   0.419   5.172   6.567  0.0531  0.5257 -0.6553
  122OSM    C8S12853   0.557   5.325   6.536 -0.6194 -0.3399  0.0100
  122OSM    H8S12854   0.647   5.263   6.554  0.2436  1.3562  1.8356
  122OSM    H8T12855   0.588   5.423   6.575  1.0356 -0.0376 -1.8773
  122OSM    C9S12856   0.548   5.320   6.386 -0.2063 -0.0142 -0.5191
  122OSM    H9S12857   0.624   5.390   6.345  0.1152 -0.0779 -0.0286
  122OSM    H9T12858   0.451   5.369   6.362 -0.7774 -0.0744  1.4990
  122OSM   C10S12859   0.567   5.178   6.325  0.1795 -0.1712  0.1071
  122OSM   H10S12860   0.469   5.125   6.321 -1.7713  2.9984  1.2923
  122OSM   H10T12861   0.642   5.125   6.387 -0.2648  0.1923  0.9768
  122OSM   C11S12862   0.625   5.183   6.181 -0.3697  0.2292  0.2584
  122OSM   H11S12863   0.652   5.085   6.136 -1.2350  0.5593 -1.0203
  122OSM   H11T12864   0.720   5.240   6.179  0.1749 -0.6393 -2.0585
  122OSM   C12S12865   0.519   5.245   6.092 -0.3368 -0.8620  0.0497
  122OSM   H12S12866   0.499   5.341   6.143  1.5663 -0.8199  0.7956
  122OSM   H12T12867   0.426   5.185   6.098 -0.1836 -0.9827  1.6189
  122OSM   C13S12868   0.562   5.268   5.942  0.4304 -0.1460 -0.2128
  122OSM   H13S12869   0.559   5.164   5.903 -0.5294  0.1998 -1.1134
  122OSM   H13T12870   0.663   5.314   5.943 -0.1193  1.0779  0.2053
  122OSM   C14S12871   0.456   5.342   5.850  0.1851 -0.5079 -0.4684
  122OSM   H14S12872   0.464   5.449   5.877 -0.6638 -0.7714  0.9170
  122OSM   H14T12873   0.354   5.307   5.877  0.5126  0.9256  3.1336
  122OSM   C15S12874   0.482   5.312   5.701  0.1933  0.1843 -0.4365
  122OSM   H15S12875   0.483   5.202   5.687  0.5718  0.0475  0.5554
  122OSM   H15T12876   0.584   5.345   5.675  0.5889  0.2040  1.0376
  122OSM   C16S12877   0.379   5.379   5.607 -0.3392  0.3476  0.4185
  122OSM   H16S12878   0.365   5.488   5.623  0.3955  0.4325  0.5246
  122OSM   H16T12879   0.283   5.331   5.638 -0.0344 -0.6750 -0.1457
  122OSM   C17S12880   0.420   5.353   5.461  0.8037  0.0678  0.2766
  122OSM   H17S12881   0.467   5.252   5.454 -0.9355 -0.7472 -0.5452
  122OSM   H17T12882   0.498   5.424   5.427  1.6854  0.1027  2.2353
  122OSM   C18S12883   0.297   5.360   5.367 -0.0624  0.2961 -0.1443
  122OSM   H18S12884   0.204   5.370   5.428  1.1771  4.6185  1.3773
  122OSM   H18T12885   0.291   5.281   5.289  0.3677 -0.6326  0.7244
  122OSM   H18U12886   0.288   5.459   5.318 -0.3968 -1.1354 -3.2464
  122OSM    C1F12887   0.834   5.713   6.684 -0.4617 -0.8858  0.3455
  122OSM     OF12888   0.946   5.738   6.740 -0.3876  0.1642 -0.1209
  122OSM    C2F12889   0.821   5.721   6.532 -0.0869  0.6400 -0.7111
  122OSM    H2F12890   0.727   5.677   6.494 -0.1032  1.3864 -1.5718
  122OSM    H2G12891   0.898   5.645   6.503 -1.3136 -2.2127  2.7438
  122OSM    C3F12892   0.834   5.869   6.484 -0.7542  0.3229 -0.1225
  122OSM    H3F12893   0.907   5.931   6.540 -1.4531  1.0641 -0.0123
  122OSM    H3G12894   0.738   5.919   6.509 -0.7547 -0.3016  1.2199
  122OSM    C4F12895   0.865   5.876   6.342  0.3922 -0.4236  0.1591
  122OSM    H4F12896   0.951   5.807   6.330  1.9712  0.8886  3.0493
  122OSM    H4G12897   0.886   5.980   6.308  0.5125 -0.7778 -0.8917
  122OSM    C5F12898   0.749   5.840   6.244  0.2072  0.1887 -0.1933
  122OSM    H5F12899   0.650   5.883   6.273 -0.4230 -0.8602 -0.7551
  122OSM    H5G12900   0.730   5.733   6.263 -0.7155  0.5969  1.3649
  122OSM    C6F12901   0.769   5.865   6.096 -0.1083 -0.6307  0.4017
  122OSM    H6F12902   0.868   5.824   6.068 -0.8796 -3.3501  1.3433
  122OSM    H6G12903   0.760   5.973   6.070  0.6545 -1.0655 -1.8961
  122OSM    C7F12904   0.659   5.808   6.009  0.1830  0.5490  0.1024
  122OSM    H7F12905   0.567   5.842   6.061 -1.0420 -0.6988 -1.1512
  122OSM    H7G12906   0.662   5.697   6.014 -0.3373  0.4900 -0.7374
  122OSM    C8F12907   0.669   5.846   5.859  0.1302 -0.3303  0.9277
  122OSM    H8F12908   0.778   5.834   5.841  0.7458  1.3104  3.1574
  122OSM    H8G12909   0.641   5.950   5.832 -0.8258 -1.0975 -1.3034
  122OSM    C9F12910   0.579   5.760   5.770 -0.5538 -0.5945 -0.2362
  122OSM    H9F12911   0.518   5.693   5.832  1.0795 -0.2092  1.8986
  122OSM   C10F12912   0.581   5.761   5.634 -0.1099  0.4582  0.3387
  122OSM   H10F12913   0.513   5.694   5.581  0.0914 -0.5773  1.3624
  122OSM   C11F12914   0.672   5.844   5.541  0.3464 -0.1973 -0.6288
  122OSM   H11F12915   0.773   5.846   5.586  0.5631 -1.0801 -1.0582
  122OSM   H11G12916   0.644   5.952   5.537 -0.2541 -0.2505  1.2878
  122OSM   C12F12917   0.688   5.776   5.404  0.1898  0.1313 -0.4472
  122OSM   H12F12918   0.734   5.676   5.421 -0.7519 -0.2673 -0.2287
  122OSM   H12G12919   0.766   5.833   5.348  0.3638  0.1429 -0.1949
  122OSM   C13F12920   0.568   5.751   5.315 -0.7070 -0.0466  0.5263
  122OSM   H13F12921   0.516   5.849   5.321 -0.1449  0.2623  0.3516
  122OSM   H13G12922   0.508   5.665   5.353 -3.1448  1.7152  0.8973
  122OSM   C14F12923   0.605   5.726   5.170 -0.7227  0.2699  0.1432
  122OSM   H14F12924   0.665   5.633   5.160  1.7387  1.8233 -0.3939
  122OSM   H14G12925   0.678   5.807   5.147 -0.6834  0.0266 -0.6201
  122OSM   C15F12926   0.490   5.739   5.065  0.4284 -0.4531  0.3224
  122OSM   H15F12927   0.537   5.743   4.964  0.7623  1.3079  0.5240
  122OSM   H15G12928   0.440   5.838   5.072  1.8941  0.2692  0.8936
  122OSM   C16F12929   0.384   5.628   5.089  0.4100 -0.5532  0.2908
  122OSM   H16F12930   0.345   5.643   5.192 -0.8327  2.5209 -0.5077
  122OSM   H16G12931   0.433   5.530   5.070 -1.5902 -1.2283 -1.9285
  122OSM   C17F12932   0.274   5.633   4.977  0.1034  0.2004 -0.5382
  122OSM   H17F12933   0.327   5.645   4.880 -0.3411 -0.9838 -0.9535
  122OSM   H17G12934   0.196   5.711   4.985  0.6979  0.8628 -1.0136
  122OSM   C18F12935   0.190   5.501   4.955  0.1986 -0.1198 -0.5876
  122OSM   H18F12936   0.234   5.410   4.908 -1.5617 -0.8009 -0.9903
  122OSM   H18G12937   0.093   5.523   4.905 -0.7918 -1.9125  0.4376
  122OSM   H18H12938   0.162   5.467   5.056 -1.0342 -2.4481 -1.6417
  123OSM      N12939   5.536   2.846   2.156  0.2358 -0.2199 -0.1856
  123OSM    C1512940   5.476   2.747   2.054  0.3218 -0.0077 -0.2992
  123OSM   H15A12941   5.375   2.718   2.077  0.6501 -1.0048 -0.0553
  123OSM   H15B12942   5.531   2.654   2.053  0.7543  0.2315  0.6828
  123OSM   H15C12943   5.491   2.788   1.955  0.6660 -0.6226 -0.5054
  123OSM    C1412944   5.678   2.885   2.126  0.6024  0.2958 -0.6233
  123OSM   H14A12945   5.738   2.795   2.126 -1.8325 -1.4704 -2.0398
  123OSM   H14B12946   5.718   2.962   2.190  0.6752  0.9574 -1.4450
  123OSM   H14C12947   5.668   2.925   2.026 -1.6613  0.7396 -0.2827
  123OSM    C1312948   5.457   2.974   2.141 -0.1097  0.0497  0.1717
  123OSM   H13A12949   5.360   2.958   2.185  0.9754 -0.6883  2.5208
  123OSM   H13B12950   5.449   3.013   2.041 -2.0926  1.7513  0.9280
  123OSM   H13C12951   5.513   3.045   2.201 -0.7665  0.8878 -0.1976
  123OSM    C1212952   5.521   2.798   2.295 -0.0697  0.6344  0.3600
  123OSM   H12A12953   5.584   2.710   2.301 -0.2144  0.5618  0.9648
  123OSM   H12B12954   5.421   2.758   2.304  0.0314  0.2613 -0.1413
  123OSM    C1112955   5.576   2.880   2.419  0.0904  0.0864  0.3937
  123OSM   H11A12956   5.679   2.901   2.382 -0.9728  1.3564 -2.1054
  123OSM   H11B12957   5.580   2.822   2.513  3.8228  0.5897  0.7028
  123OSM      P12958   5.569   3.117   2.532 -0.2899 -0.2717  0.3559
  123OSM    O1312959   5.683   3.177   2.460  0.1878  0.6938  0.5269
  123OSM    O1412960   5.463   3.205   2.582  0.3295 -0.2268  0.0182
  123OSM    O1112961   5.629   3.039   2.657  0.1384  0.2359 -0.1072
  123OSM    O1212962   5.509   3.002   2.440  0.5308  0.3257 -0.2835
  123OSM    C1S12963   5.694   3.094   2.776 -0.6799  0.1744 -0.0875
  123OSM    H1S12964   5.622   3.156   2.835  0.8503  0.3039  1.7580
  123OSM    H1T12965   5.785   3.152   2.749 -1.2597  1.0433 -0.2390
  123OSM     NF12966   5.842   3.033   2.976 -0.8400  0.0315 -0.4022
  123OSM    HNF12967   5.940   3.022   2.961 -0.3934  0.2903  1.9599
  123OSM    C2S12968   5.762   2.981   2.871  0.9222  0.0108  0.0135
  123OSM    H2S12969   5.676   2.929   2.918  1.1819  0.0322  0.5213
  123OSM    C3S12970   5.835   2.876   2.783 -0.2955  0.2772  1.1240
  123OSM    H3S12971   5.925   2.925   2.738 -0.8408 -0.3198 -0.7076
  123OSM     O312972   5.774   2.828   2.663 -0.2704 -0.1856 -0.4888
  123OSM    HO312973   5.702   2.891   2.656 -0.5969 -0.6025 -0.9237
  123OSM    C4S12974   5.885   2.760   2.865  0.4432  0.7747  0.3425
  123OSM    H4S12975   5.985   2.793   2.898  0.2725  0.4590  1.2251
  123OSM    C5S12976   5.819   2.645   2.899 -0.2093 -0.4648 -0.0611
  123OSM    H5S12977   5.725   2.623   2.846  0.4444 -0.8847 -1.0811
  123OSM    C6S12978   5.884   2.541   2.985 -0.6167 -0.4514 -0.5944
  123OSM    H6S12979   5.854   2.444   2.942 -2.9442 -0.4287  0.8182
  123OSM    H6T12980   5.831   2.558   3.081  2.5302  1.8628  0.8920
  123OSM    C7S12981   6.036   2.546   3.012 -0.1406  0.7461  0.0567
  123OSM    H7S12982   6.061   2.642   3.062  0.5178  0.0335  1.1309
  123OSM    H7T12983   6.093   2.563   2.919  0.3252  1.1309  0.4102
  123OSM    C8S12984   6.085   2.422   3.089 -0.5040  0.2020 -0.5753
  123OSM    H8S12985   6.061   2.327   3.038 -1.2399  0.1458 -0.1374
  123OSM    H8T12986   6.036   2.419   3.188 -0.1968 -1.2985 -0.4549
  123OSM    C9S12987   6.236   2.437   3.114 -0.0935 -0.4527  0.6188
  123OSM    H9S12988   6.277   2.534   3.146 -0.7979  0.0436  0.0548
  123OSM    H9T12989   6.277   2.422   3.012  1.1366  3.1055  0.4688
  123OSM   C10S12990   6.285   2.320   3.202 -0.0738  0.2902 -0.0870
  123OSM   H10S12991   6.395   2.314   3.191  0.2383  3.8455 -0.0198
  123OSM   H10T12992   6.241   2.220   3.182  1.3547 -0.3328 -0.2101
  123OSM   C11S12993   6.276   2.345   3.354  0.8636  0.1057  0.8764
  123OSM   H11S12994   6.172   2.314   3.377  1.1323 -1.4040  0.1541
  123OSM   H11T12995   6.312   2.447   3.382  1.7488  0.7109 -2.0785
  123OSM   C12S12996   6.369   2.251   3.432 -0.2158  0.2215  0.4190
  123OSM   H12S12997   6.473   2.262   3.395 -0.5701 -1.4125 -1.2329
  123OSM   H12T12998   6.351   2.145   3.403  1.0605 -0.0534  0.5643
  123OSM   C13S12999   6.347   2.263   3.577 -0.4129  0.5894 -0.6571
  123OSM   H13S13000   6.238   2.257   3.596 -0.1564 -2.0487  0.3151
  123OSM   H13T13001   6.377   2.362   3.618 -1.6595 -0.1395  2.2262
  123OSM   C14S13002   6.437   2.165   3.656  0.3877  0.5848  0.8023
  123OSM   H14S13003   6.540   2.194   3.627 -0.1038  1.3900 -0.2037
  123OSM   H14T13004   6.411   2.063   3.620 -0.7432  0.7364  1.1394
  123OSM   C15S13005   6.424   2.172   3.804 -0.2264  0.7445 -0.1958
  123OSM   H15S13006   6.463   2.271   3.836  0.9846  0.6959 -1.4250
  123OSM   H15T13007   6.509   2.108   3.837  2.9267  3.3094 -2.5908
  123OSM   C16S13008   6.285   2.142   3.863 -0.2760  0.0113  0.1987
  123OSM   H16S13009   6.256   2.043   3.822 -1.6763  0.1859  0.7009
  123OSM   H16T13010   6.217   2.221   3.824  0.8041  0.6783 -0.3870
  123OSM   C17S13011   6.288   2.138   4.016  0.2564 -0.2475 -0.1899
  123OSM   H17S13012   6.302   2.239   4.060  2.1198 -0.2065 -0.7726
  123OSM   H17T13013   6.378   2.082   4.051  0.3977  0.6687  0.9848
  123OSM   C18S13014   6.163   2.072   4.070 -0.1259  0.2099 -0.4408
  123OSM   H18S13015   6.170   2.073   4.181  2.0294  3.7585 -0.4429
  123OSM   H18T13016   6.164   1.966   4.039  2.6581  0.7700 -2.6830
  123OSM   H18U13017   6.074   2.134   4.049 -0.6317  0.4573  2.0531
  123OSM    C1F13018   5.806   3.110   3.076 -0.1837 -0.6934 -0.1493
  123OSM     OF13019   5.687   3.130   3.101  0.6664 -0.2666 -0.7127
  123OSM    C2F13020   5.922   3.155   3.172  1.2467 -0.1331 -0.4765
  123OSM    H2F13021   5.962   3.255   3.143 -0.2325  1.4046  2.3810
  123OSM    H2G13022   6.006   3.083   3.158  1.4781  0.1516 -0.5809
  123OSM    C3F13023   5.891   3.154   3.326 -0.0409 -0.4374  0.2662
  123OSM    H3F13024   5.889   3.048   3.358  0.7921 -0.2663  0.9244
  123OSM    H3G13025   5.794   3.206   3.344  1.0123  2.6646 -2.0274
  123OSM    C4F13026   5.993   3.234   3.405 -1.0330 -0.3753  0.2863
  123OSM    H4F13027   5.959   3.339   3.395 -1.1400 -0.3885  0.4940
  123OSM    H4G13028   6.092   3.231   3.356 -1.9090  1.2665 -1.7562
  123OSM    C5F13029   6.027   3.200   3.549 -0.0373 -0.1794  0.1039
  123OSM    H5F13030   6.122   3.247   3.583  0.9150 -1.8497 -0.1097
  123OSM    H5G13031   6.052   3.092   3.554  1.3319  0.1104 -0.1277
  123OSM    C6F13032   5.913   3.238   3.645  0.0263 -0.1623 -0.0639
  123OSM    H6F13033   5.821   3.184   3.614 -0.6884  0.9589  0.0602
  123OSM    H6G13034   5.885   3.346   3.638 -0.6927 -0.2077  1.5237
  123OSM    C7F13035   5.949   3.209   3.789  0.1994  0.4293 -0.5987
  123OSM    H7F13036   5.873   3.256   3.856  0.2535  0.1486 -0.3406
  123OSM    H7G13037   6.044   3.264   3.807  0.9821 -0.9194 -0.5206
  123OSM    C8F13038   5.960   3.057   3.821  0.3038  0.1670 -1.1600
  123OSM    H8F13039   6.036   3.019   3.751  1.0420  0.3897 -0.4950
  123OSM    H8G13040   5.863   3.004   3.806 -0.8828  1.1369  2.1438
  123OSM    C9F13041   6.008   3.042   3.961  0.2032 -0.1955 -0.3259
  123OSM    H9F13042   6.104   3.095   3.973 -0.0309  0.8920 -2.6086
  123OSM   C10F13043   5.935   3.009   4.072 -0.3948 -0.7679 -0.7476
  123OSM   H10F13044   5.991   3.012   4.167  0.1365  0.5958 -1.0867
  123OSM   C11F13045   5.792   2.960   4.082 -0.3355 -0.7745 -0.7400
  123OSM   H11F13046   5.746   2.955   3.981 -0.2221 -1.3683 -0.7627
  123OSM   H11G13047   5.727   3.034   4.134 -0.9332 -2.2985  0.7599
  123OSM   C12F13048   5.769   2.826   4.149 -0.3665 -0.4393 -0.5197
  123OSM   H12F13049   5.823   2.750   4.087 -1.9579 -1.0311 -1.2289
  123OSM   H12G13050   5.661   2.801   4.154 -0.0684 -1.7159  0.0392
  123OSM   C13F13051   5.820   2.828   4.300 -0.4551  0.0401 -0.7012
  123OSM   H13F13052   5.773   2.913   4.352  2.6487  0.8558  0.9713
  123OSM   H13G13053   5.929   2.845   4.297 -0.5359  0.6819 -0.2052
  123OSM   C14F13054   5.794   2.699   4.377  0.2685  0.4593 -0.4208
  123OSM   H14F13055   5.835   2.613   4.320 -1.6673 -0.0082 -1.1843
  123OSM   H14G13056   5.684   2.688   4.389  0.1235  1.3860 -0.8272
  123OSM   C15F13057   5.863   2.695   4.514 -0.0688 -0.7971 -0.1611
  123OSM   H15F13058   5.974   2.700   4.504 -0.1337  1.1544 -0.2566
  123OSM   H15G13059   5.847   2.598   4.565 -0.8221  0.2064  1.5987
  123OSM   C16F13060   5.819   2.801   4.621  0.1395 -0.6332  0.6299
  123OSM   H16F13061   5.708   2.799   4.633 -0.0165 -0.2227 -0.5947
  123OSM   H16G13062   5.849   2.903   4.589  2.3171 -1.4340 -0.0692
  123OSM   C17F13063   5.872   2.776   4.763  0.0195  0.0940  0.6325
  123OSM   H17F13064   5.826   2.856   4.825 -2.6323  0.1312 -1.2156
  123OSM   H17G13065   5.982   2.789   4.761 -0.1334  1.4456  0.1752
  123OSM   C18F13066   5.843   2.638   4.830 -0.1267 -0.1299 -0.3810
  123OSM   H18F13067   5.733   2.626   4.837 -0.3875  2.1906  0.2522
  123OSM   H18G13068   5.897   2.633   4.927  2.6513 -2.3896 -1.8935
  123OSM   H18H13069   5.881   2.555   4.767  0.6181 -0.4810  0.4931
  124OSM      N13070   0.109   4.874   2.656 -0.5375  0.9218  0.2043
  124OSM    C1513071  -0.022   4.798   2.671 -0.5272 -0.0728 -0.0404
  124OSM   H15A13072  -0.086   4.842   2.747 -0.2388 -0.0993  0.2207
  124OSM   H15B13073   0.018   4.704   2.708  2.8387  1.3874  0.3744
  124OSM   H15C13074  -0.072   4.774   2.578 -1.0290  0.7082  0.0160
  124OSM    C1413075   0.219   4.808   2.591 -0.6322 -0.7358  0.6009
  124OSM   H14A13076   0.304   4.874   2.601 -0.9048  0.0027 -1.3238
  124OSM   H14B13077   0.188   4.793   2.488 -0.3396 -1.9966  0.6831
  124OSM   H14C13078   0.240   4.715   2.640  0.7495 -1.6165 -1.5325
  124OSM    C1313079   0.073   4.996   2.582 -0.2721  0.7482 -0.2453
  124OSM   H13A13080   0.002   5.046   2.645  1.3214  1.0682  1.3833
  124OSM   H13B13081   0.028   4.976   2.486  0.2963  0.9146 -0.5522
  124OSM   H13C13082   0.155   5.065   2.573 -1.5659  2.4598  0.5836
  124OSM    C1213083   0.148   4.915   2.798  0.5669  0.2642 -0.5169
  124OSM   H12A13084   0.081   4.995   2.825 -1.0933 -1.0646 -0.5099
  124OSM   H12B13085   0.250   4.949   2.801  0.5613  0.2347  0.1042
  124OSM    C1113086   0.140   4.801   2.909  0.0681 -0.2064 -0.2272
  124OSM   H11A13087   0.032   4.776   2.912  0.4760 -2.2208 -0.8175
  124OSM   H11B13088   0.173   4.851   3.003 -0.6174 -0.6314  0.2545
  124OSM      P13089   0.364   4.686   2.905  0.0904 -0.4729  0.4020
  124OSM    O1313090   0.423   4.552   2.911  0.3850  0.2589  1.4712
  124OSM    O1413091   0.427   4.768   2.804  0.0688 -0.4524  0.2792
  124OSM    O1113092   0.392   4.756   3.040  0.2300  0.3239  0.6517
  124OSM    O1213093   0.209   4.681   2.884  0.5258  0.4375 -0.6016
  124OSM    C1S13094   0.501   4.707   3.125  1.1070 -1.0314  0.5748
  124OSM    H1S13095   0.594   4.757   3.090 -0.9361  2.3599 -0.5044
  124OSM    H1T13096   0.517   4.597   3.126 -0.0858 -1.2304  1.6668
  124OSM     NF13097   0.594   4.723   3.351  0.5594  0.5815 -0.0567
  124OSM    HNF13098   0.604   4.641   3.407 -0.5621  1.1633  1.0591
  124OSM    C2S13099   0.473   4.748   3.276  0.1672  0.4194  0.0842
  124OSM    H2S13100   0.446   4.855   3.287 -0.0272  0.2590  1.4220
  124OSM    C3S13101   0.347   4.666   3.327 -0.2421  0.0514 -0.1138
  124OSM    H3S13102   0.383   4.561   3.321  0.5888  0.3958 -1.9746
  124OSM     O313103   0.232   4.687   3.238 -0.1673 -0.1195 -0.2747
  124OSM    HO313104   0.271   4.718   3.155  4.2069 -0.5105  1.3586
  124OSM    C4S13105   0.315   4.700   3.471  0.3983  0.0044  0.2738
  124OSM    H4S13106   0.385   4.666   3.548 -0.2567  1.6177  1.6381
  124OSM    C5S13107   0.200   4.763   3.506  0.0149 -0.1570 -1.0818
  124OSM    H5S13108   0.126   4.794   3.431 -0.7583 -0.5541 -0.4962
  124OSM    C6S13109   0.166   4.786   3.654  0.7379 -0.0067  0.4953
  124OSM    H6S13110   0.055   4.775   3.661  0.6352 -1.9859 -2.3908
  124OSM    H6T13111   0.195   4.889   3.683  0.8371  0.4814 -1.2307
  124OSM    C7S13112   0.230   4.696   3.764  0.0128  0.0432 -0.1141
  124OSM    H7S13113   0.334   4.729   3.783  0.4853  0.2787 -2.6804
  124OSM    H7T13114   0.220   4.588   3.739 -0.2339 -0.4164  1.7991
  124OSM    C8S13115   0.154   4.718   3.889  1.0291  0.1496 -0.7101
  124OSM    H8S13116   0.058   4.662   3.892  1.7985 -1.2141  1.8311
  124OSM    H8T13117   0.142   4.828   3.902 -2.4087  0.0223 -1.8466
  124OSM    C9S13118   0.227   4.669   4.017  0.5285  0.3277  0.2774
  124OSM    H9S13119   0.151   4.701   4.091  1.8650  0.5296  1.6153
  124OSM    H9T13120   0.318   4.732   4.027  1.1533 -0.4184 -0.4469
  124OSM   C10S13121   0.240   4.519   4.027 -0.5089 -0.3190  0.3790
  124OSM   H10S13122   0.330   4.479   3.975 -0.8327 -0.3601 -0.1587
  124OSM   H10T13123   0.150   4.474   3.981  0.7512 -0.8755 -1.6833
  124OSM   C11S13124   0.269   4.470   4.173 -0.1176 -0.5801 -0.2621
  124OSM   H11S13125   0.198   4.515   4.247  1.1783 -1.1498  1.3949
  124OSM   H11T13126   0.367   4.510   4.208 -0.3708  0.1562 -0.3725
  124OSM   C12S13127   0.262   4.321   4.188  0.2543  0.4947  0.0437
  124OSM   H12S13128   0.344   4.278   4.126 -1.1167  0.8142 -2.1337
  124OSM   H12T13129   0.167   4.277   4.151  0.7165 -0.4449 -0.0592
  124OSM   C13S13130   0.275   4.263   4.326 -0.6811 -0.2364 -0.0692
  124OSM   H13S13131   0.182   4.288   4.382 -1.0331  0.5342 -0.9813
  124OSM   H13T13132   0.369   4.308   4.365 -0.7429 -0.6322  0.5450
  124OSM   C14S13133   0.278   4.112   4.315 -0.5877 -0.2236  0.3373
  124OSM   H14S13134   0.377   4.080   4.277 -1.7257 -0.1654 -2.9839
  124OSM   H14T13135   0.214   4.059   4.242 -1.5821 -1.8225  2.2720
  124OSM   C15S13136   0.258   4.045   4.451 -0.4337 -1.4302  0.6650
  124OSM   H15S13137   0.258   3.934   4.441  0.2731 -1.3936  0.1742
  124OSM   H15T13138   0.157   4.079   4.485 -0.6323  0.7299 -1.8242
  124OSM   C16S13139   0.369   4.087   4.558 -0.0556 -0.2420 -0.0928
  124OSM   H16S13140   0.361   4.197   4.574 -3.0840 -0.2988 -0.5180
  124OSM   H16T13141   0.471   4.077   4.516 -0.2938 -1.8779 -0.3305
  124OSM   C17S13142   0.366   4.001   4.684  0.4981  0.5600 -0.4163
  124OSM   H17S13143   0.363   3.895   4.650  1.9586  1.2067 -2.8365
  124OSM   H17T13144   0.272   4.018   4.740 -0.7316  0.7525 -2.4310
  124OSM   C18S13145   0.496   4.021   4.766  0.1030  0.1166  0.1011
  124OSM   H18S13146   0.489   3.958   4.858 -1.3926 -0.5469 -0.4183
  124OSM   H18T13147   0.503   4.130   4.784 -0.2431  0.3017 -0.8223
  124OSM   H18U13148   0.587   3.981   4.716  0.5832  1.0806  0.2001
  124OSM    C1F13149   0.699   4.800   3.328  0.5150  0.1646  0.4691
  124OSM     OF13150   0.692   4.896   3.251 -0.5889  0.6051 -0.3761
  124OSM    C2F13151   0.823   4.747   3.400  0.0130 -0.1412 -0.0564
  124OSM    H2F13152   0.798   4.642   3.425  2.5964 -0.9464 -0.5262
  124OSM    H2G13153   0.839   4.800   3.496 -1.1223 -0.1377  0.1397
  124OSM    C3F13154   0.947   4.744   3.303 -0.0392 -0.6192  0.2392
  124OSM    H3F13155   1.024   4.695   3.366 -0.9748 -1.4498  0.7560
  124OSM    H3G13156   0.975   4.844   3.263 -0.2809 -0.3235  0.7970
  124OSM    C4F13157   0.942   4.641   3.194  0.7640  0.0656  0.0994
  124OSM    H4F13158   1.039   4.653   3.140  0.5637 -0.1387 -0.3099
  124OSM    H4G13159   0.860   4.675   3.127  0.5581  0.5890  0.6129
  124OSM    C5F13160   0.924   4.495   3.230  0.1821  0.0313  0.8372
  124OSM    H5F13161   0.901   4.428   3.144  0.8259 -0.8770  1.3531
  124OSM    H5G13162   0.824   4.493   3.278 -0.9702 -3.2978 -1.3271
  124OSM    C6F13163   1.028   4.439   3.333  0.7614  0.5496 -0.0512
  124OSM    H6F13164   0.997   4.487   3.428 -1.4913  2.0871 -1.4745
  124OSM    H6G13165   1.133   4.468   3.309  0.8721 -1.1154 -1.8070
  124OSM    C7F13166   1.035   4.288   3.338 -0.7707 -0.0718 -0.1929
  124OSM    H7F13167   1.062   4.259   3.234  0.0252 -0.4450  0.1079
  124OSM    H7G13168   0.929   4.261   3.357 -1.0093  0.2917 -0.9460
  124OSM    C8F13169   1.135   4.221   3.439  0.5003  0.1495 -0.0782
  124OSM    H8F13170   1.103   4.250   3.542  0.8332 -1.3417  0.4605
  124OSM    H8G13171   1.239   4.258   3.427  0.5414  0.3184  0.7130
  124OSM    C9F13172   1.157   4.072   3.421  0.9625 -0.2189  0.5339
  124OSM    H9F13173   1.189   4.038   3.322 -1.6416 -1.3861  0.0023
  124OSM   C10F13174   1.140   3.973   3.512  0.1279 -0.1866 -1.1060
  124OSM   H10F13175   1.165   3.868   3.490 -2.8809 -1.0363 -0.8389
  124OSM   C11F13176   1.102   3.995   3.653  0.4263 -0.4550 -0.1602
  124OSM   H11F13177   1.011   3.934   3.671  0.6339 -0.3069  1.5310
  124OSM   H11G13178   1.071   4.101   3.662  0.1295 -0.5081 -0.5230
  124OSM   C12F13179   1.204   3.966   3.762  0.8376  0.0548  0.5273
  124OSM   H12F13180   1.235   3.860   3.748  1.1071  0.3964 -1.8998
  124OSM   H12G13181   1.145   3.972   3.856 -0.9915  0.9062 -0.6117
  124OSM   C13F13182   1.318   4.065   3.766  0.4416 -0.0363 -0.1436
  124OSM   H13F13183   1.281   4.161   3.806 -1.0818 -0.5277 -0.3036
  124OSM   H13G13184   1.358   4.085   3.664  1.1208 -0.4583  0.0289
  124OSM   C14F13185   1.435   4.028   3.860  0.1025  0.7810 -0.0730
  124OSM   H14F13186   1.508   4.112   3.854 -0.5739  1.4381  0.6858
  124OSM   H14G13187   1.468   3.934   3.810  0.2451  0.0700  1.3121
  124OSM   C15F13188   1.385   4.020   4.004 -0.5193 -0.1614  0.7938
  124OSM   H15F13189   1.296   3.954   4.012 -0.6484 -0.1516 -0.3381
  124OSM   H15G13190   1.351   4.119   4.042  0.9693  0.6702  0.0588
  124OSM   C16F13191   1.495   3.964   4.093  0.3693 -0.2118 -0.2243
  124OSM   H16F13192   1.582   4.029   4.068 -0.6589  2.0333  1.5807
  124OSM   H16G13193   1.510   3.858   4.063 -2.9747 -0.8229 -0.0880
  124OSM   C17F13194   1.466   3.971   4.240 -0.1744 -0.3007  0.4759
  124OSM   H17F13195   1.363   3.930   4.255  1.0098 -4.1367 -0.8318
  124OSM   H17G13196   1.451   4.074   4.280  0.8343 -0.7007  1.9573
  124OSM   C18F13197   1.557   3.898   4.347 -0.0364 -0.0590 -0.1400
  124OSM   H18F13198   1.652   3.955   4.358  0.0104  0.0792 -1.1802
  124OSM   H18G13199   1.572   3.791   4.324 -0.0930 -0.3082  0.9216
  124OSM   H18H13200   1.504   3.894   4.445 -1.3737 -1.6973 -0.8979
  125OSM      N13201   6.231   1.376   2.203 -0.0022  0.4116 -0.4960
  125OSM    C1513202   6.150   1.482   2.282  0.2956  0.4353 -0.2404
  125OSM   H15A13203   6.048   1.486   2.247  0.2977 -0.6919 -0.3960
  125OSM   H15B13204   6.197   1.579   2.271  0.6778  0.2687 -0.0840
  125OSM   H15C13205   6.141   1.454   2.385 -0.0255 -1.8465 -0.8428
  125OSM    C1413206   6.155   1.351   2.078  0.3176  0.7339  0.3879
  125OSM   H14A13207   6.221   1.309   2.003  1.1498  0.8262  1.0608
  125OSM   H14B13208   6.121   1.447   2.040 -0.2050  0.7634  0.9101
  125OSM   H14C13209   6.061   1.300   2.092  1.1090 -0.4559  1.5258
  125OSM    C1313210   6.355   1.437   2.167  0.1404  0.5156  0.3124
  125OSM   H13A13211   6.413   1.362   2.116  0.8528 -0.2018  2.1023
  125OSM   H13B13212   6.404   1.480   2.253 -0.1779  0.1458  0.6764
  125OSM   H13C13213   6.329   1.517   2.098 -4.0334 -1.2688 -0.4756
  125OSM    C1213214   6.246   1.255   2.283 -0.1284 -0.2729 -1.1308
  125OSM   H12A13215   6.155   1.226   2.333 -0.6036  0.8984 -1.2841
  125OSM   H12B13216   6.310   1.271   2.369  0.3470  0.4898 -1.6102
  125OSM    C1113217   6.305   1.125   2.206  0.3445  0.8143 -0.3631
  125OSM   H11A13218   6.227   1.095   2.134  2.5682 -2.1504 -1.7556
  125OSM   H11B13219   6.315   1.047   2.285  0.9176  1.0123 -0.2337
  125OSM      P13220   6.571   1.135   2.184  0.0193  0.2175  0.6297
  125OSM    O1313221   6.641   1.074   2.073 -0.2037  0.3644  0.3915
  125OSM    O1413222   6.614   1.267   2.230  0.3444  0.2433  0.5560
  125OSM    O1113223   6.582   1.032   2.307  0.2553 -0.0102 -0.1239
  125OSM    O1213224   6.423   1.150   2.136  0.3072 -0.3071  0.7154
  125OSM    C1S13225   6.584   1.073   2.443  0.7278 -0.3821 -0.2399
  125OSM    H1S13226   6.569   1.183   2.448  2.1763 -0.0854 -1.8184
  125OSM    H1T13227   6.682   1.051   2.490  0.0527 -0.5381  1.1731
  125OSM     NF13228   6.519   1.058   2.682 -0.9959  0.2636  0.1521
  125OSM    HNF13229   6.575   0.999   2.739 -1.7813 -0.9635 -0.3034
  125OSM    C2S13230   6.491   1.006   2.551  0.4590 -0.3363  0.4156
  125OSM    H2S13231   6.385   1.025   2.527  0.7850  0.3099 -0.5814
  125OSM    C3S13232   6.500   0.848   2.529  0.6769  0.0780  0.2322
  125OSM    H3S13233   6.594   0.805   2.570 -0.4462 -1.0459  1.7577
  125OSM     O313234   6.482   0.811   2.393 -0.3827  0.0154  0.1715
  125OSM    HO313235   6.517   0.884   2.342 -0.8564  0.8185  0.9843
  125OSM    C4S13236   6.383   0.792   2.614  0.1785  0.1872  0.2936
  125OSM    H4S13237   6.290   0.843   2.585  0.4836 -0.6109 -2.3756
  125OSM    C5S13238   6.385   0.694   2.714 -0.1220 -0.2133 -0.5588
  125OSM    H5S13239   6.478   0.647   2.751  1.2048  1.7806 -1.2056
  125OSM    C6S13240   6.248   0.662   2.782  0.6450  0.0718  0.0696
  125OSM    H6S13241   6.230   0.554   2.765 -0.7096  0.2053  0.5310
  125OSM    H6T13242   6.163   0.712   2.731  0.6623 -0.5129 -0.5519
  125OSM    C7S13243   6.243   0.681   2.929  0.2438 -0.5682  0.0563
  125OSM    H7S13244   6.239   0.790   2.950  1.6521 -0.8611  2.0894
  125OSM    H7T13245   6.333   0.650   2.986  0.6013  0.6722  0.2048
  125OSM    C8S13246   6.120   0.608   2.986  0.4982  0.7740 -1.1164
  125OSM    H8S13247   6.124   0.499   2.964  0.3092  0.3385  0.7892
  125OSM    H8T13248   6.031   0.630   2.923 -1.2194 -0.4007  0.7452
  125OSM    C9S13249   6.082   0.639   3.131 -0.5514 -0.3341  0.0414
  125OSM    H9S13250   6.173   0.620   3.191  0.7547  0.5331 -1.5731
  125OSM    H9T13251   5.997   0.573   3.158  0.1438 -0.7064  1.4147
  125OSM   C10S13252   6.028   0.790   3.153  0.0453  1.2508 -0.2236
  125OSM   H10S13253   5.962   0.821   3.069 -0.9347 -0.7629 -0.2722
  125OSM   H10T13254   6.110   0.864   3.155  0.7707  0.5641 -1.9779
  125OSM   C11S13255   5.957   0.784   3.292 -0.0093  0.4589  0.4597
  125OSM   H11S13256   5.910   0.686   3.313  0.8287  0.5621  3.2318
  125OSM   H11T13257   5.885   0.868   3.305 -1.3195 -0.6381  0.5789
  125OSM   C12S13258   6.061   0.802   3.406  0.1196 -0.0055  0.1436
  125OSM   H12S13259   6.096   0.907   3.394 -0.3855  0.4799  2.5260
  125OSM   H12T13260   6.141   0.726   3.396 -0.7880 -0.9486 -0.0475
  125OSM   C13S13261   6.003   0.778   3.549 -0.7136 -0.4332 -0.3939
  125OSM   H13S13262   5.948   0.683   3.567  0.3076 -1.0956 -0.7131
  125OSM   H13T13263   5.923   0.853   3.569  0.5377  0.3552  1.9468
  125OSM   C14S13264   6.112   0.802   3.659  0.3812 -0.1731 -0.1490
  125OSM   H14S13265   6.144   0.908   3.657 -1.9563  0.6285  1.5192
  125OSM   H14T13266   6.202   0.740   3.638  0.2255  0.1296 -1.8576
  125OSM   C15S13267   6.056   0.782   3.798  0.0102 -0.0611  0.2258
  125OSM   H15S13268   6.032   0.678   3.830  0.9852 -0.7953 -1.2984
  125OSM   H15T13269   5.969   0.849   3.816 -0.3445  0.2589 -2.2776
  125OSM   C16S13270   6.159   0.810   3.910  0.6620 -0.3888  0.0576
  125OSM   H16S13271   6.228   0.887   3.869  0.3169 -0.8514 -1.4481
  125OSM   H16T13272   6.214   0.717   3.937 -0.7778 -0.6886  2.2686
  125OSM   C17S13273   6.084   0.856   4.034 -0.1445  0.0444 -0.1861
  125OSM   H17S13274   6.003   0.780   4.045 -1.4335  0.9017 -2.9193
  125OSM   H17T13275   6.037   0.956   4.018 -0.5529 -0.3168 -1.3576
  125OSM   C18S13276   6.174   0.849   4.158  0.5539 -0.1000  0.5285
  125OSM   H18S13277   6.257   0.922   4.162  2.2829 -1.8716 -0.8267
  125OSM   H18T13278   6.226   0.751   4.150  0.5407 -0.0364 -0.4170
  125OSM   H18U13279   6.106   0.868   4.244 -2.1169  3.3028 -2.0435
  125OSM    C1F13280   6.496   1.185   2.712  0.7281 -0.3522 -0.2771
  125OSM     OF13281   6.416   1.253   2.646 -0.4202  0.0617 -0.2653
  125OSM    C2F13282   6.554   1.226   2.838  0.1725  0.5551 -0.5707
  125OSM    H2F13283   6.655   1.182   2.854  0.5752  1.7491  0.3700
  125OSM    H2G13284   6.484   1.186   2.915 -1.0281  2.0101 -0.8585
  125OSM    C3F13285   6.574   1.377   2.841 -0.2251  0.0756 -0.3082
  125OSM    H3F13286   6.479   1.433   2.854  0.0101  0.5913 -0.7762
  125OSM    H3G13287   6.615   1.408   2.743 -0.1369  1.1496  0.0503
  125OSM    C4F13288   6.669   1.426   2.948 -0.1344  0.8716 -0.4482
  125OSM    H4F13289   6.694   1.532   2.927 -0.5353  0.8390 -1.1322
  125OSM    H4G13290   6.769   1.378   2.939 -0.5573 -0.9547  3.0038
  125OSM    C5F13291   6.630   1.395   3.091  0.4851  0.0346  0.6528
  125OSM    H5F13292   6.583   1.295   3.100 -0.6660  0.5221  0.2195
  125OSM    H5G13293   6.548   1.468   3.109  0.6080  0.1322  0.8340
  125OSM    C6F13294   6.742   1.415   3.195  0.2325 -0.0739 -0.0233
  125OSM    H6F13295   6.788   1.516   3.189  0.7481 -0.1785  1.7274
  125OSM    H6G13296   6.808   1.327   3.178  0.4294  0.0798 -0.0488
  125OSM    C7F13297   6.686   1.390   3.332 -0.1734  0.2753 -0.3122
  125OSM    H7F13298   6.651   1.284   3.329 -4.2119  1.4727 -2.0628
  125OSM    H7G13299   6.600   1.457   3.350  0.3318  0.5012  1.5141
  125OSM    C8F13300   6.802   1.400   3.438  0.6089  0.0424  0.3651
  125OSM    H8F13301   6.886   1.334   3.408  2.0833  1.7287  0.5824
  125OSM    H8G13302   6.781   1.345   3.533  2.3955 -1.2319  0.0768
  125OSM    C9F13303   6.849   1.537   3.474 -0.3649 -0.1394  0.6110
  125OSM    H9F13304   6.793   1.617   3.423 -2.3773 -0.2736  2.4533
  125OSM   C10F13305   6.940   1.568   3.568 -0.0387 -0.3647  0.5954
  125OSM   H10F13306   6.961   1.676   3.574 -0.3176 -0.2590 -0.1867
  125OSM   C11F13307   7.043   1.475   3.635 -0.1631  0.4224  1.0025
  125OSM   H11F13308   7.146   1.505   3.606 -0.0632 -0.3667  0.4919
  125OSM   H11G13309   7.030   1.368   3.608 -1.9975  0.5006  1.4702
  125OSM   C12F13310   7.042   1.486   3.787  0.4253 -0.4496 -0.3000
  125OSM   H12F13311   7.122   1.421   3.827 -0.0204 -1.2307 -0.6485
  125OSM   H12G13312   6.941   1.456   3.823  0.9217 -1.9494 -0.1021
  125OSM   C13F13313   7.073   1.626   3.832  0.2529 -0.1110 -0.4010
  125OSM   H13F13314   6.994   1.695   3.794  0.7065  0.9349  0.4770
  125OSM   H13G13315   7.172   1.661   3.797  0.0107  0.7826 -0.2441
  125OSM   C14F13316   7.076   1.636   3.989 -1.0449 -0.1930  0.6014
  125OSM   H14F13317   7.107   1.738   4.021  0.2696 -0.1681 -0.6602
  125OSM   H14G13318   7.163   1.574   4.019 -1.6347 -1.6187 -0.5430
  125OSM   C15F13319   6.948   1.590   4.062  0.6052 -0.4124  0.4118
  125OSM   H15F13320   6.948   1.479   4.067  0.0794 -0.3566  2.6377
  125OSM   H15G13321   6.865   1.631   4.000 -0.3696 -2.2575  0.4118
  125OSM   C16F13322   6.941   1.637   4.205 -0.3744  0.1477 -0.4818
  125OSM   H16F13323   6.919   1.745   4.219 -1.9406 -0.2817  0.6181
  125OSM   H16G13324   7.043   1.631   4.249  0.1520  2.0401 -1.3261
  125OSM   C17F13325   6.840   1.559   4.289  0.3771 -0.0990  0.6656
  125OSM   H17F13326   6.837   1.451   4.263  0.0844 -0.3325  1.6123
  125OSM   H17G13327   6.740   1.600   4.262  1.1373  0.3161 -1.7099
  125OSM   C18F13328   6.861   1.576   4.435  1.0232 -0.7989  0.5546
  125OSM   H18F13329   6.957   1.526   4.461  1.7700 -1.0719 -2.4300
  125OSM   H18G13330   6.777   1.534   4.496  0.3306 -1.0559 -0.5531
  125OSM   H18H13331   6.862   1.685   4.458 -0.5210 -1.2186  3.1162
  126OSM      N13332   4.747   0.688   2.878 -0.4383 -0.6761  0.2836
  126OSM    C1513333   4.889   0.643   2.866  0.1523 -0.5171 -0.3374
  126OSM   H15A13334   4.884   0.561   2.796 -4.2048 -0.4976 -0.3102
  126OSM   H15B13335   4.929   0.606   2.960  0.4290  1.4856  0.3795
  126OSM   H15C13336   4.947   0.719   2.816 -1.6666  0.0667 -1.6518
  126OSM    C1413337   4.748   0.816   2.952 -0.1116 -0.4253  0.5613
  126OSM   H14A13338   4.808   0.889   2.901  0.4283 -1.1519  0.1506
  126OSM   H14B13339   4.794   0.803   3.049  1.9381  0.2642 -0.2657
  126OSM   H14C13340   4.649   0.860   2.959  0.1185  0.3136 -0.6468
  126OSM    C1313341   4.694   0.716   2.739  0.0131 -0.4449  0.0873
  126OSM   H13A13342   4.690   0.619   2.692 -0.6368 -1.2183  1.6471
  126OSM   H13B13343   4.761   0.776   2.680  0.9893 -1.1274  0.4813
  126OSM   H13C13344   4.590   0.745   2.737  0.3763  1.8498  3.9126
  126OSM    C1213345   4.661   0.588   2.949  0.4026 -0.0096  1.1012
  126OSM   H12A13346   4.651   0.503   2.883  1.1985 -0.2827  1.3292
  126OSM   H12B13347   4.561   0.626   2.963  1.6806  5.2282 -1.5930
  126OSM    C1113348   4.715   0.520   3.072 -1.1031  0.1611 -0.2160
  126OSM   H11A13349   4.636   0.473   3.136 -0.7448 -0.8890 -0.5341
  126OSM   H11B13350   4.766   0.593   3.139 -2.5096  1.3477 -0.3745
  126OSM      P13351   4.764   0.284   2.981  0.4172  0.2530  0.0991
  126OSM    O1313352   4.618   0.271   2.962  0.1451 -0.4840 -0.1195
  126OSM    O1413353   4.849   0.243   2.868 -0.3365  0.2252  0.3031
  126OSM    O1113354   4.815   0.191   3.095 -0.1624  0.2258 -0.2626
  126OSM    O1213355   4.812   0.428   3.015 -0.0128  0.2294 -0.4923
  126OSM    C1S13356   4.911   0.244   3.192  0.3615  0.4727  0.3095
  126OSM    H1S13357   4.979   0.319   3.146  0.0961  0.2403 -0.4949
  126OSM    H1T13358   4.960   0.148   3.220 -2.4289 -0.2968  3.0818
  126OSM     NF13359   4.946   0.323   3.434  0.1433 -1.0651  0.5183
  126OSM    HNF13360   4.930   0.297   3.529  1.4135 -1.9725  0.5096
  126OSM    C2S13361   4.848   0.299   3.325 -0.4316  0.0954 -0.5583
  126OSM    H2S13362   4.805   0.398   3.299 -2.0170 -0.5530 -0.5375
  126OSM    C3S13363   4.732   0.208   3.384 -0.2159 -0.4495  0.0321
  126OSM    H3S13364   4.786   0.117   3.419 -0.0422 -0.2173  0.3698
  126OSM     O313365   4.636   0.145   3.292  0.1050  0.0335 -0.4168
  126OSM    HO313366   4.676   0.151   3.205  0.5338 -0.8242 -0.2888
  126OSM    C4S13367   4.662   0.265   3.510 -0.4921  0.2837 -0.1958
  126OSM    H4S13368   4.704   0.234   3.607  0.0244 -1.5782 -0.9654
  126OSM    C5S13369   4.553   0.345   3.493 -0.2695  0.5245 -0.7635
  126OSM    H5S13370   4.510   0.342   3.392 -1.1649 -1.3508 -0.3744
  126OSM    C6S13371   4.476   0.410   3.594  0.3909 -0.0498  0.0366
  126OSM    H6S13372   4.368   0.388   3.577  0.1441  0.8743  0.3179
  126OSM    H6T13373   4.504   0.517   3.587 -0.8013  0.2912  0.1924
  126OSM    C7S13374   4.514   0.372   3.741  0.2504  0.2359  0.1757
  126OSM    H7S13375   4.616   0.407   3.768 -0.0719  2.1738 -0.8974
  126OSM    H7T13376   4.511   0.263   3.757 -2.1046 -0.0760 -1.7530
  126OSM    C8S13377   4.398   0.424   3.828 -0.0985  0.2698  0.1237
  126OSM    H8S13378   4.316   0.355   3.795  0.2312  1.0224 -2.4857
  126OSM    H8T13379   4.378   0.532   3.810 -0.5603  0.5118  1.9321
  126OSM    C9S13380   4.430   0.404   3.976 -0.4223 -0.5303 -0.0459
  126OSM    H9S13381   4.475   0.303   3.989  1.7273  0.2181 -1.1240
  126OSM    H9T13382   4.343   0.412   4.044 -1.5345 -1.1959 -1.3381
  126OSM   C10S13383   4.529   0.509   4.029 -0.3946 -0.1160 -0.3008
  126OSM   H10S13384   4.496   0.608   3.991 -0.5102  1.2244  3.0024
  126OSM   H10T13385   4.637   0.492   4.008  1.4718  1.9251  5.7342
  126OSM   C11S13386   4.528   0.518   4.189 -0.2958  0.3870 -0.5145
  126OSM   H11S13387   4.427   0.545   4.226 -0.2154 -0.2994  0.2343
  126OSM   H11T13388   4.595   0.603   4.211 -2.0789  1.1327  2.5916
  126OSM   C12S13389   4.588   0.394   4.253  0.8374  0.8802 -0.5059
  126OSM   H12S13390   4.689   0.359   4.223  0.8037  0.5980 -0.2962
  126OSM   H12T13391   4.532   0.304   4.219  0.3645  0.9701  0.0231
  126OSM   C13S13392   4.583   0.399   4.400  0.5455  0.3622 -0.6719
  126OSM   H13S13393   4.530   0.494   4.422 -0.6489 -0.5163  0.4081
  126OSM   H13T13394   4.674   0.388   4.463 -0.4844 -0.7708  0.6891
  126OSM   C14S13395   4.483   0.290   4.458 -0.0755 -0.0172 -0.1469
  126OSM   H14S13396   4.528   0.188   4.458 -0.2915 -0.1272  0.8115
  126OSM   H14T13397   4.393   0.282   4.394 -0.1835 -0.7216  0.0814
  126OSM   C15S13398   4.432   0.309   4.599 -0.3217 -0.1260 -0.6561
  126OSM   H15S13399   4.326   0.342   4.597 -0.1714  0.8214  2.0498
  126OSM   H15T13400   4.495   0.380   4.656 -0.8689 -0.5515  0.5147
  126OSM   C16S13401   4.435   0.174   4.676 -0.5035 -0.3398  0.0748
  126OSM   H16S13402   4.535   0.128   4.673 -0.3166  0.0572  0.1178
  126OSM   H16T13403   4.364   0.104   4.626 -0.5908 -1.6917  1.9920
  126OSM   C17S13404   4.393   0.174   4.825  0.1850  0.4087  0.0127
  126OSM   H17S13405   4.456   0.259   4.861 -3.4478  3.6085 -0.4945
  126OSM   H17T13406   4.417   0.076   4.870  1.9032  1.4644  1.5510
  126OSM   C18S13407   4.246   0.202   4.844  0.3669 -0.8539  0.7374
  126OSM   H18S13408   4.227   0.308   4.868  0.0071 -0.6215 -0.5053
  126OSM   H18T13409   4.202   0.134   4.920 -2.3398  0.5211  0.5243
  126OSM   H18U13410   4.191   0.184   4.749 -0.0030 -0.0054  0.7828
  126OSM    C1F13411   5.061   0.392   3.411  0.7235 -0.7735  0.0212
  126OSM     OF13412   5.078   0.457   3.311 -0.1173 -0.2351  0.5659
  126OSM    C2F13413   5.165   0.386   3.521 -0.3392  0.4152 -0.1034
  126OSM    H2F13414   5.263   0.367   3.473  0.5001  0.0179  1.6749
  126OSM    H2G13415   5.151   0.297   3.586  3.0610 -0.5090 -0.4424
  126OSM    C3F13416   5.162   0.516   3.607 -0.3595 -0.6215  0.3114
  126OSM    H3F13417   5.059   0.527   3.648 -0.4585  2.5123 -0.5264
  126OSM    H3G13418   5.183   0.612   3.555  0.6066 -1.6363 -1.2682
  126OSM    C4F13419   5.267   0.504   3.728 -0.1268  0.4064 -0.2113
  126OSM    H4F13420   5.367   0.539   3.695  0.0618  2.0266  1.8591
  126OSM    H4G13421   5.289   0.400   3.763  2.8703  1.0079 -0.0818
  126OSM    C5F13422   5.213   0.583   3.853  0.2384 -0.5046 -0.2241
  126OSM    H5F13423   5.110   0.560   3.889  0.0063  0.0693 -0.5148
  126OSM    H5G13424   5.213   0.686   3.813  2.7966 -0.9266 -1.5130
  126OSM    C6F13425   5.311   0.581   3.965 -0.4674 -0.3960 -0.0714
  126OSM    H6F13426   5.413   0.619   3.944 -0.4580 -0.1454  0.4189
  126OSM    H6G13427   5.319   0.471   3.981 -3.1301 -0.8366 -1.1857
  126OSM    C7F13428   5.262   0.650   4.097  0.3403  0.4247  1.1046
  126OSM    H7F13429   5.155   0.627   4.112  0.9563 -2.5946  1.4381
  126OSM    H7G13430   5.265   0.761   4.091 -0.3691  0.4548  1.1880
  126OSM    C8F13431   5.341   0.620   4.225  0.2536 -1.0630  0.5060
  126OSM    H8F13432   5.448   0.648   4.213  0.5646 -1.8066  1.4842
  126OSM    H8G13433   5.333   0.510   4.232  0.6609 -1.0190  1.9669
  126OSM    C9F13434   5.286   0.664   4.357 -0.1537 -0.2941  0.1580
  126OSM    H9F13435   5.178   0.682   4.365 -0.2042  0.0663 -1.1445
  126OSM   C10F13436   5.359   0.697   4.460  0.6574  1.1117 -0.4706
  126OSM   H10F13437   5.308   0.723   4.554  4.5805  0.2638  2.1257
  126OSM   C11F13438   5.511   0.694   4.478 -1.3441 -0.0032 -0.0013
  126OSM   H11F13439   5.551   0.780   4.534 -0.6256 -1.1342  1.2740
  126OSM   H11G13440   5.559   0.689   4.378  0.4362 -3.3066  0.8476
  126OSM   C12F13441   5.561   0.561   4.539  0.1763 -0.2879 -0.0641
  126OSM   H12F13442   5.543   0.492   4.454 -2.3168  0.3090 -0.0927
  126OSM   H12G13443   5.507   0.544   4.635  1.4490  0.9452  0.9148
  126OSM   C13F13444   5.709   0.562   4.574  0.2991 -0.0646 -0.2159
  126OSM   H13F13445   5.727   0.652   4.635 -1.0909  1.1641 -1.5373
  126OSM   H13G13446   5.769   0.561   4.481  1.0131 -1.0870  0.2261
  126OSM   C14F13447   5.744   0.431   4.646 -0.5057 -0.0078  0.3807
  126OSM   H14F13448   5.853   0.410   4.655 -1.0528 -3.7907 -0.0443
  126OSM   H14G13449   5.707   0.350   4.580 -2.6906  0.3578  1.0718
  126OSM   C15F13450   5.695   0.411   4.787  0.0034 -0.0184 -0.3917
  126OSM   H15F13451   5.587   0.437   4.783  0.2013  0.9101  0.1654
  126OSM   H15G13452   5.739   0.493   4.847  0.4461 -0.3776 -0.2180
  126OSM   C16F13453   5.721   0.268   4.846  0.5455 -0.7987  0.2182
  126OSM   H16F13454   5.826   0.251   4.813  0.9438 -1.0308  1.5357
  126OSM   H16G13455   5.653   0.208   4.782 -0.9948 -0.3396  1.3678
  126OSM   C17F13456   5.714   0.256   4.997 -0.3755  0.5554  0.1867
  126OSM   H17F13457   5.753   0.158   5.031 -2.5294 -0.7609 -0.9294
  126OSM   H17G13458   5.606   0.264   5.024 -1.1151 -1.5158 -1.8161
  126OSM   C18F13459   5.760   0.371   5.082 -0.0336  0.1682 -0.7578
  126OSM   H18F13460   5.733   0.356   5.189  2.0758  0.0490 -0.2147
  126OSM   H18G13461   5.730   0.473   5.051  1.8884  1.0127  0.0546
  126OSM   H18H13462   5.871   0.367   5.083 -0.0205 -0.0936 -1.9533
  127OSM      N13463   4.652   4.145   2.207 -0.7656 -0.0673 -0.3063
  127OSM    C1513464   4.656   4.076   2.338 -0.5376  0.8329  0.4528
  127OSM   H15A13465   4.566   4.099   2.394  0.4238  2.0460  1.5707
  127OSM   H15B13466   4.746   4.106   2.389  0.6382 -1.7916  0.0815
  127OSM   H15C13467   4.664   3.970   2.319  0.4800  0.7823  1.1490
  127OSM    C1413468   4.682   4.291   2.223  0.2043  0.2613  0.2559
  127OSM   H14A13469   4.781   4.299   2.264  0.1026  0.9948  0.3696
  127OSM   H14B13470   4.608   4.340   2.283  0.4165  1.2737 -0.2960
  127OSM   H14C13471   4.677   4.336   2.125 -1.1508  0.0471  0.2038
  127OSM    C1313472   4.766   4.084   2.132  0.1575 -0.2265 -0.6414
  127OSM   H13A13473   4.778   4.140   2.040 -2.6513  0.8351 -0.4613
  127OSM   H13B13474   4.760   3.980   2.105  2.7854 -0.4605 -0.5317
  127OSM   H13C13475   4.860   4.091   2.184 -0.3142  0.5491  0.1385
  127OSM    C1213476   4.514   4.120   2.139 -0.4250 -0.7449 -0.5737
  127OSM   H12A13477   4.511   4.017   2.106  1.3649 -0.8992 -0.3512
  127OSM   H12B13478   4.510   4.195   2.061  1.3391  1.4154  1.2625
  127OSM    C1113479   4.396   4.151   2.238  0.6157  0.3484 -0.2398
  127OSM   H11A13480   4.302   4.178   2.185 -0.9649 -2.2268  1.0432
  127OSM   H11B13481   4.435   4.232   2.302  2.5979 -0.8949  0.2192
  127OSM      P13482   4.257   4.001   2.412  0.0320  0.1040 -0.1809
  127OSM    O1313483   4.171   4.115   2.393  0.3872 -0.2167 -0.0484
  127OSM    O1413484   4.202   3.874   2.364 -0.1665 -0.1998 -0.3711
  127OSM    O1113485   4.320   3.985   2.553  0.2428  0.1266  0.4801
  127OSM    O1213486   4.377   4.029   2.324  0.6065  0.2253  0.4806
  127OSM    C1S13487   4.367   4.104   2.623  0.8686  0.0275 -0.0199
  127OSM    H1S13488   4.284   4.176   2.636 -0.1861 -1.0103 -0.7721
  127OSM    H1T13489   4.443   4.158   2.563  0.5740  1.2328  0.6625
  127OSM     NF13490   4.461   4.188   2.837 -0.2416  0.0199 -0.1495
  127OSM    HNF13491   4.558   4.210   2.836  0.2145 -1.8704 -0.7101
  127OSM    C2S13492   4.421   4.068   2.762  0.4416  0.0127 -0.0017
  127OSM    H2S13493   4.333   4.027   2.816 -0.4274  1.0615 -0.5899
  127OSM    C3S13494   4.528   3.961   2.750 -0.0804  0.6633 -0.0413
  127OSM    H3S13495   4.617   3.997   2.695  1.2002 -1.3989  0.5692
  127OSM     O313496   4.482   3.843   2.684  0.2322 -0.1659  0.0848
  127OSM    HO313497   4.415   3.885   2.630  1.2084  0.7137 -0.4959
  127OSM    C4S13498   4.587   3.925   2.887 -0.3515  0.1159  0.7768
  127OSM    H4S13499   4.526   3.918   2.978  0.9805 -0.7937  1.6408
  127OSM    C5S13500   4.720   3.904   2.902  0.0599  0.4052 -0.6675
  127OSM    H5S13501   4.789   3.908   2.817  1.5528  1.9265  0.5579
  127OSM    C6S13502   4.780   3.866   3.039 -0.2013 -0.0019 -0.8090
  127OSM    H6S13503   4.845   3.950   3.070 -2.1580  1.3247 -0.1060
  127OSM    H6T13504   4.850   3.780   3.027 -0.4673 -0.1822 -1.0742
  127OSM    C7S13505   4.679   3.838   3.156 -0.4425 -0.5535 -0.4085
  127OSM    H7S13506   4.618   3.748   3.132 -2.2658  0.3628  0.5669
  127OSM    H7T13507   4.609   3.923   3.172 -1.6385 -0.8748 -3.2095
  127OSM    C8S13508   4.760   3.825   3.292  0.6652  0.1343 -0.1669
  127OSM    H8S13509   4.825   3.914   3.311  0.8657 -0.1884  0.6898
  127OSM    H8T13510   4.827   3.738   3.280  2.0406  1.1942 -0.4886
  127OSM    C9S13511   4.672   3.792   3.412  0.2718 -0.2891 -0.1517
  127OSM    H9S13512   4.592   3.731   3.364  0.0256 -1.4243  1.5905
  127OSM    H9T13513   4.624   3.887   3.445  0.7827  0.3234 -1.1548
  127OSM   C10S13514   4.727   3.708   3.531 -0.1601 -0.8254  0.1557
  127OSM   H10S13515   4.827   3.746   3.559  0.4072 -1.4765 -0.9325
  127OSM   H10T13516   4.758   3.606   3.500 -0.8692 -1.5474  1.7430
  127OSM   C11S13517   4.635   3.692   3.648  0.1575  0.2972  0.4601
  127OSM   H11S13518   4.690   3.642   3.731 -1.7174 -0.7745  1.1043
  127OSM   H11T13519   4.544   3.630   3.638  1.3827 -1.2645 -1.6499
  127OSM   C12S13520   4.595   3.825   3.710 -0.3446  0.3978  0.2415
  127OSM   H12S13521   4.538   3.880   3.632 -1.2167 -1.5697 -0.6007
  127OSM   H12T13522   4.689   3.874   3.742  1.2382 -0.7868 -2.2705
  127OSM   C13S13523   4.506   3.802   3.834  0.2996  0.1777  0.0067
  127OSM   H13S13524   4.559   3.747   3.914 -3.5230 -2.6255  0.9226
  127OSM   H13T13525   4.418   3.736   3.819  0.5547 -0.4502  1.1600
  127OSM   C14S13526   4.456   3.940   3.892  0.1861  0.4376  0.1053
  127OSM   H14S13527   4.399   3.983   3.808  0.0847  0.2408  0.0725
  127OSM   H14T13528   4.549   3.998   3.911  0.8152  0.2484 -2.1500
  127OSM   C15S13529   4.369   3.944   4.019  0.2354  0.4249  0.9666
  127OSM   H15S13530   4.434   3.920   4.106 -1.3281  0.9723  2.3399
  127OSM   H15T13531   4.288   3.867   4.014  1.6985 -1.0677 -1.4463
  127OSM   C16S13532   4.301   4.081   4.053 -0.5268  0.2093  0.0856
  127OSM   H16S13533   4.280   4.079   4.162  1.6346  0.2818  0.5366
  127OSM   H16T13534   4.205   4.098   3.999 -0.0593 -1.3828 -1.3399
  127OSM   C17S13535   4.402   4.186   4.033  0.0663 -0.0906 -0.0020
  127OSM   H17S13536   4.348   4.277   4.066  0.4363 -0.0287  0.4422
  127OSM   H17T13537   4.435   4.200   3.928  1.1573  1.3065  0.5031
  127OSM   C18S13538   4.525   4.180   4.134  0.0563  0.1691 -0.2760
  127OSM   H18S13539   4.577   4.277   4.125 -0.6466  0.4950 -0.9887
  127OSM   H18T13540   4.595   4.098   4.107 -0.5126 -0.3141 -0.3050
  127OSM   H18U13541   4.485   4.172   4.237 -0.9670  0.0666 -0.6670
  127OSM    C1F13542   4.376   4.286   2.883  0.4687  0.2674 -0.1745
  127OSM     OF13543   4.258   4.286   2.847  0.2263 -0.0862  0.0791
  127OSM    C2F13544   4.422   4.398   2.959 -1.0826  0.1192 -0.1281
  127OSM    H2F13545   4.374   4.487   2.913 -0.1174 -0.1592 -1.7559
  127OSM    H2G13546   4.530   4.427   2.957 -1.3858  1.3375  0.1903
  127OSM    C3F13547   4.364   4.394   3.099 -0.5864 -0.1669 -0.5529
  127OSM    H3F13548   4.415   4.318   3.162  1.2824 -0.1156 -1.9137
  127OSM    H3G13549   4.254   4.381   3.094 -0.7793  1.1724  0.0884
  127OSM    C4F13550   4.385   4.533   3.166 -0.0111 -0.9004 -0.1346
  127OSM    H4F13551   4.319   4.601   3.107  1.7856  1.4458  0.4007
  127OSM    H4G13552   4.487   4.576   3.155 -0.4526  0.4540  0.9009
  127OSM    C5F13553   4.327   4.543   3.306 -0.1116  0.3094 -0.3305
  127OSM    H5F13554   4.393   4.485   3.374 -0.7971  1.1885  1.1414
  127OSM    H5G13555   4.230   4.488   3.300 -0.3776  0.8627 -1.2151
  127OSM    C6F13556   4.289   4.680   3.372 -0.5418 -0.4313  0.7823
  127OSM    H6F13557   4.204   4.729   3.320  0.0929  1.4944  1.4514
  127OSM    H6G13558   4.382   4.740   3.363 -0.8447  0.0651  0.8976
  127OSM    C7F13559   4.248   4.676   3.520  0.5377 -0.3313  0.2592
  127OSM    H7F13560   4.348   4.668   3.568  0.4315 -2.0738  0.2505
  127OSM    H7G13561   4.194   4.581   3.535  0.6350 -0.3007  0.8667
  127OSM    C8F13562   4.176   4.812   3.555  0.2721  0.3780 -0.1925
  127OSM    H8F13563   4.127   4.792   3.653  1.2102  2.2565  0.7046
  127OSM    H8G13564   4.094   4.829   3.483  1.2385 -0.0416 -1.4206
  127OSM    C9F13565   4.256   4.937   3.564 -0.3153  0.1099 -0.3097
  127OSM    H9F13566   4.303   4.974   3.471 -0.6997  0.8102 -0.2250
  127OSM   C10F13567   4.269   5.012   3.676 -0.4513 -0.2548 -0.0112
  127OSM   H10F13568   4.343   5.093   3.674 -1.2387  0.5249 -2.8699
  127OSM   C11F13569   4.211   4.984   3.811  0.3735  0.0503  0.2996
  127OSM   H11F13570   4.256   4.888   3.843 -0.8849 -0.7640 -0.3223
  127OSM   H11G13571   4.102   4.965   3.808 -0.0697  2.0306  1.7855
  127OSM   C12F13572   4.227   5.102   3.906 -0.4124 -0.1302  0.8878
  127OSM   H12F13573   4.165   5.093   3.998  0.1500 -1.0102  1.1955
  127OSM   H12G13574   4.191   5.193   3.854 -1.3295 -1.2349 -0.4779
  127OSM   C13F13575   4.367   5.111   3.964 -0.3602  0.0832  0.4568
  127OSM   H13F13576   4.431   5.159   3.886 -0.0114 -2.2637 -0.7836
  127OSM   H13G13577   4.409   5.011   3.988 -0.2262 -0.2535 -1.0728
  127OSM   C14F13578   4.368   5.191   4.102  0.6998 -0.8418 -0.8126
  127OSM   H14F13579   4.320   5.121   4.174 -0.2869 -1.4683 -2.0525
  127OSM   H14G13580   4.312   5.286   4.089  1.6488 -0.1568 -0.1140
  127OSM   C15F13581   4.511   5.229   4.151 -0.1260  0.4044 -0.6136
  127OSM   H15F13582   4.551   5.278   4.060  0.4506 -1.4156 -1.3711
  127OSM   H15G13583   4.577   5.143   4.174 -0.2613  0.4935  0.1288
  127OSM   C16F13584   4.521   5.328   4.268 -0.3528 -0.0715  1.2316
  127OSM   H16F13585   4.457   5.299   4.354 -1.5602 -1.9982 -0.2267
  127OSM   H16G13586   4.477   5.422   4.227  1.2473  0.4432  0.6189
  127OSM   C17F13587   4.670   5.344   4.292 -0.5466  0.2956 -0.4358
  127OSM   H17F13588   4.715   5.397   4.206  1.6739 -1.4985 -0.4589
  127OSM   H17G13589   4.727   5.250   4.308 -2.8676 -0.7665  2.7059
  127OSM   C18F13590   4.694   5.427   4.415  0.4344  0.1795 -0.1567
  127OSM   H18F13591   4.801   5.451   4.433  1.0111 -0.2411 -2.5949
  127OSM   H18G13592   4.665   5.381   4.512  2.1338  1.9061  1.2324
  127OSM   H18H13593   4.641   5.525   4.415  1.6346  0.8515  0.6733
  128OSM      N13594   4.878   2.370   2.207 -0.1146  0.3488  0.5328
  128OSM    C1513595   4.758   2.353   2.123  0.1555  0.5655 -0.4343
  128OSM   H15A13596   4.689   2.437   2.122 -2.1717 -1.2168  1.1164
  128OSM   H15B13597   4.696   2.271   2.154  1.1646  0.0349  0.2290
  128OSM   H15C13598   4.778   2.343   2.017 -1.1195  0.0781 -0.6490
  128OSM    C1413599   4.936   2.232   2.231 -0.2844  0.2724 -0.3959
  128OSM   H14A13600   5.024   2.229   2.294 -0.4960 -0.3592 -0.1130
  128OSM   H14B13601   4.948   2.178   2.138 -2.2067 -0.2661 -0.3838
  128OSM   H14C13602   4.868   2.173   2.291  0.2625 -0.2951 -0.3138
  128OSM    C1313603   4.975   2.449   2.132  0.6742 -0.0041 -0.5142
  128OSM   H13A13604   4.934   2.539   2.089  0.4425  0.0238 -0.2346
  128OSM   H13B13605   5.006   2.387   2.049 -3.0905 -1.4916 -1.0014
  128OSM   H13C13606   5.053   2.484   2.198 -0.3375  2.4333 -0.5027
  128OSM    C1213607   4.842   2.423   2.344 -0.3769  0.5247  0.1900
  128OSM   H12A13608   4.777   2.352   2.394 -0.6152 -0.2670 -1.1696
  128OSM   H12B13609   4.769   2.500   2.326 -0.1382  0.0805 -3.3078
  128OSM    C1113610   4.962   2.476   2.440  0.3679 -0.1543 -0.0205
  128OSM   H11A13611   5.036   2.398   2.466  0.2176  0.5114  2.7782
  128OSM   H11B13612   4.915   2.506   2.537 -1.0436 -0.2126 -0.6538
  128OSM      P13613   5.182   2.623   2.386  0.2178 -0.0448  0.1474
  128OSM    O1313614   5.260   2.511   2.321 -0.1017 -0.4473 -0.0981
  128OSM    O1413615   5.206   2.757   2.329  0.0366  0.0275 -0.3744
  128OSM    O1113616   5.214   2.634   2.544  0.5452  0.1622  0.1154
  128OSM    O1213617   5.027   2.580   2.381 -0.5995  0.3608  0.3681
  128OSM    C1S13618   5.137   2.720   2.626  0.4134  0.0738 -0.0063
  128OSM    H1S13619   5.029   2.701   2.608  0.2542  1.0889 -0.1765
  128OSM    H1T13620   5.170   2.823   2.601  0.5533  0.4839  1.7398
  128OSM     NF13621   5.101   2.775   2.864  0.2951  0.2349  0.5484
  128OSM    HNF13622   5.148   2.860   2.886  0.4837  0.2163  0.2235
  128OSM    C2S13623   5.177   2.695   2.772  0.3305 -0.2901  0.5629
  128OSM    H2S13624   5.159   2.588   2.796 -1.0306 -0.3132 -0.4604
  128OSM    C3S13625   5.328   2.712   2.803 -0.9707  0.8403  0.0702
  128OSM    H3S13626   5.365   2.816   2.801  2.1809 -0.1754 -0.8622
  128OSM     O313627   5.423   2.642   2.717  0.7008  0.3840 -0.0698
  128OSM    HO313628   5.371   2.633   2.638  1.9035  0.8039 -0.9381
  128OSM    C4S13629   5.351   2.668   2.947 -0.2478 -0.3476  0.0743
  128OSM    H4S13630   5.350   2.758   3.011 -2.2159  1.7806 -2.6898
  128OSM    C5S13631   5.361   2.542   2.994  0.0059  0.0195 -0.3017
  128OSM    H5S13632   5.366   2.459   2.922  1.6228  0.7536 -1.0869
  128OSM    C6S13633   5.375   2.499   3.137 -0.0244  0.2150 -0.3446
  128OSM    H6S13634   5.483   2.502   3.164 -0.3544 -0.1273  1.0464
  128OSM    H6T13635   5.330   2.398   3.145  3.0729 -1.1933  0.8559
  128OSM    C7S13636   5.298   2.575   3.251 -0.0578  0.1377 -1.2301
  128OSM    H7S13637   5.190   2.587   3.229 -0.1557 -0.7014 -1.2300
  128OSM    H7T13638   5.352   2.664   3.290 -0.6052  1.3251 -3.0302
  128OSM    C8S13639   5.299   2.494   3.386 -0.2689  0.0412 -0.7820
  128OSM    H8S13640   5.405   2.474   3.408  0.0618  2.1405 -0.2009
  128OSM    H8T13641   5.245   2.398   3.378 -2.1079  0.7868  1.4922
  128OSM    C9S13642   5.233   2.572   3.503 -0.0404  0.0155  0.5692
  128OSM    H9S13643   5.127   2.585   3.474  0.6562  3.6206 -0.9508
  128OSM    H9T13644   5.279   2.671   3.520  1.6079 -0.6157  0.0030
  128OSM   C10S13645   5.231   2.490   3.627  0.3923  0.3454  0.2267
  128OSM   H10S13646   5.332   2.458   3.659  0.9755  2.1084  0.2016
  128OSM   H10T13647   5.160   2.404   3.631  1.1319 -0.3905 -1.3833
  128OSM   C11S13648   5.176   2.569   3.744 -0.4605  0.2648  0.5937
  128OSM   H11S13649   5.080   2.622   3.732 -0.4508  0.5748  1.7764
  128OSM   H11T13650   5.251   2.649   3.759  2.2456 -1.5576 -1.9980
  128OSM   C12S13651   5.168   2.471   3.866 -0.0654 -0.0331 -0.4680
  128OSM   H12S13652   5.272   2.436   3.881 -0.2232 -0.7486 -0.9700
  128OSM   H12T13653   5.107   2.382   3.839  0.2433 -0.0825 -1.0066
  128OSM   C13S13654   5.107   2.530   3.993 -0.0329 -0.4411  0.1895
  128OSM   H13S13655   5.090   2.440   4.057  2.7114 -1.5783 -0.5238
  128OSM   H13T13656   5.009   2.574   3.964 -1.0122 -2.4177  0.2859
  128OSM   C14S13657   5.199   2.617   4.079  0.0725  0.1439 -0.0394
  128OSM   H14S13658   5.225   2.705   4.016 -0.8906  0.0330 -0.6114
  128OSM   H14T13659   5.292   2.565   4.110 -0.4931 -0.5110  0.6010
  128OSM   C15S13660   5.117   2.675   4.200  0.1226  0.0477  0.4414
  128OSM   H15S13661   5.027   2.707   4.145 -0.6158 -1.0867  0.9548
  128OSM   H15T13662   5.167   2.766   4.241  1.8670  0.4561 -2.3503
  128OSM   C16S13663   5.080   2.571   4.305 -0.2329  0.2702  0.1098
  128OSM   H16S13664   5.168   2.557   4.372  1.0200  0.8272 -1.3490
  128OSM   H16T13665   5.060   2.476   4.251  0.2983  0.7465 -0.9587
  128OSM   C17S13666   4.949   2.589   4.381 -0.1899  0.2616  0.2644
  128OSM   H17S13667   4.909   2.493   4.421 -0.5774 -0.4710 -1.7475
  128OSM   H17T13668   4.869   2.618   4.310  0.1550  2.9771  0.8916
  128OSM   C18S13669   4.964   2.688   4.499  0.6684 -0.5114  0.3847
  128OSM   H18S13670   5.059   2.680   4.556  2.2545  0.3761 -2.0136
  128OSM   H18T13671   4.880   2.673   4.571 -1.2518  0.0309 -1.6324
  128OSM   H18U13672   4.943   2.793   4.468 -0.5059 -1.0022 -0.5540
  128OSM    C1F13673   4.969   2.762   2.885 -0.0927  0.5938  0.3033
  128OSM     OF13674   4.901   2.681   2.820 -0.1252 -0.7537 -0.2209
  128OSM    C2F13675   4.917   2.855   2.991  0.6104  0.3586  0.1592
  128OSM    H2F13676   4.946   2.960   2.969  1.5024  0.1685  0.4168
  128OSM    H2G13677   4.976   2.824   3.080  0.5178  0.3751  0.2264
  128OSM    C3F13678   4.770   2.841   3.013  0.1774  0.1621  0.1241
  128OSM    H3F13679   4.761   2.746   3.070 -0.1897 -1.3725 -2.3239
  128OSM    H3G13680   4.719   2.826   2.915 -1.6818  0.4181  1.0072
  128OSM    C4F13681   4.712   2.955   3.093  0.0960 -0.6719 -0.2792
  128OSM    H4F13682   4.606   2.977   3.069  0.3726  0.8104 -0.2915
  128OSM    H4G13683   4.764   3.044   3.050  1.7201 -2.3696 -2.0459
  128OSM    C5F13684   4.739   2.943   3.242 -0.0196  0.4621 -0.0085
  128OSM    H5F13685   4.850   2.933   3.246 -0.0850 -1.1455 -1.0612
  128OSM    H5G13686   4.699   2.843   3.271 -2.9215  1.1637 -1.2651
  128OSM    C6F13687   4.680   3.044   3.342 -0.0937  0.0227  0.2382
  128OSM    H6F13688   4.573   3.073   3.330  0.7050  2.3470 -2.4581
  128OSM    H6G13689   4.733   3.140   3.322 -0.8833  0.0587 -1.9890
  128OSM    C7F13690   4.698   3.007   3.491 -0.3402  0.0968 -0.0300
  128OSM    H7F13691   4.803   2.972   3.496 -0.0679  0.9879  0.8304
  128OSM    H7G13692   4.626   2.925   3.514  1.5082 -2.2350 -2.0703
  128OSM    C8F13693   4.672   3.122   3.593 -0.0541  0.4028 -0.9208
  128OSM    H8F13694   4.567   3.157   3.583 -0.1720  0.2117 -0.4033
  128OSM    H8G13695   4.745   3.204   3.571  2.0720 -0.9247  0.7630
  128OSM    C9F13696   4.704   3.091   3.732  0.5519  0.7304  0.0912
  128OSM    H9F13697   4.764   3.000   3.744  0.9865  1.0623  0.4635
  128OSM   C10F13698   4.647   3.144   3.840 -0.0154  0.9559  0.4054
  128OSM   H10F13699   4.679   3.098   3.935  1.0638  1.0813  0.1171
  128OSM   C11F13700   4.552   3.256   3.835  0.3465 -0.4320 -0.2667
  128OSM   H11F13701   4.466   3.252   3.906  0.7016 -1.2803  0.1377
  128OSM   H11G13702   4.502   3.246   3.736  0.2427 -0.2181 -0.2366
  128OSM   C12F13703   4.617   3.398   3.844 -0.0101 -0.4067  0.1531
  128OSM   H12F13704   4.535   3.471   3.829  0.0378 -0.5364 -0.8446
  128OSM   H12G13705   4.685   3.408   3.756  1.4840 -0.1580  1.2877
  128OSM   C13F13706   4.690   3.415   3.977  0.3940 -0.2405 -0.4678
  128OSM   H13F13707   4.710   3.523   3.988 -0.6924  0.0017 -0.6932
  128OSM   H13G13708   4.779   3.351   3.960 -0.3297 -0.5084 -4.0299
  128OSM   C14F13709   4.614   3.354   4.104 -0.1495  0.2586 -0.1104
  128OSM   H14F13710   4.592   3.245   4.097 -1.0315  0.4013  0.3185
  128OSM   H14G13711   4.514   3.401   4.105  0.2650  1.1658 -0.0111
  128OSM   C15F13712   4.681   3.374   4.237 -1.1396 -0.5689  0.0928
  128OSM   H15F13713   4.719   3.478   4.241 -0.0788 -0.9703  0.9023
  128OSM   H15G13714   4.771   3.308   4.235  0.7813  1.7606  2.2107
  128OSM   C16F13715   4.602   3.342   4.363 -0.6559  0.2884 -1.1637
  128OSM   H16F13716   4.644   3.399   4.448  0.1281  1.7690 -2.5034
  128OSM   H16G13717   4.624   3.237   4.393 -1.1251 -0.1184 -2.1921
  128OSM   C17F13718   4.451   3.358   4.369  0.3169  0.0760 -0.8493
  128OSM   H17F13719   4.419   3.339   4.474  2.9568  0.9514  0.1815
  128OSM   H17G13720   4.411   3.286   4.295  1.4654 -0.5649 -0.8741
  128OSM   C18F13721   4.393   3.501   4.339 -0.6412  0.3308  0.4655
  128OSM   H18F13722   4.291   3.499   4.295 -0.9627  0.3957  1.1892
  128OSM   H18G13723   4.461   3.552   4.268 -0.2324 -1.4640 -0.4780
  128OSM   H18H13724   4.383   3.563   4.431 -0.1346  0.3888  0.4820
  129OSM      N13725   5.976   4.482   2.419 -0.0131  0.3352 -0.0058
  129OSM    C1513726   6.038   4.613   2.377  0.1935 -0.4517  0.0162
  129OSM   H15A13727   5.967   4.654   2.306  1.9555  0.5551 -1.2685
  129OSM   H15B13728   6.141   4.595   2.349  0.7664 -2.9429  3.2053
  129OSM   H15C13729   6.043   4.682   2.460  1.2842 -1.0329  0.4413
  129OSM    C1413730   5.926   4.402   2.305  0.3709 -0.2153  0.6242
  129OSM   H14A13731   5.985   4.404   2.215  0.3060  0.2820  0.5904
  129OSM   H14B13732   5.841   4.458   2.267  1.1202  0.1437 -0.5792
  129OSM   H14C13733   5.898   4.302   2.335 -0.6663  0.3357  1.6015
  129OSM    C1313734   6.086   4.407   2.483  0.6772 -0.4375  0.0593
  129OSM   H13A13735   6.065   4.304   2.508  1.7277 -1.0232 -1.3742
  129OSM   H13B13736   6.114   4.469   2.567 -1.5800 -0.1695  0.6912
  129OSM   H13C13737   6.170   4.399   2.417  0.0598 -1.1916 -0.6563
  129OSM    C1213738   5.865   4.514   2.519  0.4696 -0.4453 -0.1456
  129OSM   H12A13739   5.833   4.429   2.579 -1.8641 -0.1533 -0.8796
  129OSM   H12B13740   5.777   4.539   2.461  0.1368  0.2764  0.6466
  129OSM    C1113741   5.874   4.633   2.629  0.0927 -0.4690 -0.2563
  129OSM   H11A13742   5.965   4.613   2.689 -0.0834  1.4043  0.7024
  129OSM   H11B13743   5.788   4.615   2.698 -0.6843 -3.4216 -1.8113
  129OSM      P13744   5.774   4.847   2.525  0.0195 -0.2329 -0.0182
  129OSM    O1313745   5.828   4.967   2.455  0.6175 -0.0538 -0.8712
  129OSM    O1413746   5.678   4.765   2.448 -0.1500 -0.2144 -0.0753
  129OSM    O1113747   5.704   4.895   2.658 -0.8615  0.6184  0.0109
  129OSM    O1213748   5.888   4.766   2.580  0.3575  0.4772  0.5383
  129OSM    C1S13749   5.750   5.017   2.720 -0.9631 -0.1359  0.5410
  129OSM    H1S13750   5.707   5.104   2.667  0.1316 -1.3521 -2.6011
  129OSM    H1T13751   5.861   5.028   2.712 -0.9456 -0.5465  0.1339
  129OSM     NF13752   5.728   5.172   2.909 -0.0163  0.4560  0.1100
  129OSM    HNF13753   5.817   5.192   2.948 -0.1472  2.5970 -0.5681
  129OSM    C2S13754   5.711   5.030   2.869 -0.1748 -0.7616 -0.5838
  129OSM    H2S13755   5.603   5.014   2.894 -0.1529  0.2053  0.2223
  129OSM    C3S13756   5.800   4.925   2.957 -0.3856 -0.2829 -0.2428
  129OSM    H3S13757   5.908   4.951   2.948 -0.1073 -1.0834  0.5821
  129OSM     O313758   5.806   4.799   2.894  0.0003  0.0274 -0.0877
  129OSM    HO313759   5.777   4.817   2.805 -1.5452 -1.4522  0.0627
  129OSM    C4S13760   5.768   4.922   3.103 -0.5200 -0.1545  0.0768
  129OSM    H4S13761   5.662   4.934   3.132 -0.0701  1.7305  1.1112
  129OSM    C5S13762   5.859   4.918   3.203  0.0837 -0.1580  1.0055
  129OSM    H5S13763   5.965   4.919   3.174 -0.5564 -0.9212 -1.5772
  129OSM    C6S13764   5.820   4.913   3.349  0.2000  0.3315  0.1319
  129OSM    H6S13765   5.750   4.997   3.366 -0.6797  0.2719 -2.7030
  129OSM    H6T13766   5.913   4.920   3.410  0.2548  1.5681 -0.0812
  129OSM    C7S13767   5.748   4.779   3.381 -0.1616  0.9860  0.2414
  129OSM    H7S13768   5.816   4.693   3.361  0.0314  0.5848  2.4131
  129OSM    H7T13769   5.668   4.769   3.304  0.9355  1.1905 -0.9584
  129OSM    C8S13770   5.679   4.765   3.520 -0.2360 -0.2182 -0.2009
  129OSM    H8S13771   5.621   4.670   3.524  0.2293 -0.4534  1.7802
  129OSM    H8T13772   5.606   4.848   3.528  0.0977  0.4759 -3.1653
  129OSM    C9S13773   5.791   4.765   3.631 -0.1410 -0.0692  0.1667
  129OSM    H9S13774   5.857   4.849   3.601  0.6965 -0.3194  1.2741
  129OSM    H9T13775   5.850   4.672   3.630 -1.6230 -1.1085 -2.8441
  129OSM   C10S13776   5.761   4.796   3.783 -0.1218 -0.2703  0.5304
  129OSM   H10S13777   5.724   4.901   3.784 -1.8543 -0.8210 -0.5721
  129OSM   H10T13778   5.850   4.786   3.848 -0.0684  1.9657  0.8591
  129OSM   C11S13779   5.639   4.713   3.842  0.1308 -0.4180  0.0652
  129OSM   H11S13780   5.652   4.609   3.804 -1.8075 -0.5045 -0.4967
  129OSM   H11T13781   5.543   4.761   3.812  0.5229  0.5256  0.2934
  129OSM   C12S13782   5.655   4.711   3.995 -0.0906  0.2460  0.3513
  129OSM   H12S13783   5.761   4.688   4.018  0.9552  0.8479 -3.2156
  129OSM   H12T13784   5.607   4.617   4.029 -1.7089  1.1156  0.5672
  129OSM   C13S13785   5.592   4.823   4.067  0.5799 -0.0554  0.7718
  129OSM   H13S13786   5.482   4.820   4.055  0.5333  0.9036  0.8237
  129OSM   H13T13787   5.635   4.916   4.022 -0.8050  0.9396  1.4227
  129OSM   C14S13788   5.617   4.834   4.214 -0.0352  0.3127  0.0495
  129OSM   H14S13789   5.725   4.828   4.238  0.1631  2.5827 -0.1224
  129OSM   H14T13790   5.561   4.747   4.254  0.0864 -0.3852 -1.2375
  129OSM   C15S13791   5.546   4.958   4.272  0.1397  0.4694 -0.7978
  129OSM   H15S13792   5.486   4.994   4.186 -1.4512 -1.0996 -0.4163
  129OSM   H15T13793   5.625   5.028   4.305  0.0088 -0.3288  1.3671
  129OSM   C16S13794   5.451   4.919   4.388 -0.6911  0.5909 -0.7783
  129OSM   H16S13795   5.369   4.850   4.359  1.6183 -1.5519 -2.6829
  129OSM   H16T13796   5.405   5.013   4.426  0.3418  0.4664  0.9009
  129OSM   C17S13797   5.533   4.860   4.506  0.2657  0.4701 -0.8298
  129OSM   H17S13798   5.626   4.921   4.510  0.8954 -0.4828 -0.5303
  129OSM   H17T13799   5.568   4.762   4.467  0.4947  0.2626 -0.1148
  129OSM   C18S13800   5.468   4.848   4.646  0.6187 -0.0786  0.1057
  129OSM   H18S13801   5.545   4.802   4.712  1.4879 -1.0980 -1.5515
  129OSM   H18T13802   5.380   4.781   4.644  0.0107  0.6425 -3.1518
  129OSM   H18U13803   5.442   4.950   4.681  0.5626 -0.8047  2.3365
  129OSM    C1F13804   5.634   5.271   2.887 -0.6852 -0.3737  0.5591
  129OSM     OF13805   5.525   5.241   2.835 -0.2642 -0.5599  0.0248
  129OSM    C2F13806   5.679   5.408   2.916  0.0187 -0.2483  0.0188
  129OSM    H2F13807   5.702   5.464   2.823  1.8386 -1.4218 -0.2863
  129OSM    H2G13808   5.771   5.401   2.978  0.8992  1.2422 -1.0351
  129OSM    C3F13809   5.566   5.481   2.993 -0.2563 -0.6449 -0.7994
  129OSM    H3F13810   5.525   5.425   3.080  0.0260 -0.7700 -0.7446
  129OSM    H3G13811   5.478   5.489   2.926  0.7635  1.6063 -2.0086
  129OSM    C4F13812   5.598   5.624   3.036  0.0153 -0.0006 -0.5329
  129OSM    H4F13813   5.507   5.685   3.053  0.3314  0.8287 -1.7236
  129OSM    H4G13814   5.633   5.683   2.948 -0.0098 -1.0812 -1.2898
  129OSM    C5F13815   5.703   5.638   3.144  0.0370 -0.0201  0.3216
  129OSM    H5F13816   5.715   5.747   3.164  0.6018 -0.5640  3.3584
  129OSM    H5G13817   5.804   5.598   3.120 -0.2776 -0.0537 -1.0132
  129OSM    C6F13818   5.650   5.588   3.282  1.1384 -0.0077 -0.4236
  129OSM    H6F13819   5.669   5.478   3.289 -1.0846 -0.4271 -0.2302
  129OSM    H6G13820   5.543   5.609   3.303  1.5207  1.4334  0.1860
  129OSM    C7F13821   5.728   5.660   3.394 -0.1107  0.3776 -0.1228
  129OSM    H7F13822   5.701   5.766   3.377  0.3759  0.6402  0.7225
  129OSM    H7G13823   5.835   5.644   3.370 -0.1338  3.1371 -2.6037
  129OSM    C8F13824   5.706   5.610   3.543 -0.5266  0.6981 -0.0156
  129OSM    H8F13825   5.775   5.667   3.609  0.6552  2.3247 -2.5017
  129OSM    H8G13826   5.722   5.501   3.556 -2.3749  0.5443  1.3994
  129OSM    C9F13827   5.562   5.622   3.582  0.1371 -0.6930  0.1139
  129OSM    H9F13828   5.494   5.581   3.506  0.6617  0.0712 -0.7978
  129OSM   C10F13829   5.513   5.671   3.704  0.2967  0.2950 -0.0341
  129OSM   H10F13830   5.408   5.671   3.737  0.1305 -2.0080 -0.4214
  129OSM   C11F13831   5.607   5.717   3.812  0.2142  0.3059 -0.1627
  129OSM   H11F13832   5.565   5.815   3.842 -0.2820 -0.4151  1.6134
  129OSM   H11G13833   5.706   5.759   3.785 -0.3264  2.3339  0.8195
  129OSM   C12F13834   5.610   5.628   3.939 -0.0022  0.3911 -0.1685
  129OSM   H12F13835   5.665   5.533   3.924 -2.1691 -0.9334 -0.1682
  129OSM   H12G13836   5.508   5.608   3.978  0.2790  0.5865  0.6780
  129OSM   C13F13837   5.686   5.701   4.046 -0.0248 -0.6047 -0.5220
  129OSM   H13F13838   5.620   5.788   4.065  0.9912  0.1459 -0.3213
  129OSM   H13G13839   5.788   5.736   4.018  0.3831  0.7220  2.2197
  129OSM   C14F13840   5.686   5.626   4.176  0.1808  0.6118  0.3252
  129OSM   H14F13841   5.783   5.635   4.229  0.0535  0.4097  0.5953
  129OSM   H14G13842   5.679   5.516   4.158 -1.5054  0.7220  0.1141
  129OSM   C15F13843   5.585   5.674   4.280  0.6997  0.0099 -0.1151
  129OSM   H15F13844   5.484   5.690   4.235  0.6599  1.3753  0.4399
  129OSM   H15G13845   5.612   5.772   4.323 -2.6834  0.4863  1.2601
  129OSM   C16F13846   5.579   5.594   4.416 -0.4594 -0.0459  0.4920
  129OSM   H16F13847   5.675   5.570   4.468 -0.7903  0.7994  1.5129
  129OSM   H16G13848   5.536   5.498   4.381 -1.6931  0.5224  0.4288
  129OSM   C17F13849   5.486   5.661   4.514 -0.1266 -0.2874  0.0957
  129OSM   H17F13850   5.447   5.590   4.590  2.7957 -1.0123  1.0357
  129OSM   H17G13851   5.397   5.694   4.456  0.1915 -0.7886 -0.6968
  129OSM   C18F13852   5.553   5.775   4.584  0.1490  0.0447 -0.5970
  129OSM   H18F13853   5.502   5.801   4.679  2.3839 -0.6753  0.8992
  129OSM   H18G13854   5.552   5.863   4.516 -1.1030  0.8809  0.4476
  129OSM   H18H13855   5.653   5.748   4.626 -0.3831  1.0489  1.4903
  130OSM      N13856   6.186   5.024   2.552  0.2774 -0.2463 -0.6506
  130OSM    C1513857   6.217   4.948   2.426  0.3038 -0.3416  1.0358
  130OSM   H15A13858   6.128   4.910   2.378  0.6848  0.0420 -0.0057
  130OSM   H15B13859   6.279   4.862   2.445  1.7274  0.3074 -0.4014
  130OSM   H15C13860   6.265   5.008   2.350 -0.6900 -1.3438 -0.4568
  130OSM    C1413861   6.134   4.934   2.659  0.4662 -0.5615  0.4290
  130OSM   H14A13862   6.200   4.852   2.681  0.8060 -0.0510  1.3889
  130OSM   H14B13863   6.045   4.884   2.624 -0.7735  2.5278 -1.2836
  130OSM   H14C13864   6.096   4.981   2.749 -0.1981 -2.2258  1.0528
  130OSM    C1313865   6.315   5.071   2.599  0.1946 -0.0715  0.4290
  130OSM   H13A13866   6.367   5.134   2.528  1.7855 -1.4576  0.3004
  130OSM   H13B13867   6.375   4.986   2.628 -0.5196 -0.4037  0.9649
  130OSM   H13C13868   6.298   5.137   2.683  0.4470  1.1367 -0.4403
  130OSM    C1213869   6.085   5.136   2.508 -0.2342  0.0193 -0.1193
  130OSM   H12A13870   5.993   5.081   2.498  0.0747 -0.5073 -0.0840
  130OSM   H12B13871   6.108   5.187   2.415  3.6543 -0.4059  0.4323
  130OSM    C1113872   6.060   5.248   2.616 -0.9838  0.2022  0.6142
  130OSM   H11A13873   6.020   5.192   2.704 -0.5534  1.5437  1.6955
  130OSM   H11B13874   5.984   5.314   2.570 -1.3522 -0.8826 -0.4014
  130OSM      P13875   6.209   5.405   2.770  0.2183  0.2961 -0.0553
  130OSM    O1313876   6.347   5.452   2.769  0.0200 -0.0183  0.7155
  130OSM    O1413877   6.109   5.511   2.804  0.4581  0.0959  0.6291
  130OSM    O1113878   6.208   5.282   2.868  0.9609 -0.3847  0.0384
  130OSM    O1213879   6.177   5.333   2.632  0.0441 -0.1879  0.5055
  130OSM    C1S13880   6.295   5.261   2.978 -0.0958  0.4648  0.0688
  130OSM    H1S13881   6.393   5.312   2.969 -0.7139  2.1506  2.1208
  130OSM    H1T13882   6.321   5.152   2.977 -2.7428 -0.3666 -4.2660
  130OSM     NF13883   6.321   5.295   3.221 -0.3803 -0.1651 -0.3136
  130OSM    HNF13884   6.306   5.222   3.287 -0.0692  0.5386  0.5465
  130OSM    C2S13885   6.225   5.297   3.114  0.5823  0.1377 -0.3876
  130OSM    H2S13886   6.175   5.395   3.096  0.6562 -0.3674 -4.0827
  130OSM    C3S13887   6.109   5.196   3.134  0.2776  0.4299 -0.0311
  130OSM    H3S13888   6.146   5.091   3.129  1.4529  0.8473 -0.7766
  130OSM     O313889   6.017   5.188   3.024  0.6846 -0.4276 -0.1022
  130OSM    HO313890   6.074   5.212   2.950 -0.2057 -2.1737 -1.4299
  130OSM    C4S13891   6.033   5.215   3.268 -0.4450  0.6986  0.3335
  130OSM    H4S13892   6.075   5.145   3.342  1.5730 -0.1850 -1.5237
  130OSM    C5S13893   5.926   5.285   3.295 -0.1499  0.1955  0.3829
  130OSM    H5S13894   5.863   5.322   3.213 -2.1277 -0.4409  1.5377
  130OSM    C6S13895   5.867   5.294   3.430 -0.5448  0.4131  0.2084
  130OSM    H6S13896   5.761   5.260   3.435  0.0736 -1.4873  1.6417
  130OSM    H6T13897   5.863   5.401   3.460  0.2492  0.6193 -0.3823
  130OSM    C7S13898   5.929   5.216   3.547  0.0563  0.2779 -0.0194
  130OSM    H7S13899   6.038   5.231   3.562  0.8538 -1.9571 -2.6619
  130OSM    H7T13900   5.919   5.107   3.527  1.5135  0.6259 -3.4577
  130OSM    C8S13901   5.870   5.250   3.685  0.0747  0.0623  0.7671
  130OSM    H8S13902   5.760   5.231   3.687  0.3905 -1.9501  1.5270
  130OSM    H8T13903   5.875   5.358   3.708 -0.1603 -0.3664  3.0679
  130OSM    C9S13904   5.931   5.175   3.802 -0.3872 -0.8024 -0.3888
  130OSM    H9S13905   6.036   5.209   3.808 -0.7970  0.7416 -1.1913
  130OSM    H9T13906   5.931   5.065   3.787 -1.8854 -0.8709 -0.0408
  130OSM   C10S13907   5.846   5.214   3.930  0.3838  0.8879  0.4310
  130OSM   H10S13908   5.747   5.164   3.918  0.4595  1.4234 -3.7219
  130OSM   H10T13909   5.808   5.317   3.912 -0.6430  0.0847 -2.6597
  130OSM   C11S13910   5.908   5.170   4.057 -0.6002 -0.1915  0.7579
  130OSM   H11S13911   6.002   5.229   4.069 -1.1493  1.0838 -0.9383
  130OSM   H11T13912   5.919   5.060   4.049  0.5836  0.0095 -1.0461
  130OSM   C12S13913   5.835   5.215   4.178 -0.1651  0.0637  0.2319
  130OSM   H12S13914   5.731   5.176   4.171 -0.4994  0.9258  0.3842
  130OSM   H12T13915   5.821   5.325   4.175 -0.2254  0.0485 -0.1780
  130OSM   C13S13916   5.912   5.173   4.307  0.4313 -0.3076  0.2522
  130OSM   H13S13917   6.021   5.189   4.294  0.0126  0.8845 -2.3032
  130OSM   H13T13918   5.893   5.064   4.306 -1.2279 -0.0412 -0.5140
  130OSM   C14S13919   5.866   5.237   4.433 -0.2372 -0.2431 -0.5340
  130OSM   H14S13920   5.890   5.346   4.434  2.1139 -0.7064 -0.3515
  130OSM   H14T13921   5.937   5.200   4.510 -0.8509  0.0522  0.1827
  130OSM   C15S13922   5.727   5.199   4.480  0.3759  0.7597 -0.1945
  130OSM   H15S13923   5.714   5.091   4.503 -0.2818  0.7391 -0.6457
  130OSM   H15T13924   5.656   5.224   4.399  0.2883 -1.6833 -0.9504
  130OSM   C16S13925   5.685   5.280   4.602  0.4120 -0.1854 -0.2184
  130OSM   H16S13926   5.677   5.383   4.563  0.4086 -0.1026 -0.0023
  130OSM   H16T13927   5.765   5.272   4.679  1.9289  1.2040 -1.5823
  130OSM   C17S13928   5.552   5.236   4.665  0.6545 -0.7454 -0.0666
  130OSM   H17S13929   5.549   5.127   4.688 -0.1131 -0.6179  0.4846
  130OSM   H17T13930   5.472   5.260   4.592 -1.7714 -1.3750  2.2418
  130OSM   C18S13931   5.523   5.320   4.789 -0.3400  0.0482 -0.0645
  130OSM   H18S13932   5.512   5.429   4.769  0.7027  0.2519  0.3966
  130OSM   H18T13933   5.600   5.318   4.869 -1.3812  0.1974  0.9665
  130OSM   H18U13934   5.430   5.295   4.844 -1.4683  3.0334 -0.4007
  130OSM    C1F13935   6.423   5.386   3.236 -0.1545  0.4302  0.7000
  130OSM     OF13936   6.441   5.474   3.150  0.2482 -0.6105  0.7407
  130OSM    C2F13937   6.496   5.373   3.358 -0.0719  1.0715 -0.3820
  130OSM    H2F13938   6.465   5.290   3.424  2.3797  0.1978 -0.1992
  130OSM    H2G13939   6.487   5.457   3.430  0.1664 -1.5258  2.8644
  130OSM    C3F13940   6.644   5.345   3.328  0.3627  0.1132  0.4289
  130OSM    H3F13941   6.690   5.439   3.288 -1.2190  0.7007 -0.0784
  130OSM    H3G13942   6.664   5.264   3.254 -0.5770  0.7609 -0.5690
  130OSM    C4F13943   6.720   5.313   3.457  0.1055  0.5428  0.5594
  130OSM    H4F13944   6.829   5.301   3.440  0.8746  3.1902  2.8017
  130OSM    H4G13945   6.675   5.218   3.491 -0.4263 -0.1367 -1.8536
  130OSM    C5F13946   6.718   5.418   3.567 -0.5399  0.3402  0.5827
  130OSM    H5F13947   6.615   5.449   3.594 -0.9894 -0.8317  0.3104
  130OSM    H5G13948   6.781   5.501   3.530 -0.3539 -0.3051 -0.6193
  130OSM    C6F13949   6.777   5.349   3.696  0.5933 -0.7113  0.1133
  130OSM    H6F13950   6.800   5.434   3.763 -1.2857 -0.7698  0.9055
  130OSM    H6G13951   6.881   5.318   3.672  1.0411 -0.3062  1.4548
  130OSM    C7F13952   6.701   5.245   3.770 -0.2527  0.1660 -0.5455
  130OSM    H7F13953   6.675   5.174   3.689  1.3803 -1.6586  0.4386
  130OSM    H7G13954   6.601   5.279   3.805  0.3433  1.3175  0.0965
  130OSM    C8F13955   6.774   5.172   3.881  0.1446  0.2495  0.2836
  130OSM    H8F13956   6.806   5.234   3.967  1.1414 -1.9831  1.6090
  130OSM    H8G13957   6.873   5.143   3.841  0.2787  1.0622  0.0082
  130OSM    C9F13958   6.699   5.051   3.935  0.1405 -0.5346  0.4070
  130OSM    H9F13959   6.643   4.999   3.856 -0.0763  0.3046 -0.0011
  130OSM   C10F13960   6.718   4.983   4.050  0.2110  1.4521  0.3866
  130OSM   H10F13961   6.651   4.897   4.064  0.6992  1.0837  0.4599
  130OSM   C11F13962   6.826   5.016   4.152 -0.3010 -0.4218  0.3335
  130OSM   H11F13963   6.897   5.096   4.122  0.2295 -0.7023  0.8206
  130OSM   H11G13964   6.887   4.925   4.175 -1.5171 -1.1820  0.6300
  130OSM   C12F13965   6.777   5.074   4.288 -0.2435 -0.7095  0.3874
  130OSM   H12F13966   6.708   5.159   4.269 -0.4634 -0.9754 -0.0303
  130OSM   H12G13967   6.863   5.108   4.349 -0.6224  0.1352  0.4575
  130OSM   C13F13968   6.712   4.966   4.369 -0.2541 -0.1694  0.0731
  130OSM   H13F13969   6.785   4.884   4.384 -0.2117 -0.3759 -1.1539
  130OSM   H13G13970   6.632   4.923   4.305 -0.5730  1.0420 -0.3723
  130OSM   C14F13971   6.655   5.025   4.500  0.2147 -0.9389 -0.2646
  130OSM   H14F13972   6.592   5.109   4.465  2.0354  0.3407 -0.5997
  130OSM   H14G13973   6.745   5.064   4.552  1.7115 -2.0172 -1.9044
  130OSM   C15F13974   6.583   4.919   4.592 -0.2450  0.1336  0.0411
  130OSM   H15F13975   6.666   4.856   4.631  0.5421 -0.2255 -2.0397
  130OSM   H15G13976   6.525   4.844   4.533  0.8001  0.9441 -2.1426
  130OSM   C16F13977   6.497   4.974   4.704 -0.4586 -0.0267  0.6908
  130OSM   H16F13978   6.420   5.048   4.673  0.2501  1.0112  1.3455
  130OSM   H16G13979   6.563   5.034   4.769 -0.0362  0.4612 -0.1713
  130OSM   C17F13980   6.419   4.885   4.798 -0.2158 -0.1974 -0.7660
  130OSM   H17F13981   6.333   4.837   4.748 -1.5312 -1.0614  2.0833
  130OSM   H17G13982   6.371   4.941   4.882 -2.3164 -1.6717 -0.9087
  130OSM   C18F13983   6.502   4.772   4.851 -0.0170  0.0859 -0.1704
  130OSM   H18F13984   6.440   4.721   4.928 -0.0742 -3.5355 -2.4307
  130OSM   H18G13985   6.589   4.827   4.895  1.4667 -2.5109  0.3211
  130OSM   H18H13986   6.545   4.697   4.782 -0.2406 -3.5162  3.2602
  131OSM      N13987   3.825   0.220   2.405  1.0484  0.4246 -0.5701
  131OSM    C1513988   3.730   0.123   2.349  0.4884 -0.3979 -0.0301
  131OSM   H15A13989   3.734   0.034   2.409  1.4967 -1.6952 -1.9351
  131OSM   H15B13990   3.747   0.098   2.246 -2.2738  2.3472 -1.3245
  131OSM   H15C13991   3.632   0.167   2.363  0.1326 -1.2439  0.1921
  131OSM    C1413992   3.959   0.152   2.403  0.0107 -0.4638  0.3162
  131OSM   H14A13993   3.985   0.143   2.299 -0.6868 -2.9366  0.2744
  131OSM   H14B13994   3.965   0.055   2.451 -1.7736 -1.1519 -0.7716
  131OSM   H14C13995   4.032   0.214   2.453  1.1485 -2.2253  0.9414
  131OSM    C1313996   3.821   0.351   2.349 -0.0783 -0.6056  0.1626
  131OSM   H13A13997   3.811   0.350   2.242  2.2464  1.5773 -0.1740
  131OSM   H13B13998   3.923   0.384   2.363  0.2749 -0.7768 -1.6950
  131OSM   H13C13999   3.741   0.406   2.395 -0.2426 -0.8343  0.1510
  131OSM    C1214000   3.806   0.229   2.558 -0.4880  0.2644 -0.2775
  131OSM   H12A14001   3.883   0.296   2.594  0.3785 -0.3015 -1.0110
  131OSM   H12B14002   3.829   0.134   2.604  0.3785  1.3921  1.6987
  131OSM    C1114003   3.674   0.288   2.616 -0.1193  0.2610  0.1647
  131OSM   H11A14004   3.695   0.288   2.725  0.6423 -1.7265  0.0654
  131OSM   H11B14005   3.592   0.216   2.601 -0.0879  0.5943 -1.8872
  131OSM      P14006   3.501   0.482   2.603 -0.1557  0.0573 -0.1810
  131OSM    O1314007   3.503   0.625   2.573 -0.3312 -0.0453  0.2767
  131OSM    O1414008   3.401   0.406   2.535  0.2959  0.6945  0.0500
  131OSM    O1114009   3.493   0.467   2.766  1.2227 -0.1958  0.4555
  131OSM    O1214010   3.645   0.417   2.567 -0.0978  0.0235 -0.2411
  131OSM    C1S14011   3.587   0.519   2.858  0.3379 -0.0173 -0.0855
  131OSM    H1S14012   3.609   0.627   2.846  0.9479 -0.2281 -0.9792
  131OSM    H1T14013   3.686   0.473   2.838  0.9748  1.7226 -1.1473
  131OSM     NF14014   3.612   0.614   3.084 -0.0225  0.2529 -0.3274
  131OSM    HNF14015   3.681   0.576   3.145  0.9002  1.5772 -0.4936
  131OSM    C2S14016   3.542   0.511   3.006  1.3502 -0.2911  0.6382
  131OSM    H2S14017   3.434   0.536   3.004  1.6017  0.8379 -0.1361
  131OSM    C3S14018   3.545   0.368   3.049  0.2740 -0.2555 -0.0060
  131OSM    H3S14019   3.654   0.347   3.054  0.5161  1.1673  2.0766
  131OSM     O314020   3.477   0.279   2.964  0.4791  0.2915  0.0482
  131OSM    HO314021   3.451   0.331   2.887  1.7645 -0.4737 -0.9522
  131OSM    C4S14022   3.489   0.347   3.188 -0.2066  0.4295 -0.2802
  131OSM    H4S14023   3.380   0.362   3.191 -0.2235  1.7284 -3.3142
  131OSM    C5S14024   3.558   0.306   3.298  0.1843  0.3408  0.1997
  131OSM    H5S14025   3.664   0.277   3.287  0.5288  1.0979  1.3877
  131OSM    C6S14026   3.496   0.264   3.430 -0.3267  0.8429  0.3089
  131OSM    H6S14027   3.386   0.281   3.429 -0.5191 -0.3166  0.8260
  131OSM    H6T14028   3.547   0.325   3.507 -0.0154 -0.2127  0.9536
  131OSM    C7S14029   3.505   0.112   3.463 -0.7035 -0.4603  0.5575
  131OSM    H7S14030   3.611   0.082   3.475 -0.0132  1.4806 -0.3101
  131OSM    H7T14031   3.457   0.059   3.378 -2.6863 -0.6578  1.7367
  131OSM    C8S14032   3.420   0.091   3.588  0.0239 -0.2625  0.3842
  131OSM    H8S14033   3.398  -0.017   3.602 -1.1853  0.0790  1.3763
  131OSM    H8T14034   3.325   0.150   3.581 -0.5059 -0.9532  1.5121
  131OSM    C9S14035   3.496   0.124   3.716 -0.1419 -0.2598  0.5779
  131OSM    H9S14036   3.501   0.234   3.722  2.1687 -0.2716 -0.2468
  131OSM    H9T14037   3.604   0.098   3.717 -0.0482 -0.3692 -2.7252
  131OSM   C10S14038   3.422   0.069   3.837 -1.1204  0.2347 -0.2617
  131OSM   H10S14039   3.419  -0.041   3.847 -2.3928  0.3758  1.5265
  131OSM   H10T14040   3.316   0.101   3.829 -0.5239  3.8106  2.8476
  131OSM   C11S14041   3.478   0.131   3.971 -0.5101  0.1444  0.2134
  131OSM   H11S14042   3.477   0.242   3.976 -2.0179  0.1103  1.5773
  131OSM   H11T14043   3.585   0.104   3.975 -0.4322  0.1963 -1.1134
  131OSM   C12S14044   3.419   0.079   4.097 -0.1622  0.2082  0.7857
  131OSM   H12S14045   3.406  -0.032   4.093  0.3858  0.1659  0.1958
  131OSM   H12T14046   3.313   0.106   4.115 -0.9668 -1.8925 -0.4352
  131OSM   C13S14047   3.502   0.116   4.221 -0.4054 -0.1668 -0.0126
  131OSM   H13S14048   3.554   0.214   4.212 -0.8750  0.2320  1.3824
  131OSM   H13T14049   3.577   0.038   4.243  0.2276  1.0507  2.4583
  131OSM   C14S14050   3.424   0.118   4.359 -0.5807  0.6325 -0.3250
  131OSM   H14S14051   3.387   0.013   4.371  2.4802 -0.5464 -0.3662
  131OSM   H14T14052   3.342   0.193   4.352 -2.8793 -1.8273 -1.5585
  131OSM   C15S14053   3.509   0.159   4.479 -0.1491  0.4150 -0.3227
  131OSM   H15S14054   3.432   0.165   4.559 -2.3376 -1.1533 -2.1840
  131OSM   H15T14055   3.545   0.261   4.455  0.6547  0.5304  1.2487
  131OSM   C16S14056   3.613   0.056   4.514  0.1511  0.0278  1.0292
  131OSM   H16S14057   3.694   0.058   4.438 -1.1719 -1.1394 -0.4814
  131OSM   H16T14058   3.566  -0.044   4.525 -0.7796  0.4682  1.1302
  131OSM   C17S14059   3.679   0.082   4.647 -0.3682  0.5280 -0.2436
  131OSM   H17S14060   3.736   0.178   4.640  0.5421  0.1170  1.1027
  131OSM   H17T14061   3.751   0.001   4.671  0.0487  0.4038 -1.8087
  131OSM   C18S14062   3.583   0.088   4.770  0.1847  0.0046  0.2541
  131OSM   H18S14063   3.636   0.118   4.862 -0.3426  3.1265 -0.3644
  131OSM   H18T14064   3.532  -0.011   4.779 -0.6508  0.3398 -0.6216
  131OSM   H18U14065   3.500   0.159   4.751  1.0869  1.5333  1.8286
  131OSM    C1F14066   3.610   0.750   3.074  0.5692 -0.4575 -0.3996
  131OSM     OF14067   3.538   0.804   2.992  0.3034 -0.0179  0.5276
  131OSM    C2F14068   3.696   0.821   3.179 -1.4341 -0.5066 -0.6683
  131OSM    H2F14069   3.795   0.774   3.159 -0.9597  0.4952 -0.7252
  131OSM    H2G14070   3.682   0.794   3.286  0.2291  1.0651  0.0054
  131OSM    C3F14071   3.680   0.971   3.174 -0.1778 -0.2769  0.5373
  131OSM    H3F14072   3.571   0.991   3.182 -0.2175  1.3445 -2.5845
  131OSM    H3G14073   3.709   1.007   3.073 -1.6811  1.5619  0.7018
  131OSM    C4F14074   3.761   1.053   3.273  0.0530  0.3529 -0.1308
  131OSM    H4F14075   3.757   1.162   3.252 -0.4761  0.3005 -0.3162
  131OSM    H4G14076   3.868   1.024   3.278 -0.1938 -0.5420 -0.0220
  131OSM    C5F14077   3.714   1.033   3.421  0.4418 -0.3573 -0.1017
  131OSM    H5F14078   3.746   0.932   3.454 -0.7791 -0.4096  1.0241
  131OSM    H5G14079   3.603   1.029   3.410  0.2594  2.1682  0.2496
  131OSM    C6F14080   3.757   1.131   3.529  0.0601  0.1068  0.1246
  131OSM    H6F14081   3.726   1.235   3.506 -0.0863  0.5552  2.1587
  131OSM    H6G14082   3.867   1.135   3.545 -0.1925  1.1578  1.8856
  131OSM    C7F14083   3.692   1.116   3.666  0.1457  0.0225 -0.1628
  131OSM    H7F14084   3.729   1.020   3.708  1.0781  0.8575  0.9856
  131OSM    H7G14085   3.582   1.132   3.655  0.3141  2.1041  0.6098
  131OSM    C8F14086   3.722   1.236   3.762  0.4259 -0.3505  0.0100
  131OSM    H8F14087   3.687   1.326   3.706  0.3535  1.5337  2.8774
  131OSM    H8G14088   3.832   1.247   3.763  0.9076 -3.7672 -1.8867
  131OSM    C9F14089   3.652   1.221   3.897  0.0889 -0.2985  0.0188
  131OSM    H9F14090   3.543   1.233   3.885  0.4579  0.0813 -4.2564
  131OSM   C10F14091   3.710   1.209   4.009 -0.3932 -0.1051 -0.5931
  131OSM   H10F14092   3.648   1.211   4.100  0.6497  1.1874  0.1261
  131OSM   C11F14093   3.855   1.196   4.036 -0.3172 -0.6682 -1.0583
  131OSM   H11F14094   3.920   1.230   3.953  0.1127 -2.3313 -1.4434
  131OSM   H11G14095   3.878   1.088   4.054  0.7279 -0.6848 -2.3177
  131OSM   C12F14096   3.896   1.267   4.169 -0.1823  0.5080 -0.5889
  131OSM   H12F14097   3.835   1.219   4.248  0.9002  0.1080  0.0078
  131OSM   H12G14098   3.890   1.378   4.163 -0.0353  0.6072  0.8977
  131OSM   C13F14099   4.042   1.231   4.197 -0.0345 -0.6061 -0.8209
  131OSM   H13F14100   4.110   1.286   4.128 -0.3572  1.7793  0.6391
  131OSM   H13G14101   4.048   1.121   4.182 -0.4443 -0.9772  1.3600
  131OSM   C14F14102   4.092   1.256   4.341  0.3135 -0.3807  0.4295
  131OSM   H14F14103   4.038   1.197   4.418 -0.4451  0.1150  0.2848
  131OSM   H14G14104   4.087   1.363   4.370 -0.0116 -0.2818  0.0034
  131OSM   C15F14105   4.240   1.229   4.358  0.6252 -0.2732 -0.3921
  131OSM   H15F14106   4.289   1.309   4.297  0.4480  2.0979  2.3599
  131OSM   H15G14107   4.258   1.129   4.314  0.1437 -0.8555  0.7121
  131OSM   C16F14108   4.294   1.246   4.508 -0.6289  0.8725  1.1064
  131OSM   H16F14109   4.228   1.181   4.569 -0.8915  0.8673  0.8187
  131OSM   H16G14110   4.267   1.351   4.534 -2.0756  0.8771 -0.2653
  131OSM   C17F14111   4.437   1.205   4.519  0.1462 -0.0390  0.0220
  131OSM   H17F14112   4.496   1.266   4.447 -0.2939  0.4770  0.0920
  131OSM   H17G14113   4.447   1.101   4.483 -0.4751  0.4181 -1.5995
  131OSM   C18F14114   4.484   1.217   4.664  0.3249 -0.2897 -0.1098
  131OSM   H18F14115   4.594   1.221   4.675  0.6544  0.8137 -2.9686
  131OSM   H18G14116   4.443   1.138   4.730 -0.0141  0.6164  0.7850
  131OSM   H18H14117   4.434   1.310   4.699  0.3828  0.3541 -1.6355
  132OSM      N14118   1.966   2.257   2.309  0.0087 -0.1058 -0.1390
  132OSM    C1514119   1.964   2.145   2.213 -0.1772  0.4931 -0.1175
  132OSM   H15A14120   2.013   2.185   2.126  0.0548  0.1418 -0.1512
  132OSM   H15B14121   1.862   2.118   2.188 -0.8332  3.4747 -1.0750
  132OSM   H15C14122   2.026   2.064   2.249  1.0263 -0.0147 -3.0837
  132OSM    C1414123   1.861   2.352   2.277  0.3147 -0.3384 -0.0158
  132OSM   H14A14124   1.859   2.432   2.349 -1.4984 -0.1093 -0.2548
  132OSM   H14B14125   1.760   2.314   2.286  0.5369 -1.3634 -1.4148
  132OSM   H14C14126   1.869   2.391   2.177  2.0784 -0.1882  0.1633
  132OSM    C1314127   1.928   2.204   2.444 -0.1802 -0.5457 -0.6228
  132OSM   H13A14128   2.007   2.137   2.475 -0.5225 -0.2019  1.1354
  132OSM   H13B14129   1.838   2.145   2.433  0.2327 -0.9133 -2.1612
  132OSM   H13C14130   1.917   2.276   2.524 -3.3316 -2.1340  0.5841
  132OSM    C1214131   2.095   2.331   2.321 -0.3164 -0.7757 -0.3477
  132OSM   H12A14132   2.121   2.384   2.230  2.3923  1.1161  1.3731
  132OSM   H12B14133   2.172   2.256   2.334  0.9547  0.6830  0.9542
  132OSM    C1114134   2.110   2.429   2.439  0.9285  0.5728 -0.1722
  132OSM   H11A14135   2.221   2.431   2.449  1.0465 -1.7856 -0.3057
  132OSM   H11B14136   2.087   2.402   2.545  3.1056 -0.1811  0.1739
  132OSM      P14137   2.118   2.686   2.395 -0.0966 -0.4004  0.0930
  132OSM    O1314138   2.214   2.679   2.288 -0.2119  0.4917  0.3487
  132OSM    O1414139   2.018   2.797   2.392 -0.2898 -0.0020 -0.1322
  132OSM    O1114140   2.198   2.703   2.527  0.5671 -0.2782  0.0220
  132OSM    O1214141   2.042   2.547   2.414 -0.0209 -0.0982  0.4367
  132OSM    C1S14142   2.125   2.719   2.654 -0.3037 -0.0882 -0.1078
  132OSM    H1S14143   2.042   2.645   2.650 -0.0445 -0.4411  0.7253
  132OSM    H1T14144   2.080   2.821   2.650  0.0382  0.1358  1.3301
  132OSM     NF14145   2.148   2.718   2.908 -0.3612 -0.0048  0.9684
  132OSM    HNF14146   2.171   2.801   2.959 -1.6135  2.0159 -1.5379
  132OSM    C2S14147   2.219   2.694   2.780  1.1248  0.8050 -0.0063
  132OSM    H2S14148   2.248   2.587   2.772 -2.0368 -0.1868  0.5273
  132OSM    C3S14149   2.350   2.778   2.765  0.4889  0.3790 -0.4489
  132OSM    H3S14150   2.327   2.886   2.756  0.9270  0.6181  1.0548
  132OSM     O314151   2.421   2.766   2.641  0.6300  0.2683 -0.6780
  132OSM    HO314152   2.346   2.744   2.586 -0.7326 -1.3727  1.6417
  132OSM    C4S14153   2.441   2.742   2.875 -0.4522  0.1857 -0.6779
  132OSM    H4S14154   2.484   2.641   2.866 -1.2570 -0.2623  0.3427
  132OSM    C5S14155   2.475   2.826   2.974 -0.3666  0.4202  0.9187
  132OSM    H5S14156   2.441   2.930   2.971  3.5447  1.8754 -1.8995
  132OSM    C6S14157   2.587   2.799   3.074  0.2512  0.3760  0.1848
  132OSM    H6S14158   2.544   2.821   3.175  0.5703 -2.6006  1.0755
  132OSM    H6T14159   2.673   2.869   3.068  0.2764  0.4004  0.7127
  132OSM    C7S14160   2.648   2.659   3.088  0.4854 -0.3736  0.2271
  132OSM    H7S14161   2.683   2.639   2.984 -1.6431  2.4398 -1.1576
  132OSM    H7T14162   2.569   2.584   3.110  0.3592 -0.9984 -2.1022
  132OSM    C8S14163   2.760   2.666   3.193  0.5795  0.5329 -0.3945
  132OSM    H8S14164   2.841   2.735   3.161 -0.1508  1.0218 -1.2377
  132OSM    H8T14165   2.804   2.566   3.211 -0.3136 -0.0995 -1.5584
  132OSM    C9S14166   2.713   2.708   3.335 -0.0283  0.2889  0.2833
  132OSM    H9S14167   2.629   2.642   3.366 -0.2650 -0.7062 -2.1832
  132OSM    H9T14168   2.673   2.811   3.343  0.6170  0.4173  2.2516
  132OSM   C10S14169   2.829   2.692   3.442  0.1241 -0.1121  0.6389
  132OSM   H10S14170   2.914   2.756   3.409 -0.5570  0.0246 -0.9563
  132OSM   H10T14171   2.874   2.591   3.435 -1.5898 -0.8135 -1.2514
  132OSM   C11S14172   2.784   2.705   3.586  0.2734 -0.7133 -0.4240
  132OSM   H11S14173   2.701   2.636   3.612 -0.3257  0.2703  0.3293
  132OSM   H11T14174   2.761   2.813   3.596  0.0387 -0.6532 -1.4499
  132OSM   C12S14175   2.898   2.682   3.681  0.5421  1.2323  0.2887
  132OSM   H12S14176   2.988   2.736   3.644 -0.2760  1.7844 -0.9254
  132OSM   H12T14177   2.917   2.573   3.666 -0.1009  1.3371 -1.5117
  132OSM   C13S14178   2.875   2.708   3.835 -0.5929 -0.0941  0.0393
  132OSM   H13S14179   2.772   2.674   3.856 -0.3409 -1.3160 -0.5995
  132OSM   H13T14180   2.893   2.816   3.852  1.5615 -0.3282 -0.4260
  132OSM   C14S14181   2.989   2.637   3.911 -0.5858  0.0314 -1.4131
  132OSM   H14S14182   3.084   2.689   3.885  1.2047 -2.0862  0.5165
  132OSM   H14T14183   2.992   2.532   3.874 -2.2592 -0.7251  0.4521
  132OSM   C15S14184   2.971   2.648   4.064 -0.2143 -0.4540 -0.2690
  132OSM   H15S14185   2.894   2.580   4.106  0.6600 -0.8779  0.7223
  132OSM   H15T14186   2.961   2.758   4.073  0.4097 -0.2646 -1.6378
  132OSM   C16S14187   3.101   2.624   4.146  0.0259  0.2868 -0.0605
  132OSM   H16S14188   3.189   2.679   4.107  0.6958 -1.3364 -0.9458
  132OSM   H16T14189   3.135   2.520   4.167  0.7445  1.3515  5.6226
  132OSM   C17S14190   3.082   2.672   4.293 -0.5021  0.2625 -0.7835
  132OSM   H17S14191   3.050   2.779   4.294 -0.9470  0.1498  1.6483
  132OSM   H17T14192   3.173   2.669   4.356 -2.2018  0.0099  1.7881
  132OSM   C18S14193   2.979   2.587   4.369 -0.9861 -0.4580 -0.1430
  132OSM   H18S14194   3.019   2.483   4.381 -0.1344  0.1414  3.1940
  132OSM   H18T14195   2.882   2.593   4.316 -0.8562 -0.1340 -0.3452
  132OSM   H18U14196   2.968   2.629   4.471 -1.4601  1.1698 -0.8452
  132OSM    C1F14197   2.037   2.653   2.943 -0.5871 -0.0228 -0.2075
  132OSM     OF14198   1.994   2.566   2.871 -0.2429 -0.2178  0.0881
  132OSM    C2F14199   1.962   2.716   3.059  0.4309  0.3855 -0.4739
  132OSM    H2F14200   1.886   2.784   3.016  0.8573  1.1093 -0.0981
  132OSM    H2G14201   2.037   2.770   3.121  0.8927 -0.5444 -0.2008
  132OSM    C3F14202   1.893   2.600   3.135 -1.1455  1.1260 -0.1719
  132OSM    H3F14203   1.977   2.544   3.181 -1.1829  1.9398  0.9407
  132OSM    H3G14204   1.831   2.530   3.077  1.6073 -0.4713 -1.3921
  132OSM    C4F14205   1.804   2.645   3.252  0.0386  0.7124 -0.2325
  132OSM    H4F14206   1.725   2.713   3.215 -0.8006 -0.7535 -1.2668
  132OSM    H4G14207   1.867   2.685   3.334  0.3379  0.6253 -0.4183
  132OSM    C5F14208   1.720   2.533   3.314  0.2971 -0.0034  0.0640
  132OSM    H5F14209   1.779   2.438   3.319 -0.9869 -0.9379 -1.4289
  132OSM    H5G14210   1.638   2.513   3.242  0.2915 -2.7566  0.7264
  132OSM    C6F14211   1.658   2.559   3.449  0.4437  0.0018 -0.0874
  132OSM    H6F14212   1.731   2.544   3.531 -0.2385  0.3456  0.6011
  132OSM    H6G14213   1.583   2.477   3.460  0.9150 -0.3717  0.3845
  132OSM    C7F14214   1.593   2.702   3.468  1.2610  0.1266  0.1123
  132OSM    H7F14215   1.503   2.692   3.404 -1.0131  0.5613  3.0083
  132OSM    H7G14216   1.654   2.780   3.419  1.1528  0.7825  0.9950
  132OSM    C8F14217   1.560   2.735   3.616  0.5359  0.4380  0.0823
  132OSM    H8F14218   1.517   2.837   3.608 -0.9529 -0.2015 -0.4134
  132OSM    H8G14219   1.653   2.733   3.676  0.4974  0.5162  0.1453
  132OSM    C9F14220   1.459   2.629   3.661  0.7041  0.7437  0.1438
  132OSM    H9F14221   1.355   2.654   3.634  0.7200  2.1681  1.2388
  132OSM   C10F14222   1.476   2.526   3.751  0.1211  0.1652  0.1434
  132OSM   H10F14223   1.388   2.464   3.772 -0.1474  0.9612  1.5286
  132OSM   C11F14224   1.599   2.463   3.820 -0.1430  0.4081  0.5369
  132OSM   H11F14225   1.675   2.428   3.747 -0.6201 -2.2212  1.1922
  132OSM   H11G14226   1.570   2.370   3.873  0.0044 -0.8643 -1.5074
  132OSM   C12F14227   1.664   2.551   3.933 -0.2715  0.0875  0.4418
  132OSM   H12F14228   1.689   2.656   3.908  1.7589  0.0111  1.8992
  132OSM   H12G14229   1.761   2.499   3.948  0.1281  0.2581 -1.3763
  132OSM   C13F14230   1.597   2.540   4.077  0.0055 -0.6137 -0.0144
  132OSM   H13F14231   1.660   2.583   4.158  1.4402 -1.5252 -0.5932
  132OSM   H13G14232   1.582   2.431   4.093  1.8686 -0.9733 -0.4283
  132OSM   C14F14233   1.455   2.605   4.087 -0.2139  0.0555  0.5946
  132OSM   H14F14234   1.392   2.570   4.002  0.0919 -0.8708  0.7370
  132OSM   H14G14235   1.480   2.712   4.069  3.8358 -0.6984  0.6982
  132OSM   C15F14236   1.389   2.579   4.228 -0.1224 -0.4519 -0.4148
  132OSM   H15F14237   1.427   2.655   4.300 -0.0901  0.1060 -1.0113
  132OSM   H15G14238   1.423   2.478   4.260 -3.0859 -1.2633  0.4651
  132OSM   C16F14239   1.237   2.587   4.223 -0.6718  0.4613 -0.0717
  132OSM   H16F14240   1.197   2.484   4.209 -0.1837  0.1230  0.9470
  132OSM   H16G14241   1.212   2.664   4.147  2.3466  0.4122 -1.2499
  132OSM   C17F14242   1.165   2.628   4.350 -0.4482 -0.1426  0.1866
  132OSM   H17F14243   1.222   2.585   4.435  1.8831  0.7396 -0.8336
  132OSM   H17G14244   1.059   2.595   4.350 -0.4531 -0.1275  0.3727
  132OSM   C18F14245   1.163   2.779   4.363 -0.6034 -0.3293  0.2830
  132OSM   H18F14246   1.271   2.805   4.368 -0.7674  0.8975 -1.5272
  132OSM   H18G14247   1.111   2.809   4.456 -0.7331 -0.7453  0.3454
  132OSM   H18H14248   1.127   2.834   4.273 -1.7776 -0.5300  0.6157
  133OSM      N14249   0.786   2.089   2.286 -0.0458  0.3824  0.0065
  133OSM    C1514250   0.694   2.070   2.167 -0.7656  0.6558 -0.4456
  133OSM   H15A14251   0.589   2.088   2.186 -1.0134  0.5815 -1.6407
  133OSM   H15B14252   0.703   1.968   2.132 -2.6690  0.3785 -0.2636
  133OSM   H15C14253   0.715   2.132   2.081 -2.0545 -1.0500 -2.1072
  133OSM    C1414254   0.919   2.036   2.252 -0.2257  0.2516  0.0644
  133OSM   H14A14255   0.980   2.002   2.335  0.5157  0.0911 -0.5401
  133OSM   H14B14256   0.979   2.118   2.215  0.3216  0.7191  1.8592
  133OSM   H14C14257   0.919   1.951   2.186  1.1878  1.2698 -1.3200
  133OSM    C1314258   0.803   2.234   2.310 -0.5629  0.8189 -0.2547
  133OSM   H13A14259   0.710   2.287   2.325  0.2306  2.1227  0.3320
  133OSM   H13B14260   0.849   2.287   2.228  1.9784 -0.9321 -0.0650
  133OSM   H13C14261   0.868   2.248   2.395  0.1080 -3.2742  0.0925
  133OSM    C1214262   0.732   2.034   2.414 -0.6269 -0.0598  0.4155
  133OSM   H12A14263   0.809   2.014   2.487  0.4115 -1.1990 -0.9206
  133OSM   H12B14264   0.680   1.943   2.389 -0.7509  0.7617 -2.8405
  133OSM    C1114265   0.624   2.118   2.485  0.6566 -0.6051  0.2853
  133OSM   H11A14266   0.672   2.202   2.540 -0.5207  1.6364 -1.9302
  133OSM   H11B14267   0.577   2.066   2.571 -1.4331  0.9955  0.1851
  133OSM      P14268   0.415   2.280   2.433 -0.1671 -0.1928 -0.4244
  133OSM    O1314269   0.413   2.378   2.320  0.0053 -0.6510 -0.4015
  133OSM    O1414270   0.287   2.215   2.469  0.4639 -0.2667  0.2621
  133OSM    O1114271   0.466   2.348   2.565 -0.2037 -0.6830  0.3557
  133OSM    O1214272   0.525   2.170   2.397 -0.8315 -0.9524 -0.2180
  133OSM    C1S14273   0.387   2.422   2.658  0.2176  0.6863  0.2870
  133OSM    H1S14274   0.313   2.486   2.604  0.7160 -0.0038 -1.2743
  133OSM    H1T14275   0.445   2.491   2.723  1.0876 -1.0272  1.4023
  133OSM     NF14276   0.203   2.429   2.829 -0.3576 -0.4036  0.5730
  133OSM    HNF14277   0.256   2.474   2.899  4.7350 -2.9152 -1.1635
  133OSM    C2S14278   0.303   2.342   2.758 -0.0953  0.4961  0.3185
  133OSM    H2S14279   0.260   2.253   2.708 -1.4758  1.6899 -0.7132
  133OSM    C3S14280   0.400   2.272   2.864 -0.3105 -0.2205  0.3051
  133OSM    H3S14281   0.432   2.362   2.921 -1.2312  0.9532 -0.9515
  133OSM     O314282   0.517   2.203   2.814 -0.6923 -0.2281 -0.0573
  133OSM    HO314283   0.527   2.238   2.725  2.9420  0.3284  0.4302
  133OSM    C4S14284   0.332   2.176   2.954 -0.0124  0.5182 -0.3691
  133OSM    H4S14285   0.334   2.073   2.916  0.5627  1.9851 -4.9083
  133OSM    C5S14286   0.304   2.203   3.081  0.3394 -0.0923  0.1502
  133OSM    H5S14287   0.321   2.305   3.118  0.2047 -0.8896  2.6054
  133OSM    C6S14288   0.245   2.113   3.181  0.3632 -0.1497 -0.3780
  133OSM    H6S14289   0.320   2.094   3.260 -0.5562 -0.1435  0.5182
  133OSM    H6T14290   0.211   2.016   3.139 -1.0448  0.6473 -1.1860
  133OSM    C7S14291   0.122   2.183   3.238 -0.2307 -0.1125 -0.2944
  133OSM    H7S14292   0.055   2.202   3.151 -0.3052  1.9967  0.1715
  133OSM    H7T14293   0.149   2.286   3.271 -1.8245  0.8931 -1.9602
  133OSM    C8S14294   0.065   2.130   3.360  0.2591 -0.3304  0.7914
  133OSM    H8S14295   0.014   2.034   3.341 -1.2712  0.8339 -1.5525
  133OSM    H8T14296  -0.008   2.205   3.399  1.3721  2.1785 -1.5634
  133OSM    C9S14297   0.158   2.096   3.484  0.3288 -0.2109  0.3264
  133OSM    H9S14298   0.240   2.171   3.493  1.5752 -1.5443  0.6007
  133OSM    H9T14299   0.209   2.000   3.459  0.2306 -0.4238  0.9367
  133OSM   C10S14300   0.086   2.105   3.615  0.0433 -0.1208 -0.3752
  133OSM   H10S14301   0.002   2.033   3.603  0.4644 -0.6223 -0.3688
  133OSM   H10T14302   0.046   2.206   3.636  0.7438  1.0408 -3.9828
  133OSM   C11S14303   0.169   2.074   3.744 -0.2382 -0.0427  0.6122
  133OSM   H11S14304   0.260   2.138   3.743  1.7398 -2.7087 -0.5833
  133OSM   H11T14305   0.224   1.978   3.744  1.5026  0.8418 -2.4825
  133OSM   C12S14306   0.086   2.079   3.872 -0.3598 -0.6409  0.1150
  133OSM   H12S14307  -0.003   2.014   3.858 -1.1126  0.2234  0.7659
  133OSM   H12T14308   0.043   2.180   3.888 -2.4371 -1.3017 -0.9075
  133OSM   C13S14309   0.159   2.051   4.002  0.1683 -0.5641 -0.3662
  133OSM   H13S14310   0.253   2.109   4.016 -0.1915 -0.1409  0.3282
  133OSM   H13T14311   0.197   1.947   4.010  1.3355 -0.0815  0.8412
  133OSM   C14S14312   0.073   2.078   4.121  0.3740  0.0749  0.1580
  133OSM   H14S14313   0.059   2.189   4.122 -0.1144  0.0126  0.1022
  133OSM   H14T14314   0.123   2.045   4.215  2.3502  1.7706 -0.2095
  133OSM   C15S14315  -0.056   1.998   4.115  0.3523 -0.0775 -0.2820
  133OSM   H15S14316  -0.035   1.891   4.095  2.0750  0.0225  0.8416
  133OSM   H15T14317  -0.127   2.031   4.036  1.4161  0.5932 -0.9780
  133OSM   C16S14318  -0.145   2.004   4.245 -0.2082  0.1257  0.5852
  133OSM   H16S14319  -0.088   1.976   4.336  1.3965  2.9760  0.5784
  133OSM   H16T14320  -0.228   1.932   4.227  0.2640 -0.0202 -1.1766
  133OSM   C17S14321  -0.202   2.144   4.276  0.0718 -0.2005  0.6377
  133OSM   H17S14322  -0.267   2.174   4.191 -1.1591 -1.0979  1.2343
  133OSM   H17T14323  -0.126   2.224   4.278  0.5084 -0.6155  0.8335
  133OSM   C18S14324  -0.274   2.142   4.413 -0.2801  0.2762 -0.4486
  133OSM   H18S14325  -0.350   2.061   4.415  0.5520 -0.5025  0.8050
  133OSM   H18T14326  -0.317   2.244   4.426  0.5817  0.5135  0.7155
  133OSM   H18U14327  -0.205   2.131   4.499  0.4324  3.8829 -0.3930
  133OSM    C1F14328   0.095   2.482   2.769  0.6182 -0.1087 -0.2417
  133OSM     OF14329   0.071   2.442   2.654  0.4448  0.1792  0.1190
  133OSM    C2F14330   0.032   2.603   2.832  0.1279 -0.0167  0.2941
  133OSM    H2F14331   0.013   2.676   2.751  0.5099 -0.3828 -0.1364
  133OSM    H2G14332   0.094   2.662   2.903  0.0878  0.8916 -0.4140
  133OSM    C3F14333  -0.095   2.562   2.904 -0.5055 -0.0085  0.2748
  133OSM    H3F14334  -0.171   2.520   2.835  0.3442 -0.7642 -0.2095
  133OSM    H3G14335  -0.133   2.664   2.928 -0.9843  0.1634 -1.1341
  133OSM    C4F14336  -0.076   2.482   3.035 -0.0696 -0.0162  0.2815
  133OSM    H4F14337   0.018   2.424   3.041 -0.3904 -0.6188 -0.3654
  133OSM    H4G14338  -0.160   2.409   3.033 -1.7420  1.8254 -0.5825
  133OSM    C5F14339  -0.098   2.561   3.166 -0.2918  0.4109  0.5704
  133OSM    H5F14340  -0.186   2.628   3.158 -0.3469  0.4804  1.5398
  133OSM    H5G14341  -0.010   2.628   3.175 -0.3185  0.6667 -0.8680
  133OSM    C6F14342  -0.112   2.478   3.292  0.2733 -0.2969  0.2488
  133OSM    H6F14343  -0.014   2.458   3.341  0.1487  0.8233  1.0032
  133OSM    H6G14344  -0.154   2.377   3.275 -1.9496 -0.0496  3.4849
  133OSM    C7F14345  -0.210   2.534   3.398 -0.4128 -0.5394  0.0017
  133OSM    H7F14346  -0.228   2.462   3.480  0.9411  0.1630  0.9558
  133OSM    H7G14347  -0.307   2.565   3.353 -0.0729  0.4689 -0.0691
  133OSM    C8F14348  -0.144   2.659   3.458  0.0607 -0.0868  0.2655
  133OSM    H8F14349  -0.132   2.734   3.377  0.8684 -0.4593  0.0234
  133OSM    H8G14350  -0.038   2.653   3.493  0.3437  5.2014  1.1272
  133OSM    C9F14351  -0.217   2.734   3.569  0.3934 -0.5082 -0.5402
  133OSM    H9F14352  -0.258   2.835   3.554 -3.9892 -1.6052  2.3100
  133OSM   C10F14353  -0.240   2.692   3.689  0.0541  0.3712 -0.3536
  133OSM   H10F14354  -0.282   2.764   3.762  2.4794  1.5460 -0.0078
  133OSM   C11F14355  -0.206   2.561   3.764 -0.1633 -0.8971 -0.2551
  133OSM   H11F14356  -0.153   2.487   3.700 -1.5187 -1.4647 -0.7695
  133OSM   H11G14357  -0.295   2.510   3.806 -1.8220  1.6093 -0.5156
  133OSM   C12F14358  -0.120   2.593   3.888  0.1927 -0.3129 -0.4532
  133OSM   H12F14359  -0.165   2.675   3.948 -0.7186 -0.2569 -1.1889
  133OSM   H12G14360  -0.018   2.618   3.852  0.7893 -2.0856 -0.0647
  133OSM   C13F14361  -0.096   2.468   3.981 -0.1822 -0.1326  0.4478
  133OSM   H13F14362  -0.062   2.384   3.917 -1.2685  0.6133 -1.1970
  133OSM   H13G14363  -0.197   2.448   4.022 -1.2518  0.6359 -1.6692
  133OSM   C14F14364  -0.001   2.509   4.095  0.3828 -0.5304  0.3644
  133OSM   H14F14365   0.093   2.550   4.052  0.0162  0.0451  0.1083
  133OSM   H14G14366   0.025   2.412   4.143  0.7830 -0.5487  0.1141
  133OSM   C15F14367  -0.053   2.607   4.206 -0.1717  0.3502 -0.7740
  133OSM   H15F14368  -0.111   2.689   4.159  0.0114  0.3175 -1.0594
  133OSM   H15G14369   0.032   2.649   4.264 -2.3001  0.0198  2.9056
  133OSM   C16F14370  -0.155   2.540   4.308  0.3462  0.2446 -0.3514
  133OSM   H16F14371  -0.113   2.445   4.348  0.5375 -0.0900 -1.3207
  133OSM   H16G14372  -0.251   2.505   4.265 -0.2728 -1.1930  2.0372
  133OSM   C17F14373  -0.191   2.625   4.431 -0.0119 -0.4623 -0.4437
  133OSM   H17F14374  -0.278   2.596   4.492 -0.4401 -1.6528 -1.5737
  133OSM   H17G14375  -0.230   2.715   4.379 -0.1401 -1.2186 -1.6872
  133OSM   C18F14376  -0.070   2.652   4.520  1.0059 -0.7953  0.4829
  133OSM   H18F14377  -0.089   2.726   4.601  0.8747 -1.0227  0.6597
  133OSM   H18G14378   0.012   2.694   4.457 -0.1005  0.5607 -0.0833
  133OSM   H18H14379  -0.032   2.556   4.562  1.9372  0.2174  2.0460
  134OSM      N14380   1.982   3.840   2.616 -0.9027  0.1136 -0.0632
  134OSM    C1514381   1.911   3.923   2.513 -1.0051 -0.5388  0.2724
  134OSM   H15A14382   1.862   3.858   2.442  1.6497 -2.6022  0.1746
  134OSM   H15B14383   1.989   3.973   2.458 -0.1653 -2.0815  0.0117
  134OSM   H15C14384   1.845   3.994   2.561  0.0994  1.1498 -0.6451
  134OSM    C1414385   1.870   3.788   2.706 -0.0313 -0.1325  0.6288
  134OSM   H14A14386   1.803   3.722   2.654  0.0525  0.2138  0.0705
  134OSM   H14B14387   1.809   3.870   2.742 -2.9564 -2.2819  0.9245
  134OSM   H14C14388   1.901   3.741   2.798  1.0580 -1.6250 -0.4674
  134OSM    C1314389   2.046   3.722   2.552 -0.1131 -0.4946 -0.3335
  134OSM   H13A14390   2.075   3.663   2.638  1.8981 -0.2779 -0.8004
  134OSM   H13B14391   2.126   3.754   2.486 -1.3962 -1.4986 -2.5035
  134OSM   H13C14392   1.985   3.658   2.490 -0.6006 -0.3548  0.0046
  134OSM    C1214393   2.088   3.913   2.700  0.9225  0.4607  0.4118
  134OSM   H12A14394   2.158   3.960   2.633 -0.1212 -0.1532 -1.1433
  134OSM   H12B14395   2.134   3.834   2.758 -1.2749 -1.7069 -0.6304
  134OSM    C1114396   2.039   4.021   2.803 -0.3234 -0.1509 -0.6655
  134OSM   H11A14397   2.129   4.027   2.868 -0.8042  0.7952 -0.0588
  134OSM   H11B14398   1.962   3.971   2.866 -0.6062  1.5723  0.4255
  134OSM      P14399   2.062   4.248   2.669  0.0458  0.0165  0.4518
  134OSM    O1314400   2.184   4.191   2.603  0.2283  0.0648 -0.5108
  134OSM    O1414401   1.978   4.329   2.576  0.1078 -0.2940  0.5011
  134OSM    O1114402   2.101   4.336   2.787  0.0792 -0.8665  0.4135
  134OSM    O1214403   1.985   4.136   2.746 -0.1318  0.2162  0.5078
  134OSM    C1S14404   2.014   4.418   2.869  0.4774  0.1274  0.7556
  134OSM    H1S14405   1.909   4.410   2.833  1.0927 -2.0284 -0.7382
  134OSM    H1T14406   2.039   4.526   2.860 -0.6952  0.2948 -0.9417
  134OSM     NF14407   1.908   4.456   3.095 -0.2295 -0.6647  0.2767
  134OSM    HNF14408   1.936   4.525   3.161 -2.7366 -0.7178  1.4750
  134OSM    C2S14409   2.004   4.375   3.025 -0.2984  0.7718 -0.5920
  134OSM    H2S14410   1.965   4.271   3.025 -0.2177  0.7328  0.5297
  134OSM    C3S14411   2.150   4.374   3.078 -0.0972 -0.7811  0.0870
  134OSM    H3S14412   2.182   4.480   3.078  0.1457 -0.8002  2.3779
  134OSM     O314413   2.246   4.303   2.998 -0.1749 -0.3958 -0.2213
  134OSM    HO314414   2.207   4.299   2.910 -0.5335  1.9222 -0.2345
  134OSM    C4S14415   2.145   4.322   3.212  0.3720 -0.1380 -0.0599
  134OSM    H4S14416   2.127   4.407   3.279 -0.1412 -0.1969 -0.1173
  134OSM    C5S14417   2.146   4.194   3.252 -0.4156  0.4494  0.0790
  134OSM    H5S14418   2.142   4.115   3.176  0.7468  0.9341 -0.5154
  134OSM    C6S14419   2.138   4.142   3.392 -0.4144 -0.4387 -0.0629
  134OSM    H6S14420   2.238   4.096   3.404 -0.2675 -0.5731 -1.5312
  134OSM    H6T14421   2.061   4.062   3.392 -1.0200  0.1172  1.5000
  134OSM    C7S14422   2.104   4.247   3.498 -0.1079 -0.1267 -0.6816
  134OSM    H7S14423   1.994   4.260   3.487 -0.1572 -0.9359 -1.1966
  134OSM    H7T14424   2.148   4.349   3.488  1.3042 -0.3679  1.9900
  134OSM    C8S14425   2.122   4.192   3.642 -0.4632 -0.1418 -0.2659
  134OSM    H8S14426   2.223   4.147   3.655 -0.3564 -0.0595 -0.8037
  134OSM    H8T14427   2.056   4.104   3.659 -0.1502 -1.0259 -3.0830
  134OSM    C9S14428   2.096   4.296   3.758  0.3923  0.1535  0.6294
  134OSM    H9S14429   1.991   4.334   3.762  1.0105  2.1296 -0.6200
  134OSM    H9T14430   2.161   4.385   3.747 -0.6479  1.2118  2.5428
  134OSM   C10S14431   2.104   4.223   3.892 -0.1584  0.4488  0.3278
  134OSM   H10S14432   2.212   4.201   3.909 -0.7195 -4.1357 -0.6431
  134OSM   H10T14433   2.059   4.122   3.902 -2.0220  1.3133  1.1021
  134OSM   C11S14434   2.043   4.302   4.003 -0.2979 -1.0574 -0.3622
  134OSM   H11S14435   1.932   4.295   4.009 -0.2370 -1.7265  0.1107
  134OSM   H11T14436   2.076   4.407   3.994  0.6476 -1.3781 -0.8231
  134OSM   C12S14437   2.092   4.249   4.139  0.1597  0.2307  0.1787
  134OSM   H12S14438   2.086   4.138   4.150 -0.3015  0.4935  3.4052
  134OSM   H12T14439   2.023   4.293   4.214 -1.1009 -1.9250  0.3626
  134OSM   C13S14440   2.239   4.302   4.173  0.1030 -0.1141  0.1419
  134OSM   H13S14441   2.235   4.403   4.127 -1.7401 -0.0880  0.2713
  134OSM   H13T14442   2.312   4.235   4.124 -1.3900  0.4212 -3.0597
  134OSM   C14S14443   2.262   4.318   4.326  0.2418 -0.0346 -0.1644
  134OSM   H14S14444   2.183   4.390   4.356 -0.0960 -0.2864 -0.4371
  134OSM   H14T14445   2.367   4.356   4.329 -0.2068  1.4563 -1.6348
  134OSM   C15S14446   2.238   4.187   4.403 -0.2727 -0.1520  0.2028
  134OSM   H15S14447   2.319   4.112   4.398  0.6765  0.9048 -1.5332
  134OSM   H15T14448   2.155   4.126   4.362 -0.4860 -0.2731  0.8159
  134OSM   C16S14449   2.231   4.213   4.555  0.7454 -0.7677  0.2735
  134OSM   H16S14450   2.144   4.278   4.577  0.3664 -1.3133  0.4283
  134OSM   H16T14451   2.312   4.272   4.603  0.8067 -0.0517 -0.6936
  134OSM   C17S14452   2.237   4.088   4.641  0.0160  0.3396  0.2583
  134OSM   H17S14453   2.338   4.042   4.628 -1.3978 -2.6421 -1.1507
  134OSM   H17T14454   2.154   4.018   4.619  0.6234 -0.4934  0.5446
  134OSM   C18S14455   2.242   4.113   4.791  0.0034 -0.0403 -0.1507
  134OSM   H18S14456   2.308   4.197   4.822  0.1680  0.8281 -2.5721
  134OSM   H18T14457   2.269   4.020   4.844 -0.5734 -0.4912 -0.6361
  134OSM   H18U14458   2.139   4.121   4.833 -0.4729 -0.3607 -1.1993
  134OSM    C1F14459   1.777   4.452   3.078 -0.9770 -0.7746  0.7087
  134OSM     OF14460   1.737   4.383   2.986  0.5719  0.4026 -0.1555
  134OSM    C2F14461   1.683   4.535   3.170  0.5422  0.6269  0.0701
  134OSM    H2F14462   1.721   4.640   3.165  2.5886 -0.1168 -1.0404
  134OSM    H2G14463   1.698   4.502   3.275 -0.1556  2.0127  0.6418
  134OSM    C3F14464   1.528   4.529   3.135  0.2789 -0.1299 -0.0121
  134OSM    H3F14465   1.502   4.422   3.123 -0.4142 -0.1094  1.1513
  134OSM    H3G14466   1.507   4.576   3.036  0.2608 -1.2477 -0.5583
  134OSM    C4F14467   1.431   4.603   3.233  0.5366  0.2030  0.2579
  134OSM    H4F14468   1.332   4.590   3.184  0.5953  3.8936 -1.1899
  134OSM    H4G14469   1.441   4.714   3.237 -1.8581  0.5572 -1.4303
  134OSM    C5F14470   1.424   4.538   3.376  0.2189 -0.5527  0.5755
  134OSM    H5F14471   1.521   4.517   3.426  0.3911 -0.5085  0.2626
  134OSM    H5G14472   1.383   4.435   3.367 -1.5788  0.0576  1.4681
  134OSM    C6F14473   1.336   4.620   3.480 -0.3562  0.4113 -0.1379
  134OSM    H6F14474   1.231   4.621   3.446 -0.7371 -0.1958  0.9559
  134OSM    H6G14475   1.383   4.721   3.484 -2.7472  1.6203 -0.6037
  134OSM    C7F14476   1.327   4.559   3.620 -0.2635 -0.4380 -0.5245
  134OSM    H7F14477   1.427   4.558   3.668  0.2686  1.1626 -1.5307
  134OSM    H7G14478   1.291   4.454   3.617  0.5253 -0.6983 -2.2725
  134OSM    C8F14479   1.243   4.656   3.711 -1.0645  0.0261  0.6159
  134OSM    H8F14480   1.274   4.755   3.669  0.4060 -1.2590 -1.5625
  134OSM    H8G14481   1.284   4.649   3.814 -0.3812  0.3360  0.3732
  134OSM    C9F14482   1.096   4.630   3.698  0.1753  0.0516 -0.6781
  134OSM    H9F14483   1.073   4.536   3.646 -0.7145  0.2357 -0.6275
  134OSM   C10F14484   0.990   4.699   3.755  0.0265 -0.1774 -0.1366
  134OSM   H10F14485   0.885   4.673   3.739  0.0568 -0.6176  0.3622
  134OSM   C11F14486   1.012   4.828   3.832  0.3741  0.6034  0.0278
  134OSM   H11F14487   0.917   4.883   3.845 -0.1685 -0.9059  3.7433
  134OSM   H11G14488   1.075   4.902   3.778  0.4779 -0.8367 -1.9590
  134OSM   C12F14489   1.065   4.819   3.979  0.2318 -0.0606 -0.1101
  134OSM   H12F14490   1.074   4.921   4.023 -0.3161  0.0812 -0.3110
  134OSM   H12G14491   1.165   4.771   3.987 -0.0680 -0.5964  0.5170
  134OSM   C13F14492   0.986   4.728   4.078 -0.2920 -0.4465  0.3843
  134OSM   H13F14493   0.996   4.621   4.052  0.3190 -0.7160  1.6809
  134OSM   H13G14494   0.876   4.746   4.081 -0.6016 -2.1325  0.1167
  134OSM   C14F14495   1.038   4.746   4.219  0.1259  0.4657 -0.1104
  134OSM   H14F14496   1.036   4.855   4.241 -0.4197  0.3158  0.6049
  134OSM   H14G14497   1.142   4.708   4.225 -0.2310 -1.6121 -3.9239
  134OSM   C15F14498   0.951   4.669   4.328 -0.0977  0.0094  0.7058
  134OSM   H15F14499   0.975   4.561   4.319  1.8247  0.3378  1.4453
  134OSM   H15G14500   0.844   4.681   4.300 -0.3784 -1.9190  0.8040
  134OSM   C16F14501   0.977   4.727   4.466  0.1180  0.8906 -0.2254
  134OSM   H16F14502   0.926   4.824   4.484 -1.1806  0.2782 -0.5143
  134OSM   H16G14503   1.083   4.752   4.491 -0.2999  0.3659  2.3518
  134OSM   C17F14504   0.949   4.626   4.586 -0.1495 -0.3230 -0.0385
  134OSM   H17F14505   1.001   4.667   4.675  1.7346 -1.2092 -0.6873
  134OSM   H17G14506   1.009   4.540   4.550 -1.5418 -1.5522  0.4604
  134OSM   C18F14507   0.801   4.574   4.590  0.5133 -0.1025  0.5323
  134OSM   H18F14508   0.758   4.543   4.492 -2.8166  2.4548  0.9740
  134OSM   H18G14509   0.731   4.648   4.634  1.2713 -0.6269  2.7517
  134OSM   H18H14510   0.791   4.487   4.658  3.8090 -0.4399  0.7361
  135OSM      N14511   3.101   1.972   2.430 -0.7038  0.1191  0.2528
  135OSM    C1514512   3.025   1.840   2.427  0.0585 -1.0714  0.1900
  135OSM   H15A14513   3.094   1.759   2.442  0.4673 -1.0010 -1.1374
  135OSM   H15B14514   2.985   1.825   2.327 -0.2403 -1.6658  0.3972
  135OSM   H15C14515   2.951   1.842   2.505  0.5920 -0.0453  0.6793
  135OSM    C1414516   3.224   1.956   2.341  0.4588 -0.1418  0.4254
  135OSM   H14A14517   3.312   2.005   2.378  1.9630  0.6025 -3.6338
  135OSM   H14B14518   3.202   2.002   2.247 -1.3196 -2.4281 -0.3812
  135OSM   H14C14519   3.250   1.853   2.321 -2.5350 -0.4044 -3.2766
  135OSM    C1314520   3.009   2.075   2.367  0.5445  0.4644 -0.6905
  135OSM   H13A14521   2.971   2.037   2.274 -1.2481 -1.3184  0.6875
  135OSM   H13B14522   3.049   2.171   2.336  0.6071  0.6157 -0.1529
  135OSM   H13C14523   2.922   2.089   2.430  0.1309  0.3932 -1.2390
  135OSM    C1214524   3.155   2.017   2.568 -0.0747 -0.0792  0.1767
  135OSM   H12A14525   3.075   2.061   2.626  0.8631  2.6803 -0.4755
  135OSM   H12B14526   3.211   2.107   2.548  0.9865 -1.0013 -1.1661
  135OSM    C1114527   3.251   1.924   2.642 -0.5119  0.1767 -0.7199
  135OSM   H11A14528   3.212   1.824   2.669 -0.7433  0.4817  0.1071
  135OSM   H11B14529   3.268   1.978   2.738  3.0753 -0.4187 -0.8647
  135OSM      P14530   3.516   1.974   2.607 -0.1052 -0.3514 -0.3300
  135OSM    O1314531   3.628   1.904   2.543  0.7875 -0.1401  0.4879
  135OSM    O1414532   3.506   2.122   2.585 -0.1081  0.1871 -0.5191
  135OSM    O1114533   3.527   1.952   2.759 -0.8892 -0.4602  0.1629
  135OSM    O1214534   3.379   1.901   2.567 -0.1379  0.3574 -0.0045
  135OSM    C1S14535   3.540   1.821   2.809  0.3051  0.1214 -0.8471
  135OSM    H1S14536   3.605   1.762   2.741 -0.9568  1.7233 -3.5907
  135OSM    H1T14537   3.435   1.785   2.815  0.2877  0.1426 -1.0387
  135OSM     NF14538   3.635   1.676   2.991 -0.1671  0.2004 -0.5057
  135OSM    HNF14539   3.581   1.630   3.061  0.4805  0.9059  0.4802
  135OSM    C2S14540   3.601   1.816   2.959 -0.1166 -1.1872 -0.4217
  135OSM    H2S14541   3.696   1.874   2.960 -0.4183 -0.4890 -3.3967
  135OSM    C3S14542   3.502   1.889   3.055  0.3292 -0.2439  0.0371
  135OSM    H3S14543   3.407   1.836   3.074 -0.2061 -0.1479 -2.0888
  135OSM     O314544   3.445   2.015   3.011 -0.1638 -0.2208  0.3602
  135OSM    HO314545   3.473   2.017   2.919 -3.4342 -0.2771 -0.7785
  135OSM    C4S14546   3.567   1.910   3.193  0.7507 -0.4380 -1.3451
  135OSM    H4S14547   3.537   1.832   3.264 -0.5304 -0.6312 -2.0664
  135OSM    C5S14548   3.657   1.998   3.236 -0.3348  0.6113  0.0402
  135OSM    H5S14549   3.692   2.075   3.166 -0.7750 -1.7253 -2.9609
  135OSM    C6S14550   3.708   2.004   3.377 -0.3092 -0.2895 -0.6107
  135OSM    H6S14551   3.657   2.091   3.424 -0.8146 -0.7109 -0.3711
  135OSM    H6T14552   3.819   2.014   3.378 -0.2801 -0.4321 -1.6010
  135OSM    C7S14553   3.679   1.881   3.474  0.7346 -0.4676  0.0424
  135OSM    H7S14554   3.722   1.792   3.423  0.8901  0.5912 -1.7403
  135OSM    H7T14555   3.569   1.863   3.475  1.0331 -2.6396  0.6939
  135OSM    C8S14556   3.742   1.890   3.620  0.5967 -0.3282  0.1427
  135OSM    H8S14557   3.853   1.888   3.611  0.7093  0.6680  1.0687
  135OSM    H8T14558   3.710   1.804   3.683 -1.0833 -0.4794 -0.8618
  135OSM    C9S14559   3.714   2.023   3.697 -0.2568  0.1632 -0.0370
  135OSM    H9S14560   3.610   2.061   3.698  0.6415  2.8837 -0.1255
  135OSM    H9T14561   3.770   2.100   3.640 -1.3652 -0.1615 -1.6202
  135OSM   C10S14562   3.758   2.016   3.838  0.0897  0.4282  0.3195
  135OSM   H10S14563   3.849   1.953   3.849  0.0962  0.7996  3.3840
  135OSM   H10T14564   3.691   1.951   3.898  0.4962  0.8226  1.2232
  135OSM   C11S14565   3.784   2.150   3.906  0.2163 -0.8631  0.0318
  135OSM   H11S14566   3.691   2.211   3.907 -0.1367 -1.3977  1.0680
  135OSM   H11T14567   3.866   2.200   3.849 -0.5966 -0.7423 -1.0688
  135OSM   C12S14568   3.842   2.139   4.044  0.5942  0.2137 -0.0672
  135OSM   H12S14569   3.881   2.239   4.071 -1.2402  1.0521 -0.3336
  135OSM   H12T14570   3.925   2.065   4.048 -0.4215 -0.9926 -0.5139
  135OSM   C13S14571   3.743   2.109   4.156  0.1421 -0.0999 -0.4698
  135OSM   H13S14572   3.673   2.034   4.114 -0.4111  0.9813 -1.5479
  135OSM   H13T14573   3.691   2.206   4.171 -0.8250 -0.8161  1.0023
  135OSM   C14S14574   3.813   2.081   4.288  0.0090  0.3766 -0.1579
  135OSM   H14S14575   3.893   2.158   4.293  0.9082 -0.6067  1.3296
  135OSM   H14T14576   3.854   1.978   4.285  0.4452  0.5623 -0.5935
  135OSM   C15S14577   3.716   2.088   4.409 -1.0317 -0.0153 -0.1599
  135OSM   H15S14578   3.657   1.996   4.426  0.5952 -1.3110 -1.2163
  135OSM   H15T14579   3.648   2.174   4.391 -1.9400 -0.8313 -0.7145
  135OSM   C16S14580   3.799   2.095   4.536 -0.2858  0.1986  0.1710
  135OSM   H16S14581   3.843   2.195   4.554  2.0659 -0.8814  0.8028
  135OSM   H16T14582   3.871   2.010   4.531 -1.3092 -0.7579  0.9710
  135OSM   C17S14583   3.721   2.091   4.674  0.5300  0.6045  0.2412
  135OSM   H17S14584   3.641   2.017   4.654  0.0856  0.7953  1.2610
  135OSM   H17T14585   3.671   2.189   4.691  0.3423  0.6153 -0.3294
  135OSM   C18S14586   3.794   2.056   4.807  1.1303  0.3078  0.5132
  135OSM   H18S14587   3.875   2.130   4.825 -0.8653  2.4847  1.0081
  135OSM   H18T14588   3.836   1.953   4.809  1.7676  0.3889 -2.6092
  135OSM   H18U14589   3.722   2.063   4.891  1.2101 -2.5488  0.9170
  135OSM    C1F14590   3.748   1.620   2.936  0.2033 -0.7613 -1.1443
  135OSM     OF14591   3.831   1.686   2.874  0.6566 -0.9283  0.2282
  135OSM    C2F14592   3.769   1.477   2.975 -0.5865  0.5576 -0.2528
  135OSM    H2F14593   3.813   1.428   2.886  1.7406  1.7687  0.1395
  135OSM    H2G14594   3.676   1.420   2.996 -0.6278  0.2790 -1.1383
  135OSM    C3F14595   3.867   1.453   3.090  0.3962 -0.0247 -0.0409
  135OSM    H3F14596   3.969   1.487   3.060  0.1090  1.0924  0.2358
  135OSM    H3G14597   3.874   1.342   3.099 -0.4780 -0.1921 -1.1830
  135OSM    C4F14598   3.833   1.518   3.220  0.2180 -0.1403  0.0063
  135OSM    H4F14599   3.728   1.496   3.247 -0.1106  2.1723  0.8180
  135OSM    H4G14600   3.841   1.629   3.228 -0.7745 -0.1555  1.6248
  135OSM    C5F14601   3.924   1.464   3.329  0.3963 -0.9159 -0.6328
  135OSM    H5F14602   4.027   1.489   3.293  0.2283  1.1632  0.1489
  135OSM    H5G14603   3.913   1.354   3.338  0.2024 -0.7288  2.8329
  135OSM    C6F14604   3.893   1.531   3.465  0.2238 -0.2791  0.3180
  135OSM    H6F14605   3.785   1.511   3.478 -0.3029  1.6558 -0.6803
  135OSM    H6G14606   3.907   1.641   3.457 -1.8588  0.2517  2.6096
  135OSM    C7F14607   3.973   1.454   3.568  0.2154  0.2257 -0.9635
  135OSM    H7F14608   4.080   1.441   3.543 -0.0287  0.5433 -2.2448
  135OSM    H7G14609   3.935   1.349   3.570  2.8513 -0.7932  0.9536
  135OSM    C8F14610   3.953   1.506   3.714 -0.8930 -0.4281 -0.7092
  135OSM    H8F14611   4.006   1.435   3.781  0.7752  0.4841 -1.0069
  135OSM    H8G14612   3.844   1.513   3.735 -1.0266  2.5317 -1.9423
  135OSM    C9F14613   4.008   1.649   3.712  0.4468  0.1439  0.8046
  135OSM    H9F14614   3.987   1.714   3.626  0.8803  2.6388  2.4689
  135OSM   C10F14615   4.067   1.708   3.816  0.4778 -0.7043  0.0084
  135OSM   H10F14616   4.083   1.817   3.809 -2.9832 -0.1621 -1.2721
  135OSM   C11F14617   4.100   1.656   3.953  0.2711 -0.4207  0.5282
  135OSM   H11F14618   4.165   1.731   4.003 -0.7077  0.9012 -0.1232
  135OSM   H11G14619   4.142   1.553   3.949  1.2715  0.0035 -0.2558
  135OSM   C12F14620   3.972   1.659   4.038 -0.0841  0.5699 -0.0044
  135OSM   H12F14621   3.896   1.588   3.999 -0.2935  0.7165  0.1318
  135OSM   H12G14622   3.924   1.759   4.027 -1.5367  0.4497  3.8116
  135OSM   C13F14623   3.996   1.633   4.190 -0.4319  0.4722 -0.5375
  135OSM   H13F14624   4.058   1.541   4.198 -0.0818  0.5856 -1.7896
  135OSM   H13G14625   3.899   1.605   4.238  0.0784  0.9607  0.8334
  135OSM   C14F14626   4.059   1.747   4.266 -0.5080 -0.9312 -0.3987
  135OSM   H14F14627   4.007   1.846   4.267  1.6375  0.2750  1.6070
  135OSM   H14G14628   4.154   1.766   4.212 -1.4202  1.7836 -1.2286
  135OSM   C15F14629   4.088   1.721   4.418 -0.3316 -0.3991 -0.0045
  135OSM   H15F14630   4.131   1.813   4.463  1.3452 -0.9783 -0.3508
  135OSM   H15G14631   4.163   1.639   4.426 -0.8023 -0.8368 -0.0265
  135OSM   C16F14632   3.951   1.697   4.500 -0.3174 -0.2501  0.1455
  135OSM   H16F14633   3.898   1.604   4.469  1.7028 -1.3322 -0.2745
  135OSM   H16G14634   3.895   1.791   4.482  0.7390 -0.0829 -3.0833
  135OSM   C17F14635   3.970   1.672   4.646 -0.8666  0.2792 -0.2525
  135OSM   H17F14636   3.873   1.689   4.697  0.1028  0.0104  1.7838
  135OSM   H17G14637   4.037   1.745   4.695 -0.5512 -2.5491  4.1018
  135OSM   C18F14638   4.035   1.532   4.674  0.4943 -0.3319  0.2706
  135OSM   H18F14639   4.052   1.538   4.783  0.1349 -0.0426  0.3138
  135OSM   H18G14640   4.129   1.525   4.616  0.1510 -0.8765 -0.2364
  135OSM   H18H14641   3.963   1.454   4.640  1.1035 -0.6235 -0.3719
  136OSM      N14642   1.251   5.522   2.466 -1.0083 -0.3022  0.0019
  136OSM    C1514643   1.326   5.393   2.466  0.9316  0.6295  0.1926
  136OSM   H15A14644   1.291   5.330   2.546 -1.3793 -1.4504 -2.2804
  136OSM   H15B14645   1.428   5.418   2.492  1.2305  0.9144 -1.1939
  136OSM   H15C14646   1.321   5.342   2.371  0.0765  2.7788 -0.9743
  136OSM    C1414647   1.321   5.622   2.376 -0.1823 -0.0179  0.4055
  136OSM   H14A14648   1.339   5.582   2.277  0.6871  0.2870  0.4291
  136OSM   H14B14649   1.408   5.668   2.420 -0.5542  0.1688  0.9507
  136OSM   H14C14650   1.259   5.707   2.353  2.6265  1.6574 -1.6591
  136OSM    C1314651   1.122   5.505   2.406  0.5327  0.0162  0.0211
  136OSM   H13A14652   1.132   5.468   2.305 -3.6376 -1.4755 -0.0296
  136OSM   H13B14653   1.066   5.597   2.401 -0.9188 -0.6883  2.1267
  136OSM   H13C14654   1.067   5.428   2.459 -1.5762  1.3886 -0.0882
  136OSM    C1214655   1.251   5.585   2.605 -0.2333  0.2653  0.2447
  136OSM   H12A14656   1.210   5.685   2.601 -0.1248  0.2812 -0.8503
  136OSM   H12B14657   1.352   5.608   2.634  0.5231 -3.2457  0.8887
  136OSM    C1114658   1.187   5.506   2.722  0.3229  0.2559 -0.0976
  136OSM   H11A14659   1.084   5.474   2.692  1.1283 -1.3113 -1.3603
  136OSM   H11B14660   1.173   5.575   2.808 -1.4741  0.8988 -0.8333
  136OSM      P14661   1.401   5.402   2.829  0.1405 -0.1945  0.3423
  136OSM    O1314662   1.490   5.296   2.798  0.6126  0.2296 -0.1277
  136OSM    O1414663   1.458   5.535   2.796 -0.1225 -0.3975 -0.3431
  136OSM    O1114664   1.354   5.390   2.979 -0.4395  0.6379  0.2175
  136OSM    O1214665   1.265   5.384   2.754 -0.4468 -0.0180 -0.0056
  136OSM    C1S14666   1.315   5.270   3.035 -0.1443  0.0978 -0.3107
  136OSM    H1S14667   1.403   5.205   3.052 -0.5585 -1.1054 -2.4111
  136OSM    H1T14668   1.237   5.219   2.974 -0.8403  0.4543  0.2760
  136OSM     NF14669   1.224   5.180   3.243  0.4069 -0.3013  0.2481
  136OSM    HNF14670   1.138   5.136   3.222  0.1887  0.4633 -0.5189
  136OSM    C2S14671   1.244   5.305   3.170 -0.5886  0.3596  0.0079
  136OSM    H2S14672   1.307   5.371   3.233 -1.0983  1.7380 -0.8659
  136OSM    C3S14673   1.120   5.385   3.145  0.6892  0.1660 -0.0974
  136OSM    H3S14674   1.053   5.324   3.082 -2.4480  3.0845  0.1028
  136OSM     O314675   1.132   5.514   3.084  0.3752  1.0632  0.2550
  136OSM    HO314676   1.215   5.505   3.038 -0.6294 -0.6359 -1.3730
  136OSM    C4S14677   1.053   5.404   3.286 -0.5850  0.3503  0.8498
  136OSM    H4S14678   0.982   5.323   3.307  2.8627 -3.6788 -1.2447
  136OSM    C5S14679   1.076   5.500   3.374 -0.3402 -0.2777 -0.1812
  136OSM    H5S14680   1.136   5.589   3.352 -2.7446  1.9550  1.6938
  136OSM    C6S14681   1.010   5.497   3.510 -0.1944  0.3546  0.1433
  136OSM    H6S14682   1.072   5.540   3.592 -1.9213  2.7446  0.3095
  136OSM    H6T14683   0.997   5.389   3.531  2.1666  0.1849  0.9784
  136OSM    C7S14684   0.877   5.571   3.515  0.0738 -1.0845 -0.0351
  136OSM    H7S14685   0.810   5.544   3.430  0.6702 -1.8578 -0.2693
  136OSM    H7T14686   0.907   5.675   3.490  0.5156 -0.8117  1.5168
  136OSM    C8S14687   0.800   5.564   3.649 -0.1158 -0.0764  0.3970
  136OSM    H8S14688   0.852   5.513   3.733  0.0877  1.2943  1.1315
  136OSM    H8T14689   0.699   5.517   3.640  0.6290 -1.2828 -3.7881
  136OSM    C9S14690   0.766   5.708   3.700 -0.2961  0.4801  0.1053
  136OSM    H9S14691   0.687   5.755   3.637 -0.1250 -0.0808 -0.5307
  136OSM    H9T14692   0.859   5.767   3.689  0.0280  0.0445  0.4580
  136OSM   C10S14693   0.715   5.710   3.838 -0.5165  0.8002 -0.3897
  136OSM   H10S14694   0.631   5.637   3.838 -0.6414  0.9438 -0.0619
  136OSM   H10T14695   0.675   5.810   3.865 -0.0431  0.8427  0.1735
  136OSM   C11S14696   0.822   5.677   3.947 -0.5921 -0.0329 -0.0261
  136OSM   H11S14697   0.909   5.739   3.919 -0.7568 -0.3250 -1.2547
  136OSM   H11T14698   0.850   5.570   3.932 -1.5807 -0.5104  1.3267
  136OSM   C12S14699   0.775   5.713   4.087 -0.1894  0.3471 -0.2366
  136OSM   H12S14700   0.674   5.666   4.091  0.1744 -0.5010 -0.7350
  136OSM   H12T14701   0.775   5.824   4.095  0.5644  0.5024 -2.0077
  136OSM   C13S14702   0.865   5.660   4.195  0.3032  0.1906 -0.0074
  136OSM   H13S14703   0.954   5.720   4.220 -0.1297  1.8416 -2.1570
  136OSM   H13T14704   0.901   5.555   4.190  0.0828 -0.2131  3.7575
  136OSM   C14S14705   0.785   5.655   4.327  0.0230 -0.1112  0.2386
  136OSM   H14S14706   0.699   5.584   4.325  3.0302 -4.3407  3.5242
  136OSM   H14T14707   0.755   5.762   4.339  0.5932  0.0990 -0.1759
  136OSM   C15S14708   0.866   5.633   4.457  0.4605  0.3503  0.3930
  136OSM   H15S14709   0.957   5.697   4.462  0.8295 -0.1847  0.6191
  136OSM   H15T14710   0.914   5.538   4.428  0.2758  0.3900 -0.0512
  136OSM   C16S14711   0.785   5.628   4.585 -0.1024 -0.0844 -0.1335
  136OSM   H16S14712   0.684   5.600   4.550 -0.9154  1.7174  0.6320
  136OSM   H16T14713   0.787   5.735   4.616  2.0834  0.4304 -1.7618
  136OSM   C17S14714   0.833   5.533   4.700  0.0274 -0.8644  1.0761
  136OSM   H17S14715   0.943   5.537   4.720 -0.4214  2.7338  3.9926
  136OSM   H17T14716   0.808   5.428   4.674  0.5091 -0.4614 -1.1982
  136OSM   C18S14717   0.758   5.570   4.828 -0.0564  0.7588  0.0985
  136OSM   H18S14718   0.800   5.515   4.915  0.3567  2.0166  0.7082
  136OSM   H18T14719   0.649   5.554   4.813 -0.2773  1.2086  1.1209
  136OSM   H18U14720   0.766   5.677   4.854 -1.8621  0.9797 -0.1170
  136OSM    C1F14721   1.325   5.111   3.308  0.1348  1.0810 -0.2001
  136OSM     OF14722   1.442   5.134   3.289 -0.9405 -0.2544  0.6413
  136OSM    C2F14723   1.289   4.996   3.398 -0.4896 -0.6564 -0.3417
  136OSM    H2F14724   1.369   4.971   3.471 -0.0774 -2.3647 -1.3394
  136OSM    H2G14725   1.282   4.914   3.324  3.3662 -2.1734  0.7202
  136OSM    C3F14726   1.156   5.000   3.488  0.4613  0.4728  0.1652
  136OSM    H3F14727   1.139   4.910   3.551 -1.3217 -0.3415 -1.3726
  136OSM    H3G14728   1.063   4.998   3.428 -1.6468  0.2218  3.2242
  136OSM    C4F14729   1.147   5.122   3.582 -0.3045  0.4433  0.3028
  136OSM    H4F14730   1.164   5.214   3.521 -0.8443 -0.8192 -1.8712
  136OSM    H4G14731   1.234   5.124   3.651  0.6414  1.5210 -0.8695
  136OSM    C5F14732   1.012   5.134   3.659  0.1001  0.3359  0.6604
  136OSM    H5F14733   0.979   5.032   3.687  0.2984  0.4607  1.3609
  136OSM    H5G14734   0.943   5.189   3.592  3.0594  0.1667 -2.8611
  136OSM    C6F14735   1.036   5.209   3.792 -0.6833  0.1878  0.0864
  136OSM    H6F14736   1.054   5.318   3.777 -2.6909  0.8291  1.7899
  136OSM    H6G14737   1.124   5.159   3.838  0.3312 -1.0955 -2.9937
  136OSM    C7F14738   0.912   5.191   3.885 -0.7529 -0.1444  0.7501
  136OSM    H7F14739   0.901   5.085   3.916  2.7727 -1.5522 -2.0819
  136OSM    H7G14740   0.826   5.229   3.825 -0.4509 -0.0247  0.3925
  136OSM    C8F14741   0.936   5.286   4.010 -0.2215  0.5388 -0.3485
  136OSM    H8F14742   0.934   5.386   3.961 -1.4069 -0.1896 -1.8859
  136OSM    H8G14743   1.036   5.266   4.054 -0.6777 -0.6629  0.1638
  136OSM    C9F14744   0.817   5.274   4.097  0.0663  0.1007 -0.2048
  136OSM    H9F14745   0.731   5.335   4.064  1.8981  3.5528  0.8102
  136OSM   C10F14746   0.814   5.207   4.214 -0.2089 -0.2170 -0.0095
  136OSM   H10F14747   0.716   5.195   4.264 -0.5554  0.6544 -0.4535
  136OSM   C11F14748   0.923   5.131   4.288 -0.1339 -0.8189 -0.3438
  136OSM   H11F14749   1.008   5.122   4.217 -0.8436  4.2119 -2.2549
  136OSM   H11G14750   0.895   5.026   4.311  2.8109 -1.4811  0.7762
  136OSM   C12F14751   0.981   5.193   4.410  0.2002  0.7127 -0.1594
  136OSM   H12F14752   0.905   5.217   4.487  1.0700  3.0436  0.0655
  136OSM   H12G14753   1.023   5.292   4.381  2.9911 -0.5226 -0.6308
  136OSM   C13F14754   1.102   5.113   4.472  0.4107 -0.2459  0.2568
  136OSM   H13F14755   1.192   5.131   4.409 -0.0648 -1.2645 -0.7371
  136OSM   H13G14756   1.073   5.007   4.461  0.8974 -0.3562  0.0153
  136OSM   C14F14757   1.128   5.132   4.627 -0.2845  0.1806  0.2572
  136OSM   H14F14758   1.213   5.072   4.666 -1.0564 -0.0580  1.6303
  136OSM   H14G14759   1.043   5.104   4.691 -1.3195  1.8534 -0.3228
  136OSM   C15F14760   1.166   5.275   4.651 -0.3424 -0.0638 -0.4051
  136OSM   H15F14761   1.071   5.331   4.661 -1.4171 -1.7459 -0.7609
  136OSM   H15G14762   1.225   5.312   4.564  1.4869 -2.2943 -0.2128
  136OSM   C16F14763   1.248   5.307   4.777  0.0345  0.1503 -0.3720
  136OSM   H16F14764   1.275   5.415   4.770  0.9193 -0.0230  0.2055
  136OSM   H16G14765   1.339   5.243   4.774  0.9698  1.4647 -1.2757
  136OSM   C17F14766   1.177   5.282   4.909  0.4458 -0.1448  0.6530
  136OSM   H17F14767   1.248   5.300   4.993 -0.1553 -4.1637  2.2359
  136OSM   H17G14768   1.147   5.176   4.920 -3.9500  0.8601 -0.0103
  136OSM   C18F14769   1.055   5.374   4.939 -0.3285 -0.1014  1.1948
  136OSM   H18F14770   1.028   5.382   5.046 -1.4288 -1.2878  1.0334
  136OSM   H18G14771   0.964   5.333   4.890 -0.2321 -1.3824  2.0343
  136OSM   H18H14772   1.069   5.473   4.890 -3.8063  0.0665  0.3041
  137OSM      N14773   3.696   4.075   1.961 -0.0051 -0.3466 -0.0710
  137OSM    C1514774   3.780   3.950   1.930  0.0571  0.3461 -0.1458
  137OSM   H15A14775   3.869   3.938   1.990 -1.2060 -1.3060  1.5100
  137OSM   H15B14776   3.810   3.929   1.828  0.0949  0.7267 -0.2151
  137OSM   H15C14777   3.727   3.859   1.954  1.1880 -0.7779 -1.6963
  137OSM    C1414778   3.766   4.187   1.898  0.1928  0.2648  0.4236
  137OSM   H14A14779   3.711   4.278   1.918 -1.1511  0.4310 -3.2226
  137OSM   H14B14780   3.756   4.169   1.792  0.0171 -2.2046  0.7909
  137OSM   H14C14781   3.871   4.202   1.919  0.1028  2.0265 -0.2250
  137OSM    C1314782   3.567   4.069   1.886  0.5465 -0.0181  0.2356
  137OSM   H13A14783   3.502   4.154   1.902 -0.2803 -0.3599 -1.1901
  137OSM   H13B14784   3.500   3.987   1.907 -1.1763  0.2636 -3.4320
  137OSM   H13C14785   3.584   4.069   1.780  2.0265  2.2124  0.4111
  137OSM    C1214786   3.684   4.084   2.111  0.4779 -0.5782  0.0596
  137OSM   H12A14787   3.627   4.174   2.131  2.8793  0.9154  0.6082
  137OSM   H12B14788   3.780   4.087   2.160 -0.5012 -3.4285  2.4702
  137OSM    C1114789   3.619   3.966   2.178  0.9373  0.8484  0.2085
  137OSM   H11A14790   3.678   3.873   2.193 -0.9304 -0.3952  0.2070
  137OSM   H11B14791   3.529   3.938   2.119  3.1659 -1.5702 -2.3599
  137OSM      P14792   3.641   4.014   2.432  0.1870  0.2999  0.5082
  137OSM    O1314793   3.594   3.892   2.499 -0.4175  0.0745 -0.2888
  137OSM    O1414794   3.789   4.036   2.416  0.5211 -0.0080  0.5113
  137OSM    O1114795   3.585   4.138   2.506  0.3025 -0.8586  0.0128
  137OSM    O1214796   3.564   4.025   2.298 -0.1205 -0.2146 -0.4203
  137OSM    C1S14797   3.467   4.139   2.585  0.5313  0.4781 -0.0284
  137OSM    H1S14798   3.386   4.074   2.545 -0.8778  0.3144  2.8454
  137OSM    H1T14799   3.429   4.243   2.582 -0.1755  0.2249  0.0904
  137OSM     NF14800   3.358   4.084   2.801 -0.2152 -0.9229  0.2466
  137OSM    HNF14801   3.321   4.156   2.859 -0.3812  0.2160 -1.2120
  137OSM    C2S14802   3.491   4.089   2.734 -0.2824 -0.9846 -0.0897
  137OSM    H2S14803   3.533   3.987   2.729  0.9454 -0.4287 -2.6969
  137OSM    C3S14804   3.600   4.173   2.806 -0.0969 -0.1444 -0.4844
  137OSM    H3S14805   3.565   4.279   2.809 -0.0057 -0.0152 -2.3827
  137OSM     O314806   3.721   4.159   2.726 -0.0042  0.0209 -0.1352
  137OSM    HO314807   3.693   4.103   2.654  0.6917 -1.5777  0.7917
  137OSM    C4S14808   3.630   4.119   2.947 -0.1472  0.2450  0.3651
  137OSM    H4S14809   3.708   4.042   2.942  0.0171  0.2989  1.7117
  137OSM    C5S14810   3.588   4.176   3.064  0.3799  0.1952 -0.1970
  137OSM    H5S14811   3.531   4.269   3.048 -0.5573 -0.5731 -1.4255
  137OSM    C6S14812   3.614   4.135   3.204  0.7537 -0.2244 -0.2216
  137OSM    H6S14813   3.524   4.148   3.268  0.7731 -2.5441  0.3982
  137OSM    H6T14814   3.691   4.201   3.249  0.0493  0.6260 -0.2454
  137OSM    C7S14815   3.652   3.983   3.215 -0.6737  0.6750 -0.7262
  137OSM    H7S14816   3.755   3.977   3.175 -1.0090  0.9661 -1.6791
  137OSM    H7T14817   3.587   3.911   3.161 -1.5469 -0.2129  1.4084
  137OSM    C8S14818   3.654   3.940   3.362  0.2588 -0.2856  0.4388
  137OSM    H8S14819   3.680   3.832   3.361  1.3631 -0.0527  1.4257
  137OSM    H8T14820   3.556   3.958   3.411  0.0928 -1.0416  0.4048
  137OSM    C9S14821   3.770   3.974   3.455 -0.2052 -0.3678  0.3647
  137OSM    H9S14822   3.783   4.084   3.466  0.2656 -0.5169  1.4953
  137OSM    H9T14823   3.860   3.928   3.411  2.0495  0.9091  3.3144
  137OSM   C10S14824   3.739   3.922   3.598 -0.4011 -0.1750 -0.0875
  137OSM   H10S14825   3.692   3.821   3.592 -0.1931 -0.2376 -0.6301
  137OSM   H10T14826   3.668   3.991   3.648  0.2483  0.7479 -0.4203
  137OSM   C11S14827   3.867   3.909   3.677  0.5340 -0.3897  0.7820
  137OSM   H11S14828   3.922   4.002   3.655 -0.4114  0.6150  2.4575
  137OSM   H11T14829   3.926   3.821   3.642  0.0364 -0.0409 -1.0206
  137OSM   C12S14830   3.840   3.901   3.828 -0.0515  0.1955 -1.0210
  137OSM   H12S14831   3.937   3.883   3.878 -1.2365 -1.8984  0.7375
  137OSM   H12T14832   3.778   3.810   3.847  0.8470 -0.6719 -2.1220
  137OSM   C13S14833   3.777   4.027   3.894  0.3051 -0.5764 -0.6652
  137OSM   H13S14834   3.669   4.033   3.868 -0.0832  0.1452  1.0182
  137OSM   H13T14835   3.826   4.119   3.856 -1.4657  1.0287  0.7234
  137OSM   C14S14836   3.777   4.012   4.052  0.2173  0.1204 -0.4045
  137OSM   H14S14837   3.810   3.914   4.090  1.3079  1.5111  2.5381
  137OSM   H14T14838   3.672   4.031   4.082  1.3020  2.6077  2.2443
  137OSM   C15S14839   3.853   4.125   4.128 -0.1983 -0.6124 -0.5781
  137OSM   H15S14840   3.806   4.222   4.102 -1.5219 -0.9756  0.3074
  137OSM   H15T14841   3.963   4.121   4.113 -0.0039 -1.6863  0.8514
  137OSM   C16S14842   3.822   4.113   4.279 -1.3870 -0.0935 -0.2323
  137OSM   H16S14843   3.876   4.025   4.320 -1.3050 -0.8981 -1.9767
  137OSM   H16T14844   3.714   4.092   4.295 -1.8856  2.3175 -0.1190
  137OSM   C17S14845   3.862   4.236   4.359  0.0907  0.0363 -0.7689
  137OSM   H17S14846   3.800   4.324   4.332  1.2721  1.2770  0.4050
  137OSM   H17T14847   3.966   4.265   4.335  1.4525 -1.9692  2.0442
  137OSM   C18S14848   3.849   4.213   4.513  0.4135 -0.2011  0.0255
  137OSM   H18S14849   3.741   4.201   4.536  0.2949 -0.8254 -0.8245
  137OSM   H18T14850   3.885   4.308   4.557  1.2522  0.1469 -1.3354
  137OSM   H18U14851   3.911   4.128   4.549 -0.3924 -1.3563 -1.2173
  137OSM    C1F14852   3.275   3.985   2.757 -0.4731 -0.1883  0.3385
  137OSM     OF14853   3.319   3.901   2.678  0.1628 -0.1310 -0.1712
  137OSM    C2F14854   3.135   3.985   2.796 -0.1094 -0.3919 -0.5582
  137OSM    H2F14855   3.071   3.978   2.705  0.4048 -1.6807 -0.8448
  137OSM    H2G14856   3.108   4.080   2.848  0.2883 -1.8460  2.5757
  137OSM    C3F14857   3.097   3.864   2.881 -0.3864 -0.4795 -0.7680
  137OSM    H3F14858   3.127   3.770   2.830 -1.5016 -0.5533 -1.3325
  137OSM    H3G14859   2.986   3.859   2.876 -0.4707  0.1076  0.3302
  137OSM    C4F14860   3.149   3.865   3.025  0.0178  0.7093 -0.1766
  137OSM    H4F14861   3.260   3.870   3.025  0.0739 -0.4295 -0.6473
  137OSM    H4G14862   3.115   3.770   3.071 -0.8542 -0.0651 -2.2811
  137OSM    C5F14863   3.105   3.980   3.120 -0.9120  0.3984  0.5409
  137OSM    H5F14864   2.994   3.974   3.130 -0.6708 -1.1922  2.9762
  137OSM    H5G14865   3.134   4.079   3.078  0.4761 -0.6429 -1.1005
  137OSM    C6F14866   3.173   3.971   3.261 -0.0860  0.1380  0.3423
  137OSM    H6F14867   3.270   4.023   3.245  0.2685 -0.8399 -0.8869
  137OSM    H6G14868   3.184   3.864   3.287 -2.7160 -0.0564  0.8905
  137OSM    C7F14869   3.094   4.044   3.375  0.0972 -0.0622 -0.2879
  137OSM    H7F14870   2.992   4.001   3.366  0.3428 -0.1776 -3.6001
  137OSM    H7G14871   3.092   4.150   3.341 -2.0803 -0.8512 -2.9015
  137OSM    C8F14872   3.146   4.035   3.522 -0.9842 -0.1572 -0.4661
  137OSM    H8F14873   3.151   3.927   3.545  0.2679 -0.0107  0.0262
  137OSM    H8G14874   3.069   4.066   3.595 -0.3164 -1.5107  0.8680
  137OSM    C9F14875   3.277   4.110   3.551  0.7149 -0.0503  1.0420
  137OSM    H9F14876   3.343   4.117   3.464  0.1782 -0.7535  0.5594
  137OSM   C10F14877   3.316   4.180   3.660 -0.0343  0.1361  0.7498
  137OSM   H10F14878   3.423   4.204   3.658  0.9113 -3.4878  0.6126
  137OSM   C11F14879   3.245   4.196   3.788  0.3784  0.5530  0.4375
  137OSM   H11F14880   3.147   4.143   3.782  1.6494 -1.7518 -1.6913
  137OSM   H11G14881   3.213   4.302   3.797 -0.8821  0.1167  1.5318
  137OSM   C12F14882   3.329   4.151   3.904 -0.1596 -0.1245  0.8063
  137OSM   H12F14883   3.426   4.205   3.893  0.1377 -0.8040 -0.1027
  137OSM   H12G14884   3.350   4.042   3.895  2.1853  0.0368  3.1472
  137OSM   C13F14885   3.263   4.191   4.032 -0.7027  0.9080  0.0765
  137OSM   H13F14886   3.165   4.140   4.026  0.1240 -1.0503  1.6733
  137OSM   H13G14887   3.244   4.300   4.031  0.2855  1.0988 -1.9714
  137OSM   C14F14888   3.336   4.140   4.164  0.2562 -0.2645 -1.6469
  137OSM   H14F14889   3.302   4.199   4.252 -0.0002 -2.2920 -0.2948
  137OSM   H14G14890   3.445   4.156   4.165  0.1585  0.6307  0.2609
  137OSM   C15F14891   3.317   3.993   4.193 -0.2718  0.5816  0.2342
  137OSM   H15F14892   3.350   3.942   4.100 -2.3909 -0.6399  0.0927
  137OSM   H15G14893   3.213   3.976   4.227  0.2792 -1.2324  1.1352
  137OSM   C16F14894   3.422   3.949   4.296  0.1116 -0.4895  0.3147
  137OSM   H16F14895   3.523   3.979   4.262 -0.1953  0.6678  0.4024
  137OSM   H16G14896   3.410   3.838   4.294 -0.2471 -0.4724  1.1809
  137OSM   C17F14897   3.387   4.011   4.436  0.2942 -0.8575  0.0972
  137OSM   H17F14898   3.358   4.119   4.433 -1.2481 -1.2675 -1.2293
  137OSM   H17G14899   3.480   4.013   4.497 -0.0094 -0.4301  0.5600
  137OSM   C18F14900   3.284   3.942   4.523 -0.6435 -0.0945  0.1734
  137OSM   H18F14901   3.298   3.971   4.629 -0.2965  0.4439 -0.0135
  137OSM   H18G14902   3.283   3.832   4.515 -2.3596  0.0006 -1.8839
  137OSM   H18H14903   3.180   3.955   4.486 -0.7091  1.8708  0.9097
  138OSM      N14904   0.955   0.009   2.681  0.1287 -0.4333 -0.4151
  138OSM    C1514905   0.923  -0.131   2.648  0.0628  0.2369  0.4959
  138OSM   H15A14906   1.009  -0.179   2.605 -0.5584  1.2575 -2.0356
  138OSM   H15B14907   0.851  -0.120   2.569 -1.4610 -1.3461  1.5748
  138OSM   H15C14908   0.879  -0.185   2.731  2.7480 -2.2796  0.4679
  138OSM    C1414909   1.001   0.088   2.563  0.7685 -1.0567 -1.0445
  138OSM   H14A14910   1.058   0.038   2.486  0.9592  1.1688 -2.4512
  138OSM   H14B14911   1.060   0.168   2.605 -0.7482 -0.9534  1.0347
  138OSM   H14C14912   0.918   0.121   2.501 -0.4755 -1.9654  0.0910
  138OSM    C1314913   0.833   0.075   2.742 -0.0383  0.0514 -0.2455
  138OSM   H13A14914   0.748   0.078   2.675 -0.9503 -0.8607  0.8329
  138OSM   H13B14915   0.865   0.176   2.766 -0.7325  0.5419 -1.2947
  138OSM   H13C14916   0.804   0.017   2.828  0.9699 -0.6866 -0.3811
  138OSM    C1214917   1.072  -0.002   2.788  0.4061 -0.8454 -0.6260
  138OSM   H12A14918   1.156  -0.049   2.739  2.2011  0.0851  1.3987
  138OSM   H12B14919   1.033  -0.069   2.863  1.1170 -0.8360 -0.2432
  138OSM    C1114920   1.127   0.135   2.838  0.0705  0.3374 -0.4044
  138OSM   H11A14921   1.181   0.177   2.751 -2.5747 -0.0637 -2.3288
  138OSM   H11B14922   1.207   0.124   2.916  1.8280  1.8463 -1.8891
  138OSM      P14923   1.027   0.380   2.838 -0.0075  0.0595 -0.5658
  138OSM    O1314924   1.111   0.392   2.715  0.9186 -0.4455  0.0162
  138OSM    O1414925   0.889   0.432   2.830 -0.0542  0.0419 -0.1683
  138OSM    O1114926   1.103   0.451   2.957 -0.1124  0.5894  0.3449
  138OSM    O1214927   1.023   0.228   2.884 -0.1877 -0.1858 -0.2102
  138OSM    C1S14928   1.124   0.403   3.089 -0.4583  0.0770 -0.0662
  138OSM    H1S14929   1.176   0.306   3.100 -1.1136 -0.1622  1.0349
  138OSM    H1T14930   1.026   0.374   3.132 -0.8518  2.4333  0.7507
  138OSM     NF14931   1.211   0.443   3.313 -0.2885  0.3525 -0.1908
  138OSM    HNF14932   1.165   0.485   3.391  2.5205  1.8062  0.8289
  138OSM    C2S14933   1.195   0.506   3.182 -0.2879  0.1790  0.3777
  138OSM    H2S14934   1.296   0.526   3.141 -0.7045  0.1021 -0.7306
  138OSM    C3S14935   1.106   0.638   3.183 -0.2857  0.5073 -0.0437
  138OSM    H3S14936   0.998   0.614   3.195 -0.6521  1.4203 -1.2663
  138OSM     O314937   1.116   0.699   3.054 -0.2379 -0.3641  0.3411
  138OSM    HO314938   1.133   0.628   2.992  0.0103  1.3646 -1.6740
  138OSM    C4S14939   1.148   0.738   3.288 -0.0206  0.6390  0.1907
  138OSM    H4S14940   1.121   0.708   3.391 -1.6767  1.0374 -0.0908
  138OSM    C5S14941   1.223   0.855   3.283 -0.9157  1.4120 -0.7427
  138OSM    H5S14942   1.268   0.891   3.189  0.6986  3.7731  0.8356
  138OSM    C6S14943   1.260   0.947   3.396 -0.0417 -0.2248  0.7389
  138OSM    H6S14944   1.190   1.032   3.382 -1.1863 -0.8194  2.4988
  138OSM    H6T14945   1.367   0.974   3.380 -0.7191  1.1636 -1.9340
  138OSM    C7S14946   1.236   0.891   3.541  0.1181  0.1115  0.9757
  138OSM    H7S14947   1.292   0.797   3.560  0.8020  0.4869  0.8783
  138OSM    H7T14948   1.126   0.878   3.544  0.3224 -2.1793  0.5172
  138OSM    C8S14949   1.276   0.996   3.642  0.9553 -0.2532 -1.1784
  138OSM    H8S14950   1.235   1.096   3.617  1.0829 -0.2731 -1.4627
  138OSM    H8T14951   1.385   1.016   3.642  0.9615 -0.0018  0.8189
  138OSM    C9S14952   1.212   0.973   3.775 -0.6869 -0.0628 -1.1498
  138OSM    H9S14953   1.236   0.870   3.809 -0.3243  0.5608  0.5531
  138OSM    H9T14954   1.103   0.991   3.767 -0.6997  0.6241  0.3560
  138OSM   C10S14955   1.272   1.075   3.882 -0.4404  0.6863  0.1929
  138OSM   H10S14956   1.271   1.177   3.838 -3.1138  0.2055 -1.0833
  138OSM   H10T14957   1.375   1.036   3.895 -0.6023 -0.1478 -0.8565
  138OSM   C11S14958   1.187   1.081   4.010 -0.1492  0.4742  0.2100
  138OSM   H11S14959   1.165   0.973   4.024  1.0927  0.1118 -0.4316
  138OSM   H11T14960   1.091   1.135   3.997  0.5641  1.9633  0.9119
  138OSM   C12S14961   1.248   1.128   4.138 -0.4996 -0.0146  0.0467
  138OSM   H12S14962   1.226   1.237   4.141 -1.2830 -0.1856  0.8893
  138OSM   H12T14963   1.356   1.109   4.120 -0.7232 -0.0737 -1.3911
  138OSM   C13S14964   1.198   1.059   4.256  0.1709  0.5090 -0.8635
  138OSM   H13S14965   1.237   0.955   4.252  0.7916  0.6327  0.8677
  138OSM   H13T14966   1.087   1.065   4.267  0.2705  0.6706  0.1609
  138OSM   C14S14967   1.250   1.122   4.391  0.1888  0.0629 -0.1020
  138OSM   H14S14968   1.219   1.228   4.402  2.6038  0.7936  0.4442
  138OSM   H14T14969   1.361   1.123   4.378  0.2934  1.9373  0.5759
  138OSM   C15S14970   1.230   1.034   4.515  0.0264  0.0948 -0.2020
  138OSM   H15S14971   1.267   0.936   4.477  0.2611 -0.3027  1.0018
  138OSM   H15T14972   1.127   1.011   4.548  0.2499 -1.2937 -0.3724
  138OSM   C16S14973   1.317   1.090   4.633  0.1844  0.3574 -0.0586
  138OSM   H16S14974   1.296   1.200   4.634  1.3344  0.6006 -0.5717
  138OSM   H16T14975   1.422   1.070   4.602 -0.0790 -0.4114 -0.4617
  138OSM   C17S14976   1.285   1.021   4.765 -0.1728 -0.1984 -0.1651
  138OSM   H17S14977   1.365   1.044   4.838 -2.0627  1.6435  1.4627
  138OSM   H17T14978   1.287   0.912   4.744  0.9842 -0.1043 -0.5799
  138OSM   C18S14979   1.157   1.062   4.832 -0.3311  0.3650  0.1073
  138OSM   H18S14980   1.061   1.025   4.791 -1.0429  1.2894  0.8732
  138OSM   H18T14981   1.147   1.173   4.823  0.8946  0.6111  1.3164
  138OSM   H18U14982   1.154   1.036   4.940 -1.9903 -0.7868 -0.1838
  138OSM    C1F14983   1.295   0.341   3.341  0.1128 -0.0241  0.3541
  138OSM     OF14984   1.348   0.276   3.254 -0.0253 -0.3776  0.0624
  138OSM    C2F14985   1.306   0.314   3.483  0.2138 -0.1110 -0.4885
  138OSM    H2F14986   1.211   0.316   3.541  1.1211 -2.1615  1.2187
  138OSM    H2G14987   1.360   0.406   3.514 -1.4256  1.4523 -2.0331
  138OSM    C3F14988   1.383   0.191   3.515 -0.3333 -0.1352 -0.0289
  138OSM    H3F14989   1.485   0.203   3.474 -0.2883 -0.3452  0.0184
  138OSM    H3G14990   1.344   0.100   3.464  0.3963  0.0362 -0.9251
  138OSM    C4F14991   1.377   0.180   3.672 -0.9127 -1.3070 -0.1002
  138OSM    H4F14992   1.269   0.179   3.698 -1.7902  2.0690 -2.9430
  138OSM    H4G14993   1.425   0.274   3.704 -3.3753  0.4990 -1.3751
  138OSM    C5F14994   1.444   0.065   3.741 -0.2131 -0.6417  0.1379
  138OSM    H5F14995   1.554   0.064   3.755 -0.4202 -0.1574  2.2153
  138OSM    H5G14996   1.423  -0.024   3.678 -0.7391  0.1485 -0.8322
  138OSM    C6F14997   1.398   0.041   3.885 -0.8889  0.9194  0.4572
  138OSM    H6F14998   1.437  -0.058   3.917 -1.5412  0.0140 -1.4333
  138OSM    H6G14999   1.287   0.040   3.896 -0.8246  0.9270  1.1727
  138OSM    C7F15000   1.446   0.151   3.985  0.3090 -0.6532 -0.0634
  138OSM    H7F15001   1.389   0.239   3.946 -0.1142 -0.7034  0.4465
  138OSM    H7G15002   1.553   0.181   3.975  0.7201 -2.3477 -1.2335
  138OSM    C8F15003   1.416   0.102   4.127 -0.5546  0.3381 -0.2217
  138OSM    H8F15004   1.467   0.172   4.197  0.8436 -1.0024  0.1449
  138OSM    H8G15005   1.457  -0.001   4.140 -2.1289 -0.5485 -1.9297
  138OSM    C9F15006   1.270   0.105   4.158  0.3301  0.5615  0.1775
  138OSM    H9F15007   1.207   0.042   4.094  0.2879 -0.5646  1.2802
  138OSM   C10F15008   1.212   0.181   4.250  0.2485 -0.3049  0.3650
  138OSM   H10F15009   1.103   0.161   4.252 -0.2985  2.2908  0.1553
  138OSM   C11F15010   1.281   0.283   4.337 -0.2906 -0.3372 -0.1889
  138OSM   H11F15011   1.273   0.386   4.296  0.5250  0.4580  1.5211
  138OSM   H11G15012   1.388   0.266   4.366  0.1496 -0.1282 -1.6319
  138OSM   C12F15013   1.211   0.298   4.474  0.5978 -0.5058 -0.0303
  138OSM   H12F15014   1.108   0.336   4.457  0.0975 -1.2864  1.1416
  138OSM   H12G15015   1.265   0.376   4.533 -2.9517  0.7984  1.7776
  138OSM   C13F15016   1.207   0.168   4.562 -0.0991 -0.1949 -0.1947
  138OSM   H13F15017   1.241   0.196   4.664 -0.4329  0.2017 -0.1937
  138OSM   H13G15018   1.284   0.094   4.529  1.4493  0.6266  1.3816
  138OSM   C14F15019   1.071   0.098   4.574 -0.2632 -0.5047  1.1555
  138OSM   H14F15020   1.049   0.053   4.475  0.1662 -0.2084  0.9203
  138OSM   H14G15021   1.005   0.181   4.606  2.2135  1.4407  1.5044
  138OSM   C15F15022   1.060  -0.013   4.683 -0.6392  0.1240 -0.1473
  138OSM   H15F15023   0.951  -0.013   4.707 -0.3122 -0.7192  1.5102
  138OSM   H15G15024   1.100   0.031   4.778 -0.7712  3.5030 -1.5118
  138OSM   C16F15025   1.083  -0.159   4.641 -0.4796  0.0004  0.1147
  138OSM   H16F15026   1.180  -0.167   4.586 -1.1905  2.1059 -1.5807
  138OSM   H16G15027   1.010  -0.190   4.563  0.4892 -0.7586 -0.5235
  138OSM   C17F15028   1.101  -0.256   4.765 -0.7481  0.1645  0.4639
  138OSM   H17F15029   1.094  -0.361   4.730 -1.0575  0.2434  0.2885
  138OSM   H17G15030   1.018  -0.249   4.839 -0.4585  2.8094  0.6296
  138OSM   C18F15031   1.224  -0.238   4.848 -0.5127 -0.0524  0.3248
  138OSM   H18F15032   1.234  -0.129   4.866  1.5758  0.1728 -1.7359
  138OSM   H18G15033   1.318  -0.265   4.795  1.6827  2.7123  2.4497
  138OSM   H18H15034   1.219  -0.292   4.945  2.3278 -0.2709  0.4489
  139OSM      N15035   4.090   2.608   2.083  0.4915  0.2690  0.2619
  139OSM    C1515036   4.226   2.627   2.024  0.0227  0.5520  0.4250
  139OSM   H15A15037   4.292   2.681   2.090 -0.8074  1.1752  0.7558
  139OSM   H15B15038   4.229   2.679   1.930  3.0220 -1.0631 -0.5068
  139OSM   H15C15039   4.270   2.528   2.017  0.0207  0.5341  0.6572
  139OSM    C1415040   4.030   2.744   2.112 -0.5563 -0.9404 -0.4390
  139OSM   H14A15041   3.997   2.787   2.019  1.9719  0.9974 -0.5711
  139OSM   H14B15042   4.102   2.809   2.161 -1.9100  1.1358 -1.0881
  139OSM   H14C15043   3.945   2.732   2.178 -0.2984  0.2684  0.1404
  139OSM    C1315044   4.013   2.535   1.986  0.5046  0.2751 -0.0064
  139OSM   H13A15045   3.908   2.535   2.012  0.3667 -1.2211 -0.4508
  139OSM   H13B15046   4.041   2.430   1.986  0.2308  0.1949  0.8149
  139OSM   H13C15047   4.016   2.582   1.889 -0.3157 -0.0550 -0.2003
  139OSM    C1215048   4.100   2.537   2.213 -0.4413 -0.4241 -0.4819
  139OSM   H12A15049   4.014   2.488   2.256 -0.5406 -0.2966 -0.5374
  139OSM   H12B15050   4.128   2.602   2.294 -2.4904 -0.9059  0.6838
  139OSM    C1115051   4.209   2.432   2.223 -0.6190  0.4714 -0.3922
  139OSM   H11A15052   4.202   2.369   2.131  0.2190  1.1185 -0.9102
  139OSM   H11B15053   4.178   2.364   2.305  0.3248  0.4875 -0.0020
  139OSM      P15054   4.449   2.406   2.306  0.2159 -0.0922  0.0796
  139OSM    O1315055   4.463   2.283   2.226  0.0095 -0.3035 -0.6022
  139OSM    O1415056   4.563   2.499   2.305 -0.2681 -0.3689 -0.0286
  139OSM    O1115057   4.428   2.363   2.454 -0.4884  0.3528  0.3545
  139OSM    O1215058   4.335   2.491   2.255 -0.0802 -0.1692  0.0299
  139OSM    C1S15059   4.360   2.247   2.489  0.4320 -0.3640  0.7697
  139OSM    H1S15060   4.386   2.158   2.428 -2.2213 -0.0975 -0.9104
  139OSM    H1T15061   4.249   2.255   2.488  0.2640 -0.9658  3.6921
  139OSM     NF15062   4.368   2.078   2.668 -0.9766  0.7567 -0.1694
  139OSM    HNF15063   4.287   2.064   2.725  0.0376 -1.7194  0.8156
  139OSM    C2S15064   4.388   2.216   2.638 -0.4686  0.1526 -0.0428
  139OSM    H2S15065   4.498   2.230   2.642 -0.4100 -0.1553 -0.4347
  139OSM    C3S15066   4.302   2.316   2.719  0.1982 -0.5336 -0.3052
  139OSM    H3S15067   4.202   2.274   2.695  0.6351 -0.8305 -1.7563
  139OSM     O315068   4.295   2.449   2.664  0.0078 -0.4711 -0.2296
  139OSM    HO315069   4.343   2.435   2.582  1.0756  0.7972  0.1591
  139OSM    C4S15070   4.342   2.314   2.863 -0.0011 -0.0701  0.2636
  139OSM    H4S15071   4.285   2.244   2.927  1.5849 -1.2620  0.4157
  139OSM    C5S15072   4.422   2.398   2.928 -0.0046  0.0555 -0.2317
  139OSM    H5S15073   4.471   2.477   2.870  0.6181  1.5636  2.1646
  139OSM    C6S15074   4.454   2.392   3.076  0.1966 -0.1507 -0.0607
  139OSM    H6S15075   4.408   2.477   3.131  0.8946  1.2338 -1.5211
  139OSM    H6T15076   4.562   2.409   3.097  0.5803 -1.4155 -0.8819
  139OSM    C7S15077   4.407   2.267   3.158  0.2303 -0.3952 -0.2418
  139OSM    H7S15078   4.475   2.188   3.120  0.7181  0.1008 -0.4257
  139OSM    H7T15079   4.299   2.248   3.140 -0.2506  1.4261  0.4667
  139OSM    C8S15080   4.435   2.270   3.301 -0.2388 -0.2182  0.2123
  139OSM    H8S15081   4.546   2.280   3.309 -0.5142  2.4926  1.4586
  139OSM    H8T15082   4.398   2.175   3.346 -2.2197  0.6964  0.6287
  139OSM    C9S15083   4.361   2.384   3.381 -0.5443  0.3538 -0.0657
  139OSM    H9S15084   4.254   2.384   3.351 -0.8660 -1.0553  0.9557
  139OSM    H9T15085   4.393   2.486   3.353 -2.6729  1.2314  0.5441
  139OSM   C10S15086   4.359   2.367   3.528  0.1476  0.5647  0.0391
  139OSM   H10S15087   4.453   2.365   3.587 -1.2490 -0.0571  2.3486
  139OSM   H10T15088   4.318   2.265   3.540 -1.3821  1.3512  2.0909
  139OSM   C11S15089   4.267   2.464   3.594  0.1560 -0.1845 -0.1044
  139OSM   H11S15090   4.164   2.446   3.557 -0.4165  1.2808  0.6862
  139OSM   H11T15091   4.300   2.566   3.565 -1.7142  0.2073 -1.0097
  139OSM   C12S15092   4.279   2.469   3.751  0.9233 -0.1156  0.0332
  139OSM   H12S15093   4.382   2.503   3.772  1.7618 -1.2569 -1.9721
  139OSM   H12T15094   4.274   2.362   3.779 -1.3052 -0.6945 -2.2050
  139OSM   C13S15095   4.178   2.556   3.825 -0.4091 -0.9843 -0.5909
  139OSM   H13S15096   4.072   2.524   3.814 -0.2816 -1.0832 -1.7081
  139OSM   H13T15097   4.195   2.658   3.785 -0.9352 -0.1718  1.1928
  139OSM   C14S15098   4.184   2.562   3.976 -0.0268 -0.2863 -0.3599
  139OSM   H14S15099   4.124   2.479   4.018 -1.0460  0.3659 -0.4834
  139OSM   H14T15100   4.138   2.661   3.999 -0.1182 -0.3978 -0.0575
  139OSM   C15S15101   4.329   2.552   4.047  0.0899 -0.3018 -0.0287
  139OSM   H15S15102   4.388   2.641   4.016  0.1223 -0.9353 -1.9478
  139OSM   H15T15103   4.376   2.462   4.002 -0.1464 -0.5614  0.2398
  139OSM   C16S15104   4.324   2.556   4.202 -0.2660  0.7124  0.2217
  139OSM   H16S15105   4.257   2.473   4.235  1.7790 -1.3525 -0.4778
  139OSM   H16T15106   4.270   2.645   4.239 -0.8807 -0.4269  2.2505
  139OSM   C17S15107   4.466   2.529   4.258  0.2250  0.3394 -0.4203
  139OSM   H17S15108   4.534   2.606   4.216  0.1471  0.0358 -1.1235
  139OSM   H17T15109   4.494   2.426   4.225 -1.2530 -0.5525  0.9914
  139OSM   C18S15110   4.468   2.533   4.411 -0.2719  0.2982  0.2236
  139OSM   H18S15111   4.379   2.480   4.453  0.4274 -1.1438 -0.0506
  139OSM   H18T15112   4.456   2.635   4.453  0.3064 -0.0663  1.3203
  139OSM   H18U15113   4.552   2.478   4.458 -1.2760  0.5686  2.4902
  139OSM    C1F15114   4.454   1.976   2.638  0.8749 -0.0536 -0.7663
  139OSM     OF15115   4.551   1.991   2.567 -0.1387  0.1915 -0.1904
  139OSM    C2F15116   4.425   1.839   2.693  0.0594  0.0135  0.4198
  139OSM    H2F15117   4.437   1.762   2.613  2.5158  0.3546  0.3831
  139OSM    H2G15118   4.319   1.833   2.726  0.0669  1.2242  0.7018
  139OSM    C3F15119   4.525   1.805   2.808 -0.8582  0.3901  0.1062
  139OSM    H3F15120   4.631   1.827   2.779 -0.3857 -0.2183  1.3170
  139OSM    H3G15121   4.519   1.696   2.826 -0.8241  0.6285  1.6299
  139OSM    C4F15122   4.500   1.880   2.941  0.3935  0.1487  0.8915
  139OSM    H4F15123   4.402   1.859   2.987  0.2598  0.1152  0.5949
  139OSM    H4G15124   4.501   1.989   2.919  1.1634 -0.0551 -0.2372
  139OSM    C5F15125   4.611   1.849   3.041 -0.6223  0.4487  0.3230
  139OSM    H5F15126   4.714   1.875   3.009 -0.1042 -1.2039  0.5207
  139OSM    H5G15127   4.614   1.738   3.054  2.1534  0.5078  0.7508
  139OSM    C6F15128   4.564   1.903   3.178  0.2240 -0.4971 -0.1873
  139OSM    H6F15129   4.461   1.874   3.208  0.1634  0.9868  1.1537
  139OSM    H6G15130   4.573   2.013   3.186 -1.5050 -0.2262 -1.3634
  139OSM    C7F15131   4.661   1.834   3.285  0.3415  0.0937 -0.2414
  139OSM    H7F15132   4.770   1.845   3.270  0.1663 -0.1391 -1.8919
  139OSM    H7G15133   4.649   1.723   3.284  0.9120  0.0290 -0.7480
  139OSM    C8F15134   4.615   1.870   3.427 -0.0545  0.3172 -0.0052
  139OSM    H8F15135   4.671   1.803   3.496 -2.2751 -1.2165  0.3996
  139OSM    H8G15136   4.506   1.856   3.444  0.2011  0.4814  1.9853
  139OSM    C9F15137   4.644   2.009   3.468 -0.1200 -0.5156  0.3962
  139OSM    H9F15138   4.683   2.076   3.390  0.4359  0.7460  1.7096
  139OSM   C10F15139   4.664   2.068   3.584 -0.5777  0.6556 -1.1167
  139OSM   H10F15140   4.714   2.166   3.583 -0.5209  0.6300 -0.7938
  139OSM   C11F15141   4.650   2.005   3.720  0.5862  0.9195  0.0483
  139OSM   H11F15142   4.747   1.962   3.753  0.7058 -1.6481 -3.1659
  139OSM   H11G15143   4.569   1.931   3.708  0.9634  0.2954  1.2083
  139OSM   C12F15144   4.625   2.106   3.839  0.1150  0.6998 -0.7472
  139OSM   H12F15145   4.589   2.048   3.926 -0.5083  1.8203 -0.2470
  139OSM   H12G15146   4.547   2.181   3.816  0.2626  0.6633 -1.3857
  139OSM   C13F15147   4.751   2.179   3.895  0.9817 -0.3285 -0.7614
  139OSM   H13F15148   4.718   2.276   3.939 -1.0878  0.6597 -4.0908
  139OSM   H13G15149   4.797   2.224   3.804 -1.7573  1.5991 -1.3477
  139OSM   C14F15150   4.842   2.091   3.983 -0.0587  0.5922 -0.2824
  139OSM   H14F15151   4.900   2.021   3.918  0.5026  1.2776 -0.5313
  139OSM   H14G15152   4.790   2.015   4.045  0.9355  1.9649  2.3648
  139OSM   C15F15153   4.943   2.163   4.075 -0.7696  0.0190  0.4512
  139OSM   H15F15154   4.990   2.245   4.016 -0.6702  0.6905  1.4440
  139OSM   H15G15155   5.025   2.090   4.095  0.3904  0.7510 -1.3862
  139OSM   C16F15156   4.889   2.207   4.210 -0.0088 -0.0166 -0.2305
  139OSM   H16F15157   4.842   2.307   4.194  2.6054  1.3447  0.0217
  139OSM   H16G15158   4.976   2.223   4.277  1.2060 -1.3384 -1.4356
  139OSM   C17F15159   4.789   2.114   4.283 -0.3771 -0.9568  0.2213
  139OSM   H17F15160   4.838   2.030   4.336  1.3267 -1.0571 -1.3856
  139OSM   H17G15161   4.717   2.073   4.209 -0.8370 -1.0453  0.7139
  139OSM   C18F15162   4.710   2.187   4.384 -0.4899 -0.2036 -0.3772
  139OSM   H18F15163   4.764   2.244   4.464 -3.5653 -0.2758  1.9373
  139OSM   H18G15164   4.650   2.114   4.442 -0.0224  0.3139  0.7994
  139OSM   H18H15165   4.637   2.259   4.342 -2.0004 -0.0695  2.2431
  140OSM      N15166   2.420   0.435   2.747 -0.0302 -0.5644 -0.4029
  140OSM    C1515167   2.467   0.462   2.887 -0.2731 -0.0116  0.0743
  140OSM   H15A15168   2.388   0.447   2.959  0.4373 -2.0101  0.5056
  140OSM   H15B15169   2.526   0.552   2.887  2.6417 -1.7764 -0.0168
  140OSM   H15C15170   2.546   0.397   2.922 -1.5190 -2.2592 -1.0912
  140OSM    C1415171   2.297   0.515   2.723 -0.0632  0.1673 -0.6027
  140OSM   H14A15172   2.213   0.492   2.787  0.0719 -0.9631 -0.8244
  140OSM   H14B15173   2.254   0.491   2.627 -3.0118 -0.4063  0.7609
  140OSM   H14C15174   2.319   0.621   2.719 -1.2513  0.4638  0.0925
  140OSM    C1315175   2.529   0.480   2.650  0.7337 -0.7012  0.2239
  140OSM   H13A15176   2.555   0.583   2.666  2.3321 -1.0433  0.0490
  140OSM   H13B15177   2.502   0.486   2.546  2.2818 -0.2270 -0.1845
  140OSM   H13C15178   2.614   0.413   2.658  1.1251 -0.2309  0.0793
  140OSM    C1215179   2.384   0.291   2.735 -0.5406  0.9155 -0.0895
  140OSM   H12A15180   2.352   0.269   2.634  1.6496 -2.4183 -0.2269
  140OSM   H12B15181   2.296   0.267   2.794  0.0457 -0.2558  0.3481
  140OSM    C1115182   2.491   0.176   2.778 -0.9436 -0.2786 -0.4093
  140OSM   H11A15183   2.446   0.079   2.749 -1.7929  0.0198 -0.1136
  140OSM   H11B15184   2.495   0.187   2.888 -2.3653  0.6170 -0.4300
  140OSM      P15185   2.751   0.165   2.794 -0.4632  0.3930 -0.0936
  140OSM    O1315186   2.763   0.023   2.838  0.2446 -0.0719 -0.8796
  140OSM    O1415187   2.861   0.224   2.721 -0.3060  0.1737  0.5225
  140OSM    O1115188   2.728   0.257   2.924 -0.2828 -0.0416  0.3558
  140OSM    O1215189   2.619   0.194   2.710  0.3938  0.5927 -0.2471
  140OSM    C1S15190   2.819   0.231   3.035 -0.1528  0.0765  0.6168
  140OSM    H1S15191   2.920   0.263   3.001 -0.2693 -0.4983 -0.3193
  140OSM    H1T15192   2.827   0.122   3.056  0.6558  0.2036  1.0036
  140OSM     NF15193   2.902   0.286   3.254 -0.1817  0.4071  0.8058
  140OSM    HNF15194   2.898   0.209   3.317  2.1937 -1.6642 -1.3916
  140OSM    C2S15195   2.786   0.297   3.175 -0.6090  0.4691 -0.1319
  140OSM    H2S15196   2.773   0.406   3.157 -2.6741 -0.0322 -2.3999
  140OSM    C3S15197   2.656   0.247   3.233  0.3886  0.0029 -0.6225
  140OSM    H3S15198   2.660   0.137   3.244 -1.7632 -0.6436 -4.5687
  140OSM     O315199   2.548   0.259   3.143 -0.2649  0.1038  0.2575
  140OSM    HO315200   2.586   0.275   3.056  1.4023  0.2916  0.9838
  140OSM    C4S15201   2.615   0.311   3.362  0.0967 -0.3844  0.5461
  140OSM    H4S15202   2.557   0.402   3.337  0.2725 -1.0440 -2.5741
  140OSM    C5S15203   2.608   0.257   3.478  0.1412  0.4253  0.0454
  140OSM    H5S15204   2.650   0.156   3.488 -1.0004  0.1525  3.2358
  140OSM    C6S15205   2.545   0.323   3.597 -0.2984  0.2432 -1.3175
  140OSM    H6S15206   2.452   0.266   3.616 -0.5083  0.5286 -1.4936
  140OSM    H6T15207   2.515   0.429   3.581 -1.0388 -0.0648 -2.0724
  140OSM    C7S15208   2.643   0.311   3.723 -0.4221  0.1243  0.5172
  140OSM    H7S15209   2.735   0.371   3.711 -0.1243 -0.5332 -0.6733
  140OSM    H7T15210   2.654   0.201   3.734 -2.5179 -0.1982 -0.1052
  140OSM    C8S15211   2.568   0.362   3.843 -0.2590  0.3220 -0.0613
  140OSM    H8S15212   2.472   0.306   3.854 -0.0338  0.2737  2.0956
  140OSM    H8T15213   2.535   0.468   3.836 -1.1560  0.3836  3.3902
  140OSM    C9S15214   2.662   0.338   3.971  0.4883 -0.5910  0.1897
  140OSM    H9S15215   2.760   0.390   3.974 -0.0783  0.4981  0.3762
  140OSM    H9T15216   2.696   0.232   3.968  0.5473 -0.5478 -0.7488
  140OSM   C10S15217   2.589   0.369   4.103 -0.6156 -0.4661 -0.5840
  140OSM   H10S15218   2.504   0.302   4.124  1.3475 -2.2288  2.5688
  140OSM   H10T15219   2.554   0.474   4.106 -1.5744 -0.7978  1.2919
  140OSM   C11S15220   2.683   0.369   4.228  0.4847  0.3581 -0.2965
  140OSM   H11S15221   2.763   0.445   4.220  0.9851  0.1373  2.0857
  140OSM   H11T15222   2.728   0.268   4.238 -2.7571 -1.1789  0.3517
  140OSM   C12S15223   2.610   0.385   4.366 -0.1818  0.2843 -0.5309
  140OSM   H12S15224   2.537   0.302   4.381  0.1535  0.1021  0.1018
  140OSM   H12T15225   2.566   0.485   4.385  1.6435  0.8506  0.9205
  140OSM   C13S15226   2.718   0.374   4.470  0.1204  0.1086  0.4886
  140OSM   H13S15227   2.793   0.456   4.463 -1.3301  1.4198 -0.3379
  140OSM   H13T15228   2.771   0.279   4.448  2.0737  1.4270 -0.8578
  140OSM   C14S15229   2.678   0.359   4.609 -0.2209 -0.0686 -0.8851
  140OSM   H14S15230   2.760   0.339   4.681 -0.7481  1.8820  0.3503
  140OSM   H14T15231   2.594   0.287   4.621  0.1736 -0.1006  3.0559
  140OSM   C15S15232   2.622   0.489   4.666 -0.0768  0.3301 -0.4543
  140OSM   H15S15233   2.522   0.516   4.626 -1.1250 -3.9751 -1.2368
  140OSM   H15T15234   2.693   0.575   4.661  1.1888 -0.6383  0.0214
  140OSM   C16S15235   2.601   0.484   4.822  0.6119  0.2269 -0.2474
  140OSM   H16S15236   2.548   0.388   4.838  1.0346 -0.3304 -1.9760
  140OSM   H16T15237   2.534   0.569   4.847  2.7200  1.9127 -0.1404
  140OSM   C17S15238   2.729   0.489   4.900  0.8291  0.5571  0.1718
  140OSM   H17S15239   2.764   0.592   4.877  0.6287  0.7861  0.8826
  140OSM   H17T15240   2.798   0.407   4.871  0.1191 -0.2145  0.6163
  140OSM   C18S15241   2.696   0.467   5.046 -0.5391 -0.1820 -0.1359
  140OSM   H18S15242   2.650   0.368   5.067  0.2080 -0.4841  0.1068
  140OSM   H18T15243   2.634   0.547   5.092 -3.0170 -2.4863  0.7957
  140OSM   H18U15244   2.794   0.467   5.100 -0.2149 -2.0785 -0.6275
  140OSM    C1F15245   3.016   0.355   3.254  0.7338  0.4039  0.2097
  140OSM     OF15246   3.047   0.428   3.159  0.2228  0.0435  0.1217
  140OSM    C2F15247   3.103   0.348   3.379  0.2340 -1.5677  1.6199
  140OSM    H2F15248   3.183   0.425   3.370 -2.3210  1.0621 -0.8389
  140OSM    H2G15249   3.154   0.250   3.379 -1.4930 -2.5047  2.0628
  140OSM    C3F15250   3.032   0.370   3.515  0.0729 -0.0941 -0.1442
  140OSM    H3F15251   2.943   0.305   3.528 -1.1770  1.0267 -2.4092
  140OSM    H3G15252   2.981   0.468   3.504  0.1621  0.0782  0.9332
  140OSM    C4F15253   3.130   0.366   3.634  0.1139 -0.1677 -0.4645
  140OSM    H4F15254   3.212   0.439   3.617  0.3641 -0.9377 -2.9222
  140OSM    H4G15255   3.174   0.264   3.639  1.9790  0.6023 -0.4154
  140OSM    C5F15256   3.050   0.394   3.766 -0.4394 -0.6964  0.3190
  140OSM    H5F15257   2.964   0.326   3.756  0.1260 -1.4441  0.4734
  140OSM    H5G15258   3.003   0.495   3.762 -1.3837 -0.8847  3.8238
  140OSM    C6F15259   3.138   0.372   3.894  0.1953  0.3833  0.1599
  140OSM    H6F15260   3.233   0.422   3.867  2.7610 -3.4585  1.3518
  140OSM    H6G15261   3.162   0.267   3.921 -2.3008 -0.4277 -0.5129
  140OSM    C7F15262   3.087   0.440   4.022  0.0008 -0.3497 -0.2047
  140OSM    H7F15263   2.982   0.410   4.039  0.0901 -0.9633 -0.6689
  140OSM    H7G15264   3.077   0.547   3.996  0.5964  0.2650  1.8984
  140OSM    C8F15265   3.159   0.414   4.160  0.3320  0.6110  0.4795
  140OSM    H8F15266   3.270   0.403   4.154  0.1507 -1.5759  0.4079
  140OSM    H8G15267   3.131   0.312   4.192  1.2996 -0.7598 -2.6513
  140OSM    C9F15268   3.121   0.530   4.249 -0.0163 -0.1727 -0.0421
  140OSM    H9F15269   3.116   0.626   4.197 -0.6994  0.0155  0.3583
  140OSM   C10F15270   3.108   0.513   4.385  0.1065 -0.0326 -0.2114
  140OSM   H10F15271   3.064   0.599   4.438 -0.9303 -0.1506 -0.8512
  140OSM   C11F15272   3.113   0.385   4.459 -0.2816  0.1415  0.0537
  140OSM   H11F15273   3.171   0.312   4.400 -0.0318 -1.5283  2.2177
  140OSM   H11G15274   3.009   0.345   4.469  0.0221 -0.9473 -0.9811
  140OSM   C12F15275   3.187   0.409   4.599 -0.1838 -0.6754 -0.1776
  140OSM   H12F15276   3.142   0.491   4.660  2.2567 -0.1588  1.0497
  140OSM   H12G15277   3.289   0.450   4.585  0.1358  0.0742  3.3132
  140OSM   C13F15278   3.202   0.286   4.692  0.5376  0.6510  0.4919
  140OSM   H13F15279   3.264   0.201   4.656  0.5721  0.1965  1.5785
  140OSM   H13G15280   3.096   0.255   4.695  1.0878 -1.7493 -1.5353
  140OSM   C14F15281   3.244   0.326   4.839  0.1907 -0.2944  0.4709
  140OSM   H14F15282   3.181   0.404   4.887 -0.6901 -0.1089 -0.9346
  140OSM   H14G15283   3.346   0.370   4.831 -0.4802  1.4825  1.1845
  140OSM   C15F15284   3.235   0.205   4.938 -0.3019 -0.0933 -0.2524
  140OSM   H15F15285   3.305   0.223   5.023 -0.1334 -2.0920  0.0872
  140OSM   H15G15286   3.273   0.109   4.897  0.0853  0.6794 -1.7762
  140OSM   C16F15287   3.089   0.184   4.998 -0.8227  0.2537  0.6588
  140OSM   H16F15288   3.022   0.182   4.910  1.2398 -0.1432 -0.9692
  140OSM   H16G15289   3.081   0.272   5.066  0.7325  1.5314 -0.7120
  140OSM   C17F15290   3.084   0.057   5.085 -0.8301 -0.5703 -0.0586
  140OSM   H17F15291   2.987   0.071   5.138  0.6629  0.8107  2.5261
  140OSM   H17G15292   3.163   0.077   5.161 -1.4491  1.2299  0.1697
  140OSM   C18F15293   3.100  -0.080   5.012 -0.4697  0.1233  0.1926
  140OSM   H18F15294   3.116  -0.166   5.081  3.9594 -1.5174 -2.4691
  140OSM   H18G15295   3.187  -0.083   4.943 -1.2330 -0.9010 -0.7554
  140OSM   H18H15296   3.013  -0.101   4.946  1.0641 -0.4203 -1.7541
  141OSM      N15297   3.530   4.888   2.469  0.4857  0.1115 -0.1061
  141OSM    C1515298   3.645   4.917   2.386  0.4575 -0.2568  0.3229
  141OSM   H15A15299   3.712   4.995   2.419  1.3629  0.7879 -3.4472
  141OSM   H15B15300   3.616   4.956   2.290 -0.9076  0.6234  1.0698
  141OSM   H15C15301   3.705   4.829   2.367 -0.0965 -1.6019  4.0373
  141OSM    C1415302   3.583   4.846   2.599  0.4951 -0.2781 -0.2877
  141OSM   H14A15303   3.498   4.816   2.659 -0.0707 -0.6624 -1.2661
  141OSM   H14B15304   3.641   4.930   2.632  1.6729 -1.6737  1.3647
  141OSM   H14C15305   3.649   4.761   2.597 -0.4669 -1.0292 -2.2290
  141OSM    C1315306   3.458   5.019   2.494  0.0583 -0.2723 -0.1704
  141OSM   H13A15307   3.516   5.097   2.540 -1.3240  0.8610 -0.2722
  141OSM   H13B15308   3.370   5.009   2.556 -2.9167 -0.2287 -4.0071
  141OSM   H13C15309   3.438   5.053   2.393  1.0705 -2.0827 -1.0444
  141OSM    C1215310   3.443   4.773   2.421  0.2826 -0.0340  0.7441
  141OSM   H12A15311   3.503   4.683   2.424 -0.1157 -0.2912  3.2604
  141OSM   H12B15312   3.422   4.789   2.317  0.7027 -1.5552  0.4040
  141OSM    C1115313   3.311   4.746   2.499 -0.0235 -0.4759  0.2201
  141OSM   H11A15314   3.246   4.669   2.451 -1.3226  0.5075  0.3144
  141OSM   H11B15315   3.256   4.843   2.505  2.8675  1.1658  2.9800
  141OSM      P15316   3.395   4.564   2.659  0.0875 -0.3706  0.4307
  141OSM    O1315317   3.450   4.512   2.531  0.6027 -0.3625  0.1322
  141OSM    O1415318   3.477   4.576   2.776  0.3072 -0.2939  0.3926
  141OSM    O1115319   3.278   4.469   2.689 -0.4417  0.0141  0.2869
  141OSM    O1215320   3.337   4.707   2.635 -0.4452 -0.3106 -0.1898
  141OSM    C1S15321   3.152   4.516   2.744 -0.0863  0.3481  0.6032
  141OSM    H1S15322   3.075   4.440   2.719  2.0577 -0.8899 -3.0418
  141OSM    H1T15323   3.114   4.609   2.696  0.3804  0.2830  0.0995
  141OSM     NF15324   3.215   4.665   2.952  0.4320  0.1549  0.1406
  141OSM    HNF15325   3.306   4.653   2.988  0.9971  0.6009 -1.0669
  141OSM    C2S15326   3.152   4.543   2.900  0.0356 -0.1496  0.1448
  141OSM    H2S15327   3.043   4.546   2.921  0.1736 -1.8163  1.3029
  141OSM    C3S15328   3.214   4.421   2.976  0.1683 -0.4590  0.2876
  141OSM    H3S15329   3.325   4.422   2.975  0.1621 -0.1655  0.0411
  141OSM     O315330   3.189   4.297   2.923 -0.4742  0.3373  0.1946
  141OSM    HO315331   3.113   4.315   2.868 -1.3344  1.6783  1.7070
  141OSM    C4S15332   3.169   4.418   3.116 -0.6103  0.3122  0.2835
  141OSM    H4S15333   3.059   4.416   3.130 -0.5051 -0.0510  1.1088
  141OSM    C5S15334   3.251   4.425   3.230  0.3958 -0.1679  0.2665
  141OSM    H5S15335   3.356   4.452   3.212  0.4549 -1.3630 -1.4403
  141OSM    C6S15336   3.196   4.436   3.373  0.2608 -0.1503 -0.0786
  141OSM    H6S15337   3.238   4.378   3.457 -0.5480  3.0524  2.7891
  141OSM    H6T15338   3.088   4.410   3.379 -0.1835  0.0998 -4.0218
  141OSM    C7S15339   3.231   4.581   3.420  1.0503 -0.0086  0.0250
  141OSM    H7S15340   3.208   4.653   3.339 -0.3242  0.6738  0.9876
  141OSM    H7T15341   3.340   4.596   3.434  1.4772 -1.1153 -1.7441
  141OSM    C8S15342   3.142   4.625   3.541  0.1671 -0.5852  0.1105
  141OSM    H8S15343   3.032   4.624   3.525  0.2695  0.9868 -0.9228
  141OSM    H8T15344   3.143   4.735   3.556 -1.0593 -0.4489 -0.6107
  141OSM    C9S15345   3.180   4.565   3.678  0.2805  0.7863  0.3723
  141OSM    H9S15346   3.289   4.570   3.697  0.2214 -0.5913  1.2550
  141OSM    H9T15347   3.143   4.460   3.669 -1.2500  1.4007 -1.0433
  141OSM   C10S15348   3.107   4.647   3.789 -0.9209 -0.0088  0.7526
  141OSM   H10S15349   3.001   4.657   3.759 -0.7333 -2.3715 -0.9227
  141OSM   H10T15350   3.149   4.750   3.795  2.1691 -1.0285 -0.8936
  141OSM   C11S15351   3.124   4.587   3.928 -0.3294  0.3726  0.2920
  141OSM   H11S15352   3.232   4.572   3.951 -0.3098  1.0797  0.7009
  141OSM   H11T15353   3.078   4.486   3.925  0.8338 -0.1790  0.4159
  141OSM   C12S15354   3.052   4.667   4.035 -0.6758 -0.5659  0.2413
  141OSM   H12S15355   2.942   4.656   4.033 -0.8297 -0.4782  3.3967
  141OSM   H12T15356   3.067   4.773   4.007 -4.1446 -0.7323 -2.9880
  141OSM   C13S15357   3.092   4.605   4.169  0.3622  0.0918 -0.0557
  141OSM   H13S15358   3.201   4.599   4.190 -0.2233  0.8955  3.8333
  141OSM   H13T15359   3.064   4.498   4.174 -0.4938  0.1488 -2.2569
  141OSM   C14S15360   3.028   4.680   4.290  1.1923 -0.6878 -0.5522
  141OSM   H14S15361   2.918   4.673   4.277  0.7719  1.2027  1.3709
  141OSM   H14T15362   3.046   4.789   4.281 -2.2794  0.1578  1.1688
  141OSM   C15S15363   3.040   4.624   4.428  0.1382 -0.0736 -0.5005
  141OSM   H15S15364   3.147   4.637   4.452 -0.0975 -0.9033  1.1871
  141OSM   H15T15365   3.021   4.515   4.441  0.2600 -0.1268 -0.7839
  141OSM   C16S15366   2.958   4.708   4.532  0.5534  0.1656  0.1316
  141OSM   H16S15367   2.855   4.704   4.490 -0.1880 -0.0606  1.8963
  141OSM   H16T15368   2.988   4.815   4.525 -1.1100  0.5590 -3.2368
  141OSM   C17S15369   2.961   4.663   4.679 -0.5235  0.1239  0.1373
  141OSM   H17S15370   2.904   4.568   4.691 -0.4031  0.0447  0.0817
  141OSM   H17T15371   2.920   4.741   4.746 -1.8038 -0.5276  0.1441
  141OSM   C18S15372   3.106   4.635   4.727  0.0236 -0.5191  0.0934
  141OSM   H18S15373   3.099   4.595   4.830 -2.6532 -3.0224 -0.9111
  141OSM   H18T15374   3.176   4.721   4.729  2.1230 -2.1072 -0.6480
  141OSM   H18U15375   3.141   4.544   4.672 -1.8455 -1.2473  0.0168
  141OSM    C1F15376   3.177   4.787   2.919  0.1205 -0.2076 -0.4006
  141OSM     OF15377   3.076   4.804   2.859  0.2513  0.4179 -0.5729
  141OSM    C2F15378   3.261   4.906   2.954  1.4682 -0.2713 -0.1611
  141OSM    H2F15379   3.341   4.913   2.877 -0.0196 -0.1567 -1.7552
  141OSM    H2G15380   3.321   4.873   3.042 -1.0986 -1.8255  1.1061
  141OSM    C3F15381   3.188   5.046   2.978 -0.3257  0.0308  0.8277
  141OSM    H3F15382   3.131   5.078   2.888  1.9517 -1.4411 -1.2706
  141OSM    H3G15383   3.260   5.122   3.013 -0.2249  0.0446  0.5951
  141OSM    C4F15384   3.090   5.037   3.096 -0.0206  0.0458  0.2030
  141OSM    H4F15385   3.015   4.955   3.085 -0.3765  0.2636  0.9610
  141OSM    H4G15386   3.041   5.136   3.102 -0.8489 -0.4283  2.1227
  141OSM    C5F15387   3.154   5.006   3.234  0.5922 -0.0891  0.7248
  141OSM    H5F15388   3.234   5.077   3.262 -0.7853  1.9192 -0.1925
  141OSM    H5G15389   3.188   4.901   3.222 -0.3706 -0.4092  0.7415
  141OSM    C6F15390   3.045   4.994   3.346  0.6134 -0.4385 -0.2044
  141OSM    H6F15391   3.087   4.922   3.420  1.5677 -1.9987 -2.1535
  141OSM    H6G15392   2.953   4.949   3.303 -1.2705 -0.0752  3.0791
  141OSM    C7F15393   2.994   5.131   3.392 -0.2619  0.0758 -0.0553
  141OSM    H7F15394   2.936   5.178   3.310 -0.5250  1.7138  1.0338
  141OSM    H7G15395   3.081   5.192   3.422 -0.5638  1.1509 -1.2679
  141OSM    C8F15396   2.894   5.124   3.512  0.1942 -0.1586  0.2141
  141OSM    H8F15397   2.804   5.074   3.473 -0.9981  2.0622 -0.0566
  141OSM    H8G15398   2.850   5.221   3.544 -0.1249 -1.3037  3.6497
  141OSM    C9F15399   2.956   5.052   3.621 -0.6128 -1.2552  0.1324
  141OSM    H9F15400   2.979   4.946   3.605 -0.2456 -1.0897 -0.4849
  141OSM   C10F15401   2.995   5.118   3.736 -0.0303  0.2482 -0.5280
  141OSM   H10F15402   3.019   5.055   3.823  0.7262  0.2598 -0.7245
  141OSM   C11F15403   2.984   5.266   3.760 -0.3534  0.3800  0.5629
  141OSM   H11F15404   2.992   5.322   3.664  2.2488 -1.7955 -0.6102
  141OSM   H11G15405   3.070   5.302   3.821  1.0676  0.2232 -1.2612
  141OSM   C12F15406   2.857   5.290   3.850 -0.2283  0.2358 -0.5620
  141OSM   H12F15407   2.766   5.239   3.812 -1.0593  0.5305  0.9743
  141OSM   H12G15408   2.841   5.400   3.853  0.4014  0.4195 -2.5879
  141OSM   C13F15409   2.857   5.228   3.993  0.3945  0.2219 -0.0083
  141OSM   H13F15410   2.851   5.121   3.966  0.6241  0.5275 -1.3528
  141OSM   H13G15411   2.762   5.254   4.044  0.0690 -0.1197 -0.4419
  141OSM   C14F15412   2.987   5.243   4.076 -0.1908  0.0415  0.2843
  141OSM   H14F15413   2.999   5.347   4.113  1.3146  0.6169 -1.6885
  141OSM   H14G15414   3.071   5.228   4.006 -0.8621  1.4381 -0.8680
  141OSM   C15F15415   2.992   5.147   4.189 -0.6748  1.2935  0.0217
  141OSM   H15F15416   3.085   5.151   4.250  0.3300 -1.2994 -1.1540
  141OSM   H15G15417   2.996   5.053   4.129  3.9426  2.8867 -2.7517
  141OSM   C16F15418   2.876   5.158   4.285  0.2570  0.2219 -0.1881
  141OSM   H16F15419   2.783   5.161   4.225 -0.7533 -0.7417  1.2471
  141OSM   H16G15420   2.887   5.253   4.342  1.3095  1.1159 -1.8100
  141OSM   C17F15421   2.882   5.042   4.378 -0.6506 -0.7748 -0.7849
  141OSM   H17F15422   2.970   5.052   4.445 -0.8983 -3.3435  0.0142
  141OSM   H17G15423   2.890   4.944   4.327  0.3130 -0.9800 -0.2653
  141OSM   C18F15424   2.763   5.041   4.467 -0.0801 -0.0531 -0.0539
  141OSM   H18F15425   2.673   5.062   4.406  0.5730  1.0198 -0.6833
  141OSM   H18G15426   2.765   5.121   4.544  0.0581  1.3915 -1.5063
  141OSM   H18H15427   2.760   4.939   4.510  0.3386  0.1123  0.3686
  142OSM      N15428   3.866   0.796   2.480  0.8930  0.3702  0.0774
  142OSM    C1515429   3.791   0.905   2.402 -0.1936  0.3386  0.4372
  142OSM   H15A15430   3.807   1.003   2.445  0.1445  0.6502 -0.3846
  142OSM   H15B15431   3.686   0.879   2.400  0.1225 -1.4934 -3.8861
  142OSM   H15C15432   3.822   0.907   2.299 -2.4757 -1.4221 -0.3576
  142OSM    C1415433   3.821   0.667   2.431 -0.1764 -0.3763 -0.2513
  142OSM   H14A15434   3.715   0.647   2.442 -0.1791  0.2721  1.0709
  142OSM   H14B15435   3.862   0.590   2.494  2.9456  1.8949  0.7429
  142OSM   H14C15436   3.848   0.653   2.328  2.4738 -0.3478  0.3731
  142OSM    C1315437   4.007   0.804   2.467  0.0656  0.1533  0.2508
  142OSM   H13A15438   4.061   0.758   2.548 -0.1456 -0.6090 -0.0345
  142OSM   H13B15439   4.041   0.906   2.478 -0.8778  0.9164 -2.8477
  142OSM   H13C15440   4.040   0.772   2.369 -1.4957  1.0950 -0.6309
  142OSM    C1215441   3.819   0.809   2.627 -0.7221  0.3394 -0.4175
  142OSM   H12A15442   3.711   0.818   2.623 -0.7919  0.2941  0.7553
  142OSM   H12B15443   3.856   0.898   2.676  2.0156 -1.1342  0.4115
  142OSM    C1115444   3.849   0.689   2.721 -0.4331 -0.8445  0.3853
  142OSM   H11A15445   3.799   0.604   2.670 -0.4710 -1.1634  0.9481
  142OSM   H11B15446   3.796   0.709   2.817  1.2490  0.9218  1.0194
  142OSM      P15447   4.052   0.534   2.730 -0.2448  0.5257  0.1737
  142OSM    O1315448   4.019   0.473   2.597  0.4198 -0.5893 -0.1612
  142OSM    O1415449   4.201   0.544   2.759  0.0995  0.0311 -0.2437
  142OSM    O1115450   3.978   0.456   2.846  0.0415 -0.4628  0.5919
  142OSM    O1215451   3.988   0.676   2.737 -0.1229  0.4844  0.4136
  142OSM    C1S15452   3.996   0.487   2.981 -0.3244  0.0787  0.3131
  142OSM    H1S15453   3.926   0.569   3.008 -0.1048 -0.0170  1.2135
  142OSM    H1T15454   4.102   0.515   2.998 -0.3877 -0.3380  1.5488
  142OSM     NF15455   3.996   0.410   3.213 -0.2508 -0.1621  0.0569
  142OSM    HNF15456   4.082   0.380   3.253  0.1594  0.2790 -0.4702
  142OSM    C2S15457   3.967   0.368   3.075  0.3926  0.3206 -0.7486
  142OSM    H2S15458   3.858   0.350   3.076 -0.1601  2.8149  2.7907
  142OSM    C3S15459   4.036   0.245   3.031 -0.5817  0.9962  0.1638
  142OSM    H3S15460   4.145   0.268   3.039 -0.3553 -0.0283  0.1437
  142OSM     O315461   4.011   0.210   2.897 -0.3663 -0.2066  0.2742
  142OSM    HO315462   3.979   0.290   2.855  0.6954  0.4241  0.6123
  142OSM    C4S15463   4.004   0.122   3.122  0.7679 -0.3986 -0.8226
  142OSM    H4S15464   3.901   0.090   3.104  0.2668  0.8071 -0.2355
  142OSM    C5S15465   4.085   0.050   3.200 -0.1323  0.2817 -0.4918
  142OSM    H5S15466   4.191   0.077   3.204  0.6510 -2.1936 -2.0615
  142OSM    C6S15467   4.044  -0.063   3.289 -0.1869 -0.5028 -0.7200
  142OSM    H6S15468   4.129  -0.134   3.294 -0.5832 -1.1373 -2.3739
  142OSM    H6T15469   3.963  -0.125   3.246  0.9974 -3.0151  0.4576
  142OSM    C7S15470   4.006  -0.016   3.433  0.3805  0.0655  0.3898
  142OSM    H7S15471   3.982  -0.105   3.496 -1.4431  2.4785  3.4044
  142OSM    H7T15472   3.911   0.040   3.429  0.5583  0.2977 -1.2110
  142OSM    C8S15473   4.114   0.066   3.502  0.6254  0.4536 -0.1037
  142OSM    H8S15474   4.110   0.169   3.460 -4.1216 -0.1026 -1.6320
  142OSM    H8T15475   4.215   0.020   3.496  0.5313  0.2602 -0.2121
  142OSM    C9S15476   4.078   0.086   3.650  0.1418  0.1010 -0.1709
  142OSM    H9S15477   4.163   0.151   3.679  1.3910 -1.3184 -0.5310
  142OSM    H9T15478   4.087  -0.012   3.702 -1.8469 -0.8069 -1.4002
  142OSM   C10S15479   3.940   0.156   3.665 -0.3839  0.0334 -0.3147
  142OSM   H10S15480   3.858   0.082   3.679  1.1255 -1.4582  1.2307
  142OSM   H10T15481   3.928   0.215   3.572  0.6034  1.0627  0.1912
  142OSM   C11S15482   3.942   0.243   3.792  0.0027 -0.2355 -0.9400
  142OSM   H11S15483   3.889   0.339   3.771  0.6443  0.6049  1.0102
  142OSM   H11T15484   4.046   0.278   3.808 -0.0214  0.0540 -1.4182
  142OSM   C12S15485   3.884   0.195   3.932 -0.7911  0.0961 -0.3030
  142OSM   H12S15486   3.931   0.100   3.965  3.6113  1.9252 -0.6649
  142OSM   H12T15487   3.773   0.190   3.928 -0.9130  0.4531  1.5711
  142OSM   C13S15488   3.925   0.294   4.044  0.2182  0.6632  0.0026
  142OSM   H13S15489   3.902   0.395   4.004 -1.0239  1.0354  1.5427
  142OSM   H13T15490   4.036   0.284   4.049  0.4691  3.2320  2.8036
  142OSM   C14S15491   3.841   0.275   4.167  0.3199  0.6702  0.2657
  142OSM   H14S15492   3.840   0.167   4.194  0.3422  0.6290  0.1051
  142OSM   H14T15493   3.731   0.286   4.150 -0.3164 -2.1964  1.8710
  142OSM   C15S15494   3.896   0.352   4.285  0.3657 -0.6792 -1.5010
  142OSM   H15S15495   3.815   0.367   4.359  1.2133 -0.2001 -0.6491
  142OSM   H15T15496   3.939   0.451   4.259 -1.2034  1.0568  1.8945
  142OSM   C16S15497   4.006   0.262   4.352  0.3496 -0.6364  0.5814
  142OSM   H16S15498   4.091   0.241   4.283  1.3304 -0.6892  1.7644
  142OSM   H16T15499   3.946   0.169   4.365 -0.0777 -0.7374 -1.6306
  142OSM   C17S15500   4.060   0.313   4.482 -0.2067 -0.5623  0.3782
  142OSM   H17S15501   4.099   0.416   4.468 -1.9834 -0.1008 -1.7217
  142OSM   H17T15502   4.141   0.244   4.516 -0.4074 -0.6030  0.7872
  142OSM   C18S15503   3.955   0.322   4.599 -0.3291  0.3583 -0.4976
  142OSM   H18S15504   3.860   0.372   4.568 -0.3623  1.2822  1.0075
  142OSM   H18T15505   3.977   0.371   4.696 -3.4813 -0.5700  0.8283
  142OSM   H18U15506   3.929   0.217   4.624  1.0493  0.0533 -0.3100
  142OSM    C1F15507   3.924   0.503   3.290  0.0071 -0.0615  0.6772
  142OSM     OF15508   3.822   0.552   3.243 -0.8384 -0.5015  0.4029
  142OSM    C2F15509   3.962   0.525   3.436  0.3177  0.1488 -0.0309
  142OSM    H2F15510   4.073   0.522   3.434  0.3409 -3.6153  0.1703
  142OSM    H2G15511   3.933   0.436   3.496  0.5217 -0.6110 -1.0463
  142OSM    C3F15512   3.922   0.664   3.509 -0.4366  0.4950 -0.0851
  142OSM    H3F15513   3.820   0.674   3.465  0.0537 -0.7047 -1.6068
  142OSM    H3G15514   3.986   0.751   3.484  0.6748 -0.5635 -1.0440
  142OSM    C4F15515   3.916   0.647   3.657 -0.2905  0.4167 -0.4785
  142OSM    H4F15516   3.979   0.562   3.694 -0.3200 -1.6909 -4.6138
  142OSM    H4G15517   3.807   0.636   3.675 -0.7556  4.2654 -0.3073
  142OSM    C5F15518   3.958   0.778   3.725 -0.0550  0.4701 -0.5018
  142OSM    H5F15519   3.901   0.866   3.690  1.3347  1.0990 -1.2687
  142OSM    H5G15520   4.066   0.777   3.698 -0.7600 -0.2723 -3.6750
  142OSM    C6F15521   3.951   0.785   3.883  0.4718 -0.3249  0.1932
  142OSM    H6F15522   3.857   0.732   3.907 -0.3119  0.4323 -1.0954
  142OSM    H6G15523   3.947   0.888   3.923  2.3378  0.1840 -0.7861
  142OSM    C7F15524   4.063   0.721   3.955 -0.3831  0.3848 -0.6684
  142OSM    H7F15525   4.150   0.791   3.962  0.4834 -0.6985 -0.2588
  142OSM    H7G15526   4.086   0.627   3.900  0.3469  0.6831 -0.8890
  142OSM    C8F15527   4.023   0.685   4.104 -0.3105  0.2368  0.5537
  142OSM    H8F15528   4.107   0.619   4.137  0.0907 -0.5366 -1.8234
  142OSM    H8G15529   3.926   0.632   4.100 -0.6175  0.7913  0.6049
  142OSM    C9F15530   4.020   0.810   4.189  0.4334  0.6636  0.3580
  142OSM    H9F15531   3.927   0.869   4.190 -0.5650 -0.8086 -0.3619
  142OSM   C10F15532   4.133   0.854   4.252  0.1548 -0.2616  0.1314
  142OSM   H10F15533   4.113   0.936   4.322 -2.1356  0.1675 -0.8990
  142OSM   C11F15534   4.275   0.794   4.262 -0.7270 -0.1941  0.4557
  142OSM   H11F15535   4.348   0.874   4.238  0.2114 -0.0448  3.3713
  142OSM   H11G15536   4.286   0.714   4.187 -0.1784 -0.4526  0.8040
  142OSM   C12F15537   4.305   0.766   4.410  0.1045 -0.5229 -0.0061
  142OSM   H12F15538   4.285   0.861   4.465 -0.2269 -0.3713 -0.3787
  142OSM   H12G15539   4.415   0.752   4.416  0.8629  2.7803 -2.8977
  142OSM   C13F15540   4.242   0.641   4.462  0.1617 -0.2468 -0.5023
  142OSM   H13F15541   4.304   0.559   4.419  1.4889  0.5397 -0.1458
  142OSM   H13G15542   4.135   0.634   4.434  0.4132 -1.4150 -1.2520
  142OSM   C14F15543   4.241   0.637   4.614 -0.1003 -0.5340  0.1545
  142OSM   H14F15544   4.194   0.542   4.648 -0.2664  0.1098  1.8360
  142OSM   H14G15545   4.160   0.705   4.651  0.4353  1.0168 -1.3915
  142OSM   C15F15546   4.375   0.678   4.684 -0.1408 -0.3414  0.2630
  142OSM   H15F15547   4.401   0.783   4.658  1.2756 -0.6917  0.1751
  142OSM   H15G15548   4.450   0.607   4.643 -0.7999 -0.6725 -0.3917
  142OSM   C16F15549   4.361   0.662   4.826 -0.0852  0.7912 -0.4837
  142OSM   H16F15550   4.331   0.558   4.853 -0.2194  1.4408  2.2356
  142OSM   H16G15551   4.276   0.718   4.870  0.7718  0.0287  2.3779
  142OSM   C17F15552   4.492   0.686   4.899  0.3508  0.0798 -0.3104
  142OSM   H17F15553   4.482   0.703   5.008  3.2303  1.2992 -0.1321
  142OSM   H17G15554   4.529   0.785   4.863  2.8166 -0.8491 -0.5711
  142OSM   C18F15555   4.608   0.591   4.880  0.0255  0.3300  0.1665
  142OSM   H18F15556   4.693   0.636   4.936 -0.1797 -0.0795  0.8262
  142OSM   H18G15557   4.632   0.583   4.772 -1.1749 -2.1482  0.0221
  142OSM   H18H15558   4.578   0.495   4.927  1.7807 -0.1821  0.3048
  143OSM      N15559   5.337   5.163   2.542  0.0838 -0.4045 -0.3751
  143OSM    C1515560   5.435   5.278   2.536  0.1361  0.3033  0.3229
  143OSM   H15A15561   5.502   5.277   2.621  0.1210  0.1532  0.3332
  143OSM   H15B15562   5.377   5.370   2.535 -1.7021 -0.7455  2.0051
  143OSM   H15C15563   5.490   5.277   2.443  0.5913 -0.5334  0.5913
  143OSM    C1415564   5.252   5.157   2.417  0.1319  0.4503  0.0398
  143OSM   H14A15565   5.201   5.063   2.401  1.0405  0.0920 -0.8530
  143OSM   H14B15566   5.324   5.168   2.337 -0.8742 -0.9252 -1.1024
  143OSM   H14C15567   5.193   5.246   2.397  1.1523  0.4289 -3.9368
  143OSM    C1315568   5.420   5.046   2.542  0.0262  0.2875  0.6758
  143OSM   H13A15569   5.473   5.045   2.448 -1.9713 -1.7042 -0.5316
  143OSM   H13B15570   5.361   4.956   2.547  0.8843 -0.2412  1.5271
  143OSM   H13C15571   5.489   5.043   2.625 -0.2475 -0.5679  0.8776
  143OSM    C1215572   5.261   5.164   2.671  0.0677  0.2368  0.3537
  143OSM   H12A15573   5.336   5.142   2.746 -0.7736  0.5666  1.3047
  143OSM   H12B15574   5.189   5.084   2.674 -0.9853  1.1332 -0.2064
  143OSM    C1115575   5.183   5.297   2.714  0.1538  1.0264  0.4398
  143OSM   H11A15576   5.254   5.382   2.704 -0.7769  1.5604 -2.8220
  143OSM   H11B15577   5.142   5.303   2.817 -0.2799  0.1075  0.3293
  143OSM      P15578   5.034   5.437   2.548  0.4361 -0.0251  0.0489
  143OSM    O1315579   5.154   5.498   2.488  0.0732  0.1754  0.3636
  143OSM    O1415580   4.921   5.406   2.454 -0.5098 -0.5780  0.1391
  143OSM    O1115581   4.984   5.536   2.663  0.1857 -0.1536  0.1338
  143OSM    O1215582   5.067   5.312   2.636 -0.3863  0.8026 -0.4930
  143OSM    C1S15583   4.873   5.507   2.751  0.9557 -0.4425  0.6218
  143OSM    H1S15584   4.812   5.419   2.722 -0.5313  0.9499 -0.6598
  143OSM    H1T15585   4.795   5.587   2.752  2.2613  0.8667  0.5497
  143OSM     NF15586   4.807   5.471   2.993  0.9832  0.7237 -0.2618
  143OSM    HNF15587   4.766   5.547   3.043  0.2383 -0.3391  0.7950
  143OSM    C2S15588   4.916   5.497   2.902 -0.8394 -0.2102 -0.8868
  143OSM    H2S15589   4.990   5.415   2.915 -0.3442  0.3446 -0.1195
  143OSM    C3S15590   4.991   5.632   2.941 -0.6507 -0.3130 -0.5493
  143OSM    H3S15591   4.919   5.716   2.951 -0.5932 -0.5314  3.0092
  143OSM     O315592   5.073   5.685   2.847  0.4476  0.2542 -1.0210
  143OSM    HO315593   5.046   5.633   2.771 -1.2277 -0.6276  0.1462
  143OSM    C4S15594   5.051   5.620   3.080 -0.3555  0.0673  0.6608
  143OSM    H4S15595   4.965   5.606   3.148  0.2380 -1.3013  1.1683
  143OSM    C5S15596   5.177   5.601   3.120  0.2150 -0.3186 -0.5463
  143OSM    H5S15597   5.268   5.597   3.058  1.0819  1.5754  0.5140
  143OSM    C6S15598   5.206   5.579   3.269 -0.3996 -0.2059 -0.0344
  143OSM    H6S15599   5.286   5.647   3.305 -0.9180  0.8100 -0.7645
  143OSM    H6T15600   5.245   5.477   3.291  0.5725  0.2988  0.6763
  143OSM    C7S15601   5.091   5.586   3.376 -0.2372  0.3284  0.2901
  143OSM    H7S15602   5.023   5.498   3.370  0.8813 -0.7310  2.2603
  143OSM    H7T15603   5.019   5.670   3.360 -0.2859  0.1101 -0.6915
  143OSM    C8S15604   5.143   5.580   3.526 -0.3436  0.0294 -0.4117
  143OSM    H8S15605   5.209   5.660   3.566  2.3119 -1.3005 -1.8171
  143OSM    H8T15606   5.214   5.495   3.535 -2.0253 -1.2852  1.2697
  143OSM    C9S15607   5.037   5.555   3.628 -0.1200 -0.1614  0.1957
  143OSM    H9S15608   5.086   5.518   3.721  0.7885  0.9431  0.1750
  143OSM    H9T15609   4.960   5.478   3.604 -1.0097  1.1729 -1.4232
  143OSM   C10S15610   4.960   5.681   3.659  0.5762  0.2181 -0.8592
  143OSM   H10S15611   4.910   5.720   3.568 -0.8223  1.0450  0.2231
  143OSM   H10T15612   5.027   5.766   3.685  1.2165  0.4794 -3.1239
  143OSM   C11S15613   4.846   5.666   3.756  0.3047 -0.4208  0.8465
  143OSM   H11S15614   4.792   5.574   3.726 -1.2352  0.4045  0.9796
  143OSM   H11T15615   4.781   5.756   3.757  0.1717 -0.3734 -2.1567
  143OSM   C12S15616   4.902   5.646   3.901 -0.0353  0.5898 -0.0361
  143OSM   H12S15617   4.967   5.733   3.926 -1.4391  2.1112 -1.4349
  143OSM   H12T15618   4.955   5.549   3.902 -0.6198  0.2722  1.4196
  143OSM   C13S15619   4.802   5.624   4.016  0.3987  0.3095  0.6064
  143OSM   H13S15620   4.856   5.634   4.113  0.5010 -0.6330  0.6489
  143OSM   H13T15621   4.765   5.520   4.014 -1.5554  0.9327  1.3157
  143OSM   C14S15622   4.672   5.708   4.008  0.7846  0.7678 -0.4380
  143OSM   H14S15623   4.615   5.675   3.918  1.3482  0.8636 -0.8393
  143OSM   H14T15624   4.717   5.806   3.978  1.3195  0.2100 -1.5203
  143OSM   C15S15625   4.597   5.707   4.138 -0.3847 -0.1704 -0.1421
  143OSM   H15S15626   4.582   5.603   4.176 -1.4175  0.3843  1.0241
  143OSM   H15T15627   4.499   5.758   4.129 -0.0974  0.3844 -0.1258
  143OSM   C16S15628   4.672   5.800   4.246  0.1772  0.6776 -0.1744
  143OSM   H16S15629   4.717   5.884   4.190  0.7912 -0.8973 -2.1665
  143OSM   H16T15630   4.759   5.742   4.281  1.1971  1.2253 -1.7158
  143OSM   C17S15631   4.563   5.852   4.347 -0.4120 -0.2625 -0.6047
  143OSM   H17S15632   4.513   5.759   4.381  0.4671 -0.5055  0.0706
  143OSM   H17T15633   4.484   5.911   4.295  0.1719  0.3711 -0.7910
  143OSM   C18S15634   4.608   5.923   4.477 -0.3538  0.2271 -0.0496
  143OSM   H18S15635   4.685   5.857   4.522 -0.7081 -1.8891 -2.2837
  143OSM   H18T15636   4.526   5.927   4.553  1.4175  1.8621  1.8862
  143OSM   H18U15637   4.657   6.021   4.460 -0.1718 -0.2074 -2.4190
  143OSM    C1F15638   4.753   5.351   3.004 -0.1938  0.3199 -0.2037
  143OSM     OF15639   4.783   5.257   2.931 -0.0307  0.5190  0.2250
  143OSM    C2F15640   4.651   5.331   3.110  0.4381  0.1460  0.4880
  143OSM    H2F15641   4.560   5.288   3.062 -3.2731  1.5660  5.4627
  143OSM    H2G15642   4.618   5.425   3.158 -1.0184 -0.3179  0.4335
  143OSM    C3F15643   4.685   5.232   3.223  0.4248  0.1558 -0.1288
  143OSM    H3F15644   4.789   5.255   3.254  0.0795 -0.7527  1.8419
  143OSM    H3G15645   4.677   5.128   3.184  2.0814 -0.5015  1.1596
  143OSM    C4F15646   4.588   5.240   3.346 -0.0285 -0.2183  0.3246
  143OSM    H4F15647   4.601   5.147   3.405 -0.4178 -0.5667 -0.1292
  143OSM    H4G15648   4.486   5.231   3.302  0.2048  0.7024 -0.4645
  143OSM    C5F15649   4.600   5.364   3.432 -0.0379 -0.5358 -0.4419
  143OSM    H5F15650   4.615   5.454   3.369  0.4872 -1.8258 -2.2206
  143OSM    H5G15651   4.699   5.356   3.483 -0.3866  2.3054  0.8448
  143OSM    C6F15652   4.488   5.369   3.530 -0.6881 -0.7729 -0.4008
  143OSM    H6F15653   4.494   5.289   3.606 -0.0605 -0.2808  0.0758
  143OSM    H6G15654   4.388   5.356   3.482 -1.8756 -1.6985  2.1497
  143OSM    C7F15655   4.499   5.498   3.604 -0.0673 -0.0934 -0.0896
  143OSM    H7F15656   4.483   5.578   3.528  0.7709 -1.1822 -1.4737
  143OSM    H7G15657   4.599   5.505   3.652 -0.6095  0.1947  1.0163
  143OSM    C8F15658   4.406   5.507   3.728  0.3352  0.2440 -0.7787
  143OSM    H8F15659   4.454   5.555   3.816  1.1954  1.2723 -1.7819
  143OSM    H8G15660   4.399   5.399   3.757  0.9727  0.5350  0.5147
  143OSM    C9F15661   4.268   5.567   3.700 -0.3534  0.3523  0.5685
  143OSM    H9F15662   4.245   5.585   3.594 -2.7152 -0.4606  0.8915
  143OSM   C10F15663   4.171   5.587   3.788 -0.8945  0.5101  0.0655
  143OSM   H10F15664   4.082   5.643   3.754 -1.3645  0.0661  0.5467
  143OSM   C11F15665   4.187   5.569   3.937  0.5997  0.0334 -0.6000
  143OSM   H11F15666   4.281   5.514   3.957 -0.3009 -0.8846  1.4064
  143OSM   H11G15667   4.107   5.507   3.983  0.6034  0.0579 -0.5606
  143OSM   C12F15668   4.200   5.707   4.000 -0.0371 -0.6683  0.0467
  143OSM   H12F15669   4.112   5.775   3.999  0.2902 -0.1486  1.7646
  143OSM   H12G15670   4.280   5.760   3.944 -1.9124 -1.7071 -3.9882
  143OSM   C13F15671   4.230   5.706   4.151 -0.9682 -0.0562 -0.3224
  143OSM   H13F15672   4.282   5.800   4.182  2.0649 -1.8250  0.4053
  143OSM   H13G15673   4.326   5.650   4.153  1.0568  2.9860 -2.2906
  143OSM   C14F15674   4.125   5.651   4.248  0.6714  0.1233  0.0668
  143OSM   H14F15675   4.089   5.549   4.223 -1.1151  0.5050  0.9531
  143OSM   H14G15676   4.029   5.703   4.232 -0.6510 -2.4095 -0.6415
  143OSM   C15F15677   4.152   5.671   4.395 -0.4671 -0.0474 -0.0602
  143OSM   H15F15678   4.055   5.643   4.442 -0.2910 -0.4539  0.0615
  143OSM   H15G15679   4.171   5.775   4.429 -0.5110 -0.1834  0.3783
  143OSM   C16F15680   4.252   5.571   4.458 -0.0509 -0.2192  0.7548
  143OSM   H16F15681   4.349   5.580   4.403 -1.5337 -0.4675 -2.0762
  143OSM   H16G15682   4.202   5.473   4.445  0.5750 -0.4834  0.2687
  143OSM   C17F15683   4.275   5.582   4.615  0.4006  0.5081  0.4126
  143OSM   H17F15684   4.193   5.536   4.674 -0.3682 -0.1472 -1.1012
  143OSM   H17G15685   4.281   5.690   4.637 -1.2912  0.7076  0.0348
  143OSM   C18F15686   4.419   5.538   4.660 -0.2359 -0.1019  0.0331
  143OSM   H18F15687   4.458   5.566   4.760 -0.1780 -1.8703  0.5366
  143OSM   H18G15688   4.489   5.566   4.579 -0.4314 -0.3551 -0.2277
  143OSM   H18H15689   4.415   5.427   4.656 -2.6559 -0.0470 -0.5566
  144OSM      N15690   1.976   0.711   3.061  0.1185  0.2727  0.3964
  144OSM    C1515691   1.972   0.863   3.078 -0.3600  0.4669 -0.8375
  144OSM   H15A15692   1.866   0.880   3.091 -0.1799  0.0519  1.8379
  144OSM   H15B15693   2.022   0.925   3.005 -0.1686  2.0211  0.5510
  144OSM   H15C15694   2.006   0.887   3.178 -3.2734 -0.1469  0.4096
  144OSM    C1415695   2.117   0.666   3.078  0.2023 -0.3621  0.0873
  144OSM   H14A15696   2.115   0.561   3.053  1.4242 -0.6021  0.9108
  144OSM   H14B15697   2.161   0.682   3.175  2.8045 -0.5396 -0.9813
  144OSM   H14C15698   2.180   0.727   3.015  1.0434 -1.3124 -0.0171
  144OSM    C1315699   1.894   0.636   3.165 -0.5930  0.0717  0.0152
  144OSM   H13A15700   1.899   0.530   3.145  0.3588 -0.4026  2.3793
  144OSM   H13B15701   1.791   0.666   3.157 -0.4869  0.8508  1.2380
  144OSM   H13C15702   1.927   0.643   3.268  0.0449 -4.3853  0.2933
  144OSM    C1215703   1.935   0.689   2.917 -0.3402 -0.4520 -0.3746
  144OSM   H12A15704   2.013   0.730   2.855  0.4607  0.3072  1.0803
  144OSM   H12B15705   1.845   0.744   2.895  1.1654  2.1755 -0.3254
  144OSM    C1115706   1.910   0.539   2.876 -0.0245 -0.1318  0.0473
  144OSM   H11A15707   1.874   0.544   2.771 -0.7944  1.6301  0.3598
  144OSM   H11B15708   1.824   0.500   2.935  0.4641  0.0047  0.8619
  144OSM      P15709   2.048   0.326   2.954 -0.0978 -0.0473 -0.4487
  144OSM    O1315710   2.103   0.230   2.853  0.5975 -0.6446  0.0782
  144OSM    O1415711   2.111   0.337   3.084  0.4115 -0.3543  0.6120
  144OSM    O1115712   1.896   0.281   2.968  0.4785 -0.5060 -0.3631
  144OSM    O1215713   2.035   0.470   2.892  0.0438  0.1711  0.1661
  144OSM    C1S15714   1.858   0.148   3.000  0.0867 -0.8326 -0.5573
  144OSM    H1S15715   1.917   0.070   2.947 -1.2881 -0.8144 -2.2372
  144OSM    H1T15716   1.751   0.130   2.974  0.0438  0.1916 -1.1450
  144OSM     NF15717   1.870  -0.019   3.192  0.8078  0.4670 -0.1229
  144OSM    HNF15718   1.791  -0.050   3.245  0.5148  1.0205 -0.2334
  144OSM    C2S15719   1.865   0.121   3.154 -0.1842 -0.5391 -0.7458
  144OSM    H2S15720   1.959   0.163   3.195 -0.2315 -1.4112  0.2740
  144OSM    C3S15721   1.754   0.205   3.226  0.7422  0.2727 -0.2865
  144OSM    H3S15722   1.657   0.176   3.180 -0.0951  1.3150  0.7740
  144OSM     O315723   1.752   0.339   3.191  0.6615 -1.1668 -0.0067
  144OSM    HO315724   1.818   0.335   3.122  1.2852  0.4005  0.4577
  144OSM    C4S15725   1.754   0.184   3.372  0.6524 -0.3699 -0.3657
  144OSM    H4S15726   1.663   0.126   3.396  0.8120  0.2283  1.9202
  144OSM    C5S15727   1.823   0.251   3.467 -0.0215  0.5178 -0.5661
  144OSM    H5S15728   1.896   0.331   3.447 -0.1688 -0.0117 -3.7633
  144OSM    C6S15729   1.804   0.224   3.613 -0.2772 -0.4521  0.3488
  144OSM    H6S15730   1.709   0.174   3.642  1.0965 -2.1921  2.0994
  144OSM    H6T15731   1.798   0.323   3.664 -0.5879 -0.8031  1.0158
  144OSM    C7S15732   1.922   0.147   3.673  0.2278  0.1768 -0.0091
  144OSM    H7S15733   2.017   0.204   3.668  2.6699 -3.4441  0.9161
  144OSM    H7T15734   1.935   0.053   3.615 -1.0355 -2.2635  3.3666
  144OSM    C8S15735   1.894   0.104   3.820  0.0107 -0.6336  0.4984
  144OSM    H8S15736   1.984   0.044   3.843 -0.2326 -0.9300  0.6814
  144OSM    H8T15737   1.804   0.039   3.828 -0.8325  0.3293 -0.7218
  144OSM    C9S15738   1.875   0.214   3.922  0.1735 -0.0532  0.5414
  144OSM    H9S15739   1.782   0.268   3.896  0.2711 -0.5006 -0.7944
  144OSM    H9T15740   1.959   0.283   3.898 -0.1904 -1.0519 -4.6209
  144OSM   C10S15741   1.863   0.166   4.060 -0.7620  0.1715 -0.2305
  144OSM   H10S15742   1.971   0.153   4.079 -0.9200  0.3374  0.8409
  144OSM   H10T15743   1.814   0.067   4.062 -1.1969  0.3855 -0.1556
  144OSM   C11S15744   1.806   0.263   4.163  0.1528  0.2232 -0.0810
  144OSM   H11S15745   1.707   0.298   4.126  0.3022  2.0125  1.1134
  144OSM   H11T15746   1.874   0.351   4.160  0.7102 -0.2251 -1.2232
  144OSM   C12S15747   1.805   0.206   4.312  0.0149  0.4633  0.8945
  144OSM   H12S15748   1.912   0.187   4.334  0.1817  1.2212  0.7609
  144OSM   H12T15749   1.756   0.106   4.301  1.9161 -0.3068 -1.3164
  144OSM   C13S15750   1.742   0.304   4.403 -0.5965 -0.2321  0.3551
  144OSM   H13S15751   1.639   0.319   4.362 -0.1813  1.7672 -0.0826
  144OSM   H13T15752   1.784   0.407   4.405 -1.8429  0.2838  1.0528
  144OSM   C14S15753   1.723   0.265   4.550 -0.6169 -0.3473 -0.1758
  144OSM   H14S15754   1.823   0.226   4.579  0.9261  3.3650  0.0418
  144OSM   H14T15755   1.647   0.184   4.545 -0.9437 -0.1114  0.7104
  144OSM   C15S15756   1.675   0.388   4.631  0.3169 -0.1990 -0.4117
  144OSM   H15S15757   1.577   0.418   4.588 -0.2506  0.4203  1.2479
  144OSM   H15T15758   1.741   0.475   4.608 -0.6264  0.1240 -2.1206
  144OSM   C16S15759   1.656   0.364   4.782 -0.5232  0.0699 -0.0609
  144OSM   H16S15760   1.576   0.289   4.804 -0.5448  0.1721  0.2032
  144OSM   H16T15761   1.627   0.451   4.844 -0.5986  0.0836 -0.1134
  144OSM   C17S15762   1.778   0.305   4.849  0.5187  0.7180  0.3597
  144OSM   H17S15763   1.871   0.347   4.806  1.3898  0.4016  1.8667
  144OSM   H17T15764   1.784   0.198   4.819 -3.9876 -0.4211  2.4935
  144OSM   C18S15765   1.802   0.311   4.994  0.3293 -0.0768 -0.1940
  144OSM   H18S15766   1.733   0.251   5.057 -0.1986  0.3086 -0.3965
  144OSM   H18T15767   1.789   0.414   5.033 -2.0823  0.8050 -2.9830
  144OSM   H18U15768   1.898   0.256   5.005 -1.3620 -3.4738 -1.1365
  144OSM    C1F15769   1.963  -0.104   3.162  0.3282 -0.4025  0.2511
  144OSM     OF15770   2.071  -0.059   3.123 -0.0978 -0.2279  0.4391
  144OSM    C2F15771   1.925  -0.247   3.172  0.0799 -0.2025  0.0484
  144OSM    H2F15772   1.962  -0.300   3.082  1.9118  1.7917 -0.4356
  144OSM    H2G15773   1.814  -0.256   3.170  0.0675 -0.1128  0.2663
  144OSM    C3F15774   1.988  -0.319   3.289 -0.4054 -0.1029 -0.0948
  144OSM    H3F15775   2.091  -0.345   3.258 -0.2469  0.2251  0.1524
  144OSM    H3G15776   1.933  -0.415   3.299 -0.0616 -0.2053  0.8987
  144OSM    C4F15777   1.984  -0.233   3.424  1.4741  0.0156  0.8715
  144OSM    H4F15778   1.878  -0.207   3.443  0.9455 -2.2027  1.2614
  144OSM    H4G15779   2.043  -0.139   3.419  0.9987  0.2559 -0.8683
  144OSM    C5F15780   2.025  -0.317   3.546  0.2295  1.2443  0.1558
  144OSM    H5F15781   2.134  -0.335   3.538  0.1736  0.8887  0.2078
  144OSM    H5G15782   1.964  -0.409   3.545  0.0781  1.3483 -0.8518
  144OSM    C6F15783   1.988  -0.233   3.676  0.1481  0.1957 -0.0004
  144OSM    H6F15784   1.882  -0.202   3.674  0.6231  1.8448 -1.0235
  144OSM    H6G15785   2.049  -0.141   3.667 -0.1435  0.3036 -0.8744
  144OSM    C7F15786   2.042  -0.311   3.797 -0.2145  0.6215  0.2185
  144OSM    H7F15787   2.147  -0.335   3.770 -0.2645  0.2191  0.3612
  144OSM    H7G15788   2.002  -0.414   3.786  4.5075 -1.1669 -3.9940
  144OSM    C8F15789   2.019  -0.243   3.923  0.1814 -0.0574  0.4400
  144OSM    H8F15790   2.060  -0.141   3.903  0.4148 -0.1101  0.6563
  144OSM    H8G15791   2.091  -0.285   3.996  0.4655 -0.8814 -0.2948
  144OSM    C9F15792   1.882  -0.235   3.989 -0.2711  0.6858  1.5041
  144OSM    H9F15793   1.802  -0.224   3.914  0.9261 -2.8082 -0.5082
  144OSM   C10F15794   1.851  -0.264   4.115  0.1863  0.1368  0.0342
  144OSM   H10F15795   1.750  -0.253   4.157  1.6415  3.1987  3.2639
  144OSM   C11F15796   1.947  -0.279   4.233  0.3457 -0.3842 -0.3495
  144OSM   H11F15797   2.047  -0.320   4.206  0.9253  0.4249  0.5209
  144OSM   H11G15798   1.899  -0.359   4.293 -1.9461  0.7820 -0.5132
  144OSM   C12F15799   1.960  -0.143   4.307 -0.8408 -0.8679  0.0930
  144OSM   H12F15800   1.857  -0.101   4.315 -0.2802  0.5927 -0.0853
  144OSM   H12G15801   2.013  -0.065   4.249 -0.3912 -1.2864 -0.0672
  144OSM   C13F15802   2.027  -0.165   4.442  0.2974 -0.1964 -0.0334
  144OSM   H13F15803   2.125  -0.210   4.418  0.2978 -0.2035 -0.0178
  144OSM   H13G15804   1.953  -0.237   4.484 -0.7894  1.2996  0.7125
  144OSM   C14F15805   2.028  -0.034   4.521  0.5082  0.6394  0.3441
  144OSM   H14F15806   1.928   0.013   4.509  0.9611  0.9760 -2.9514
  144OSM   H14G15807   2.106   0.039   4.492  0.1706  1.3656  1.2047
  144OSM   C15F15808   2.054  -0.057   4.668  0.2389 -0.4091  0.0577
  144OSM   H15F15809   2.149  -0.112   4.681 -0.3367 -1.6708 -0.9129
  144OSM   H15G15810   1.972  -0.123   4.703 -0.6833 -0.5032 -2.1249
  144OSM   C16F15811   2.075   0.068   4.760  0.2378  0.3644  0.1120
  144OSM   H16F15812   2.003   0.152   4.749 -0.2845  0.2548  2.2590
  144OSM   H16G15813   2.178   0.106   4.742  0.9437 -0.7994  1.4268
  144OSM   C17F15814   2.071   0.015   4.912  0.7518  0.6225 -0.4506
  144OSM   H17F15815   1.967   0.015   4.952  0.2616  1.2801 -1.6836
  144OSM   H17G15816   2.116   0.101   4.966  0.5463 -0.0268  0.7981
  144OSM   C18F15817   2.138  -0.113   4.953 -0.5070 -0.1201 -0.5018
  144OSM   H18F15818   2.085  -0.202   4.912 -1.4363  1.1287 -2.1623
  144OSM   H18G15819   2.141  -0.113   5.064  1.6168  0.7587 -0.5041
  144OSM   H18H15820   2.244  -0.108   4.920 -1.1007  0.4175 -2.4409
  145SAPE     N15821   3.291   2.782   7.262 -0.4826  0.8169  0.7061
  145SAPE   HN115822   3.386   2.812   7.233 -0.4525  0.5857  0.5592
  145SAPE   HN215823   3.233   2.840   7.199 -1.2618 -2.2142 -1.6007
  145SAPE   HN315824   3.283   2.813   7.361  0.8703 -2.5109  2.0115
  145SAPE   C1215825   3.292   2.631   7.242  0.2309  0.9566  0.0193
  145SAPE  H12A15826   3.203   2.588   7.294  0.6607  0.8611  0.6951
  145SAPE  H12B15827   3.387   2.596   7.287  1.1462  1.6072 -1.3485
  145SAPE   C1115828   3.303   2.594   7.097  0.4405 -0.3826 -0.8447
  145SAPE  H11A15829   3.205   2.601   7.044  0.8702  3.2807 -1.3983
  145SAPE  H11B15830   3.328   2.486   7.111  0.8613 -0.0029  1.7716
  145SAPE     P15831   3.457   2.623   6.890 -0.4247 -0.1607  0.0265
  145SAPE   O1315832   3.434   2.735   6.797  0.1891  0.0358  0.0368
  145SAPE   O1415833   3.595   2.571   6.904 -0.0914 -0.4512  0.6803
  145SAPE   O1215834   3.408   2.667   7.033 -0.0011  0.5990 -0.5056
  145SAPE   O1115835   3.363   2.504   6.857 -0.5007  0.3620 -0.3954
  145SAPE    C115836   3.396   2.366   6.859 -0.0656 -0.2266 -0.7932
  145SAPE    HA15837   3.476   2.350   6.935 -0.4247 -1.8078 -0.7237
  145SAPE    HB15838   3.309   2.300   6.879  0.2711 -0.1791  1.0266
  145SAPE    C215839   3.452   2.321   6.721 -0.1578  0.4849  0.2256
  145SAPE    HS15840   3.529   2.396   6.691  1.1709  0.0958  2.4693
  145SAPE   O2115841   3.349   2.297   6.623 -0.1187  0.4867  0.9795
  145SAPE   C2115842   3.331   2.404   6.542 -0.9125  0.7681  0.3205
  145SAPE   O2215843   3.399   2.503   6.542 -0.4600  0.1035  0.6190
  145SAPE   C2215844   3.251   2.359   6.419 -0.3985  0.0264  0.4810
  145SAPE   H2R15845   3.320   2.317   6.343  0.5092 -0.0804  1.3323
  145SAPE   H2S15846   3.179   2.286   6.461 -0.3433 -0.4603 -0.2644
  145SAPE    C315847   3.537   2.187   6.732 -0.0561 -0.2501 -0.2278
  145SAPE    HX15848   3.471   2.098   6.732 -0.2432 -0.1115 -0.4664
  145SAPE    HY15849   3.601   2.188   6.823  1.6956 -1.7409 -1.3836
  145SAPE   O3115850   3.625   2.171   6.622 -0.7007  0.3283 -0.1148
  145SAPE   C3115851   3.757   2.196   6.637 -0.7201 -0.6003  0.1508
  145SAPE   O3215852   3.809   2.246   6.733  0.4137  0.1588  0.3324
  145SAPE   C3215853   3.834   2.159   6.501 -0.2512 -0.3502  0.3846
  145SAPE   H2X15854   3.928   2.104   6.524  1.8476  2.8834  0.2757
  145SAPE   H2Y15855   3.864   2.259   6.461 -2.0632 -0.9542 -2.8070
  145SAPE   C2315856   3.187   2.477   6.342 -0.4644 -0.2240 -0.1329
  145SAPE   H3R15857   3.257   2.538   6.282 -1.0719 -0.0093 -0.6347
  145SAPE   H3S15858   3.141   2.548   6.415  0.1077  1.0439 -0.9762
  145SAPE   C2415859   3.063   2.440   6.255 -0.3999  0.4195  0.1772
  145SAPE   H4R15860   3.028   2.529   6.198 -0.1252 -0.5941 -1.6241
  145SAPE   H4S15861   2.984   2.415   6.329 -0.2790  1.5634  0.7217
  145SAPE   C2515862   3.090   2.321   6.174  1.0789 -0.2082  0.5125
  145SAPE   H5R15863   3.082   2.232   6.238  0.0583 -0.6545 -0.2152
  145SAPE   C2615864   3.116   2.299   6.040  0.1465  0.0888 -0.1341
  145SAPE   H6R15865   3.136   2.195   6.009  0.2823  0.2188 -0.4866
  145SAPE   C2715866   3.123   2.411   5.931  0.1082  0.7842  0.6567
  145SAPE   H7R15867   3.182   2.364   5.849 -0.3668  2.4270 -0.6802
  145SAPE   H7S15868   3.188   2.496   5.959  0.5303  0.4965  0.5638
  145SAPE   C2815869   2.988   2.446   5.890  0.2090  0.0633 -0.0193
  145SAPE   H8R15870   2.912   2.384   5.940 -0.6842  2.0502  1.2581
  145SAPE   C2915871   2.954   2.559   5.813  1.5754  0.5822 -0.4948
  145SAPE   H9R15872   2.847   2.584   5.806  1.0348 -1.5623 -0.4282
  145SAPE  C21015873   3.048   2.659   5.754  0.4559  0.5612  0.8344
  145SAPE  H10R15874   2.992   2.693   5.664  2.0370  1.7347  0.2505
  145SAPE  H10S15875   3.137   2.608   5.710 -0.7276 -0.7834 -0.0941
  145SAPE  C21115876   3.093   2.778   5.836 -0.2535 -0.4207 -0.0250
  145SAPE  H11R15877   3.064   2.773   5.942 -0.7348  0.0732 -0.1288
  145SAPE  C21215878   3.150   2.887   5.773 -0.1341 -0.0435  0.1186
  145SAPE  H12R15879   3.166   2.980   5.828 -2.2601 -0.4164  1.5223
  145SAPE  C21315880   3.185   2.886   5.629  0.2785 -0.3610 -0.1679
  145SAPE  H13R15881   3.114   2.957   5.580 -1.0968 -0.4613  1.5563
  145SAPE  H13S15882   3.166   2.789   5.580 -1.1225 -0.4628  0.4995
  145SAPE  C21415883   3.331   2.912   5.603 -0.0545  0.0833 -0.6811
  145SAPE  H14R15884   3.396   2.867   5.679 -1.9591  1.6063  2.0539
  145SAPE  C21515885   3.387   2.970   5.494  0.3265 -1.0062 -0.6465
  145SAPE  H15R15886   3.495   2.992   5.492  0.3368 -0.8417  0.6404
  145SAPE  C21615887   3.308   3.029   5.379 -0.1717  0.3709  0.2266
  145SAPE  H16R15888   3.306   3.140   5.385  5.4497  0.7601 -0.0353
  145SAPE  H16S15889   3.206   2.987   5.365  0.1907 -0.9793  1.3813
  145SAPE  C21715890   3.387   2.994   5.247 -0.1444  0.7853 -0.5445
  145SAPE  H17R15891   3.395   2.883   5.242 -0.1334  0.8058 -1.0379
  145SAPE  H17S15892   3.488   3.039   5.244  0.2407 -0.0902 -3.0334
  145SAPE  C21815893   3.317   3.042   5.116  0.8154  0.1215  0.2663
  145SAPE  H18R15894   3.308   3.150   5.138 -3.3202 -0.1565  0.6399
  145SAPE  H18S15895   3.216   2.996   5.110  0.5866  0.2458  2.3820
  145SAPE  C21915896   3.404   3.031   4.992 -0.0156  0.2919  0.3057
  145SAPE  H19R15897   3.422   2.922   4.982  0.5267  0.5210 -1.7956
  145SAPE  H19S15898   3.493   3.090   5.021 -1.2208  1.6227  1.4956
  145SAPE  C22015899   3.349   3.078   4.859  0.7638  1.0092  0.4079
  145SAPE  H20R15900   3.259   3.019   4.832 -0.1086  0.7750  3.4355
  145SAPE  H20S15901   3.418   3.065   4.774 -2.1995  1.8817 -2.3544
  145SAPE  H20T15902   3.312   3.183   4.855  1.7916  1.3534 -0.7761
  145SAPE   C3315903   3.750   2.077   6.393 -0.0847 -0.3474 -0.5456
  145SAPE   H3X15904   3.672   2.149   6.360  0.2648 -0.3932 -1.5296
  145SAPE   H3Y15905   3.698   1.986   6.428 -2.7385  1.7399  1.3692
  145SAPE   C3415906   3.830   2.051   6.268 -0.1300  0.0236  0.0674
  145SAPE   H4X15907   3.897   1.966   6.290  2.0149  2.1380  2.4090
  145SAPE   H4Y15908   3.890   2.143   6.247 -1.3592  0.5291 -1.4901
  145SAPE   C3515909   3.740   2.027   6.139  1.1896  0.5064  0.8294
  145SAPE   H5X15910   3.704   1.922   6.147 -2.7264  1.6868  1.0210
  145SAPE   H5Y15911   3.807   2.031   6.050  1.3808  3.7144  1.0117
  145SAPE   C3615912   3.623   2.125   6.119  0.3402  0.5248 -0.3254
  145SAPE   H6X15913   3.652   2.231   6.136  2.3765 -0.2701  1.9229
  145SAPE   H6Y15914   3.547   2.101   6.196  2.4848 -1.4901  1.3510
  145SAPE   C3715915   3.568   2.118   5.973 -0.5476  0.8024  0.2917
  145SAPE   H7X15916   3.557   2.010   5.949  0.8481 -0.3202  3.9488
  145SAPE   H7Y15917   3.641   2.165   5.903  1.8443  1.7507  3.1862
  145SAPE   C3815918   3.434   2.189   5.945  0.4910 -0.2014  0.6603
  145SAPE   H8X15919   3.460   2.296   5.958  3.7977 -0.5470 -1.8213
  145SAPE   H8Y15920   3.355   2.152   6.013 -0.5203  0.4841 -0.1183
  145SAPE   C3915921   3.386   2.176   5.797  0.1100 -0.3499  0.4143
  145SAPE   H9X15922   3.279   2.205   5.794  0.6467  1.8874  0.8955
  145SAPE   H9Y15923   3.383   2.070   5.764 -1.3306  0.3315 -1.8860
  145SAPE  C31015924   3.461   2.267   5.702 -0.2795 -0.0655  0.4310
  145SAPE  H10X15925   3.569   2.240   5.697  0.4083  2.5051  0.0816
  145SAPE  H10Y15926   3.460   2.369   5.746 -0.2595 -0.4900  1.4512
  145SAPE  C31115927   3.414   2.285   5.560 -0.3671  0.6925  0.0764
  145SAPE  H11X15928   3.424   2.186   5.511  0.9979 -0.6092  2.7359
  145SAPE  H11Y15929   3.479   2.355   5.502  2.9508 -0.0009  2.6168
  145SAPE  C31215930   3.268   2.330   5.560 -0.7428 -0.0235 -0.3608
  145SAPE  H12X15931   3.274   2.418   5.629 -1.3069  0.0083 -0.3447
  145SAPE  H12Y15932   3.206   2.247   5.600 -0.4885  0.2712  0.6826
  145SAPE  C31315933   3.224   2.381   5.426 -0.3493 -0.0471 -0.0094
  145SAPE  H13X15934   3.226   2.294   5.358 -3.1664  0.8917 -1.4628
  145SAPE  H13Y15935   3.295   2.457   5.387 -1.2348  0.3390 -0.9108
  145SAPE  C31415936   3.078   2.442   5.429  0.0309  0.0137 -0.2762
  145SAPE  H14X15937   3.082   2.543   5.475  3.3612 -0.1276 -0.0197
  145SAPE  H14Y15938   3.010   2.373   5.483 -1.3313  0.6690 -1.1001
  145SAPE  C31515939   3.012   2.461   5.293  0.0792  0.2539 -0.7397
  145SAPE  H15X15940   2.937   2.541   5.311  2.2470  2.4044 -0.7224
  145SAPE  H15Y15941   2.969   2.360   5.278  1.2963 -0.5352  0.7236
  145SAPE  C31615942   3.094   2.506   5.176 -0.0588 -0.4011 -0.2379
  145SAPE  H16X15943   3.183   2.443   5.160  0.8540  0.4723  1.1914
  145SAPE  H16Y15944   3.142   2.600   5.211 -2.4095  0.1452  1.8186
  145SAPE  C31715945   3.028   2.523   5.039 -0.1263  0.3022  1.1842
  145SAPE  H17X15946   3.103   2.543   4.959 -0.7864 -0.5532  0.3220
  145SAPE  H17Y15947   2.955   2.606   5.037 -1.3756 -0.7833 -0.0960
  145SAPE  C31815948   2.959   2.391   4.995  0.2014 -0.3101 -0.0833
  145SAPE  H18X15949   3.019   2.300   5.017 -1.3252 -1.2868  0.1679
  145SAPE  H18Y15950   2.920   2.396   4.892  1.4641 -1.0865 -0.6250
  145SAPE  H18Z15951   2.869   2.376   5.058 -1.0991 -1.1257 -2.0402
  146SAPE     N15952   5.630   2.325   6.713 -0.4676  0.0918  0.2999
  146SAPE   HN115953   5.536   2.282   6.719 -0.2172 -0.2543  2.6028
  146SAPE   HN215954   5.681   2.302   6.801 -1.2073 -0.5132  0.5752
  146SAPE   HN315955   5.616   2.428   6.715 -0.1006  0.1423  1.6827
  146SAPE   C1215956   5.710   2.286   6.584 -0.1385  0.0933  0.0664
  146SAPE  H12A15957   5.651   2.344   6.510 -2.1466  1.2546  2.3910
  146SAPE  H12B15958   5.693   2.177   6.578  2.4613 -0.5148  2.0444
  146SAPE   C1115959   5.856   2.336   6.587  0.0388 -0.1135  0.1618
  146SAPE  H11A15960   5.858   2.447   6.592  2.1185  0.1032 -2.8531
  146SAPE  H11B15961   5.908   2.307   6.494  1.7055 -0.4437  1.1468
  146SAPE     P15962   5.951   2.126   6.716 -0.1871 -0.1912 -0.2533
  146SAPE   O1315963   6.079   2.101   6.787 -0.4682 -0.3955 -0.4286
  146SAPE   O1415964   5.827   2.063   6.773 -0.7500  0.5232 -0.1328
  146SAPE   O1215965   5.925   2.279   6.698  0.1188 -0.0937  0.5853
  146SAPE   O1115966   5.966   2.069   6.571  0.1741  0.0804  0.3651
  146SAPE    C115967   6.092   2.033   6.508  0.1048  0.8354  0.0732
  146SAPE    HA15968   6.183   2.061   6.565  0.6827 -1.4510  0.3521
  146SAPE    HB15969   6.097   1.923   6.493 -0.3690  0.7865  0.2540
  146SAPE    C215970   6.111   2.094   6.364  0.1465  0.3079 -0.4035
  146SAPE    HS15971   6.202   2.060   6.311  0.3613 -1.6641  1.1258
  146SAPE   O2115972   6.116   2.237   6.385 -0.3132  0.1176  0.4803
  146SAPE   C2115973   6.234   2.281   6.415 -0.2096  0.1461  0.0096
  146SAPE   O2215974   6.337   2.218   6.419 -0.2048 -0.2699 -0.3684
  146SAPE   C2215975   6.227   2.430   6.447 -0.3239 -0.2720  0.2838
  146SAPE   H2R15976   6.186   2.430   6.550 -0.3842  0.8410  0.2720
  146SAPE   H2S15977   6.326   2.481   6.444 -1.5396  2.2768 -3.0459
  146SAPE    C315978   5.983   2.077   6.281 -0.6392  0.2220  0.9406
  146SAPE    HX15979   5.987   2.136   6.186 -0.4847  0.8826  1.3493
  146SAPE    HY15980   5.904   2.124   6.344  0.2923 -2.2348  4.1895
  146SAPE   O3115981   5.937   1.945   6.255 -0.1307  0.1298 -0.3812
  146SAPE   C3115982   6.002   1.893   6.153 -0.0146 -0.0630 -0.6925
  146SAPE   O3215983   6.081   1.955   6.086 -0.1549 -0.0318 -0.2589
  146SAPE   C3215984   5.967   1.745   6.146 -0.0986 -0.6399  0.6977
  146SAPE   H2X15985   5.860   1.741   6.117  0.0837 -0.9759  0.0604
  146SAPE   H2Y15986   5.977   1.710   6.251 -1.0860  0.8925  1.3406
  146SAPE   C2315987   6.133   2.515   6.347 -0.2745 -0.8770 -0.2550
  146SAPE   H3R15988   6.030   2.479   6.365 -1.0601  2.1820  2.1505
  146SAPE   H3S15989   6.155   2.501   6.238 -0.0064  0.9239 -0.4660
  146SAPE   C2415990   6.125   2.671   6.379  0.4764 -0.3555 -0.1011
  146SAPE   H4R15991   6.076   2.663   6.478  2.3434  0.6057  0.9508
  146SAPE   H4S15992   6.047   2.722   6.317 -0.4898 -2.8911 -1.0869
  146SAPE   C2515993   6.258   2.743   6.390  0.9112  1.0819  0.1727
  146SAPE   H5R15994   6.300   2.751   6.492  0.0051 -0.9558  0.7586
  146SAPE   C2615995   6.328   2.785   6.286 -0.4898  0.6404 -0.3154
  146SAPE   H6R15996   6.427   2.824   6.314 -1.2457  0.4881  2.9911
  146SAPE   C2715997   6.302   2.769   6.132  0.0624  0.4092  0.4859
  146SAPE   H7R15998   6.285   2.870   6.089  1.6520  0.6012  0.2513
  146SAPE   H7S15999   6.202   2.725   6.112  0.5150  0.0422 -1.1214
  146SAPE   C2816000   6.422   2.700   6.072 -0.6814  0.1166 -0.5390
  146SAPE   H8R16001   6.518   2.747   6.095 -0.3359 -1.1016  0.7076
  146SAPE   C2916002   6.424   2.586   6.003  0.0442  0.2861  0.3330
  146SAPE   H9R16003   6.520   2.546   5.967 -0.0654  0.0298  0.3255
  146SAPE  C21016004   6.310   2.486   5.967  0.1148 -0.8267  0.1766
  146SAPE  H10R16005   6.318   2.482   5.856 -0.3730 -1.9170  0.1685
  146SAPE  H10S16006   6.210   2.521   5.998  0.6469 -1.0216  2.3076
  146SAPE  C21116007   6.326   2.355   6.034  0.5087  0.3808  0.1093
  146SAPE  H11R16008   6.414   2.352   6.100  0.0133 -1.0384  0.7525
  146SAPE  C21216009   6.254   2.241   6.022  0.1913  0.1822 -0.5341
  146SAPE  H12R16010   6.289   2.151   6.075 -0.3301  0.5652  0.4811
  146SAPE  C21316011   6.131   2.238   5.934  0.3459  0.2899 -0.2074
  146SAPE  H13R16012   6.118   2.335   5.882  0.5891  1.0271  1.0916
  146SAPE  H13S16013   6.038   2.241   5.995  0.6991  0.8640  0.3173
  146SAPE  C21416014   6.126   2.119   5.842 -1.0208 -0.3127  0.7242
  146SAPE  H14R16015   6.176   2.028   5.879  1.9966 -0.1452 -2.4070
  146SAPE  C21516016   6.113   2.127   5.707  0.1697 -0.2305  0.2521
  146SAPE  H15R16017   6.138   2.041   5.644  0.4608  2.3931 -3.4953
  146SAPE  C21616018   6.074   2.243   5.625 -0.2830  0.0995 -0.2796
  146SAPE  H16R16019   5.994   2.301   5.676  1.3349 -1.5161  4.7114
  146SAPE  H16S16020   6.014   2.195   5.545 -1.3014 -0.5595  0.8367
  146SAPE  C21716021   6.182   2.335   5.571  0.3006 -0.3455  0.0279
  146SAPE  H17R16022   6.227   2.382   5.661 -1.3747  1.2145  0.1225
  146SAPE  H17S16023   6.145   2.427   5.520  2.2325  2.1776  2.8410
  146SAPE  C21816024   6.286   2.267   5.476 -0.3658 -0.3009 -0.2900
  146SAPE  H18R16025   6.245   2.229   5.380  2.7492  0.9176 -2.2717
  146SAPE  H18S16026   6.332   2.183   5.534 -0.1059  1.2135  1.8135
  146SAPE  C21916027   6.395   2.366   5.428  0.4399 -0.1333  0.8391
  146SAPE  H19R16028   6.421   2.422   5.520  1.2243  1.9286 -0.5484
  146SAPE  H19S16029   6.345   2.435   5.356  0.3772 -2.4125 -1.4621
  146SAPE  C22016030   6.518   2.300   5.375  0.2378 -0.6113  0.5462
  146SAPE  H20R16031   6.599   2.377   5.376 -0.1180 -0.2265  0.3732
  146SAPE  H20S16032   6.505   2.260   5.272  0.8046  2.1522 -0.6965
  146SAPE  H20T16033   6.551   2.221   5.445 -0.9955 -1.0961  0.6140
  146SAPE   C3316034   6.047   1.669   6.043  0.4839  0.1221 -1.3135
  146SAPE   H3X16035   6.023   1.561   6.049  0.4657  0.1760 -0.1612
  146SAPE   H3Y16036   6.155   1.683   6.065 -0.3405  5.0725  0.9830
  146SAPE   C3416037   6.028   1.729   5.897 -0.5582  0.0447  0.0648
  146SAPE   H4X16038   6.118   1.690   5.845  1.5140  3.2861  0.9404
  146SAPE   H4Y16039   6.028   1.839   5.890 -0.2569  0.0307 -0.1977
  146SAPE   C3516040   5.908   1.687   5.819  0.3139  0.9161 -0.2798
  146SAPE   H5X16041   5.809   1.711   5.863 -0.1168 -0.6313 -0.3371
  146SAPE   H5Y16042   5.932   1.580   5.836  1.5310  1.1959 -0.1170
  146SAPE   C3616043   5.923   1.723   5.673 -0.3489 -0.2073  0.3105
  146SAPE   H6X16044   6.024   1.689   5.641 -0.6952 -0.5855 -0.4103
  146SAPE   H6Y16045   5.914   1.832   5.654 -0.7971 -0.1025  1.0677
  146SAPE   C3716046   5.815   1.660   5.587  0.1496  0.0961 -1.0591
  146SAPE   H7X16047   5.724   1.703   5.633  0.1840 -0.0725 -0.8352
  146SAPE   H7Y16048   5.811   1.559   5.632  0.3574  1.7378  3.0970
  146SAPE   C3816049   5.826   1.678   5.436 -0.2687  0.3845  0.0512
  146SAPE   H8X16050   5.920   1.652   5.384 -0.7714 -0.6395 -0.3765
  146SAPE   H8Y16051   5.800   1.783   5.407 -0.0670  0.1003 -1.2151
  146SAPE   C3916052   5.720   1.584   5.365  0.0579 -0.3366 -0.6265
  146SAPE   H9X16053   5.617   1.614   5.394 -0.3408 -2.3640  0.2376
  146SAPE   H9Y16054   5.734   1.477   5.390  1.1940 -0.8076 -3.0369
  146SAPE  C31016055   5.736   1.574   5.217 -0.2489 -0.7385 -0.4062
  146SAPE  H10X16056   5.670   1.496   5.175 -0.1096  0.4895 -3.1292
  146SAPE  H10Y16057   5.840   1.543   5.191 -0.3756 -0.5646 -1.1387
  146SAPE  C31116058   5.715   1.703   5.146  0.4637 -0.2370  0.3316
  146SAPE  H11X16059   5.776   1.783   5.194  0.0531  0.2126  0.1152
  146SAPE  H11Y16060   5.609   1.734   5.152  0.1880 -1.3851  1.6154
  146SAPE  C31216061   5.750   1.692   5.001  0.3331 -0.0497  0.1249
  146SAPE  H12X16062   5.682   1.628   4.941 -1.4182 -0.6252  2.5549
  146SAPE  H12Y16063   5.853   1.656   4.984  0.2061  0.0121 -0.7867
  146SAPE  C31316064   5.746   1.829   4.928  0.0488  0.6345  0.2844
  146SAPE  H13X16065   5.793   1.820   4.827 -1.1942 -0.0681 -0.2423
  146SAPE  H13Y16066   5.810   1.903   4.981 -0.3740  1.2449 -0.0488
  146SAPE  C31416067   5.613   1.882   4.898 -0.3707 -0.5524 -0.1267
  146SAPE  H14X16068   5.545   1.870   4.985  1.4403  2.9974  2.0094
  146SAPE  H14Y16069   5.568   1.816   4.820 -3.7137  0.8092  0.4682
  146SAPE  C31516070   5.611   2.026   4.861 -0.4519 -0.9301  0.5502
  146SAPE  H15X16071   5.629   2.079   4.956  0.9955 -2.7133  1.3353
  146SAPE  H15Y16072   5.516   2.062   4.816  0.3771  1.0182  0.2566
  146SAPE  C31616073   5.729   2.061   4.766  0.7005  0.7838 -0.1529
  146SAPE  H16X16074   5.732   1.986   4.685  0.0830 -2.3322  2.4778
  146SAPE  H16Y16075   5.826   2.049   4.819  0.8564  0.6415 -0.4710
  146SAPE  C31716076   5.704   2.200   4.712  0.9854 -0.5620 -0.1124
  146SAPE  H17X16077   5.727   2.276   4.790 -1.1208  2.6992 -2.4291
  146SAPE  H17Y16078   5.600   2.213   4.677  0.0584 -1.0016  2.2828
  146SAPE  C31816079   5.804   2.221   4.597  0.3042 -0.2232  0.3555
  146SAPE  H18X16080   5.908   2.217   4.634 -0.7885 -2.3069  3.6723
  146SAPE  H18Y16081   5.793   2.324   4.557 -0.5861 -0.4728 -0.0739
  146SAPE  H18Z16082   5.784   2.160   4.507 -1.7635  1.1095 -0.1603
  147SAPE     N16083   4.241   5.158   7.447  0.6151  0.2630 -0.1454
  147SAPE   HN116084   4.257   5.261   7.453  0.4126  0.3597 -1.1657
  147SAPE   HN216085   4.200   5.119   7.535  1.0437  0.1362  0.0022
  147SAPE   HN316086   4.333   5.110   7.437  2.3276  2.4599  3.0431
  147SAPE   C1216087   4.153   5.143   7.326 -0.4787 -0.3431 -0.0090
  147SAPE  H12A16088   4.050   5.182   7.344 -0.8578 -1.6205  0.7141
  147SAPE  H12B16089   4.141   5.036   7.297 -4.3040 -0.1086  0.1990
  147SAPE   C1116090   4.207   5.228   7.196  0.1353 -0.8503  0.1767
  147SAPE  H11A16091   4.157   5.171   7.115 -0.6509 -1.2913  0.9624
  147SAPE  H11B16092   4.316   5.209   7.194  0.0450 -1.3603 -0.2954
  147SAPE     P16093   4.250   5.480   7.269  0.1746 -0.2988  0.2321
  147SAPE   O1316094   4.181   5.616   7.265 -0.1889  0.1323 -0.2729
  147SAPE   O1416095   4.283   5.431   7.400  0.2304  0.2540 -0.0938
  147SAPE   O1216096   4.165   5.367   7.202  0.7240 -0.4505  0.2890
  147SAPE   O1116097   4.368   5.480   7.177 -0.3181  0.0133 -0.3318
  147SAPE    C116098   4.398   5.571   7.069 -0.0288  0.0606 -0.5187
  147SAPE    HA16099   4.357   5.672   7.089  2.2632  0.4940  2.7257
  147SAPE    HB16100   4.508   5.580   7.055  0.1978  1.6894  1.7493
  147SAPE    C216101   4.344   5.496   6.937 -0.3305 -0.0677 -0.4684
  147SAPE    HS16102   4.235   5.480   6.947 -0.3849  0.5226 -0.1101
  147SAPE   O2116103   4.417   5.373   6.921 -0.1060  0.3833  0.3146
  147SAPE   C2116104   4.352   5.267   6.889  0.1495  0.3075  0.4958
  147SAPE   O2216105   4.230   5.266   6.866  0.1676  0.1347  0.3815
  147SAPE   C2216106   4.437   5.148   6.902  0.2653  0.5858  0.3628
  147SAPE   H2R16107   4.486   5.149   7.002 -0.4019  0.9950  0.6966
  147SAPE   H2S16108   4.361   5.067   6.895  0.2691  0.4192  1.8125
  147SAPE    C316109   4.365   5.577   6.807 -0.3126 -0.1428 -0.4370
  147SAPE    HX16110   4.476   5.576   6.798 -0.2476 -1.9518  0.0035
  147SAPE    HY16111   4.332   5.682   6.816  0.1157 -0.1032  0.9758
  147SAPE   O3116112   4.318   5.507   6.684  0.0867  0.1916  0.1643
  147SAPE   C3116113   4.186   5.520   6.673 -0.3928  0.3074 -0.0774
  147SAPE   O3216114   4.114   5.584   6.749 -0.4758  0.2494  0.9230
  147SAPE   C3216115   4.144   5.453   6.544  0.6102 -1.0692  0.7649
  147SAPE   H2X16116   4.033   5.442   6.539  0.7665 -2.2647 -1.8003
  147SAPE   H2Y16117   4.199   5.357   6.540  0.3848 -1.1520 -0.8971
  147SAPE   C2316118   4.545   5.130   6.793 -0.4518  0.4408 -0.3518
  147SAPE   H3R16119   4.582   5.026   6.808  1.5995  1.3122  1.0133
  147SAPE   H3S16120   4.627   5.199   6.822 -1.0733  0.4582  1.5009
  147SAPE   C2416121   4.491   5.162   6.649  0.2511  0.3875 -1.0075
  147SAPE   H4R16122   4.465   5.269   6.641  1.1311  0.5849 -1.3703
  147SAPE   H4S16123   4.398   5.102   6.633  0.0096  0.6401 -0.5755
  147SAPE   C2516124   4.592   5.127   6.543 -0.1795 -0.3804  0.0396
  147SAPE   H5R16125   4.663   5.044   6.555  1.9298  1.2136 -0.6554
  147SAPE   C2616126   4.610   5.192   6.425 -0.7112  0.1851  0.6913
  147SAPE   H6R16127   4.682   5.151   6.353 -0.7420  3.2179 -1.2779
  147SAPE   C2716128   4.546   5.325   6.392  0.9787  0.0714  0.3302
  147SAPE   H7R16129   4.541   5.386   6.484  0.6815 -0.3592  0.6028
  147SAPE   H7S16130   4.444   5.308   6.351  1.2459  3.0722 -1.9311
  147SAPE   C2816131   4.627   5.400   6.284 -0.0107  1.8101 -0.0946
  147SAPE   H8R16132   4.716   5.452   6.324 -0.0243  3.2119 -1.7771
  147SAPE   C2916133   4.605   5.418   6.152 -0.5192 -0.5638 -0.2908
  147SAPE   H9R16134   4.685   5.465   6.094 -0.3526 -1.8585 -1.1433
  147SAPE  C21016135   4.487   5.367   6.078  0.3997 -0.5745 -0.1936
  147SAPE  H10R16136   4.453   5.452   6.014 -0.4294 -1.3739 -0.8455
  147SAPE  H10S16137   4.396   5.353   6.140 -0.1318 -3.9350 -1.5082
  147SAPE  C21116138   4.529   5.251   5.991 -0.3157 -0.4644  0.5403
  147SAPE  H11R16139   4.533   5.154   6.043  1.1270 -0.1169  1.1029
  147SAPE  C21216140   4.552   5.254   5.857  0.6416 -0.3928  0.2486
  147SAPE  H12R16141   4.584   5.159   5.813 -0.4228 -0.4181 -0.5125
  147SAPE  C21316142   4.559   5.391   5.787 -0.3878  0.2047 -0.1181
  147SAPE  H13R16143   4.576   5.470   5.863 -0.7865  0.3595 -0.1903
  147SAPE  H13S16144   4.460   5.420   5.747 -0.2230  2.3376  0.8856
  147SAPE  C21416145   4.664   5.412   5.679  0.0799 -0.1565 -0.4130
  147SAPE  H14R16146   4.748   5.474   5.714  0.7508 -1.2722 -0.0156
  147SAPE  C21516147   4.662   5.382   5.545  0.3639  0.2538  0.4486
  147SAPE  H15R16148   4.744   5.412   5.479 -0.0454 -1.9442 -1.1931
  147SAPE  C21616149   4.561   5.296   5.481  0.8412  0.6643 -0.0973
  147SAPE  H16R16150   4.488   5.243   5.546  0.8282 -1.5402 -1.8006
  147SAPE  H16S16151   4.607   5.212   5.426  0.2731  1.5354 -1.9613
  147SAPE  C21716152   4.481   5.384   5.373 -0.2611  0.2818  0.7991
  147SAPE  H17R16153   4.420   5.462   5.425 -1.4890  1.4481 -2.1852
  147SAPE  H17S16154   4.410   5.310   5.331 -0.3256 -0.6132  2.4068
  147SAPE  C21816155   4.558   5.465   5.268 -0.6945 -0.3223  0.2030
  147SAPE  H18R16156   4.612   5.387   5.210  3.4323  3.6861 -1.9628
  147SAPE  H18S16157   4.632   5.531   5.317  0.8899 -2.3086  0.6223
  147SAPE  C21916158   4.469   5.543   5.175  0.0190  0.0485  0.3531
  147SAPE  H19R16159   4.494   5.650   5.187 -0.3031  0.0185  1.3576
  147SAPE  H19S16160   4.365   5.555   5.214  0.4531  1.3457  1.1625
  147SAPE  C22016161   4.451   5.498   5.030  0.4009  0.1140 -0.4504
  147SAPE  H20R16162   4.370   5.422   5.024  0.3348  0.2408 -1.2918
  147SAPE  H20S16163   4.536   5.449   4.978 -2.2037 -3.6928 -1.5062
  147SAPE  H20T16164   4.421   5.580   4.960  3.0342  0.3102 -1.4671
  147SAPE   C3316165   4.187   5.542   6.422  0.0638 -0.5479 -0.0975
  147SAPE   H3X16166   4.296   5.550   6.406 -0.1436 -0.1982 -1.4326
  147SAPE   H3Y16167   4.147   5.645   6.434 -0.0279 -0.6386  0.3938
  147SAPE   C3416168   4.136   5.478   6.286 -0.2358 -0.4739 -1.0171
  147SAPE   H4X16169   4.027   5.459   6.294 -0.0841 -0.5569  2.6942
  147SAPE   H4Y16170   4.191   5.384   6.266  2.0574  1.0237 -2.1706
  147SAPE   C3516171   4.174   5.575   6.174 -0.1070  0.0707  0.9693
  147SAPE   H5X16172   4.285   5.580   6.165 -0.0009 -1.2710  1.2933
  147SAPE   H5Y16173   4.133   5.676   6.198 -0.9870  0.0804 -0.4455
  147SAPE   C3616174   4.097   5.532   6.052 -0.2923  0.1875  0.7901
  147SAPE   H6X16175   3.987   5.539   6.067 -0.5868 -1.1626 -0.4755
  147SAPE   H6Y16176   4.113   5.422   6.039  1.1453  0.4435  0.1994
  147SAPE   C3716177   4.144   5.605   5.925 -0.6724  0.0382  0.2841
  147SAPE   H7X16178   4.255   5.598   5.930 -0.6949  0.3841  1.7277
  147SAPE   H7Y16179   4.123   5.713   5.941  0.6962  0.4817 -0.7661
  147SAPE   C3816180   4.109   5.553   5.786  0.5506  0.4340  0.0198
  147SAPE   H8X16181   3.998   5.555   5.779  0.6041  1.2409 -0.8663
  147SAPE   H8Y16182   4.147   5.451   5.766 -0.0463  0.1790  0.1628
  147SAPE   C3916183   4.174   5.643   5.675  0.0684  0.3934  0.3671
  147SAPE   H9X16184   4.285   5.637   5.670  0.2385  3.0051 -3.7374
  147SAPE   H9Y16185   4.149   5.750   5.692 -0.1626  0.2516  0.9580
  147SAPE  C31016186   4.112   5.600   5.542 -0.0429  0.9343 -0.4028
  147SAPE  H10X16187   4.002   5.606   5.544 -0.0938  0.0631 -0.2137
  147SAPE  H10Y16188   4.136   5.493   5.522 -1.9770  0.6878 -1.6252
  147SAPE  C31116189   4.162   5.673   5.418  0.1448  0.2822  0.2328
  147SAPE  H11X16190   4.255   5.621   5.387 -0.8018 -3.1451  2.5631
  147SAPE  H11Y16191   4.175   5.783   5.430 -2.7810  0.6620  0.8060
  147SAPE  C31216192   4.050   5.662   5.311 -0.3867 -0.6577  0.6535
  147SAPE  H12X16193   3.964   5.723   5.346 -0.2804 -0.7710  1.1238
  147SAPE  H12Y16194   4.015   5.557   5.313 -2.4028 -0.0365 -0.4628
  147SAPE  C31316195   4.091   5.695   5.162 -0.0037  0.4879  0.7698
  147SAPE  H13X16196   4.012   5.648   5.100 -0.3520  1.5152  0.4076
  147SAPE  H13Y16197   4.189   5.649   5.141  0.8659  1.9529  1.4489
  147SAPE  C31416198   4.099   5.843   5.119  0.0770  0.0824  0.0027
  147SAPE  H14X16199   4.167   5.904   5.183  1.8776 -1.0310 -0.7639
  147SAPE  H14Y16200   4.001   5.894   5.134  0.8666  0.9143  3.3152
  147SAPE  C31516201   4.162   5.852   4.979  0.5417 -0.4317  0.0182
  147SAPE  H15X16202   4.108   5.779   4.915 -1.6511  0.9071  0.2049
  147SAPE  H15Y16203   4.269   5.826   4.988  0.3033 -1.6194 -0.3802
  147SAPE  C31616204   4.158   5.991   4.906 -0.1877 -0.6796 -0.4885
  147SAPE  H16X16205   4.224   6.060   4.963 -0.2662 -1.2934  0.3800
  147SAPE  H16Y16206   4.056   6.033   4.923 -0.1216 -0.8826  0.4856
  147SAPE  C31716207   4.200   5.971   4.754  0.8803 -0.7073  0.4006
  147SAPE  H17X16208   4.189   6.071   4.707  2.1802  0.0025  1.5474
  147SAPE  H17Y16209   4.126   5.896   4.720 -1.1185  0.9095  1.0424
  147SAPE  C31816210   4.340   5.908   4.727  0.1150 -0.3537 -0.3375
  147SAPE  H18X16211   4.338   5.885   4.619  0.4967  0.0017 -0.4203
  147SAPE  H18Y16212   4.343   5.819   4.793  0.7760 -0.4135 -0.4491
  147SAPE  H18Z16213   4.412   5.988   4.754 -0.3633 -0.5623  1.7437
  148SAPE     N16214   3.605   6.093   7.479 -0.1760 -0.1398  0.1812
  148SAPE   HN116215   3.642   6.118   7.573  2.2277  0.7821 -0.9090
  148SAPE   HN216216   3.581   6.192   7.458 -0.1760 -0.3083 -0.6393
  148SAPE   HN316217   3.516   6.039   7.484  0.0609 -0.4341  1.5684
  148SAPE   C1216218   3.695   6.021   7.390  0.1532 -0.0633  0.1869
  148SAPE  H12A16219   3.740   5.928   7.431  2.5450  0.8641 -0.1989
  148SAPE  H12B16220   3.782   6.089   7.377 -1.1029  1.5773 -0.0614
  148SAPE   C1116221   3.622   6.005   7.260  0.5000 -0.8394  0.3337
  148SAPE  H11A16222   3.703   6.010   7.184  0.2401 -0.8071  0.0610
  148SAPE  H11B16223   3.561   6.091   7.225 -0.6388 -1.7919 -0.0717
  148SAPE     P16224   3.403   5.875   7.294  0.3050 -0.0575 -0.0103
  148SAPE   O1316225   3.369   5.738   7.272  0.1407  0.4557 -0.1692
  148SAPE   O1416226   3.394   5.920   7.434 -0.4338 -0.1964 -0.1609
  148SAPE   O1216227   3.549   5.881   7.244 -0.8264  0.7323 -0.3776
  148SAPE   O1116228   3.326   5.973   7.198 -0.5317  0.4477 -0.0952
  148SAPE    C116229   3.355   5.985   7.057 -0.9074  0.0170  0.3179
  148SAPE    HA16230   3.464   5.994   7.042 -1.0805 -0.4200 -1.3870
  148SAPE    HB16231   3.313   5.895   7.007 -2.7643  1.8816 -1.7289
  148SAPE    C216232   3.310   6.121   6.997 -0.3924  0.4154 -0.5436
  148SAPE    HS16233   3.200   6.109   7.007 -0.1202 -0.7883  1.6455
  148SAPE   O2116234   3.356   6.116   6.864 -0.6285 -0.2035  0.2533
  148SAPE   C2116235   3.264   6.144   6.770  0.2667 -0.2244  0.1377
  148SAPE   O2216236   3.148   6.174   6.790  0.0439 -0.1353 -0.5001
  148SAPE   C2216237   3.334   6.136   6.636  0.5568  0.0640 -0.2103
  148SAPE   H2R16238   3.437   6.178   6.639  0.4019  0.4188  0.3845
  148SAPE   H2S16239   3.341   6.029   6.608  0.8514  0.3080 -1.0876
  148SAPE    C316240   3.360   6.242   7.074  0.2454 -0.5918  0.0709
  148SAPE    HX16241   3.470   6.233   7.069  0.0651 -2.5364 -1.2005
  148SAPE    HY16242   3.335   6.238   7.182 -0.9872  0.9270 -0.1222
  148SAPE   O3116243   3.314   6.367   7.020  0.0814  0.1838  0.4789
  148SAPE   C3116244   3.203   6.414   7.069  0.4107 -1.1852  0.3149
  148SAPE   O3216245   3.125   6.359   7.143  0.6241  0.0563  0.1712
  148SAPE   C3216246   3.180   6.556   7.016  0.2907  0.5820 -0.2541
  148SAPE   H2X16247   3.268   6.618   7.044  0.4880  0.7366 -1.2026
  148SAPE   H2Y16248   3.094   6.594   7.076  0.0396  1.7497 -1.3221
  148SAPE   C2316249   3.262   6.213   6.525 -0.4005 -0.3409 -0.2069
  148SAPE   H3R16250   3.152   6.215   6.539 -0.6463  3.0079 -1.6320
  148SAPE   H3S16251   3.271   6.157   6.430  0.1035  0.2382 -0.5063
  148SAPE   C2416252   3.308   6.361   6.509 -0.5868 -0.2807  0.0007
  148SAPE   H4R16253   3.418   6.380   6.508 -0.6369  0.2628 -2.6531
  148SAPE   H4S16254   3.274   6.421   6.597  2.7731  1.6597  0.1592
  148SAPE   C2516255   3.252   6.437   6.393 -0.1589 -0.1007  0.1632
  148SAPE   H5R16256   3.182   6.515   6.426 -1.5013 -1.2886  0.2052
  148SAPE   C2616257   3.268   6.434   6.254  0.5881  1.2093 -0.0222
  148SAPE   H6R16258   3.211   6.504   6.191  0.1945  2.4573  1.6476
  148SAPE   C2716259   3.364   6.340   6.196  0.2294 -0.1636  0.1477
  148SAPE   H7R16260   3.366   6.249   6.259  0.3085 -1.0923 -1.1468
  148SAPE   H7S16261   3.466   6.383   6.204 -0.5245  1.8031 -0.2415
  148SAPE   C2816262   3.330   6.297   6.052  0.0508 -0.2496  0.1888
  148SAPE   H8R16263   3.260   6.211   6.046 -0.2600  0.0327 -0.3134
  148SAPE   C2916264   3.389   6.343   5.935  0.1952 -0.7845 -0.3591
  148SAPE   H9R16265   3.363   6.291   5.841  2.2730 -1.3041 -0.6882
  148SAPE  C21016266   3.496   6.448   5.928 -0.3397 -0.1816 -0.9780
  148SAPE  H10R16267   3.581   6.396   5.978 -1.7164 -1.4387  0.1908
  148SAPE  H10S16268   3.477   6.537   5.991 -1.2301 -1.5026  0.7257
  148SAPE  C21116269   3.539   6.489   5.792 -0.1983  0.2281 -0.2306
  148SAPE  H11R16270   3.642   6.458   5.767 -0.0718  1.0231 -0.7558
  148SAPE  C21216271   3.478   6.583   5.711  0.5726 -0.1766  0.4465
  148SAPE  H12R16272   3.518   6.608   5.612  0.5567 -0.6710  0.3094
  148SAPE  C21316273   3.355   6.669   5.739  0.4139 -0.5082 -0.0136
  148SAPE  H13R16274   3.374   6.778   5.727 -1.4669 -0.2472 -0.9303
  148SAPE  H13S16275   3.330   6.651   5.846 -0.2474 -0.4392 -0.1518
  148SAPE  C21416276   3.238   6.612   5.661 -0.2255  0.3300  0.2879
  148SAPE  H14R16277   3.228   6.503   5.664 -1.7637  0.3357 -2.1054
  148SAPE  C21516278   3.160   6.670   5.569 -0.2363  0.8141  0.0785
  148SAPE  H15R16279   3.071   6.623   5.525  1.7753 -1.5562 -1.7470
  148SAPE  C21616280   3.176   6.823   5.549  1.0480 -0.5962  0.3855
  148SAPE  H16R16281   3.181   6.845   5.441 -0.8852  0.3969  0.4497
  148SAPE  H16S16282   3.274   6.867   5.578  0.0415  3.5403 -1.7773
  148SAPE  C21716283   3.046   6.893   5.593  0.5109  0.4250 -0.4493
  148SAPE  H17R16284   3.070   6.998   5.620  1.2133  0.1157  0.1609
  148SAPE  H17S16285   3.011   6.852   5.690  2.3604  0.0610  0.0897
  148SAPE  C21816286   2.925   6.890   5.495 -0.6774 -0.0877  0.6808
  148SAPE  H18R16287   2.899   6.782   5.483  0.2008 -0.2660  0.3686
  148SAPE  H18S16288   2.954   6.930   5.396 -0.5735  0.1370  0.8015
  148SAPE  C21916289   2.800   6.966   5.536 -0.6313 -0.3008 -1.1729
  148SAPE  H19R16290   2.823   7.067   5.577  0.5146 -0.4407 -1.4333
  148SAPE  H19S16291   2.750   6.906   5.615 -1.2343  1.4730 -0.1367
  148SAPE  C22016292   2.693   6.982   5.428  0.0370  0.1503 -0.1573
  148SAPE  H20R16293   2.608   7.050   5.449  1.1021  1.0221  1.5475
  148SAPE  H20S16294   2.649   6.881   5.414  0.5945  0.1100 -1.9856
  148SAPE  H20T16295   2.734   7.014   5.329  2.0397 -1.2421  0.1844
  148SAPE   C3316296   3.153   6.553   6.863 -0.0554 -0.1512  0.7055
  148SAPE   H3X16297   3.204   6.463   6.822 -0.8183 -0.6298  0.7784
  148SAPE   H3Y16298   3.203   6.644   6.825 -1.8994  0.7785  0.3714
  148SAPE   C3416299   3.007   6.554   6.830  0.5724  0.0842 -0.2308
  148SAPE   H4X16300   2.956   6.643   6.872 -0.0572 -0.0177 -0.7773
  148SAPE   H4Y16301   2.953   6.471   6.880 -2.6774  2.7437  1.0580
  148SAPE   C3516302   2.978   6.552   6.675  0.2769  0.1645  0.4069
  148SAPE   H5X16303   3.036   6.471   6.625  0.2857  0.3089  0.1823
  148SAPE   H5Y16304   3.012   6.650   6.637  0.2820  0.0327  0.0707
  148SAPE   C3616305   2.833   6.512   6.640  0.1160  0.7266  0.5714
  148SAPE   H6X16306   2.765   6.596   6.665  0.0730  0.2103  2.3243
  148SAPE   H6Y16307   2.808   6.417   6.693  2.0282 -0.9734 -1.3550
  148SAPE   C3716308   2.817   6.496   6.484  0.0119  0.0122 -0.8527
  148SAPE   H7X16309   2.711   6.471   6.466  0.2691 -1.7682 -0.1942
  148SAPE   H7Y16310   2.881   6.408   6.457  0.3128 -0.2495  0.5905
  148SAPE   C3816311   2.855   6.619   6.401  0.0127 -0.0010 -0.3688
  148SAPE   H8X16312   2.965   6.622   6.415  0.2346  1.3506 -2.0146
  148SAPE   H8Y16313   2.808   6.711   6.443 -0.2877  0.1926 -1.1063
  148SAPE   C3916314   2.831   6.616   6.244 -0.2057 -0.4311  0.7046
  148SAPE   H9X16315   2.862   6.711   6.196 -1.0603  0.2519  1.4708
  148SAPE   H9Y16316   2.721   6.604   6.230 -0.0962 -0.3953 -0.2278
  148SAPE  C31016317   2.893   6.491   6.175 -0.5692  0.1694 -0.7923
  148SAPE  H10X16318   2.815   6.412   6.183 -0.7889  0.1208 -2.9859
  148SAPE  H10Y16319   2.983   6.459   6.232 -0.3723 -2.0870 -2.2356
  148SAPE  C31116320   2.919   6.495   6.032 -0.2968 -0.5219 -1.1760
  148SAPE  H11X16321   2.982   6.409   6.000  0.8855  0.5045 -1.7155
  148SAPE  H11Y16322   2.978   6.586   6.004  1.0753 -0.3083  1.9861
  148SAPE  C31216323   2.794   6.507   5.942 -0.0063  0.5514 -0.6690
  148SAPE  H12X16324   2.754   6.610   5.955  3.1299  1.8683 -0.7284
  148SAPE  H12Y16325   2.720   6.429   5.973  1.8198 -0.3915  1.5818
  148SAPE  C31316326   2.833   6.498   5.793  0.6235 -0.5180  0.7165
  148SAPE  H13X16327   2.881   6.399   5.777 -0.2731 -1.2073  2.1364
  148SAPE  H13Y16328   2.908   6.574   5.759 -0.9965  0.1721 -1.5301
  148SAPE  C31416329   2.712   6.500   5.694  0.9967 -0.3527  0.2440
  148SAPE  H14X16330   2.640   6.584   5.701  0.5030 -0.8032  0.6201
  148SAPE  H14Y16331   2.652   6.408   5.715  0.3682  0.2024  0.9315
  148SAPE  C31516332   2.757   6.494   5.552  0.3463  0.0244  1.0373
  148SAPE  H15X16333   2.794   6.390   5.544 -0.3151 -0.1222 -0.6987
  148SAPE  H15Y16334   2.844   6.559   5.527  1.2197 -1.1191  1.0433
  148SAPE  C31616335   2.658   6.503   5.435 -0.9010 -0.3051 -0.1619
  148SAPE  H16X16336   2.613   6.604   5.429 -2.2907 -0.9313 -0.6760
  148SAPE  H16Y16337   2.567   6.443   5.454 -1.0230 -0.7547 -1.9482
  148SAPE  C31716338   2.720   6.479   5.296  0.0962 -0.1116 -0.3272
  148SAPE  H17X16339   2.629   6.489   5.232  0.6833 -1.0052 -1.3372
  148SAPE  H17Y16340   2.761   6.376   5.290  0.3183 -0.0118 -0.5521
  148SAPE  C31816341   2.819   6.580   5.245  0.1072 -0.0801  0.7399
  148SAPE  H18X16342   2.912   6.577   5.305 -0.4808 -1.8216  1.6341
  148SAPE  H18Y16343   2.772   6.681   5.239 -0.0480 -0.1891  0.0596
  148SAPE  H18Z16344   2.856   6.540   5.148 -1.8762 -0.9833  0.3027
  149SAPE     N16345   2.802   4.853   7.432  0.3335 -0.0935  0.5772
  149SAPE   HN116346   2.855   4.937   7.399 -2.0294  1.1712 -0.1869
  149SAPE   HN216347   2.781   4.882   7.530 -0.6750 -3.0163  1.3104
  149SAPE   HN316348   2.863   4.768   7.438 -0.4610 -0.6288  1.2541
  149SAPE   C1216349   2.687   4.824   7.342  0.0755  0.6532 -0.3932
  149SAPE  H12A16350   2.717   4.768   7.250 -1.9062  0.4566 -0.9664
  149SAPE  H12B16351   2.663   4.923   7.297 -1.5326 -0.2375 -1.6208
  149SAPE   C1116352   2.564   4.766   7.423 -0.5189 -0.1470  0.0952
  149SAPE  H11A16353   2.542   4.837   7.506  0.1270  1.7470 -1.2738
  149SAPE  H11B16354   2.590   4.672   7.476 -0.3209 -0.1692 -0.0401
  149SAPE     P16355   2.391   4.628   7.298 -0.3402  0.0848 -0.1721
  149SAPE   O1316356   2.365   4.545   7.417 -0.4772 -0.7870 -0.2396
  149SAPE   O1416357   2.268   4.651   7.222 -0.0561 -0.2931  0.2095
  149SAPE   O1216358   2.446   4.766   7.350  0.1668  0.3620 -0.0624
  149SAPE   O1116359   2.502   4.565   7.208 -0.6499  0.4018 -0.5450
  149SAPE    C116360   2.541   4.593   7.076 -0.1006 -0.9294  0.0808
  149SAPE    HA16361   2.500   4.691   7.044 -0.4579 -0.7912  0.9176
  149SAPE    HB16362   2.651   4.604   7.063  0.3912 -1.1756  3.2270
  149SAPE    C216363   2.511   4.474   6.978 -0.1627  0.0576 -0.4686
  149SAPE    HS16364   2.437   4.400   7.015 -0.5218 -0.2591 -1.7874
  149SAPE   O2116365   2.647   4.416   6.957  0.5287 -0.2005 -0.3494
  149SAPE   C2116366   2.660   4.284   6.956 -0.0832 -0.3629  0.3299
  149SAPE   O2216367   2.570   4.204   6.985 -0.9096  0.7034  0.6202
  149SAPE   C2216368   2.793   4.245   6.889  0.4139 -0.2081 -0.9257
  149SAPE   H2R16369   2.847   4.337   6.859 -0.9643  0.7729 -0.5080
  149SAPE   H2S16370   2.852   4.185   6.961  1.6911  4.0535  1.9502
  149SAPE    C316371   2.455   4.523   6.840  0.7666  0.2463 -0.6110
  149SAPE    HX16372   2.540   4.576   6.791  1.3827 -0.0749  0.0875
  149SAPE    HY16373   2.378   4.602   6.854  0.1638 -0.6269  1.2993
  149SAPE   O3116374   2.412   4.412   6.758 -0.4083 -0.0237 -0.2179
  149SAPE   C3116375   2.283   4.383   6.778  0.2526  1.0013 -0.1353
  149SAPE   O3216376   2.208   4.436   6.860 -0.8008  0.4022  0.3284
  149SAPE   C3216377   2.245   4.267   6.685 -0.3471  0.4360  0.0770
  149SAPE   H2X16378   2.146   4.292   6.642  0.9060 -0.4114 -3.6739
  149SAPE   H2Y16379   2.222   4.188   6.760 -0.2256  0.4105  0.0881
  149SAPE   C2316380   2.767   4.157   6.765 -0.1455  0.1017 -0.3327
  149SAPE   H3R16381   2.684   4.207   6.711 -1.1814 -0.6481  0.5240
  149SAPE   H3S16382   2.732   4.055   6.793  2.2520 -0.6820  0.0421
  149SAPE   C2416383   2.880   4.162   6.664  0.0452 -0.1173  0.3331
  149SAPE   H4R16384   2.969   4.115   6.711 -0.6691 -0.8813  0.9514
  149SAPE   H4S16385   2.911   4.266   6.642  1.4023 -0.3242  1.1769
  149SAPE   C2516386   2.831   4.077   6.544 -0.0276 -0.3578 -0.0628
  149SAPE   H5R16387   2.798   3.977   6.579 -2.2881  0.7099  1.1327
  149SAPE   C2616388   2.818   4.122   6.415 -0.7034 -0.0570 -0.3588
  149SAPE   H6R16389   2.768   4.059   6.339 -1.1354 -0.2419  0.0738
  149SAPE   C2716390   2.865   4.260   6.375 -0.2280  0.9071 -0.1977
  149SAPE   H7R16391   2.927   4.249   6.284  0.9608  1.1673  0.5523
  149SAPE   H7S16392   2.937   4.298   6.451 -1.1009  0.2440  1.0136
  149SAPE   C2816393   2.759   4.354   6.366  0.7614 -0.3690 -0.1410
  149SAPE   H8R16394   2.717   4.390   6.461  0.9752  0.6952 -0.4330
  149SAPE   C2916395   2.708   4.400   6.252 -0.0246 -0.2998 -0.0533
  149SAPE   H9R16396   2.639   4.485   6.248  2.0565  1.4574 -1.4691
  149SAPE  C21016397   2.729   4.355   6.118 -0.0809 -0.2307  0.6007
  149SAPE  H10R16398   2.633   4.333   6.067 -0.0388 -0.4830  0.6292
  149SAPE  H10S16399   2.770   4.252   6.119 -1.1298 -0.6509  1.8153
  149SAPE  C21116400   2.811   4.464   6.052  0.6095 -0.5182 -0.0343
  149SAPE  H11R16401   2.864   4.530   6.122  1.3812 -2.1100  0.9400
  149SAPE  C21216402   2.818   4.497   5.923 -0.2034 -0.0718 -0.8047
  149SAPE  H12R16403   2.885   4.582   5.907 -1.8041  1.2400 -0.8279
  149SAPE  C21316404   2.738   4.454   5.800 -0.3807  0.4621 -0.0348
  149SAPE  H13R16405   2.770   4.520   5.716  1.1991  0.0299  0.2039
  149SAPE  H13S16406   2.631   4.485   5.812  0.4114  3.6759 -0.2086
  149SAPE  C21416407   2.770   4.304   5.769  0.0797 -0.1129 -0.1236
  149SAPE  H14R16408   2.808   4.249   5.856 -2.8351  0.0559  1.3860
  149SAPE  C21516409   2.723   4.233   5.668 -0.0206 -0.0269  0.0308
  149SAPE  H15R16410   2.757   4.129   5.655 -1.3660 -0.4641 -0.0771
  149SAPE  C21616411   2.651   4.281   5.548 -0.3174  0.2103 -0.2990
  149SAPE  H16R16412   2.551   4.324   5.573 -1.1270 -1.6631 -0.1410
  149SAPE  H16S16413   2.629   4.190   5.489  2.0261 -2.5049  2.6724
  149SAPE  C21716414   2.733   4.377   5.454 -0.1675 -0.1783  0.0266
  149SAPE  H17R16415   2.836   4.340   5.436 -0.1242  0.7166 -1.7304
  149SAPE  H17S16416   2.740   4.475   5.507  1.2439 -0.2290 -0.0108
  149SAPE  C21816417   2.675   4.400   5.318 -0.0218 -0.3555  0.4666
  149SAPE  H18R16418   2.569   4.431   5.323  0.0439 -0.2124  0.9945
  149SAPE  H18S16419   2.686   4.300   5.270 -2.7235 -0.8166  0.6662
  149SAPE  C21916420   2.767   4.498   5.244 -0.0862 -0.0690 -0.3379
  149SAPE  H19R16421   2.871   4.474   5.275  0.5890  0.2877 -2.2371
  149SAPE  H19S16422   2.744   4.601   5.277 -0.3200  0.2160 -1.3690
  149SAPE  C22016423   2.766   4.503   5.094 -0.5389 -0.2667  0.0747
  149SAPE  H20R16424   2.791   4.411   5.037  2.1807  1.7027 -2.1303
  149SAPE  H20S16425   2.832   4.582   5.054  0.9531 -1.8747 -0.7505
  149SAPE  H20T16426   2.661   4.529   5.068 -1.1355  0.9795  3.2123
  149SAPE   C3316427   2.341   4.226   6.570  0.2098 -0.9325 -0.3607
  149SAPE   H3X16428   2.441   4.204   6.612 -0.6724 -2.7124  0.8980
  149SAPE   H3Y16429   2.347   4.309   6.496  0.4385  0.4128  1.1049
  149SAPE   C3416430   2.292   4.106   6.495  0.2475  0.4023  0.1084
  149SAPE   H4X16431   2.194   4.135   6.452  0.3940  0.7359 -0.0018
  149SAPE   H4Y16432   2.276   4.019   6.563 -0.4606  1.9366  2.0255
  149SAPE   C3516433   2.387   4.084   6.374  0.3802 -0.3770 -0.3507
  149SAPE   H5X16434   2.489   4.109   6.408 -0.2151  2.5129 -0.4059
  149SAPE   H5Y16435   2.346   4.165   6.309 -1.7308 -0.2536  1.0207
  149SAPE   C3616436   2.385   3.955   6.294 -0.2378 -0.5553  0.4622
  149SAPE   H6X16437   2.281   3.917   6.287 -0.5585 -0.5202  3.7344
  149SAPE   H6Y16438   2.433   3.876   6.356 -0.3100 -1.0360 -0.0892
  149SAPE   C3716439   2.470   3.959   6.163  0.4887  0.2651  0.1170
  149SAPE   H7X16440   2.524   3.864   6.142  0.6073  0.1749  0.8040
  149SAPE   H7Y16441   2.557   4.028   6.168  1.1683 -0.5336 -0.3812
  149SAPE   C3816442   2.374   3.981   6.039  0.1175 -0.4173 -0.3508
  149SAPE   H8X16443   2.306   4.066   6.063 -2.5813 -2.1421 -1.4419
  149SAPE   H8Y16444   2.307   3.893   6.028  0.1394 -0.0954 -4.0615
  149SAPE   C3916445   2.443   4.009   5.906  0.3462  1.4733  0.0049
  149SAPE   H9X16446   2.508   3.922   5.885 -1.8205 -0.3667  0.5209
  149SAPE   H9Y16447   2.515   4.094   5.906  1.0076  0.9903  2.7672
  149SAPE  C31016448   2.340   4.023   5.804  1.0564 -0.0899  0.2354
  149SAPE  H10X16449   2.256   4.085   5.843 -1.5565 -3.4587  0.4107
  149SAPE  H10Y16450   2.291   3.924   5.791 -0.8726  0.7297  0.8857
  149SAPE  C31116451   2.396   4.071   5.674 -0.1680 -0.0520 -0.8842
  149SAPE  H11X16452   2.507   4.070   5.669 -0.2104 -1.5185 -3.9374
  149SAPE  H11Y16453   2.365   4.174   5.647 -2.6536  0.1232  2.0411
  149SAPE  C31216454   2.353   3.985   5.557 -0.5072  0.7214  0.0512
  149SAPE  H12X16455   2.395   3.883   5.567  1.7800  1.6391  0.4157
  149SAPE  H12Y16456   2.413   4.025   5.472 -0.6742 -0.4313 -0.6328
  149SAPE  C31316457   2.204   3.995   5.529  0.2480 -0.6141 -0.4220
  149SAPE  H13X16458   2.165   4.097   5.547 -0.5970 -0.7304 -1.5109
  149SAPE  H13Y16459   2.147   3.918   5.585  1.8254 -1.2962  0.2985
  149SAPE  C31416460   2.168   3.971   5.377 -0.6260 -0.5237 -0.1589
  149SAPE  H14X16461   2.238   4.031   5.315 -0.0658  0.2802  1.2008
  149SAPE  H14Y16462   2.064   4.005   5.359  0.4771  2.6836 -1.0550
  149SAPE  C31516463   2.194   3.825   5.328  1.1561  0.0632  0.0185
  149SAPE  H15X16464   2.132   3.757   5.390  1.9271 -0.3802  0.3104
  149SAPE  H15Y16465   2.293   3.777   5.338  0.4633 -1.6616 -0.9339
  149SAPE  C31616466   2.142   3.827   5.180  0.5098  0.0252 -0.0823
  149SAPE  H16X16467   2.198   3.903   5.124  0.1262 -0.9567 -1.8714
  149SAPE  H16Y16468   2.041   3.873   5.177  0.4804 -0.0958 -1.0104
  149SAPE  C31716469   2.135   3.692   5.110  0.0555 -0.6422 -0.2345
  149SAPE  H17X16470   2.117   3.728   5.006  0.6242  2.3779  0.6233
  149SAPE  H17Y16471   2.048   3.637   5.152  0.0409  1.1737  2.3126
  149SAPE  C31816472   2.262   3.612   5.122  0.1622  0.3467  0.1997
  149SAPE  H18X16473   2.346   3.671   5.081 -1.2103 -0.1494 -3.7523
  149SAPE  H18Y16474   2.247   3.527   5.052 -1.5632  0.7869 -0.0214
  149SAPE  H18Z16475   2.284   3.577   5.225  0.3768 -2.5666 -0.7640
  150SAPE     N16476   5.911   4.108   7.393 -0.2670  0.2734 -0.5792
  150SAPE   HN116477   5.923   4.137   7.492  3.1027  1.6269 -1.2470
  150SAPE   HN216478   5.833   4.040   7.383 -0.0534  0.0697 -0.8980
  150SAPE   HN316479   5.994   4.048   7.376  0.5234  0.7111  1.3994
  150SAPE   C1216480   5.897   4.232   7.311 -0.1719  0.4453  0.2992
  150SAPE  H12A16481   5.821   4.302   7.352 -0.0588  0.4442  0.5089
  150SAPE  H12B16482   5.858   4.204   7.211 -0.3835  0.1826  0.4549
  150SAPE   C1116483   6.026   4.313   7.288 -0.8613  0.0282  0.2641
  150SAPE  H11A16484   6.048   4.375   7.378 -1.3488  1.6319 -0.6923
  150SAPE  H11B16485   6.017   4.389   7.208  1.3880 -0.1342 -0.2165
  150SAPE     P16486   6.198   4.185   7.134 -0.0385 -0.0723  0.4704
  150SAPE   O1316487   6.334   4.243   7.125 -0.0103 -0.6096 -0.6576
  150SAPE   O1416488   6.182   4.042   7.114  0.3033 -0.9025 -0.0307
  150SAPE   O1216489   6.140   4.232   7.273 -0.0549  0.1042  0.3295
  150SAPE   O1116490   6.102   4.248   7.024  0.6851  0.4116  0.1926
  150SAPE    C116491   6.116   4.384   6.982 -0.1769  0.0510 -0.4231
  150SAPE    HA16492   6.019   4.440   6.985  0.1981  0.7246  3.3786
  150SAPE    HB16493   6.175   4.456   7.042 -1.3467  2.4270 -1.9201
  150SAPE    C216494   6.152   4.397   6.829  0.9159  0.6758  0.0941
  150SAPE    HS16495   6.125   4.500   6.799 -0.0463  1.4037  3.1224
  150SAPE   O2116496   6.098   4.291   6.744 -0.5277  0.5611  0.6269
  150SAPE   C2116497   5.972   4.299   6.705 -0.0144 -0.2649 -0.2172
  150SAPE   O2216498   5.889   4.381   6.748  0.5328  0.7391 -0.6886
  150SAPE   C2216499   5.940   4.199   6.596  0.3654  0.0304  0.0662
  150SAPE   H2R16500   6.030   4.136   6.578 -0.1660 -0.6169 -0.3893
  150SAPE   H2S16501   5.852   4.137   6.622 -1.3869  0.7446 -3.5274
  150SAPE    C316502   6.308   4.376   6.821  0.3963  0.8735 -0.3059
  150SAPE    HX16503   6.332   4.280   6.871  1.1837  0.4236 -1.5008
  150SAPE    HY16504   6.363   4.458   6.873  0.1976 -0.1018  1.5086
  150SAPE   O3116505   6.355   4.367   6.689 -0.5622 -0.5076 -0.0015
  150SAPE   C3116506   6.364   4.249   6.634  0.4893 -0.0001 -0.7139
  150SAPE   O3216507   6.342   4.142   6.690  0.4305  0.3216 -0.2289
  150SAPE   C3216508   6.399   4.267   6.485  0.2742  0.1185  0.1838
  150SAPE   H2X16509   6.504   4.230   6.484  0.8207  1.5637  1.1260
  150SAPE   H2Y16510   6.402   4.375   6.459 -2.0794 -0.0739 -1.0912
  150SAPE   C2316511   5.934   4.270   6.462 -0.4248  0.4373 -0.3212
  150SAPE   H3R16512   6.031   4.312   6.429 -0.1942 -1.8146 -2.8659
  150SAPE   H3S16513   5.851   4.343   6.449 -0.0882  0.6830 -1.1400
  150SAPE   C2416514   5.912   4.168   6.345 -0.5974 -0.4249  0.4613
  150SAPE   H4R16515   5.966   4.073   6.369  1.2862  0.6054  0.4553
  150SAPE   H4S16516   5.956   4.206   6.251 -1.4703  0.5287  0.4197
  150SAPE   C2516517   5.769   4.141   6.318 -0.3974 -0.3996  0.0455
  150SAPE   H5R16518   5.703   4.115   6.402 -0.7137 -2.3545 -0.7532
  150SAPE   C2616519   5.710   4.138   6.194  0.4548 -0.2856  0.0010
  150SAPE   H6R16520   5.605   4.107   6.195  1.0286 -2.4925  2.5641
  150SAPE   C2716521   5.763   4.160   6.058  0.3367 -0.0516 -0.4250
  150SAPE   H7R16522   5.726   4.078   5.993  3.0709 -0.2206 -1.9492
  150SAPE   H7S16523   5.869   4.127   6.051  0.0147 -1.4302  0.7210
  150SAPE   C2816524   5.740   4.294   6.001  0.3742 -0.6460  0.6418
  150SAPE   H8R16525   5.680   4.374   6.048  1.2050  0.8129 -0.7053
  150SAPE   C2916526   5.800   4.331   5.889 -0.1475  0.2505 -0.4111
  150SAPE   H9R16527   5.786   4.431   5.846 -2.0595 -0.6152 -1.9268
  150SAPE  C21016528   5.882   4.242   5.801 -0.0538  0.2309  0.0020
  150SAPE  H10R16529   5.940   4.163   5.852  1.0985 -0.3789 -2.1351
  150SAPE  H10S16530   5.966   4.305   5.765  1.5446 -0.6494  2.0420
  150SAPE  C21116531   5.793   4.166   5.701 -0.1071  0.4331  1.2970
  150SAPE  H11R16532   5.728   4.091   5.748 -0.8032 -0.2934 -0.6881
  150SAPE  C21216533   5.800   4.180   5.564  0.2128  0.0948 -0.2344
  150SAPE  H12R16534   5.719   4.135   5.504 -0.1601 -1.1023  1.1235
  150SAPE  C21316535   5.887   4.275   5.481  0.4936 -0.0450 -0.3142
  150SAPE  H13R16536   5.896   4.224   5.383  0.3677 -1.4952  0.3996
  150SAPE  H13S16537   5.990   4.285   5.522 -0.0432 -1.1840  1.4138
  150SAPE  C21416538   5.841   4.415   5.477  0.0942 -0.7725  0.0706
  150SAPE  H14R16539   5.854   4.473   5.570 -1.3816  0.9979 -0.7500
  150SAPE  C21516540   5.776   4.482   5.380 -1.0666  0.3686 -0.0529
  150SAPE  H15R16541   5.751   4.589   5.389 -0.2870  0.5379  0.1127
  150SAPE  C21616542   5.725   4.419   5.249 -0.4279 -0.0025 -0.3102
  150SAPE  H16R16543   5.614   4.424   5.256 -0.3896  1.7975 -0.5390
  150SAPE  H16S16544   5.754   4.313   5.231 -1.4281 -1.1118  3.5407
  150SAPE  C21716545   5.767   4.523   5.146 -0.2908  0.2338  0.3748
  150SAPE  H17R16546   5.876   4.541   5.152 -0.1120 -0.5211 -0.3682
  150SAPE  H17S16547   5.719   4.622   5.163  0.2054  0.7823 -1.2319
  150SAPE  C21816548   5.735   4.470   5.010  0.5802  0.6814  0.2442
  150SAPE  H18R16549   5.629   4.440   5.022  0.9988 -1.3964 -0.8044
  150SAPE  H18S16550   5.789   4.377   4.985  0.5587  0.8487 -0.4237
  150SAPE  C21916551   5.753   4.568   4.893 -0.1754 -0.1943  0.9691
  150SAPE  H19R16552   5.863   4.583   4.890  0.4080 -2.8250  4.0242
  150SAPE  H19S16553   5.706   4.665   4.920 -0.0803  0.2482 -0.3688
  150SAPE  C22016554   5.699   4.519   4.757  0.3635  0.3255 -0.3718
  150SAPE  H20R16555   5.700   4.596   4.677 -0.7510  1.0751  0.2981
  150SAPE  H20S16556   5.592   4.491   4.770  0.1684  0.6154 -1.3227
  150SAPE  H20T16557   5.755   4.428   4.725  0.5576  0.4448 -0.3706
  150SAPE   C3316558   6.319   4.182   6.393 -0.9134 -0.1847  0.3404
  150SAPE   H3X16559   6.211   4.188   6.418 -0.6116  2.0571  1.3572
  150SAPE   H3Y16560   6.357   4.080   6.415 -0.1168  0.3389  1.4995
  150SAPE   C3416561   6.346   4.214   6.250  0.5756  0.0981 -0.2307
  150SAPE   H4X16562   6.302   4.316   6.238  2.0142  1.0912  2.2087
  150SAPE   H4Y16563   6.284   4.142   6.193  1.5893  0.0740 -1.3569
  150SAPE   C3516564   6.486   4.208   6.189 -0.3884 -0.3905 -0.0122
  150SAPE   H5X16565   6.522   4.111   6.231 -2.2082 -0.9646  0.3107
  150SAPE   H5Y16566   6.541   4.283   6.250 -2.2801 -0.1161  1.4355
  150SAPE   C3616567   6.493   4.220   6.034  0.4974  0.5577 -0.1746
  150SAPE   H6X16568   6.421   4.140   6.005 -0.7145  1.3956  0.3971
  150SAPE   H6Y16569   6.596   4.192   6.005  0.7951  0.7404  0.6868
  150SAPE   C3716570   6.458   4.353   5.976  0.8500  0.0120 -0.3114
  150SAPE   H7X16571   6.531   4.429   6.009  2.2260 -0.9168 -1.1321
  150SAPE   H7Y16572   6.362   4.386   6.021 -0.4207 -1.2189 -1.9459
  150SAPE   C3816573   6.441   4.353   5.824 -0.2332 -0.5995  0.4238
  150SAPE   H8X16574   6.535   4.345   5.765 -1.2834 -0.8670 -1.2900
  150SAPE   H8Y16575   6.407   4.456   5.804  2.4371  0.2308 -0.2102
  150SAPE   C3916576   6.340   4.252   5.772  0.1690 -0.2428 -0.6587
  150SAPE   H9X16577   6.243   4.273   5.822 -0.0589  1.2522 -1.6618
  150SAPE   H9Y16578   6.383   4.151   5.793 -0.1139 -0.6470 -1.9309
  150SAPE  C31016579   6.316   4.260   5.620  0.3749  0.1508  0.3453
  150SAPE  H10X16580   6.315   4.359   5.570 -0.9163 -0.3301 -0.6672
  150SAPE  H10Y16581   6.220   4.211   5.591  0.2366  1.0365 -0.7578
  150SAPE  C31116582   6.432   4.187   5.547  0.0493 -0.2425 -0.4781
  150SAPE  H11X16583   6.452   4.085   5.587 -0.8873 -0.2739 -0.0660
  150SAPE  H11Y16584   6.529   4.237   5.568  0.2637 -0.5327 -0.7437
  150SAPE  C31216585   6.411   4.168   5.396  0.1746 -0.5013  0.0817
  150SAPE  H12X16586   6.319   4.110   5.371 -1.1339  1.0349  1.0863
  150SAPE  H12Y16587   6.506   4.128   5.356  1.0809 -0.3378  1.9638
  150SAPE  C31316588   6.384   4.307   5.328 -0.8786  0.1150  0.4299
  150SAPE  H13X16589   6.476   4.362   5.356 -1.3484  0.1114  2.1065
  150SAPE  H13Y16590   6.293   4.351   5.374  0.8624  3.6356  0.8678
  150SAPE  C31416591   6.370   4.304   5.176  0.4352 -0.0377  0.3433
  150SAPE  H14X16592   6.452   4.256   5.118  1.5374  1.2416  0.7897
  150SAPE  H14Y16593   6.375   4.412   5.150 -0.8092  0.4453  1.9837
  150SAPE  C31516594   6.228   4.248   5.120 -0.4673 -0.2791  0.2215
  150SAPE  H15X16595   6.141   4.278   5.183 -0.6093  0.8084 -0.4710
  150SAPE  H15Y16596   6.239   4.138   5.133 -3.3275 -0.8201 -1.1567
  150SAPE  C31616597   6.195   4.275   4.970  0.7623  0.0343 -0.1002
  150SAPE  H16X16598   6.107   4.212   4.945  0.6269  0.2703 -0.2208
  150SAPE  H16Y16599   6.279   4.249   4.901  0.3394  0.9716 -0.9996
  150SAPE  C31716600   6.152   4.417   4.939  0.1118 -0.6545  0.3125
  150SAPE  H17X16601   6.073   4.462   5.004  1.7175  1.6669  0.7907
  150SAPE  H17Y16602   6.114   4.418   4.835 -2.3296 -1.2822  1.1169
  150SAPE  C31816603   6.258   4.531   4.916  1.1171  0.1425 -0.5690
  150SAPE  H18X16604   6.222   4.607   4.843  1.5344  3.1633  2.1446
  150SAPE  H18Y16605   6.347   4.489   4.864  0.8400  0.2779 -1.1638
  150SAPE  H18Z16606   6.287   4.567   5.017 -0.9013 -0.9617  0.4735
  151SAPE     N16607   6.190   6.701   6.550 -0.2912 -0.1381  0.0328
  151SAPE   HN116608   6.181   6.610   6.500  2.2668  0.1576 -1.0871
  151SAPE   HN216609   6.241   6.772   6.495  1.7647 -0.9675  0.7779
  151SAPE   HN316610   6.247   6.694   6.637 -1.7110 -0.9345  0.9528
  151SAPE   C1216611   6.053   6.748   6.584  0.6296 -0.4264  0.2685
  151SAPE  H12A16612   6.053   6.725   6.692  1.3052  1.2132  0.6471
  151SAPE  H12B16613   5.980   6.681   6.532 -0.7972  1.1696  0.1156
  151SAPE   C1116614   6.032   6.899   6.560  0.7420 -0.4712 -0.1254
  151SAPE  H11A16615   5.923   6.916   6.568  0.9541  0.6560  0.7419
  151SAPE  H11B16616   6.057   6.915   6.453 -1.4707 -0.3999 -0.6819
  151SAPE     P16617   6.032   7.063   6.760 -0.1314 -0.3850  0.1306
  151SAPE   O1316618   5.929   6.978   6.828  0.4340 -0.0313 -0.0948
  151SAPE   O1416619   6.130   7.129   6.850  1.5060 -0.0963  0.3027
  151SAPE   O1216620   6.115   6.974   6.650 -0.0652 -0.2920 -0.7679
  151SAPE   O1116621   5.955   7.171   6.672  0.3780 -0.4384 -0.3760
  151SAPE    C116622   6.024   7.274   6.606  0.7088 -0.1813  1.3473
  151SAPE    HA16623   6.128   7.286   6.645  0.7564 -0.5602  1.3417
  151SAPE    HB16624   6.029   7.249   6.498 -0.0381  1.6767  0.8359
  151SAPE    C216625   5.943   7.411   6.631 -0.4196 -0.2146  0.1309
  151SAPE    HS16626   5.948   7.443   6.738 -4.1162  1.9261 -0.1635
  151SAPE   O2116627   5.804   7.395   6.592  0.0984 -0.1596 -0.3750
  151SAPE   C2116628   5.715   7.384   6.693 -0.2968  0.3933  0.2816
  151SAPE   O2216629   5.741   7.384   6.813  0.5060  0.2358  0.1391
  151SAPE   C2216630   5.578   7.358   6.633  0.9417 -0.7698 -0.4869
  151SAPE   H2R16631   5.591   7.278   6.557 -0.2931  0.0880 -1.6412
  151SAPE   H2S16632   5.513   7.317   6.713  1.3922 -1.8090 -0.6398
  151SAPE    C316633   6.002   7.531   6.559 -0.6373  0.1487 -0.0789
  151SAPE    HX16634   6.096   7.543   6.616  0.0744 -2.5056 -0.5760
  151SAPE    HY16635   5.926   7.612   6.565 -2.1237 -1.0488 -1.5288
  151SAPE   O3116636   6.033   7.504   6.421 -0.2458  0.0431  0.7717
  151SAPE   C3116637   6.164   7.516   6.385  0.8374 -0.2428  0.4399
  151SAPE   O3216638   6.253   7.537   6.462 -0.0205  0.0629  0.2185
  151SAPE   C3216639   6.168   7.509   6.234  0.4406 -0.0645 -0.8175
  151SAPE   H2X16640   6.068   7.509   6.185 -0.4004 -0.9714  0.8094
  151SAPE   H2Y16641   6.228   7.424   6.195  1.5130 -0.1203  0.8816
  151SAPE   C2316642   5.517   7.487   6.589  0.1266  0.1297  0.1507
  151SAPE   H3R16643   5.596   7.564   6.601 -0.6512  0.7423  1.4888
  151SAPE   H3S16644   5.433   7.517   6.654 -0.6887 -0.9714 -0.3497
  151SAPE   C2416645   5.472   7.483   6.448  0.4562 -0.0760  0.3873
  151SAPE   H4R16646   5.557   7.451   6.383 -0.5376  0.1992 -1.0986
  151SAPE   H4S16647   5.454   7.588   6.418  2.9775  0.2956 -0.0676
  151SAPE   C2516648   5.336   7.413   6.424 -0.0235 -0.1324  0.0263
  151SAPE   H5R16649   5.259   7.448   6.493  0.6997 -0.2250  0.9035
  151SAPE   C2616650   5.313   7.328   6.323  0.4721  0.1876  0.2461
  151SAPE   H6R16651   5.211   7.287   6.317  0.1302  1.0209  0.3186
  151SAPE   C2716652   5.416   7.298   6.217  0.2936  0.0107 -0.0530
  151SAPE   H7R16653   5.476   7.207   6.238  2.5133  1.1655 -1.0467
  151SAPE   H7S16654   5.485   7.383   6.196 -0.3383  1.3580  2.9072
  151SAPE   C2816655   5.334   7.264   6.096  0.1202  1.0945  0.9439
  151SAPE   H8R16656   5.242   7.206   6.108  0.3326  0.4375 -0.3979
  151SAPE   C2916657   5.367   7.292   5.965 -0.0403 -0.5281  0.5674
  151SAPE   H9R16658   5.300   7.252   5.887  1.2569  1.0609 -1.4802
  151SAPE  C21016659   5.498   7.349   5.915  0.2484 -0.2197 -0.0701
  151SAPE  H10R16660   5.524   7.295   5.821  1.0847  0.6686 -0.3689
  151SAPE  H10S16661   5.573   7.339   5.997 -1.1713 -1.7718  1.0943
  151SAPE  C21116662   5.487   7.496   5.870 -0.6558  0.9110 -0.3413
  151SAPE  H11R16663   5.449   7.560   5.951  0.0895  1.6270 -0.5439
  151SAPE  C21216664   5.561   7.559   5.775 -0.5078  0.0673 -0.4734
  151SAPE  H12R16665   5.541   7.667   5.772  0.3783  0.2253 -1.0304
  151SAPE  C21316666   5.643   7.498   5.665 -0.4593  0.0034 -0.1480
  151SAPE  H13R16667   5.696   7.417   5.718 -2.2335  0.0864  1.8794
  151SAPE  H13S16668   5.716   7.574   5.629 -1.0623  0.5644 -0.1999
  151SAPE  C21416669   5.552   7.434   5.566  0.3707  0.0297 -0.1260
  151SAPE  H14R16670   5.520   7.331   5.586  2.5593 -1.3485 -2.9873
  151SAPE  C21516671   5.521   7.477   5.442  0.3527 -0.2496  0.2516
  151SAPE  H15R16672   5.467   7.405   5.379  0.8289  1.5368 -2.3363
  151SAPE  C21616673   5.547   7.610   5.385  0.1996 -0.2497  0.1849
  151SAPE  H16R16674   5.652   7.647   5.390  0.0712  0.3452 -1.0409
  151SAPE  H16S16675   5.497   7.693   5.439  0.3595  0.2946 -0.4789
  151SAPE  C21716676   5.489   7.628   5.246 -0.3519 -0.0047  0.1526
  151SAPE  H17R16677   5.509   7.732   5.215  0.6685 -0.6732 -1.5525
  151SAPE  H17S16678   5.378   7.627   5.250 -0.3828 -1.4999 -0.3017
  151SAPE  C21816679   5.528   7.534   5.128  0.1289  0.4701 -0.3010
  151SAPE  H18R16680   5.484   7.436   5.155 -0.4762  0.6820 -0.4953
  151SAPE  H18S16681   5.638   7.532   5.117  0.4805  2.1462  2.0892
  151SAPE  C21916682   5.467   7.588   4.998 -0.0354 -0.1910 -0.7550
  151SAPE  H19R16683   5.487   7.696   4.989 -3.9977  0.7730  0.1648
  151SAPE  H19S16684   5.357   7.577   5.003  0.0103 -0.8245 -0.9559
  151SAPE  C22016685   5.504   7.509   4.870 -0.1901  0.0917 -0.0969
  151SAPE  H20R16686   5.614   7.504   4.866  0.1065 -1.1984  4.1580
  151SAPE  H20S16687   5.464   7.562   4.781 -2.0709  0.9646  1.1955
  151SAPE  H20T16688   5.472   7.403   4.862 -0.0164 -0.0147  0.5904
  151SAPE   C3316689   6.251   7.623   6.155 -0.2646  0.4538 -0.4376
  151SAPE   H3X16690   6.352   7.604   6.196 -0.9926  0.0786  1.2374
  151SAPE   H3Y16691   6.241   7.727   6.192  0.5166  0.4002 -0.0607
  151SAPE   C3416692   6.243   7.605   6.005  0.0969  0.0731  0.1548
  151SAPE   H4X16693   6.236   7.499   5.972  0.6596 -0.9588  3.0764
  151SAPE   H4Y16694   6.335   7.647   5.958 -0.2052  0.7670  0.1775
  151SAPE   C3516695   6.130   7.688   5.938 -0.2482 -0.2659 -0.1302
  151SAPE   H5X16696   6.144   7.797   5.955 -0.6425 -0.2131 -0.1348
  151SAPE   H5Y16697   6.037   7.652   5.986 -0.2714  1.2134  1.0253
  151SAPE   C3616698   6.121   7.662   5.796 -0.2416  0.3687 -0.0894
  151SAPE   H6X16699   6.035   7.719   5.756  0.3101  0.6004 -0.9822
  151SAPE   H6Y16700   6.107   7.554   5.776  1.2032  0.2378 -0.5092
  151SAPE   C3716701   6.242   7.696   5.706 -0.4081  0.2728 -0.1030
  151SAPE   H7X16702   6.328   7.639   5.745  0.0359  0.6561 -0.5120
  151SAPE   H7Y16703   6.271   7.803   5.717  1.1093 -0.3069  2.3857
  151SAPE   C3816704   6.209   7.671   5.555 -0.9961 -0.4129  0.2250
  151SAPE   H8X16705   6.104   7.698   5.532 -0.6306  0.3151 -0.6680
  151SAPE   H8Y16706   6.222   7.562   5.541  2.6840 -0.1455  0.5393
  151SAPE   C3916707   6.314   7.725   5.464  0.6751  0.2676  0.3127
  151SAPE   H9X16708   6.417   7.694   5.492  1.1747  2.1871  0.7593
  151SAPE   H9Y16709   6.326   7.835   5.468 -0.8400  0.5105 -0.8329
  151SAPE  C31016710   6.288   7.690   5.315  0.3811  0.3168 -0.2991
  151SAPE  H10X16711   6.185   7.725   5.292  0.6882  2.3390  1.1170
  151SAPE  H10Y16712   6.287   7.579   5.315  0.6045  0.3128 -0.4650
  151SAPE  C31116713   6.407   7.737   5.226 -0.2161 -0.0652  0.5289
  151SAPE  H11X16714   6.501   7.720   5.282 -1.5970 -1.3032  2.5781
  151SAPE  H11Y16715   6.397   7.846   5.205  0.7605 -0.2114 -0.8506
  151SAPE  C31216716   6.415   7.681   5.085 -0.0604  0.5300  0.6752
  151SAPE  H12X16717   6.330   7.718   5.023  0.0205 -1.3852 -0.6598
  151SAPE  H12Y16718   6.399   7.571   5.088 -0.9418  0.6450  0.6082
  151SAPE  C31316719   6.551   7.712   5.018  0.5049  0.0007 -0.4696
  151SAPE  H13X16720   6.620   7.634   5.054  0.8340  0.3802 -0.2756
  151SAPE  H13Y16721   6.583   7.813   5.050 -0.7335  0.5500 -0.8995
  151SAPE  C31416722   6.545   7.742   4.867  0.6291 -0.3806  0.3000
  151SAPE  H14X16723   6.649   7.760   4.831  0.0217  0.0965 -1.3299
  151SAPE  H14Y16724   6.482   7.831   4.845 -1.1392 -1.9792 -1.5303
  151SAPE  C31516725   6.488   7.618   4.796 -0.4720  0.0652 -0.6130
  151SAPE  H15X16726   6.390   7.591   4.840  0.2883 -0.4186  0.8589
  151SAPE  H15Y16727   6.565   7.539   4.808 -0.2553  0.3803  0.1165
  151SAPE  C31616728   6.471   7.646   4.648  0.8957  0.3637  0.5445
  151SAPE  H16X16729   6.573   7.655   4.604  1.4437  1.2200  1.8877
  151SAPE  H16Y16730   6.422   7.744   4.629 -0.3499 -0.5832 -1.3370
  151SAPE  C31716731   6.405   7.525   4.583 -0.5904 -0.1820 -0.1232
  151SAPE  H17X16732   6.304   7.527   4.629 -0.4027 -0.9041  0.3319
  151SAPE  H17Y16733   6.446   7.423   4.599 -0.3784 -0.1542 -0.4667
  151SAPE  C31816734   6.392   7.539   4.433  0.0079  0.0103 -0.1008
  151SAPE  H18X16735   6.302   7.486   4.395  0.5739 -3.1669  2.5650
  151SAPE  H18Y16736   6.482   7.507   4.377 -0.0540 -1.6657  0.7089
  151SAPE  H18Z16737   6.383   7.647   4.409 -1.9403 -0.3389 -1.1399
  152SAPE     N16738   1.140   4.115   7.199 -0.1355 -0.0294 -0.2388
  152SAPE   HN116739   1.169   4.213   7.183  1.3013 -0.1647  1.2128
  152SAPE   HN216740   1.221   4.049   7.197  0.4020  0.6116  0.0353
  152SAPE   HN316741   1.080   4.082   7.120 -0.6722  1.8227 -0.6439
  152SAPE   C1216742   1.065   4.109   7.331  0.4497 -0.7705 -0.2581
  152SAPE  H12A16743   1.143   4.128   7.408  0.0638 -0.5288  0.0821
  152SAPE  H12B16744   1.028   4.005   7.336  0.1066 -0.7473 -1.8037
  152SAPE   C1116745   0.943   4.200   7.336  0.0434 -0.5272  0.0830
  152SAPE  H11A16746   0.885   4.161   7.423 -0.5434 -0.4169 -0.2556
  152SAPE  H11B16747   0.882   4.180   7.246  0.1881  1.7397 -0.5798
  152SAPE     P16748   1.001   4.443   7.260  0.4787  0.3066  0.2129
  152SAPE   O1316749   0.995   4.578   7.320  1.0793  0.3735 -0.3072
  152SAPE   O1416750   1.123   4.410   7.185 -0.2361 -0.1480 -0.1517
  152SAPE   O1216751   0.980   4.338   7.374  0.1568  0.1668 -0.9062
  152SAPE   O1116752   0.869   4.409   7.177 -0.1124 -0.1954  0.0891
  152SAPE    C116753   0.750   4.452   7.238  0.2543  0.0923 -0.9171
  152SAPE    HA16754   0.722   4.386   7.322  3.1906 -0.6247 -0.3884
  152SAPE    HB16755   0.751   4.553   7.284  1.0742 -0.3197 -0.0049
  152SAPE    C216756   0.637   4.480   7.128  0.3951  0.1585  0.0675
  152SAPE    HS16757   0.559   4.547   7.170 -0.7824  0.0284 -1.8191
  152SAPE   O2116758   0.581   4.352   7.089  0.2564 -0.7304 -0.3358
  152SAPE   C2116759   0.507   4.292   7.185 -0.0634  0.2938 -0.3097
  152SAPE   O2216760   0.493   4.335   7.300  0.6361 -0.0205 -0.2713
  152SAPE   C2216761   0.450   4.162   7.135  0.4680  0.1786  0.6011
  152SAPE   H2R16762   0.410   4.191   7.036 -1.1904 -0.0903  1.1535
  152SAPE   H2S16763   0.533   4.090   7.122  1.0210  1.1793 -1.9373
  152SAPE    C316764   0.681   4.561   7.001  0.0683 -0.5215 -0.4520
  152SAPE    HX16765   0.756   4.509   6.937 -0.5009 -2.6398  0.5092
  152SAPE    HY16766   0.737   4.652   7.031  0.8198 -1.0239 -0.2989
  152SAPE   O3116767   0.569   4.591   6.923  0.5191  0.0860  0.3958
  152SAPE   C3116768   0.528   4.724   6.924 -0.2575  0.3149  0.0511
  152SAPE   O3216769   0.587   4.808   6.984 -0.4598 -0.5069 -0.3833
  152SAPE   C3216770   0.396   4.741   6.851  0.3280  0.6626 -0.2023
  152SAPE   H2X16771   0.313   4.736   6.924 -1.0935 -2.7025 -1.8386
  152SAPE   H2Y16772   0.375   4.653   6.787  0.6312 -0.3636  1.0558
  152SAPE   C2316773   0.341   4.103   7.223  0.5849  0.8901  0.4740
  152SAPE   H3R16774   0.256   4.171   7.243 -0.7891 -0.1785 -1.4413
  152SAPE   H3S16775   0.380   4.053   7.315 -1.2366 -1.4787  0.0715
  152SAPE   C2416776   0.276   3.986   7.149  0.2384  0.2667  0.1378
  152SAPE   H4R16777   0.200   3.934   7.211  0.1477  0.8736  0.5399
  152SAPE   H4S16778   0.361   3.915   7.137  1.1491  1.4476 -0.5626
  152SAPE   C2516779   0.215   4.009   7.014  0.3624 -0.9138  0.5163
  152SAPE   H5R16780   0.190   4.115   7.000 -0.6172 -0.7435  3.0304
  152SAPE   C2616781   0.182   3.920   6.926 -0.3239 -0.4123 -0.0610
  152SAPE   H6R16782   0.116   3.949   6.844 -2.7879 -0.0847  1.9203
  152SAPE   C2716783   0.197   3.773   6.948 -0.1406  0.3443 -0.3781
  152SAPE   H7R16784   0.094   3.734   6.930 -0.8731  1.3426  1.3832
  152SAPE   H7S16785   0.207   3.752   7.056  0.9392 -2.9082 -1.0048
  152SAPE   C2816786   0.310   3.718   6.871 -0.1211 -0.1212 -1.0957
  152SAPE   H8R16787   0.395   3.680   6.931 -0.4744  0.2972 -0.3209
  152SAPE   C2916788   0.319   3.699   6.737 -0.4361 -0.2228  0.0387
  152SAPE   H9R16789   0.416   3.674   6.692 -0.6316  1.0077 -1.1222
  152SAPE  C21016790   0.221   3.735   6.633  0.1447 -0.2914  0.2248
  152SAPE  H10R16791   0.148   3.794   6.692  3.2277  0.7054  3.3337
  152SAPE  H10S16792   0.178   3.638   6.601 -1.8209 -0.3899  2.8385
  152SAPE  C21116793   0.288   3.813   6.519 -0.3073  0.4832  0.5256
  152SAPE  H11R16794   0.287   3.921   6.538 -0.9586  0.6140 -0.2080
  152SAPE  C21216795   0.349   3.764   6.404  0.2395 -0.1492  0.3509
  152SAPE  H12R16796   0.395   3.833   6.332 -1.1934  0.8081  0.3215
  152SAPE  C21316797   0.338   3.622   6.351 -0.1148  0.4062  0.1519
  152SAPE  H13R16798   0.373   3.553   6.430 -1.1953  1.0292  1.1945
  152SAPE  H13S16799   0.402   3.619   6.260 -0.1567  1.2777  0.0805
  152SAPE  C21416800   0.192   3.595   6.310  0.0868 -0.1003 -0.1566
  152SAPE  H14R16801   0.129   3.585   6.399 -0.2510  2.4333 -0.0277
  152SAPE  C21516802   0.141   3.572   6.188 -0.0267 -0.7802 -0.7920
  152SAPE  H15R16803   0.032   3.562   6.184 -0.1186 -1.9024  2.1924
  152SAPE  C21616804   0.220   3.568   6.061  0.0090 -0.8579  0.1357
  152SAPE  H16R16805   0.330   3.582   6.071  0.0127 -0.5384 -0.3287
  152SAPE  H16S16806   0.182   3.657   6.007 -1.1165 -0.9853  0.6790
  152SAPE  C21716807   0.193   3.430   5.989 -0.0139  0.3688  0.1015
  152SAPE  H17R16808   0.084   3.413   5.988 -0.1577  1.2549  0.1644
  152SAPE  H17S16809   0.249   3.348   6.040 -1.2032 -2.7196 -3.1808
  152SAPE  C21816810   0.251   3.424   5.845  0.1220  0.1075 -0.2403
  152SAPE  H18R16811   0.222   3.326   5.801 -2.0753  0.9963 -0.9012
  152SAPE  H18S16812   0.361   3.415   5.858  0.2133  0.8076 -0.5224
  152SAPE  C21916813   0.217   3.538   5.745 -0.0523  0.4743  0.7233
  152SAPE  H19R16814   0.224   3.635   5.799 -0.1112  0.8561  0.0589
  152SAPE  H19S16815   0.111   3.517   5.719  0.2692 -1.1575  0.6110
  152SAPE  C22016816   0.315   3.535   5.626 -0.5455 -0.4698 -0.0988
  152SAPE  H20R16817   0.294   3.595   5.535  1.1546  0.0868 -0.1647
  152SAPE  H20S16818   0.327   3.435   5.580  0.2290  1.3177 -4.3108
  152SAPE  H20T16819   0.416   3.560   5.665 -0.5267 -0.9232  0.1442
  152SAPE   C3316820   0.399   4.869   6.764 -1.0875  0.5824  0.2144
  152SAPE   H3X16821   0.444   4.962   6.805 -2.2776  3.3814 -4.1707
  152SAPE   H3Y16822   0.290   4.892   6.760 -0.8692  2.3520  2.2169
  152SAPE   C3416823   0.468   4.859   6.623  0.0160  0.0597 -0.9068
  152SAPE   H4X16824   0.558   4.793   6.623 -0.0115 -0.0406  1.3541
  152SAPE   H4Y16825   0.508   4.958   6.591 -0.8503  1.2258  1.4606
  152SAPE   C3516826   0.372   4.819   6.510 -0.2403  0.1177 -0.0572
  152SAPE   H5X16827   0.314   4.901   6.462  1.3590  0.4653 -1.4833
  152SAPE   H5Y16828   0.295   4.747   6.545 -0.8167  0.4126 -0.7114
  152SAPE   C3616829   0.450   4.764   6.388 -0.0783  0.4084  0.7439
  152SAPE   H6X16830   0.491   4.666   6.421 -0.6167  0.7371  2.4766
  152SAPE   H6Y16831   0.529   4.840   6.372  0.1534 -0.1944 -1.2865
  152SAPE   C3716832   0.353   4.746   6.265 -0.7196  0.3367 -0.5172
  152SAPE   H7X16833   0.257   4.800   6.280 -0.4258  1.4611 -2.3510
  152SAPE   H7Y16834   0.335   4.637   6.257  0.8287  0.0451 -0.2482
  152SAPE   C3816835   0.415   4.813   6.139 -0.1029  0.0006  0.6076
  152SAPE   H8X16836   0.519   4.780   6.123 -1.2437 -2.8539 -1.9052
  152SAPE   H8Y16837   0.400   4.923   6.143 -1.5863 -0.0597 -1.4485
  152SAPE   C3916838   0.341   4.781   6.007  0.2130 -0.7553  0.1816
  152SAPE   H9X16839   0.233   4.773   6.030  0.0982  0.3843  0.0989
  152SAPE   H9Y16840   0.380   4.681   5.978  1.9231  1.1915 -5.8854
  152SAPE  C31016841   0.374   4.866   5.885  0.4450  0.3388 -0.2268
  152SAPE  H10X16842   0.483   4.872   5.865  0.1923 -1.0260 -2.3521
  152SAPE  H10Y16843   0.333   4.968   5.901  2.4484  1.0784  0.4679
  152SAPE  C31116844   0.302   4.829   5.757  0.1462  0.1159  0.2927
  152SAPE  H11X16845   0.192   4.816   5.770  0.0033 -0.1636 -1.0398
  152SAPE  H11Y16846   0.338   4.727   5.734 -0.2955 -0.0899  0.5123
  152SAPE  C31216847   0.341   4.923   5.648 -0.2270 -0.6474  0.2520
  152SAPE  H12X16848   0.448   4.949   5.659 -0.1478 -0.8414 -0.0534
  152SAPE  H12Y16849   0.290   5.020   5.666  3.4720  1.2543  1.3361
  152SAPE  C31316850   0.302   4.866   5.507  0.0208 -0.8354 -0.2676
  152SAPE  H13X16851   0.192   4.848   5.513  0.0569 -1.5389 -1.3902
  152SAPE  H13Y16852   0.350   4.770   5.478 -0.1416 -0.8415 -0.5253
  152SAPE  C31416853   0.314   4.976   5.398  0.4944 -0.4970  0.4967
  152SAPE  H14X16854   0.424   4.985   5.387  0.4967 -0.2911  0.6875
  152SAPE  H14Y16855   0.269   5.069   5.438  0.1581  0.7606 -2.5019
  152SAPE  C31516856   0.258   4.928   5.264  0.3464 -0.3258 -0.5540
  152SAPE  H15X16857   0.148   4.917   5.275  0.6151 -1.0661  2.3634
  152SAPE  H15Y16858   0.316   4.835   5.245  0.5750 -0.9011  2.4072
  152SAPE  C31616859   0.294   5.016   5.144  0.5388 -0.0649 -0.4791
  152SAPE  H16X16860   0.397   5.057   5.155 -0.7798  3.0800  1.7179
  152SAPE  H16Y16861   0.224   5.102   5.149  1.9185  1.0616  0.2924
  152SAPE  C31716862   0.281   4.958   4.998  0.3237 -0.1930  0.4568
  152SAPE  H17X16863   0.292   5.038   4.921 -0.3505 -0.8508 -0.3361
  152SAPE  H17Y16864   0.184   4.909   4.975 -0.1717 -0.1221  2.2869
  152SAPE  C31816865   0.389   4.854   4.956  0.6471  0.2965 -0.2006
  152SAPE  H18X16866   0.385   4.766   5.023  0.5434  1.7592  1.8042
  152SAPE  H18Y16867   0.486   4.906   4.966  0.7273  0.4031 -1.4299
  152SAPE  H18Z16868   0.374   4.819   4.852 -0.2876  1.0623 -0.3471
  153SAPE     N16869   6.506   3.423   7.286 -0.1337  0.2290  0.6646
  153SAPE   HN116870   6.492   3.521   7.257 -0.6367 -0.6049 -2.1921
  153SAPE   HN216871   6.429   3.376   7.339  1.4011 -1.7047  1.3325
  153SAPE   HN316872   6.580   3.442   7.357  0.0691  2.4915 -0.0897
  153SAPE   C1216873   6.560   3.338   7.184  0.4566  0.4210  0.6409
  153SAPE  H12A16874   6.604   3.243   7.223  1.3716  0.6042  0.0856
  153SAPE  H12B16875   6.643   3.385   7.126 -0.3170 -0.1835 -1.0195
  153SAPE   C1116876   6.438   3.307   7.098 -0.3740 -0.0474  0.5095
  153SAPE  H11A16877   6.461   3.267   6.997 -2.4181  0.1284 -0.0813
  153SAPE  H11B16878   6.394   3.404   7.065  0.4542 -0.5349 -2.3436
  153SAPE     P16879   6.324   3.075   7.142  0.2145  0.0817  0.4107
  153SAPE   O1316880   6.451   2.997   7.158  0.6209  0.1744 -0.1184
  153SAPE   O1416881   6.208   3.018   7.211 -0.1361  0.2587  0.2866
  153SAPE   O1216882   6.342   3.229   7.162  0.2940 -0.0113  0.0085
  153SAPE   O1116883   6.289   3.071   6.990 -0.1785 -0.5055 -0.3938
  153SAPE    C116884   6.374   3.064   6.873  0.4794  0.6010  0.3653
  153SAPE    HA16885   6.346   3.159   6.821  2.0973 -0.2930 -2.3454
  153SAPE    HB16886   6.481   3.061   6.901  0.2830  0.5898  1.1313
  153SAPE    C216887   6.338   2.941   6.784 -0.1797 -0.0949  0.2041
  153SAPE    HS16888   6.347   2.850   6.848  1.8941 -0.0261  0.0965
  153SAPE   O2116889   6.430   2.936   6.672 -0.8466  0.1793  0.6924
  153SAPE   C2116890   6.538   2.869   6.697 -0.3689 -0.3520  0.3970
  153SAPE   O2216891   6.569   2.818   6.804  0.4553 -0.4576 -0.6736
  153SAPE   C2216892   6.637   2.879   6.579  0.3507 -0.0640  0.8741
  153SAPE   H2R16893   6.571   2.889   6.491  0.9641  2.3114  0.6265
  153SAPE   H2S16894   6.690   2.975   6.594  2.5986 -1.1687  0.4434
  153SAPE    C316895   6.196   2.935   6.725  0.5397  0.4662  0.0132
  153SAPE    HX16896   6.125   2.945   6.810  0.1812 -1.1943 -0.0475
  153SAPE    HY16897   6.192   2.832   6.684  1.9514  0.2430  0.3662
  153SAPE   O3116898   6.174   3.039   6.627  0.2571  0.1329  0.3301
  153SAPE   C3116899   6.059   3.012   6.561 -0.1768  0.2120  0.0911
  153SAPE   O3216900   5.981   2.924   6.589  0.4157  0.2309 -0.1763
  153SAPE   C3216901   6.053   3.099   6.445 -0.0577 -0.5813  0.0273
  153SAPE   H2X16902   6.132   3.178   6.442 -0.0078 -0.6546 -1.1933
  153SAPE   H2Y16903   5.956   3.151   6.460  0.0132 -0.5896  0.5464
  153SAPE   C2316904   6.738   2.759   6.572  0.0810 -0.8580  0.7789
  153SAPE   H3R16905   6.805   2.754   6.661  1.6684 -3.1406 -0.4425
  153SAPE   H3S16906   6.805   2.767   6.484 -0.3825  2.2422  0.5715
  153SAPE   C2416907   6.684   2.616   6.566 -0.0107 -0.2634  0.3950
  153SAPE   H4R16908   6.614   2.608   6.651 -0.5950  0.2307 -0.0258
  153SAPE   H4S16909   6.768   2.544   6.573 -0.4391 -0.8474 -0.2817
  153SAPE   C2516910   6.606   2.597   6.431 -0.1364  0.4206  0.2181
  153SAPE   H5R16911   6.497   2.601   6.441 -0.3238 -1.0073 -0.8388
  153SAPE   C2616912   6.664   2.554   6.314  0.0856 -0.0033  0.0680
  153SAPE   H6R16913   6.601   2.526   6.229  1.3236 -0.3597 -0.7639
  153SAPE   C2716914   6.807   2.533   6.284  0.1716 -0.1965  0.2766
  153SAPE   H7R16915   6.878   2.580   6.355  0.6593 -0.3884 -0.0845
  153SAPE   H7S16916   6.828   2.593   6.194  0.1073  0.5545  0.7553
  153SAPE   C2816917   6.854   2.397   6.260 -0.4437  0.3536 -0.0997
  153SAPE   H8R16918   6.906   2.351   6.345  0.3205 -1.1626 -1.3223
  153SAPE   C2916919   6.848   2.322   6.146  0.2302  0.8467  0.1998
  153SAPE   H9R16920   6.901   2.225   6.140  1.6696  1.6083  0.1653
  153SAPE  C21016921   6.795   2.360   6.007  0.5237  0.1341  0.4361
  153SAPE  H10R16922   6.875   2.344   5.932  0.1614  0.2168  0.0203
  153SAPE  H10S16923   6.778   2.469   5.999 -2.7828 -0.3965 -2.4789
  153SAPE  C21116924   6.670   2.280   5.971 -0.6912 -0.2144 -0.0197
  153SAPE  H11R16925   6.597   2.271   6.053  0.4100  0.0178  1.0135
  153SAPE  C21216926   6.640   2.239   5.852 -0.3889  0.3259  1.1791
  153SAPE  H12R16927   6.536   2.209   5.833 -0.2253 -0.2654  1.1949
  153SAPE  C21316928   6.719   2.256   5.722 -0.4805  0.4486  0.7026
  153SAPE  H13R16929   6.660   2.212   5.639  0.5921 -1.3323  0.8282
  153SAPE  H13S16930   6.810   2.193   5.728  0.4697  1.8670  2.1427
  153SAPE  C21416931   6.767   2.390   5.689  0.8139 -0.1776  0.0478
  153SAPE  H14R16932   6.727   2.474   5.747  0.0630 -1.4934  1.4993
  153SAPE  C21516933   6.861   2.419   5.599  0.1017  0.9021 -0.0247
  153SAPE  H15R16934   6.901   2.521   5.588 -1.3820  1.3210 -2.0839
  153SAPE  C21616935   6.935   2.311   5.522  0.3578  0.6940  0.1136
  153SAPE  H16R16936   6.903   2.210   5.557  0.2291  0.6169 -0.2179
  153SAPE  H16S16937   7.043   2.326   5.543  0.0430  0.4436  2.1188
  153SAPE  C21716938   6.907   2.304   5.373 -0.0307  0.6799  0.3432
  153SAPE  H17R16939   6.803   2.289   5.336  0.6190 -1.4347 -0.7519
  153SAPE  H17S16940   6.969   2.223   5.329  1.8450  1.6618  1.0483
  153SAPE  C21816941   6.958   2.426   5.295  0.0091 -0.2367  0.1558
  153SAPE  H18R16942   7.062   2.408   5.261 -0.2693  0.8557 -1.3626
  153SAPE  H18S16943   6.954   2.517   5.359  1.4997  0.8849 -1.2793
  153SAPE  C21916944   6.881   2.443   5.157 -0.5602  0.2248 -0.9140
  153SAPE  H19R16945   6.902   2.548   5.126  0.3595  0.8601  1.6126
  153SAPE  H19S16946   6.774   2.435   5.185 -0.8337 -1.4645 -2.3065
  153SAPE  C22016947   6.909   2.336   5.058  0.4348  0.7340  0.4451
  153SAPE  H20R16948   6.887   2.358   4.952 -0.2190  0.5155  0.5321
  153SAPE  H20S16949   6.859   2.242   5.088  1.2193 -0.4369 -1.7166
  153SAPE  H20T16950   7.014   2.299   5.054 -0.0506 -0.5786 -0.7392
  153SAPE   C3316951   6.042   3.024   6.308  0.5940 -0.2622  0.3664
  153SAPE   H3X16952   5.971   2.940   6.322  1.4261 -0.8764  0.9943
  153SAPE   H3Y16953   6.139   2.972   6.292 -0.3344 -2.3204  1.1067
  153SAPE   C3416954   6.006   3.105   6.184 -0.1295  0.1074 -0.4792
  153SAPE   H4X16955   6.062   3.199   6.170 -1.2609  1.1182  1.3053
  153SAPE   H4Y16956   5.900   3.130   6.206 -0.0802 -0.4018  0.3854
  153SAPE   C3516957   6.030   3.032   6.052 -0.1219  1.0947 -0.3137
  153SAPE   H5X16958   6.010   2.925   6.074  1.6361  0.8476  0.2566
  153SAPE   H5Y16959   6.139   3.018   6.031 -0.1050  0.3530  0.2482
  153SAPE   C3616960   5.964   3.086   5.925 -0.5472 -0.0278 -0.0263
  153SAPE   H6X16961   5.854   3.071   5.927 -0.4323 -0.8246  0.6044
  153SAPE   H6Y16962   5.996   3.034   5.832 -2.6672 -0.5702 -0.5040
  153SAPE   C3716963   5.980   3.239   5.906  0.3085 -0.4477  0.6144
  153SAPE   H7X16964   6.089   3.249   5.924  1.2565 -2.6569 -2.8993
  153SAPE   H7Y16965   5.916   3.285   5.984  1.1836 -0.1704  1.1815
  153SAPE   C3816966   5.942   3.298   5.770 -0.0580 -0.3633  0.0723
  153SAPE   H8X16967   6.033   3.271   5.713 -1.6826 -1.6270 -2.0276
  153SAPE   H8Y16968   5.937   3.409   5.770 -4.0348 -0.3875  1.2017
  153SAPE   C3916969   5.832   3.229   5.695  0.2496  0.6218  0.4252
  153SAPE   H9X16970   5.738   3.262   5.743 -0.1797 -0.3422  0.2791
  153SAPE   H9Y16971   5.830   3.118   5.698  0.8699  0.5564 -0.7685
  153SAPE  C31016972   5.827   3.262   5.533  0.3735 -0.4991 -0.1295
  153SAPE  H10X16973   5.861   3.367   5.519  3.4660 -1.1526  1.4707
  153SAPE  H10Y16974   5.724   3.250   5.492 -0.2893 -1.9855  1.8092
  153SAPE  C31116975   5.939   3.187   5.452  0.2733 -0.2564 -0.7415
  153SAPE  H11X16976   6.031   3.229   5.499  0.8540 -0.2089 -1.8817
  153SAPE  H11Y16977   5.934   3.209   5.343 -1.1433 -0.6902 -0.7766
  153SAPE  C31216978   5.916   3.034   5.459  0.1380 -0.5714  0.2761
  153SAPE  H12X16979   5.811   3.015   5.431 -0.2482  0.9385  0.6474
  153SAPE  H12Y16980   5.934   2.989   5.560 -2.1885  0.7661  1.3548
  153SAPE  C31316981   5.995   2.948   5.360  0.7644  0.0713  0.1603
  153SAPE  H13X16982   5.986   2.841   5.389 -0.4925  0.3809  0.9845
  153SAPE  H13Y16983   6.102   2.964   5.387  0.5211  1.3023  0.4446
  153SAPE  C31416984   5.951   2.966   5.207  0.4434 -0.4413 -0.8308
  153SAPE  H14X16985   5.993   3.063   5.174  0.6918 -1.0392 -2.3967
  153SAPE  H14Y16986   5.840   2.963   5.203  0.3222  0.2761  1.1779
  153SAPE  C31516987   5.997   2.862   5.108  0.1059 -0.6356  0.8059
  153SAPE  H15X16988   5.960   2.886   5.006  1.4822  1.9260  0.8149
  153SAPE  H15Y16989   5.955   2.764   5.139  3.2114 -2.0267  1.0081
  153SAPE  C31616990   6.157   2.845   5.105 -0.3031 -0.8693  0.0696
  153SAPE  H16X16991   6.188   2.761   5.039  1.2004 -0.9743  0.8806
  153SAPE  H16Y16992   6.197   2.822   5.206 -1.0107  0.6769  0.7408
  153SAPE  C31716993   6.240   2.970   5.059  0.1242 -0.3758 -0.0446
  153SAPE  H17X16994   6.210   3.054   5.125  1.0727 -1.7057  2.1924
  153SAPE  H17Y16995   6.212   3.003   4.956  0.1019 -0.7580 -0.1633
  153SAPE  C31816996   6.389   2.952   5.080 -0.7027 -0.7906  0.5402
  153SAPE  H18X16997   6.399   2.938   5.190 -2.4651 -2.2156  0.5598
  153SAPE  H18Y16998   6.451   3.041   5.059 -0.4995 -1.1844 -0.5895
  153SAPE  H18Z16999   6.424   2.863   5.023  4.2963  1.6617 -0.8112
  154SAPE     N17000   0.588   2.287   7.453 -0.3167  0.1285 -0.2317
  154SAPE   HN117001   0.497   2.262   7.497 -0.4908  0.1152 -0.5942
  154SAPE   HN217002   0.633   2.200   7.418 -0.3799  0.0210 -0.0472
  154SAPE   HN317003   0.652   2.310   7.531 -2.2512  0.0492  1.4595
  154SAPE   C1217004   0.585   2.402   7.353  0.6818  0.3944 -0.1695
  154SAPE  H12A17005   0.524   2.485   7.393 -0.7668 -1.0218  0.6885
  154SAPE  H12B17006   0.536   2.367   7.260  0.5042  0.5201 -0.1240
  154SAPE   C1117007   0.722   2.458   7.328 -0.3635  0.3651  0.3712
  154SAPE  H11A17008   0.756   2.524   7.411 -0.7583  0.2537  0.6181
  154SAPE  H11B17009   0.721   2.513   7.232 -0.3308 -1.7228 -0.8837
  154SAPE     P17010   0.966   2.368   7.268  0.1133  0.0222 -0.3402
  154SAPE   O1317011   1.010   2.503   7.295 -0.2123  0.1676 -0.3977
  154SAPE   O1417012   1.041   2.257   7.329 -0.3541 -0.0264 -0.2179
  154SAPE   O1217013   0.819   2.352   7.313 -0.2195  0.4956 -0.3158
  154SAPE   O1117014   0.964   2.353   7.110  0.1017  0.2623 -0.5045
  154SAPE    C117015   0.927   2.226   7.052  0.4929 -0.4301  0.7792
  154SAPE    HA17016   1.008   2.187   6.987  0.7087 -0.3848  1.0204
  154SAPE    HB17017   0.883   2.149   7.119  0.5645 -4.2135 -3.0485
  154SAPE    C217018   0.807   2.251   6.952 -1.1143  0.5605  0.2284
  154SAPE    HS17019   0.781   2.151   6.910  0.7013 -0.9617  2.4950
  154SAPE   O2117020   0.840   2.342   6.848  0.1190  0.1852 -0.3341
  154SAPE   C2117021   0.910   2.283   6.751  0.3180  0.2386 -0.4228
  154SAPE   O2217022   0.938   2.167   6.747  0.2177  0.3699  0.0028
  154SAPE   C2217023   0.941   2.389   6.638 -0.3283  0.3301  0.1455
  154SAPE   H2R17024   1.005   2.467   6.684  0.3536 -0.8240  1.1951
  154SAPE   H2S17025   0.998   2.330   6.563 -0.5049  2.1418 -1.5116
  154SAPE    C317026   0.682   2.284   7.030 -0.2664 -0.5804  0.1272
  154SAPE    HX17027   0.696   2.386   7.071  2.4287 -0.8858  0.1181
  154SAPE    HY17028   0.667   2.213   7.114  0.7191  0.3474  1.1152
  154SAPE   O3117029   0.563   2.274   6.949  0.1345  0.3363  1.2106
  154SAPE   C3117030   0.502   2.388   6.909 -0.1811  0.7913  0.0480
  154SAPE   O3217031   0.542   2.499   6.941 -0.6377  1.0368 -0.6061
  154SAPE   C3217032   0.397   2.354   6.799 -0.5341 -0.2918  0.7227
  154SAPE   H2X17033   0.341   2.268   6.841  1.2400 -1.7605  0.2296
  154SAPE   H2Y17034   0.449   2.312   6.710  0.1477 -0.0442  0.9977
  154SAPE   C2317035   0.811   2.446   6.570  0.5956  0.1437 -0.4281
  154SAPE   H3R17036   0.854   2.528   6.509  0.2812  1.8175  1.5107
  154SAPE   H3S17037   0.753   2.495   6.651 -0.6109  0.8215 -1.6571
  154SAPE   C2417038   0.718   2.342   6.505 -0.4362  0.0781  0.1264
  154SAPE   H4R17039   0.638   2.398   6.453  0.2569  2.1079  1.0983
  154SAPE   H4S17040   0.675   2.269   6.577  2.1026  1.1433  2.9558
  154SAPE   C2517041   0.808   2.267   6.413  0.2191 -0.2121  0.4242
  154SAPE   H5R17042   0.831   2.165   6.444  1.2832 -0.8098 -2.1131
  154SAPE   C2617043   0.849   2.306   6.293 -0.4395  0.3967 -0.2224
  154SAPE   H6R17044   0.903   2.231   6.233 -1.3839 -0.4109 -0.0715
  154SAPE   C2717045   0.812   2.438   6.233  0.0821  0.6621  0.0972
  154SAPE   H7R17046   0.861   2.529   6.273  0.0816 -0.0308  1.7214
  154SAPE   H7S17047   0.704   2.438   6.259  0.8236 -2.1779  4.1298
  154SAPE   C2817048   0.834   2.425   6.086  0.0698 -0.2233 -0.1361
  154SAPE   H8R17049   0.925   2.472   6.046 -0.2669 -0.0428 -0.7156
  154SAPE   C2917050   0.762   2.365   5.989 -0.2095  0.1080 -0.0288
  154SAPE   H9R17051   0.785   2.367   5.881  3.4494 -1.0672  0.5985
  154SAPE  C21017052   0.640   2.285   6.019 -0.0411 -0.3063  0.1147
  154SAPE  H10R17053   0.592   2.337   6.105  1.5530  2.1540 -0.3881
  154SAPE  H10S17054   0.671   2.186   6.060  3.7252  0.2258 -1.0702
  154SAPE  C21117055   0.527   2.271   5.913 -0.5292 -0.0343 -0.0154
  154SAPE  H11R17056   0.444   2.339   5.935 -0.6376 -0.8185  2.3174
  154SAPE  C21217057   0.534   2.199   5.802 -0.1263 -0.3760 -0.4137
  154SAPE  H12R17058   0.452   2.206   5.729 -1.1465 -0.5079  0.6892
  154SAPE  C21317059   0.635   2.097   5.762 -0.0776 -0.4190  0.3766
  154SAPE  H13R17060   0.590   1.996   5.753 -1.0986 -0.0096  0.7687
  154SAPE  H13S17061   0.706   2.079   5.845  0.4908  0.1094  0.0185
  154SAPE  C21417062   0.705   2.146   5.635 -0.3209 -0.7733  0.3793
  154SAPE  H14R17063   0.800   2.196   5.658 -0.6069  1.0872 -2.1477
  154SAPE  C21517064   0.669   2.124   5.508  0.6189 -0.8443 -0.6389
  154SAPE  H15R17065   0.734   2.161   5.428  2.2505  0.1014  1.0465
  154SAPE  C21617066   0.537   2.059   5.466 -0.1289  0.0897  0.0414
  154SAPE  H16R17067   0.471   2.148   5.466 -1.5672 -0.6258  5.3514
  154SAPE  H16S17068   0.501   1.994   5.549 -0.6513  2.4644  1.7556
  154SAPE  C21717069   0.569   1.995   5.327 -0.2277  0.0897  0.0759
  154SAPE  H17R17070   0.647   1.919   5.348 -1.2714 -0.8342  0.7082
  154SAPE  H17S17071   0.612   2.068   5.255 -1.8939  0.6309 -0.4170
  154SAPE  C21817072   0.455   1.920   5.263  0.5424 -0.8219  0.3218
  154SAPE  H18R17073   0.372   1.992   5.244  0.7792  0.0389  2.3260
  154SAPE  H18S17074   0.421   1.842   5.335  1.4762 -0.7873  0.8144
  154SAPE  C21917075   0.490   1.844   5.135 -0.3751  0.5257  0.1720
  154SAPE  H19R17076   0.498   1.913   5.048 -2.6435 -0.2095 -0.7210
  154SAPE  H19S17077   0.410   1.770   5.108  0.9307 -0.3830 -1.4075
  154SAPE  C22017078   0.626   1.770   5.143  0.0923  0.1554 -0.5525
  154SAPE  H20R17079   0.716   1.834   5.157  0.1349 -0.1162  0.5404
  154SAPE  H20S17080   0.648   1.703   5.058 -0.3830  0.5006 -0.9515
  154SAPE  H20T17081   0.612   1.709   5.235 -1.9565  1.0390 -0.2243
  154SAPE   C3317082   0.295   2.463   6.774 -0.6362  0.5943 -0.1010
  154SAPE   H3X17083   0.270   2.513   6.870 -0.4222 -1.4387  1.0718
  154SAPE   H3Y17084   0.203   2.417   6.732 -2.0845  1.6693  1.7485
  154SAPE   C3417085   0.336   2.571   6.675 -0.6013 -0.7204 -0.1542
  154SAPE   H4X17086   0.435   2.606   6.713 -0.3944  1.7005 -2.5926
  154SAPE   H4Y17087   0.273   2.662   6.677  1.3330  0.6949  0.1687
  154SAPE   C3517088   0.363   2.521   6.535 -0.4410  0.0664 -0.0993
  154SAPE   H5X17089   0.265   2.493   6.490 -1.7106  1.1777  1.8595
  154SAPE   H5Y17090   0.432   2.435   6.547  1.5040  1.4269 -0.9863
  154SAPE   C3617091   0.439   2.624   6.452 -0.1342  0.1919  0.3898
  154SAPE   H6X17092   0.547   2.619   6.480 -0.1548  2.4674  1.0147
  154SAPE   H6Y17093   0.399   2.724   6.478  0.4386  0.2003  1.2859
  154SAPE   C3717094   0.420   2.605   6.307 -0.3569  0.5160 -0.4196
  154SAPE   H7X17095   0.314   2.602   6.276 -0.4797 -0.6317  0.1032
  154SAPE   H7Y17096   0.468   2.507   6.292 -0.4504  0.5715 -1.0984
  154SAPE   C3817097   0.490   2.712   6.234  0.6389  0.0680 -0.5469
  154SAPE   H8X17098   0.600   2.693   6.226  0.6155  0.5855 -2.4725
  154SAPE   H8Y17099   0.476   2.808   6.288 -0.0247 -1.1734  1.6210
  154SAPE   C3917100   0.435   2.731   6.096 -0.0706  0.5739 -0.0011
  154SAPE   H9X17101   0.484   2.820   6.052  1.3833 -0.2796 -0.1871
  154SAPE   H9Y17102   0.327   2.758   6.096  0.2359  2.0701 -2.0458
  154SAPE  C31017103   0.456   2.603   6.004  0.1414  0.6146  0.0598
  154SAPE  H10X17104   0.412   2.505   6.032  2.3163 -0.8408 -1.3514
  154SAPE  H10Y17105   0.566   2.589   5.998 -0.0902 -0.9683 -1.1260
  154SAPE  C31117106   0.399   2.624   5.864  0.6999  0.2407  0.4521
  154SAPE  H11X17107   0.294   2.659   5.865  0.1727 -1.1613 -1.1158
  154SAPE  H11Y17108   0.418   2.527   5.813  0.4805  0.1446  0.5520
  154SAPE  C31217109   0.472   2.732   5.776  1.3812 -0.6162  0.0805
  154SAPE  H12X17110   0.580   2.709   5.776  1.2949 -1.0351  0.0132
  154SAPE  H12Y17111   0.453   2.831   5.822 -0.8164 -0.4779 -0.9858
  154SAPE  C31317112   0.422   2.738   5.628 -0.1793 -0.1079 -0.0830
  154SAPE  H13X17113   0.455   2.829   5.573 -2.0668 -1.1426 -3.1447
  154SAPE  H13Y17114   0.312   2.748   5.635 -0.3125 -0.0527 -1.9447
  154SAPE  C31417115   0.455   2.611   5.552  0.2823 -0.2841 -0.0966
  154SAPE  H14X17116   0.395   2.621   5.459  0.7061 -1.3824 -0.5083
  154SAPE  H14Y17117   0.421   2.517   5.600  0.6004 -1.1631 -1.5250
  154SAPE  C31517118   0.596   2.593   5.498  0.3314 -0.8033 -0.0357
  154SAPE  H15X17119   0.658   2.679   5.465  1.8805 -1.5956  0.7054
  154SAPE  H15Y17120   0.592   2.521   5.413 -0.3201  2.1715 -2.6776
  154SAPE  C31617121   0.692   2.516   5.603  0.2870  0.4723  0.4865
  154SAPE  H16X17122   0.649   2.417   5.630  2.3348 -0.6315 -0.1397
  154SAPE  H16Y17123   0.696   2.571   5.700  1.4331 -1.9405  1.9070
  154SAPE  C31717124   0.839   2.496   5.563  0.4692 -0.1393  0.6370
  154SAPE  H17X17125   0.884   2.442   5.649  0.4910  0.8900  1.2852
  154SAPE  H17Y17126   0.883   2.598   5.560  2.2082 -0.8689 -0.5325
  154SAPE  C31817127   0.880   2.426   5.435  0.4008  0.4791  0.1097
  154SAPE  H18X17128   0.840   2.322   5.432 -1.9780  1.3336  0.0594
  154SAPE  H18Y17129   0.989   2.441   5.423  0.0582  2.0218 -1.4486
  154SAPE  H18Z17130   0.821   2.471   5.352 -1.6139  0.1110  1.2774
  155SAPE     N17131   6.128   6.754   7.055 -0.2330 -0.3434  0.0315
  155SAPE   HN117132   6.047   6.710   7.006 -0.4237 -0.0643  0.0932
  155SAPE   HN217133   6.194   6.676   7.074  0.9918  0.9673  1.3929
  155SAPE   HN317134   6.095   6.789   7.147  1.3532 -1.2522  0.9703
  155SAPE   C1217135   6.212   6.864   7.003 -0.1583 -0.3575  0.0390
  155SAPE  H12A17136   6.164   6.951   7.052  1.0039  0.1200  0.3648
  155SAPE  H12B17137   6.212   6.857   6.892 -1.0214 -1.2875  0.0895
  155SAPE   C1117138   6.361   6.859   7.046  0.0440  0.1101  0.0770
  155SAPE  H11A17139   6.366   6.870   7.156  3.2812  2.6630 -0.1690
  155SAPE  H11B17140   6.402   6.955   7.009 -1.1650  0.2321 -1.0347
  155SAPE     P17141   6.478   6.719   6.853 -0.0207  0.0731 -0.1286
  155SAPE   O1317142   6.582   6.614   6.847 -0.2445  0.7614  0.6107
  155SAPE   O1417143   6.355   6.695   6.765 -0.3682  0.9153 -0.3963
  155SAPE   O1217144   6.438   6.739   7.009 -0.4183 -0.2036 -0.4367
  155SAPE   O1117145   6.540   6.852   6.808 -0.2935  0.4888  0.4836
  155SAPE    C117146   6.478   6.952   6.731  0.0019 -0.0814 -0.1090
  155SAPE    HA17147   6.368   6.955   6.740 -0.0258  1.6725 -0.7628
  155SAPE    HB17148   6.518   7.049   6.767  1.4069 -0.6698  0.0164
  155SAPE    C217149   6.509   6.939   6.578  0.2912  0.3113  0.2916
  155SAPE    HS17150   6.487   6.833   6.550  1.7440  0.2976 -0.8948
  155SAPE   O2117151   6.653   6.960   6.560 -0.0953 -0.0287  0.7008
  155SAPE   C2117152   6.731   6.853   6.523 -0.2798  0.1620 -0.4265
  155SAPE   O2217153   6.698   6.744   6.483  0.0178  0.1209 -0.3307
  155SAPE   C2217154   6.869   6.896   6.555 -0.0791  0.6004  0.4644
  155SAPE   H2R17155   6.853   6.967   6.639 -0.3717 -0.6488  1.4997
  155SAPE   H2S17156   6.931   6.810   6.589 -2.5088 -2.0412 -1.3603
  155SAPE    C317157   6.428   7.039   6.489  0.5033  0.0384  0.2163
  155SAPE    HX17158   6.461   7.142   6.516  2.6734 -0.1362 -1.4827
  155SAPE    HY17159   6.324   7.036   6.527 -0.8537  2.4978 -2.8955
  155SAPE   O3117160   6.444   7.018   6.342  0.1527 -0.0128  0.3118
  155SAPE   C3117161   6.369   6.929   6.288  0.2908  0.8276 -0.4719
  155SAPE   O3217162   6.293   6.853   6.344 -0.1469  0.0164 -0.3687
  155SAPE   C3217163   6.395   6.921   6.141 -0.2137 -0.1153 -0.3152
  155SAPE   H2X17164   6.495   6.968   6.127  0.0246 -0.9531 -1.6335
  155SAPE   H2Y17165   6.316   6.978   6.089 -0.7690  0.0367  0.6698
  155SAPE   C2317166   6.938   6.954   6.439  0.6972 -0.2309 -0.4280
  155SAPE   H3R17167   7.036   6.986   6.481  0.9954  0.7416 -1.7913
  155SAPE   H3S17168   6.891   7.042   6.390  1.3886  0.4760  0.1655
  155SAPE   C2417169   6.975   6.853   6.325  0.1512 -0.3500  0.4031
  155SAPE   H4R17170   6.885   6.840   6.263  0.4667  2.2050 -0.7400
  155SAPE   H4S17171   7.006   6.758   6.374  1.9100  0.2117  0.4766
  155SAPE   C2517172   7.082   6.915   6.237 -0.1358  0.1820  0.3862
  155SAPE   H5R17173   7.182   6.896   6.277  0.1979  2.5047  0.8440
  155SAPE   C2617174   7.053   6.982   6.120 -0.0073  0.5197  0.2557
  155SAPE   H6R17175   7.123   7.054   6.076 -0.3360  1.0842  0.6384
  155SAPE   C2717176   6.918   7.002   6.057 -0.2429  0.0130  0.4826
  155SAPE   H7R17177   6.863   6.906   6.071  1.7565 -1.2337  0.1602
  155SAPE   H7S17178   6.942   7.024   5.951  1.0513  5.3902  1.6056
  155SAPE   C2817179   6.844   7.117   6.107 -0.2902 -0.1689 -0.0066
  155SAPE   H8R17180   6.885   7.153   6.202  2.0872  0.6712 -1.2656
  155SAPE   C2917181   6.727   7.170   6.061  0.2224 -0.2233  0.1074
  155SAPE   H9R17182   6.685   7.250   6.123 -0.1409 -1.7369  1.9129
  155SAPE  C21017183   6.655   7.138   5.932 -0.9082  0.1521 -0.0668
  155SAPE  H10R17184   6.625   7.031   5.934  0.5420 -0.2642 -0.0403
  155SAPE  H10S17185   6.736   7.133   5.856 -0.6791 -0.0799  0.1913
  155SAPE  C21117186   6.545   7.236   5.906  0.3995  0.0335 -0.4789
  155SAPE  H11R17187   6.476   7.249   5.991 -1.3114  0.9260 -1.9418
  155SAPE  C21217188   6.505   7.290   5.786 -0.3209 -0.4239 -0.5653
  155SAPE  H12R17189   6.421   7.361   5.784  0.8015  1.0085 -3.5821
  155SAPE  C21317190   6.580   7.277   5.657 -0.1354  0.6164  0.2297
  155SAPE  H13R17191   6.559   7.171   5.631  3.1511 -0.9349  2.9501
  155SAPE  H13S17192   6.690   7.280   5.669 -0.2509 -0.1708  1.8425
  155SAPE  C21417193   6.539   7.375   5.558  0.1268 -0.0585 -0.1150
  155SAPE  H14R17194   6.504   7.466   5.608  2.6781  0.8365  0.1863
  155SAPE  C21517195   6.544   7.364   5.422  0.1982 -0.5746 -0.2223
  155SAPE  H15R17196   6.515   7.446   5.354 -2.3038 -1.5479 -0.4328
  155SAPE  C21617197   6.580   7.242   5.344  0.1035  0.2728 -0.2609
  155SAPE  H16R17198   6.617   7.160   5.409 -0.7341  0.0015 -0.1108
  155SAPE  H16S17199   6.674   7.267   5.290 -0.7372  2.1483 -0.9569
  155SAPE  C21717200   6.467   7.186   5.254  0.0803  0.7885  0.3680
  155SAPE  H17R17201   6.376   7.172   5.316  0.6284 -0.3260  0.9491
  155SAPE  H17S17202   6.492   7.091   5.202 -3.5686 -2.0268  3.1932
  155SAPE  C21817203   6.421   7.284   5.135 -0.0010  0.8230  0.1242
  155SAPE  H18R17204   6.510   7.310   5.073  0.1865 -0.6476 -0.2617
  155SAPE  H18S17205   6.383   7.382   5.171 -1.5347 -0.2908  1.7661
  155SAPE  C21917206   6.329   7.231   5.039 -0.3389 -0.2368  0.1075
  155SAPE  H19R17207   6.232   7.217   5.093  0.2862 -0.7561  1.1374
  155SAPE  H19S17208   6.357   7.128   5.008 -1.5927 -0.6209  0.1625
  155SAPE  C22017209   6.300   7.310   4.907  1.8499 -0.0845 -0.2413
  155SAPE  H20R17210   6.217   7.267   4.848 -0.6652  0.4657  2.6225
  155SAPE  H20S17211   6.392   7.305   4.845  1.0618 -1.3408 -1.3669
  155SAPE  H20T17212   6.281   7.417   4.931 -2.8623 -0.5448 -1.0069
  155SAPE   C3317213   6.393   6.775   6.079 -0.7643  0.0707  0.4536
  155SAPE   H3X17214   6.287   6.741   6.070 -0.7801 -0.6654  2.6860
  155SAPE   H3Y17215   6.449   6.709   6.149 -1.8269  0.3089  1.5817
  155SAPE   C3417216   6.461   6.770   5.939 -0.2440 -0.2980 -0.5216
  155SAPE   H4X17217   6.455   6.665   5.903  1.1770 -0.8606  0.7810
  155SAPE   H4Y17218   6.569   6.790   5.955 -0.0841 -0.4844 -1.3025
  155SAPE   C3517219   6.397   6.861   5.829 -0.5750 -0.3164  0.2198
  155SAPE   H5X17220   6.435   6.828   5.730 -2.9787 -0.8501 -0.6047
  155SAPE   H5Y17221   6.416   6.970   5.842 -1.5669 -0.0496 -0.4260
  155SAPE   C3617222   6.250   6.846   5.813  0.7736  1.0148  0.4628
  155SAPE   H6X17223   6.201   6.882   5.907  1.4435  1.5974  0.5960
  155SAPE   H6Y17224   6.234   6.737   5.801  2.7699  0.8002 -0.5381
  155SAPE   C3717225   6.191   6.919   5.693  0.1394  0.0810  0.0055
  155SAPE   H7X17226   6.082   6.898   5.683  0.2175 -1.2287  1.6037
  155SAPE   H7Y17227   6.242   6.875   5.605 -0.1506  0.5884 -0.4236
  155SAPE   C3817228   6.207   7.074   5.688 -0.2910  0.5352 -0.4458
  155SAPE   H8X17229   6.310   7.094   5.651 -0.0866  1.7120  0.7064
  155SAPE   H8Y17230   6.204   7.117   5.790  0.8288  0.6233 -0.4389
  155SAPE   C3917231   6.107   7.153   5.605  0.1489  0.5169 -0.5802
  155SAPE   H9X17232   6.008   7.110   5.630  0.2993  1.3137  1.5080
  155SAPE   H9Y17233   6.134   7.142   5.497 -0.3985 -1.0304 -0.5848
  155SAPE  C31017234   6.094   7.303   5.640 -0.3164  0.0869  0.1110
  155SAPE  H10X17235   6.189   7.361   5.641 -1.6868  2.4606  1.3443
  155SAPE  H10Y17236   6.051   7.316   5.742 -0.3436  1.6774 -0.0852
  155SAPE  C31117237   5.999   7.363   5.539  0.4407  0.2882  0.2277
  155SAPE  H11X17238   5.987   7.470   5.567  1.9182  0.3016  0.9051
  155SAPE  H11Y17239   5.900   7.312   5.543  1.6697 -2.1522  1.7434
  155SAPE  C31217240   6.043   7.358   5.390  0.9275 -0.1508  0.4582
  155SAPE  H12X17241   6.032   7.252   5.359 -1.1877  0.5224 -1.3580
  155SAPE  H12Y17242   6.149   7.390   5.396  0.8316  0.1230  0.7148
  155SAPE  C31317243   5.961   7.440   5.293  0.2000  0.3578 -0.6237
  155SAPE  H13X17244   5.961   7.549   5.315 -1.4459  0.2571 -0.0076
  155SAPE  H13Y17245   5.859   7.397   5.288  1.0107 -1.5142 -2.5849
  155SAPE  C31417246   6.016   7.440   5.147  0.6008 -0.2170 -0.0889
  155SAPE  H14X17247   6.001   7.334   5.116 -0.6153 -0.2886  0.6832
  155SAPE  H14Y17248   6.122   7.472   5.135  0.3328  0.3183 -1.0907
  155SAPE  C31517249   5.944   7.540   5.053  0.3409  1.1620 -0.0826
  155SAPE  H15X17250   5.961   7.645   5.085  0.0889  1.2365 -0.1916
  155SAPE  H15Y17251   5.834   7.523   5.054  0.4238  0.1904 -2.2722
  155SAPE  C31617252   6.006   7.519   4.916 -0.1414  0.4305  0.0992
  155SAPE  H16X17253   5.999   7.415   4.879  0.0429  1.0669 -1.8342
  155SAPE  H16Y17254   6.115   7.543   4.923 -0.1072  0.4663 -0.5471
  155SAPE  C31717255   5.947   7.598   4.797  0.0976  0.2708 -0.3875
  155SAPE  H17X17256   5.968   7.707   4.809  3.2326 -0.4003  1.4072
  155SAPE  H17Y17257   5.837   7.581   4.809  0.6478 -3.0279  1.2336
  155SAPE  C31817258   6.000   7.573   4.656 -0.2263 -0.2996  0.0429
  155SAPE  H18X17259   6.109   7.559   4.641 -0.2750 -2.7804  1.3645
  155SAPE  H18Y17260   5.968   7.661   4.597 -0.0405 -0.5053 -0.3685
  155SAPE  H18Z17261   5.952   7.485   4.608 -2.1581  1.1980 -0.9007
  156SAPE     N17262   0.718   3.635   7.187  0.8600  0.4888 -0.3991
  156SAPE   HN117263   0.708   3.596   7.283  2.1590 -0.3360 -0.5663
  156SAPE   HN217264   0.721   3.560   7.115  1.1890 -0.5693  0.6693
  156SAPE   HN317265   0.812   3.678   7.176  1.2893 -0.4964 -0.7683
  156SAPE   C1217266   0.604   3.732   7.161  0.1038 -0.1599  0.4206
  156SAPE  H12A17267   0.599   3.802   7.247 -0.2003  1.6100 -0.9627
  156SAPE  H12B17268   0.512   3.674   7.143  0.3831  0.0385 -1.9831
  156SAPE   C1117269   0.629   3.806   7.021 -0.5041 -0.3656 -0.4819
  156SAPE  H11A17270   0.534   3.857   6.996 -0.0293  0.5975 -0.4043
  156SAPE  H11B17271   0.655   3.724   6.951  2.0268  1.4005 -1.7611
  156SAPE     P17272   0.883   3.887   7.026 -0.0372 -0.0131 -0.1457
  156SAPE   O1317273   0.957   4.018   7.028  0.6417  0.0216  0.1762
  156SAPE   O1417274   0.926   3.786   7.124  1.1664  0.0462 -0.5957
  156SAPE   O1217275   0.727   3.907   7.031  0.0396 -0.7840 -0.3214
  156SAPE   O1117276   0.888   3.816   6.889  0.3567 -0.4181 -0.9429
  156SAPE    C117277   0.904   3.884   6.768 -0.0382 -0.2180  0.3047
  156SAPE    HA17278   0.938   3.990   6.769  1.0508 -0.5168 -1.1718
  156SAPE    HB17279   0.983   3.827   6.715  0.6780 -1.1591  2.2981
  156SAPE    C217280   0.785   3.871   6.674 -0.5930  0.7075 -0.1448
  156SAPE    HS17281   0.821   3.906   6.575 -2.9596 -0.9381 -1.6854
  156SAPE   O2117282   0.665   3.935   6.719  0.4705 -0.7371  0.6132
  156SAPE   C2117283   0.676   4.065   6.709 -0.3241  0.1169  0.2280
  156SAPE   O2217284   0.766   4.124   6.645  0.4984  0.5360  0.1615
  156SAPE   C2217285   0.555   4.129   6.778  0.4894  0.6246  0.1905
  156SAPE   H2R17286   0.462   4.087   6.733  0.7705 -0.0365  0.2131
  156SAPE   H2S17287   0.550   4.096   6.884 -0.1139  2.1126  0.6547
  156SAPE    C317288   0.750   3.728   6.649 -0.3631  0.0451  0.3762
  156SAPE    HX17289   0.683   3.689   6.728 -2.1912 -1.7922 -1.9295
  156SAPE    HY17290   0.845   3.672   6.663  0.3870  0.9318 -0.8874
  156SAPE   O3117291   0.692   3.704   6.524  0.5725 -0.2237  0.0828
  156SAPE   C3117292   0.766   3.707   6.416  0.1332 -0.0194 -0.7725
  156SAPE   O3217293   0.889   3.728   6.417  0.2068 -0.3367  0.3344
  156SAPE   C3217294   0.684   3.678   6.289  0.3351  0.4037 -0.6330
  156SAPE   H2X17295   0.591   3.739   6.291  0.6537  0.9089 -0.9648
  156SAPE   H2Y17296   0.659   3.570   6.290  2.8210 -0.2220 -0.2783
  156SAPE   C2317297   0.549   4.284   6.768 -0.5975  0.2820  0.4160
  156SAPE   H3R17298   0.648   4.332   6.785 -0.3893 -0.0600  0.1654
  156SAPE   H3S17299   0.475   4.318   6.844 -2.6119 -1.5969 -0.6047
  156SAPE   C2417300   0.495   4.338   6.633  0.0449  0.0117 -0.0519
  156SAPE   H4R17301   0.440   4.430   6.659 -1.0374 -0.6612  0.0797
  156SAPE   H4S17302   0.412   4.272   6.599  1.9113 -2.2386 -0.5945
  156SAPE   C2517303   0.597   4.358   6.531  0.2704 -0.4969  0.9631
  156SAPE   H5R17304   0.662   4.444   6.553  1.7046 -1.2708 -0.1078
  156SAPE   C2617305   0.613   4.294   6.412 -0.1404 -0.4615 -0.6757
  156SAPE   H6R17306   0.683   4.328   6.335 -1.0708  3.4417 -0.0316
  156SAPE   C2717307   0.525   4.181   6.372 -0.5656 -0.3004  0.0211
  156SAPE   H7R17308   0.436   4.218   6.317 -0.8819 -0.7800  0.2062
  156SAPE   H7S17309   0.478   4.131   6.459  1.7531 -1.9309  0.4304
  156SAPE   C2817310   0.589   4.072   6.301  0.2891 -0.2531  0.0711
  156SAPE   H8R17311   0.691   4.047   6.334 -0.2978  0.1038  2.3426
  156SAPE   C2917312   0.535   4.008   6.190 -0.4243  0.0631  0.6824
  156SAPE   H9R17313   0.593   3.922   6.153 -2.0422 -0.8959  0.2816
  156SAPE  C21017314   0.397   4.035   6.133 -0.3550  0.5420 -0.2500
  156SAPE  H10R17315   0.409   4.119   6.062  0.3388 -0.3271 -1.1792
  156SAPE  H10S17316   0.334   4.059   6.222  2.1043 -0.6258  1.9736
  156SAPE  C21117317   0.340   3.919   6.063 -0.0114  1.0218  0.0962
  156SAPE  H11R17318   0.277   3.859   6.131 -0.7765  0.9296 -0.6775
  156SAPE  C21217319   0.373   3.875   5.937 -0.3420 -0.6646 -0.0351
  156SAPE  H12R17320   0.321   3.790   5.890  0.2127 -0.8899 -0.2485
  156SAPE  C21317321   0.458   3.960   5.847  0.4038  0.2677 -0.6484
  156SAPE  H13R17322   0.550   3.909   5.811 -1.0356 -1.2250 -2.4092
  156SAPE  H13S17323   0.497   4.053   5.894 -1.1885  0.3792  0.5419
  156SAPE  C21417324   0.363   3.991   5.738  0.6102  0.7357 -0.2084
  156SAPE  H14R17325   0.269   4.034   5.776  0.8233 -0.6051  2.0371
  156SAPE  C21517326   0.368   3.956   5.610  0.5879 -0.2072  0.6265
  156SAPE  H15R17327   0.271   3.957   5.558  1.1067 -1.2066 -0.3966
  156SAPE  C21617328   0.482   3.893   5.534 -0.2433  0.2526  0.2679
  156SAPE  H16R17329   0.472   3.789   5.496  2.4991  0.1346 -0.3990
  156SAPE  H16S17330   0.570   3.876   5.600  0.6297 -0.3879 -1.0090
  156SAPE  C21717331   0.510   3.974   5.412 -0.4587  0.1988  0.4581
  156SAPE  H17R17332   0.600   3.931   5.364  0.3094  2.5392 -0.3456
  156SAPE  H17S17333   0.549   4.074   5.442 -2.8810  1.4317 -0.1511
  156SAPE  C21817334   0.403   3.983   5.304 -0.3227  0.6415  0.3354
  156SAPE  H18R17335   0.323   4.045   5.350 -1.6248 -0.0897 -0.8830
  156SAPE  H18S17336   0.352   3.891   5.269 -1.2453  2.0184 -2.1895
  156SAPE  C21917337   0.450   4.049   5.178  0.0773 -0.2823 -0.0585
  156SAPE  H19R17338   0.392   4.021   5.087 -1.9108  0.4865  0.9310
  156SAPE  H19S17339   0.551   4.015   5.144 -0.8715 -0.8801 -2.5378
  156SAPE  C22017340   0.463   4.199   5.195 -0.4179  0.1442  0.0511
  156SAPE  H20R17341   0.365   4.235   5.230 -1.0704 -1.2242 -0.2772
  156SAPE  H20S17342   0.477   4.261   5.104 -0.6909  0.1245 -0.0031
  156SAPE  H20T17343   0.537   4.224   5.274 -0.2476 -2.5529  0.8701
  156SAPE   C3317344   0.771   3.700   6.163 -0.1429 -0.6766 -0.2245
  156SAPE   H3X17345   0.859   3.633   6.165  0.6063  0.2910 -0.2452
  156SAPE   H3Y17346   0.814   3.802   6.160  2.0043 -1.5582 -2.6520
  156SAPE   C3417347   0.707   3.676   6.022  0.4325 -1.0361 -0.2341
  156SAPE   H4X17348   0.615   3.737   6.010  0.1580 -1.3976 -0.0091
  156SAPE   H4Y17349   0.665   3.573   6.026 -0.4047 -0.6603  2.3351
  156SAPE   C3517350   0.797   3.708   5.904  0.3284  0.2884 -0.3704
  156SAPE   H5X17351   0.836   3.812   5.916 -0.8644  0.7393 -0.3238
  156SAPE   H5Y17352   0.735   3.699   5.813 -1.2002 -0.5327  0.7078
  156SAPE   C3617353   0.919   3.609   5.892  0.5521 -0.1185  0.8635
  156SAPE   H6X17354   0.887   3.503   5.884  0.1930  0.1248 -1.4829
  156SAPE   H6Y17355   0.978   3.616   5.986  2.5433  0.4682 -0.3556
  156SAPE   C3717356   1.004   3.632   5.762  0.6794 -0.0280 -0.4934
  156SAPE   H7X17357   1.085   3.557   5.753  2.7541  1.9780  0.1430
  156SAPE   H7Y17358   1.045   3.734   5.783 -2.9012  1.2822  0.9008
  156SAPE   C3817359   0.929   3.650   5.629 -0.0905  1.0457 -0.4580
  156SAPE   H8X17360   0.996   3.700   5.555 -0.1233 -1.0092 -1.9551
  156SAPE   H8Y17361   0.840   3.716   5.634 -1.1924 -0.4798  1.4739
  156SAPE   C3917362   0.882   3.507   5.584 -0.2644 -0.5240  1.0155
  156SAPE   H9X17363   0.807   3.471   5.657 -1.6694 -0.5348 -0.3788
  156SAPE   H9Y17364   0.967   3.436   5.573 -0.4985 -0.7151  0.4125
  156SAPE  C31017365   0.799   3.513   5.455  0.6471  0.2864  0.1275
  156SAPE  H10X17366   0.823   3.420   5.399  1.9775 -0.6345  2.1293
  156SAPE  H10Y17367   0.845   3.592   5.392  1.2596  1.3599  1.8522
  156SAPE  C31117368   0.651   3.544   5.466 -0.1920 -0.3954  0.4392
  156SAPE  H11X17369   0.638   3.639   5.522  1.5602 -0.1547  0.4743
  156SAPE  H11Y17370   0.592   3.462   5.512 -1.7145 -0.0619 -0.8221
  156SAPE  C31217371   0.566   3.568   5.335 -0.6188  0.0760  0.7394
  156SAPE  H12X17372   0.617   3.656   5.290  0.9983  0.0512  2.4087
  156SAPE  H12Y17373   0.468   3.611   5.366 -0.0965  3.6451 -1.9285
  156SAPE  C31317374   0.567   3.453   5.240 -0.2965 -0.4346  0.3669
  156SAPE  H13X17375   0.544   3.363   5.301  1.1520 -1.6183 -0.7559
  156SAPE  H13Y17376   0.673   3.437   5.209 -0.1690 -1.0585  1.0976
  156SAPE  C31417377   0.488   3.462   5.103  0.5626  0.1991  0.2746
  156SAPE  H14X17378   0.525   3.551   5.048  1.4853 -0.3634 -0.0375
  156SAPE  H14Y17379   0.385   3.493   5.131  1.6954  3.1239  1.6966
  156SAPE  C31517380   0.492   3.334   5.017 -0.0455 -0.3652 -0.0608
  156SAPE  H15X17381   0.465   3.252   5.087  0.0291 -1.0829 -0.8708
  156SAPE  H15Y17382   0.598   3.309   4.995  0.7962  1.1716  1.8755
  156SAPE  C31617383   0.421   3.332   4.881 -0.8766  0.1041 -0.4568
  156SAPE  H16X17384   0.494   3.355   4.801 -0.9841 -2.0102 -1.2154
  156SAPE  H16Y17385   0.333   3.400   4.874 -1.8390 -1.1543 -0.7837
  156SAPE  C31717386   0.365   3.190   4.858  0.3682  0.5313  0.6210
  156SAPE  H17X17387   0.296   3.176   4.944 -0.9527  2.5254 -0.0487
  156SAPE  H17Y17388   0.448   3.117   4.859  0.1277  0.1373 -1.9980
  156SAPE  C31817389   0.295   3.160   4.726 -0.9065  0.2284 -0.4046
  156SAPE  H18X17390   0.227   3.245   4.703  0.9347  1.7365 -0.5614
  156SAPE  H18Y17391   0.237   3.065   4.724 -0.8745  0.2048 -2.2440
  156SAPE  H18Z17392   0.367   3.156   4.641  0.7447  1.1002  0.8861
  157SAPE     N17393   1.182   1.801   7.363 -0.2011  0.0639 -0.1011
  157SAPE   HN117394   1.286   1.798   7.373  0.1709 -1.8275 -3.0308
  157SAPE   HN217395   1.143   1.897   7.371  0.6773  0.5067 -0.8654
  157SAPE   HN317396   1.144   1.750   7.445 -0.6310 -0.7710 -0.8009
  157SAPE   C1217397   1.133   1.737   7.229 -0.1110  0.6337 -0.1707
  157SAPE  H12A17398   1.144   1.628   7.249  0.5275  0.6510 -0.3812
  157SAPE  H12B17399   1.205   1.766   7.149  0.2100  0.7204  0.1437
  157SAPE   C1117400   0.987   1.774   7.195  0.1338  0.4785  0.4203
  157SAPE  H11A17401   0.951   1.734   7.098 -0.1514 -1.0804  1.1439
  157SAPE  H11B17402   0.985   1.884   7.179  0.2735  0.2057 -1.7698
  157SAPE     P17403   0.760   1.680   7.303  0.3505  0.0221  0.0558
  157SAPE   O1317404   0.761   1.538   7.324 -0.2225 -0.1139  0.0580
  157SAPE   O1417405   0.692   1.764   7.401  0.0478  0.1197  0.0613
  157SAPE   O1217406   0.905   1.727   7.305 -0.0377  0.2358  0.3142
  157SAPE   O1117407   0.716   1.711   7.156  0.3976  0.1527  0.1236
  157SAPE    C117408   0.659   1.616   7.063 -0.2567  0.9602 -0.1184
  157SAPE    HA17409   0.580   1.558   7.116 -1.2961  0.8423 -1.7087
  157SAPE    HB17410   0.621   1.666   6.971  1.5993  3.3286  0.3161
  157SAPE    C217411   0.767   1.512   7.023 -0.2837  0.0928 -0.1112
  157SAPE    HS17412   0.825   1.489   7.116 -0.4890 -0.3787 -0.0942
  157SAPE   O2117413   0.857   1.563   6.922 -0.4727 -0.1979  0.2219
  157SAPE   C2117414   0.968   1.506   6.900 -0.2692 -0.1666  0.0294
  157SAPE   O2217415   1.028   1.423   6.967 -0.1276  0.3358  0.1707
  157SAPE   C2217416   1.030   1.568   6.768 -0.0292 -0.4625 -1.1330
  157SAPE   H2R17417   1.023   1.678   6.777 -0.4971 -0.4906 -1.1412
  157SAPE   H2S17418   1.134   1.529   6.768  0.0299 -0.4911  2.0174
  157SAPE    C317419   0.690   1.390   6.967  0.3603 -0.1056  0.8317
  157SAPE    HX17420   0.646   1.330   7.049 -0.3866  2.8217  2.7358
  157SAPE    HY17421   0.764   1.319   6.924  0.5751  0.6800 -0.1349
  157SAPE   O3117422   0.591   1.414   6.875  0.2881  0.1849  0.5155
  157SAPE   C3117423   0.524   1.311   6.832  0.7072  0.1100 -0.4903
  157SAPE   O3217424   0.533   1.198   6.880 -0.1610 -0.3346 -0.6571
  157SAPE   C3217425   0.413   1.351   6.736  0.1931  0.2941 -0.3239
  157SAPE   H2X17426   0.368   1.449   6.764 -1.5114 -0.5780  0.1084
  157SAPE   H2Y17427   0.344   1.266   6.754  0.6464  0.1389  0.7960
  157SAPE   C2317428   0.965   1.511   6.639 -0.3736 -0.5616  0.0902
  157SAPE   H3R17429   0.857   1.535   6.653 -0.4658 -1.2347  0.5764
  157SAPE   H3S17430   0.976   1.401   6.631  0.8688 -0.4871  0.5244
  157SAPE   C2417431   1.027   1.562   6.505 -0.2297  0.7991  0.0075
  157SAPE   H4R17432   0.951   1.523   6.434  0.0452  0.5539 -0.1496
  157SAPE   H4S17433   1.124   1.512   6.489 -0.0143  1.3228 -0.3564
  157SAPE   C2517434   1.065   1.705   6.506 -0.0374 -1.2705 -0.1587
  157SAPE   H5R17435   1.105   1.744   6.600  1.1176  0.9314 -1.4663
  157SAPE   C2617436   1.047   1.803   6.413 -0.3262  0.1177 -0.2553
  157SAPE   H6R17437   1.087   1.900   6.446 -1.2147 -0.7081  3.9185
  157SAPE   C2717438   0.992   1.775   6.272 -0.0192  0.0159  0.0038
  157SAPE   H7R17439   0.887   1.738   6.276  0.5339 -1.5318  0.6504
  157SAPE   H7S17440   1.048   1.689   6.230  1.2830  1.3637 -1.1714
  157SAPE   C2817441   0.993   1.897   6.185  0.3539 -0.0457  0.1120
  157SAPE   H8R17442   1.021   1.990   6.236 -0.9637 -0.4969  1.7626
  157SAPE   C2917443   0.947   1.904   6.054 -0.6632  0.6954  0.0116
  157SAPE   H9R17444   0.943   1.993   5.990  1.1137  0.0992 -1.0260
  157SAPE  C21017445   0.914   1.787   5.963  0.0967 -0.6158  0.1950
  157SAPE  H10R17446   0.822   1.818   5.909  1.5849  1.1967 -1.4441
  157SAPE  H10S17447   0.876   1.704   6.027 -1.1185  0.3920  0.8351
  157SAPE  C21117448   1.011   1.735   5.869 -0.0919  0.1648  0.5759
  157SAPE  H11R17449   1.098   1.680   5.909  1.6485  2.4760  0.1785
  157SAPE  C21217450   1.015   1.757   5.729  0.0396 -0.4751 -0.4579
  157SAPE  H12R17451   1.102   1.715   5.677 -0.0638 -0.1294 -0.9110
  157SAPE  C21317452   0.911   1.844   5.655  0.1778  0.0851 -0.2373
  157SAPE  H13R17453   0.960   1.928   5.603 -0.5650  0.1650 -0.8268
  157SAPE  H13S17454   0.841   1.900   5.720 -0.9230  0.1262 -1.4238
  157SAPE  C21417455   0.844   1.758   5.554  0.1968 -0.7150  0.3094
  157SAPE  H14R17456   0.893   1.762   5.456 -1.2124 -0.1945 -0.4046
  157SAPE  C21517457   0.741   1.670   5.558 -0.7516 -0.7452 -0.1425
  157SAPE  H15R17458   0.718   1.614   5.466 -0.3117  0.9473 -1.3173
  157SAPE  C21617459   0.655   1.642   5.677  0.1481 -0.5317 -0.1736
  157SAPE  H16R17460   0.554   1.689   5.671  0.0242 -0.7340  0.3129
  157SAPE  H16S17461   0.713   1.675   5.766  0.0545  0.7592 -0.5570
  157SAPE  C21717462   0.630   1.495   5.692  0.0290  0.4557  0.4407
  157SAPE  H17R17463   0.586   1.456   5.597  1.5296  2.5768 -1.2281
  157SAPE  H17S17464   0.563   1.477   5.778  1.0829  1.8199  1.5927
  157SAPE  C21817465   0.759   1.415   5.713 -0.4142 -0.3305 -0.1333
  157SAPE  H18R17466   0.809   1.453   5.805  1.5165 -0.9375 -0.8871
  157SAPE  H18S17467   0.837   1.423   5.635 -1.9696 -1.4482 -1.8755
  157SAPE  C21917468   0.742   1.263   5.733 -0.5865  0.2781  0.0713
  157SAPE  H19R17469   0.734   1.220   5.631 -0.4870  1.8977 -0.6386
  157SAPE  H19S17470   0.647   1.236   5.783 -1.6674  2.8540 -0.4287
  157SAPE  C22017471   0.851   1.188   5.803 -0.1477 -0.6699  0.3305
  157SAPE  H20R17472   0.809   1.092   5.841 -0.1180 -2.0083 -2.7159
  157SAPE  H20S17473   0.893   1.245   5.889 -0.2184 -0.0874 -0.0151
  157SAPE  H20T17474   0.937   1.164   5.737 -0.1734 -1.6438  0.6298
  157SAPE   C3317475   0.459   1.333   6.591 -0.3740 -0.1606  0.2297
  157SAPE   H3X17476   0.529   1.248   6.575 -0.1788  0.0644 -0.1210
  157SAPE   H3Y17477   0.510   1.424   6.553  0.8605 -1.1310 -0.5197
  157SAPE   C3417478   0.339   1.301   6.497 -0.6901  0.1513  0.0712
  157SAPE   H4X17479   0.258   1.370   6.529 -0.4639 -0.0607  1.1508
  157SAPE   H4Y17480   0.314   1.198   6.532  2.3985 -0.1959  1.6166
  157SAPE   C3517481   0.369   1.301   6.351 -0.0543  0.5246  0.3586
  157SAPE   H5X17482   0.446   1.231   6.313 -1.5062 -1.0200  0.1603
  157SAPE   H5Y17483   0.393   1.401   6.309  2.9502 -0.1470  0.2250
  157SAPE   C3617484   0.243   1.254   6.265  0.1890 -0.1522 -0.6547
  157SAPE   H6X17485   0.159   1.308   6.312  0.2490  1.4231 -2.2582
  157SAPE   H6Y17486   0.220   1.148   6.289  0.5426 -0.2195 -0.6122
  157SAPE   C3717487   0.260   1.287   6.120  0.7370  0.5674  0.9146
  157SAPE   H7X17488   0.365   1.280   6.085 -0.2247  0.5212 -2.3290
  157SAPE   H7Y17489   0.241   1.396   6.110  1.0171  0.4501 -1.6681
  157SAPE   C3817490   0.167   1.200   6.025  0.5124  0.2861 -0.3962
  157SAPE   H8X17491   0.076   1.182   6.085 -1.0440  0.7777 -2.4779
  157SAPE   H8Y17492   0.199   1.095   6.014  1.4441  0.6893 -1.7845
  157SAPE   C3917493   0.125   1.270   5.896 -0.5559 -0.7637 -0.3212
  157SAPE   H9X17494   0.077   1.367   5.921 -0.3769 -0.8735  0.4521
  157SAPE   H9Y17495   0.049   1.213   5.838 -0.3353 -2.1401  0.6745
  157SAPE  C31017496   0.235   1.280   5.799 -0.4160 -0.2983  0.6074
  157SAPE  H10X17497   0.282   1.181   5.780 -0.3988  0.3521 -4.0041
  157SAPE  H10Y17498   0.307   1.353   5.840 -2.3005  0.8114  2.0755
  157SAPE  C31117499   0.181   1.313   5.656 -0.2450 -0.2594 -0.0101
  157SAPE  H11X17500   0.147   1.418   5.667 -1.7319 -0.6520 -0.6389
  157SAPE  H11Y17501   0.094   1.252   5.625 -0.4741 -1.1467  2.1624
  157SAPE  C31217502   0.288   1.301   5.548  0.8132 -0.3849  0.1501
  157SAPE  H12X17503   0.310   1.196   5.518  4.4742 -0.2329  1.7664
  157SAPE  H12Y17504   0.371   1.364   5.587  2.0730 -2.2845  0.7194
  157SAPE  C31317505   0.250   1.370   5.411  0.5707  0.3367  0.3335
  157SAPE  H13X17506   0.239   1.479   5.430  1.5203  0.2835  1.2700
  157SAPE  H13Y17507   0.151   1.336   5.373 -0.2162  2.9272 -0.1204
  157SAPE  C31417508   0.347   1.333   5.301 -0.4973 -0.4559 -0.0422
  157SAPE  H14X17509   0.333   1.224   5.286 -0.3678 -0.2469 -2.0698
  157SAPE  H14Y17510   0.451   1.359   5.331 -0.5828 -0.4777  0.2763
  157SAPE  C31517511   0.321   1.399   5.168  0.6523 -0.5581  0.4020
  157SAPE  H15X17512   0.360   1.503   5.169  1.2825 -0.7832 -0.1364
  157SAPE  H15Y17513   0.213   1.399   5.140 -0.2333  1.9924  3.2862
  157SAPE  C31617514   0.402   1.324   5.060  0.5851 -0.8357  0.2471
  157SAPE  H16X17515   0.350   1.229   5.036 -0.8018 -0.1942  0.6274
  157SAPE  H16Y17516   0.500   1.292   5.103  0.3528 -1.4039  0.3648
  157SAPE  C31717517   0.435   1.404   4.938 -0.0870  0.5428  0.2074
  157SAPE  H17X17518   0.484   1.340   4.862  0.7865  0.1673  1.0655
  157SAPE  H17Y17519   0.513   1.482   4.952  2.4963 -0.4522 -5.5244
  157SAPE  C31817520   0.312   1.470   4.876 -0.5853  0.6935  0.6672
  157SAPE  H18X17521   0.325   1.512   4.773  1.1979  0.5680  0.8015
  157SAPE  H18Y17522   0.276   1.552   4.942  0.4940  1.0561  0.8275
  157SAPE  H18Z17523   0.231   1.395   4.877  0.7943 -0.8695  0.3287
  158SAPE     N17524   3.101   1.089   7.443 -0.0458  0.2505  0.2588
  158SAPE   HN117525   3.014   1.130   7.403  0.5620  1.6138  0.2681
  158SAPE   HN217526   3.093   1.088   7.546  1.2192  0.0049  0.3677
  158SAPE   HN317527   3.175   1.160   7.423 -0.5487  0.2223 -2.0677
  158SAPE   C1217528   3.124   0.957   7.368  0.2244 -0.7256  0.1402
  158SAPE  H12A17529   3.036   0.897   7.401 -1.0133  1.5234  1.1517
  158SAPE  H12B17530   3.220   0.915   7.403  2.2018  2.4904 -1.0211
  158SAPE   C1117531   3.123   0.973   7.218  0.2583 -0.5912  0.0550
  158SAPE  H11A17532   3.148   0.879   7.164  2.2415  2.0084 -4.1150
  158SAPE  H11B17533   3.207   1.038   7.185  0.0726 -0.9350 -1.1472
  158SAPE     P17534   2.950   1.027   7.032  0.3710  0.0896  0.3525
  158SAPE   O1317535   2.867   0.908   7.020 -0.0474  0.4599 -0.7513
  158SAPE   O1417536   2.887   1.154   7.005 -0.1251 -0.2301 -0.6460
  158SAPE   O1217537   3.000   1.031   7.180  0.0251  0.7702 -0.0631
  158SAPE   O1117538   3.085   1.006   6.945 -0.2257  0.1089  0.5755
  158SAPE    C117539   3.158   1.114   6.895  0.9785  0.1503 -0.2494
  158SAPE    HA17540   3.151   1.197   6.968 -0.0985 -1.7015  1.8719
  158SAPE    HB17541   3.262   1.074   6.892  1.2223  0.7462  0.1680
  158SAPE    C217542   3.122   1.152   6.755  0.2977 -0.1103 -0.3181
  158SAPE    HS17543   3.020   1.196   6.752  1.8062  3.9186  0.6329
  158SAPE   O2117544   3.140   1.037   6.673  0.1391  0.1401 -0.0712
  158SAPE   C2117545   3.030   0.971   6.638  0.0675 -0.4356  0.2390
  158SAPE   O2217546   2.914   1.008   6.654 -0.4427  0.2607  0.2897
  158SAPE   C2217547   3.083   0.840   6.572  0.1848 -0.0297  1.0683
  158SAPE   H2R17548   3.152   0.883   6.496  2.7346 -0.0439  3.2510
  158SAPE   H2S17549   3.154   0.783   6.634  1.3842 -0.2100 -0.4200
  158SAPE    C317550   3.199   1.281   6.707  0.5745 -0.0467 -0.2496
  158SAPE    HX17551   3.307   1.256   6.711  0.6769  0.2203 -1.2263
  158SAPE    HY17552   3.182   1.363   6.780  0.5577  0.6279 -1.0020
  158SAPE   O3117553   3.166   1.329   6.577  0.4415  0.0509  0.7300
  158SAPE   C3117554   3.241   1.429   6.542  0.1120  0.0144 -0.3637
  158SAPE   O3217555   3.324   1.485   6.613 -0.1375  0.0190  0.0683
  158SAPE   C3217556   3.222   1.468   6.395  0.1986 -0.5600 -0.0826
  158SAPE   H2X17557   3.277   1.560   6.367  0.1766 -0.7325 -0.7029
  158SAPE   H2Y17558   3.114   1.492   6.383 -0.1453  0.3188  3.5705
  158SAPE   C2317559   2.970   0.756   6.511  0.9423 -0.8462 -0.0064
  158SAPE   H3R17560   2.929   0.817   6.428  2.2456  0.8438  0.5227
  158SAPE   H3S17561   2.882   0.761   6.578 -0.8226  0.6305 -2.2814
  158SAPE   C2417562   3.014   0.617   6.460  0.5093 -0.0967 -1.1478
  158SAPE   H4R17563   2.930   0.566   6.407  1.6280 -1.0016 -2.0831
  158SAPE   H4S17564   3.042   0.558   6.549  0.7802  0.7581 -0.6493
  158SAPE   C2517565   3.108   0.645   6.355 -0.1054  0.0721 -0.2279
  158SAPE   H5R17566   3.211   0.626   6.389 -0.6190 -0.9943  0.7850
  158SAPE   C2617567   3.086   0.649   6.219  0.0742 -0.0777  0.8270
  158SAPE   H6R17568   3.168   0.677   6.151  0.6276 -3.1277  0.0981
  158SAPE   C2717569   2.958   0.674   6.155  0.7940  0.9697 -1.0108
  158SAPE   H7R17570   2.885   0.701   6.234  0.6277 -0.4676 -0.6373
  158SAPE   H7S17571   2.919   0.577   6.117  1.9947  0.9060 -2.1814
  158SAPE   C2817572   2.955   0.767   6.040 -0.2102 -0.2509  0.4873
  158SAPE   H8R17573   3.005   0.731   5.949  0.7077  1.3174  0.3295
  158SAPE   C2917574   2.912   0.896   6.036 -0.2916 -0.3813  0.4923
  158SAPE   H9R17575   2.909   0.937   5.934  1.4965  1.1896  1.0256
  158SAPE  C21017576   2.816   0.957   6.137  0.0266 -1.1205 -0.8287
  158SAPE  H10R17577   2.782   0.883   6.212  0.6358 -0.4739  0.1102
  158SAPE  H10S17578   2.731   1.009   6.089  2.0535  1.9547 -1.3893
  158SAPE  C21117579   2.894   1.060   6.220 -0.0011 -0.1348  0.3759
  158SAPE  H11R17580   2.990   1.085   6.172 -0.9949  0.7318 -1.2614
  158SAPE  C21217581   2.834   1.132   6.320  0.6129 -0.8283  0.0004
  158SAPE  H12R17582   2.897   1.213   6.360 -2.0715  1.4622 -0.1682
  158SAPE  C21317583   2.698   1.122   6.379  0.3950 -0.0533  1.2172
  158SAPE  H13R17584   2.688   1.077   6.480 -0.3910 -0.9969  0.7277
  158SAPE  H13S17585   2.637   1.056   6.315  0.6505  0.4270  0.4597
  158SAPE  C21417586   2.624   1.252   6.385 -0.1910  0.6751 -0.3540
  158SAPE  H14R17587   2.669   1.307   6.470  1.7552 -2.0707  0.5557
  158SAPE  C21517588   2.517   1.300   6.316 -0.0267 -0.2073  0.6179
  158SAPE  H15R17589   2.462   1.395   6.326  0.3423  0.1986 -0.8867
  158SAPE  C21617590   2.451   1.219   6.206  0.0271  0.3064 -0.0426
  158SAPE  H16R17591   2.341   1.216   6.216 -0.0133 -0.3527 -0.5783
  158SAPE  H16S17592   2.473   1.110   6.214  1.5616  0.6403  0.6056
  158SAPE  C21717593   2.506   1.262   6.070 -0.0613 -0.3170 -0.8149
  158SAPE  H17R17594   2.615   1.242   6.072 -0.1991 -1.0629 -0.3029
  158SAPE  H17S17595   2.500   1.370   6.047 -2.3469 -0.1401  0.3339
  158SAPE  C21817596   2.443   1.194   5.949 -0.4609  1.2021 -0.7104
  158SAPE  H18R17597   2.333   1.204   5.946 -0.7375 -0.9912  0.3284
  158SAPE  H18S17598   2.463   1.086   5.963 -1.0885  1.1414 -0.2712
  158SAPE  C21917599   2.500   1.240   5.813 -0.3118 -0.4310  1.0746
  158SAPE  H19R17600   2.447   1.335   5.788  1.6898  0.5311  0.2303
  158SAPE  H19S17601   2.482   1.150   5.750 -0.8567 -0.1166  0.7757
  158SAPE  C22017602   2.652   1.275   5.803 -1.3856  0.5319  0.3257
  158SAPE  H20R17603   2.664   1.375   5.850  1.5938  0.6153 -0.4035
  158SAPE  H20S17604   2.682   1.291   5.697  1.0320 -0.0697  0.8500
  158SAPE  H20T17605   2.714   1.207   5.865 -2.2023 -1.0406 -0.5262
  158SAPE   C3317606   3.258   1.346   6.305  0.1846  0.2206  0.2713
  158SAPE   H3X17607   3.205   1.254   6.336  0.6294  0.2148  1.0481
  158SAPE   H3Y17608   3.368   1.330   6.317 -0.1236 -0.4254  2.9739
  158SAPE   C3417609   3.222   1.373   6.157 -0.0820 -0.4473 -0.4108
  158SAPE   H4X17610   3.286   1.459   6.125  1.1541 -1.0328  0.3990
  158SAPE   H4Y17611   3.116   1.403   6.167  0.4109  1.1970  0.2921
  158SAPE   C3517612   3.236   1.249   6.062 -0.0060 -0.2594 -0.1421
  158SAPE   H5X17613   3.261   1.161   6.125  1.2125  0.4061  0.3465
  158SAPE   H5Y17614   3.334   1.246   6.010  0.3022 -0.5392  0.4533
  158SAPE   C3617615   3.121   1.231   5.967 -0.7162  0.4542  0.8029
  158SAPE   H6X17616   3.119   1.327   5.911 -1.6599  0.6886  1.2147
  158SAPE   H6Y17617   3.028   1.213   6.025  0.5777 -4.4622  1.8139
  158SAPE   C3717618   3.131   1.118   5.860  0.0888 -0.2359 -0.1253
  158SAPE   H7X17619   3.139   1.021   5.914  1.2961  0.1957  0.5220
  158SAPE   H7Y17620   3.220   1.133   5.796  1.0444 -1.9366  0.7369
  158SAPE   C3817621   3.007   1.120   5.769  0.1469 -0.4602 -0.8964
  158SAPE   H8X17622   2.999   1.219   5.718  0.8267  1.2899  2.1514
  158SAPE   H8Y17623   2.920   1.125   5.838  0.1804  1.2557 -0.9356
  158SAPE   C3917624   2.970   1.000   5.676 -0.1002 -0.2470 -0.3715
  158SAPE   H9X17625   2.930   0.909   5.727 -1.8046  0.1483 -0.9385
  158SAPE   H9Y17626   3.064   0.982   5.621 -0.1108  0.9674 -0.8006
  158SAPE  C31017627   2.870   1.034   5.566  0.1670  0.1544 -0.8084
  158SAPE  H10X17628   2.883   1.137   5.526  0.6493  1.0826  1.5720
  158SAPE  H10Y17629   2.772   1.061   5.610  2.0985  2.1158  2.7595
  158SAPE  C31117630   2.866   0.919   5.468 -0.0691 -0.2985 -0.5531
  158SAPE  H11X17631   2.851   0.821   5.517  1.4230  1.0931  3.0486
  158SAPE  H11Y17632   2.971   0.922   5.430  0.6967  3.1124  1.3977
  158SAPE  C31217633   2.754   0.940   5.365 -0.8177 -0.9035 -0.5276
  158SAPE  H12X17634   2.764   1.042   5.320 -0.3545 -0.9127 -0.4499
  158SAPE  H12Y17635   2.656   0.932   5.416 -1.4333  0.0821 -1.5051
  158SAPE  C31317636   2.763   0.843   5.245  0.0324 -0.6827  0.0065
  158SAPE  H13X17637   2.775   0.743   5.290  0.3297 -0.9100 -0.5771
  158SAPE  H13Y17638   2.851   0.868   5.183 -1.2904 -0.2078 -1.7610
  158SAPE  C31417639   2.635   0.848   5.157  0.2983  0.7039 -0.5225
  158SAPE  H14X17640   2.546   0.809   5.211  0.3748  0.0050 -0.8887
  158SAPE  H14Y17641   2.653   0.784   5.068 -0.6800  0.1781 -0.3644
  158SAPE  C31517642   2.600   0.986   5.108 -0.4240 -0.3145 -0.6555
  158SAPE  H15X17643   2.679   1.049   5.062 -0.9444  0.5270 -0.4293
  158SAPE  H15Y17644   2.574   1.038   5.203 -0.7739 -2.8442  0.7181
  158SAPE  C31617645   2.486   0.989   5.016  0.4946 -0.3445  0.2736
  158SAPE  H16X17646   2.407   0.930   5.067 -1.2649 -0.0759 -1.9784
  158SAPE  H16Y17647   2.519   0.931   4.927  3.9174  1.5622  0.1427
  158SAPE  C31717648   2.427   1.128   4.976  0.0837  0.0913 -0.1962
  158SAPE  H17X17649   2.414   1.195   5.064 -0.9588  0.5971 -0.7175
  158SAPE  H17Y17650   2.337   1.129   4.911  0.4133  1.3306 -0.6586
  158SAPE  C31817651   2.520   1.207   4.878  0.0399  0.0152  0.5280
  158SAPE  H18X17652   2.590   1.258   4.949 -1.0987 -1.3341  2.7299
  158SAPE  H18Y17653   2.464   1.290   4.830 -0.7978  0.5546  2.3216
  158SAPE  H18Z17654   2.564   1.138   4.802  0.7308  1.4458 -0.4213
  159SAPE     N17655   0.400   3.251   2.851  0.0816  0.2794  0.0991
  159SAPE   HN117656   0.305   3.233   2.815  0.3826 -0.1543 -0.4843
  159SAPE   HN217657   0.428   3.197   2.936  0.5343  0.6739  0.2059
  159SAPE   HN317658   0.402   3.355   2.860  1.1416  0.2687  0.1753
  159SAPE   C1217659   0.497   3.209   2.741 -0.1619  0.6796 -0.0126
  159SAPE  H12A17660   0.596   3.259   2.748  0.6427 -0.4549 -2.2563
  159SAPE  H12B17661   0.461   3.237   2.639 -0.6925 -0.7179 -0.2323
  159SAPE   C1117662   0.521   3.059   2.746 -0.7925  0.1764 -0.1481
  159SAPE  H11A17663   0.553   3.027   2.848 -2.4993  0.4852  0.5217
  159SAPE  H11B17664   0.597   3.028   2.671 -2.1739 -4.1883 -0.0415
  159SAPE     P17665   0.401   2.838   2.664 -0.0222 -0.2713  0.2883
  159SAPE   O1317666   0.263   2.784   2.647  0.5633  0.1538  0.0335
  159SAPE   O1417667   0.481   2.832   2.541 -0.7667  0.2010  0.3760
  159SAPE   O1217668   0.401   2.985   2.713  0.1599 -0.3745  0.5872
  159SAPE   O1117669   0.469   2.767   2.785 -0.3251  0.4591 -0.6062
  159SAPE    C117670   0.607   2.771   2.803 -0.6121 -0.1041  0.5796
  159SAPE    HA17671   0.664   2.749   2.710  0.1452  0.0539  1.0018
  159SAPE    HB17672   0.652   2.862   2.849  0.2330  0.1984 -0.7801
  159SAPE    C217673   0.629   2.656   2.904 -0.3897  0.3913 -0.2231
  159SAPE    HS17674   0.575   2.568   2.864 -0.3890 -0.1451  0.9411
  159SAPE   O2117675   0.576   2.701   3.031 -0.1116 -0.1527  0.3408
  159SAPE   C2117676   0.455   2.655   3.068 -0.2420  0.1218 -0.4430
  159SAPE   O2217677   0.373   2.590   3.009  0.3792  0.1026 -0.4424
  159SAPE   C2217678   0.427   2.710   3.211  0.4648 -0.4011 -0.2305
  159SAPE   H2R17679   0.500   2.665   3.283 -4.3454 -4.6026  2.7424
  159SAPE   H2S17680   0.430   2.820   3.195 -3.0849 -0.4307 -1.8866
  159SAPE    C317681   0.780   2.620   2.918 -0.3132  0.1509 -0.2880
  159SAPE    HX17682   0.852   2.704   2.935  2.3372 -1.8814 -0.7119
  159SAPE    HY17683   0.815   2.602   2.815  1.3935  1.0199  0.0968
  159SAPE   O3117684   0.797   2.509   3.012  0.4045 -0.4745 -0.2074
  159SAPE   C3117685   0.793   2.387   2.965 -1.2160  0.0748 -0.5045
  159SAPE   O3217686   0.780   2.352   2.851 -0.1153 -0.2534  0.2816
  159SAPE   C3217687   0.846   2.297   3.071  0.0459 -0.1791 -0.2592
  159SAPE   H2X17688   0.957   2.298   3.065  0.0265 -0.7262 -0.8005
  159SAPE   H2Y17689   0.807   2.198   3.038 -0.9440  1.3286 -4.1417
  159SAPE   C2317690   0.284   2.673   3.265  0.7566 -0.2542 -0.2372
  159SAPE   H3R17691   0.303   2.638   3.369  0.1387  0.0658 -0.0131
  159SAPE   H3S17692   0.238   2.584   3.216 -0.0779 -0.1777  0.3888
  159SAPE   C2417693   0.195   2.797   3.285 -0.3778  0.2944  0.5046
  159SAPE   H4R17694   0.253   2.863   3.353  0.2216  0.5419 -0.2354
  159SAPE   H4S17695   0.105   2.765   3.341 -0.7769  1.1120  0.3532
  159SAPE   C2517696   0.169   2.860   3.148 -0.1919  0.1988  0.2167
  159SAPE   H5R17697   0.138   2.787   3.072 -1.8964  0.1295  0.9359
  159SAPE   C2617698   0.152   2.992   3.122  0.1455  0.4415  0.5882
  159SAPE   H6R17699   0.133   3.011   3.016  2.1008 -1.7256 -0.2267
  159SAPE   C2717700   0.163   3.112   3.216  0.5080  0.8794 -0.3127
  159SAPE   H7R17701   0.255   3.098   3.277 -0.2508 -0.2542  0.6171
  159SAPE   H7S17702   0.078   3.095   3.285  0.5310  0.3121 -0.4185
  159SAPE   C2817703   0.170   3.244   3.150 -0.0835  0.5660  0.8247
  159SAPE   H8R17704   0.109   3.246   3.058 -0.7995 -2.8178  1.0808
  159SAPE   C2917705   0.230   3.350   3.188 -0.5383 -0.2393 -0.0561
  159SAPE   H9R17706   0.231   3.444   3.130 -2.3182  0.4222  0.9035
  159SAPE  C21017707   0.284   3.359   3.328 -0.1627 -0.1965 -0.0009
  159SAPE  H10R17708   0.355   3.444   3.323 -2.0240  1.4256  0.0184
  159SAPE  H10S17709   0.348   3.273   3.357 -1.7623 -1.1494  0.8092
  159SAPE  C21117710   0.186   3.397   3.438 -1.1793 -0.1432 -0.5951
  159SAPE  H11R17711   0.110   3.468   3.404 -0.8915  0.4492 -0.0098
  159SAPE  C21217712   0.172   3.342   3.564 -0.4484  0.3438 -0.2140
  159SAPE  H12R17713   0.091   3.382   3.626 -1.2667 -0.6598 -0.6120
  159SAPE  C21317714   0.248   3.222   3.619 -0.5442 -0.4441  0.2142
  159SAPE  H13R17715   0.317   3.248   3.702 -1.5679  2.3813  0.3064
  159SAPE  H13S17716   0.312   3.180   3.539  0.7713 -0.0075  1.0075
  159SAPE  C21417717   0.151   3.114   3.658 -0.0117  0.0494 -0.4578
  159SAPE  H14R17718   0.109   3.072   3.565  0.9740  0.3010 -1.0355
  159SAPE  C21517719   0.092   3.085   3.772  0.6990 -0.2952  0.7658
  159SAPE  H15R17720   0.028   2.996   3.782 -0.0519 -0.1923 -2.3594
  159SAPE  C21617721   0.134   3.152   3.902 -0.4692 -0.4968 -0.8736
  159SAPE  H16R17722   0.057   3.223   3.938 -0.3166  0.3451 -2.1215
  159SAPE  H16S17723   0.221   3.219   3.886  0.3798 -1.2921  0.2651
  159SAPE  C21717724   0.179   3.057   4.016  0.1427  0.1832  0.2713
  159SAPE  H17R17725   0.261   2.991   3.981  0.2846  0.5804 -0.1596
  159SAPE  H17S17726   0.090   2.998   4.045 -0.0027  1.1417  1.8789
  159SAPE  C21817727   0.231   3.116   4.145 -0.3512 -1.1059 -0.1400
  159SAPE  H18R17728   0.158   3.193   4.177 -0.3842 -1.2524  0.1458
  159SAPE  H18S17729   0.327   3.164   4.117 -1.2181  0.2155 -0.9408
  159SAPE  C21917730   0.265   3.014   4.253 -0.5280 -0.3223  0.1851
  159SAPE  H19R17731   0.313   3.059   4.342  1.0513 -0.1043 -0.7335
  159SAPE  H19S17732   0.350   2.959   4.205  1.1841  0.3372  2.3022
  159SAPE  C22017733   0.156   2.921   4.292  0.0617 -0.0613 -0.2128
  159SAPE  H20R17734   0.144   2.850   4.207  2.2011  0.0112 -0.6171
  159SAPE  H20S17735   0.060   2.976   4.302 -0.4938 -1.0730  0.2159
  159SAPE  H20T17736   0.185   2.864   4.383 -2.3573 -1.5780 -0.3030
  159SAPE   C3317737   0.813   2.330   3.219  0.3190  0.1185  0.0102
  159SAPE   H3X17738   0.872   2.414   3.261 -0.7098  1.2090 -0.6494
  159SAPE   H3Y17739   0.831   2.248   3.292 -0.2401  0.8954  1.0443
  159SAPE   C3417740   0.663   2.352   3.250  0.2195  0.2205  0.3200
  159SAPE   H4X17741   0.611   2.258   3.223  1.0380 -0.3643  0.7202
  159SAPE   H4Y17742   0.614   2.431   3.190  0.7891  0.7284  0.5066
  159SAPE   C3517743   0.644   2.388   3.399  0.7736 -0.0703  0.3232
  159SAPE   H5X17744   0.689   2.485   3.430  4.7540 -2.7086  3.8985
  159SAPE   H5Y17745   0.680   2.309   3.467  0.1004 -0.2901  0.4283
  159SAPE   C3617746   0.494   2.396   3.432  0.7337 -0.3120  0.3233
  159SAPE   H6X17747   0.449   2.300   3.399  1.6001 -0.3386 -0.8405
  159SAPE   H6Y17748   0.448   2.486   3.386 -0.8779 -0.3247  1.8158
  159SAPE   C3717749   0.482   2.401   3.585  0.9069 -0.1254  0.2776
  159SAPE   H7X17750   0.560   2.469   3.625  1.2739  1.2817 -2.5742
  159SAPE   H7Y17751   0.505   2.305   3.635  0.4910  0.1103  0.9346
  159SAPE   C3817752   0.353   2.457   3.635 -0.1717 -0.5148  0.3872
  159SAPE   H8X17753   0.267   2.390   3.613  0.4175 -1.0258 -0.4250
  159SAPE   H8Y17754   0.347   2.551   3.575 -0.9209 -0.3390  0.7320
  159SAPE   C3917755   0.355   2.499   3.780 -1.0542  0.6003  1.1584
  159SAPE   H9X17756   0.264   2.557   3.810 -0.7231  2.0535 -0.4570
  159SAPE   H9Y17757   0.443   2.567   3.786 -0.2039 -0.5153  1.6018
  159SAPE  C31017758   0.392   2.388   3.887  0.3624 -0.2642  0.3919
  159SAPE  H10X17759   0.479   2.327   3.855 -0.2454 -0.3305 -1.2831
  159SAPE  H10Y17760   0.307   2.315   3.888  0.5555 -0.5105 -0.3160
  159SAPE  C31117761   0.399   2.444   4.027 -0.1806 -0.2900 -0.1415
  159SAPE  H11X17762   0.327   2.528   4.018  0.2253  0.2442  1.2376
  159SAPE  H11Y17763   0.496   2.487   4.059 -0.5171 -1.3389  2.4927
  159SAPE  C31217764   0.349   2.345   4.134  0.2137 -0.5644  0.2208
  159SAPE  H12X17765   0.397   2.247   4.110 -0.3798 -0.7857 -0.0701
  159SAPE  H12Y17766   0.241   2.323   4.121 -0.0974  0.6426  0.5907
  159SAPE  C31317767   0.381   2.388   4.281  0.0819 -0.2140  0.6630
  159SAPE  H13X17768   0.465   2.461   4.280  0.9430 -1.1517  1.7793
  159SAPE  H13Y17769   0.423   2.294   4.324  1.2863 -0.5678 -1.1706
  159SAPE  C31417770   0.263   2.446   4.352 -0.1773  0.2259  0.3508
  159SAPE  H14X17771   0.182   2.371   4.341  0.4329 -0.4616  0.4915
  159SAPE  H14Y17772   0.248   2.539   4.293  2.6649  0.7619  0.3630
  159SAPE  C31517773   0.285   2.480   4.496  0.0555 -0.0937  0.9280
  159SAPE  H15X17774   0.322   2.390   4.550 -2.3015 -0.3299  2.2657
  159SAPE  H15Y17775   0.184   2.491   4.541 -1.2995 -0.8661 -1.7084
  159SAPE  C31617776   0.383   2.595   4.526  0.6690 -0.1214  0.5018
  159SAPE  H16X17777   0.357   2.687   4.469 -1.8507 -0.4336  1.0571
  159SAPE  H16Y17778   0.484   2.569   4.486  0.5940  0.3335  0.0066
  159SAPE  C31717779   0.392   2.627   4.681  0.4335 -0.6811  0.7120
  159SAPE  H17X17780   0.485   2.583   4.723 -1.1937 -2.5971  2.5106
  159SAPE  H17Y17781   0.317   2.566   4.735 -0.5162  0.1932  0.4192
  159SAPE  C31817782   0.377   2.778   4.704  0.3196 -0.0037 -0.4256
  159SAPE  H18X17783   0.364   2.782   4.814 -1.6514 -1.5204 -0.5433
  159SAPE  H18Y17784   0.282   2.815   4.661 -0.8138 -1.9812  0.2672
  159SAPE  H18Z17785   0.470   2.827   4.667  1.0027 -1.6742 -1.0224
  160SAPE     N17786   1.155   0.608   2.536  0.2850 -0.2779 -0.1336
  160SAPE   HN117787   1.244   0.643   2.497 -0.3262 -0.6820 -1.9607
  160SAPE   HN217788   1.172   0.523   2.594 -2.8319 -0.2277  1.0758
  160SAPE   HN317789   1.083   0.581   2.466 -0.2233  1.5657 -0.3760
  160SAPE   C1217790   1.079   0.705   2.626 -0.3816  0.4190 -0.1097
  160SAPE  H12A17791   1.004   0.641   2.678 -0.5846 -0.0716 -0.9785
  160SAPE  H12B17792   1.022   0.784   2.573 -0.4938 -0.1288 -0.8347
  160SAPE   C1117793   1.172   0.775   2.730  0.1300 -0.1791  0.6532
  160SAPE  H11A17794   1.248   0.702   2.766  0.0068 -0.2344  0.8031
  160SAPE  H11B17795   1.105   0.805   2.814 -0.8474 -1.4785  0.3685
  160SAPE     P17796   1.380   0.900   2.618 -0.4358  0.2719 -0.1448
  160SAPE   O1317797   1.404   0.767   2.555 -0.1097  0.0910 -0.5532
  160SAPE   O1417798   1.396   1.014   2.533  0.1433 -0.1429 -0.5100
  160SAPE   O1217799   1.230   0.892   2.664  0.4066  0.6984  0.2666
  160SAPE   O1117800   1.469   0.909   2.757  0.3486 -0.1900  0.2335
  160SAPE    C117801   1.435   1.023   2.839 -0.6449  0.0516 -0.9600
  160SAPE    HA17802   1.473   1.118   2.795  1.2256 -0.9102 -1.5442
  160SAPE    HB17803   1.328   1.030   2.869 -0.4197  3.8626 -0.5613
  160SAPE    C217804   1.518   1.018   2.968 -0.5818 -0.2139 -0.3464
  160SAPE    HS17805   1.625   1.021   2.938 -0.2626 -1.1627  0.6284
  160SAPE   O2117806   1.490   0.896   3.038  0.0990  0.2332  0.1671
  160SAPE   C2117807   1.588   0.870   3.125  0.6781  0.2424 -0.1677
  160SAPE   O2217808   1.684   0.943   3.141 -0.0313 -0.4371 -0.6853
  160SAPE   C2217809   1.565   0.743   3.206  0.9539 -0.2108 -0.0984
  160SAPE   H2R17810   1.455   0.737   3.223  0.8545  2.2475  0.4974
  160SAPE   H2S17811   1.599   0.653   3.151  1.5276  0.8973 -1.6032
  160SAPE    C317812   1.481   1.140   3.061  0.0869 -0.5704 -0.2820
  160SAPE    HX17813   1.514   1.226   3.000  0.6051 -0.7256 -0.2252
  160SAPE    HY17814   1.535   1.132   3.158  0.7232  0.4100 -0.5419
  160SAPE   O3117815   1.334   1.152   3.083  0.2634 -0.2971 -0.1633
  160SAPE   C3117816   1.288   1.270   3.122  0.4484 -0.2108 -0.7002
  160SAPE   O3217817   1.355   1.371   3.128  0.1653 -0.2485 -0.6293
  160SAPE   C3217818   1.141   1.262   3.158  0.4018 -0.3109  0.0018
  160SAPE   H2X17819   1.122   1.171   3.218 -2.1246 -0.9175 -1.5427
  160SAPE   H2Y17820   1.087   1.281   3.063  1.1582  0.1752 -0.3397
  160SAPE   C2317821   1.626   0.741   3.346 -0.5890  0.1000  0.3042
  160SAPE   H3R17822   1.585   0.812   3.422  1.5849 -0.1058  1.7497
  160SAPE   H3S17823   1.734   0.768   3.343 -0.5096  0.3234  2.8620
  160SAPE   C2417824   1.634   0.601   3.403  0.1081  0.6500 -0.5438
  160SAPE   H4R17825   1.673   0.532   3.325 -1.6823  0.1821 -1.0655
  160SAPE   H4S17826   1.529   0.567   3.401  0.9739 -2.2340 -0.9131
  160SAPE   C2517827   1.699   0.598   3.536 -0.2372 -0.4177  0.1627
  160SAPE   H5R17828   1.805   0.568   3.535 -0.4515 -1.2090  0.3268
  160SAPE   C2617829   1.639   0.627   3.654  0.1903  1.0010  0.4700
  160SAPE   H6R17830   1.700   0.624   3.745  1.0077 -1.6189 -0.0775
  160SAPE   C2717831   1.490   0.660   3.679 -0.7652  0.1538 -0.1372
  160SAPE   H7R17832   1.434   0.661   3.583 -0.4293  1.5521 -0.3449
  160SAPE   H7S17833   1.481   0.764   3.719 -0.1464  0.6187 -1.1653
  160SAPE   C2817834   1.432   0.560   3.782  0.4611 -0.1598 -0.1644
  160SAPE   H8R17835   1.372   0.483   3.733  0.9450  1.7046 -4.1227
  160SAPE   C2917836   1.453   0.559   3.915 -0.2080 -0.5723  0.7470
  160SAPE   H9R17837   1.404   0.478   3.971  0.4506 -1.0755  0.6022
  160SAPE  C21017838   1.527   0.654   4.003 -0.3552 -0.3137 -0.2802
  160SAPE  H10R17839   1.453   0.733   4.028 -1.5400 -1.4444 -0.1122
  160SAPE  H10S17840   1.617   0.694   3.951 -0.8694 -1.8887 -2.5535
  160SAPE  C21117841   1.568   0.605   4.139 -0.1703  0.8717 -0.2602
  160SAPE  H11R17842   1.643   0.525   4.128  0.9449  2.0634 -1.8745
  160SAPE  C21217843   1.527   0.633   4.262 -0.4777 -0.0368  0.6088
  160SAPE  H12R17844   1.572   0.574   4.342 -2.8554 -2.0131  0.6083
  160SAPE  C21317845   1.416   0.724   4.300  0.3236  0.1034 -0.0290
  160SAPE  H13R17846   1.337   0.719   4.221 -1.4103 -1.8676  1.6940
  160SAPE  H13S17847   1.439   0.832   4.297  0.6735  0.0798  1.3853
  160SAPE  C21417848   1.360   0.676   4.428 -0.0958  0.0641 -0.3636
  160SAPE  H14R17849   1.269   0.616   4.418 -0.4855  0.6478 -0.3500
  160SAPE  C21517850   1.415   0.694   4.552  0.3028 -1.1954 -0.1825
  160SAPE  H15R17851   1.365   0.647   4.638 -0.8435  1.8082  0.9302
  160SAPE  C21617852   1.534   0.782   4.588 -0.4933 -0.9664 -0.3199
  160SAPE  H16R17853   1.510   0.890   4.573  0.1967 -0.9651 -1.5944
  160SAPE  H16S17854   1.618   0.760   4.519  0.3526  0.2278  0.3030
  160SAPE  C21717855   1.607   0.762   4.732 -0.7602  0.0761 -0.0438
  160SAPE  H17R17856   1.638   0.656   4.750  0.0115  0.1257 -1.0100
  160SAPE  H17S17857   1.529   0.783   4.808 -2.3529 -2.5136 -0.8112
  160SAPE  C21817858   1.735   0.846   4.756 -0.7199 -0.0670 -0.1005
  160SAPE  H18R17859   1.706   0.947   4.720  1.6842  0.5746 -0.4088
  160SAPE  H18S17860   1.825   0.809   4.702 -0.3167 -0.0332  0.5332
  160SAPE  C21917861   1.767   0.863   4.903 -0.3354  0.8911  0.8101
  160SAPE  H19R17862   1.684   0.901   4.967 -0.0281  2.9488  0.0495
  160SAPE  H19S17863   1.840   0.945   4.911 -0.1350  0.8124 -0.1521
  160SAPE  C22017864   1.807   0.725   4.966  0.1335 -0.0821 -0.1356
  160SAPE  H20R17865   1.892   0.695   4.901  0.3312  1.2868 -0.5380
  160SAPE  H20S17866   1.726   0.651   4.947 -0.8385  1.1763 -1.0016
  160SAPE  H20T17867   1.843   0.736   5.071  2.8476 -0.7429 -0.9162
  160SAPE   C3317868   1.097   1.384   3.244  0.5093 -0.1916 -0.3105
  160SAPE   H3X17869   0.991   1.376   3.279  0.6762 -0.8207  0.0663
  160SAPE   H3Y17870   1.107   1.480   3.189 -0.3033  0.7852  1.1979
  160SAPE   C3417871   1.175   1.402   3.377 -0.5471  0.4778  0.2276
  160SAPE   H4X17872   1.282   1.419   3.354 -0.0897 -0.7852  1.3216
  160SAPE   H4Y17873   1.177   1.312   3.442  0.3307 -0.9025 -1.6175
  160SAPE   C3517874   1.118   1.526   3.454  0.5670 -0.4803 -0.0695
  160SAPE   H5X17875   1.008   1.512   3.462  0.4599  0.3153 -0.0302
  160SAPE   H5Y17876   1.142   1.615   3.393 -0.3897  0.1650  0.4668
  160SAPE   C3617877   1.181   1.528   3.590 -0.8682  0.3922 -0.4338
  160SAPE   H6X17878   1.161   1.427   3.634 -1.3245  0.0436 -1.4188
  160SAPE   H6Y17879   1.125   1.603   3.650 -0.7759  1.7236 -1.9600
  160SAPE   C3717880   1.334   1.550   3.600 -0.2407  0.4934 -0.7025
  160SAPE   H7X17881   1.359   1.659   3.595  2.1814 -0.0211 -0.9020
  160SAPE   H7Y17882   1.385   1.494   3.519 -0.9143 -1.1763 -0.0100
  160SAPE   C3817883   1.396   1.495   3.729  0.5202  0.5226 -0.1150
  160SAPE   H8X17884   1.506   1.492   3.717  0.4031  0.0805 -1.1188
  160SAPE   H8Y17885   1.366   1.388   3.732  0.1161  0.5779 -1.6648
  160SAPE   C3917886   1.345   1.569   3.853  0.3804  0.5298  0.3422
  160SAPE   H9X17887   1.234   1.570   3.847  0.3735  0.5387  0.4902
  160SAPE   H9Y17888   1.384   1.673   3.848  2.3930 -0.1968  0.1499
  160SAPE  C31017889   1.371   1.517   3.998 -0.9074  0.2940  0.4144
  160SAPE  H10X17890   1.475   1.550   4.019 -0.8001  1.1092 -1.2176
  160SAPE  H10Y17891   1.371   1.406   4.002 -2.2238  0.2670 -0.0136
  160SAPE  C31117892   1.275   1.579   4.103 -0.5420  0.7033  0.5543
  160SAPE  H11X17893   1.168   1.556   4.079 -0.7408 -0.8980  2.6637
  160SAPE  H11Y17894   1.279   1.690   4.105  0.7168  0.7243 -1.1645
  160SAPE  C31217895   1.312   1.539   4.244  0.1149 -0.1302 -0.8566
  160SAPE  H12X17896   1.414   1.578   4.263 -0.0250  0.0300 -0.4271
  160SAPE  H12Y17897   1.327   1.429   4.252  0.8792 -0.0711 -1.4020
  160SAPE  C31317898   1.220   1.604   4.352  0.0126  0.0820 -0.1854
  160SAPE  H13X17899   1.113   1.586   4.328  0.3032 -1.0702 -0.6968
  160SAPE  H13Y17900   1.236   1.713   4.346 -2.8657  0.5156 -1.4833
  160SAPE  C31417901   1.239   1.535   4.490 -0.0927  0.5269 -0.4658
  160SAPE  H14X17902   1.343   1.546   4.527 -0.4019 -0.2605  0.6807
  160SAPE  H14Y17903   1.201   1.431   4.502 -0.3795  0.6250 -0.5027
  160SAPE  C31517904   1.165   1.600   4.606  0.0764 -0.1333 -0.3647
  160SAPE  H15X17905   1.055   1.604   4.595  0.2924  1.4950 -2.4594
  160SAPE  H15Y17906   1.189   1.708   4.596 -0.2540  0.3849  3.1543
  160SAPE  C31617907   1.211   1.547   4.743 -0.7077 -0.5168  0.0293
  160SAPE  H16X17908   1.318   1.518   4.740 -0.1728  1.2342 -3.5546
  160SAPE  H16Y17909   1.142   1.461   4.760 -2.4065  0.5149 -1.2875
  160SAPE  C31717910   1.194   1.641   4.860  0.0221  0.2211 -0.1861
  160SAPE  H17X17911   1.224   1.746   4.837 -0.6848  0.9830  2.0758
  160SAPE  H17Y17912   1.268   1.619   4.940 -0.8903 -1.2934  0.2659
  160SAPE  C31817913   1.052   1.654   4.916  0.5185  0.5294  0.6592
  160SAPE  H18X17914   1.006   1.554   4.935 -0.0373  1.0425  2.1423
  160SAPE  H18Y17915   0.983   1.714   4.852  1.5747  0.4595 -0.5886
  160SAPE  H18Z17916   1.049   1.688   5.022 -2.1115  0.3470  0.7201
  161SAPE     N17917   6.629   5.404   2.751  0.1482  0.3164  0.5325
  161SAPE   HN117918   6.664   5.451   2.664  0.3908 -1.4697 -0.3798
  161SAPE   HN217919   6.653   5.303   2.746  0.6947  0.3838  1.5788
  161SAPE   HN317920   6.527   5.422   2.749  0.2872  1.1299 -0.1090
  161SAPE   C1217921   6.679   5.474   2.873  0.2026  0.2208  0.0694
  161SAPE  H12A17922   6.638   5.423   2.963  1.4203  3.2645  2.5483
  161SAPE  H12B17923   6.632   5.575   2.877 -0.9076 -0.2840  0.1195
  161SAPE   C1117924   6.829   5.484   2.882 -0.0677  0.3513 -0.2419
  161SAPE  H11A17925   6.853   5.527   2.982 -1.9726 -2.3031  1.5051
  161SAPE  H11B17926   6.873   5.548   2.803 -3.1347  0.0223 -2.3865
  161SAPE     P17927   6.924   5.255   2.983  0.2748  0.4062 -0.2433
  161SAPE   O1317928   6.798   5.183   3.005 -0.0936  0.4612 -0.9169
  161SAPE   O1417929   7.039   5.171   2.940  0.0933  0.1362  0.1880
  161SAPE   O1217930   6.890   5.354   2.871  0.1890 -0.6727  0.0712
  161SAPE   O1117931   6.956   5.344   3.116 -0.2973 -0.3098  0.1255
  161SAPE    C117932   7.076   5.415   3.104 -0.2610 -0.2496 -0.3072
  161SAPE    HA17933   7.162   5.345   3.109  0.9427  1.2397  1.2918
  161SAPE    HB17934   7.074   5.479   3.013 -1.8144 -0.7057 -0.6278
  161SAPE    C217935   7.111   5.518   3.219  0.0714 -0.4510  0.5958
  161SAPE    HS17936   7.203   5.567   3.182  0.5244 -0.2601  1.9186
  161SAPE   O2117937   7.148   5.430   3.325 -0.2345 -0.4025  0.6235
  161SAPE   C2117938   7.260   5.457   3.395 -0.2893 -0.8389 -0.3148
  161SAPE   O2217939   7.328   5.558   3.382 -0.1168 -0.2367 -0.4350
  161SAPE   C2217940   7.289   5.340   3.487 -0.0514 -0.1253  0.3781
  161SAPE   H2R17941   7.292   5.249   3.424  2.5702  0.2934 -0.2486
  161SAPE   H2S17942   7.396   5.343   3.519 -0.1868 -2.8998  1.3702
  161SAPE    C317943   6.996   5.617   3.250  0.4339  0.2230  0.1797
  161SAPE    HX17944   6.911   5.555   3.285  0.9600 -0.7404 -0.2014
  161SAPE    HY17945   6.964   5.667   3.156 -1.4599  1.8344  1.6068
  161SAPE   O3117946   7.023   5.712   3.359  0.4694  0.0347 -0.4993
  161SAPE   C3117947   7.114   5.795   3.336 -0.7837  0.2439 -0.2745
  161SAPE   O3217948   7.190   5.799   3.240  0.1069 -0.2092  0.0176
  161SAPE   C3217949   7.124   5.901   3.451 -0.4356  0.4941 -0.2445
  161SAPE   H2X17950   7.035   5.967   3.455 -0.4765  0.3641  1.5926
  161SAPE   H2Y17951   7.211   5.957   3.410 -1.0406  1.0105 -0.8358
  161SAPE   C2317952   7.197   5.338   3.607 -1.3057  0.1323 -0.1550
  161SAPE   H3R17953   7.094   5.309   3.578 -1.1663 -0.3995 -0.1144
  161SAPE   H3S17954   7.187   5.439   3.653 -1.6497 -1.1132  2.6460
  161SAPE   C2417955   7.244   5.246   3.720 -0.4056  0.2825  0.1603
  161SAPE   H4R17956   7.202   5.278   3.817 -2.0796 -1.0983 -0.0716
  161SAPE   H4S17957   7.355   5.247   3.720 -0.3465 -2.1069  0.1191
  161SAPE   C2517958   7.205   5.103   3.678  0.2734  0.1587  0.2999
  161SAPE   H5R17959   7.121   5.096   3.608 -1.9571  1.7482  2.6246
  161SAPE   C2617960   7.271   4.992   3.713 -0.1959 -0.3379  0.2265
  161SAPE   H6R17961   7.233   4.896   3.675 -1.1461 -0.0233  0.3524
  161SAPE   C2717962   7.391   4.981   3.807 -0.3389 -0.6015 -0.7485
  161SAPE   H7R17963   7.394   5.057   3.888 -0.5743 -1.0648 -0.2997
  161SAPE   H7S17964   7.486   4.991   3.750  0.2770  0.0160  0.3649
  161SAPE   C2817965   7.393   4.837   3.865  0.2017  0.1027 -0.0255
  161SAPE   H8R17966   7.416   4.761   3.789  1.6833 -0.0335  0.5259
  161SAPE   C2917967   7.383   4.815   3.998 -1.3180 -0.1046  0.0158
  161SAPE   H9R17968   7.378   4.713   4.038  1.1861  0.1651  1.2285
  161SAPE  C21017969   7.365   4.917   4.114 -0.0750  0.4315  0.7401
  161SAPE  H10R17970   7.258   4.915   4.144  0.5260  2.6809  3.4645
  161SAPE  H10S17971   7.383   5.017   4.070 -0.7259 -0.8501 -2.7864
  161SAPE  C21117972   7.436   4.878   4.239  0.1653 -0.4371 -0.1256
  161SAPE  H11R17973   7.545   4.893   4.235  0.4130 -2.2715 -1.4662
  161SAPE  C21217974   7.384   4.832   4.352 -0.1663  0.0421 -0.4331
  161SAPE  H12R17975   7.448   4.793   4.432  0.3423 -0.5996 -1.1458
  161SAPE  C21317976   7.242   4.784   4.379  0.2732 -0.4398 -0.4507
  161SAPE  H13R17977   7.248   4.674   4.392  0.0523 -0.2491  1.5731
  161SAPE  H13S17978   7.181   4.796   4.287  0.5113  0.2448 -0.5271
  161SAPE  C21417979   7.170   4.849   4.494 -0.0665  0.6947  0.1429
  161SAPE  H14R17980   7.204   4.952   4.512 -1.1573  1.4907 -1.9407
  161SAPE  C21517981   7.093   4.783   4.587  0.2249 -0.1874  0.0604
  161SAPE  H15R17982   7.044   4.837   4.668  0.0320  0.9988 -0.8297
  161SAPE  C21617983   7.054   4.640   4.593  0.3537  0.1369 -0.8207
  161SAPE  H16R17984   7.092   4.588   4.503  0.5779 -0.4388 -0.3951
  161SAPE  H16S17985   6.943   4.639   4.594  0.3545 -0.7613  0.3396
  161SAPE  C21717986   7.114   4.579   4.727  0.7529 -0.4832  0.7386
  161SAPE  H17R17987   7.075   4.620   4.822 -0.0766 -0.9811  0.6187
  161SAPE  H17S17988   7.224   4.593   4.724  0.8476 -0.7672  2.2581
  161SAPE  C21817989   7.071   4.431   4.745  0.4459 -1.0598 -0.0665
  161SAPE  H18R17990   7.133   4.378   4.669  1.8783  1.3444 -0.6641
  161SAPE  H18S17991   6.965   4.426   4.709  0.0115 -3.5924  1.3156
  161SAPE  C21917992   7.095   4.356   4.880 -0.6206  0.0596  0.1585
  161SAPE  H19R17993   7.204   4.341   4.891 -0.8643 -0.7437  1.8868
  161SAPE  H19S17994   7.044   4.259   4.862 -0.9625  0.5694 -1.8629
  161SAPE  C22017995   7.031   4.410   5.012 -0.6570 -0.0118  0.0896
  161SAPE  H20R17996   7.034   4.338   5.096 -1.7248  1.9482  1.8907
  161SAPE  H20S17997   6.924   4.407   4.980 -0.3789 -3.1178 -0.9195
  161SAPE  H20T17998   7.066   4.511   5.042 -1.0660  0.1366  0.0730
  161SAPE   C3317999   7.159   5.844   3.593 -0.8413 -0.5129  0.1672
  161SAPE   H3X18000   7.197   5.932   3.650 -0.5067 -1.0662  0.8037
  161SAPE   H3Y18001   7.239   5.768   3.591  0.5289  0.8663  0.8546
  161SAPE   C3418002   7.028   5.801   3.668 -0.2823 -0.6236  0.2374
  161SAPE   H4X18003   6.977   5.716   3.617 -0.2622 -0.0640 -0.7478
  161SAPE   H4Y18004   6.952   5.882   3.675  0.2066 -0.2052  0.6866
  161SAPE   C3518005   7.067   5.754   3.806 -0.1489  0.5114  0.3617
  161SAPE   H5X18006   7.152   5.818   3.840  0.2623  0.3526 -0.3351
  161SAPE   H5Y18007   7.106   5.650   3.806  0.0190  0.5261  2.4792
  161SAPE   C3618008   6.943   5.761   3.895 -0.5329  0.6361  0.6566
  161SAPE   H6X18009   6.884   5.668   3.878 -1.4945  1.3912 -0.2395
  161SAPE   H6Y18010   6.871   5.837   3.857  0.2315  0.4659 -1.2041
  161SAPE   C3718011   6.966   5.780   4.040  0.5829  0.5550 -0.0702
  161SAPE   H7X18012   6.867   5.778   4.089  0.4725  1.2575 -0.2541
  161SAPE   H7Y18013   7.008   5.880   4.063  0.9148  0.3602  0.1853
  161SAPE   C3818014   7.042   5.674   4.118 -0.6162  0.3236  0.0455
  161SAPE   H8X18015   7.148   5.680   4.085 -0.1720  1.0524  1.5293
  161SAPE   H8Y18016   7.014   5.568   4.099 -0.9315  0.5714 -0.9141
  161SAPE   C3918017   7.043   5.698   4.270  0.3037  0.0221  0.0573
  161SAPE   H9X18018   6.939   5.706   4.306  0.4754 -1.6200  0.9802
  161SAPE   H9Y18019   7.104   5.785   4.304  2.0364 -0.7138 -1.0219
  161SAPE  C31018020   7.102   5.569   4.332 -0.2362  0.1841  0.3979
  161SAPE  H10X18021   7.207   5.552   4.300 -0.2153 -2.7201  1.6989
  161SAPE  H10Y18022   7.039   5.484   4.297 -3.0059  2.2084  0.1728
  161SAPE  C31118023   7.101   5.575   4.488 -0.9921  0.2246 -0.8584
  161SAPE  H11X18024   6.995   5.589   4.519  0.0075  1.7918  2.1926
  161SAPE  H11Y18025   7.164   5.664   4.512  1.0284 -1.8618  2.2635
  161SAPE  C31218026   7.166   5.451   4.563  0.0421 -0.0103 -0.0219
  161SAPE  H12X18027   7.192   5.483   4.666  3.6909  0.9594 -1.1077
  161SAPE  H12Y18028   7.262   5.439   4.509 -0.7710  0.2141 -1.5786
  161SAPE  C31318029   7.084   5.323   4.562 -0.4171  0.7593  0.1718
  161SAPE  H13X18030   7.084   5.284   4.458  2.6462  0.4273  0.1968
  161SAPE  H13Y18031   6.981   5.342   4.599 -0.8009  1.3276 -1.1052
  161SAPE  C31418032   7.146   5.220   4.660 -0.8872  0.2043  0.9278
  161SAPE  H14X18033   7.086   5.127   4.651 -0.9913  0.4034 -0.8144
  161SAPE  H14Y18034   7.137   5.265   4.761  1.7777 -0.5764  1.5953
  161SAPE  C31518035   7.302   5.190   4.642  0.4754 -0.3728  0.5522
  161SAPE  H15X18036   7.356   5.287   4.639 -0.2153  0.0372 -2.9311
  161SAPE  H15Y18037   7.324   5.155   4.538  1.2712  0.4198  0.4393
  161SAPE  C31618038   7.346   5.077   4.731 -0.6766 -0.6706  0.1039
  161SAPE  H16X18039   7.291   4.986   4.698  2.8859 -2.9448 -0.0244
  161SAPE  H16Y18040   7.318   5.100   4.836  0.1257 -1.3101  0.4667
  161SAPE  C31718041   7.494   5.049   4.717 -0.3970  0.1893 -0.0662
  161SAPE  H17X18042   7.529   5.140   4.769 -1.6644  1.4965 -1.4195
  161SAPE  H17Y18043   7.532   5.053   4.613  1.4965 -0.6301  0.5479
  161SAPE  C31818044   7.535   4.925   4.792 -0.2471  0.0754 -0.5884
  161SAPE  H18X18045   7.489   4.833   4.751  0.0297  0.1959 -1.1792
  161SAPE  H18Y18046   7.512   4.936   4.900 -1.1759 -1.8776 -0.5379
  161SAPE  H18Z18047   7.646   4.912   4.790 -0.2847 -0.5947  0.4563
  162SAPE     N18048   4.917   6.760   2.817  0.1367  0.2760 -0.6823
  162SAPE   HN118049   4.823   6.773   2.777 -0.7487  1.9383  1.6754
  162SAPE   HN218050   4.901   6.706   2.905 -2.0886 -0.6458 -1.5864
  162SAPE   HN318051   4.947   6.854   2.851 -1.6149 -0.2721  2.8510
  162SAPE   C1218052   5.020   6.698   2.731  0.5526  0.3947 -0.1573
  162SAPE  H12A18053   5.113   6.707   2.791 -0.3739  0.2264  1.3755
  162SAPE  H12B18054   5.029   6.751   2.634 -0.2808  2.1321  0.6687
  162SAPE   C1118055   4.996   6.550   2.696 -0.2421  0.4155  0.4713
  162SAPE  H11A18056   5.088   6.511   2.647  1.7308 -0.6110  4.4830
  162SAPE  H11B18057   4.912   6.542   2.625 -0.3577  0.4314  0.6049
  162SAPE     P18058   4.988   6.330   2.846  0.2826  0.3691 -0.0264
  162SAPE   O1318059   4.902   6.279   2.951 -0.0985  0.0196 -0.4457
  162SAPE   O1418060   4.957   6.263   2.725  0.0982  0.3418  0.4407
  162SAPE   O1218061   4.972   6.475   2.823 -0.2367  0.8251 -0.0570
  162SAPE   O1118062   5.138   6.312   2.885 -0.1561 -0.4633  0.2905
  162SAPE    C118063   5.199   6.412   2.964 -0.5071  0.0442 -0.1900
  162SAPE    HA18064   5.270   6.462   2.895 -0.4045  0.1867  0.0176
  162SAPE    HB18065   5.132   6.486   3.015 -0.4357 -1.4238  2.1640
  162SAPE    C218066   5.287   6.343   3.077 -0.0110 -0.3710  0.5403
  162SAPE    HS18067   5.365   6.285   3.024  0.5374 -0.5850  1.5541
  162SAPE   O2118068   5.209   6.243   3.144 -0.3445  0.7588 -0.5104
  162SAPE   C2118069   5.184   6.128   3.091 -0.0015 -0.3900  0.0772
  162SAPE   O2218070   5.234   6.077   2.993 -0.0817 -0.3227  1.2908
  162SAPE   C2218071   5.073   6.056   3.180  1.0469  0.1092 -0.2315
  162SAPE   H2R18072   5.012   6.134   3.230  0.3380 -0.6926  0.1811
  162SAPE   H2S18073   5.004   6.004   3.110 -1.5176  1.1898  1.3875
  162SAPE    C318074   5.340   6.447   3.171 -0.1826  0.1136 -0.5249
  162SAPE    HX18075   5.252   6.489   3.223  0.3352  1.3188 -0.5967
  162SAPE    HY18076   5.383   6.529   3.110 -0.7632  1.6790  1.0682
  162SAPE   O3118077   5.435   6.397   3.259 -0.1156  1.0925 -0.3941
  162SAPE   C3118078   5.468   6.465   3.364 -0.0345 -0.7688  0.3515
  162SAPE   O3218079   5.422   6.577   3.393  0.2059  0.0315 -0.1859
  162SAPE   C3218080   5.571   6.395   3.451  0.3196  0.2573  0.4750
  162SAPE   H2X18081   5.668   6.445   3.431  0.6049  0.4119  2.0741
  162SAPE   H2Y18082   5.576   6.289   3.420  0.3615  0.5104 -0.4120
  162SAPE   C2318083   5.124   5.951   3.282 -0.4808 -0.3166  0.1729
  162SAPE   H3R18084   5.205   5.900   3.226 -1.2546  0.3234 -1.6100
  162SAPE   H3S18085   5.045   5.881   3.316  0.8914 -2.4703 -0.8464
  162SAPE   C2418086   5.162   6.028   3.411 -0.7820  0.5466 -0.8845
  162SAPE   H4R18087   5.067   6.068   3.452  0.1152  1.4702  0.3652
  162SAPE   H4S18088   5.235   6.110   3.394  0.5315 -0.2467  0.6332
  162SAPE   C2518089   5.237   5.945   3.514  0.0448 -0.4177 -0.0311
  162SAPE   H5R18090   5.286   5.857   3.468 -2.3141 -0.9841 -1.6985
  162SAPE   C2618091   5.241   5.952   3.648 -0.4132 -0.1193  0.2459
  162SAPE   H6R18092   5.300   5.879   3.705  0.7454  0.2704 -0.4177
  162SAPE   C2718093   5.176   6.055   3.734  0.6713  0.7421 -1.3445
  162SAPE   H7R18094   5.110   6.124   3.678 -0.1050  0.1003 -1.2442
  162SAPE   H7S18095   5.252   6.127   3.770 -0.5959  2.2928 -1.6685
  162SAPE   C2818096   5.093   5.987   3.844 -0.8007 -0.0663  0.5935
  162SAPE   H8R18097   4.992   5.964   3.806 -0.8548  0.0753  0.6520
  162SAPE   C2918098   5.122   5.983   3.979  0.1653 -0.5569  0.3875
  162SAPE   H9R18099   5.048   5.946   4.053 -1.2805  2.6817  0.7314
  162SAPE  C21018100   5.256   6.021   4.036  0.7839 -0.3590  0.6845
  162SAPE  H10R18101   5.239   6.113   4.095  0.5844  0.0529 -0.0111
  162SAPE  H10S18102   5.323   6.044   3.951 -1.9457  1.3848 -1.1466
  162SAPE  C21118103   5.310   5.918   4.136 -0.0974 -0.7956  0.3620
  162SAPE  H11R18104   5.388   5.864   4.081  0.2485 -1.5394  1.5746
  162SAPE  C21218105   5.268   5.902   4.261  0.3038  0.3952 -0.7016
  162SAPE  H12R18106   5.311   5.808   4.300 -2.3363 -1.3011 -1.6259
  162SAPE  C21318107   5.155   5.960   4.343  0.2207 -0.0131  0.2217
  162SAPE  H13R18108   5.102   6.043   4.292 -0.3005 -1.3915 -1.5573
  162SAPE  H13S18109   5.196   6.008   4.435 -2.5826 -0.2186  1.6934
  162SAPE  C21418110   5.053   5.849   4.356 -0.2322  0.4672  0.2759
  162SAPE  H14R18111   5.024   5.786   4.270  0.0795  2.9948 -1.8048
  162SAPE  C21518112   5.019   5.798   4.477 -0.4317 -0.2899 -0.4908
  162SAPE  H15R18113   4.938   5.723   4.478 -2.8827  2.2051  0.8047
  162SAPE  C21618114   5.067   5.848   4.616  0.1074  0.5067  0.9073
  162SAPE  H16R18115   4.983   5.847   4.688 -1.8447  0.7216 -1.2403
  162SAPE  H16S18116   5.089   5.956   4.601  0.6340  0.1425 -1.2216
  162SAPE  C21718117   5.189   5.782   4.672 -1.0254  0.4119 -0.3469
  162SAPE  H17R18118   5.271   5.798   4.599  1.0280  1.1606  1.9903
  162SAPE  H17S18119   5.198   5.672   4.690  2.9763  0.4464 -1.1997
  162SAPE  C21818120   5.224   5.852   4.806  0.5887  0.4678  0.0961
  162SAPE  H18R18121   5.306   5.788   4.846 -1.7823 -3.4902 -0.8459
  162SAPE  H18S18122   5.143   5.843   4.881 -1.3286 -0.3743 -1.9810
  162SAPE  C21918123   5.265   6.001   4.789  0.2746 -0.1971  0.3023
  162SAPE  H19R18124   5.180   6.065   4.822  0.2998  0.9193 -1.6343
  162SAPE  H19S18125   5.292   6.024   4.684  0.7230  1.1611  0.6938
  162SAPE  C22018126   5.362   6.048   4.892 -0.4687 -0.2736  0.4382
  162SAPE  H20R18127   5.324   6.039   4.996  0.0154  0.5601  0.6973
  162SAPE  H20S18128   5.398   6.152   4.878  1.9186 -0.9402  1.2069
  162SAPE  H20T18129   5.452   5.982   4.887  1.1591  1.8825 -0.1419
  162SAPE   C3318130   5.546   6.397   3.605 -0.5898  0.1601 -0.2489
  162SAPE   H3X18131   5.439   6.370   3.624 -0.4179  0.5658  1.4640
  162SAPE   H3Y18132   5.564   6.497   3.650 -1.7032 -0.9135  2.8007
  162SAPE   C3418133   5.645   6.296   3.661  0.1451 -0.2997 -0.1434
  162SAPE   H4X18134   5.751   6.310   3.632  0.5893 -3.1291 -0.2158
  162SAPE   H4Y18135   5.627   6.189   3.638 -1.1039  0.0648 -0.9831
  162SAPE   C3518136   5.633   6.294   3.816  0.1686  0.0886 -0.0401
  162SAPE   H5X18137   5.532   6.256   3.843 -0.6897  1.6583 -0.9062
  162SAPE   H5Y18138   5.651   6.397   3.854  0.4464  0.1046 -0.2153
  162SAPE   C3618139   5.736   6.200   3.885  0.2017 -0.0224  0.2165
  162SAPE   H6X18140   5.841   6.215   3.849 -0.2776 -0.1912 -1.3110
  162SAPE   H6Y18141   5.717   6.104   3.833 -1.8794 -1.0957  2.7355
  162SAPE   C3718142   5.709   6.194   4.033 -0.6295 -0.1923  0.0453
  162SAPE   H7X18143   5.604   6.168   4.059 -1.2263  2.3923  0.4605
  162SAPE   H7Y18144   5.737   6.293   4.074  3.2906  0.2219 -3.0333
  162SAPE   C3818145   5.803   6.093   4.114  0.2819 -0.8667 -0.1078
  162SAPE   H8X18146   5.906   6.123   4.087  0.0596  0.3885  0.3935
  162SAPE   H8Y18147   5.781   5.990   4.079  3.4132 -1.0210 -1.9913
  162SAPE   C3918148   5.794   6.091   4.270  0.3204  0.2706 -0.3053
  162SAPE   H9X18149   5.705   6.031   4.300  0.2502  0.0633 -0.8945
  162SAPE   H9Y18150   5.780   6.193   4.311  1.0410 -0.2404  1.2702
  162SAPE  C31018151   5.917   6.027   4.338 -0.0857  0.1762  1.0190
  162SAPE  H10X18152   6.006   6.071   4.289 -0.8053  0.9631  0.3904
  162SAPE  H10Y18153   5.922   5.918   4.320  0.4892  0.6059 -1.8435
  162SAPE  C31118154   5.917   6.041   4.490  0.2841  0.8126 -0.4141
  162SAPE  H11X18155   5.825   5.996   4.532  0.6892  0.8829  0.5740
  162SAPE  H11Y18156   5.895   6.148   4.510  1.4103  0.9276  0.2889
  162SAPE  C31218157   6.046   5.996   4.552 -0.3492 -0.3576  0.0039
  162SAPE  H12X18158   6.122   6.076   4.539 -0.2918 -0.3221  0.5476
  162SAPE  H12Y18159   6.096   5.916   4.494  0.3577 -0.7737  1.1634
  162SAPE  C31318160   6.034   5.970   4.699  0.5679  0.2425 -0.7223
  162SAPE  H13X18161   6.006   6.062   4.753  0.0712 -1.3806  1.9214
  162SAPE  H13Y18162   6.135   5.947   4.739 -0.2562  0.7750  1.8019
  162SAPE  C31418163   5.931   5.866   4.741  0.4918  0.6809  0.6151
  162SAPE  H14X18164   5.922   5.775   4.677 -0.4073  0.9195  0.3802
  162SAPE  H14Y18165   5.829   5.911   4.736  0.9932  1.8270  0.5826
  162SAPE  C31518166   5.948   5.811   4.886  0.8487  0.7231  1.3031
  162SAPE  H15X18167   6.046   5.760   4.889 -0.5268 -2.4645 -1.1655
  162SAPE  H15Y18168   5.867   5.737   4.903  0.7095  0.4593 -0.3229
  162SAPE  C31618169   5.939   5.900   5.009 -0.4752 -0.0398  0.2809
  162SAPE  H16X18170   5.840   5.950   5.000 -1.9044 -2.9387 -1.3937
  162SAPE  H16Y18171   6.014   5.982   5.004 -0.2416 -0.2385  0.5273
  162SAPE  C31718172   5.954   5.822   5.148 -0.3623  0.0176 -0.4227
  162SAPE  H17X18173   5.918   5.718   5.131  0.2361 -0.0241 -1.4830
  162SAPE  H17Y18174   5.888   5.861   5.229  0.8719 -0.4457  0.8588
  162SAPE  C31818175   6.102   5.826   5.195 -0.1692  0.2881 -0.6724
  162SAPE  H18X18176   6.129   5.741   5.261  1.3828  0.3992 -1.1221
  162SAPE  H18Y18177   6.113   5.925   5.245  1.0555  0.0224 -0.3943
  162SAPE  H18Z18178   6.179   5.813   5.116  0.1256 -2.1871 -0.0598
  163SAPE     N18179   6.285   5.970   2.586 -0.0349 -0.0120  0.1934
  163SAPE   HN118180   6.277   6.072   2.608 -0.3863 -0.1489  0.7290
  163SAPE   HN218181   6.335   5.927   2.667  1.8579 -0.4400 -1.1377
  163SAPE   HN318182   6.331   5.946   2.496  1.0791  1.4618  0.3253
  163SAPE   C1218183   6.145   5.910   2.585  0.4390 -0.1880  0.4254
  163SAPE  H12A18184   6.163   5.807   2.548 -3.5033 -0.0746 -2.4940
  163SAPE  H12B18185   6.083   5.963   2.510  1.4433  1.0714  0.4493
  163SAPE   C1118186   6.081   5.926   2.726  0.2722 -0.5473 -0.2369
  163SAPE  H11A18187   6.127   5.866   2.808  1.7846  0.4798 -0.2970
  163SAPE  H11B18188   5.977   5.895   2.704  0.3620  0.0161 -1.5424
  163SAPE     P18189   6.103   6.129   2.881  0.5313  0.1518 -0.3233
  163SAPE   O1318190   6.108   6.281   2.859 -0.7530  1.1253  0.0656
  163SAPE   O1418191   5.994   6.082   2.975  0.1921  0.3320 -0.4893
  163SAPE   O1218192   6.081   6.065   2.744  0.5901 -0.2000  0.0231
  163SAPE   O1118193   6.247   6.081   2.935  0.5397  0.0963  0.3452
  163SAPE    C118194   6.261   6.000   3.049  0.0038 -0.4245  0.2800
  163SAPE    HA18195   6.179   5.927   3.061 -0.6408 -0.3640 -2.9765
  163SAPE    HB18196   6.365   5.961   3.048  1.3754  2.9050  0.6763
  163SAPE    C218197   6.247   6.099   3.168  0.2269 -0.8766  0.5523
  163SAPE    HS18198   6.137   6.115   3.171  0.1961 -0.4438 -1.5875
  163SAPE   O2118199   6.319   6.222   3.147  0.1950  0.0609  0.4136
  163SAPE   C2118200   6.280   6.319   3.225 -0.1703  0.4577  0.8141
  163SAPE   O2218201   6.185   6.313   3.299 -0.1638 -0.3932 -0.4769
  163SAPE   C2218202   6.384   6.434   3.204 -0.0080  0.4208 -0.9730
  163SAPE   H2R18203   6.479   6.386   3.171 -0.0964  0.3880 -1.1836
  163SAPE   H2S18204   6.350   6.509   3.128  0.6585  2.0490  0.2845
  163SAPE    C318205   6.302   6.032   3.294 -0.1988  0.4889  0.6423
  163SAPE    HX18206   6.258   6.089   3.379  0.3697  0.4426  0.9737
  163SAPE    HY18207   6.412   6.050   3.296 -0.5539  4.7797 -3.4408
  163SAPE   O3118208   6.289   5.893   3.276  0.6063 -0.2748 -0.2806
  163SAPE   C3118209   6.183   5.850   3.344  0.3023  0.2245  0.3537
  163SAPE   O3218210   6.091   5.923   3.381  0.2856  0.5315  0.2020
  163SAPE   C3218211   6.205   5.698   3.381  0.6310  0.6645  0.1641
  163SAPE   H2X18212   6.303   5.653   3.353  0.6731  0.8432  0.0226
  163SAPE   H2Y18213   6.133   5.646   3.315 -1.5312  0.3772  2.5873
  163SAPE   C2318214   6.402   6.512   3.331  0.1934  0.6465  0.6529
  163SAPE   H3R18215   6.301   6.543   3.364 -0.6096 -0.6093 -0.5168
  163SAPE   H3S18216   6.463   6.604   3.314  0.4010  0.7373  1.8030
  163SAPE   C2418217   6.485   6.415   3.425 -0.1539 -0.3028  0.0437
  163SAPE   H4R18218   6.585   6.395   3.381 -0.0151  1.8258 -0.7601
  163SAPE   H4S18219   6.420   6.327   3.439 -2.0900  1.3092  2.0413
  163SAPE   C2518220   6.505   6.472   3.562  0.0664  0.0667 -0.8382
  163SAPE   H5R18221   6.509   6.582   3.573  0.9075 -0.0090 -0.3073
  163SAPE   C2618222   6.503   6.407   3.680 -0.0320 -0.7344  0.1637
  163SAPE   H6R18223   6.528   6.461   3.772 -2.9314  0.3024  0.4446
  163SAPE   C2718224   6.496   6.263   3.695 -0.1999  0.2868  0.4526
  163SAPE   H7R18225   6.551   6.228   3.785  3.2097  1.6342 -0.9164
  163SAPE   H7S18226   6.558   6.212   3.618  3.1114  2.6464  1.2939
  163SAPE   C2818227   6.351   6.210   3.692  0.6566  0.1742 -0.4540
  163SAPE   H8R18228   6.301   6.211   3.594  1.5309 -0.9977 -0.9328
  163SAPE   C2918229   6.283   6.160   3.799  0.0155  0.5140 -0.0861
  163SAPE   H9R18230   6.180   6.123   3.786  0.7983 -2.5925  1.5514
  163SAPE  C21018231   6.330   6.151   3.939  0.0287  0.7568 -0.2067
  163SAPE  H10R18232   6.286   6.240   3.988 -1.0760  1.0367 -1.6533
  163SAPE  H10S18233   6.441   6.155   3.946  0.2629 -1.6786 -1.5058
  163SAPE  C21118234   6.272   6.031   4.010  0.5702  0.0589  0.7942
  163SAPE  H11R18235   6.195   5.976   3.954  1.7716  2.2586 -3.4785
  163SAPE  C21218236   6.292   5.999   4.138 -0.7831  0.2893  0.4769
  163SAPE  H12R18237   6.246   5.908   4.179 -0.0580  0.8249  2.5668
  163SAPE  C21318238   6.394   6.068   4.223 -0.1921 -0.0336  0.1121
  163SAPE  H13R18239   6.344   6.091   4.320 -2.0289  0.3531 -0.8958
  163SAPE  H13S18240   6.439   6.157   4.174  0.1775 -1.3432 -2.0596
  163SAPE  C21418241   6.513   5.977   4.256  0.3252  0.2076 -0.0144
  163SAPE  H14R18242   6.602   5.981   4.192  0.3046  1.3175  0.0161
  163SAPE  C21518243   6.510   5.882   4.354  0.1283  1.0442 -0.2581
  163SAPE  H15R18244   6.589   5.806   4.350  0.1569  1.1058 -1.1204
  163SAPE  C21618245   6.409   5.848   4.466 -0.5330 -0.5834 -0.6945
  163SAPE  H16R18246   6.391   5.738   4.476 -1.4031 -0.4342 -0.5132
  163SAPE  H16S18247   6.311   5.894   4.441 -1.9777 -2.4100  1.2376
  163SAPE  C21718248   6.444   5.903   4.607  0.7065  0.6171  0.1952
  163SAPE  H17R18249   6.353   5.904   4.672  1.0894 -1.8634  0.8952
  163SAPE  H17S18250   6.480   6.007   4.603 -1.1594  1.2902 -0.2326
  163SAPE  C21818251   6.536   5.814   4.688 -0.3132 -0.2739  0.5237
  163SAPE  H18R18252   6.641   5.835   4.658  0.7209 -0.4879  3.6373
  163SAPE  H18S18253   6.503   5.710   4.672 -0.0413 -0.1452 -1.0497
  163SAPE  C21918254   6.526   5.853   4.833  0.1231  0.1763 -0.6194
  163SAPE  H19R18255   6.419   5.843   4.861 -0.2387 -2.2147 -2.5321
  163SAPE  H19S18256   6.545   5.962   4.848 -1.5151  0.2874  1.0407
  163SAPE  C22018257   6.624   5.790   4.936 -0.3256 -0.8197  0.0982
  163SAPE  H20R18258   6.600   5.849   5.027 -1.5265 -0.6849 -0.2823
  163SAPE  H20S18259   6.730   5.805   4.906 -0.5622  2.1206  0.4254
  163SAPE  H20T18260   6.600   5.683   4.949 -2.0223 -0.8116 -2.2333
  163SAPE   C3318261   6.168   5.661   3.524 -0.1048 -1.0410  0.1380
  163SAPE   H3X18262   6.072   5.707   3.558  0.1980 -0.6545  0.4959
  163SAPE   H3Y18263   6.245   5.713   3.585  0.1607 -2.4401  1.0397
  163SAPE   C3418264   6.153   5.516   3.560  0.2305  0.1239 -0.1433
  163SAPE   H4X18265   6.227   5.458   3.500 -0.4068 -2.2890  1.2596
  163SAPE   H4Y18266   6.051   5.475   3.543  0.2632 -0.4255  0.9394
  163SAPE   C3518267   6.205   5.487   3.702  0.4185  0.3382 -0.2583
  163SAPE   H5X18268   6.304   5.536   3.715 -0.0730  0.9511  1.4654
  163SAPE   H5Y18269   6.208   5.377   3.715  0.1792  0.1724 -1.4825
  163SAPE   C3618270   6.108   5.544   3.810 -0.0118  0.0526  0.0487
  163SAPE   H6X18271   6.003   5.512   3.789 -0.3384  1.5667 -0.7347
  163SAPE   H6Y18272   6.107   5.655   3.805  2.3390  0.0656 -1.4407
  163SAPE   C3718273   6.141   5.501   3.956  0.0954 -0.2655  0.2534
  163SAPE   H7X18274   6.244   5.541   3.967 -0.5452  1.0094  2.1424
  163SAPE   H7Y18275   6.132   5.391   3.968 -1.0171 -0.2347 -0.1213
  163SAPE   C3818276   6.042   5.581   4.046 -0.4513 -0.6687 -0.6264
  163SAPE   H8X18277   5.941   5.558   4.007 -0.0669 -3.1435 -0.3173
  163SAPE   H8Y18278   6.055   5.690   4.028 -0.0339 -0.1774  2.1551
  163SAPE   C3918279   6.054   5.543   4.198 -0.7461  0.8111  0.0424
  163SAPE   H9X18280   6.021   5.437   4.205 -1.9767  1.2162  0.8196
  163SAPE   H9Y18281   5.983   5.610   4.251 -0.7465  1.8495 -1.2062
  163SAPE  C31018282   6.194   5.554   4.252  0.2936  1.0395  0.0546
  163SAPE  H10X18283   6.227   5.659   4.242 -0.3135  1.1532 -0.8264
  163SAPE  H10Y18284   6.261   5.494   4.186 -0.8511  0.0173 -0.2023
  163SAPE  C31118285   6.222   5.504   4.402  0.1546  0.0346 -0.0104
  163SAPE  H11X18286   6.327   5.508   4.437  0.1117 -0.9280  0.2717
  163SAPE  H11Y18287   6.197   5.397   4.420  1.4673 -0.0262  1.7517
  163SAPE  C31218288   6.137   5.582   4.510 -0.0358 -0.4867  0.1893
  163SAPE  H12X18289   6.031   5.561   4.485  0.6240 -2.9438 -0.8717
  163SAPE  H12Y18290   6.158   5.690   4.494 -0.6651 -0.5241 -1.0279
  163SAPE  C31318291   6.168   5.544   4.649  0.3350 -0.5285 -0.0580
  163SAPE  H13X18292   6.128   5.613   4.727 -0.5594 -0.6202 -0.4246
  163SAPE  H13Y18293   6.278   5.554   4.661  0.5703  1.1285 -2.7786
  163SAPE  C31418294   6.111   5.401   4.662 -0.0358  0.0881 -0.4007
  163SAPE  H14X18295   6.160   5.328   4.593  0.5218  0.6775 -0.6332
  163SAPE  H14Y18296   6.001   5.406   4.645 -0.0552  1.2876  0.0207
  163SAPE  C31518297   6.136   5.344   4.802  0.7515  0.0959 -0.1121
  163SAPE  H15X18298   6.245   5.332   4.819  0.7509 -0.8485 -0.6925
  163SAPE  H15Y18299   6.089   5.244   4.813 -2.1741  1.5490  1.8486
  163SAPE  C31618300   6.078   5.438   4.917  0.1038  0.1944  0.5076
  163SAPE  H16X18301   5.984   5.489   4.886  0.4484 -1.0500 -2.9529
  163SAPE  H16Y18302   6.144   5.523   4.944 -0.6976  0.5289  1.5127
  163SAPE  C31718303   6.070   5.361   5.047  0.0127 -1.0493 -0.4593
  163SAPE  H17X18304   6.169   5.323   5.079  0.0084 -0.6421  0.0501
  163SAPE  H17Y18305   6.005   5.275   5.020  1.0837 -2.0724  0.1646
  163SAPE  C31818306   6.006   5.441   5.158 -0.1306  0.0603 -0.4467
  163SAPE  H18X18307   6.067   5.515   5.214 -0.4973 -1.8395  2.6901
  163SAPE  H18Y18308   5.969   5.374   5.239  0.8231  0.0078 -0.0488
  163SAPE  H18Z18309   5.911   5.479   5.115 -0.7826 -3.7596 -2.8836
  164SAPE     N18310   3.514   2.815   2.401  0.0186  0.2932  0.4030
  164SAPE   HN118311   3.502   2.722   2.357 -1.6628  0.3271  0.7156
  164SAPE   HN218312   3.568   2.871   2.331  1.6293 -1.2233  0.3679
  164SAPE   HN318313   3.573   2.803   2.485  0.1250 -1.2194  0.1410
  164SAPE   C1218314   3.378   2.869   2.440 -0.5298 -0.0330 -0.4775
  164SAPE  H12A18315   3.344   2.808   2.527 -0.4271 -0.8518 -1.0059
  164SAPE  H12B18316   3.308   2.848   2.357  1.0822  0.7173 -2.0721
  164SAPE   C1118317   3.378   3.020   2.471 -0.3628  0.3841  0.3963
  164SAPE  H11A18318   3.275   3.051   2.498 -0.6577  1.2486 -1.5121
  164SAPE  H11B18319   3.402   3.084   2.383  1.4420 -1.2030 -0.3277
  164SAPE     P18320   3.491   3.211   2.637 -0.1032 -0.2113 -0.2399
  164SAPE   O1318321   3.637   3.235   2.663 -0.5078 -0.3035  0.3452
  164SAPE   O1418322   3.411   3.297   2.545  0.0154 -0.3470  0.1065
  164SAPE   O1218323   3.474   3.057   2.577 -1.0132 -0.7579  0.5884
  164SAPE   O1118324   3.414   3.215   2.774 -0.5224  0.2500  0.0363
  164SAPE    C118325   3.409   3.096   2.861 -0.0414  0.0638 -0.3512
  164SAPE    HA18326   3.495   3.030   2.839 -0.6420 -1.3044  1.2281
  164SAPE    HB18327   3.408   3.116   2.970  0.1178 -0.9209 -0.1653
  164SAPE    C218328   3.281   3.017   2.826  0.1932 -0.5569  0.1230
  164SAPE    HS18329   3.278   2.997   2.717  1.0836 -1.3642  0.2238
  164SAPE   O2118330   3.174   3.090   2.879 -0.2985 -0.3131  0.0161
  164SAPE   C2118331   3.057   3.047   2.841 -0.5291  0.4740  0.3622
  164SAPE   O2218332   3.041   2.966   2.748 -0.5595 -0.1030 -0.1140
  164SAPE   C2218333   2.941   3.107   2.920  0.4101  0.4241 -0.0650
  164SAPE   H2R18334   2.872   3.160   2.851 -0.6420 -1.0539 -0.1970
  164SAPE   H2S18335   2.881   3.020   2.956 -1.1161  0.4708 -2.3131
  164SAPE    C318336   3.295   2.883   2.903 -0.5321  0.7977 -0.4414
  164SAPE    HX18337   3.397   2.843   2.886 -0.7823 -0.2465  0.4348
  164SAPE    HY18338   3.231   2.812   2.846 -0.6708  0.7138 -0.1836
  164SAPE   O3118339   3.295   2.893   3.045  0.6368  0.5979 -0.0563
  164SAPE   C3118340   3.176   2.884   3.102  0.1759  0.1759 -0.4203
  164SAPE   O3218341   3.072   2.852   3.048  0.1002  0.1093 -0.1280
  164SAPE   C3218342   3.203   2.908   3.254 -0.0171  0.7133 -0.0487
  164SAPE   H2X18343   3.212   2.807   3.300 -2.4483  0.2766 -0.3852
  164SAPE   H2Y18344   3.112   2.958   3.293 -1.9775 -2.0112 -0.8559
  164SAPE   C2318345   2.977   3.198   3.047  0.0912  0.1629  0.1073
  164SAPE   H3R18346   3.011   3.297   3.009  0.2640  0.7151  1.6259
  164SAPE   H3S18347   3.069   3.162   3.097  0.6341  1.0340 -0.2305
  164SAPE   C2418348   2.853   3.224   3.133  0.1146  0.0497 -0.2396
  164SAPE   H4R18349   2.768   3.246   3.064 -0.6039 -0.3065  0.5112
  164SAPE   H4S18350   2.876   3.313   3.196 -1.6455 -0.6432  1.4973
  164SAPE   C2518351   2.811   3.096   3.204  0.1837 -0.7486  0.1284
  164SAPE   H5R18352   2.789   3.011   3.138 -1.2464 -1.4959  1.5067
  164SAPE   C2618353   2.826   3.066   3.335 -0.2445 -0.4123 -0.2136
  164SAPE   H6R18354   2.812   2.962   3.369 -0.3465 -1.5940 -3.4686
  164SAPE   C2718355   2.879   3.161   3.444  0.3596 -0.4427  0.5130
  164SAPE   H7R18356   2.875   3.266   3.408  0.9165  0.2615  2.3886
  164SAPE   H7S18357   2.987   3.140   3.461  0.5638  0.8179  0.8228
  164SAPE   C2818358   2.786   3.150   3.560  0.9520 -0.3918  0.7165
  164SAPE   H8R18359   2.682   3.143   3.526  1.2255 -1.5165  0.0723
  164SAPE   C2918360   2.809   3.150   3.693 -0.5773 -0.0455 -0.6957
  164SAPE   H9R18361   2.722   3.141   3.759  0.2981  0.5177  0.5671
  164SAPE  C21018362   2.940   3.158   3.763  0.0041  0.4105 -0.9291
  164SAPE  H10R18363   3.024   3.193   3.700 -0.3209 -1.0737 -2.2649
  164SAPE  H10S18364   2.970   3.058   3.800 -2.6767  0.1846  0.9831
  164SAPE  C21118365   2.915   3.258   3.877 -0.8591  0.2549  0.0374
  164SAPE  H11R18366   2.898   3.357   3.833 -0.8639 -0.3166 -1.3021
  164SAPE  C21218367   2.929   3.242   4.008  0.7654 -0.0653 -0.2344
  164SAPE  H12R18368   2.914   3.331   4.071  0.1544  0.2754 -0.8537
  164SAPE  C21318369   2.946   3.118   4.086  0.2233  0.4964  0.3045
  164SAPE  H13R18370   3.041   3.111   4.143 -0.4561 -1.1936  1.2883
  164SAPE  H13S18371   2.941   3.025   4.026 -0.1362 -0.4444  1.7475
  164SAPE  C21418372   2.837   3.110   4.179 -0.1029 -0.1368  0.6216
  164SAPE  H14R18373   2.740   3.099   4.128  0.3090  1.9692 -0.7217
  164SAPE  C21518374   2.834   3.125   4.311 -0.5375  0.5661  0.8543
  164SAPE  H15R18375   2.739   3.100   4.361 -1.2469 -1.0730 -1.1360
  164SAPE  C21618376   2.936   3.177   4.405 -0.1072 -0.3883 -0.1227
  164SAPE  H16R18377   2.899   3.261   4.467 -0.0612  3.0399 -4.2375
  164SAPE  H16S18378   3.021   3.216   4.345 -1.6021  3.3053 -0.1116
  164SAPE  C21718379   3.007   3.064   4.493  0.4284 -0.2537  0.2303
  164SAPE  H17R18380   3.069   3.120   4.567  0.9394 -1.8595  1.0528
  164SAPE  H17S18381   3.078   3.001   4.436 -2.3154 -2.2658 -1.1616
  164SAPE  C21818382   2.908   2.979   4.574  0.2950 -0.1993 -1.0309
  164SAPE  H18R18383   2.865   2.902   4.506  0.9313 -0.9345 -0.6195
  164SAPE  H18S18384   2.828   3.045   4.614 -0.9437 -2.8881  1.3411
  164SAPE  C21918385   2.979   2.916   4.696 -0.3117 -0.6540  0.1842
  164SAPE  H19R18386   3.031   2.986   4.765  0.0628 -0.5746 -0.1784
  164SAPE  H19S18387   3.063   2.850   4.664  1.1006  0.8582  0.5967
  164SAPE  C22018388   2.882   2.830   4.774 -0.0911 -0.5495  0.1204
  164SAPE  H20R18389   2.942   2.771   4.847  0.5158  0.1432  0.1998
  164SAPE  H20S18390   2.832   2.759   4.706  2.6813 -0.8574 -1.7773
  164SAPE  H20T18391   2.808   2.890   4.832 -0.2739 -0.1538 -0.5111
  164SAPE   C3318392   3.323   3.001   3.297 -0.1043  0.1692  0.4913
  164SAPE   H3X18393   3.332   3.080   3.218 -2.3769  0.1778  0.1763
  164SAPE   H3Y18394   3.418   2.946   3.282 -1.1354 -1.6002  0.2535
  164SAPE   C3418395   3.304   3.043   3.440  0.7537 -0.7801 -0.0930
  164SAPE   H4X18396   3.202   3.086   3.450  1.4533  0.9201 -0.0022
  164SAPE   H4Y18397   3.380   3.119   3.470  0.6913 -0.5628 -0.4799
  164SAPE   C3518398   3.314   2.936   3.548 -0.6352 -0.2348  0.3072
  164SAPE   H5X18399   3.410   2.880   3.545  0.5959  1.7685  0.5184
  164SAPE   H5Y18400   3.231   2.864   3.529 -0.6243  0.1793 -1.5653
  164SAPE   C3618401   3.298   3.004   3.677 -0.6611 -0.4438  0.6401
  164SAPE   H6X18402   3.207   3.067   3.670 -0.1398  0.4093  1.3412
  164SAPE   H6Y18403   3.382   3.076   3.685 -0.5895 -0.0109 -2.4523
  164SAPE   C3718404   3.298   2.906   3.794  0.3689 -0.1265 -0.7456
  164SAPE   H7X18405   3.398   2.857   3.792  0.9626  0.9487  0.5959
  164SAPE   H7Y18406   3.234   2.819   3.769  0.5661  0.1266 -2.1991
  164SAPE   C3818407   3.264   2.972   3.924 -0.8395  0.2434 -0.5190
  164SAPE   H8X18408   3.158   2.963   3.957 -0.8626  0.4755 -0.5248
  164SAPE   H8Y18409   3.276   3.082   3.917  2.2694 -0.0764 -1.7505
  164SAPE   C3918410   3.356   2.925   4.037  0.6145 -0.1862  0.3039
  164SAPE   H9X18411   3.457   2.960   4.009 -0.3193  1.7250 -0.9482
  164SAPE   H9Y18412   3.360   2.814   4.037 -1.2487 -0.2960  1.3752
  164SAPE  C31018413   3.311   2.979   4.175 -0.0254  0.1065  0.2308
  164SAPE  H10X18414   3.202   2.971   4.192  0.1180 -2.5676  0.3077
  164SAPE  H10Y18415   3.348   3.084   4.178  1.4013 -0.1148 -3.5572
  164SAPE  C31118416   3.369   2.915   4.304  0.6604  0.2066 -0.2258
  164SAPE  H11X18417   3.385   2.805   4.304  2.3459  0.3765  2.3119
  164SAPE  H11Y18418   3.290   2.927   4.381 -0.7034 -1.2300 -1.3364
  164SAPE  C31218419   3.506   2.981   4.347 -0.0821 -0.7241  0.3429
  164SAPE  H12X18420   3.477   3.086   4.372 -0.2112 -0.2179 -1.7246
  164SAPE  H12Y18421   3.574   2.980   4.259 -0.0467  0.6993  0.3184
  164SAPE  C31318422   3.569   2.915   4.472 -0.1924 -0.1296 -0.2165
  164SAPE  H13X18423   3.586   2.807   4.455  0.6890 -0.2390  1.2425
  164SAPE  H13Y18424   3.495   2.931   4.553  0.6577 -0.8057  0.7160
  164SAPE  C31418425   3.698   2.989   4.525 -0.7479  0.3168  0.2545
  164SAPE  H14X18426   3.673   3.097   4.516  0.8422  0.7228  0.3705
  164SAPE  H14Y18427   3.784   2.965   4.459 -1.5884  2.1460 -1.6259
  164SAPE  C31518428   3.742   2.950   4.670  0.0874 -0.1018  0.1774
  164SAPE  H15X18429   3.753   2.840   4.660  0.4563  0.0253 -1.0734
  164SAPE  H15Y18430   3.659   2.977   4.738  0.0532 -0.0670  0.1225
  164SAPE  C31618431   3.879   3.012   4.705  0.1234 -0.0522  0.4344
  164SAPE  H16X18432   3.858   3.121   4.707 -2.8280 -0.4879 -1.5294
  164SAPE  H16Y18433   3.951   2.996   4.622 -0.8117 -0.1276 -0.3688
  164SAPE  C31718434   3.937   2.977   4.841  0.2674 -0.5966 -0.3806
  164SAPE  H17X18435   4.018   3.048   4.868  1.2479 -1.1369 -1.7718
  164SAPE  H17Y18436   3.978   2.874   4.839 -0.1931 -0.8191  0.7100
  164SAPE  C31818437   3.832   2.988   4.947 -0.5296 -0.7180  0.3165
  164SAPE  H18X18438   3.788   3.090   4.946  0.9052 -0.0889  0.4798
  164SAPE  H18Y18439   3.885   2.955   5.039  1.3344  2.8568  0.6677
  164SAPE  H18Z18440   3.754   2.912   4.923 -0.5517 -0.6247  0.0876
  165SAPE     N18441   0.708   6.084   2.951 -0.3115  0.5457 -0.0355
  165SAPE   HN118442   0.703   6.157   3.025  0.6957  0.6439 -0.0499
  165SAPE   HN218443   0.626   6.113   2.894 -1.5600 -0.9085  0.9551
  165SAPE   HN318444   0.688   5.989   2.987 -0.2092 -0.0033 -1.3682
  165SAPE   C1218445   0.833   6.085   2.870 -0.2791 -0.0870  0.5303
  165SAPE  H12A18446   0.812   6.023   2.780 -0.0378 -0.1179  0.4942
  165SAPE  H12B18447   0.922   6.049   2.926  0.0161 -0.0234  0.1134
  165SAPE   C1118448   0.867   6.222   2.822 -0.2828 -0.9056  0.6222
  165SAPE  H11A18449   0.776   6.255   2.768 -0.4071  0.7844  1.7904
  165SAPE  H11B18450   0.950   6.215   2.748  0.4254 -2.1199  1.4833
  165SAPE     P18451   0.860   6.453   2.964 -0.5045  0.3914 -0.1329
  165SAPE   O1318452   0.988   6.531   2.929  0.2840  0.1917 -1.0424
  165SAPE   O1418453   0.728   6.490   2.912  0.0966 -0.2499  0.2664
  165SAPE   O1218454   0.900   6.300   2.939 -0.3668 -0.6605 -0.1550
  165SAPE   O1118455   0.846   6.457   3.119  0.1944 -0.4014 -0.1609
  165SAPE    C118456   0.923   6.370   3.200 -0.3211 -0.1092 -0.9859
  165SAPE    HA18457   0.930   6.264   3.167 -0.0144 -1.2600  2.4253
  165SAPE    HB18458   1.022   6.421   3.202 -0.7276  0.6744 -0.3551
  165SAPE    C218459   0.868   6.358   3.346 -0.1821 -0.3394  0.9271
  165SAPE    HS18460   0.763   6.332   3.322 -0.2892  1.1430 -0.3502
  165SAPE   O2118461   0.876   6.489   3.408  0.0323  0.2564  0.5471
  165SAPE   C2118462   0.768   6.515   3.487  0.4190 -0.1445  0.8364
  165SAPE   O2218463   0.673   6.441   3.499 -0.0907  0.1685  0.5895
  165SAPE   C2218464   0.786   6.652   3.553 -1.4169  0.6910 -0.1126
  165SAPE   H2R18465   0.690   6.705   3.533 -2.4514 -1.1360 -0.1928
  165SAPE   H2S18466   0.819   6.631   3.657  1.3323 -0.1634 -1.0713
  165SAPE    C318467   0.953   6.255   3.421  0.0022 -0.3972 -0.3219
  165SAPE    HX18468   1.057   6.292   3.416 -0.4454  0.7477 -1.7042
  165SAPE    HY18469   0.957   6.156   3.371 -0.9139 -1.0116  0.7490
  165SAPE   O3118470   0.911   6.235   3.559 -0.4258 -0.7948 -0.0359
  165SAPE   C3118471   0.816   6.147   3.580 -0.3244  0.4110 -0.7273
  165SAPE   O3218472   0.783   6.058   3.502  0.3348  0.2717  0.9797
  165SAPE   C3218473   0.767   6.169   3.724 -0.2050 -0.2003 -0.6391
  165SAPE   H2X18474   0.724   6.270   3.737 -0.1573 -0.0373 -1.6631
  165SAPE   H2Y18475   0.858   6.153   3.785  0.0163 -3.7198 -1.6342
  165SAPE   C2318476   0.906   6.744   3.508  0.2577  0.3081  0.5686
  165SAPE   H3R18477   0.889   6.775   3.402 -0.5236 -2.9815 -0.3772
  165SAPE   H3S18478   0.999   6.685   3.518  0.3294  0.2271 -0.4194
  165SAPE   C2418479   0.937   6.874   3.583  0.4012  0.1049  0.2307
  165SAPE   H4R18480   0.848   6.941   3.578  0.3991  0.2328  1.5318
  165SAPE   H4S18481   1.023   6.930   3.541  1.4334 -0.8888  0.9382
  165SAPE   C2518482   0.987   6.853   3.727 -0.3357  0.3440  0.7345
  165SAPE   H5R18483   1.088   6.810   3.728 -0.9571 -1.1926  0.8003
  165SAPE   C2618484   0.927   6.895   3.839  0.0762  0.1487 -0.5423
  165SAPE   H6R18485   0.986   6.877   3.930  0.3454 -1.7699 -1.0510
  165SAPE   C2718486   0.803   6.983   3.851 -0.3070  0.0205 -0.6310
  165SAPE   H7R18487   0.767   7.001   3.748 -2.1104 -4.4031 -0.9840
  165SAPE   H7S18488   0.820   7.084   3.893 -0.4702 -0.8087  1.5753
  165SAPE   C2818489   0.702   6.924   3.940  0.7796  0.0921 -0.3611
  165SAPE   H8R18490   0.620   6.879   3.883  0.5709 -0.2221  0.1852
  165SAPE   C2918491   0.681   6.945   4.072  0.5850  0.4587  0.2309
  165SAPE   H9R18492   0.598   6.884   4.111  0.2255  0.7026 -0.1468
  165SAPE  C21018493   0.771   7.025   4.171 -0.3929  0.5284  0.4223
  165SAPE  H10R18494   0.729   7.126   4.189 -2.2065 -0.1693  0.2845
  165SAPE  H10S18495   0.875   7.041   4.133 -0.2865  1.4760  1.0936
  165SAPE  C21118496   0.798   6.949   4.299 -0.0477  0.0006 -0.3875
  165SAPE  H11R18497   0.866   6.862   4.292  1.5990  1.3501 -2.1120
  165SAPE  C21218498   0.742   6.977   4.415 -0.0951 -0.3645 -0.7533
  165SAPE  H12R18499   0.761   6.914   4.503 -0.5878  2.9539  1.9477
  165SAPE  C21318500   0.642   7.088   4.427  0.1937  0.5010 -0.8133
  165SAPE  H13R18501   0.560   7.078   4.353 -1.2117  1.7771  0.5116
  165SAPE  H13S18502   0.684   7.188   4.402  0.3288  0.6579  0.0004
  165SAPE  C21418503   0.585   7.083   4.567 -0.3501  0.9385 -0.0748
  165SAPE  H14R18504   0.496   7.019   4.572  1.9513 -2.6861 -1.4824
  165SAPE  C21518505   0.612   7.155   4.678 -0.3744  0.4104  0.7878
  165SAPE  H15R18506   0.550   7.123   4.763  0.7339 -2.0543  0.7451
  165SAPE  C21618507   0.732   7.247   4.694  0.4834 -0.1516 -0.0104
  165SAPE  H16R18508   0.698   7.345   4.732  0.6921 -0.5658  1.3290
  165SAPE  H16S18509   0.775   7.269   4.594  0.8606  2.4228  0.6570
  165SAPE  C21718510   0.836   7.178   4.783 -0.5975  0.5508 -0.1650
  165SAPE  H17R18511   0.862   7.082   4.733  0.5284  0.3044  0.8579
  165SAPE  H17S18512   0.803   7.160   4.887  1.6367  0.5383  0.5941
  165SAPE  C21818513   0.963   7.254   4.793  0.0238 -0.0974 -0.3793
  165SAPE  H18R18514   0.937   7.362   4.785 -2.0876 -0.4590  0.9001
  165SAPE  H18S18515   1.022   7.222   4.704  1.0137  2.6502 -0.8173
  165SAPE  C21918516   1.048   7.214   4.914 -0.4306 -1.0712  0.1151
  165SAPE  H19R18517   1.038   7.104   4.925 -1.6120 -1.1504 -1.4103
  165SAPE  H19S18518   1.005   7.251   5.010  0.2147  1.1475 -0.3945
  165SAPE  C22018519   1.199   7.258   4.910  0.1680  0.8289  0.4627
  165SAPE  H20R18520   1.225   7.217   4.810 -3.6301  1.1230 -0.8235
  165SAPE  H20S18521   1.265   7.209   4.984  3.3776 -2.7935 -4.1650
  165SAPE  H20T18522   1.220   7.367   4.904  2.0179  0.5344  0.8975
  165SAPE   C3318523   0.656   6.074   3.774  0.3179 -0.2236 -0.0386
  165SAPE   H3X18524   0.675   5.973   3.731 -0.7133 -0.2476 -0.4826
  165SAPE   H3Y18525   0.558   6.111   3.737  1.6716  1.6986 -1.8724
  165SAPE   C3418526   0.646   6.067   3.931 -0.0520 -0.3816  0.2973
  165SAPE   H4X18527   0.668   6.171   3.962 -1.0116 -0.0670 -0.0393
  165SAPE   H4Y18528   0.720   5.998   3.978  1.4696  0.1327 -1.2378
  165SAPE   C3518529   0.500   6.031   3.983 -0.5422  0.4696 -0.3512
  165SAPE   H5X18530   0.493   5.920   3.990  0.4091  0.2345 -2.4249
  165SAPE   H5Y18531   0.426   6.067   3.908 -0.4799 -1.3640 -1.3519
  165SAPE   C3618532   0.471   6.080   4.129 -0.4113 -0.4269  0.1659
  165SAPE   H6X18533   0.363   6.061   4.147 -0.3887 -1.8667 -1.0319
  165SAPE   H6Y18534   0.496   6.188   4.140 -0.3286 -0.3107 -1.0271
  165SAPE   C3718535   0.558   6.006   4.228  0.0994  0.5795 -0.1563
  165SAPE   H7X18536   0.665   6.028   4.206  0.9353 -2.7966  0.0293
  165SAPE   H7Y18537   0.560   5.895   4.222  0.9993  0.4927  1.1894
  165SAPE   C3818538   0.529   6.046   4.375 -0.3423 -0.1231  0.0330
  165SAPE   H8X18539   0.419   6.049   4.390 -0.2654  0.7310  0.4575
  165SAPE   H8Y18540   0.558   6.151   4.396 -1.7204  0.2366  0.1895
  165SAPE   C3918541   0.613   5.970   4.487  0.0749  0.0743  0.1213
  165SAPE   H9X18542   0.722   5.988   4.482  0.1862 -0.4922  0.4702
  165SAPE   H9Y18543   0.604   5.863   4.461 -2.0868  0.5938 -1.5823
  165SAPE  C31018544   0.577   5.982   4.636 -0.4701 -0.1973 -0.0942
  165SAPE  H10X18545   0.624   5.896   4.688 -0.7378  0.7482  1.8006
  165SAPE  H10Y18546   0.466   5.988   4.642 -0.5770 -2.4045  1.7524
  165SAPE  C31118547   0.643   6.107   4.703  0.1095  0.1895 -0.0253
  165SAPE  H11X18548   0.592   6.193   4.657 -0.6815  0.3018  1.0224
  165SAPE  H11Y18549   0.751   6.118   4.676 -0.0255  0.3024 -0.5243
  165SAPE  C31218550   0.649   6.098   4.852  0.3716 -0.4181 -0.6058
  165SAPE  H12X18551   0.737   6.036   4.879  0.4200 -0.5142 -0.9869
  165SAPE  H12Y18552   0.550   6.061   4.888  0.4398  0.1915  0.2346
  165SAPE  C31318553   0.674   6.239   4.924  0.4711 -0.0135  0.4894
  165SAPE  H13X18554   0.583   6.296   4.896 -1.3280 -2.2902  1.4759
  165SAPE  H13Y18555   0.763   6.293   4.883  1.5477 -0.5291  2.0358
  165SAPE  C31418556   0.694   6.229   5.079  0.3852 -0.0738  0.8516
  165SAPE  H14X18557   0.786   6.168   5.089  1.4138  1.4324  0.8363
  165SAPE  H14Y18558   0.601   6.176   5.107 -0.5425  0.8120 -0.4236
  165SAPE  C31518559   0.723   6.374   5.136 -0.1798  0.6092 -0.2799
  165SAPE  H15X18560   0.654   6.458   5.114 -0.1395  0.6693 -0.1769
  165SAPE  H15Y18561   0.817   6.404   5.084  0.9773  0.3135  1.5392
  165SAPE  C31618562   0.738   6.367   5.292 -0.8384 -0.1292  0.5735
  165SAPE  H16X18563   0.762   6.467   5.333  0.2604 -0.4630  0.7871
  165SAPE  H16Y18564   0.814   6.303   5.342  0.5422  0.9412 -0.1045
  165SAPE  C31718565   0.605   6.345   5.365  0.2331  0.6059 -0.1804
  165SAPE  H17X18566   0.526   6.365   5.289 -0.9000 -0.1347  0.7615
  165SAPE  H17Y18567   0.595   6.414   5.451  0.4785 -2.2995  2.3340
  165SAPE  C31818568   0.597   6.201   5.422 -1.1477 -0.0888 -0.1092
  165SAPE  H18X18569   0.637   6.132   5.345 -0.5912 -0.4064  0.4566
  165SAPE  H18Y18570   0.493   6.167   5.440 -1.3614  0.4613 -0.2813
  165SAPE  H18Z18571   0.666   6.203   5.509 -1.9553  2.4194  0.5648
  166SAPE     N18572   1.642   5.126   2.631 -0.1316 -0.1654 -0.1425
  166SAPE   HN118573   1.554   5.165   2.669 -0.2459  1.3891 -1.8818
  166SAPE   HN218574   1.644   5.137   2.528 -1.0523 -1.4886 -0.3275
  166SAPE   HN318575   1.626   5.024   2.649  1.6686 -0.5604 -0.5284
  166SAPE   C1218576   1.766   5.184   2.688  0.5147  0.0638  0.5885
  166SAPE  H12A18577   1.757   5.294   2.698 -0.7930  0.0443 -0.0511
  166SAPE  H12B18578   1.849   5.158   2.619 -0.1500 -0.4294 -0.0490
  166SAPE   C1118579   1.794   5.117   2.826 -0.6894  0.0696  0.2457
  166SAPE  H11A18580   1.710   5.148   2.891 -2.6278 -0.1080 -2.0158
  166SAPE  H11B18581   1.897   5.149   2.855 -0.3455 -0.9774  0.2169
  166SAPE     P18582   1.755   4.877   2.924  0.1504 -0.0980 -0.3375
  166SAPE   O1318583   1.643   4.938   2.997 -0.4844 -0.5956 -0.6649
  166SAPE   O1418584   1.728   4.745   2.861  0.0255 -0.2005 -0.2382
  166SAPE   O1218585   1.800   4.974   2.803  0.1942 -0.2504  0.0175
  166SAPE   O1118586   1.886   4.872   3.017  0.0225 -0.1383  0.0203
  166SAPE    C118587   2.016   4.854   2.957  0.1325 -0.6749 -0.1926
  166SAPE    HA18588   2.013   4.756   2.904 -1.1178 -0.5042 -0.4688
  166SAPE    HB18589   2.037   4.932   2.882  0.7083 -1.5101 -0.9247
  166SAPE    C218590   2.126   4.850   3.061 -0.3406 -0.0231  0.1174
  166SAPE    HS18591   2.171   4.749   3.069  2.4773  1.1377  0.2537
  166SAPE   O2118592   2.082   4.887   3.193  0.5576  0.8560 -0.0574
  166SAPE   C2118593   2.009   4.793   3.259 -0.4552 -0.6044 -0.6593
  166SAPE   O2218594   2.011   4.669   3.243  0.3383 -0.1759 -0.2648
  166SAPE   C2218595   1.913   4.875   3.356  0.8635  0.7121  0.4621
  166SAPE   H2R18596   1.965   4.936   3.432 -0.9815  1.3334  1.2937
  166SAPE   H2S18597   1.847   4.938   3.292 -0.5628 -0.2737  0.9048
  166SAPE    C318598   2.245   4.935   3.013  0.6446 -0.3974 -0.0362
  166SAPE    HX18599   2.206   5.037   2.996  3.0868  0.1107 -3.4568
  166SAPE    HY18600   2.283   4.901   2.915  3.6060  0.6914  0.6284
  166SAPE   O3118601   2.357   4.942   3.109  0.4156  0.3207  0.1650
  166SAPE   C3118602   2.437   4.833   3.106 -0.6854 -0.4765  0.1625
  166SAPE   O3218603   2.427   4.737   3.032  0.2242  0.3640  0.0654
  166SAPE   C3218604   2.533   4.841   3.223  0.3425  0.3196  0.1588
  166SAPE   H2X18605   2.586   4.938   3.209 -1.0344  0.8114 -2.2831
  166SAPE   H2Y18606   2.608   4.761   3.206  0.2487  0.7671 -2.9278
  166SAPE   C2318607   1.815   4.780   3.433 -0.5162 -0.0852 -0.0146
  166SAPE   H3R18608   1.863   4.708   3.503 -0.2184 -1.4079 -1.5279
  166SAPE   H3S18609   1.769   4.730   3.345  0.3444 -0.3743 -0.3134
  166SAPE   C2418610   1.690   4.849   3.497 -0.5792 -0.5646 -0.3479
  166SAPE   H4R18611   1.621   4.773   3.539  0.4001 -0.0727  2.3678
  166SAPE   H4S18612   1.642   4.899   3.410  1.6680 -0.4434 -1.6122
  166SAPE   C2518613   1.735   4.957   3.588 -0.4414 -0.9198 -0.9392
  166SAPE   H5R18614   1.768   5.050   3.539 -1.0031 -0.1194  0.1609
  166SAPE   C2618615   1.712   4.966   3.718  0.0343 -1.1546 -0.5632
  166SAPE   H6R18616   1.760   5.043   3.780  1.5118 -1.5341 -1.1927
  166SAPE   C2718617   1.645   4.867   3.805 -0.7142 -0.1333 -0.8361
  166SAPE   H7R18618   1.696   4.881   3.902 -0.8888  0.3296 -0.8107
  166SAPE   H7S18619   1.681   4.767   3.772  2.4263 -0.2224  2.2484
  166SAPE   C2818620   1.501   4.891   3.826  0.5446 -0.3920 -0.1352
  166SAPE   H8R18621   1.438   4.893   3.736 -1.2286 -0.9359  1.0463
  166SAPE   C2918622   1.427   4.909   3.937 -1.0317 -0.0744  0.0802
  166SAPE   H9R18623   1.321   4.925   3.915 -1.5372 -2.7601  0.1729
  166SAPE  C21018624   1.476   4.893   4.080 -0.0757 -0.0699 -0.1500
  166SAPE  H10R18625   1.587   4.900   4.089 -0.2817  1.1194  2.1077
  166SAPE  H10S18626   1.443   4.792   4.110 -3.0867  0.5259 -1.0668
  166SAPE  C21118627   1.404   4.969   4.193  0.0387  0.1744 -0.3879
  166SAPE  H11R18628   1.297   4.981   4.174 -0.3566 -0.9531  0.9680
  166SAPE  C21218629   1.469   5.029   4.290 -0.0008 -0.0262  0.0854
  166SAPE  H12R18630   1.414   5.102   4.351 -0.0272  0.1891 -0.1930
  166SAPE  C21318631   1.614   5.036   4.328 -0.2646 -0.1716 -0.0216
  166SAPE  H13R18632   1.646   5.142   4.330  0.6276 -0.4225 -0.6348
  166SAPE  H13S18633   1.676   5.006   4.241 -1.3317  0.5509 -1.0636
  166SAPE  C21418634   1.668   4.959   4.452  0.5707 -0.1285 -0.0096
  166SAPE  H14R18635   1.592   4.902   4.509  0.4544 -0.1650 -0.1987
  166SAPE  C21518636   1.792   4.952   4.492  0.2004 -0.0705 -0.0385
  166SAPE  H15R18637   1.813   4.909   4.590 -1.3444  2.5750  1.5771
  166SAPE  C21618638   1.900   5.032   4.430 -0.0401 -0.0539  0.3618
  166SAPE  H16R18639   1.863   5.080   4.336 -0.2455  2.2228  1.5383
  166SAPE  H16S18640   1.988   4.973   4.397  0.4586  0.5800  0.5224
  166SAPE  C21718641   1.961   5.143   4.517 -0.3252 -0.3159 -0.1420
  166SAPE  H17R18642   1.992   5.113   4.620  0.6216  0.9325 -0.0366
  166SAPE  H17S18643   1.895   5.231   4.523  1.6480  1.3324 -1.2476
  166SAPE  C21818644   2.088   5.195   4.437 -0.3796 -1.0918  0.1526
  166SAPE  H18R18645   2.049   5.252   4.350  0.4580  1.9842  1.6589
  166SAPE  H18S18646   2.147   5.110   4.397 -1.0673 -0.9960 -1.1023
  166SAPE  C21918647   2.189   5.264   4.529 -0.6696 -0.3451 -0.3146
  166SAPE  H19R18648   2.120   5.295   4.610  1.2769  4.0739 -0.1014
  166SAPE  H19S18649   2.239   5.356   4.493  1.6065 -0.8260  1.3565
  166SAPE  C22018650   2.286   5.161   4.586  0.1880  0.2165  0.0684
  166SAPE  H20R18651   2.328   5.199   4.681 -1.1569  0.3466  0.6294
  166SAPE  H20S18652   2.377   5.146   4.523  0.8944  3.2442  0.2336
  166SAPE  H20T18653   2.229   5.068   4.606  1.0450 -0.1884  0.7063
  166SAPE   C3318654   2.472   4.819   3.356  0.2281  0.0604 -0.4406
  166SAPE   H3X18655   2.436   4.716   3.376 -1.4253  1.0949  2.4016
  166SAPE   H3Y18656   2.386   4.889   3.356  1.4915  1.7284 -1.6296
  166SAPE   C3418657   2.566   4.881   3.463 -0.3361 -0.0748 -0.1254
  166SAPE   H4X18658   2.589   4.985   3.430  1.2156 -0.5463 -0.6312
  166SAPE   H4Y18659   2.654   4.813   3.457 -1.7448 -1.9616 -0.1746
  166SAPE   C3518660   2.496   4.882   3.607 -0.2577 -1.0952 -0.2029
  166SAPE   H5X18661   2.455   4.785   3.642  0.9537 -1.5570  0.0138
  166SAPE   H5Y18662   2.403   4.942   3.610 -0.2359 -0.7685 -2.8788
  166SAPE   C3618663   2.601   4.928   3.717  0.3177 -0.1703  0.2353
  166SAPE   H6X18664   2.626   5.036   3.720 -0.7305  0.2299 -2.6593
  166SAPE   H6Y18665   2.700   4.881   3.697 -0.3173 -1.1713 -0.7067
  166SAPE   C3718666   2.550   4.901   3.860  0.0774  0.0690  0.6724
  166SAPE   H7X18667   2.509   4.798   3.871  0.3585  0.0949  2.2245
  166SAPE   H7Y18668   2.473   4.977   3.885  0.9464  1.9727 -1.9781
  166SAPE   C3818669   2.657   4.908   3.971  0.0900 -0.7455  0.3799
  166SAPE   H8X18670   2.646   5.007   4.020  2.5120  0.9825 -2.2121
  166SAPE   H8Y18671   2.751   4.906   3.912 -1.2006 -0.0975 -1.8233
  166SAPE   C3918672   2.654   4.800   4.079 -0.0332  0.0704 -0.2407
  166SAPE   H9X18673   2.754   4.789   4.127  0.3673  0.9794 -0.8456
  166SAPE   H9Y18674   2.642   4.702   4.027  0.4098 -0.3502  0.4312
  166SAPE  C31018675   2.540   4.815   4.174 -0.7388  0.0171 -0.0991
  166SAPE  H10X18676   2.446   4.810   4.115 -1.4681 -0.5330  1.0816
  166SAPE  H10Y18677   2.540   4.915   4.222  1.0524  0.3654 -0.7368
  166SAPE  C31118678   2.531   4.719   4.293 -0.5582  0.2647 -0.1395
  166SAPE  H11X18679   2.639   4.697   4.311 -0.1213  1.1374 -1.5210
  166SAPE  H11Y18680   2.492   4.623   4.255  3.8793 -1.5004 -0.8792
  166SAPE  C31218681   2.449   4.768   4.416 -0.2908 -0.0609 -0.3516
  166SAPE  H12X18682   2.483   4.866   4.456 -1.9535  1.1923 -1.8802
  166SAPE  H12Y18683   2.454   4.689   4.494  0.9141  0.4831  0.1480
  166SAPE  C31318684   2.306   4.799   4.376 -0.3920 -0.8366  0.8930
  166SAPE  H13X18685   2.307   4.879   4.299  0.0919 -0.9499  0.7763
  166SAPE  H13Y18686   2.255   4.840   4.466 -1.0913 -1.3038  0.7140
  166SAPE  C31418687   2.224   4.678   4.328 -0.2463 -0.2785  0.3689
  166SAPE  H14X18688   2.224   4.604   4.411 -2.4037  1.9675  2.5550
  166SAPE  H14Y18689   2.270   4.630   4.239 -1.0959 -0.9554  0.2777
  166SAPE  C31518690   2.084   4.728   4.290 -0.5597 -0.2191 -0.0119
  166SAPE  H15X18691   2.112   4.817   4.230  1.6032  0.9700  2.5316
  166SAPE  H15Y18692   2.049   4.754   4.392 -0.8408  0.9020 -0.3755
  166SAPE  C31618693   1.997   4.645   4.200 -0.2380  0.5138  0.0384
  166SAPE  H16X18694   1.989   4.539   4.231  5.4666 -0.3709 -0.5010
  166SAPE  H16Y18695   2.061   4.630   4.111 -0.1576  2.1337 -0.1983
  166SAPE  C31718696   1.865   4.711   4.168  0.0721 -0.3604  0.0183
  166SAPE  H17X18697   1.891   4.816   4.141  0.0676 -0.3477  0.0639
  166SAPE  H17Y18698   1.810   4.727   4.263 -0.5357 -1.6011 -0.1083
  166SAPE  C31818699   1.781   4.628   4.069  0.0379 -0.6014  0.1295
  166SAPE  H18X18700   1.789   4.670   3.967  2.7896 -1.1771  0.0307
  166SAPE  H18Y18701   1.675   4.635   4.102  0.1640  1.9343  0.2346
  166SAPE  H18Z18702   1.815   4.523   4.068 -0.8847 -0.9252 -1.5914
  167SAPE     N18703   4.077   2.601   2.611 -0.3692  0.6920 -0.4807
  167SAPE   HN118704   4.167   2.549   2.611 -1.0431 -0.5345  0.4820
  167SAPE   HN218705   4.007   2.543   2.560 -0.3165 -4.6559  4.4478
  167SAPE   HN318706   4.086   2.699   2.579  2.0893  1.6321  2.5700
  167SAPE   C1218707   4.046   2.593   2.758  0.5070  0.1985  0.0504
  167SAPE  H12A18708   4.129   2.643   2.812  0.2233 -1.1217  1.7675
  167SAPE  H12B18709   4.044   2.487   2.791 -1.6593 -0.1911 -1.1483
  167SAPE   C1118710   3.914   2.656   2.797 -0.6448  0.1259  0.3482
  167SAPE  H11A18711   3.912   2.761   2.761  1.6595  0.0422 -0.1521
  167SAPE  H11B18712   3.903   2.666   2.907 -0.3533  1.6378  0.2577
  167SAPE     P18713   3.670   2.660   2.693 -0.4974  0.0102  0.2139
  167SAPE   O1318714   3.695   2.783   2.608  0.3369 -0.0732 -0.0135
  167SAPE   O1418715   3.583   2.564   2.628  0.6248  0.2104  0.2235
  167SAPE   O1218716   3.802   2.581   2.735  0.0115  0.3916  0.0578
  167SAPE   O1118717   3.603   2.713   2.825  0.1033  0.6668 -0.3867
  167SAPE    C118718   3.575   2.626   2.939  0.0622  0.8376  0.2188
  167SAPE    HA18719   3.473   2.583   2.933  0.1833  0.7770 -2.3721
  167SAPE    HB18720   3.643   2.539   2.955 -1.9087 -0.6767  0.8143
  167SAPE    C218721   3.595   2.712   3.070 -0.6087  0.0944  1.0893
  167SAPE    HS18722   3.524   2.795   3.046 -0.2192 -0.1347 -1.1202
  167SAPE   O2118723   3.732   2.765   3.069 -0.0298  0.6427 -0.1759
  167SAPE   C2118724   3.738   2.886   3.133  0.1975  0.8436 -1.5105
  167SAPE   O2218725   3.638   2.946   3.170 -0.3371 -0.5441  0.6831
  167SAPE   C2218726   3.880   2.932   3.135 -0.7749  0.4641 -0.5196
  167SAPE   H2R18727   3.938   2.862   3.198 -0.0683  1.6564  0.1958
  167SAPE   H2S18728   3.910   2.911   3.030 -3.0799 -1.1742 -0.9331
  167SAPE    C318729   3.559   2.652   3.210 -0.4183  0.2570  0.1174
  167SAPE    HX18730   3.560   2.724   3.295 -0.3642 -0.0753  0.3991
  167SAPE    HY18731   3.641   2.578   3.220  1.3664  2.1955  0.4108
  167SAPE   O3118732   3.423   2.594   3.201  0.1795  0.1002  0.1101
  167SAPE   C3118733   3.413   2.472   3.240 -0.3119  0.6051 -0.2156
  167SAPE   O3218734   3.503   2.404   3.287  0.0607 -0.0594 -0.0829
  167SAPE   C3218735   3.269   2.429   3.237  0.0464  0.2662 -0.2333
  167SAPE   H2X18736   3.265   2.336   3.299 -1.8095  0.3469 -0.1680
  167SAPE   H2Y18737   3.239   2.397   3.135  0.0185 -0.8368  0.1099
  167SAPE   C2318738   3.903   3.075   3.176 -0.0205  0.1535 -0.2666
  167SAPE   H3R18739   3.903   3.085   3.286 -3.6528  1.3644 -0.2429
  167SAPE   H3S18740   3.821   3.143   3.143  1.5892  0.9581 -2.9171
  167SAPE   C2418741   4.027   3.147   3.113 -0.3963  0.0374 -0.5920
  167SAPE   H4R18742   4.116   3.081   3.129  0.1569  0.7964 -0.4837
  167SAPE   H4S18743   4.052   3.235   3.175  1.8348  0.2815 -1.7351
  167SAPE   C2518744   4.019   3.165   2.965 -0.5277 -0.6422  0.4325
  167SAPE   H5R18745   3.925   3.199   2.919  0.8369 -0.8666 -2.7740
  167SAPE   C2618746   4.118   3.129   2.879 -0.6090 -0.2169  0.0639
  167SAPE   H6R18747   4.095   3.153   2.774 -0.7284  2.1266  0.5670
  167SAPE   C2718748   4.253   3.083   2.901  0.2584  0.1266 -0.0790
  167SAPE   H7R18749   4.278   3.059   3.007  2.3472  2.8099  0.1517
  167SAPE   H7S18750   4.314   3.170   2.869 -1.0217  1.7394  1.5821
  167SAPE   C2818751   4.286   2.975   2.799  0.2095 -0.6048 -0.0161
  167SAPE   H8R18752   4.318   3.020   2.704 -0.5140 -0.0482 -0.0076
  167SAPE   C2918753   4.316   2.850   2.833 -0.2698 -0.3809 -0.0375
  167SAPE   H9R18754   4.347   2.781   2.753 -2.7884 -0.7301 -0.7874
  167SAPE  C21018755   4.298   2.794   2.964 -0.8001  0.7144 -0.4711
  167SAPE  H10R18756   4.252   2.693   2.959  2.0429 -0.6514 -1.0991
  167SAPE  H10S18757   4.224   2.855   3.020  0.1042  2.1037 -0.7501
  167SAPE  C21118758   4.424   2.775   3.051 -0.0637  0.1693 -0.3655
  167SAPE  H11R18759   4.516   2.767   2.991  0.3486  0.5711  0.1972
  167SAPE  C21218760   4.430   2.768   3.186 -0.2472 -0.0932  0.5403
  167SAPE  H12R18761   4.527   2.757   3.235 -0.1292 -1.2319  0.0819
  167SAPE  C21318762   4.314   2.766   3.283  0.3150 -0.2959 -0.1540
  167SAPE  H13R18763   4.333   2.704   3.373  0.0555 -0.7443 -0.4038
  167SAPE  H13S18764   4.234   2.700   3.244 -0.0734 -0.4096  0.8119
  167SAPE  C21418765   4.245   2.899   3.312 -0.3677  0.6782 -0.4227
  167SAPE  H14R18766   4.188   2.947   3.233  1.8214  0.8203 -2.0175
  167SAPE  C21518767   4.242   2.954   3.434 -0.5218  0.1259  0.1459
  167SAPE  H15R18768   4.185   3.048   3.435  0.2880  0.6435 -0.4281
  167SAPE  C21618769   4.306   2.912   3.569  0.4342  0.8030 -0.0254
  167SAPE  H16R18770   4.391   2.979   3.593 -0.0753  1.2248  0.6383
  167SAPE  H16S18771   4.334   2.804   3.563 -0.1963  0.5975  0.6711
  167SAPE  C21718772   4.209   2.936   3.690 -0.3225  0.0789 -0.3897
  167SAPE  H17R18773   4.134   2.856   3.709  1.1777 -1.0772  0.9629
  167SAPE  H17S18774   4.148   3.029   3.683 -2.2524 -1.1048 -0.1157
  167SAPE  C21818775   4.290   2.944   3.824  0.5690 -0.3245  0.2170
  167SAPE  H18R18776   4.356   3.032   3.821 -0.4001  0.3798 -2.1206
  167SAPE  H18S18777   4.344   2.847   3.834  2.1601  0.4319 -0.8274
  167SAPE  C21918778   4.187   2.972   3.938  0.4290 -0.3094  0.2152
  167SAPE  H19R18779   4.113   2.892   3.917  1.5083 -0.9761 -1.2381
  167SAPE  H19S18780   4.145   3.075   3.926 -1.3914 -0.9043  1.0586
  167SAPE  C22018781   4.228   2.954   4.088  0.0226  0.1352  0.2760
  167SAPE  H20R18782   4.304   2.874   4.101  0.3314  0.2363 -0.8173
  167SAPE  H20S18783   4.140   2.929   4.150 -0.1910 -2.7413 -1.0539
  167SAPE  H20T18784   4.274   3.050   4.123  1.0140  0.0313 -0.6584
  167SAPE   C3318785   3.173   2.520   3.316 -0.0409 -0.1066  0.2124
  167SAPE   H3X18786   3.076   2.468   3.333 -0.6967  0.8984 -0.3748
  167SAPE   H3Y18787   3.140   2.606   3.253  0.0849 -1.3835 -1.6974
  167SAPE   C3418788   3.219   2.568   3.453  0.0638 -0.1601  0.2424
  167SAPE   H4X18789   3.156   2.645   3.501  0.6405  0.6118 -0.2264
  167SAPE   H4Y18790   3.321   2.613   3.450  0.2592 -0.5805  0.5383
  167SAPE   C3518791   3.219   2.443   3.552  0.8106  0.6797 -0.3601
  167SAPE   H5X18792   3.297   2.374   3.515  1.5190  0.8460  0.7790
  167SAPE   H5Y18793   3.120   2.392   3.548  0.6864  0.8841 -0.0037
  167SAPE   C3618794   3.256   2.474   3.704  0.1557 -0.3573 -0.3470
  167SAPE   H6X18795   3.252   2.374   3.752 -3.4935  0.6351  1.7548
  167SAPE   H6Y18796   3.187   2.549   3.747  0.0988  0.3413 -1.6040
  167SAPE   C3718797   3.393   2.535   3.733  0.1327 -0.2915 -0.2534
  167SAPE   H7X18798   3.391   2.646   3.725  0.2324 -0.2714 -0.0209
  167SAPE   H7Y18799   3.477   2.502   3.668 -1.1004 -0.5832 -1.7615
  167SAPE   C3818800   3.444   2.518   3.879 -0.2458 -0.4794  0.1616
  167SAPE   H8X18801   3.448   2.413   3.915 -0.6241 -0.2122  1.0089
  167SAPE   H8Y18802   3.367   2.574   3.936  1.7641  2.1621  0.5120
  167SAPE   C3918803   3.579   2.587   3.895  0.0618 -0.1088  0.2075
  167SAPE   H9X18804   3.571   2.687   3.848 -0.8284 -0.2020  0.1298
  167SAPE   H9Y18805   3.649   2.528   3.832 -2.2395 -2.1605 -0.6218
  167SAPE  C31018806   3.622   2.597   4.040 -0.5970 -0.2739 -0.5247
  167SAPE  H10X18807   3.624   2.498   4.091 -0.0649  0.1688  0.3225
  167SAPE  H10Y18808   3.561   2.668   4.100  0.1930 -0.5092  0.5933
  167SAPE  C31118809   3.771   2.656   4.033  0.2201 -0.6260 -0.2959
  167SAPE  H11X18810   3.776   2.752   3.976  2.3978 -0.6159 -0.1726
  167SAPE  H11Y18811   3.838   2.583   3.983  0.3979 -0.4083 -0.3778
  167SAPE  C31218812   3.844   2.686   4.170  0.0635  0.1695 -0.1151
  167SAPE  H12X18813   3.788   2.768   4.221 -1.3322  0.3842 -1.8877
  167SAPE  H12Y18814   3.943   2.733   4.149  0.7055 -0.6841  0.9041
  167SAPE  C31318815   3.853   2.569   4.261  0.0843  0.2282 -0.1223
  167SAPE  H13X18816   3.921   2.499   4.209 -0.7301  1.4482 -3.0557
  167SAPE  H13Y18817   3.756   2.516   4.276 -1.2709  1.3902 -3.5887
  167SAPE  C31418818   3.904   2.620   4.406 -0.2024  0.5470 -0.1896
  167SAPE  H14X18819   3.838   2.703   4.439 -2.9397 -1.8318  0.7607
  167SAPE  H14Y18820   4.011   2.650   4.404 -1.0235  4.1672  2.1869
  167SAPE  C31518821   3.897   2.509   4.505  0.6921 -0.1982 -0.6572
  167SAPE  H15X18822   3.954   2.421   4.467  2.4291  0.9208 -0.7538
  167SAPE  H15Y18823   3.791   2.481   4.519  0.2417  0.8963 -1.7029
  167SAPE  C31618824   3.963   2.538   4.640  0.1664 -0.1433  0.2270
  167SAPE  H16X18825   3.924   2.637   4.670  2.2281  1.4257 -1.8885
  167SAPE  H16Y18826   4.072   2.560   4.633  0.3468 -1.3851 -1.6088
  167SAPE  C31718827   3.950   2.437   4.751  0.0333  0.0120  0.1911
  167SAPE  H17X18828   3.970   2.336   4.708  1.6734  0.7089 -0.7845
  167SAPE  H17Y18829   3.844   2.436   4.783 -0.1659 -0.9209 -0.4574
  167SAPE  C31818830   4.048   2.454   4.867 -0.5703 -0.0868 -0.7817
  167SAPE  H18X18831   4.149   2.486   4.833  0.0721  0.1701  1.1954
  167SAPE  H18Y18832   4.058   2.363   4.930  1.3572 -0.7499 -1.9479
  167SAPE  H18Z18833   3.999   2.536   4.925 -0.1240  1.5588 -2.6158
  168SAPE     N18834   5.040   4.655   2.598 -0.2154  0.2921 -0.3476
  168SAPE   HN118835   4.961   4.714   2.629 -1.5584 -2.7595  2.7985
  168SAPE   HN218836   5.061   4.585   2.673  1.4314  1.7625  0.6468
  168SAPE   HN318837   5.124   4.713   2.577 -0.2525  0.0509 -1.1719
  168SAPE   C1218838   5.005   4.571   2.479  0.2052  0.4977  0.6689
  168SAPE  H12A18839   5.074   4.484   2.477 -1.2491 -0.6941 -1.5205
  168SAPE  H12B18840   5.015   4.640   2.393  1.1812  1.4005  1.4718
  168SAPE   C1118841   4.862   4.515   2.493 -0.1732  0.1917  0.1775
  168SAPE  H11A18842   4.864   4.454   2.400  0.7579  0.6662 -0.1324
  168SAPE  H11B18843   4.793   4.602   2.491  0.1476  0.4593  0.6418
  168SAPE     P18844   4.744   4.332   2.616 -0.1782  0.2127  0.3470
  168SAPE   O1318845   4.617   4.387   2.562 -0.1451 -0.3030  0.7657
  168SAPE   O1418846   4.801   4.209   2.552 -0.6169  0.1454  0.1847
  168SAPE   O1218847   4.857   4.440   2.613  0.7603  0.4113  0.1276
  168SAPE   O1118848   4.724   4.301   2.767  0.3063  0.6131 -0.5381
  168SAPE    C118849   4.846   4.287   2.839  0.5021  0.3740  0.9036
  168SAPE    HA18850   4.841   4.186   2.885  0.8011 -0.8332 -1.5572
  168SAPE    HB18851   4.939   4.282   2.779  0.7656 -0.5618  1.3714
  168SAPE    C218852   4.862   4.389   2.957  0.2996  0.1168 -0.6520
  168SAPE    HS18853   4.968   4.385   2.989 -0.1124  0.6104  0.8528
  168SAPE   O2118854   4.769   4.353   3.062 -0.7391  0.5026  0.7310
  168SAPE   C2118855   4.799   4.245   3.131 -0.3498  0.1371  0.6488
  168SAPE   O2218856   4.906   4.189   3.128 -0.1961  0.3608  0.1457
  168SAPE   C2218857   4.688   4.201   3.213 -0.2958  0.6280  0.4629
  168SAPE   H2R18858   4.604   4.177   3.144 -0.3199  2.6188 -0.2563
  168SAPE   H2S18859   4.713   4.098   3.248 -0.7095 -0.4959 -2.2272
  168SAPE    C318860   4.841   4.542   2.918  0.2213 -0.0356  0.1374
  168SAPE    HX18861   4.743   4.553   2.866  0.9655 -1.6669 -1.7345
  168SAPE    HY18862   4.916   4.566   2.839 -1.9349  1.2853 -1.6298
  168SAPE   O3118863   4.859   4.619   3.039 -0.4515  0.5918 -0.1604
  168SAPE   C3118864   4.753   4.684   3.089 -0.2195 -0.1694 -0.2117
  168SAPE   O3218865   4.646   4.699   3.032 -0.1043 -0.4353 -0.5366
  168SAPE   C3218866   4.809   4.752   3.215  0.0397  0.0124  0.5579
  168SAPE   H2X18867   4.877   4.831   3.178  1.7268 -0.0365  3.2620
  168SAPE   H2Y18868   4.886   4.692   3.268 -0.2577 -0.5142  0.4006
  168SAPE   C2318869   4.637   4.297   3.321  0.3453  0.1068  0.3496
  168SAPE   H3R18870   4.548   4.252   3.370  0.6269  0.5032  1.2554
  168SAPE   H3S18871   4.604   4.390   3.269 -1.0994 -1.2045 -1.1774
  168SAPE   C2418872   4.740   4.329   3.433  0.2646  0.0597 -0.2260
  168SAPE   H4R18873   4.702   4.405   3.505  1.6935 -0.2093  0.8824
  168SAPE   H4S18874   4.835   4.373   3.396  1.5484  0.9387  3.6191
  168SAPE   C2518875   4.787   4.201   3.509 -0.4587 -0.1939 -0.1760
  168SAPE   H5R18876   4.860   4.137   3.458 -0.2631  0.5739 -0.8825
  168SAPE   C2618877   4.741   4.164   3.629  0.2933  0.2385 -0.2863
  168SAPE   H6R18878   4.785   4.072   3.670  2.0575  0.3929 -1.7033
  168SAPE   C2718879   4.636   4.242   3.702 -0.4987 -0.1076 -0.4306
  168SAPE   H7R18880   4.583   4.167   3.766 -1.8389  0.8907 -0.3321
  168SAPE   H7S18881   4.557   4.287   3.638 -0.2708 -0.6252 -1.0800
  168SAPE   C2818882   4.696   4.350   3.799 -1.1077  0.0641 -0.0381
  168SAPE   H8R18883   4.801   4.324   3.819 -1.4957 -0.1418  1.8856
  168SAPE   C2918884   4.648   4.472   3.831  0.5013 -0.1155  0.6799
  168SAPE   H9R18885   4.701   4.535   3.904  1.9975 -1.5802  0.9084
  168SAPE  C21018886   4.511   4.518   3.790  0.2232  0.5443  0.1166
  168SAPE  H10R18887   4.446   4.428   3.799  1.1652 -0.0572  1.4771
  168SAPE  H10S18888   4.519   4.533   3.681  0.1084 -0.8681 -0.1106
  168SAPE  C21118889   4.460   4.640   3.857  0.7543 -0.6430  0.5763
  168SAPE  H11R18890   4.432   4.728   3.797  2.0321 -0.9392 -0.5116
  168SAPE  C21218891   4.424   4.653   3.985 -0.8217 -0.5763 -1.1045
  168SAPE  H12R18892   4.398   4.754   4.018 -1.0732 -0.2164 -2.3362
  168SAPE  C21318893   4.432   4.543   4.086  0.3345 -0.8340  0.0890
  168SAPE  H13R18894   4.446   4.450   4.025 -0.9682 -0.9674 -0.0319
  168SAPE  H13S18895   4.330   4.541   4.131 -0.1712 -0.9131 -1.0323
  168SAPE  C21418896   4.545   4.565   4.185  0.7859 -0.0799  0.0932
  168SAPE  H14R18897   4.642   4.586   4.138  1.5587 -0.7336  1.3575
  168SAPE  C21518898   4.544   4.540   4.321  0.0522  0.0281 -0.2434
  168SAPE  H15R18899   4.630   4.560   4.386 -0.2483  0.5590  0.0038
  168SAPE  C21618900   4.429   4.507   4.411  0.4311  0.2535 -1.0903
  168SAPE  H16R18901   4.455   4.427   4.482 -2.2250 -0.3058 -0.6424
  168SAPE  H16S18902   4.345   4.464   4.353  0.4696 -0.6566 -0.4849
  168SAPE  C21718903   4.404   4.637   4.487  0.1576 -0.3599 -0.2901
  168SAPE  H17R18904   4.362   4.709   4.413 -0.1706  0.2575  0.4861
  168SAPE  H17S18905   4.487   4.679   4.548 -1.8336  1.9959  0.9816
  168SAPE  C21818906   4.300   4.629   4.597  0.0467  0.3731 -0.2078
  168SAPE  H18R18907   4.206   4.589   4.553  0.6081 -1.2856  0.0165
  168SAPE  H18S18908   4.289   4.729   4.643  0.8053 -0.1166  1.1031
  168SAPE  C21918909   4.336   4.535   4.713  0.1636 -0.0863 -0.2245
  168SAPE  H19R18910   4.424   4.573   4.768 -0.0887 -0.9810  0.8276
  168SAPE  H19S18911   4.360   4.435   4.671  2.4788  0.6123 -0.7052
  168SAPE  C22018912   4.222   4.519   4.808  0.0883 -0.2345 -0.3475
  168SAPE  H20R18913   4.187   4.621   4.837  1.1148  0.3280 -1.0660
  168SAPE  H20S18914   4.258   4.469   4.901 -1.7942 -0.9762  0.0457
  168SAPE  H20T18915   4.133   4.473   4.759  0.6935 -0.9076 -0.8312
  168SAPE   C3318916   4.695   4.800   3.313 -0.4439  0.0607 -0.2738
  168SAPE   H3X18917   4.629   4.723   3.358 -1.6262  1.9688  1.4476
  168SAPE   H3Y18918   4.638   4.873   3.252 -0.1408  0.1704 -0.4304
  168SAPE   C3418919   4.761   4.869   3.429 -0.3190 -0.2331 -0.0055
  168SAPE   H4X18920   4.778   4.977   3.412  0.4836 -0.4081 -0.3733
  168SAPE   H4Y18921   4.867   4.842   3.449  0.2121  2.6930  1.6614
  168SAPE   C3518922   4.687   4.841   3.563 -0.2035  0.4734 -0.6588
  168SAPE   H5X18923   4.680   4.733   3.586  0.8275  0.2305 -1.4222
  168SAPE   H5Y18924   4.579   4.864   3.548  0.2370  2.3709 -1.2787
  168SAPE   C3618925   4.750   4.916   3.675 -0.4982 -0.2228  0.0409
  168SAPE   H6X18926   4.748   5.026   3.661 -1.0643 -0.2311  0.0420
  168SAPE   H6Y18927   4.858   4.890   3.683 -0.7965 -1.6422 -0.3134
  168SAPE   C3718928   4.695   4.874   3.811  0.1838 -0.4686  0.2234
  168SAPE   H7X18929   4.714   4.767   3.835  2.7834  0.1289  1.0692
  168SAPE   H7Y18930   4.586   4.899   3.805  0.5193  1.3747  1.1364
  168SAPE   C3818931   4.743   4.958   3.927  0.1660  0.7563 -0.2530
  168SAPE   H8X18932   4.720   5.063   3.899  0.3129  0.9076  0.1789
  168SAPE   H8Y18933   4.853   4.952   3.911  0.1246 -1.6495 -0.0436
  168SAPE   C3918934   4.705   4.902   4.068  0.3223  0.6232  0.2935
  168SAPE   H9X18935   4.711   4.792   4.062  0.1979  0.6873 -1.4764
  168SAPE   H9Y18936   4.599   4.925   4.093  0.1494 -0.0890  0.2158
  168SAPE  C31018937   4.810   4.940   4.174  0.3559 -0.0271  0.2913
  168SAPE  H10X18938   4.804   5.051   4.179 -1.6568 -0.0840  0.0217
  168SAPE  H10Y18939   4.899   4.895   4.126 -0.0119 -0.5716  0.1037
  168SAPE  C31118940   4.782   4.871   4.314  0.3784  0.2377  0.4317
  168SAPE  H11X18941   4.878   4.882   4.368  0.4603 -0.0257  0.3360
  168SAPE  H11Y18942   4.746   4.767   4.297 -0.7353  0.5481  0.7620
  168SAPE  C31218943   4.678   4.950   4.396  0.4950  0.4241  0.4186
  168SAPE  H12X18944   4.579   4.924   4.353  0.2365 -1.2845  1.9439
  168SAPE  H12Y18945   4.686   5.059   4.374 -0.1531  0.4440  0.2332
  168SAPE  C31318946   4.697   4.923   4.544  0.5696  0.1321  0.0625
  168SAPE  H13X18947   4.795   4.967   4.573  0.8160 -0.4892  0.1795
  168SAPE  H13Y18948   4.699   4.814   4.565  0.8895  0.6128  2.8351
  168SAPE  C31418949   4.594   4.999   4.624  0.3742 -0.3900 -0.5014
  168SAPE  H14X18950   4.491   4.969   4.597  0.1731  0.3287 -0.5491
  168SAPE  H14Y18951   4.595   5.108   4.604  0.2873  0.1164  1.9522
  168SAPE  C31518952   4.610   4.974   4.770  0.2221  0.2445  0.0607
  168SAPE  H15X18953   4.717   4.961   4.792  0.2098  0.9218  0.5578
  168SAPE  H15Y18954   4.570   4.874   4.797 -1.2532 -0.0632 -2.8618
  168SAPE  C31618955   4.544   5.080   4.852  0.3225  0.6310  0.2429
  168SAPE  H16X18956   4.574   5.179   4.811 -0.3829  0.6079 -0.3580
  168SAPE  H16Y18957   4.577   5.066   4.957 -1.3257 -0.4546  0.6589
  168SAPE  C31718958   4.392   5.074   4.863 -0.5809 -0.2116 -0.1508
  168SAPE  H17X18959   4.355   5.052   4.760 -3.2871  1.0055  0.4623
  168SAPE  H17Y18960   4.356   5.174   4.894  0.1666 -0.8388  3.0422
  168SAPE  C31818961   4.335   4.964   4.958 -0.0458 -0.1326  0.3957
  168SAPE  H18X18962   4.348   5.000   5.062  0.8794 -0.6393  0.4651
  168SAPE  H18Y18963   4.378   4.862   4.951 -1.3481 -0.6106 -1.3886
  168SAPE  H18Z18964   4.225   4.953   4.945 -0.6309  1.7487  2.9018
  169SAPE     N18965   1.761   2.824   2.375  0.4130 -0.2076 -0.5704
  169SAPE   HN118966   1.696   2.880   2.433 -0.8183  0.2630 -2.3090
  169SAPE   HN218967   1.858   2.824   2.413 -0.3976  0.9652  1.6872
  169SAPE   HN318968   1.745   2.875   2.285 -1.3598  3.0164  1.3932
  169SAPE   C1218969   1.718   2.683   2.363  0.5438 -0.1171 -0.0274
  169SAPE  H12A18970   1.793   2.643   2.292  2.3143  3.2051 -0.2689
  169SAPE  H12B18971   1.618   2.673   2.316  0.1573  1.4473  0.3956
  169SAPE   C1118972   1.719   2.616   2.502 -0.6210 -0.3990 -0.7265
  169SAPE  H11A18973   1.820   2.640   2.542 -0.6006 -0.0543 -0.9741
  169SAPE  H11B18974   1.710   2.506   2.503  0.2407 -0.4923  1.3769
  169SAPE     P18975   1.484   2.612   2.614  0.3222 -0.1401  0.6440
  169SAPE   O1318976   1.399   2.696   2.699 -0.1374 -0.4457 -0.7550
  169SAPE   O1418977   1.432   2.578   2.478  0.0710  0.6346 -0.1861
  169SAPE   O1218978   1.629   2.668   2.601  0.0614 -0.0926  0.0790
  169SAPE   O1118979   1.516   2.476   2.685 -0.3464 -0.4579  0.4013
  169SAPE    C118980   1.620   2.462   2.782 -0.1908 -0.1700 -0.6658
  169SAPE    HA18981   1.695   2.390   2.744 -0.2143  1.0667 -3.2267
  169SAPE    HB18982   1.674   2.555   2.810  0.7858 -1.5477  2.5050
  169SAPE    C218983   1.556   2.423   2.925 -0.4717 -0.0339 -0.5861
  169SAPE    HS18984   1.644   2.412   2.993 -0.3042  0.8747 -0.6314
  169SAPE   O2118985   1.467   2.308   2.926  0.5805 -0.2537  0.4755
  169SAPE   C2118986   1.529   2.200   2.927  0.3525 -0.0573 -0.1830
  169SAPE   O2218987   1.650   2.186   2.940  0.5200 -0.1010  0.2518
  169SAPE   C2218988   1.433   2.091   2.892  0.4546 -0.2403 -0.2739
  169SAPE   H2R18989   1.337   2.132   2.856 -0.3952 -1.0092  1.0362
  169SAPE   H2S18990   1.486   2.024   2.821 -3.0647 -1.3688 -2.0481
  169SAPE    C318991   1.480   2.533   2.989 -0.0519 -0.2400 -0.0174
  169SAPE    HX18992   1.390   2.554   2.928  0.0277 -1.2801 -0.5132
  169SAPE    HY18993   1.540   2.626   2.995 -0.0129 -0.3488  1.7903
  169SAPE   O3118994   1.444   2.504   3.131 -0.3881  0.4189 -0.3698
  169SAPE   C3118995   1.318   2.468   3.157 -0.0334 -0.2068 -0.3875
  169SAPE   O3218996   1.229   2.455   3.072 -0.6780  0.0653 -0.2882
  169SAPE   C3218997   1.298   2.439   3.305 -0.1309 -0.2368  0.0870
  169SAPE   H2X18998   1.339   2.523   3.365 -0.8698 -0.9835  1.7080
  169SAPE   H2Y18999   1.355   2.346   3.327  0.2447 -0.5523 -2.0612
  169SAPE   C2319000   1.390   2.012   3.016 -0.8524 -0.0906 -0.2648
  169SAPE   H3R19001   1.479   1.967   3.066 -1.0005 -1.6457 -1.3381
  169SAPE   H3S19002   1.324   1.932   2.975  0.2349 -1.0548 -0.1949
  169SAPE   C2419003   1.325   2.095   3.131 -0.1803  0.9965  0.2686
  169SAPE   H4R19004   1.245   2.155   3.082 -0.0113  0.4724 -0.6814
  169SAPE   H4S19005   1.392   2.176   3.167 -0.3112  2.3728 -2.3218
  169SAPE   C2519006   1.263   2.016   3.244 -0.0555  0.4917  0.4938
  169SAPE   H5R19007   1.165   1.970   3.222 -0.0032  0.5950  0.0390
  169SAPE   C2619008   1.312   1.997   3.371  0.3003  0.4902  1.4460
  169SAPE   H6R19009   1.261   1.921   3.432 -2.2307  0.9183  0.0107
  169SAPE   C2719010   1.438   2.043   3.431  0.6064 -0.2091 -0.1843
  169SAPE   H7R19011   1.506   2.090   3.357 -0.0594  0.9796 -0.0634
  169SAPE   H7S19012   1.506   1.960   3.458  1.4967  1.1131  1.8528
  169SAPE   C2819013   1.413   2.141   3.539 -0.3132 -0.4031 -0.0426
  169SAPE   H8R19014   1.404   2.247   3.510  0.4596 -0.1227  0.7018
  169SAPE   C2919015   1.422   2.121   3.677  0.2457 -0.4207  0.2042
  169SAPE   H9R19016   1.409   2.207   3.744  1.0191 -0.3330  0.2489
  169SAPE  C21019017   1.438   1.987   3.747  0.0496 -0.0801 -0.2368
  169SAPE  H10R19018   1.539   1.972   3.790 -1.0429  1.9281  3.3930
  169SAPE  H10S19019   1.415   1.903   3.678 -0.2707 -0.9892  0.9535
  169SAPE  C21119020   1.336   1.981   3.860  0.1374  0.1231 -0.5767
  169SAPE  H11R19021   1.248   1.917   3.843  0.0001 -0.3153  1.5580
  169SAPE  C21219022   1.353   2.037   3.987 -0.2597 -0.3699 -0.3223
  169SAPE  H12R19023   1.271   2.020   4.058 -1.0751 -1.6227 -1.5013
  169SAPE  C21319024   1.469   2.120   4.033 -0.0386 -0.1048  0.1341
  169SAPE  H13R19025   1.484   2.217   3.982 -0.9355  0.0997  0.2384
  169SAPE  H13S19026   1.563   2.064   4.013  0.8984  1.0868  1.0810
  169SAPE  C21419027   1.449   2.146   4.182 -0.0799 -0.6834 -0.7154
  169SAPE  H14R19028   1.414   2.245   4.216 -0.9122 -1.5076  0.9552
  169SAPE  C21519029   1.459   2.054   4.280  0.8615 -0.0473  0.1381
  169SAPE  H15R19030   1.437   2.078   4.385  0.2781  2.2194 -0.4442
  169SAPE  C21619031   1.491   1.914   4.253  0.5491  0.4594 -0.3958
  169SAPE  H16R19032   1.546   1.894   4.159  1.4101 -1.5273  0.4679
  169SAPE  H16S19033   1.398   1.852   4.250 -0.3980  1.6482  1.7321
  169SAPE  C21719034   1.588   1.856   4.359 -0.0077 -0.6306  0.2501
  169SAPE  H17R19035   1.677   1.921   4.370 -1.4773  1.8771 -1.5548
  169SAPE  H17S19036   1.612   1.755   4.320 -1.1323 -1.0567  0.6121
  169SAPE  C21819037   1.531   1.835   4.501  1.3812  0.3841 -0.5041
  169SAPE  H18R19038   1.440   1.771   4.504  2.1489 -0.8131 -1.7729
  169SAPE  H18S19039   1.502   1.935   4.541  0.3642 -0.3902  0.7837
  169SAPE  C21919040   1.628   1.761   4.593  0.1934  0.5759 -0.2214
  169SAPE  H19R19041   1.713   1.831   4.610  1.1313 -0.9107  1.5648
  169SAPE  H19S19042   1.670   1.673   4.541  1.0667  0.7854  0.1111
  169SAPE  C22019043   1.568   1.728   4.732 -0.1658 -0.0637  0.4933
  169SAPE  H20R19044   1.486   1.653   4.731 -0.1208 -0.1276  1.0423
  169SAPE  H20S19045   1.522   1.817   4.781  1.1459  0.8806  0.0618
  169SAPE  H20T19046   1.647   1.691   4.801  0.8409  1.9050  0.4438
  169SAPE   C3319047   1.156   2.401   3.355 -0.2265  0.1952  0.0042
  169SAPE   H3X19048   1.131   2.300   3.316  1.9164 -1.0518  1.6487
  169SAPE   H3Y19049   1.075   2.471   3.324  0.0408 -0.0689 -1.3849
  169SAPE   C3419050   1.148   2.395   3.513  1.0443 -0.1445 -0.2650
  169SAPE   H4X19051   1.212   2.477   3.551  0.6464 -0.8843  2.1768
  169SAPE   H4Y19052   1.189   2.295   3.540 -2.1249 -1.7676 -0.9002
  169SAPE   C3519053   1.003   2.408   3.565  0.0151 -0.2164 -0.4239
  169SAPE   H5X19054   0.945   2.317   3.542 -1.7771  0.5685  0.7914
  169SAPE   H5Y19055   0.945   2.487   3.513 -0.2309  0.3048  0.6028
  169SAPE   C3619056   0.997   2.443   3.712 -0.4518 -0.2530  0.0069
  169SAPE   H6X19057   1.033   2.548   3.721  0.7922 -0.6675  0.1009
  169SAPE   H6Y19058   1.065   2.371   3.762 -0.0146 -0.1515 -0.4376
  169SAPE   C3719059   0.856   2.425   3.760  0.2688  0.0112 -0.7387
  169SAPE   H7X19060   0.813   2.325   3.738  0.2962 -0.3457  0.6933
  169SAPE   H7Y19061   0.787   2.502   3.719  0.2344  0.2165 -0.3112
  169SAPE   C3819062   0.849   2.449   3.917 -0.8773 -0.6019 -0.9760
  169SAPE   H8X19063   0.741   2.452   3.944 -0.1874  2.1344  2.2941
  169SAPE   H8Y19064   0.894   2.548   3.940  0.7259 -0.8494 -2.8118
  169SAPE   C3919065   0.903   2.329   3.999 -0.1006 -0.3903  0.4403
  169SAPE   H9X19066   1.008   2.313   3.967 -0.2426 -0.7210  0.1373
  169SAPE   H9Y19067   0.843   2.237   3.983  0.8200 -0.6483 -1.9659
  169SAPE  C31019068   0.922   2.357   4.150 -0.1906  0.4465 -0.4945
  169SAPE  H10X19069   0.936   2.466   4.161 -0.1917  0.2745  1.7452
  169SAPE  H10Y19070   1.007   2.304   4.199 -1.9770  1.9587  4.9299
  169SAPE  C31119071   0.798   2.321   4.241 -0.8179  0.0132  0.8507
  169SAPE  H11X19072   0.793   2.211   4.249 -0.5878 -0.2204 -1.5487
  169SAPE  H11Y19073   0.704   2.354   4.191 -0.9139  0.9248  1.6029
  169SAPE  C31219074   0.819   2.374   4.382  0.0175  0.0923  0.1470
  169SAPE  H12X19075   0.833   2.484   4.382 -0.5988  0.1775 -0.6215
  169SAPE  H12Y19076   0.919   2.333   4.407  0.9482  1.8933 -0.5075
  169SAPE  C31319077   0.704   2.327   4.475  0.1194 -0.1586 -0.8053
  169SAPE  H13X19078   0.686   2.219   4.460  1.6529 -0.2958 -1.8923
  169SAPE  H13Y19079   0.627   2.406   4.463  1.3496  0.7464 -3.5974
  169SAPE  C31419080   0.747   2.347   4.621  0.4187 -0.0141 -0.4687
  169SAPE  H14X19081   0.776   2.454   4.628 -3.3699  1.0778  0.4244
  169SAPE  H14Y19082   0.845   2.295   4.635 -0.7758 -2.9294 -2.0831
  169SAPE  C31519083   0.640   2.310   4.723  0.1922 -0.0478 -0.1656
  169SAPE  H15X19084   0.620   2.201   4.717 -0.9254  0.2085 -1.9219
  169SAPE  H15Y19085   0.542   2.358   4.702 -0.0394  0.2256  1.4780
  169SAPE  C31619086   0.687   2.354   4.866  0.5447  0.2414  0.5427
  169SAPE  H16X19087   0.706   2.463   4.869  1.0124  0.1373  1.5214
  169SAPE  H16Y19088   0.785   2.302   4.879  0.5427 -0.4975 -1.8003
  169SAPE  C31719089   0.602   2.311   4.978  0.7179  0.0794  0.1442
  169SAPE  H17X19090   0.677   2.319   5.060  1.4940 -1.8650 -0.3116
  169SAPE  H17Y19091   0.563   2.208   4.963 -0.0540  0.7002 -2.4815
  169SAPE  C31819092   0.474   2.398   5.011 -0.1106  0.0553  0.2543
  169SAPE  H18X19093   0.412   2.385   4.920  1.1781 -0.2310 -0.6077
  169SAPE  H18Y19094   0.498   2.506   5.021  0.2702  0.1125 -1.1016
  169SAPE  H18Z19095   0.423   2.365   5.104  1.1180  0.2400  1.0109
  170SAPE     N19096   3.640   5.807   2.504 -0.2200  0.1096  0.0990
  170SAPE   HN119097   3.712   5.732   2.498 -0.0656  0.0907  1.7504
  170SAPE   HN219098   3.663   5.866   2.422  0.8020  0.7919  0.8607
  170SAPE   HN319099   3.666   5.861   2.588 -3.1561  1.1358  0.4818
  170SAPE   C1219100   3.511   5.734   2.509  0.1238 -0.3534 -0.1779
  170SAPE  H12A19101   3.485   5.697   2.408 -0.0733 -2.5335  0.6118
  170SAPE  H12B19102   3.439   5.807   2.552 -0.2721 -0.0884 -1.2731
  170SAPE   C1119103   3.519   5.623   2.618  1.0865 -0.5691  0.1988
  170SAPE  H11A19104   3.422   5.571   2.630  1.2046 -0.7077  0.5719
  170SAPE  H11B19105   3.533   5.677   2.714 -2.9879  1.8266 -0.2936
  170SAPE     P19106   3.633   5.373   2.613 -0.0130 -0.5927 -0.2682
  170SAPE   O1319107   3.513   5.307   2.558 -0.5342  0.5496  0.4465
  170SAPE   O1419108   3.767   5.331   2.566 -0.4276 -0.3037  0.4940
  170SAPE   O1219109   3.619   5.530   2.578  0.0970 -0.3774  0.1573
  170SAPE   O1119110   3.639   5.365   2.769  0.3171 -0.1514 -0.0272
  170SAPE    C119111   3.743   5.441   2.836  0.0852  0.1698  0.3483
  170SAPE    HA19112   3.820   5.360   2.836 -1.8718 -1.7900  1.3635
  170SAPE    HB19113   3.771   5.531   2.777  0.5371 -1.1363 -1.5181
  170SAPE    C219114   3.704   5.472   2.983  0.3449 -0.3478  0.6708
  170SAPE    HS19115   3.695   5.378   3.042 -2.0072  0.2134  1.3054
  170SAPE   O2119116   3.587   5.546   2.984  0.2908 -0.1951 -0.2737
  170SAPE   C2119117   3.471   5.476   2.997  0.0393 -0.3221  0.5014
  170SAPE   O2219118   3.465   5.358   3.006 -0.0456  0.1383  0.1776
  170SAPE   C2219119   3.357   5.576   3.014  0.0820  0.4798  0.4898
  170SAPE   H2R19120   3.392   5.666   3.069  1.0308 -0.4553  1.4622
  170SAPE   H2S19121   3.338   5.618   2.913 -0.3770 -0.3166  0.2420
  170SAPE    C319122   3.809   5.558   3.047  0.3769 -0.3417 -0.0419
  170SAPE    HX19123   3.796   5.664   3.014  1.2769 -0.2216 -0.0223
  170SAPE    HY19124   3.906   5.512   3.017  0.5353  0.7711 -1.3600
  170SAPE   O3119125   3.789   5.549   3.189  0.3828 -0.2166 -0.4391
  170SAPE   C3119126   3.748   5.659   3.260 -0.2070 -0.2736 -0.6142
  170SAPE   O3219127   3.737   5.770   3.217 -0.7873 -0.8148  0.5562
  170SAPE   C3219128   3.717   5.619   3.397 -0.0255  0.2565  0.2513
  170SAPE   H2X19129   3.692   5.701   3.467  1.9820  0.9673  0.2080
  170SAPE   H2Y19130   3.812   5.590   3.447 -0.2963 -2.1454 -0.4921
  170SAPE   C2319131   3.226   5.528   3.073 -0.5320  0.1396  0.0330
  170SAPE   H3R19132   3.197   5.434   3.021  0.2487 -0.9513  1.4800
  170SAPE   H3S19133   3.143   5.601   3.064  0.2384  1.2417  1.4170
  170SAPE   C2419134   3.234   5.500   3.223  0.8044 -0.0737  0.0816
  170SAPE   H4R19135   3.268   5.592   3.275  0.8893  0.7307 -1.3554
  170SAPE   H4S19136   3.323   5.434   3.239  0.8218 -0.3116 -0.9122
  170SAPE   C2519137   3.098   5.452   3.273  0.1941  0.3588 -0.4505
  170SAPE   H5R19138   3.045   5.379   3.210  1.8528 -1.8441  0.5808
  170SAPE   C2619139   3.039   5.495   3.390  0.0949  0.0778 -0.6099
  170SAPE   H6R19140   2.944   5.450   3.421 -0.1090  1.1377  0.3679
  170SAPE   C2719141   3.085   5.589   3.499  0.6272  0.1465 -0.0369
  170SAPE   H7R19142   3.196   5.588   3.500  0.7193  2.4842  1.7373
  170SAPE   H7S19143   3.054   5.556   3.600 -0.8702  3.1254  0.5860
  170SAPE   C2819144   3.041   5.730   3.474 -0.9583  0.1494 -0.3866
  170SAPE   H8R19145   3.069   5.758   3.372 -1.5599  0.1470 -0.5529
  170SAPE   C2919146   3.006   5.822   3.563  0.0503  0.0861 -0.1833
  170SAPE   H9R19147   3.023   5.928   3.541  2.4487 -0.3749 -0.7784
  170SAPE  C21019148   2.989   5.791   3.707  0.3110 -0.8126 -0.0349
  170SAPE  H10R19149   2.999   5.874   3.780 -1.4738 -0.4677 -0.1321
  170SAPE  H10S19150   3.069   5.722   3.741 -0.5625 -1.1691  1.3790
  170SAPE  C21119151   2.849   5.729   3.722 -0.2763  0.0575  0.3314
  170SAPE  H11R19152   2.788   5.696   3.638 -2.9172 -2.0524  2.8838
  170SAPE  C21219153   2.787   5.732   3.842 -0.3520 -0.0282  0.3046
  170SAPE  H12R19154   2.689   5.680   3.842 -0.2559 -0.2939  2.0440
  170SAPE  C21319155   2.845   5.770   3.978  0.5590  0.4072 -0.0339
  170SAPE  H13R19156   2.747   5.790   4.026 -0.8284  1.7762 -3.1113
  170SAPE  H13S19157   2.910   5.860   3.975 -0.2943  1.0365 -0.2076
  170SAPE  C21419158   2.920   5.657   4.040 -0.0126  0.5349  0.1190
  170SAPE  H14R19159   2.980   5.601   3.967 -0.1148  1.0422 -0.3585
  170SAPE  C21519160   2.925   5.614   4.167 -0.0525  1.0145  0.2021
  170SAPE  H15R19161   2.997   5.534   4.190 -2.0583 -0.5611  1.2243
  170SAPE  C21619162   2.849   5.674   4.278 -0.0129 -0.2340  0.4589
  170SAPE  H16R19163   2.788   5.762   4.248  1.9511  0.7538 -0.8170
  170SAPE  H16S19164   2.918   5.710   4.356 -0.1608 -0.0266  0.4934
  170SAPE  C21719165   2.748   5.582   4.352  0.1630 -0.0977 -0.7588
  170SAPE  H17R19166   2.784   5.481   4.379 -1.7913 -0.3829  1.0439
  170SAPE  H17S19167   2.666   5.562   4.281  1.2247  0.8697 -2.3241
  170SAPE  C21819168   2.705   5.649   4.484  0.6286  0.0323  0.1184
  170SAPE  H18R19169   2.665   5.749   4.458 -1.2383 -0.9932 -1.1676
  170SAPE  H18S19170   2.796   5.668   4.546  0.8863 -1.0236  0.0895
  170SAPE  C21919171   2.618   5.556   4.572  0.5143  0.3223 -0.7345
  170SAPE  H19R19172   2.609   5.604   4.672 -2.9238 -0.7620 -0.4138
  170SAPE  H19S19173   2.669   5.459   4.590 -0.1651  0.1943  0.6178
  170SAPE  C22019174   2.473   5.543   4.520  0.3067  0.0491  0.4959
  170SAPE  H20R19175   2.408   5.476   4.580  0.9568 -1.6099 -0.5713
  170SAPE  H20S19176   2.491   5.496   4.421  2.6697 -1.0753  1.3770
  170SAPE  H20T19177   2.425   5.641   4.500  1.1218  0.5436  0.8777
  170SAPE   C3319178   3.609   5.504   3.395 -0.0733 -0.4625  0.4127
  170SAPE   H3X19179   3.651   5.413   3.348 -0.2744 -0.6468  0.5900
  170SAPE   H3Y19180   3.525   5.530   3.327  2.2824  0.2006 -2.4953
  170SAPE   C3419181   3.563   5.469   3.537 -0.6946 -0.1025 -0.4524
  170SAPE   H4X19182   3.482   5.539   3.568 -1.3592 -0.1304 -2.0230
  170SAPE   H4Y19183   3.644   5.484   3.611 -1.7900 -1.0302  0.9998
  170SAPE   C3519184   3.512   5.333   3.550 -0.3474  0.0453 -0.1514
  170SAPE   H5X19185   3.602   5.268   3.555 -0.0897  0.3310 -1.0430
  170SAPE   H5Y19186   3.468   5.295   3.456  0.6509 -0.3895 -0.4501
  170SAPE   C3619187   3.426   5.312   3.673  0.1411 -0.3165  1.1463
  170SAPE   H6X19188   3.321   5.346   3.667  0.6946  1.2298 -1.5948
  170SAPE   H6Y19189   3.468   5.372   3.756  2.1445  1.8807 -1.2680
  170SAPE   C3719190   3.434   5.165   3.720 -0.1413  0.6926 -0.0630
  170SAPE   H7X19191   3.539   5.137   3.746 -0.6758 -0.9483  0.4603
  170SAPE   H7Y19192   3.406   5.094   3.640 -1.9913  1.5005 -0.1860
  170SAPE   C3819193   3.359   5.145   3.850 -0.9850  0.6732  0.7135
  170SAPE   H8X19194   3.253   5.173   3.836 -1.2229 -1.1333 -1.6319
  170SAPE   H8Y19195   3.417   5.205   3.924 -0.9061  0.6366  0.6813
  170SAPE   C3919196   3.365   5.000   3.906 -0.5774 -0.4073  0.3034
  170SAPE   H9X19197   3.463   4.956   3.878 -0.4401 -0.5827  1.0270
  170SAPE   H9Y19198   3.295   4.940   3.844 -0.7800  0.3889 -0.2567
  170SAPE  C31019199   3.313   4.988   4.051 -0.2196  0.2303 -0.1535
  170SAPE  H10X19200   3.306   4.880   4.072 -2.2369  0.5256  0.8928
  170SAPE  H10Y19201   3.203   5.005   4.054  0.0428  2.1372  2.8637
  170SAPE  C31119202   3.391   5.063   4.160 -0.1054 -0.2530  0.6503
  170SAPE  H11X19203   3.360   5.169   4.160 -2.0316 -0.7509  2.6981
  170SAPE  H11Y19204   3.502   5.049   4.155 -0.2695 -1.7386  0.7072
  170SAPE  C31219205   3.346   5.008   4.292 -0.1848  0.4487 -0.4260
  170SAPE  H12X19206   3.264   4.937   4.270 -2.5910  2.8609  0.2758
  170SAPE  H12Y19207   3.297   5.085   4.355  0.3824  1.1009 -0.7774
  170SAPE  C31319208   3.450   4.928   4.368  0.1656  0.3032  0.0875
  170SAPE  H13X19209   3.548   4.982   4.373  0.6928 -0.7055  0.9601
  170SAPE  H13Y19210   3.475   4.834   4.315  0.1839 -0.0053  0.6472
  170SAPE  C31419211   3.427   4.894   4.520  0.5908  0.1938 -0.0540
  170SAPE  H14X19212   3.359   4.806   4.523 -0.3175  0.8635 -0.3417
  170SAPE  H14Y19213   3.388   4.983   4.573  1.6738  0.4358  0.3542
  170SAPE  C31519214   3.561   4.850   4.597 -0.4292 -0.0210  0.1773
  170SAPE  H15X19215   3.621   4.943   4.608  1.0748 -1.0663  1.2022
  170SAPE  H15Y19216   3.620   4.778   4.536 -0.1796  1.4530 -1.3952
  170SAPE  C31619217   3.555   4.794   4.736 -0.9970  0.7923 -0.1318
  170SAPE  H16X19218   3.518   4.689   4.741  1.0035 -0.1892 -3.0245
  170SAPE  H16Y19219   3.501   4.858   4.809  0.0465  1.4366  0.0830
  170SAPE  C31719220   3.700   4.769   4.796  0.3645 -0.4522 -0.1440
  170SAPE  H17X19221   3.753   4.705   4.723  0.9071  0.1134 -0.2550
  170SAPE  H17Y19222   3.684   4.716   4.893  2.2392  1.7113  1.4671
  170SAPE  C31819223   3.768   4.894   4.844 -0.6354 -0.6999 -0.3110
  170SAPE  H18X19224   3.870   4.863   4.873 -1.0732 -0.7240  1.3086
  170SAPE  H18Y19225   3.716   4.934   4.934  1.5204 -1.3192  1.2822
  170SAPE  H18Z19226   3.775   4.974   4.767 -1.2077  0.2771  0.6310
  171SAPE     N19227   4.809   3.062   2.537 -0.1150  0.0245  0.0564
  171SAPE   HN119228   4.908   3.085   2.558 -0.3840 -0.1246  1.6046
  171SAPE   HN219229   4.808   2.985   2.467  0.5798 -0.2084  0.3026
  171SAPE   HN319230   4.761   3.147   2.500 -0.1727 -0.3792 -0.8250
  171SAPE   C1219231   4.741   3.022   2.667  0.7999  0.3783 -0.3001
  171SAPE  H12A19232   4.818   2.979   2.734  0.9167 -0.5814 -1.0239
  171SAPE  H12B19233   4.664   2.942   2.660  2.9109 -1.8165  0.1262
  171SAPE   C1119234   4.676   3.136   2.729 -0.8273  0.4536 -0.4315
  171SAPE  H11A19235   4.747   3.221   2.742  1.7106 -1.7584  1.2223
  171SAPE  H11B19236   4.659   3.107   2.835 -0.0274 -1.7890 -0.8710
  171SAPE     P19237   4.521   3.272   2.573 -0.4037  0.3184  0.0242
  171SAPE   O1319238   4.633   3.273   2.471  0.2391  0.2303 -0.7575
  171SAPE   O1419239   4.379   3.254   2.519 -0.6816 -0.4329 -0.7571
  171SAPE   O1219240   4.546   3.162   2.681  0.3399  0.5202 -0.4820
  171SAPE   O1119241   4.519   3.414   2.648 -0.3253 -0.7197  0.3213
  171SAPE    C119242   4.441   3.456   2.758  0.4036 -0.4840 -0.5035
  171SAPE    HA19243   4.402   3.560   2.756  0.6750 -0.2732  1.8704
  171SAPE    HB19244   4.359   3.383   2.770  1.2552 -1.2550  0.9184
  171SAPE    C219245   4.524   3.432   2.887  0.4881  0.2032 -0.6324
  171SAPE    HS19246   4.558   3.326   2.890 -0.6512 -0.1574  0.9212
  171SAPE   O2119247   4.444   3.471   3.005 -0.0343 -0.0036  0.1867
  171SAPE   C2119248   4.456   3.382   3.102  0.8610  0.1569  0.2226
  171SAPE   O2219249   4.533   3.287   3.098  0.0540  0.0594 -0.0823
  171SAPE   C2219250   4.371   3.434   3.217 -0.6316  0.0601 -0.1468
  171SAPE   H2R19251   4.373   3.545   3.223  1.0809 -0.0181  2.0243
  171SAPE   H2S19252   4.266   3.407   3.197 -0.9040 -1.4059  2.8342
  171SAPE    C319253   4.654   3.516   2.879 -0.3471  0.7245  0.1823
  171SAPE    HX19254   4.625   3.622   2.865  0.2378  0.8074 -0.4990
  171SAPE    HY19255   4.707   3.481   2.787 -2.0618  1.1035 -0.9944
  171SAPE   O3119256   4.726   3.505   3.003 -0.1096 -0.5332 -0.5274
  171SAPE   C3119257   4.831   3.434   3.002  0.2908 -0.3852  0.6071
  171SAPE   O3219258   4.873   3.368   2.906 -1.0290 -0.0310  0.1922
  171SAPE   C3219259   4.894   3.432   3.141 -0.1150 -0.7262 -0.1547
  171SAPE   H2X19260   4.825   3.377   3.209  2.3439 -1.5308  1.8550
  171SAPE   H2Y19261   4.886   3.534   3.185 -0.6144 -0.8410  0.0263
  171SAPE   C2319262   4.413   3.380   3.353  0.1392 -0.2772  0.4396
  171SAPE   H3R19263   4.498   3.445   3.384 -0.1645  0.2904  0.0893
  171SAPE   H3S19264   4.432   3.270   3.345 -1.2513 -0.5144  0.0904
  171SAPE   C2419265   4.307   3.399   3.462  0.4468  0.6945 -0.2770
  171SAPE   H4R19266   4.297   3.508   3.483  0.9478  0.4931  1.1034
  171SAPE   H4S19267   4.350   3.340   3.546 -0.7204  0.6059  0.2781
  171SAPE   C2519268   4.173   3.349   3.412  0.0241  0.0689 -0.7302
  171SAPE   H5R19269   4.175   3.263   3.344  0.5163 -1.1766  0.7868
  171SAPE   C2619270   4.054   3.391   3.442  0.2568 -0.1723 -0.0660
  171SAPE   H6R19271   3.973   3.340   3.388 -1.0827  2.6017 -0.8568
  171SAPE   C2719272   4.015   3.508   3.534  0.2450 -0.3856  0.0630
  171SAPE   H7R19273   3.985   3.585   3.460  2.6733  0.0083 -0.6094
  171SAPE   H7S19274   4.105   3.549   3.585  0.3348  0.7134 -0.9484
  171SAPE   C2819275   3.910   3.457   3.629 -0.1144 -0.0122  0.0674
  171SAPE   H8R19276   3.835   3.390   3.584  0.6080 -1.5989  1.1093
  171SAPE   C2919277   3.904   3.485   3.761  0.0258 -0.1920 -0.2937
  171SAPE   H9R19278   3.833   3.427   3.822 -1.0127 -0.6632 -1.9002
  171SAPE  C21019279   3.992   3.568   3.852  0.3081  0.0256  1.6529
  171SAPE  H10R19280   3.922   3.646   3.888  1.4493  1.5124  0.7635
  171SAPE  H10S19281   4.061   3.635   3.796 -0.1589  1.3785  2.6631
  171SAPE  C21119282   4.084   3.501   3.953 -0.5531  0.5223  0.1751
  171SAPE  H11R19283   4.161   3.434   3.912  0.3473  0.7273  1.4558
  171SAPE  C21219284   4.098   3.532   4.079  0.0064  0.5866 -0.4206
  171SAPE  H12R19285   4.181   3.480   4.129 -2.2372 -0.8790  1.9832
  171SAPE  C21319286   4.018   3.625   4.166  0.4229 -0.3248 -0.3683
  171SAPE  H13R19287   4.009   3.579   4.267  1.5362 -2.2198 -1.0701
  171SAPE  H13S19288   3.915   3.629   4.126  1.0667  0.4392 -2.0297
  171SAPE  C21419289   4.072   3.764   4.169 -0.2123  0.2782 -0.8078
  171SAPE  H14R19290   4.088   3.824   4.078 -2.6694 -0.6588 -1.9217
  171SAPE  C21519291   4.100   3.828   4.285  0.1770 -0.6018  0.0678
  171SAPE  H15R19292   4.142   3.929   4.275 -1.0472  0.0897  1.4927
  171SAPE  C21619293   4.086   3.770   4.426 -0.5164 -0.2234  0.0809
  171SAPE  H16R19294   4.168   3.808   4.492 -1.6765  2.5220  0.0605
  171SAPE  H16S19295   4.099   3.660   4.428 -1.0558 -0.3009 -0.5728
  171SAPE  C21719296   3.957   3.805   4.494 -0.0812  0.3894  0.1396
  171SAPE  H17R19297   3.939   3.915   4.489 -0.9959  0.2461  0.1088
  171SAPE  H17S19298   3.973   3.778   4.601 -0.7728 -0.6164  0.0001
  171SAPE  C21819299   3.838   3.753   4.413 -0.1482 -0.3266  0.0808
  171SAPE  H18R19300   3.840   3.642   4.412  0.1929 -0.3204 -1.2563
  171SAPE  H18S19301   3.835   3.793   4.310  1.4153 -1.2217 -0.3498
  171SAPE  C21919302   3.707   3.797   4.484 -0.4818 -0.1778  0.4196
  171SAPE  H19R19303   3.621   3.758   4.425 -1.4854  1.7251  0.5394
  171SAPE  H19S19304   3.707   3.907   4.470  2.0743  0.2562  3.0122
  171SAPE  C22019305   3.683   3.772   4.632 -0.2818  0.3498 -0.7496
  171SAPE  H20R19306   3.588   3.822   4.660 -0.4653 -1.6072  2.7045
  171SAPE  H20S19307   3.757   3.806   4.708 -1.8729 -2.5196  2.3552
  171SAPE  H20T19308   3.679   3.662   4.646  0.5277  0.2891 -0.9379
  171SAPE   C3319309   5.043   3.369   3.144  0.1093 -0.8944 -0.0041
  171SAPE   H3X19310   5.099   3.410   3.057  1.1496 -4.4123 -1.1568
  171SAPE   H3Y19311   5.044   3.258   3.137  2.3698 -0.8572 -0.9905
  171SAPE   C3419312   5.107   3.408   3.279  0.4843 -0.0066  0.2401
  171SAPE   H4X19313   5.142   3.513   3.284  2.1281 -0.5225  0.4133
  171SAPE   H4Y19314   5.195   3.343   3.301  0.3348  0.4383  2.3954
  171SAPE   C3519315   5.023   3.383   3.403  0.1533 -0.2008 -0.7390
  171SAPE   H5X19316   5.002   3.275   3.416  1.0672 -0.4065 -0.9482
  171SAPE   H5Y19317   4.935   3.451   3.411  1.5262  1.8408 -1.9790
  171SAPE   C3619318   5.096   3.441   3.521 -0.3537 -0.5645 -0.1212
  171SAPE   H6X19319   5.116   3.547   3.495 -1.1579 -0.2035  0.6977
  171SAPE   H6Y19320   5.189   3.384   3.540  1.0915  1.8382  0.5043
  171SAPE   C3719321   5.019   3.450   3.652 -0.5535 -0.4459  0.5916
  171SAPE   H7X19322   4.973   3.350   3.667  1.1774 -1.2912  0.5581
  171SAPE   H7Y19323   4.946   3.533   3.648 -0.8293 -0.7405 -0.9867
  171SAPE   C3819324   5.110   3.473   3.780 -1.0709 -0.7525 -0.7665
  171SAPE   H8X19325   5.178   3.559   3.767 -1.3783 -0.2845  0.6025
  171SAPE   H8Y19326   5.172   3.382   3.794 -1.0349 -0.7034 -0.6076
  171SAPE   C3919327   5.033   3.485   3.910  0.3604 -0.4717 -0.1625
  171SAPE   H9X19328   5.012   3.379   3.934  1.4480 -0.4009  1.2821
  171SAPE   H9Y19329   4.948   3.555   3.896  0.2547 -0.2157  1.5634
  171SAPE  C31019330   5.113   3.544   4.026 -0.2853 -0.1070  0.1918
  171SAPE  H10X19331   5.140   3.651   4.009 -3.5821  0.8303  0.2342
  171SAPE  H10Y19332   5.209   3.489   4.034 -0.6682 -0.8729 -0.3644
  171SAPE  C31119333   5.037   3.533   4.162  0.2251  1.2447 -0.4479
  171SAPE  H11X19334   4.982   3.436   4.170  1.2047  0.8032  1.6382
  171SAPE  H11Y19335   4.954   3.606   4.157  0.9114  2.0011 -0.9365
  171SAPE  C31219336   5.135   3.535   4.277  0.2549  0.4515  0.4041
  171SAPE  H12X19337   5.212   3.612   4.256 -0.0224  0.2401 -1.5335
  171SAPE  H12Y19338   5.186   3.436   4.268 -2.1803 -1.0522  2.0147
  171SAPE  C31319339   5.069   3.549   4.414 -0.0320 -0.0518  0.1994
  171SAPE  H13X19340   5.104   3.502   4.508 -1.4174 -0.0470  0.7470
  171SAPE  H13Y19341   4.969   3.505   4.394  0.5341 -0.7367 -1.2541
  171SAPE  C31419342   5.052   3.692   4.462 -1.1063  0.1309  0.1586
  171SAPE  H14X19343   5.022   3.763   4.382  1.6951  1.6797  0.3614
  171SAPE  H14Y19344   5.152   3.733   4.487 -0.3900 -0.6682 -1.2499
  171SAPE  C31519345   4.955   3.702   4.576  0.6831 -0.1377  0.2118
  171SAPE  H15X19346   4.992   3.629   4.651  0.0976 -1.6150 -0.9021
  171SAPE  H15Y19347   4.848   3.677   4.559  0.3424  0.6518  1.1263
  171SAPE  C31619348   4.964   3.846   4.632 -0.5697  0.2319  0.4699
  171SAPE  H16X19349   4.967   3.919   4.548 -0.2601  1.2190  1.3133
  171SAPE  H16Y19350   5.058   3.857   4.691  0.5746 -2.0603 -0.7832
  171SAPE  C31719351   4.842   3.871   4.728 -0.4553  0.7252 -0.9119
  171SAPE  H17X19352   4.745   3.874   4.675 -0.9290  0.0994 -0.1151
  171SAPE  H17Y19353   4.852   3.969   4.778 -0.1046  0.9527 -1.4260
  171SAPE  C31819354   4.825   3.760   4.839 -0.4385 -0.5359 -0.0261
  171SAPE  H18X19355   4.924   3.728   4.879 -1.0314 -0.7137  1.3754
  171SAPE  H18Y19356   4.786   3.663   4.802 -0.5909 -0.1603 -0.8595
  171SAPE  H18Z19357   4.758   3.777   4.926 -1.3906  1.9910 -1.1807
  172SAPE     N19358   4.138   4.811   2.199 -0.0268 -0.1996  0.1681
  172SAPE   HN119359   4.179   4.726   2.155  0.8011  0.5769 -0.6212
  172SAPE   HN219360   4.040   4.785   2.219 -0.5690  1.5792 -0.0386
  172SAPE   HN319361   4.137   4.881   2.122 -0.8380  0.3073  0.6355
  172SAPE   C1219362   4.215   4.843   2.322  0.2477  0.0941 -0.1156
  172SAPE  H12A19363   4.149   4.920   2.367  0.0024  1.5992 -2.8298
  172SAPE  H12B19364   4.310   4.894   2.295 -0.4280  0.8912 -1.0554
  172SAPE   C1119365   4.233   4.723   2.417  0.0194  0.3359  0.0418
  172SAPE  H11A19366   4.269   4.764   2.513 -0.5112  1.7471 -0.3390
  172SAPE  H11B19367   4.310   4.657   2.372 -0.1653 -0.6584  1.1567
  172SAPE     P19368   3.992   4.664   2.520 -0.1282 -0.0766  0.0590
  172SAPE   O1319369   3.884   4.712   2.436  0.0896  0.0613 -0.2660
  172SAPE   O1419370   3.970   4.539   2.597 -0.7392  0.6138  0.4732
  172SAPE   O1219371   4.116   4.649   2.428  0.6021  0.0029 -0.5736
  172SAPE   O1119372   4.024   4.780   2.614  0.3789 -0.2780  0.3014
  172SAPE    C119373   4.094   4.769   2.739 -0.2645  0.0702  0.4912
  172SAPE    HA19374   4.162   4.683   2.721 -1.0338 -0.2750 -0.9492
  172SAPE    HB19375   4.157   4.859   2.753  1.3269 -0.8542 -0.4409
  172SAPE    C219376   4.006   4.763   2.869  0.2683  0.1396  0.5059
  172SAPE    HS19377   3.937   4.676   2.861 -0.6647  0.6677  2.2015
  172SAPE   O2119378   3.923   4.881   2.885 -0.7192 -0.5466 -0.6617
  172SAPE   C2119379   3.799   4.870   2.927  0.1779  0.3789  0.2542
  172SAPE   O2219380   3.747   4.764   2.956 -0.4159 -0.3206 -0.0460
  172SAPE   C2219381   3.732   5.012   2.928 -0.6198 -0.5663  0.3212
  172SAPE   H2R19382   3.808   5.085   2.962 -2.9194  1.2041  1.9623
  172SAPE   H2S19383   3.701   5.021   2.821  1.0624 -0.6793 -0.2049
  172SAPE    C319384   4.084   4.738   3.006 -0.9357 -0.1584  0.7711
  172SAPE    HX19385   4.148   4.826   3.029 -0.3416  0.3799 -2.4279
  172SAPE    HY19386   4.158   4.657   2.995  2.3240  2.7890 -1.1433
  172SAPE   O3119387   3.994   4.721   3.108  0.1516  0.2615 -0.3753
  172SAPE   C3119388   3.953   4.599   3.142 -0.2666  0.2537  0.2553
  172SAPE   O3219389   3.990   4.499   3.087 -0.5034 -0.1825 -0.7540
  172SAPE   C3219390   3.862   4.612   3.262  0.7533  0.6855 -0.6189
  172SAPE   H2X19391   3.814   4.711   3.250 -1.0129 -0.1922 -1.1113
  172SAPE   H2Y19392   3.922   4.595   3.355 -0.6477  1.3350  0.4476
  172SAPE   C2319393   3.612   5.022   3.024 -0.0374 -0.5806 -0.9794
  172SAPE   H3R19394   3.542   4.939   3.003  0.6247 -1.4929  0.2600
  172SAPE   H3S19395   3.556   5.117   3.018  0.7132  0.3247  3.0545
  172SAPE   C2419396   3.645   5.005   3.171  0.0926  0.0498  0.5503
  172SAPE   H4R19397   3.734   5.070   3.183 -0.2139  0.5451  0.1305
  172SAPE   H4S19398   3.681   4.902   3.193 -0.4442  0.1506  2.0185
  172SAPE   C2519399   3.525   5.039   3.249 -0.1485  0.8904 -0.5680
  172SAPE   H5R19400   3.446   5.098   3.200 -0.8420  0.9340  0.5636
  172SAPE   C2619401   3.506   4.994   3.376  0.0516  0.3424 -0.2378
  172SAPE   H6R19402   3.407   4.996   3.424  1.2519  0.0351  2.3942
  172SAPE   C2719403   3.601   4.914   3.469  0.1926 -0.7244 -0.4803
  172SAPE   H7R19404   3.621   4.815   3.423  2.6900 -0.6745  0.3666
  172SAPE   H7S19405   3.536   4.887   3.556  2.3257  1.3396  1.9183
  172SAPE   C2819406   3.731   4.966   3.517 -0.2575 -0.3552 -0.6190
  172SAPE   H8R19407   3.786   5.034   3.450  0.1354  0.3998  0.4334
  172SAPE   C2919408   3.804   4.922   3.628  0.5681 -0.1655 -0.0747
  172SAPE   H9R19409   3.892   4.986   3.648  1.6557 -1.7697  0.5378
  172SAPE  C21019410   3.758   4.843   3.747  0.6675  0.2454 -0.6289
  172SAPE  H10R19411   3.671   4.783   3.711 -0.0008  0.4120  0.6294
  172SAPE  H10S19412   3.729   4.910   3.830  0.8277  3.8622 -3.2628
  172SAPE  C21119413   3.851   4.738   3.799 -0.6347 -0.1873  0.1174
  172SAPE  H11R19414   3.852   4.646   3.738 -0.3633  0.1246 -0.3549
  172SAPE  C21219415   3.910   4.738   3.919 -0.8127  0.0651  0.3256
  172SAPE  H12R19416   3.973   4.648   3.935 -0.8880  0.1426  1.1337
  172SAPE  C21319417   3.922   4.831   4.033 -0.1602  0.1439 -0.5662
  172SAPE  H13R19418   3.903   4.935   3.999 -0.8958  0.5843  1.1060
  172SAPE  H13S19419   4.032   4.825   4.046 -0.0868 -1.3640 -1.6216
  172SAPE  C21419420   3.830   4.786   4.147  0.6793  0.1359  0.2366
  172SAPE  H14R19421   3.721   4.784   4.133  0.5243  0.2132  1.3559
  172SAPE  C21519422   3.876   4.754   4.263 -0.8246  0.0605 -0.5929
  172SAPE  H15R19423   3.801   4.713   4.332  0.5227 -3.1719 -0.8450
  172SAPE  C21619424   4.025   4.748   4.302  0.9367  0.1302  0.0968
  172SAPE  H16R19425   4.093   4.714   4.222  0.0254 -0.8754 -0.2671
  172SAPE  H16S19426   4.035   4.673   4.384  1.1972 -1.1421 -1.0799
  172SAPE  C21719427   4.087   4.884   4.338 -0.8823  0.0271 -0.6772
  172SAPE  H17R19428   4.061   4.975   4.279 -4.1676  0.1000  0.6728
  172SAPE  H17S19429   4.194   4.863   4.321 -0.5266  1.0355  0.2326
  172SAPE  C21819430   4.059   4.919   4.484  0.3710  0.0636  0.0918
  172SAPE  H18R19431   4.073   4.830   4.549  0.4271 -1.0847 -1.4423
  172SAPE  H18S19432   3.953   4.950   4.486 -0.4768 -2.5026  2.6612
  172SAPE  C21919433   4.162   5.019   4.550  0.0876 -0.1364 -0.0591
  172SAPE  H19R19434   4.268   4.987   4.541  1.1624  3.3765 -2.1168
  172SAPE  H19S19435   4.125   5.034   4.654 -0.4839  1.9436 -0.5101
  172SAPE  C22019436   4.168   5.160   4.490  0.3189  0.6061  0.1687
  172SAPE  H20R19437   4.264   5.188   4.441 -0.9777  1.8637 -1.7953
  172SAPE  H20S19438   4.171   5.236   4.571 -0.0120  0.6428  0.1479
  172SAPE  H20T19439   4.080   5.178   4.424  0.1060 -1.5412 -0.1904
  172SAPE   C3319440   3.769   4.487   3.256 -0.3671  0.1313  0.4344
  172SAPE   H3X19441   3.820   4.392   3.280 -0.2344 -0.7023 -2.6829
  172SAPE   H3Y19442   3.734   4.482   3.150 -2.3532  2.2073  0.9103
  172SAPE   C3419443   3.654   4.483   3.356  0.1410 -0.4439  0.2478
  172SAPE   H4X19444   3.584   4.397   3.345 -0.6068  0.2540 -0.6781
  172SAPE   H4Y19445   3.589   4.573   3.362  0.9804  0.3336 -1.5164
  172SAPE   C3519446   3.703   4.471   3.500  0.1051 -0.8529 -0.0428
  172SAPE   H5X19447   3.782   4.547   3.519  2.5815 -3.0217 -1.1397
  172SAPE   H5Y19448   3.751   4.374   3.521  0.6889 -1.0443 -2.0627
  172SAPE   C3619449   3.581   4.484   3.601  0.0138 -0.5235 -0.2053
  172SAPE   H6X19450   3.505   4.408   3.575 -1.4081  0.1285  1.8142
  172SAPE   H6Y19451   3.545   4.588   3.608  1.0292 -0.2495  1.5164
  172SAPE   C3719452   3.623   4.443   3.750 -0.3914 -0.0383  0.8535
  172SAPE   H7X19453   3.716   4.497   3.778  0.1692 -1.2100  1.3134
  172SAPE   H7Y19454   3.643   4.334   3.760 -1.9287 -0.3323  1.0854
  172SAPE   C3819455   3.526   4.472   3.860  0.4372  0.1969  0.4132
  172SAPE   H8X19456   3.431   4.415   3.851  0.2471  0.7844 -2.1467
  172SAPE   H8Y19457   3.483   4.575   3.857 -0.5182 -0.1277  1.9209
  172SAPE   C3919458   3.597   4.457   3.993  0.2324  0.7333 -0.4386
  172SAPE   H9X19459   3.705   4.484   3.992  0.2484  0.7304  0.4665
  172SAPE   H9Y19460   3.603   4.349   4.017  3.7043  0.8506 -0.1650
  172SAPE  C31019461   3.527   4.542   4.097  0.1355  0.1694 -0.4716
  172SAPE  H10X19462   3.419   4.520   4.107  0.0371  1.0391  0.4621
  172SAPE  H10Y19463   3.532   4.639   4.042  0.4120 -1.3181 -3.2763
  172SAPE  C31119464   3.603   4.540   4.232 -0.3504 -0.5754  0.3014
  172SAPE  H11X19465   3.610   4.648   4.257  2.6593  0.3205 -3.3661
  172SAPE  H11Y19466   3.710   4.510   4.222 -0.3887  0.0146 -3.1124
  172SAPE  C31219467   3.545   4.449   4.337  0.6212 -0.3354 -0.3409
  172SAPE  H12X19468   3.635   4.412   4.392  0.0048 -2.8628 -0.8983
  172SAPE  H12Y19469   3.493   4.366   4.284 -2.2077  0.2920  1.2557
  172SAPE  C31319470   3.440   4.514   4.431  0.0481 -0.3073  0.2518
  172SAPE  H13X19471   3.363   4.562   4.366  0.0070 -0.8227 -0.0906
  172SAPE  H13Y19472   3.471   4.593   4.502 -1.0288  0.4212 -0.0568
  172SAPE  C31419473   3.373   4.417   4.530 -0.1223  0.3978 -0.2887
  172SAPE  H14X19474   3.313   4.335   4.486 -2.9333  1.1369  1.8740
  172SAPE  H14Y19475   3.301   4.490   4.573 -1.3600 -0.3349 -1.0518
  172SAPE  C31519476   3.479   4.381   4.641  0.0181  0.0931  0.1280
  172SAPE  H15X19477   3.519   4.479   4.675 -0.6373  0.6873 -0.7338
  172SAPE  H15Y19478   3.561   4.314   4.608 -0.1089  0.6081 -1.2995
  172SAPE  C31619479   3.413   4.333   4.779 -0.0726 -0.2359 -0.1460
  172SAPE  H16X19480   3.320   4.394   4.788 -0.1169  0.1634 -2.6589
  172SAPE  H16Y19481   3.489   4.362   4.855  0.2183 -0.5948 -0.2998
  172SAPE  C31719482   3.378   4.184   4.801 -0.0736  0.3448  0.1707
  172SAPE  H17X19483   3.473   4.134   4.775 -0.9297 -1.3990  0.2393
  172SAPE  H17Y19484   3.302   4.145   4.730  0.1452  2.3155 -1.2289
  172SAPE  C31819485   3.339   4.158   4.945  0.0804  0.1211  0.3167
  172SAPE  H18X19486   3.261   4.233   4.971 -0.0405 -0.4000  1.5176
  172SAPE  H18Y19487   3.424   4.163   5.016  0.4345  0.4999 -0.1373
  172SAPE  H18Z19488   3.301   4.053   4.952  0.3016  0.1130  1.5976
  173SLPC     N19489   6.665   4.139   7.413 -0.8711 -0.9084  0.0293
  173SLPC   C1319490   6.778   4.057   7.377 -0.8526  0.1007  0.3006
  173SLPC  H13A19491   6.836   4.038   7.467  0.7029 -0.2084 -0.7226
  173SLPC  H13B19492   6.747   3.958   7.346  1.9630 -0.5507 -0.7421
  173SLPC  H13C19493   6.846   4.095   7.302  0.9578 -0.2021  1.6929
  173SLPC   C1419494   6.697   4.279   7.406  0.7775  0.2366  0.3160
  173SLPC  H14A19495   6.616   4.336   7.448 -0.4430 -0.9378 -0.3641
  173SLPC  H14B19496   6.777   4.313   7.469  1.4887  0.0088 -0.4397
  173SLPC  H14C19497   6.700   4.321   7.306  1.2212 -0.0782  0.1926
  173SLPC   C1519498   6.624   4.097   7.554 -0.1031 -0.2684  0.1419
  173SLPC  H15A19499   6.528   4.139   7.579 -1.4577 -1.4097 -2.7148
  173SLPC  H15B19500   6.608   3.991   7.569 -2.0198  0.3800  4.1435
  173SLPC  H15C19501   6.689   4.130   7.634 -1.9607 -0.9837  2.0333
  173SLPC   C1219502   6.548   4.115   7.319  0.1898  0.7366  0.3800
  173SLPC  H12A19503   6.572   4.165   7.227 -2.3707  0.6237 -0.4500
  173SLPC  H12B19504   6.464   4.174   7.355  0.9337  2.4751 -0.6124
  173SLPC   C1119505   6.499   3.967   7.297 -0.0097  0.1712  0.2946
  173SLPC  H11A19506   6.396   3.976   7.256  1.2173  2.6151 -2.6077
  173SLPC  H11B19507   6.497   3.900   7.386  0.5568 -1.0693 -0.5932
  173SLPC     P19508   6.625   3.771   7.188  0.2638  0.1978 -0.3655
  173SLPC   O1319509   6.763   3.762   7.254  0.2070  0.7495  0.1989
  173SLPC   O1419510   6.513   3.685   7.240 -0.5784 -0.2918  0.3638
  173SLPC   O1219511   6.588   3.922   7.189  0.1664  0.3124 -0.6839
  173SLPC   O1119512   6.640   3.747   7.032  0.2124  0.1660  0.4085
  173SLPC    C119513   6.526   3.748   6.944  0.9785 -0.4260 -0.2869
  173SLPC    HA19514   6.464   3.656   6.956  1.0030 -0.7410 -2.2436
  173SLPC    HB19515   6.474   3.846   6.954  3.0654  0.9914 -2.4462
  173SLPC    C219516   6.580   3.739   6.794  0.6989 -0.1879  0.3128
  173SLPC    HS19517   6.494   3.713   6.729 -0.3172 -0.2501  1.6392
  173SLPC   O2119518   6.687   3.645   6.772 -0.8641  0.2801  0.3987
  173SLPC   C2119519   6.663   3.520   6.809  0.2108 -0.3354 -1.4431
  173SLPC   O2219520   6.552   3.477   6.837 -0.6243  0.4764  0.0789
  173SLPC   C2219521   6.795   3.441   6.808 -0.7093  0.0118 -0.1036
  173SLPC   H2R19522   6.857   3.482   6.726  0.1653 -1.8807 -0.4502
  173SLPC   H2S19523   6.862   3.487   6.885  1.7205  0.0500 -2.1046
  173SLPC    C319524   6.631   3.879   6.752 -0.2122  0.8619 -0.4726
  173SLPC    HX19525   6.693   3.922   6.833  0.6684 -1.3013  0.0802
  173SLPC    HY19526   6.545   3.949   6.756 -2.0476 -1.3023  0.3679
  173SLPC   O3119527   6.705   3.886   6.632  0.3530  0.2759 -0.3484
  173SLPC   C3119528   6.623   3.890   6.521  0.1518  0.1116  0.0012
  173SLPC   O3219529   6.504   3.886   6.513 -0.3238  0.2130 -0.3431
  173SLPC   C3219530   6.713   3.910   6.400 -0.0936  0.4926 -0.2379
  173SLPC   H2X19531   6.819   3.886   6.422  0.1762  1.9500  0.1466
  173SLPC   H2Y19532   6.706   4.021   6.388  1.0136  0.4451 -1.5608
  173SLPC   C2319533   6.786   3.290   6.817  0.4060  0.2264 -0.0051
  173SLPC   H3R19534   6.678   3.263   6.819 -0.0738  1.8664  3.0592
  173SLPC   H3S19535   6.800   3.245   6.918 -0.8380 -0.1315  0.0258
  173SLPC   C2419536   6.869   3.210   6.716 -0.2219  0.1313  0.1780
  173SLPC   H4R19537   6.859   3.101   6.737  0.8003 -0.1352 -0.6532
  173SLPC   H4S19538   6.977   3.231   6.733  0.4877 -1.9392 -1.2734
  173SLPC   C2519539   6.823   3.250   6.570 -0.0954  0.5916 -0.1239
  173SLPC   H5R19540   6.836   3.360   6.562  0.7725  0.4126 -1.4350
  173SLPC   H5S19541   6.714   3.232   6.563  0.1788 -1.1995 -0.2055
  173SLPC   C2619542   6.906   3.196   6.463 -0.5576 -0.0033 -0.3497
  173SLPC   H6R19543   6.944   3.095   6.488 -0.5747  0.5013  1.8552
  173SLPC   H6S19544   7.006   3.244   6.463  0.4760 -1.8428  2.8663
  173SLPC   C2719545   6.844   3.211   6.322  0.2947 -0.2006  0.0468
  173SLPC   H7R19546   6.865   3.314   6.287 -1.4341 -0.0085 -0.4856
  173SLPC   H7S19547   6.736   3.190   6.314  0.2140  0.1192  0.2691
  173SLPC   C2819548   6.914   3.115   6.220 -0.1764 -0.2908  0.2046
  173SLPC   H8R19549   7.023   3.114   6.242 -0.3034 -0.2929  0.8365
  173SLPC   H8S19550   6.897   3.162   6.120  2.4991  1.1371  0.3478
  173SLPC   C2919551   6.848   2.975   6.219 -0.4501 -0.9444  0.0499
  173SLPC   H9R19552   6.837   2.940   6.322  1.4923  0.0665  0.6636
  173SLPC  C21019553   6.806   2.909   6.110  0.2268 -0.4294  0.4255
  173SLPC  H10R19554   6.756   2.811   6.114 -2.5263  0.8467 -0.6535
  173SLPC  C21119555   6.808   2.969   5.968 -0.2626 -0.1211 -1.1063
  173SLPC  H11R19556   6.777   3.076   5.976 -2.2976 -0.8163  3.2466
  173SLPC  H11S19557   6.732   2.917   5.906  0.2836 -0.7008 -1.2933
  173SLPC  C21219558   6.947   2.954   5.898  0.0987 -0.8493 -0.1322
  173SLPC  H12R19559   7.024   2.912   5.964  0.4152  0.3577  0.2817
  173SLPC  C21319560   6.986   3.015   5.785 -0.6690  1.2246 -0.0973
  173SLPC  H13R19561   7.089   2.998   5.750 -0.5682  0.6230  0.4872
  173SLPC  C21419562   6.888   3.083   5.703  0.3951 -0.0184  0.0563
  173SLPC  H14R19563   6.871   3.190   5.729 -0.6767  1.1048 -4.4411
  173SLPC  H14S19564   6.790   3.031   5.696  0.8619 -0.8940  0.0172
  173SLPC  C21519565   6.938   3.110   5.558 -0.1079  0.8690 -0.2655
  173SLPC  H15R19566   6.940   3.010   5.510  1.9987 -0.1728  1.7465
  173SLPC  H15S19567   7.044   3.142   5.569 -0.4489  2.6440 -1.7502
  173SLPC  C21619568   6.861   3.209   5.472  0.2179 -0.2538  0.0585
  173SLPC  H16R19569   6.850   3.310   5.518  1.3431 -1.1319  2.4085
  173SLPC  H16S19570   6.754   3.181   5.465  0.6946 -1.9865 -0.7683
  173SLPC  C21719571   6.929   3.221   5.328  0.3913  0.0543 -0.3195
  173SLPC  H17R19572   6.919   3.130   5.265  1.4187  0.8120 -1.6378
  173SLPC  H17S19573   7.040   3.225   5.334  0.8041 -2.0286 -3.5253
  173SLPC  C21819574   6.862   3.336   5.248  0.4335  0.3978 -0.2387
  173SLPC  H18R19575   6.790   3.298   5.172  0.3626  1.2074 -0.5830
  173SLPC  H18S19576   6.941   3.394   5.196  0.3068  0.3864 -0.4464
  173SLPC  H18T19577   6.802   3.412   5.302 -0.1837  1.0309 -1.7596
  173SLPC   C3319578   6.654   3.846   6.264 -0.3764 -0.3310 -0.3323
  173SLPC   H3X19579   6.547   3.873   6.263  0.1275  1.8898 -0.3255
  173SLPC   H3Y19580   6.679   3.738   6.263 -0.0925 -0.3863  2.5944
  173SLPC   C3419581   6.726   3.908   6.147  0.5333  0.4663  0.5531
  173SLPC   H4X19582   6.837   3.912   6.147  0.6066  0.7956 -2.6599
  173SLPC   H4Y19583   6.690   4.013   6.145 -1.7166 -0.2500 -1.2066
  173SLPC   C3519584   6.675   3.841   6.014  0.6362  0.0931  0.3840
  173SLPC   H5X19585   6.565   3.855   6.012  0.2170 -2.4793  1.5552
  173SLPC   H5Y19586   6.707   3.735   6.021 -0.1289 -0.3455 -1.9019
  173SLPC   C3619587   6.728   3.886   5.878 -0.3600  0.1676  0.6537
  173SLPC   H6X19588   6.829   3.840   5.880 -0.0616  0.7842  0.1545
  173SLPC   H6Y19589   6.734   3.995   5.859 -0.6214  0.1787  0.6375
  173SLPC   C3719590   6.660   3.814   5.761 -0.0784  0.5183 -0.5561
  173SLPC   H7X19591   6.570   3.873   5.732  1.8513  3.4440 -1.0100
  173SLPC   H7Y19592   6.638   3.715   5.806 -3.1515  2.4126  2.6106
  173SLPC   C3819593   6.743   3.801   5.631  0.8018 -0.0215  0.0923
  173SLPC   H8X19594   6.829   3.738   5.662 -0.2334 -0.4106  2.3662
  173SLPC   H8Y19595   6.780   3.901   5.599 -0.8004  0.5950  0.0330
  173SLPC   C3919596   6.669   3.727   5.509  1.1762  0.0502 -0.2550
  173SLPC   H9X19597   6.615   3.634   5.537 -0.3712 -0.1032 -3.2884
  173SLPC   H9Y19598   6.749   3.697   5.439  0.9763  1.1626 -0.9886
  173SLPC  C31019599   6.573   3.818   5.435  0.5779 -0.9024  0.0473
  173SLPC  H10X19600   6.608   3.922   5.416 -1.0496 -0.4733 -0.8273
  173SLPC  H10Y19601   6.469   3.830   5.471  0.0740 -2.6609 -0.7352
  173SLPC  C31119602   6.543   3.766   5.292 -0.3615  0.6829  0.5367
  173SLPC  H11X19603   6.516   3.658   5.290  0.4103  0.4383 -2.8533
  173SLPC  H11Y19604   6.641   3.766   5.238 -1.3786 -0.3800 -1.4510
  173SLPC  C31219605   6.439   3.842   5.204  0.0166 -0.1862  0.3694
  173SLPC  H12X19606   6.458   3.952   5.209  0.8437 -0.2361 -1.1627
  173SLPC  H12Y19607   6.336   3.828   5.245 -0.8650 -0.1026 -1.6781
  173SLPC  C31319608   6.441   3.816   5.052 -0.0929 -0.1585  0.2113
  173SLPC  H13X19609   6.433   3.706   5.041 -0.2926  0.1124 -4.0126
  173SLPC  H13Y19610   6.537   3.842   5.003 -0.0530 -0.0841  0.3294
  173SLPC  C31419611   6.322   3.871   4.970 -1.0377  0.2787  0.5642
  173SLPC  H14X19612   6.327   3.982   4.973 -2.4852  0.3984 -0.5587
  173SLPC  H14Y19613   6.221   3.837   4.999 -3.0572  3.2850 -2.2635
  173SLPC  C31519614   6.343   3.867   4.817  0.4256  0.4078 -0.0905
  173SLPC  H15X19615   6.432   3.931   4.798  2.3333 -1.4892  1.8031
  173SLPC  H15Y19616   6.252   3.915   4.776  0.6099  1.2404  0.4697
  173SLPC  C31619617   6.370   3.731   4.756  0.1389 -0.2153  0.2153
  173SLPC  H16X19618   6.290   3.659   4.784  1.5132 -1.9825 -0.1682
  173SLPC  H16Y19619   6.457   3.682   4.806 -1.9298 -1.1728  3.1391
  173SLPC  C31719620   6.388   3.744   4.601 -0.2297 -0.2529 -0.1998
  173SLPC  H17X19621   6.451   3.658   4.567  0.5220 -0.4049  1.4609
  173SLPC  H17Y19622   6.455   3.831   4.582 -0.4350  0.3268  1.5461
  173SLPC  C31819623   6.252   3.756   4.523 -0.5068  0.4673  0.2450
  173SLPC  H18X19624   6.195   3.661   4.533 -2.5832  1.7670  1.3313
  173SLPC  H18Y19625   6.269   3.782   4.417  2.3693  0.0581  0.5123
  173SLPC  H18Z19626   6.191   3.840   4.562 -0.4004  0.8447 -0.3891
  174SLPC     N19627   4.035   2.290   7.297  0.0520 -0.0771 -0.5021
  174SLPC   C1319628   4.141   2.401   7.260  0.3277 -0.2458 -0.1398
  174SLPC  H13A19629   4.170   2.395   7.156 -1.0424  0.4265 -0.5826
  174SLPC  H13B19630   4.097   2.499   7.273 -1.6361 -1.2376  1.2496
  174SLPC  H13C19631   4.229   2.389   7.321 -0.5530 -1.8449  0.9048
  174SLPC   C1419632   3.905   2.336   7.256  0.0255  0.3624 -0.5955
  174SLPC  H14A19633   3.829   2.259   7.263  0.4145 -0.0188 -0.4833
  174SLPC  H14B19634   3.882   2.421   7.318  0.3241 -0.5160  0.7477
  174SLPC  H14C19635   3.897   2.366   7.153 -2.4236  0.1381 -0.5321
  174SLPC   C1519636   4.033   2.282   7.445  0.2928 -0.3505 -0.0189
  174SLPC  H15A19637   3.992   2.370   7.492  2.7383  0.4037  0.8604
  174SLPC  H15B19638   3.972   2.196   7.470  0.6358 -1.3676 -2.4039
  174SLPC  H15C19639   4.129   2.268   7.491  0.0254 -0.8329  0.4066
  174SLPC   C1219640   4.080   2.159   7.230  0.0627  0.0270 -0.7535
  174SLPC  H12A19641   4.026   2.078   7.277  1.9153 -0.8776 -0.0779
  174SLPC  H12B19642   4.178   2.141   7.273  0.3989  0.5207 -1.2888
  174SLPC   C1119643   4.081   2.146   7.081 -0.3947  0.0460  0.1425
  174SLPC  H11A19644   3.984   2.167   7.030 -0.2406 -1.2836 -0.7338
  174SLPC  H11B19645   4.103   2.043   7.048 -2.6490  0.2734 -2.4290
  174SLPC     P19646   4.320   2.191   6.983 -0.2556  0.1476 -0.1404
  174SLPC   O1319647   4.406   2.305   6.971 -0.0150  0.2536 -0.1926
  174SLPC   O1419648   4.372   2.080   7.066 -0.2636 -0.1092 -1.1929
  174SLPC   O1219649   4.178   2.236   7.025 -0.5511 -0.9745  0.2927
  174SLPC   O1119650   4.304   2.134   6.843  0.3557 -0.6293 -0.0573
  174SLPC    C119651   4.217   2.190   6.744 -0.3768  0.5697  0.3380
  174SLPC    HA19652   4.147   2.113   6.704 -1.6769  1.7318  0.2937
  174SLPC    HB19653   4.162   2.281   6.779 -1.2841  0.2882 -0.3028
  174SLPC    C219654   4.298   2.236   6.620  0.1190 -0.0901  0.3762
  174SLPC    HS19655   4.358   2.322   6.654 -0.6774  1.2227 -1.3355
  174SLPC   O2119656   4.209   2.285   6.515  0.1823  0.4779 -0.9316
  174SLPC   C2119657   4.263   2.369   6.431  0.6606  0.4861  0.1136
  174SLPC   O2219658   4.374   2.412   6.435  0.3422 -0.4805  0.1498
  174SLPC   C2219659   4.157   2.401   6.333  0.1700 -0.2875 -0.9366
  174SLPC   H2R19660   4.080   2.321   6.320  1.9345 -2.1220 -0.7026
  174SLPC   H2S19661   4.108   2.492   6.372  0.8284 -0.8935  1.4557
  174SLPC    C319662   4.397   2.133   6.564 -0.7481  0.2544  0.4797
  174SLPC    HX19663   4.468   2.102   6.644 -1.7740 -0.9686  0.9496
  174SLPC    HY19664   4.463   2.185   6.491 -0.6604  1.7610  1.5763
  174SLPC   O3119665   4.326   2.015   6.509 -0.4335 -0.4484  0.0988
  174SLPC   C3119666   4.352   1.982   6.389 -0.5081  0.4087 -0.1109
  174SLPC   O3219667   4.445   2.017   6.320  0.1233 -0.1895  0.6723
  174SLPC   C3219668   4.248   1.882   6.345 -0.4116 -0.4471 -0.1798
  174SLPC   H2X19669   4.147   1.927   6.361 -0.0550  0.2364  0.1864
  174SLPC   H2Y19670   4.261   1.793   6.409  3.1839  0.9751  1.3244
  174SLPC   C2319671   4.222   2.443   6.196 -0.0356 -0.7730  0.2084
  174SLPC   H3R19672   4.273   2.359   6.144  1.7425  0.1156  0.4413
  174SLPC   H3S19673   4.297   2.524   6.209 -1.2089  0.5585 -0.9161
  174SLPC   C2419674   4.125   2.508   6.100 -0.2155 -0.0745  0.2835
  174SLPC   H4R19675   4.165   2.603   6.057  0.7094 -0.4443  0.3082
  174SLPC   H4S19676   4.028   2.528   6.150 -0.6192  1.0322 -0.8745
  174SLPC   C2519677   4.085   2.419   5.983  0.3435  0.4087  1.0471
  174SLPC   H5R19678   4.057   2.318   6.020  1.8034 -0.1893  0.5806
  174SLPC   H5S19679   4.176   2.405   5.922  1.0406  0.8183  1.9682
  174SLPC   C2619680   3.958   2.459   5.896 -0.1659 -0.7796 -0.3470
  174SLPC   H6R19681   3.989   2.540   5.827  0.0335 -1.1951 -0.7493
  174SLPC   H6S19682   3.875   2.514   5.947 -0.0172 -0.4491 -0.4590
  174SLPC   C2719683   3.906   2.357   5.806  0.1810  0.3898  0.2489
  174SLPC   H7R19684   3.811   2.372   5.751  0.1869  2.9417  0.7996
  174SLPC   H7S19685   3.865   2.280   5.874  0.2849 -1.3975 -1.6053
  174SLPC   C2819686   4.006   2.295   5.700  0.7305  0.9113 -0.6123
  174SLPC   H8R19687   4.110   2.286   5.738 -0.0203 -1.5834  1.1009
  174SLPC   H8S19688   4.020   2.368   5.617  0.1565  0.4087 -1.1640
  174SLPC   C2919689   3.960   2.153   5.653  0.2930  0.0867  0.0320
  174SLPC   H9R19690   3.990   2.060   5.704  0.5643 -1.0250 -2.0257
  174SLPC  C21019691   3.880   2.139   5.544  0.0085  0.0463  0.5371
  174SLPC  H10R19692   3.858   2.037   5.510  1.8195 -0.1430 -0.1894
  174SLPC  C21119693   3.833   2.252   5.448  0.3892 -0.4109  0.6792
  174SLPC  H11R19694   3.841   2.351   5.496 -1.3850 -1.3934  3.2182
  174SLPC  H11S19695   3.723   2.237   5.439  0.3498 -0.7748  1.6134
  174SLPC  C21219696   3.904   2.245   5.315  0.3818 -0.7357 -0.2719
  174SLPC  H12R19697   4.008   2.279   5.323  0.0739  0.4643 -1.0753
  174SLPC  C21319698   3.852   2.199   5.203 -0.0041 -0.1089  0.5270
  174SLPC  H13R19699   3.902   2.216   5.106 -0.6254  2.2722  0.5706
  174SLPC  C21419700   3.709   2.157   5.177 -0.9085 -0.5905 -0.8471
  174SLPC  H14R19701   3.645   2.135   5.265  2.3832 -1.5895  1.4918
  174SLPC  H14S19702   3.711   2.057   5.128  0.5549 -1.2908  0.5766
  174SLPC  C21519703   3.620   2.268   5.109 -1.3519 -0.4493  0.9590
  174SLPC  H15R19704   3.655   2.305   5.010 -1.1942  1.6516  1.7488
  174SLPC  H15S19705   3.617   2.351   5.183 -1.1845 -0.1053  0.5828
  174SLPC  C21619706   3.477   2.221   5.085  0.3530 -0.5722  0.4004
  174SLPC  H16R19707   3.412   2.299   5.040  0.9964 -1.4282 -2.2061
  174SLPC  H16S19708   3.437   2.192   5.184 -0.3283  1.4699  0.7741
  174SLPC  C21719709   3.467   2.102   4.987  0.1653  0.1560 -0.5956
  174SLPC  H17R19710   3.504   2.010   5.037 -1.6752 -1.9201 -2.8023
  174SLPC  H17S19711   3.511   2.125   4.888 -0.5516 -1.4048 -1.3130
  174SLPC  C21819712   3.318   2.085   4.958 -0.6720  0.3842  0.7610
  174SLPC  H18R19713   3.313   1.979   4.925  2.0085  0.2105  0.7144
  174SLPC  H18S19714   3.285   2.164   4.887 -1.7920 -0.3452  0.4361
  174SLPC  H18T19715   3.263   2.084   5.055 -0.7002 -0.0602  0.7427
  174SLPC   C3319716   4.252   1.853   6.195 -0.6143  0.0427 -0.7781
  174SLPC   H3X19717   4.189   1.761   6.192  0.1571 -0.5382  0.0139
  174SLPC   H3Y19718   4.355   1.818   6.168 -1.0008 -0.4252 -1.6845
  174SLPC   C3419719   4.211   1.962   6.098  0.3272  0.2154 -0.3666
  174SLPC   H4X19720   4.248   2.058   6.139 -1.9003  0.4757  1.2405
  174SLPC   H4Y19721   4.102   1.972   6.119  0.1952 -0.7895 -0.5022
  174SLPC   C3519722   4.230   1.945   5.951 -0.4818  0.6717  0.3870
  174SLPC   H5X19723   4.331   1.906   5.925 -1.1225 -0.5399 -0.4148
  174SLPC   H5Y19724   4.205   2.039   5.898  1.4516  1.9972  1.6834
  174SLPC   C3619725   4.143   1.836   5.893  0.4684  0.4210 -0.1269
  174SLPC   H6X19726   4.161   1.742   5.949 -0.9453 -0.1759 -0.6059
  174SLPC   H6Y19727   4.176   1.819   5.788  0.7630 -1.2532  0.2164
  174SLPC   C3719728   3.989   1.862   5.901  0.3801  0.6445 -0.0815
  174SLPC   H7X19729   3.980   1.973   5.910  0.1654  0.7218 -1.0370
  174SLPC   H7Y19730   3.948   1.828   5.998  0.5032 -0.3277 -0.3624
  174SLPC   C3819731   3.921   1.801   5.778  0.8368 -0.2435 -1.0706
  174SLPC   H8X19732   3.937   1.691   5.767  0.4224 -0.2798 -1.3415
  174SLPC   H8Y19733   3.959   1.845   5.683  1.2063  1.5626 -0.1259
  174SLPC   C3919734   3.770   1.836   5.765 -0.2177 -0.1116 -0.4082
  174SLPC   H9X19735   3.759   1.945   5.749 -1.0315 -0.0745  0.3582
  174SLPC   H9Y19736   3.726   1.812   5.864  0.9388 -1.0426 -0.0858
  174SLPC  C31019737   3.696   1.770   5.649  0.1472  0.5279  0.2732
  174SLPC  H10X19738   3.694   1.658   5.649 -0.5485  0.4428 -3.2428
  174SLPC  H10Y19739   3.748   1.796   5.555  0.5306  0.6684  0.5204
  174SLPC  C31119740   3.558   1.827   5.660 -0.5114  0.6636  0.6894
  174SLPC  H11X19741   3.556   1.937   5.673  0.7916  0.4793  2.9309
  174SLPC  H11Y19742   3.511   1.790   5.753 -1.2652  1.5687  0.6832
  174SLPC  C31219743   3.462   1.787   5.546  0.4045  0.2771  0.2952
  174SLPC  H12X19744   3.361   1.831   5.563  0.7730  0.7903  1.1968
  174SLPC  H12Y19745   3.438   1.678   5.550  0.1012  0.3514  0.5046
  174SLPC  C31319746   3.505   1.826   5.402 -0.2311  0.2345 -0.7474
  174SLPC  H13X19747   3.591   1.761   5.376  2.7741  3.7380 -0.2415
  174SLPC  H13Y19748   3.557   1.924   5.406  0.7538 -0.2959 -0.2033
  174SLPC  C31419749   3.387   1.839   5.299  0.0319 -0.8785 -0.0353
  174SLPC  H14X19750   3.430   1.877   5.205 -1.3937 -1.4353 -0.9510
  174SLPC  H14Y19751   3.311   1.908   5.342 -2.2459 -2.1260 -1.7939
  174SLPC  C31519752   3.333   1.698   5.254  0.4001  0.6176 -0.7735
  174SLPC  H15X19753   3.257   1.670   5.330  0.6862  0.6245 -0.4826
  174SLPC  H15Y19754   3.420   1.630   5.244  0.3929 -0.1806  2.9921
  174SLPC  C31619755   3.252   1.682   5.125  0.8077 -0.6827  0.0948
  174SLPC  H16X19756   3.245   1.573   5.106  2.3791 -0.9724  0.9623
  174SLPC  H16Y19757   3.304   1.746   5.050 -0.6534  2.9480  1.9151
  174SLPC  C31719758   3.108   1.731   5.131 -0.4821 -0.3169 -0.5128
  174SLPC  H17X19759   3.104   1.839   5.155 -1.0406 -0.2113 -1.0421
  174SLPC  H17Y19760   3.064   1.679   5.219  1.0031 -2.9154 -1.1949
  174SLPC  C31819761   3.046   1.700   4.994  0.2147 -0.1863  0.6186
  174SLPC  H18X19762   3.073   1.597   4.961  0.9151  0.3235 -0.4407
  174SLPC  H18Y19763   3.075   1.763   4.907  1.4684 -0.0819  1.1000
  174SLPC  H18Z19764   2.935   1.708   4.998  0.1809 -1.0131  1.6968
  175SLPC     N19765   5.723   4.567   7.756  0.1735  0.0517  0.3704
  175SLPC   C1319766   5.814   4.485   7.839 -0.2041 -0.6199  0.4230
  175SLPC  H13A19767   5.873   4.557   7.893 -0.2057 -0.9056  0.8066
  175SLPC  H13B19768   5.761   4.423   7.910 -1.5352  0.6681  0.6124
  175SLPC  H13C19769   5.867   4.415   7.776 -1.7944 -1.4190 -0.0899
  175SLPC   C1419770   5.651   4.664   7.833 -0.0265  0.2261 -0.8388
  175SLPC  H14A19771   5.713   4.740   7.878 -1.0588  0.4796  0.2255
  175SLPC  H14B19772   5.584   4.720   7.769 -0.1592  1.1827  0.1011
  175SLPC  H14C19773   5.596   4.624   7.917  0.7653  0.5027 -0.1695
  175SLPC   C1519774   5.628   4.468   7.696  0.3584  0.5380 -1.0808
  175SLPC  H15A19775   5.676   4.393   7.635 -0.1022 -1.6144  1.0390
  175SLPC  H15B19776   5.571   4.409   7.766 -2.5724  1.2102 -2.7536
  175SLPC  H15C19777   5.549   4.514   7.638 -0.9268  1.9553  1.5680
  175SLPC   C1219778   5.798   4.632   7.641  0.3083 -0.5080 -0.6211
  175SLPC  H12A19779   5.882   4.579   7.600  1.2290 -0.0440  0.6129
  175SLPC  H12B19780   5.846   4.724   7.670 -0.3346  0.2538 -1.8988
  175SLPC   C1119781   5.709   4.676   7.523  0.5552  0.1937  0.6790
  175SLPC  H11A19782   5.659   4.588   7.478  0.5041  0.7396 -0.3857
  175SLPC  H11B19783   5.774   4.692   7.433 -0.7212  0.0099 -0.3010
  175SLPC     P19784   5.665   4.936   7.537  0.4139 -0.1655  0.1375
  175SLPC   O1319785   5.615   5.010   7.652 -0.2099 -0.5699 -0.2398
  175SLPC   O1419786   5.806   4.944   7.511  0.4387  0.0497  0.1305
  175SLPC   O1219787   5.619   4.786   7.551  0.2517 -0.3330 -0.3850
  175SLPC   O1119788   5.595   4.972   7.397  0.4486  0.1229 -0.7089
  175SLPC    C119789   5.654   4.936   7.271 -0.4038  0.5388  1.1927
  175SLPC    HA19790   5.753   4.889   7.287 -0.7600  0.4004  3.3874
  175SLPC    HB19791   5.584   4.859   7.234 -1.4501  1.6927  0.7134
  175SLPC    C219792   5.658   5.051   7.163  0.0234  0.1899 -0.1425
  175SLPC    HS19793   5.727   5.127   7.206 -0.4923  0.2190  0.6555
  175SLPC   O2119794   5.528   5.112   7.145  0.7279  0.0250  0.1904
  175SLPC   C2119795   5.531   5.232   7.105  0.7533 -0.5293 -0.4548
  175SLPC   O2219796   5.633   5.299   7.084 -0.1082  0.1630  0.4720
  175SLPC   C2219797   5.392   5.276   7.060 -0.0588 -0.0399 -0.7452
  175SLPC   H2R19798   5.308   5.213   7.098 -0.0268  0.1828 -0.2933
  175SLPC   H2S19799   5.370   5.380   7.093 -0.8447 -0.2528 -0.5754
  175SLPC    C319800   5.724   5.006   7.032  0.0062  0.1015 -0.5231
  175SLPC    HX19801   5.797   4.928   7.062 -2.5268 -1.9812  0.5718
  175SLPC    HY19802   5.787   5.083   6.983  0.0182  0.6752  0.3767
  175SLPC   O3119803   5.631   4.950   6.939  0.4369  0.4256  0.1023
  175SLPC   C3119804   5.647   4.824   6.922 -0.3151 -0.2911  0.1060
  175SLPC   O3219805   5.724   4.748   6.970 -0.4276  0.6552 -0.4259
  175SLPC   C3219806   5.550   4.790   6.811 -0.2649  0.2279  0.3246
  175SLPC   H2X19807   5.551   4.861   6.726 -0.4403 -1.4098 -1.1086
  175SLPC   H2Y19808   5.445   4.791   6.849 -0.8210 -1.5083 -1.0207
  175SLPC   C2319809   5.385   5.288   6.913  0.5505  0.4681 -0.3421
  175SLPC   H3R19810   5.459   5.359   6.870 -0.3398  1.6629  0.0447
  175SLPC   H3S19811   5.288   5.331   6.880 -0.2145 -2.0175 -1.6323
  175SLPC   C2419812   5.410   5.162   6.827  0.0050  0.3212  0.4955
  175SLPC   H4R19813   5.343   5.076   6.852  0.5684 -0.7958 -1.5638
  175SLPC   H4S19814   5.513   5.125   6.845  0.2386 -0.4280 -1.9734
  175SLPC   C2519815   5.387   5.205   6.675  0.0614  0.7341  0.0882
  175SLPC   H5R19816   5.466   5.278   6.649  1.3519 -0.3818  0.7453
  175SLPC   H5S19817   5.285   5.248   6.666  0.7594  2.3882 -0.1598
  175SLPC   C2619818   5.414   5.089   6.583  0.0477 -0.0536 -0.3887
  175SLPC   H6R19819   5.384   4.992   6.628 -1.2452  1.4078  2.0599
  175SLPC   H6S19820   5.524   5.086   6.568  0.2535 -1.0113  1.1723
  175SLPC   C2719821   5.352   5.115   6.446 -0.4193  0.1885 -0.3031
  175SLPC   H7R19822   5.383   5.220   6.424  0.8588 -0.1499 -0.2035
  175SLPC   H7S19823   5.242   5.131   6.452 -0.5127  1.0254 -3.0567
  175SLPC   C2819824   5.396   5.031   6.328  0.6917  0.6298 -0.2432
  175SLPC   H8R19825   5.342   5.057   6.235  2.6934 -1.1231 -1.9998
  175SLPC   H8S19826   5.367   4.927   6.355 -1.0815  1.5005  1.4918
  175SLPC   C2919827   5.547   5.030   6.312 -0.7326  0.8499  0.4361
  175SLPC   H9R19828   5.607   4.995   6.397 -0.1273  1.7408  0.3964
  175SLPC  C21019829   5.615   5.076   6.203  0.8786  0.4057 -0.2474
  175SLPC  H10R19830   5.725   5.088   6.202  0.7741  1.4846 -1.7014
  175SLPC  C21119831   5.552   5.129   6.077  0.4804  0.0356  0.1308
  175SLPC  H11R19832   5.625   5.203   6.036 -0.0551  1.3205  1.4129
  175SLPC  H11S19833   5.470   5.200   6.102 -0.1623 -0.2723 -1.0401
  175SLPC  C21219834   5.515   5.025   5.977 -1.0096 -0.7058  0.0547
  175SLPC  H12R19835   5.583   4.938   5.983  0.2331  0.2727  0.6904
  175SLPC  C21319836   5.427   5.043   5.877  0.5680  0.7316  0.0343
  175SLPC  H13R19837   5.426   4.966   5.799  3.1865  1.1055 -0.4562
  175SLPC  C21419838   5.340   5.166   5.848 -0.0706 -0.2300  0.3051
  175SLPC  H14R19839   5.343   5.239   5.932 -0.9788  0.4132 -0.2092
  175SLPC  H14S19840   5.239   5.120   5.840 -0.8415  1.5806 -1.1068
  175SLPC  C21519841   5.361   5.233   5.710 -0.0417  0.3739  0.6774
  175SLPC  H15R19842   5.271   5.297   5.696  0.2192  0.7619  0.7255
  175SLPC  H15S19843   5.354   5.158   5.628  0.1433  0.0007  1.0028
  175SLPC  C21619844   5.476   5.333   5.693 -0.4220 -0.0619 -0.4985
  175SLPC  H16R19845   5.570   5.275   5.702 -0.3216 -0.3392 -2.8861
  175SLPC  H16S19846   5.470   5.402   5.780  0.0990  2.6361 -2.4616
  175SLPC  C21719847   5.463   5.418   5.564 -0.2471  0.4246  0.6643
  175SLPC  H17R19848   5.555   5.479   5.576  0.9106 -0.8927 -1.0957
  175SLPC  H17S19849   5.373   5.483   5.573 -2.0618 -2.1621  3.7029
  175SLPC  C21819850   5.458   5.348   5.428  0.3406 -0.4123 -0.0703
  175SLPC  H18R19851   5.473   5.426   5.350  0.1062  2.2357  2.3973
  175SLPC  H18S19852   5.362   5.299   5.402 -0.7746  2.2052 -1.2360
  175SLPC  H18T19853   5.537   5.269   5.424 -0.9557 -1.8288  1.1203
  175SLPC   C3319854   5.581   4.655   6.749  0.2803  0.6630  0.7175
  175SLPC   H3X19855   5.545   4.570   6.811 -1.2357  1.1982  0.6233
  175SLPC   H3Y19856   5.690   4.655   6.730  0.2577  0.1918  0.5708
  175SLPC   C3419857   5.495   4.654   6.615  0.2534  0.2524 -0.0398
  175SLPC   H4X19858   5.545   4.732   6.554 -1.4079 -0.0529 -1.8950
  175SLPC   H4Y19859   5.391   4.683   6.640 -0.1271 -1.0710  0.0031
  175SLPC   C3519860   5.472   4.511   6.553  0.2988 -0.6572  0.3771
  175SLPC   H5X19861   5.441   4.445   6.637  0.9412  0.3850  1.4586
  175SLPC   H5Y19862   5.572   4.474   6.524  1.3407  1.2750  1.2999
  175SLPC   C3619863   5.378   4.511   6.423  0.4615 -1.1672  0.1938
  175SLPC   H6X19864   5.277   4.557   6.438  0.9471  0.9134 -2.2587
  175SLPC   H6Y19865   5.365   4.407   6.387  0.3872 -1.0336 -0.1623
  175SLPC   C3719866   5.447   4.603   6.320 -0.6893  0.7046 -0.6301
  175SLPC   H7X19867   5.558   4.603   6.329 -0.8141  1.2076  1.3495
  175SLPC   H7Y19868   5.419   4.710   6.334  0.1665  0.8804 -0.1831
  175SLPC   C3819869   5.400   4.569   6.173 -0.4262 -0.2305 -0.4666
  175SLPC   H8X19870   5.295   4.604   6.163  0.5933  3.1498 -0.8620
  175SLPC   H8Y19871   5.405   4.460   6.153  1.4279 -0.1173 -0.8693
  175SLPC   C3919872   5.480   4.633   6.061  0.8757  0.2541  0.2801
  175SLPC   H9X19873   5.587   4.605   6.067  0.9556  0.5780  0.4241
  175SLPC   H9Y19874   5.475   4.744   6.070  1.5168  0.4115 -1.0908
  175SLPC  C31019875   5.445   4.589   5.919 -0.2975 -0.0806  0.7259
  175SLPC  H10X19876   5.338   4.614   5.901  0.1592  1.3887 -0.1346
  175SLPC  H10Y19877   5.448   4.478   5.907 -0.7998  0.0366 -0.6867
  175SLPC  C31119878   5.542   4.662   5.821 -0.7026  1.1940  0.4714
  175SLPC  H11X19879   5.645   4.625   5.841 -0.7234  0.7234 -0.2604
  175SLPC  H11Y19880   5.536   4.772   5.838 -1.0523  1.5583 -1.6908
  175SLPC  C31219881   5.498   4.624   5.679  0.2699 -0.1478  0.3313
  175SLPC  H12X19882   5.391   4.649   5.665  0.3922 -1.1700 -3.3466
  175SLPC  H12Y19883   5.508   4.513   5.675  0.3587 -0.1911  1.4016
  175SLPC  C31319884   5.573   4.687   5.564  0.1278  0.2487  0.1786
  175SLPC  H13X19885   5.555   4.610   5.485 -2.8290  3.0797 -2.1950
  175SLPC  H13Y19886   5.682   4.703   5.581 -0.0858 -0.1942  2.1294
  175SLPC  C31419887   5.507   4.809   5.502 -0.2640 -0.1454  0.2584
  175SLPC  H14X19888   5.537   4.897   5.564 -0.8646  1.2926 -1.3910
  175SLPC  H14Y19889   5.397   4.798   5.513 -0.1927  0.5243  1.9866
  175SLPC  C31519890   5.539   4.842   5.353 -0.4665 -0.2892  0.0464
  175SLPC  H15X19891   5.515   4.751   5.293 -0.5334 -0.4263  0.2799
  175SLPC  H15Y19892   5.645   4.874   5.345 -1.0862  1.5375 -1.4259
  175SLPC  C31619893   5.452   4.952   5.291  0.4288  0.0972  0.6435
  175SLPC  H16X19894   5.473   5.042   5.353 -1.2672 -0.8633  2.7123
  175SLPC  H16Y19895   5.343   4.942   5.305  0.5117 -1.6404  0.2672
  175SLPC  C31719896   5.485   4.979   5.149  0.3730 -0.2661  0.6637
  175SLPC  H17X19897   5.460   4.887   5.092 -0.1463  0.5683 -0.4784
  175SLPC  H17Y19898   5.595   4.991   5.138  0.0522  0.1232 -3.0669
  175SLPC  C31819899   5.431   5.102   5.066 -0.5732 -0.3038  0.0754
  175SLPC  H18X19900   5.437   5.200   5.118 -0.1330  0.2202 -0.9221
  175SLPC  H18Y19901   5.325   5.087   5.037 -0.5941 -1.1519  0.5626
  175SLPC  H18Z19902   5.488   5.123   4.973 -1.2190  0.5706 -0.1411
  176SLPC     N19903   6.430   2.566   7.166 -0.5597  0.2570 -0.1231
  176SLPC   C1319904   6.369   2.440   7.222 -0.3090 -0.1832  0.0264
  176SLPC  H13A19905   6.261   2.440   7.219 -0.3020 -0.0428 -0.2973
  176SLPC  H13B19906   6.403   2.359   7.160 -1.9581  0.2841 -1.5680
  176SLPC  H13C19907   6.403   2.413   7.321  2.2400 -2.4320 -1.3431
  176SLPC   C1419908   6.378   2.679   7.244  0.0233 -0.4787  0.1561
  176SLPC  H14A19909   6.419   2.664   7.343  1.6676  2.0049 -0.0604
  176SLPC  H14B19910   6.423   2.773   7.215  0.4906 -0.6401  0.3494
  176SLPC  H14C19911   6.271   2.669   7.246  0.1446 -2.2501 -0.8639
  176SLPC   C1519912   6.383   2.588   7.022  0.4001  0.7870  0.0487
  176SLPC  H15A19913   6.275   2.596   7.018  0.1391 -1.3548  1.1216
  176SLPC  H15B19914   6.420   2.673   6.967 -1.1865  0.8768 -0.9585
  176SLPC  H15C19915   6.401   2.502   6.959  0.0542  1.1084 -0.4946
  176SLPC   C1219916   6.586   2.555   7.180 -1.1491  0.4411 -0.2099
  176SLPC  H12A19917   6.610   2.528   7.281  1.2727  2.8117 -0.0231
  176SLPC  H12B19918   6.628   2.652   7.155  0.7073 -0.0363  0.9286
  176SLPC   C1119919   6.666   2.457   7.086  0.7300 -0.1112 -0.0763
  176SLPC  H11A19920   6.765   2.461   7.136  0.0617  1.5609  1.2278
  176SLPC  H11B19921   6.659   2.508   6.988 -1.1409 -0.1980 -0.0260
  176SLPC     P19922   6.553   2.242   6.979  0.6061 -0.0672 -0.2438
  176SLPC   O1319923   6.588   2.099   6.992 -0.3657 -0.3432  0.2694
  176SLPC   O1419924   6.405   2.251   6.980  0.0303  0.0008 -0.1460
  176SLPC   O1219925   6.622   2.326   7.091 -0.6679  0.2190  0.3760
  176SLPC   O1119926   6.605   2.287   6.836  0.4444 -0.4875 -0.2979
  176SLPC    C119927   6.739   2.260   6.787  0.1733 -0.1125 -0.0891
  176SLPC    HA19928   6.792   2.346   6.741 -0.0021 -1.1264 -2.3236
  176SLPC    HB19929   6.808   2.224   6.867  0.5797 -1.6383 -1.0736
  176SLPC    C219930   6.731   2.160   6.671  0.5108 -0.6037  0.1541
  176SLPC    HS19931   6.698   2.063   6.715 -1.9010  1.4715  3.4155
  176SLPC   O2119932   6.854   2.159   6.589  0.4389 -0.3199 -0.1541
  176SLPC   C2119933   6.939   2.077   6.646  0.1577 -0.3631  0.2639
  176SLPC   O2219934   6.930   2.028   6.760 -0.3328 -0.9164  0.6267
  176SLPC   C2219935   7.062   2.057   6.559 -0.1921 -0.6607  0.3599
  176SLPC   H2R19936   7.155   2.052   6.619  0.2234 -2.2490 -0.3584
  176SLPC   H2S19937   7.051   1.952   6.527 -0.4984 -0.1316 -1.3723
  176SLPC    C319938   6.612   2.199   6.575  0.2966 -0.3591  0.6879
  176SLPC    HX19939   6.641   2.291   6.519 -0.4913 -0.4977  0.0379
  176SLPC    HY19940   6.520   2.225   6.631  0.5034 -1.5921  1.6254
  176SLPC   O3119941   6.596   2.091   6.482  0.1799 -0.2515 -0.3454
  176SLPC   C3119942   6.503   1.999   6.516 -0.1509  0.2948 -0.0669
  176SLPC   O3219943   6.446   1.990   6.622  0.4807  0.7006 -0.1724
  176SLPC   C3219944   6.486   1.899   6.402 -0.0843 -0.2239  0.0783
  176SLPC   H2X19945   6.380   1.867   6.416 -0.7456  2.0965  0.7121
  176SLPC   H2Y19946   6.566   1.825   6.426  2.1527  1.9553 -0.3529
  176SLPC   C2319947   7.077   2.138   6.428  0.9281  0.2077  0.4475
  176SLPC   H3R19948   7.116   2.239   6.455 -0.9098  1.1791 -0.3295
  176SLPC   H3S19949   6.979   2.154   6.377  1.6405  2.2863 -0.4092
  176SLPC   C2419950   7.167   2.083   6.318 -0.5344  0.7502 -0.2219
  176SLPC   H4R19951   7.210   2.160   6.250 -0.0503 -0.4533 -1.3012
  176SLPC   H4S19952   7.105   2.003   6.272 -1.9335  2.2838 -1.1210
  176SLPC   C2519953   7.297   2.014   6.376  0.3542 -0.3914 -0.1791
  176SLPC   H5R19954   7.260   1.936   6.446 -0.2694  1.6168  1.8632
  176SLPC   H5S19955   7.365   2.080   6.434 -0.7681 -0.7940  1.7104
  176SLPC   C2619956   7.375   1.942   6.265 -0.1679 -0.2530  0.2784
  176SLPC   H6R19957   7.477   1.912   6.299  0.0071 -1.6873 -1.3336
  176SLPC   H6S19958   7.392   2.013   6.181  0.3647  1.9500  2.1459
  176SLPC   C2719959   7.302   1.818   6.212 -0.0564  0.5419 -0.6241
  176SLPC   H7R19960   7.197   1.834   6.181 -0.0809  0.1684 -0.7419
  176SLPC   H7S19961   7.292   1.741   6.291  1.1437  0.9192 -0.0743
  176SLPC   C2819962   7.372   1.744   6.091  0.5099  0.1522 -0.2650
  176SLPC   H8R19963   7.480   1.731   6.114  0.2651 -2.1020 -0.2067
  176SLPC   H8S19964   7.359   1.804   5.999  0.0728 -0.2133 -0.4444
  176SLPC   C2919965   7.319   1.607   6.064  0.2814  0.5934 -0.0017
  176SLPC   H9R19966   7.236   1.604   5.992  0.6110  0.5712 -0.3892
  176SLPC  C21019967   7.372   1.492   6.118 -0.0710 -0.0423 -0.3556
  176SLPC  H10R19968   7.332   1.396   6.083 -1.0639 -0.4067  1.6664
  176SLPC  C21119969   7.475   1.473   6.223 -0.1661 -0.3731  0.4684
  176SLPC  H11R19970   7.433   1.388   6.281  0.6824  0.7796  2.9147
  176SLPC  H11S19971   7.472   1.564   6.286  1.7658  0.0079  0.0744
  176SLPC  C21219972   7.615   1.442   6.176 -0.3673 -0.1393 -0.6542
  176SLPC  H12R19973   7.664   1.534   6.142 -1.4950  0.3801 -0.9134
  176SLPC  C21319974   7.685   1.326   6.191 -0.5596 -0.2218 -0.9042
  176SLPC  H13R19975   7.789   1.319   6.157 -0.6853 -1.1494 -1.1387
  176SLPC  C21419976   7.641   1.203   6.268  0.2128 -0.1086 -0.6627
  176SLPC  H14R19977   7.710   1.117   6.250 -0.0599 -1.1577  2.6581
  176SLPC  H14S19978   7.545   1.163   6.229 -0.2266  0.4348 -0.1408
  176SLPC  C21519979   7.626   1.202   6.426 -0.1430 -0.0110 -0.0650
  176SLPC  H15R19980   7.552   1.282   6.448  0.3400  0.7043 -1.0144
  176SLPC  H15S19981   7.723   1.231   6.473 -0.5412  1.0005  0.1575
  176SLPC  C21619982   7.577   1.067   6.482  0.5706 -0.2240  0.6079
  176SLPC  H16R19983   7.618   0.988   6.416  0.1284  0.8516 -1.0090
  176SLPC  H16S19984   7.468   1.059   6.460  0.5317 -1.4556  1.1421
  176SLPC  C21719985   7.620   1.047   6.629 -0.2218 -0.2681 -0.2778
  176SLPC  H17R19986   7.729   1.023   6.630  0.2483  1.6713 -0.7567
  176SLPC  H17S19987   7.564   0.964   6.677 -0.5588  1.6233  2.8767
  176SLPC  C21819988   7.603   1.168   6.729 -0.1422  0.5636 -0.1675
  176SLPC  H18R19989   7.576   1.130   6.830 -1.5223 -1.0596 -1.1082
  176SLPC  H18S19990   7.522   1.233   6.690  0.6472  1.5903 -0.1440
  176SLPC  H18T19991   7.695   1.231   6.734  2.8752 -3.2759 -2.2148
  176SLPC   C3319992   6.502   1.962   6.262  0.1140  0.0014 -0.5605
  176SLPC   H3X19993   6.610   1.980   6.240  0.4657 -1.5867 -0.2680
  176SLPC   H3Y19994   6.445   2.055   6.245  2.3357  1.4023 -0.7216
  176SLPC   C3419995   6.435   1.872   6.150 -0.1098  0.5502  0.2926
  176SLPC   H4X19996   6.325   1.871   6.164 -0.0572  0.1270  0.6862
  176SLPC   H4Y19997   6.469   1.768   6.168  0.6249  0.9628  1.3384
  176SLPC   C3519998   6.470   1.922   6.005 -0.0218  0.8419  0.0947
  176SLPC   H5X19999   6.579   1.918   5.986 -0.1492  0.1005 -0.5279
  176SLPC   H5Y20000   6.426   2.024   5.994 -0.2707  1.0039  2.0731
  176SLPC   C3620001   6.394   1.822   5.910 -0.1952  0.6963  0.5517
  176SLPC   H6X20002   6.284   1.843   5.907 -0.1518  0.9387  0.6390
  176SLPC   H6Y20003   6.416   1.716   5.933  1.5084  0.8877 -0.0692
  176SLPC   C3720004   6.443   1.851   5.763  0.3939 -0.4622 -0.1239
  176SLPC   H7X20005   6.548   1.812   5.760  1.8155  2.9629  0.4729
  176SLPC   H7Y20006   6.451   1.959   5.740  1.0641 -0.0592  1.8285
  176SLPC   C3820007   6.360   1.790   5.655  0.3806  0.6020 -1.2874
  176SLPC   H8X20008   6.254   1.820   5.666  0.1966 -0.0512 -1.2243
  176SLPC   H8Y20009   6.346   1.681   5.671 -3.5384  1.1249 -0.1093
  176SLPC   C3920010   6.398   1.826   5.519  0.0519 -0.2963  0.7304
  176SLPC   H9X20011   6.495   1.780   5.490  0.5808 -0.2279  2.2948
  176SLPC   H9Y20012   6.415   1.936   5.513  0.7253 -0.3232  1.7448
  176SLPC  C31020013   6.302   1.777   5.406 -0.9144  0.0757  0.4044
  176SLPC  H10X20014   6.281   1.672   5.437  1.8872 -0.6309  0.2267
  176SLPC  H10Y20015   6.357   1.758   5.312 -1.2738 -2.0849  0.5764
  176SLPC  C31120016   6.177   1.861   5.379  0.4897  0.3353 -0.1905
  176SLPC  H11X20017   6.200   1.968   5.396 -0.2685  0.9172 -2.4144
  176SLPC  H11Y20018   6.097   1.838   5.452 -0.3337  2.5136 -0.3210
  176SLPC  C31220019   6.127   1.835   5.240 -0.6402 -0.3648  0.5492
  176SLPC  H12X20020   6.093   1.731   5.221  2.1265 -1.0663 -1.1853
  176SLPC  H12Y20021   6.209   1.854   5.168 -0.5711  1.4239  1.0626
  176SLPC  C31320022   6.021   1.938   5.191  0.3313  0.3536  0.7594
  176SLPC  H13X20023   5.972   1.978   5.282 -3.3017 -2.8983  0.5063
  176SLPC  H13Y20024   5.942   1.890   5.130 -0.6544  1.1882  1.3650
  176SLPC  C31420025   6.097   2.054   5.115 -0.0475 -0.1941 -0.1917
  176SLPC  H14X20026   6.148   2.010   5.026  2.6107 -1.2526  1.7092
  176SLPC  H14Y20027   6.183   2.090   5.176  0.0671 -0.4581 -0.1920
  176SLPC  C31520028   6.009   2.182   5.078  0.1575  0.2277 -0.2370
  176SLPC  H15X20029   5.914   2.157   5.026 -0.0044 -0.8166  0.5101
  176SLPC  H15Y20030   6.069   2.235   5.001  1.6217 -3.4311 -1.8476
  176SLPC  C31620031   5.976   2.271   5.197 -0.2474  0.4617 -0.5989
  176SLPC  H16X20032   6.061   2.314   5.255 -0.7852 -0.2504  0.7703
  176SLPC  H16Y20033   5.915   2.209   5.266 -0.9238 -0.5236 -2.0457
  176SLPC  C31720034   5.887   2.387   5.164  0.3392  0.2520  0.0335
  176SLPC  H17X20035   5.782   2.354   5.144  0.1823  0.5588  0.3534
  176SLPC  H17Y20036   5.927   2.443   5.077  0.5927  0.3568  0.2180
  176SLPC  C31820037   5.878   2.482   5.282 -0.6445  0.0249 -0.1284
  176SLPC  H18X20038   5.983   2.517   5.297 -0.3755 -0.6842 -0.3011
  176SLPC  H18Y20039   5.848   2.436   5.379  0.3861 -0.1170  0.1407
  176SLPC  H18Z20040   5.806   2.565   5.268 -0.4828  0.4271  1.2509
  177SLPC     N20041   6.716   4.999   7.505 -0.2384  0.1815 -0.3292
  177SLPC   C1320042   6.831   5.068   7.451  0.2721  0.2849  0.2469
  177SLPC  H13A20043   6.911   5.005   7.417 -2.4499 -3.8271  0.7821
  177SLPC  H13B20044   6.796   5.111   7.359  0.3554 -1.3826 -0.5946
  177SLPC  H13C20045   6.861   5.150   7.515 -1.6157  0.9671  0.3382
  177SLPC   C1420046   6.741   4.942   7.640 -0.4408 -0.4507  0.0682
  177SLPC  H14A20047   6.832   4.882   7.645  0.6842  1.2865  2.6066
  177SLPC  H14B20048   6.756   5.019   7.714 -1.5159 -0.2463  0.0825
  177SLPC  H14C20049   6.657   4.881   7.670 -0.6852  0.2083  0.7520
  177SLPC   C1520050   6.685   4.878   7.413  0.5103  0.5144 -0.3105
  177SLPC  H15A20051   6.741   4.788   7.433  2.0181  1.0438 -1.8518
  177SLPC  H15B20052   6.581   4.857   7.428  0.9661 -0.9882  1.0566
  177SLPC  H15C20053   6.710   4.904   7.311  0.0970  0.1329 -0.5079
  177SLPC   C1220054   6.598   5.096   7.503 -0.7346 -0.0633  0.7981
  177SLPC  H12A20055   6.577   5.122   7.400  0.6606 -1.6732  0.0729
  177SLPC  H12B20056   6.625   5.196   7.536 -1.9406  0.1351  1.2104
  177SLPC   C1120057   6.465   5.050   7.570  0.2791 -0.4235  0.3684
  177SLPC  H11A20058   6.391   5.133   7.578  1.3002  0.5508 -0.0224
  177SLPC  H11B20059   6.491   5.012   7.670 -0.8390 -2.9414 -0.2274
  177SLPC     P20060   6.354   4.937   7.350 -0.3312  0.0633  0.1772
  177SLPC   O1320061   6.431   4.833   7.275 -0.4892 -0.5035 -0.3801
  177SLPC   O1420062   6.207   4.927   7.358  0.2325  0.5585 -0.4033
  177SLPC   O1220063   6.406   4.947   7.492 -0.5719 -0.0417 -0.1569
  177SLPC   O1120064   6.385   5.085   7.298 -1.0356  0.0023  0.4460
  177SLPC    C120065   6.475   5.117   7.192 -0.0701 -1.3250 -1.1597
  177SLPC    HA20066   6.522   5.214   7.218  1.0340 -1.7141 -1.6426
  177SLPC    HB20067   6.555   5.041   7.177  1.6502  0.2133 -0.2322
  177SLPC    C220068   6.404   5.136   7.056 -0.4059  0.0081  0.3708
  177SLPC    HS20069   6.333   5.219   7.078  0.7269  1.0819  0.1259
  177SLPC   O2120070   6.342   5.011   7.026  0.0355 -0.0400 -0.6248
  177SLPC   C2120071   6.210   5.016   7.007 -0.0124 -1.0800  0.2156
  177SLPC   O2220072   6.147   5.116   6.988  0.1852 -0.1424  0.5324
  177SLPC   C2220073   6.159   4.880   7.012  0.3115  0.7682  0.4786
  177SLPC   H2R20074   6.241   4.811   6.983 -0.0087  0.3413  0.5921
  177SLPC   H2S20075   6.113   4.875   7.112  1.1847  2.1252  0.9854
  177SLPC    C320076   6.492   5.193   6.939 -0.4003 -0.2063 -0.1741
  177SLPC    HX20077   6.576   5.122   6.924 -1.1458 -0.7643 -1.8425
  177SLPC    HY20078   6.524   5.295   6.972 -2.5454  1.2321 -2.1815
  177SLPC   O3120079   6.403   5.206   6.831  0.5585  0.7368  0.3897
  177SLPC   C3120080   6.439   5.135   6.726  0.1912  0.3180 -0.4393
  177SLPC   O3220081   6.546   5.089   6.704  0.3015  0.0753 -0.0205
  177SLPC   C3220082   6.308   5.146   6.638  0.2504  0.2125 -0.0518
  177SLPC   H2X20083   6.290   5.253   6.613 -3.9925 -0.5942 -1.2681
  177SLPC   H2Y20084   6.222   5.118   6.702  0.2097  0.5055  0.0252
  177SLPC   C2320085   6.039   4.842   6.907 -0.4124  1.0330 -0.0741
  177SLPC   H3R20086   5.955   4.914   6.903 -0.3128  1.4819  3.3885
  177SLPC   H3S20087   5.996   4.749   6.949 -0.4950  0.6029 -1.0787
  177SLPC   C2420088   6.087   4.815   6.772  0.2693 -0.1878  0.0052
  177SLPC   H4R20089   6.178   4.751   6.775  1.1849  1.0148 -1.0124
  177SLPC   H4S20090   6.110   4.917   6.734 -1.9152  0.7900  1.1154
  177SLPC   C2520091   5.988   4.737   6.686  0.0768 -0.2697 -0.3548
  177SLPC   H5R20092   5.914   4.816   6.663  0.7217  0.6057  0.4888
  177SLPC   H5S20093   5.938   4.650   6.734 -0.2629  0.2164  0.1856
  177SLPC   C2620094   6.051   4.676   6.559  0.1768 -0.8747  0.2117
  177SLPC   H6R20095   6.089   4.573   6.577  0.6539 -0.9542 -1.1288
  177SLPC   H6S20096   6.135   4.736   6.519  1.2764 -1.2971  1.8180
  177SLPC   C2720097   5.943   4.667   6.448  0.0831 -0.3359 -0.8139
  177SLPC   H7R20098   5.897   4.765   6.421 -3.2666 -1.4262  0.5125
  177SLPC   H7S20099   5.871   4.592   6.488  2.4008 -1.6048  1.2786
  177SLPC   C2820100   6.006   4.621   6.321 -0.5226 -0.1661  0.3253
  177SLPC   H8R20101   6.062   4.525   6.327 -0.1822  0.0494  0.6613
  177SLPC   H8S20102   6.078   4.697   6.282 -0.1771  0.2861  1.7936
  177SLPC   C2920103   5.901   4.605   6.205  0.0303 -0.0535 -0.2282
  177SLPC   H9R20104   5.820   4.532   6.222 -0.3640  0.2139 -0.9230
  177SLPC  C21020105   5.890   4.684   6.095 -0.3404 -0.2586 -0.2410
  177SLPC  H10R20106   5.803   4.664   6.031 -0.1294  1.0070 -0.9420
  177SLPC  C21120107   5.987   4.785   6.037 -0.7898  0.5649 -0.3811
  177SLPC  H11R20108   6.088   4.767   6.079 -0.8617  0.4121 -0.2723
  177SLPC  H11S20109   5.967   4.889   6.069  0.0218  0.4087  0.7053
  177SLPC  C21220110   6.006   4.767   5.887 -0.2603 -0.2136  0.1233
  177SLPC  H12R20111   6.094   4.714   5.849  0.3937  0.9032  0.0270
  177SLPC  C21320112   5.933   4.822   5.785 -0.3437  0.0201 -0.5380
  177SLPC  H13R20113   5.961   4.812   5.679 -1.8854 -0.8121 -0.8998
  177SLPC  C21420114   5.810   4.898   5.816  0.2194 -0.7002 -0.6163
  177SLPC  H14R20115   5.770   4.875   5.917  0.5339  0.9463 -0.0786
  177SLPC  H14S20116   5.733   4.870   5.740  0.3819  0.3725 -1.1968
  177SLPC  C21520117   5.836   5.052   5.818  0.0671  0.3986 -0.0784
  177SLPC  H15R20118   5.915   5.082   5.889  1.0453  0.6791 -1.2652
  177SLPC  H15S20119   5.746   5.102   5.859 -0.2241  0.2510 -0.5232
  177SLPC  C21620120   5.875   5.104   5.676 -0.0373  0.2052  0.0348
  177SLPC  H16R20121   5.976   5.068   5.646 -1.6101 -0.7940 -5.2166
  177SLPC  H16S20122   5.882   5.215   5.679  0.3233  0.3030 -2.3748
  177SLPC  C21720123   5.781   5.085   5.553 -0.1567 -0.0036  0.1058
  177SLPC  H17R20124   5.681   5.127   5.576  1.6313  3.2086  2.8234
  177SLPC  H17S20125   5.766   4.976   5.537 -0.9747 -0.3153  2.5450
  177SLPC  C21820126   5.831   5.145   5.423  0.5903 -0.0096 -0.4811
  177SLPC  H18R20127   5.930   5.100   5.401  0.4610 -0.5173 -0.0316
  177SLPC  H18S20128   5.833   5.254   5.400  1.7730 -0.1080 -0.8886
  177SLPC  H18T20129   5.760   5.129   5.338 -2.6503  2.9161  1.3968
  177SLPC   C3320130   6.310   5.070   6.504 -0.2460 -0.3393 -0.2212
  177SLPC   H3X20131   6.203   5.048   6.486 -0.1509 -1.5814  0.5758
  177SLPC   H3Y20132   6.362   4.972   6.498 -1.9410 -1.4621  2.0689
  177SLPC   C3420133   6.371   5.164   6.399 -0.3128 -0.3200  0.5704
  177SLPC   H4X20134   6.473   5.189   6.434 -0.3012 -0.5049  0.6698
  177SLPC   H4Y20135   6.306   5.254   6.401  3.1339  2.4418 -1.1450
  177SLPC   C3520136   6.365   5.099   6.263 -0.2506  0.2046 -0.0865
  177SLPC   H5X20137   6.274   5.037   6.246 -0.0756  0.2079 -1.1025
  177SLPC   H5Y20138   6.450   5.028   6.254  0.9758  1.5034  0.7895
  177SLPC   C3620139   6.377   5.204   6.151 -0.1447  0.4385 -0.0996
  177SLPC   H6X20140   6.478   5.249   6.154  0.9301 -1.8359  0.2551
  177SLPC   H6Y20141   6.300   5.281   6.173  1.4254  2.1667 -0.4015
  177SLPC   C3720142   6.343   5.144   6.010  0.1525 -1.0041 -0.0569
  177SLPC   H7X20143   6.258   5.072   6.006  0.4257 -1.3533  0.3420
  177SLPC   H7Y20144   6.430   5.090   5.966  0.1957 -0.4733 -0.6373
  177SLPC   C3820145   6.321   5.256   5.906  0.0847 -0.3710 -0.0098
  177SLPC   H8X20146   6.418   5.309   5.895  0.3483 -1.1771 -1.8946
  177SLPC   H8Y20147   6.253   5.328   5.957  0.2279  0.7199 -1.3107
  177SLPC   C3920148   6.275   5.214   5.770 -0.0315  0.1179 -0.5432
  177SLPC   H9X20149   6.176   5.164   5.782  0.7844 -2.0901 -2.3671
  177SLPC   H9Y20150   6.333   5.127   5.734 -1.8006 -1.5964  0.5290
  177SLPC  C31020151   6.267   5.325   5.661 -0.0005 -0.4594 -0.0902
  177SLPC  H10X20152   6.374   5.348   5.645  0.0378  1.3792  2.2348
  177SLPC  H10Y20153   6.215   5.417   5.698  1.4720  0.4599 -0.2168
  177SLPC  C31120154   6.214   5.284   5.530  0.2835  0.1905  0.7176
  177SLPC  H11X20155   6.215   5.371   5.461 -6.4722 -0.0182 -0.3832
  177SLPC  H11Y20156   6.103   5.275   5.526  0.2296 -0.7840  2.8456
  177SLPC  C31220157   6.277   5.165   5.461  0.6273 -0.0747 -0.3699
  177SLPC  H12X20158   6.229   5.079   5.511  3.4039 -0.1445  2.4310
  177SLPC  H12Y20159   6.384   5.149   5.488  0.3344 -1.8091 -0.1447
  177SLPC  C31320160   6.256   5.160   5.305 -0.0544  0.0117 -0.6033
  177SLPC  H13X20161   6.305   5.244   5.252  0.3651  0.1148 -0.0516
  177SLPC  H13Y20162   6.146   5.173   5.294 -0.0064  1.3187  0.3212
  177SLPC  C31420163   6.282   5.019   5.242  0.2350 -0.4815  0.8191
  177SLPC  H14X20164   6.388   4.987   5.250  0.3451 -0.0012  1.3605
  177SLPC  H14Y20165   6.249   5.034   5.137  1.5943 -1.8886  0.1385
  177SLPC  C31520166   6.209   4.895   5.308 -0.0334 -0.4431  0.5940
  177SLPC  H15X20167   6.101   4.918   5.296  0.4150  1.1613 -0.7352
  177SLPC  H15Y20168   6.240   4.893   5.415 -1.1548 -0.2662  0.9288
  177SLPC  C31620169   6.246   4.766   5.235 -0.5026 -0.1580 -0.1216
  177SLPC  H16X20170   6.351   4.735   5.254 -0.3419  0.2602 -0.3173
  177SLPC  H16Y20171   6.236   4.792   5.127  0.8658 -1.3017 -0.5469
  177SLPC  C31720172   6.171   4.645   5.276  0.0702  0.4705 -0.4649
  177SLPC  H17X20173   6.205   4.558   5.215  1.2246  0.5752 -0.0047
  177SLPC  H17Y20174   6.064   4.667   5.260 -0.0413 -1.0473 -2.1552
  177SLPC  C31820175   6.166   4.604   5.419 -0.4070  0.1285  0.4072
  177SLPC  H18X20176   6.112   4.508   5.428  1.0659 -0.5453  3.4581
  177SLPC  H18Y20177   6.112   4.680   5.481 -1.6373 -1.2101  1.0229
  177SLPC  H18Z20178   6.270   4.594   5.457  0.1061  1.2281 -0.6421
  178SLPC     N20179   4.357   0.713   7.960 -0.2258 -1.0657 -0.1887
  178SLPC   C1320180   4.507   0.701   7.949 -0.1659 -0.0621  0.0319
  178SLPC  H13A20181   4.537   0.738   7.853 -0.4052  0.5583  0.1934
  178SLPC  H13B20182   4.566   0.756   8.022 -0.7511  0.1917  0.3221
  178SLPC  H13C20183   4.546   0.602   7.965  1.0463  0.7684  2.9896
  178SLPC   C1420184   4.321   0.864   7.971  1.0740 -1.0079 -0.1646
  178SLPC  H14A20185   4.215   0.876   7.961  1.0840 -1.3948 -0.8033
  178SLPC  H14B20186   4.348   0.893   8.072 -1.2685 -3.4506  1.2755
  178SLPC  H14C20187   4.360   0.931   7.895  0.3807 -1.1137 -0.6175
  178SLPC   C1520188   4.315   0.647   8.085  0.2779  0.4203  0.6950
  178SLPC  H15A20189   4.383   0.671   8.166  0.1320 -2.7006  1.8673
  178SLPC  H15B20190   4.218   0.689   8.109 -0.9037 -1.0436 -1.3117
  178SLPC  H15C20191   4.304   0.541   8.075 -1.3427  0.7014 -1.1527
  178SLPC   C1220192   4.291   0.652   7.845  0.3252  0.7034  0.2237
  178SLPC  H12A20193   4.186   0.640   7.865  0.8352 -5.2302  1.3699
  178SLPC  H12B20194   4.340   0.557   7.828 -0.1228  0.3153  1.0087
  178SLPC   C1120195   4.299   0.736   7.718  0.4225  0.3189  0.0974
  178SLPC  H11A20196   4.239   0.828   7.734 -1.2437 -0.7486  0.2210
  178SLPC  H11B20197   4.244   0.681   7.639  2.6579  0.0376 -1.3430
  178SLPC     P20198   4.505   0.667   7.571  0.2820  0.4007 -0.3863
  178SLPC   O1320199   4.649   0.700   7.574 -0.0894  0.5655 -0.0957
  178SLPC   O1420200   4.467   0.529   7.611 -0.3195 -0.2324  0.2943
  178SLPC   O1220201   4.433   0.768   7.666  0.0508  0.0917 -0.2822
  178SLPC   O1120202   4.450   0.707   7.427  0.3019  0.4855  0.1271
  178SLPC    C120203   4.380   0.826   7.395  0.0333  0.0000 -0.0049
  178SLPC    HA20204   4.310   0.854   7.477 -0.0057 -0.6909  0.2058
  178SLPC    HB20205   4.457   0.907   7.402  0.4541 -0.4863  1.5718
  178SLPC    C220206   4.302   0.824   7.262  0.0455 -0.4164 -0.3266
  178SLPC    HS20207   4.210   0.764   7.279 -0.6168  0.9732  1.3415
  178SLPC   O2120208   4.380   0.763   7.157  0.1983 -0.8790 -0.4064
  178SLPC   C2120209   4.384   0.632   7.162 -0.2865 -0.1325  0.0303
  178SLPC   O2220210   4.296   0.562   7.195  0.4598  0.4865 -1.1784
  178SLPC   C2220211   4.521   0.585   7.109 -0.5991 -0.2598 -0.4626
  178SLPC   H2R20212   4.586   0.674   7.095 -0.7422  0.3164  2.0666
  178SLPC   H2S20213   4.566   0.555   7.206  1.3823  4.4522  0.3671
  178SLPC    C320214   4.262   0.967   7.223  0.0616 -0.6086 -0.6145
  178SLPC    HX20215   4.354   1.029   7.220 -0.1014 -0.3897 -1.3855
  178SLPC    HY20216   4.203   1.026   7.296 -1.6141 -0.3792 -2.0757
  178SLPC   O3120217   4.192   0.986   7.101 -0.6685  0.2548 -0.4644
  178SLPC   C3120218   4.273   0.990   6.995  0.3760  0.2005  0.2550
  178SLPC   O3220219   4.392   0.962   6.990 -0.0503 -0.0513 -0.2540
  178SLPC   C3220220   4.190   1.040   6.873 -0.1205  0.3478 -0.2782
  178SLPC   H2X20221   4.160   1.145   6.888 -2.3624 -0.2575 -0.2193
  178SLPC   H2Y20222   4.099   0.976   6.869  0.3435 -0.3161 -0.5152
  178SLPC   C2320223   4.520   0.485   6.991  0.5750 -1.3793 -0.0786
  178SLPC   H3R20224   4.481   0.383   7.015  0.3443 -0.9028  1.7185
  178SLPC   H3S20225   4.623   0.468   6.952  1.8873 -0.3822  2.7136
  178SLPC   C2420226   4.435   0.533   6.870 -0.4053 -0.7023  0.3208
  178SLPC   H4R20227   4.329   0.549   6.898 -1.1192 -2.0901 -1.4460
  178SLPC   H4S20228   4.450   0.455   6.792  1.9777 -0.2430  0.2309
  178SLPC   C2520229   4.500   0.660   6.814  0.1597 -0.7522  0.0669
  178SLPC   H5R20230   4.610   0.656   6.832  0.2978  0.3735 -0.3832
  178SLPC   H5S20231   4.456   0.745   6.870  1.0408  1.5955 -2.5083
  178SLPC   C2620232   4.469   0.705   6.666 -0.2563  0.0226 -0.7113
  178SLPC   H6R20233   4.522   0.800   6.648 -0.5481  0.6472  1.4630
  178SLPC   H6S20234   4.358   0.716   6.663 -0.4016 -1.3805 -1.6550
  178SLPC   C2720235   4.511   0.598   6.564  0.2161  0.6175 -0.9403
  178SLPC   H7R20236   4.442   0.511   6.566  1.5283 -0.4839 -1.7912
  178SLPC   H7S20237   4.612   0.564   6.596 -0.1700 -0.8701 -1.2096
  178SLPC   C2820238   4.510   0.650   6.422  0.4161  0.0647  0.3710
  178SLPC   H8R20239   4.579   0.736   6.415  1.1778 -0.3606  2.1157
  178SLPC   H8S20240   4.413   0.700   6.400  0.3533 -0.4092 -0.4711
  178SLPC   C2920241   4.551   0.548   6.321 -0.8334 -0.7285 -0.5008
  178SLPC   H9R20242   4.657   0.520   6.323 -1.0079 -1.5899 -1.6972
  178SLPC  C21020243   4.471   0.516   6.219  0.0001  0.8660  0.0971
  178SLPC  H10R20244   4.507   0.444   6.144  2.6262 -0.9192  2.8635
  178SLPC  C21120245   4.325   0.548   6.218  0.3069 -0.1640  0.5087
  178SLPC  H11R20246   4.307   0.650   6.177 -0.7854 -0.9941 -1.1559
  178SLPC  H11S20247   4.296   0.540   6.325  2.4711 -0.9428  1.0831
  178SLPC  C21220248   4.244   0.445   6.138 -0.0562 -0.7273 -0.7677
  178SLPC  H12R20249   4.186   0.372   6.197 -2.2360  0.1297 -1.7335
  178SLPC  C21320250   4.224   0.446   6.004 -0.4774 -0.1722 -0.3805
  178SLPC  H13R20251   4.157   0.369   5.963 -0.4975  0.0117 -0.7025
  178SLPC  C21420252   4.284   0.548   5.909  0.1386 -0.3763 -0.8012
  178SLPC  H14R20253   4.310   0.646   5.952  0.4825 -1.0580  0.6116
  178SLPC  H14S20254   4.221   0.570   5.820 -3.5349 -2.9775  0.8568
  178SLPC  C21520255   4.425   0.499   5.862 -0.2911 -0.5901 -0.0645
  178SLPC  H15R20256   4.408   0.401   5.813 -0.8452 -1.3298  1.5534
  178SLPC  H15S20257   4.502   0.483   5.940 -2.6163 -0.0054  2.4993
  178SLPC  C21620258   4.498   0.594   5.765 -0.2335  0.0336  0.1164
  178SLPC  H16R20259   4.511   0.695   5.811 -3.1259  1.2849 -1.5441
  178SLPC  H16S20260   4.433   0.618   5.678  0.5198  1.0153 -0.2063
  178SLPC  C21720261   4.630   0.539   5.703  0.5669 -0.4302 -0.3050
  178SLPC  H17R20262   4.602   0.474   5.618 -1.9992 -0.5163  0.5123
  178SLPC  H17S20263   4.692   0.483   5.776  0.7882  1.5245  1.0928
  178SLPC  C21820264   4.703   0.648   5.626  0.1905  0.5641  0.5070
  178SLPC  H18R20265   4.719   0.725   5.705 -0.4366  0.3813  0.8195
  178SLPC  H18S20266   4.626   0.696   5.562 -1.5638 -1.3460  1.0847
  178SLPC  H18T20267   4.802   0.625   5.580  0.1856 -0.2103  0.8832
  178SLPC   C3320268   4.269   1.023   6.751 -0.3495  0.0244  0.2673
  178SLPC   H3X20269   4.311   0.920   6.750  0.0966  0.1956 -1.3119
  178SLPC   H3Y20270   4.360   1.086   6.757  1.1056 -2.0191  0.6436
  178SLPC   C3420271   4.179   1.044   6.625 -0.3255 -0.3431 -0.3439
  178SLPC   H4X20272   4.137   1.146   6.626 -2.5425 -1.1963 -1.6075
  178SLPC   H4Y20273   4.093   0.974   6.622  0.0216 -0.7409 -1.5471
  178SLPC   C3520274   4.251   1.020   6.494 -0.3331  0.9543 -0.2665
  178SLPC   H5X20275   4.280   0.913   6.490 -1.3896  0.6297  0.2949
  178SLPC   H5Y20276   4.349   1.074   6.489  1.0985 -1.1552  2.6060
  178SLPC   C3620277   4.165   1.044   6.380 -0.4034 -0.5042  0.0847
  178SLPC   H6X20278   4.169   1.154   6.364  3.0098 -0.5990 -0.5998
  178SLPC   H6Y20279   4.068   1.000   6.410 -1.1759  0.3294 -1.1154
  178SLPC   C3720280   4.218   0.967   6.258 -0.2460  0.2025 -0.1450
  178SLPC   H7X20281   4.204   0.859   6.280 -1.8923  0.7309  1.7354
  178SLPC   H7Y20282   4.327   0.987   6.262 -0.0768 -0.7629  0.3431
  178SLPC   C3820283   4.150   1.001   6.130 -0.0830  0.5380  0.4105
  178SLPC   H8X20284   4.163   1.109   6.106  1.1075  0.1876 -0.6418
  178SLPC   H8Y20285   4.042   0.994   6.154  0.1568 -0.0097  1.3387
  178SLPC   C3920286   4.185   0.912   6.013 -0.1305 -1.1412 -0.3416
  178SLPC   H9X20287   4.124   0.818   6.015 -0.4768 -0.9104  0.1133
  178SLPC   H9Y20288   4.293   0.887   6.011  0.1675 -0.1469  1.3248
  178SLPC  C31020289   4.157   0.971   5.870 -0.6540 -0.7160  0.2293
  178SLPC  H10X20290   4.228   1.056   5.867  0.3956 -1.5244 -3.7670
  178SLPC  H10Y20291   4.056   1.015   5.857  1.1725  3.6611 -0.9948
  178SLPC  C31120292   4.207   0.884   5.746  0.3209 -0.3541  0.0332
  178SLPC  H11X20293   4.152   0.788   5.759  0.0625 -0.0963  0.8720
  178SLPC  H11Y20294   4.315   0.861   5.757  0.4653  0.8154  1.3304
  178SLPC  C31220295   4.166   0.947   5.610 -0.0264  0.1177  0.8285
  178SLPC  H12X20296   4.204   1.051   5.622 -1.3234  0.4277  2.6943
  178SLPC  H12Y20297   4.055   0.946   5.603 -0.0223 -3.4762 -0.7613
  178SLPC  C31320298   4.221   0.874   5.487 -0.1365 -1.1255  0.3702
  178SLPC  H13X20299   4.332   0.878   5.500 -0.2957 -1.4891  1.9784
  178SLPC  H13Y20300   4.197   0.932   5.396 -1.2849 -0.5208  1.0488
  178SLPC  C31420301   4.180   0.730   5.458 -0.1194 -0.0481  0.3116
  178SLPC  H14X20302   4.071   0.735   5.438 -0.4001  0.2316  1.7830
  178SLPC  H14Y20303   4.208   0.664   5.543 -1.4831  1.3925  1.9637
  178SLPC  C31520304   4.266   0.671   5.340  0.1922 -0.2619 -0.1746
  178SLPC  H15X20305   4.373   0.699   5.355  0.2203 -0.3850 -0.1443
  178SLPC  H15Y20306   4.246   0.734   5.251  1.3158  0.6018  0.1583
  178SLPC  C31620307   4.247   0.525   5.317 -1.0014  0.2482 -0.0442
  178SLPC  H16X20308   4.144   0.496   5.287 -0.9527  0.2893 -0.2528
  178SLPC  H16Y20309   4.259   0.473   5.415 -0.0046 -1.5958 -1.1008
  178SLPC  C31720310   4.348   0.457   5.225  0.1898 -0.5945  0.1995
  178SLPC  H17X20311   4.453   0.459   5.261  0.5559 -2.8352 -0.5725
  178SLPC  H17Y20312   4.343   0.497   5.121  0.0292  0.9212  0.7635
  178SLPC  C31820313   4.314   0.308   5.200 -0.3812  0.4043 -0.0536
  178SLPC  H18X20314   4.351   0.264   5.295  3.3917  2.3777 -0.3961
  178SLPC  H18Y20315   4.379   0.275   5.117 -1.1558  0.4596 -0.6903
  178SLPC  H18Z20316   4.209   0.291   5.169 -0.0381  0.7057 -1.4476
  179SLPC     N20317   4.636   1.804   2.199  0.5206  0.4053 -0.2168
  179SLPC   C1320318   4.703   1.705   2.110 -0.9087  0.6064 -0.2040
  179SLPC  H13A20319   4.796   1.678   2.158 -1.9636 -1.1169  0.9609
  179SLPC  H13B20320   4.650   1.612   2.099  1.7529 -0.7742 -2.2376
  179SLPC  H13C20321   4.706   1.740   2.008 -2.2673  0.8732 -0.1727
  179SLPC   C1420322   4.502   1.828   2.129  0.0179  0.5982  0.5018
  179SLPC  H14A20323   4.458   1.920   2.164  1.7087  1.5455  0.2496
  179SLPC  H14B20324   4.532   1.846   2.026  0.0714 -0.8806  0.2414
  179SLPC  H14C20325   4.431   1.749   2.144  0.6008 -0.1699 -0.6469
  179SLPC   C1520326   4.723   1.919   2.204  0.0111  0.0524 -0.3800
  179SLPC  H15A20327   4.689   2.002   2.264 -4.1452 -1.5504 -0.2207
  179SLPC  H15B20328   4.821   1.885   2.234 -0.7724 -1.8344  0.2119
  179SLPC  H15C20329   4.744   1.968   2.110 -0.2845 -0.4466 -0.7139
  179SLPC   C1220330   4.618   1.744   2.344 -0.0338 -0.2356  0.5153
  179SLPC  H12A20331   4.552   1.661   2.324  0.4560 -0.6119  0.4535
  179SLPC  H12B20332   4.551   1.814   2.392  0.4762  0.7634 -0.2046
  179SLPC   C1120333   4.735   1.703   2.429  0.3852 -0.0891 -0.3910
  179SLPC  H11A20334   4.704   1.669   2.530 -0.3849  3.2606  0.6303
  179SLPC  H11B20335   4.810   1.783   2.445  3.4597 -2.1943 -2.9589
  179SLPC     P20336   4.770   1.440   2.389 -0.1774  0.0378 -0.4669
  179SLPC   O1320337   4.627   1.416   2.390 -0.1938  0.5181  0.0475
  179SLPC   O1420338   4.851   1.361   2.291 -0.3791  0.2245 -0.3451
  179SLPC   O1220339   4.808   1.597   2.360  0.3254  0.3738 -0.5833
  179SLPC   O1120340   4.833   1.429   2.534 -0.4352  0.3020 -0.0545
  179SLPC    C120341   4.978   1.422   2.534 -0.5115 -0.3722 -0.1137
  179SLPC    HA20342   5.016   1.339   2.471 -0.2275  2.3110 -3.7919
  179SLPC    HB20343   5.027   1.510   2.488  0.9805 -1.8262 -1.4273
  179SLPC    C220344   5.030   1.407   2.680 -0.1126 -0.5358  0.0314
  179SLPC    HS20345   4.979   1.318   2.723  1.8611 -1.6752  0.1519
  179SLPC   O2120346   5.010   1.526   2.753 -0.4994  0.3262  0.0066
  179SLPC   C2120347   4.898   1.538   2.827 -0.8655  0.2612 -0.4526
  179SLPC   O2220348   4.808   1.462   2.826 -0.1591  0.1983 -0.2654
  179SLPC   C2220349   4.900   1.679   2.893  0.1950 -0.3132 -0.2234
  179SLPC   H2R20350   4.945   1.739   2.811  1.7459 -2.4106 -1.0087
  179SLPC   H2S20351   4.796   1.710   2.916  1.0145  1.7455  0.9018
  179SLPC    C320352   5.182   1.368   2.688  0.3255  0.6917  0.5527
  179SLPC    HX20353   5.236   1.437   2.620 -0.0263 -0.5539 -1.0562
  179SLPC    HY20354   5.192   1.266   2.645  0.3427  0.5931  0.7879
  179SLPC   O3120355   5.240   1.373   2.810 -0.2908 -0.0508  0.2481
  179SLPC   C3120356   5.218   1.277   2.895 -0.5636  0.7366 -0.3576
  179SLPC   O3220357   5.151   1.178   2.878 -0.0379 -0.1301  0.3733
  179SLPC   C3220358   5.289   1.325   3.030  0.6078  0.1373 -0.1717
  179SLPC   H2X20359   5.241   1.421   3.058 -1.8726 -0.5555 -1.6450
  179SLPC   H2Y20360   5.397   1.330   3.005  0.4239 -1.9516 -1.6297
  179SLPC   C2320361   5.000   1.683   3.013 -0.3124 -0.1805  0.3108
  179SLPC   H3R20362   5.030   1.789   3.026 -0.8170 -0.1414  1.2221
  179SLPC   H3S20363   5.094   1.641   2.972  1.0113  0.1925  2.7394
  179SLPC   C2420364   4.968   1.624   3.147  0.3819  0.8237  0.0957
  179SLPC   H4R20365   4.968   1.514   3.134  1.7073  0.7337  0.7147
  179SLPC   H4S20366   4.870   1.667   3.177 -0.1397 -0.3435  0.1237
  179SLPC   C2520367   5.046   1.660   3.274 -0.6076  0.5558 -0.2936
  179SLPC   H5R20368   5.052   1.770   3.288 -1.5543  0.5678  0.1317
  179SLPC   H5S20369   5.147   1.618   3.257 -0.9852 -0.5652  0.1360
  179SLPC   C2620370   4.983   1.598   3.395  0.1023 -0.9324  0.2087
  179SLPC   H6R20371   4.967   1.494   3.360  0.8267 -1.2357  0.7723
  179SLPC   H6S20372   4.887   1.643   3.428 -0.4225 -1.5521 -0.4365
  179SLPC   C2720373   5.080   1.600   3.515 -0.1219 -0.8403  0.2900
  179SLPC   H7R20374   5.098   1.708   3.534 -1.3011 -1.0437  3.1699
  179SLPC   H7S20375   5.173   1.548   3.486  1.4364  0.2214  3.0017
  179SLPC   C2820376   5.037   1.528   3.643  0.3135 -0.2077 -0.6869
  179SLPC   H8R20377   5.132   1.516   3.698  0.6284  0.6022 -1.0349
  179SLPC   H8S20378   5.007   1.425   3.613  2.5821 -1.5951  1.4759
  179SLPC   C2920379   4.924   1.595   3.723 -0.4567  0.1304  0.4242
  179SLPC   H9R20380   4.834   1.624   3.668  0.9839  0.1432 -2.0599
  179SLPC  C21020381   4.929   1.632   3.847 -0.0987  0.4261 -0.1127
  179SLPC  H10R20382   4.846   1.695   3.882  0.2086  1.6572 -1.4710
  179SLPC  C21120383   5.038   1.590   3.942  0.0945  0.1098 -0.4835
  179SLPC  H11R20384   5.116   1.669   3.938 -0.0778  0.2333 -1.9142
  179SLPC  H11S20385   5.095   1.499   3.915  0.1753 -0.1643  0.5418
  179SLPC  C21220386   4.978   1.562   4.081  0.2565 -0.2095  0.1855
  179SLPC  H12R20387   4.942   1.461   4.101  0.8294 -0.5373 -0.4036
  179SLPC  C21320388   4.954   1.648   4.177  0.2352 -0.5480  0.6861
  179SLPC  H13R20389   4.897   1.607   4.262 -0.3119 -1.8794 -0.2887
  179SLPC  C21420390   5.005   1.793   4.194 -0.2662  0.2491  0.0847
  179SLPC  H14R20391   4.923   1.847   4.245 -2.0107 -1.7342 -0.4724
  179SLPC  H14S20392   5.020   1.836   4.093 -0.1411  0.5482  0.2312
  179SLPC  C21520393   5.140   1.806   4.267  0.1265  0.0595  1.1086
  179SLPC  H15R20394   5.221   1.775   4.198 -2.3340 -1.6115 -1.2186
  179SLPC  H15S20395   5.141   1.731   4.348 -1.6681 -0.7381  0.4489
  179SLPC  C21620396   5.172   1.941   4.328 -0.2187 -0.3575  0.4655
  179SLPC  H16R20397   5.086   1.969   4.392  0.2459 -1.0867  1.4193
  179SLPC  H16S20398   5.195   2.009   4.243 -0.1273 -1.1143 -0.1226
  179SLPC  C21720399   5.300   1.949   4.412 -0.1206 -0.5946  0.4993
  179SLPC  H17R20400   5.331   2.054   4.424  0.7674 -0.8639  0.6075
  179SLPC  H17S20401   5.378   1.900   4.349 -1.0433  0.1265 -1.2951
  179SLPC  C21820402   5.282   1.888   4.551 -0.1311 -0.2747  0.0779
  179SLPC  H18R20403   5.201   1.942   4.605  0.2037 -0.2758  0.5857
  179SLPC  H18S20404   5.371   1.902   4.616  1.5343 -1.0088 -1.9357
  179SLPC  H18T20405   5.253   1.780   4.545  0.4618 -0.6277  2.5744
  179SLPC   C3320406   5.269   1.216   3.137  0.3166  0.0107 -0.0163
  179SLPC   H3X20407   5.338   1.130   3.126  0.0399 -0.2319  0.1263
  179SLPC   H3Y20408   5.165   1.177   3.134 -0.1872  1.1269  1.5488
  179SLPC   C3420409   5.285   1.273   3.279 -0.3930  0.1526  0.2356
  179SLPC   H4X20410   5.217   1.359   3.300  0.1436  0.8326 -0.7452
  179SLPC   H4Y20411   5.385   1.321   3.284 -0.5802  0.4955  0.7762
  179SLPC   C3520412   5.270   1.159   3.377  0.0208  0.5316  0.2117
  179SLPC   H5X20413   5.173   1.108   3.358  1.1980 -1.2723 -1.2579
  179SLPC   H5Y20414   5.345   1.078   3.364  1.0587  1.4531  0.3223
  179SLPC   C3620415   5.277   1.207   3.524 -0.0909  0.7150  0.5660
  179SLPC   H6X20416   5.178   1.256   3.532 -1.0156 -0.9419 -0.2865
  179SLPC   H6Y20417   5.366   1.272   3.536 -0.5357  1.1799  1.4727
  179SLPC   C3720418   5.289   1.088   3.623  0.1895  0.2301  0.2426
  179SLPC   H7X20419   5.387   1.042   3.597 -0.8710 -0.5860 -2.8013
  179SLPC   H7Y20420   5.219   1.004   3.602  1.3665 -1.5680  2.9244
  179SLPC   C3820421   5.287   1.141   3.774 -0.4561  0.9376 -0.6665
  179SLPC   H8X20422   5.211   1.220   3.792 -0.0831  0.7047  2.4685
  179SLPC   H8Y20423   5.388   1.184   3.795 -0.1529 -1.2410  3.2017
  179SLPC   C3920424   5.276   1.027   3.872 -0.1337 -0.2226  0.1636
  179SLPC   H9X20425   5.368   0.966   3.857  0.7476  1.1875 -0.4987
  179SLPC   H9Y20426   5.183   0.969   3.855  0.2291 -0.6749 -0.3107
  179SLPC  C31020427   5.278   1.071   4.017  0.0259 -0.0415  0.9844
  179SLPC  H10X20428   5.368   1.135   4.033  1.6267 -1.7662 -0.6508
  179SLPC  H10Y20429   5.303   0.977   4.071 -0.1016 -1.1716 -0.8652
  179SLPC  C31120430   5.162   1.141   4.084  0.1537 -0.0815  0.6484
  179SLPC  H11X20431   5.072   1.077   4.081 -0.6270  0.9729  1.0416
  179SLPC  H11Y20432   5.138   1.235   4.030  0.6584 -0.9898 -1.2864
  179SLPC  C31220433   5.184   1.183   4.232  0.2808 -0.4486 -0.4831
  179SLPC  H12X20434   5.105   1.256   4.257  0.7898 -0.3366  0.8975
  179SLPC  H12Y20435   5.280   1.238   4.238 -0.9230  1.7739 -0.5084
  179SLPC  C31320436   5.168   1.072   4.334  0.6924 -0.0146  0.3579
  179SLPC  H13X20437   5.262   1.018   4.359  0.3172 -0.8559 -0.0038
  179SLPC  H13Y20438   5.092   1.004   4.290 -1.2217  3.5816 -2.3693
  179SLPC  C31420439   5.115   1.122   4.475 -0.3403 -0.7984  0.2282
  179SLPC  H14X20440   5.009   1.152   4.473  0.5283  2.6651 -1.8310
  179SLPC  H14Y20441   5.179   1.211   4.492 -0.7458 -0.1264 -1.4977
  179SLPC  C31520442   5.133   1.012   4.582  0.0440  0.3107 -0.6405
  179SLPC  H15X20443   5.241   0.986   4.578 -0.4406 -1.8311 -1.2224
  179SLPC  H15Y20444   5.071   0.923   4.556  0.6044 -0.3675  0.2739
  179SLPC  C31620445   5.106   1.055   4.724  0.2526 -0.3176 -0.1273
  179SLPC  H16X20446   4.998   1.077   4.737  0.2022 -0.6375 -0.0199
  179SLPC  H16Y20447   5.164   1.148   4.746  0.1350 -0.7501  2.1490
  179SLPC  C31720448   5.138   0.951   4.828 -0.7204  0.6269  0.0769
  179SLPC  H17X20449   5.246   0.926   4.819 -0.9730 -0.5650  0.0696
  179SLPC  H17Y20450   5.085   0.853   4.823  3.1119 -1.6574 -0.1272
  179SLPC  C31820451   5.124   1.003   4.969 -0.0343  0.1687  0.0996
  179SLPC  H18X20452   5.169   0.933   5.042 -0.5320 -0.4903 -0.2119
  179SLPC  H18Y20453   5.020   0.995   5.008  0.1203 -0.4441  0.3875
  179SLPC  H18Z20454   5.154   1.108   4.990 -2.5149  0.3952  3.3944
  180SLPC     N20455   3.414   1.297   2.495 -0.3793 -0.6395  0.3334
  180SLPC   C1320456   3.515   1.376   2.433 -0.0926  0.7157 -0.1675
  180SLPC  H13A20457   3.616   1.354   2.466 -0.1856  0.8983  0.2411
  180SLPC  H13B20458   3.514   1.361   2.326 -0.0744  2.3861 -0.4217
  180SLPC  H13C20459   3.489   1.478   2.457 -1.3086  0.6621 -1.1569
  180SLPC   C1420460   3.444   1.153   2.460 -0.4586 -0.1838  0.3287
  180SLPC  H14A20461   3.426   1.088   2.544 -0.4116 -0.8221 -0.1410
  180SLPC  H14B20462   3.391   1.124   2.370 -1.0741  0.1251  0.5920
  180SLPC  H14C20463   3.551   1.139   2.448  0.2149  2.6593  2.1290
  180SLPC   C1520464   3.274   1.324   2.432  0.2587 -0.2174  0.0147
  180SLPC  H15A20465   3.228   1.416   2.464  0.3296  0.0544 -0.6511
  180SLPC  H15B20466   3.274   1.325   2.324  4.4081 -2.5193 -0.1915
  180SLPC  H15C20467   3.204   1.248   2.464  0.1029 -1.1726 -2.3392
  180SLPC   C1220468   3.412   1.311   2.644  0.5190  0.0346  0.0813
  180SLPC  H12A20469   3.503   1.271   2.687  0.1935 -0.4458  0.3337
  180SLPC  H12B20470   3.330   1.254   2.686 -1.2167  0.8836 -1.9581
  180SLPC   C1120471   3.396   1.456   2.700  0.7332  0.4640 -0.9092
  180SLPC  H11A20472   3.452   1.532   2.642  1.2179 -0.0520 -1.1334
  180SLPC  H11B20473   3.423   1.461   2.808 -3.8116 -1.0298  0.5137
  180SLPC     P20474   3.156   1.431   2.811 -0.2808 -0.0440 -0.0095
  180SLPC   O1320475   3.029   1.508   2.792  0.0797  0.3741  0.3395
  180SLPC   O1420476   3.161   1.283   2.798 -0.1642 -0.7585  0.3143
  180SLPC   O1220477   3.255   1.482   2.696 -0.0495 -0.2231 -0.5664
  180SLPC   O1120478   3.232   1.463   2.947  0.3411 -0.3331 -0.3946
  180SLPC    C120479   3.266   1.594   2.982  0.2109  0.0461 -0.1353
  180SLPC    HA20480   3.376   1.595   2.993  0.1575  0.1289  0.4027
  180SLPC    HB20481   3.250   1.675   2.908  1.5045  1.7899  1.4021
  180SLPC    C220482   3.212   1.634   3.124  0.9983 -0.4790 -0.7250
  180SLPC    HS20483   3.243   1.736   3.153 -2.1199 -0.1558  1.9972
  180SLPC   O2120484   3.255   1.536   3.217  0.3800 -0.1201  0.0559
  180SLPC   C2120485   3.382   1.523   3.246  0.2105 -1.2595 -0.4562
  180SLPC   O2220486   3.473   1.593   3.198 -0.0408  0.1090  0.1991
  180SLPC   C2220487   3.396   1.416   3.349 -0.0281  0.0286 -0.4241
  180SLPC   H2R20488   3.300   1.362   3.361 -1.1505  1.2855 -2.9263
  180SLPC   H2S20489   3.469   1.348   3.301 -0.9219  0.1334 -1.9994
  180SLPC    C320490   3.059   1.630   3.133  1.0500 -0.1458  0.2521
  180SLPC    HX20491   3.027   1.525   3.115 -0.3731  0.1048  1.1677
  180SLPC    HY20492   3.029   1.690   3.044 -0.3565 -0.9146  0.1636
  180SLPC   O3120493   2.995   1.675   3.254  0.0559 -0.8396 -0.1289
  180SLPC   C3120494   2.998   1.810   3.271  0.3641  1.0459 -0.5649
  180SLPC   O3220495   3.043   1.889   3.190  0.2541  0.1774 -0.2425
  180SLPC   C3220496   2.956   1.842   3.413  0.0299 -0.0621 -0.2815
  180SLPC   H2X20497   2.874   1.771   3.436 -1.0689  1.0123 -0.7625
  180SLPC   H2Y20498   2.911   1.944   3.416  0.5521  0.3095 -2.7552
  180SLPC   C2320499   3.445   1.475   3.482  0.4779  0.3358  0.6568
  180SLPC   H3R20500   3.542   1.529   3.472  0.6638  0.1956  1.5787
  180SLPC   H3S20501   3.458   1.392   3.555 -1.5426  0.2903  1.0116
  180SLPC   C2420502   3.344   1.574   3.545  0.0625  0.1168 -0.9107
  180SLPC   H4R20503   3.245   1.532   3.519  0.6329 -2.1879  0.3833
  180SLPC   H4S20504   3.348   1.675   3.499  2.4124  0.1283 -0.8054
  180SLPC   C2520505   3.354   1.572   3.689 -0.1828  0.1017 -0.8620
  180SLPC   H5R20506   3.338   1.467   3.721  0.4716 -0.2420 -1.6454
  180SLPC   H5S20507   3.262   1.619   3.730  0.1855  0.6186 -0.6132
  180SLPC   C2620508   3.472   1.635   3.761  0.0312 -0.0312  0.2674
  180SLPC   H6R20509   3.509   1.731   3.720  0.2425  0.2616  1.1317
  180SLPC   H6S20510   3.561   1.572   3.741 -0.1761 -0.3219  0.2532
  180SLPC   C2720511   3.444   1.644   3.909  0.4248  0.5705  0.0595
  180SLPC   H7R20512   3.406   1.545   3.944 -0.8942  0.8370 -0.5545
  180SLPC   H7S20513   3.373   1.724   3.940  0.1495 -0.4294  2.1885
  180SLPC   C2820514   3.575   1.674   3.983  0.0099  0.3273 -0.3001
  180SLPC   H8R20515   3.619   1.757   3.924  2.3964 -1.0687 -0.6419
  180SLPC   H8S20516   3.640   1.585   3.965 -1.3763 -0.6250 -0.8124
  180SLPC   C2920517   3.565   1.722   4.129 -0.4680  0.1450  0.4928
  180SLPC   H9R20518   3.534   1.827   4.138  4.4381  1.9193 -0.1516
  180SLPC  C21020519   3.586   1.637   4.231  0.4426  0.2051  0.4880
  180SLPC  H10R20520   3.570   1.671   4.334 -1.2493  0.2312  0.2370
  180SLPC  C21120521   3.610   1.491   4.212  0.0020  0.0844  0.1865
  180SLPC  H11R20522   3.710   1.468   4.254 -0.3204 -2.1415 -0.1033
  180SLPC  H11S20523   3.608   1.455   4.107  0.6791  1.8003 -0.4559
  180SLPC  C21220524   3.499   1.414   4.276  0.7172 -0.2621  0.3630
  180SLPC  H12R20525   3.403   1.415   4.223 -1.8363  1.0935  4.4872
  180SLPC  C21320526   3.501   1.364   4.397 -0.4053 -0.0343 -0.8080
  180SLPC  H13R20527   3.412   1.307   4.425 -1.4790  1.2674 -1.4383
  180SLPC  C21420528   3.606   1.363   4.506 -0.1578 -0.1455  0.5912
  180SLPC  H14R20529   3.653   1.463   4.519  1.4869 -0.9324  1.0273
  180SLPC  H14S20530   3.700   1.309   4.480  0.4165  1.1904 -0.1961
  180SLPC  C21520531   3.558   1.317   4.641  0.3999  0.3370  0.6435
  180SLPC  H15R20532   3.453   1.352   4.654  0.5721  0.5175  1.6510
  180SLPC  H15S20533   3.620   1.358   4.724 -0.5259  1.6189  0.7412
  180SLPC  C21620534   3.558   1.157   4.645  0.2585 -0.4108 -0.9338
  180SLPC  H16R20535   3.658   1.120   4.611  0.1331  1.3459 -3.5003
  180SLPC  H16S20536   3.489   1.125   4.564 -0.2559  0.3796 -0.8119
  180SLPC  C21720537   3.509   1.075   4.771 -0.1608 -0.3274 -0.4210
  180SLPC  H17R20538   3.484   0.971   4.743  2.2775 -0.6735 -1.5841
  180SLPC  H17S20539   3.418   1.122   4.814  0.8465  2.3498 -1.0096
  180SLPC  C21820540   3.611   1.061   4.884  0.1186  0.0165 -0.1490
  180SLPC  H18R20541   3.568   1.004   4.969  0.1754 -1.6245 -1.1909
  180SLPC  H18S20542   3.637   1.157   4.933 -0.2689 -0.5261  1.1701
  180SLPC  H18T20543   3.705   1.010   4.855  0.8834  0.3931  1.5752
  180SLPC   C3320544   3.070   1.829   3.513  0.0319  0.4969 -0.1459
  180SLPC   H3X20545   3.122   1.731   3.517  0.4182  0.7105  0.2721
  180SLPC   H3Y20546   3.013   1.833   3.608  0.7875  1.5950  0.2909
  180SLPC   C3420547   3.181   1.937   3.492  0.3892 -0.3919  0.0574
  180SLPC   H4X20548   3.140   2.028   3.443 -2.0646 -2.0746 -1.2155
  180SLPC   H4Y20549   3.253   1.893   3.421 -1.8339 -4.2714 -0.0640
  180SLPC   C3520550   3.261   1.968   3.609 -0.2590 -0.1718  0.1706
  180SLPC   H5X20551   3.349   2.028   3.577 -0.6780 -0.3348 -1.3657
  180SLPC   H5Y20552   3.314   1.875   3.639  1.8697  0.9430  0.0867
  180SLPC   C3620553   3.201   2.014   3.741  0.2210  0.0788  0.3910
  180SLPC   H6X20554   3.118   1.951   3.778 -1.3433  1.3581 -0.7829
  180SLPC   H6Y20555   3.148   2.109   3.720 -0.4892 -0.7920 -2.0200
  180SLPC   C3720556   3.312   2.033   3.849 -0.0858 -0.6390 -0.5111
  180SLPC   H7X20557   3.397   2.088   3.803 -0.8825  0.7271 -0.3705
  180SLPC   H7Y20558   3.354   1.933   3.874  0.2609 -0.1706  0.8592
  180SLPC   C3820559   3.255   2.097   3.975  0.4785  0.2408 -0.0763
  180SLPC   H8X20560   3.152   2.056   3.992 -0.0201  1.2042 -0.6953
  180SLPC   H8Y20561   3.239   2.206   3.958 -2.0759  0.0200  0.4612
  180SLPC   C3920562   3.332   2.073   4.095  0.3692  0.1753 -0.6834
  180SLPC   H9X20563   3.439   2.103   4.089  0.1728  1.0014 -0.2660
  180SLPC   H9Y20564   3.339   1.963   4.105  0.7195  0.2046 -0.5984
  180SLPC  C31020565   3.271   2.124   4.223  0.9477  1.0761 -0.3146
  180SLPC  H10X20566   3.281   2.043   4.298  0.6024  1.8743  0.6314
  180SLPC  H10Y20567   3.160   2.130   4.216  0.6275 -1.0693  1.5803
  180SLPC  C31120568   3.321   2.262   4.273 -0.1094  0.3007 -0.1716
  180SLPC  H11X20569   3.283   2.351   4.219  0.1648 -0.4605 -1.6710
  180SLPC  H11Y20570   3.432   2.261   4.274 -0.0538 -2.3805  0.9019
  180SLPC  C31220571   3.268   2.286   4.421 -1.0709 -0.0561  0.0160
  180SLPC  H12X20572   3.307   2.206   4.488  0.7046  1.0009  0.3073
  180SLPC  H12Y20573   3.157   2.285   4.428 -1.1647 -1.8840 -0.9333
  180SLPC  C31320574   3.313   2.414   4.486 -0.4424  0.1107  0.8927
  180SLPC  H13X20575   3.218   2.470   4.503 -1.9554 -1.5305 -1.4962
  180SLPC  H13Y20576   3.372   2.479   4.417  1.0938  0.0848  2.1266
  180SLPC  C31420577   3.392   2.389   4.616  0.3508  0.1111  0.5693
  180SLPC  H14X20578   3.491   2.343   4.594  1.1462  1.2162  1.6972
  180SLPC  H14Y20579   3.342   2.316   4.683 -1.0382  0.5747  0.0858
  180SLPC  C31520580   3.418   2.524   4.690  0.8333  0.5982 -0.2528
  180SLPC  H15X20581   3.318   2.555   4.729  0.3088 -1.5915  0.3145
  180SLPC  H15Y20582   3.461   2.602   4.623  2.8134  1.4237  1.8440
  180SLPC  C31620583   3.516   2.512   4.812  0.2363 -0.3474 -0.2809
  180SLPC  H16X20584   3.615   2.471   4.781  1.7831  1.8160  1.4696
  180SLPC  H16Y20585   3.475   2.447   4.892 -0.6872  0.6021  0.0249
  180SLPC  C31720586   3.531   2.647   4.884  0.0040 -0.8980 -0.0406
  180SLPC  H17X20587   3.436   2.687   4.927  1.2337 -0.7919  2.8115
  180SLPC  H17Y20588   3.563   2.710   4.799 -3.4582 -1.8531 -2.2768
  180SLPC  C31820589   3.637   2.636   4.989 -0.0205  0.0305  0.2999
  180SLPC  H18X20590   3.742   2.617   4.956 -0.3466  0.0033 -0.7797
  180SLPC  H18Y20591   3.613   2.549   5.053  0.8973 -2.0710 -2.0517
  180SLPC  H18Z20592   3.628   2.725   5.055 -1.0446 -1.2006  1.9052
  181SLPC     N20593   4.050   6.192   2.670  0.7095  0.2974  0.4231
  181SLPC   C1320594   4.111   6.059   2.612 -0.6801 -0.8129 -0.2211
  181SLPC  H13A20595   4.218   6.070   2.609 -0.7551  1.5702  1.9133
  181SLPC  H13B20596   4.100   5.980   2.685  2.2757 -0.4106  0.7759
  181SLPC  H13C20597   4.063   6.048   2.516 -0.8559  1.9118 -0.5219
  181SLPC   C1420598   4.070   6.297   2.569  0.8502 -0.0951 -1.0618
  181SLPC  H14A20599   4.082   6.390   2.623  0.8194  0.7553 -2.4905
  181SLPC  H14B20600   4.156   6.298   2.505  0.7424  4.1147 -1.4339
  181SLPC  H14C20601   3.976   6.310   2.518 -0.9847 -0.3522  1.9478
  181SLPC   C1520602   4.121   6.224   2.792 -0.2163 -0.8651 -0.3573
  181SLPC  H15A20603   4.106   6.323   2.832  2.6902  0.2147 -1.7063
  181SLPC  H15B20604   4.100   6.157   2.874  0.5010  0.7069  1.1637
  181SLPC  H15C20605   4.227   6.223   2.773 -0.0037 -0.0930  0.6752
  181SLPC   C1220606   3.905   6.175   2.697  0.3801 -1.2005 -0.8803
  181SLPC  H12A20607   3.873   6.272   2.731  3.0769  0.0499 -1.6931
  181SLPC  H12B20608   3.897   6.108   2.781  1.4542 -1.6173 -1.0973
  181SLPC   C1120609   3.809   6.134   2.585  0.0643  0.5861  0.2031
  181SLPC  H11A20610   3.714   6.101   2.633  1.1733  0.8538  2.7687
  181SLPC  H11B20611   3.845   6.044   2.531 -0.9430 -0.8080  1.7604
  181SLPC     P20612   3.707   6.371   2.538 -0.9026 -0.5999 -0.6119
  181SLPC   O1320613   3.782   6.460   2.635 -0.3631  0.3708 -0.0298
  181SLPC   O1420614   3.661   6.432   2.411  0.2570 -0.0096 -0.3809
  181SLPC   O1220615   3.793   6.250   2.499 -0.0644 -0.0872  0.6815
  181SLPC   O1120616   3.583   6.312   2.609 -0.0631  0.0529  0.0913
  181SLPC    C120617   3.486   6.399   2.662  0.0781  0.5656 -0.0042
  181SLPC    HA20618   3.455   6.479   2.591 -1.9244 -0.4982 -0.4228
  181SLPC    HB20619   3.394   6.340   2.684  1.0181 -0.6484  0.7257
  181SLPC    C220620   3.528   6.454   2.801 -0.3821 -0.0562 -0.2865
  181SLPC    HS20621   3.620   6.512   2.780 -0.3756 -0.2893 -0.9460
  181SLPC   O2120622   3.563   6.345   2.881 -0.2471 -1.1985  0.3074
  181SLPC   C2120623   3.671   6.344   2.955 -0.6197 -0.3173 -0.6902
  181SLPC   O2220624   3.761   6.425   2.953 -0.7343  0.3052 -0.0457
  181SLPC   C2220625   3.664   6.216   3.038 -1.1387  0.0525 -0.4531
  181SLPC   H2R20626   3.593   6.226   3.123  1.0029 -0.7348  1.5510
  181SLPC   H2S20627   3.617   6.138   2.974  0.9635 -2.1789  0.5325
  181SLPC    C320628   3.420   6.546   2.866  0.1064  0.5118 -0.3718
  181SLPC    HX20629   3.314   6.513   2.857  0.1622 -0.2954  1.5350
  181SLPC    HY20630   3.423   6.637   2.802 -1.4292  0.4074 -0.6379
  181SLPC   O3120631   3.464   6.581   3.002  0.2510 -0.3805  0.0525
  181SLPC   C3120632   3.403   6.505   3.090 -0.1347 -0.2086  0.8406
  181SLPC   O3220633   3.343   6.403   3.060  0.0207  0.2833  0.2206
  181SLPC   C3220634   3.442   6.559   3.222 -0.7505  0.4715 -0.6684
  181SLPC   H2X20635   3.362   6.535   3.295  0.3374 -1.9641 -0.1663
  181SLPC   H2Y20636   3.450   6.670   3.217  0.2112  0.5074  1.0340
  181SLPC   C2320637   3.798   6.157   3.095  0.4322 -0.3731 -0.1842
  181SLPC   H3R20638   3.872   6.168   3.012  0.6268  0.5933  0.0984
  181SLPC   H3S20639   3.779   6.054   3.129  0.4450 -0.5044 -0.5688
  181SLPC   C2420640   3.841   6.242   3.220 -0.3908 -0.7805  0.0625
  181SLPC   H4R20641   3.770   6.238   3.305  0.5689  2.5925  1.1897
  181SLPC   H4S20642   3.852   6.349   3.190  2.2210 -1.1443 -0.5831
  181SLPC   C2520643   3.985   6.208   3.263  0.2982 -0.6716 -0.4681
  181SLPC   H5R20644   4.055   6.232   3.180 -0.0406 -2.4786 -1.3043
  181SLPC   H5S20645   3.990   6.100   3.286  0.2814 -0.4277  0.7706
  181SLPC   C2620646   4.031   6.268   3.398 -0.1836 -0.9476  0.0800
  181SLPC   H6R20647   4.011   6.205   3.487 -2.7562 -0.7086 -0.2700
  181SLPC   H6S20648   3.987   6.369   3.412  2.2134  0.0681  0.9177
  181SLPC   C2720649   4.185   6.281   3.390 -0.3802  0.2029  0.5551
  181SLPC   H7R20650   4.215   6.361   3.319  3.3154  0.4202  2.1691
  181SLPC   H7S20651   4.231   6.183   3.366 -0.1272  0.6279 -0.8105
  181SLPC   C2820652   4.239   6.315   3.536  0.7729 -0.6255  0.1117
  181SLPC   H8R20653   4.170   6.395   3.570  2.5800  0.3908  1.5374
  181SLPC   H8S20654   4.338   6.361   3.518  1.0588 -1.1973  0.2162
  181SLPC   C2920655   4.240   6.195   3.626  0.0388 -0.1236 -0.6914
  181SLPC   H9R20656   4.281   6.102   3.586  0.2050  0.4758 -1.9609
  181SLPC  C21020657   4.192   6.196   3.754  0.0435 -0.3719  0.2574
  181SLPC  H10R20658   4.203   6.101   3.809 -0.3562  0.8814  2.6258
  181SLPC  C21120659   4.139   6.318   3.828  0.2568  0.1743 -0.9439
  181SLPC  H11R20660   4.161   6.417   3.781 -0.0351  0.8084  0.2135
  181SLPC  H11S20661   4.198   6.314   3.922  1.3010 -2.2055 -1.6468
  181SLPC  C21220662   3.991   6.308   3.851  0.0752  0.8489 -0.7603
  181SLPC  H12R20663   3.946   6.390   3.793  2.3689  1.4715 -1.7756
  181SLPC  C21320664   3.926   6.243   3.953 -0.0455  0.0492 -0.1008
  181SLPC  H13R20665   3.817   6.249   3.960 -0.0906  0.4830 -1.0330
  181SLPC  C21420666   3.985   6.140   4.043  0.4657  0.4705 -0.6026
  181SLPC  H14R20667   4.095   6.141   4.030  0.4914 -0.2434 -0.5083
  181SLPC  H14S20668   3.948   6.048   3.991 -1.0157  0.9682 -0.4895
  181SLPC  C21520669   3.949   6.135   4.196 -0.7103  0.0251  0.4075
  181SLPC  H15R20670   3.840   6.128   4.213 -0.7642  0.7272  0.3983
  181SLPC  H15S20671   3.970   6.237   4.236 -3.2152  1.3534 -1.3570
  181SLPC  C21620672   4.024   6.030   4.293 -0.2065  0.2341  0.6885
  181SLPC  H16R20673   4.132   6.047   4.271 -0.1687 -0.6911  0.0944
  181SLPC  H16S20674   4.012   5.924   4.261 -1.5047  0.6907 -0.4299
  181SLPC  C21720675   3.979   6.061   4.439 -0.3046  0.0698 -0.6111
  181SLPC  H17R20676   3.987   6.171   4.451 -2.6934  0.1966  0.3528
  181SLPC  H17S20677   4.060   6.016   4.501 -2.4159 -0.2164  2.1271
  181SLPC  C21820678   3.837   6.033   4.471  0.1816  0.6826 -0.7722
  181SLPC  H18R20679   3.817   5.924   4.462 -0.7434  0.8666 -1.0273
  181SLPC  H18S20680   3.763   6.081   4.403  0.2347  0.5827 -0.9001
  181SLPC  H18T20681   3.819   6.060   4.578 -0.3011  0.0684 -0.6897
  181SLPC   C3320682   3.589   6.499   3.257  0.6664  0.4280  0.1543
  181SLPC   H3X20683   3.679   6.538   3.204  0.3835 -0.4068 -0.9876
  181SLPC   H3Y20684   3.578   6.388   3.251 -0.5013  0.5390 -0.1593
  181SLPC   C3420685   3.604   6.541   3.411 -0.5582  0.5909 -0.5737
  181SLPC   H4X20686   3.516   6.515   3.474  0.5836  1.5957  1.5762
  181SLPC   H4Y20687   3.612   6.652   3.407  2.5591  0.5439  1.1288
  181SLPC   C3520688   3.727   6.487   3.487 -0.4389  0.7098  0.7081
  181SLPC   H5X20689   3.811   6.504   3.417 -2.2964  0.7517 -1.6440
  181SLPC   H5Y20690   3.714   6.379   3.510 -0.2370  0.2671 -1.1074
  181SLPC   C3620691   3.759   6.568   3.611  0.3703 -0.6631 -0.2459
  181SLPC   H6X20692   3.742   6.676   3.591 -1.2495 -1.1004 -1.4408
  181SLPC   H6Y20693   3.869   6.556   3.625  1.0058  1.1162 -2.8647
  181SLPC   C3720694   3.677   6.544   3.739  0.3977  0.6693 -0.3679
  181SLPC   H7X20695   3.691   6.435   3.755  0.5544  0.1117 -3.7226
  181SLPC   H7Y20696   3.570   6.567   3.716  0.0738  2.2914  2.2706
  181SLPC   C3820697   3.734   6.629   3.854 -0.4688 -0.1117 -0.4783
  181SLPC   H8X20698   3.677   6.724   3.854 -0.7889 -0.3008 -0.0629
  181SLPC   H8Y20699   3.839   6.657   3.829 -0.9124 -0.7047 -3.2875
  181SLPC   C3920700   3.728   6.575   3.997 -0.1510  0.4049  0.0073
  181SLPC   H9X20701   3.782   6.478   3.988  0.8927  0.8978  0.6170
  181SLPC   H9Y20702   3.627   6.545   4.031 -1.2629  4.1404  0.4299
  181SLPC  C31020703   3.805   6.652   4.098 -0.2681  0.0945 -0.0303
  181SLPC  H10X20704   3.741   6.742   4.114 -1.0200 -0.6629  1.4752
  181SLPC  H10Y20705   3.910   6.669   4.067 -0.3100 -0.0465 -0.2519
  181SLPC  C31120706   3.824   6.572   4.232 -0.5786 -0.4894  0.3201
  181SLPC  H11X20707   3.879   6.477   4.215  1.7572  0.5747  1.5320
  181SLPC  H11Y20708   3.722   6.561   4.273 -0.9572 -0.7477 -0.6565
  181SLPC  C31220709   3.899   6.642   4.344 -0.6399  0.1339  0.1163
  181SLPC  H12X20710   3.849   6.738   4.365 -0.5300  0.3985 -0.7724
  181SLPC  H12Y20711   4.005   6.645   4.310  0.2010 -0.4044  2.5249
  181SLPC  C31320712   3.911   6.569   4.478  0.8364 -0.7228 -0.2374
  181SLPC  H13X20713   3.955   6.468   4.460 -1.0515 -1.7881  0.7603
  181SLPC  H13Y20714   3.817   6.550   4.535  1.2318 -1.3932  0.2158
  181SLPC  C31420715   4.012   6.649   4.571  0.2689 -0.9403 -0.3962
  181SLPC  H14X20716   3.966   6.742   4.611  1.8726  0.0375 -0.7198
  181SLPC  H14Y20717   4.112   6.667   4.526  0.3381  0.2377  0.1923
  181SLPC  C31520718   4.033   6.570   4.702  0.3511 -0.4545  0.2172
  181SLPC  H15X20719   4.119   6.622   4.749  1.6430 -0.9648 -1.5109
  181SLPC  H15Y20720   4.067   6.468   4.672 -2.1663 -1.6696  1.1546
  181SLPC  C31620721   3.918   6.574   4.805  0.2504  0.0232  0.1712
  181SLPC  H16X20722   3.825   6.539   4.756 -0.2504  2.4174 -0.7132
  181SLPC  H16Y20723   3.905   6.682   4.828 -0.0816 -0.0548  0.3650
  181SLPC  C31720724   3.942   6.490   4.927 -0.7670 -0.2268  0.1373
  181SLPC  H17X20725   3.953   6.389   4.882 -2.0720  0.2746 -1.4369
  181SLPC  H17Y20726   3.854   6.487   4.995 -0.6839 -2.3033  0.2391
  181SLPC  C31820727   4.076   6.514   5.001 -0.4420 -0.6018  0.3299
  181SLPC  H18X20728   4.081   6.443   5.085  0.9094  0.8108  1.5110
  181SLPC  H18Y20729   4.071   6.618   5.041 -1.3523 -1.0887  1.5101
  181SLPC  H18Z20730   4.165   6.515   4.935 -0.6086  2.8673 -0.0608
  182SLPC     N20731   0.182   1.844   2.003 -0.2321 -0.5223 -0.1705
  182SLPC   C1320732   0.251   1.946   1.907 -0.5654  0.6362  0.6668
  182SLPC  H13A20733   0.355   1.942   1.937 -0.0106 -4.2298 -0.9917
  182SLPC  H13B20734   0.241   1.910   1.806 -1.1667  1.4605  0.4259
  182SLPC  H13C20735   0.204   2.042   1.916 -0.0922  1.0250 -0.8501
  182SLPC   C1420736   0.246   1.711   2.009  0.7968  0.1557 -0.8375
  182SLPC  H14A20737   0.214   1.668   2.103 -0.4914  1.8725 -0.4331
  182SLPC  H14B20738   0.239   1.652   1.919  1.9734 -1.9971  0.4099
  182SLPC  H14C20739   0.349   1.722   2.039  0.6029  0.7711 -0.3686
  182SLPC   C1520740   0.042   1.823   1.968  0.3337  0.2940 -0.2455
  182SLPC  H15A20741   0.006   1.754   2.042  0.6952  1.2433  0.8578
  182SLPC  H15B20742  -0.027   1.907   1.969 -0.4322 -0.2419 -2.3184
  182SLPC  H15C20743   0.020   1.765   1.880  1.0186 -1.4408  0.6734
  182SLPC   C1220744   0.180   1.909   2.147 -0.6122 -0.8203 -0.6334
  182SLPC  H12A20745   0.091   1.867   2.191 -0.8535  2.0819  2.0033
  182SLPC  H12B20746   0.156   2.014   2.137 -1.3410 -0.8319  0.8141
  182SLPC   C1120747   0.307   1.891   2.239  0.0314  0.0356  0.2097
  182SLPC  H11A20748   0.311   1.962   2.324  1.9122  0.6447 -0.3471
  182SLPC  H11B20749   0.386   1.940   2.179 -0.2314  1.5950  1.0865
  182SLPC     P20750   0.234   1.674   2.365 -0.5891  0.1807  0.4627
  182SLPC   O1320751   0.108   1.659   2.289 -0.4053  0.1369 -0.7026
  182SLPC   O1420752   0.298   1.551   2.427  0.6953  0.8517 -0.7258
  182SLPC   O1220753   0.336   1.757   2.271  0.7085 -0.0091  0.1972
  182SLPC   O1120754   0.214   1.783   2.476 -0.3767 -0.5476 -0.5806
  182SLPC    C120755   0.325   1.817   2.566 -0.4716  0.3365  0.6174
  182SLPC    HA20756   0.405   1.739   2.566  0.0323  0.8410 -0.2042
  182SLPC    HB20757   0.372   1.904   2.517  0.6145  0.0038  1.0370
  182SLPC    C220758   0.272   1.865   2.707 -0.5015  0.5226  0.6159
  182SLPC    HS20759   0.334   1.949   2.746 -0.2248  0.3712  0.4999
  182SLPC   O2120760   0.264   1.763   2.805  0.0335  1.0050 -0.2670
  182SLPC   C2120761   0.380   1.734   2.860 -0.1620 -0.4685  0.7906
  182SLPC   O2220762   0.482   1.797   2.832 -0.3355  0.0992  0.4635
  182SLPC   C2220763   0.368   1.617   2.961 -0.2330  0.1108 -0.4250
  182SLPC   H2R20764   0.293   1.546   2.922  0.8942 -0.6031 -1.3921
  182SLPC   H2S20765   0.467   1.567   2.970 -1.2159 -1.8383 -0.1118
  182SLPC    C320766   0.138   1.936   2.691  0.1610 -0.5033 -0.0354
  182SLPC    HX20767   0.063   1.872   2.639 -0.0288  1.2477 -2.0404
  182SLPC    HY20768   0.156   2.034   2.642 -0.5120  1.3718  3.1499
  182SLPC   O3120769   0.088   1.970   2.823 -0.3235 -0.4110  0.5790
  182SLPC   C3120770  -0.027   1.906   2.864 -0.3044 -0.1167  0.9557
  182SLPC   O3220771  -0.093   1.820   2.808  0.1172  0.1823  0.7169
  182SLPC   C3220772  -0.041   1.931   3.016  0.1100 -0.1157  0.4217
  182SLPC   H2X20773  -0.007   2.037   3.027 -2.7592  1.0666 -1.0459
  182SLPC   H2Y20774   0.025   1.858   3.067 -0.6872 -2.5297 -1.8188
  182SLPC   C2320775   0.319   1.667   3.099 -0.8396  0.0257 -0.3611
  182SLPC   H3R20776   0.302   1.575   3.159 -3.5026  0.1354 -0.8473
  182SLPC   H3S20777   0.233   1.736   3.085  0.2216  1.4217 -0.1752
  182SLPC   C2420778   0.421   1.753   3.175 -0.5202 -0.0748 -0.3867
  182SLPC   H4R20779   0.433   1.847   3.116  2.3984  0.6657  1.1645
  182SLPC   H4S20780   0.526   1.716   3.179  0.0157  1.4670  1.7016
  182SLPC   C2520781   0.388   1.775   3.326  0.3379  0.1290 -0.0796
  182SLPC   H5R20782   0.390   1.671   3.365 -1.9967 -0.0985 -0.4354
  182SLPC   H5S20783   0.282   1.801   3.343  0.3329  0.0415  0.0219
  182SLPC   C2620784   0.476   1.870   3.408 -0.1243 -0.2848 -0.1807
  182SLPC   H6R20785   0.446   1.975   3.385 -1.3118 -0.2713  1.3322
  182SLPC   H6S20786   0.576   1.838   3.372 -0.4018 -1.5187  0.1119
  182SLPC   C2720787   0.451   1.843   3.554 -0.4889 -0.0626 -0.0061
  182SLPC   H7R20788   0.430   1.734   3.566 -0.1072 -0.0222  1.1485
  182SLPC   H7S20789   0.358   1.885   3.597  2.1055  4.9233  1.4183
  182SLPC   C2820790   0.568   1.853   3.645  0.1139 -0.2025  0.0267
  182SLPC   H8R20791   0.649   1.805   3.586  0.2742  2.1503 -1.8386
  182SLPC   H8S20792   0.539   1.803   3.739 -2.7115  1.6793  0.2667
  182SLPC   C2920793   0.603   1.997   3.669 -0.6891  0.0139  0.0218
  182SLPC   H9R20794   0.627   2.044   3.573  1.9197 -0.9863  0.1141
  182SLPC  C21020795   0.628   2.051   3.787 -0.3620  0.1189 -0.0388
  182SLPC  H10R20796   0.652   2.158   3.790  2.4579 -0.4403  1.3056
  182SLPC  C21120797   0.616   1.985   3.926 -0.5385  0.5646  1.0007
  182SLPC  H11R20798   0.706   1.920   3.932 -1.2313 -0.3232  2.5880
  182SLPC  H11S20799   0.527   1.918   3.917  1.3450 -1.8117 -1.2854
  182SLPC  C21220800   0.617   2.075   4.041  0.0786 -0.0244 -0.0668
  182SLPC  H12R20801   0.646   2.179   4.018 -0.4611  0.1892  0.2076
  182SLPC  C21320802   0.589   2.040   4.167  0.0857 -0.2184  0.2725
  182SLPC  H13R20803   0.577   2.119   4.244  0.3782 -1.0904  1.2380
  182SLPC  C21420804   0.541   1.902   4.212 -0.1814 -0.1398 -0.0083
  182SLPC  H14R20805   0.625   1.849   4.264  0.9218  2.7161  1.3571
  182SLPC  H14S20806   0.511   1.837   4.127 -0.9031  0.2634 -0.0697
  182SLPC  C21520807   0.418   1.931   4.288  0.3091 -0.4405 -0.6396
  182SLPC  H15R20808   0.356   1.840   4.300 -1.3229  0.6256 -0.6409
  182SLPC  H15S20809   0.347   1.999   4.236  1.9670  0.1670 -2.2009
  182SLPC  C21620810   0.439   1.987   4.433 -0.4647  0.0758  0.1709
  182SLPC  H16R20811   0.453   2.097   4.436  0.1157  0.1057  5.4441
  182SLPC  H16S20812   0.525   1.937   4.482  0.2007 -0.3010 -1.3273
  182SLPC  C21720813   0.316   1.965   4.526 -0.5135 -0.0975 -0.7640
  182SLPC  H17R20814   0.291   1.858   4.538  0.8057 -0.4385 -0.9481
  182SLPC  H17S20815   0.222   2.002   4.479  0.1229  1.6141 -0.7819
  182SLPC  C21820816   0.330   2.040   4.658  0.5355 -0.7106 -0.1925
  182SLPC  H18R20817   0.224   2.061   4.681  0.8626  1.7680 -0.6750
  182SLPC  H18S20818   0.383   2.136   4.645  1.7343 -1.1260  1.3393
  182SLPC  H18T20819   0.377   1.981   4.739 -1.8433  0.3421  2.0912
  182SLPC   C3320820  -0.191   1.918   3.051 -0.2475 -0.9269  0.2956
  182SLPC   H3X20821  -0.217   1.812   3.030  0.2603 -0.9673 -0.1606
  182SLPC   H3Y20822  -0.236   1.985   2.975  1.7919 -0.7355 -0.8154
  182SLPC   C3420823  -0.234   1.959   3.194 -1.0361  0.4453 -0.0000
  182SLPC   H4X20824  -0.345   1.961   3.203 -0.9566 -1.8282  3.2703
  182SLPC   H4Y20825  -0.200   2.062   3.217  2.1627 -0.5286  0.1608
  182SLPC   C3520826  -0.194   1.857   3.308 -0.6080  0.5664 -0.3369
  182SLPC   H5X20827  -0.086   1.875   3.325 -0.6250  2.5794 -1.9553
  182SLPC   H5Y20828  -0.223   1.758   3.267 -0.4221  0.4542 -0.1967
  182SLPC   C3620829  -0.266   1.878   3.437  0.8499 -0.2163 -0.0750
  182SLPC   H6X20830  -0.372   1.884   3.406  0.8392  1.7557  0.1783
  182SLPC   H6Y20831  -0.242   1.982   3.468 -1.0888 -0.0600  1.0878
  182SLPC   C3720832  -0.236   1.771   3.541 -0.6426 -0.3937 -0.1842
  182SLPC   H7X20833  -0.126   1.759   3.556 -0.6027  0.4390  0.2251
  182SLPC   H7Y20834  -0.293   1.682   3.507 -0.6198 -0.6183  0.3580
  182SLPC   C3820835  -0.278   1.808   3.685 -0.3080 -0.1507 -0.1209
  182SLPC   H8X20836  -0.384   1.841   3.688 -0.6544 -1.1617 -0.6739
  182SLPC   H8Y20837  -0.214   1.892   3.718 -0.0577 -1.5652  3.4291
  182SLPC   C3920838  -0.238   1.698   3.788  1.0983  0.5966  0.3454
  182SLPC   H9X20839  -0.127   1.698   3.789  1.0988  1.0354  1.6088
  182SLPC   H9Y20840  -0.281   1.599   3.761  0.7773  0.4298  1.4114
  182SLPC  C31020841  -0.297   1.720   3.932 -0.0452  0.0858 -0.1166
  182SLPC  H10X20842  -0.283   1.828   3.953  1.0119  0.4317 -2.2635
  182SLPC  H10Y20843  -0.232   1.655   3.994  1.6883  1.2050 -0.6814
  182SLPC  C31120844  -0.449   1.677   3.939  0.0452  0.6958 -0.0146
  182SLPC  H11X20845  -0.465   1.571   3.909  0.7493  0.1512  1.4171
  182SLPC  H11Y20846  -0.507   1.720   3.855 -1.6397  1.4210  1.4588
  182SLPC  C31220847  -0.511   1.711   4.074 -0.2792  0.4638 -0.6533
  182SLPC  H12X20848  -0.619   1.688   4.070 -0.0450 -1.0941  0.7887
  182SLPC  H12Y20849  -0.507   1.818   4.105  0.2246  0.7951 -1.8040
  182SLPC  C31320850  -0.448   1.640   4.196 -0.0996 -0.1656 -0.9370
  182SLPC  H13X20851  -0.343   1.674   4.210  0.2787 -0.0530 -3.4828
  182SLPC  H13Y20852  -0.446   1.532   4.171  0.0545 -0.2222 -0.6807
  182SLPC  C31420853  -0.525   1.652   4.325 -0.3372 -0.0426 -0.3250
  182SLPC  H14X20854  -0.485   1.571   4.391 -2.0605 -1.2896 -0.7613
  182SLPC  H14Y20855  -0.630   1.617   4.320 -0.1918 -0.8697  1.4046
  182SLPC  C31520856  -0.527   1.787   4.386 -0.4322 -0.2744 -0.5880
  182SLPC  H15X20857  -0.594   1.864   4.342  0.4462  0.8113 -0.0941
  182SLPC  H15Y20858  -0.423   1.827   4.380 -0.0966 -1.1746 -1.0237
  182SLPC  C31620859  -0.573   1.790   4.540  0.1483  0.0038  1.1706
  182SLPC  H16X20860  -0.502   1.719   4.587 -0.5878 -1.4098  0.2102
  182SLPC  H16Y20861  -0.677   1.752   4.535  0.0463  0.1725  1.9080
  182SLPC  C31720862  -0.570   1.929   4.598  0.0423  0.0150 -0.1960
  182SLPC  H17X20863  -0.624   2.002   4.533 -0.0513  1.8599  1.8472
  182SLPC  H17Y20864  -0.464   1.958   4.578  0.1687  0.0466  0.4889
  182SLPC  C31820865  -0.619   1.934   4.741 -0.7120  0.1458  0.2703
  182SLPC  H18X20866  -0.729   1.915   4.740 -0.3392 -2.4543  0.6519
  182SLPC  H18Y20867  -0.596   2.033   4.785  1.0802  0.4378 -1.2136
  182SLPC  H18Z20868  -0.580   1.847   4.799  1.6384  0.8434 -0.1655
  183SLPC     N20869   3.116   0.610   2.797 -0.6015 -0.1149 -0.0163
  183SLPC   C1320870   3.076   0.617   2.655  0.1618  0.0906 -0.0309
  183SLPC  H13A20871   3.036   0.716   2.638  0.1905  0.2371  0.7238
  183SLPC  H13B20872   3.161   0.612   2.589  0.4657 -1.3547  0.4228
  183SLPC  H13C20873   2.998   0.549   2.623 -2.3960  2.1645  1.3754
  183SLPC   C1420874   3.229   0.712   2.809 -0.2863 -0.4945  0.3698
  183SLPC  H14A20875   3.315   0.682   2.750 -0.6878  2.5509 -1.9908
  183SLPC  H14B20876   3.205   0.815   2.789  0.6494 -0.8065 -2.9161
  183SLPC  H14C20877   3.268   0.723   2.910 -0.2162 -0.2121  0.3133
  183SLPC   C1520878   3.160   0.468   2.832  0.6049  0.1070 -0.1057
  183SLPC  H15A20879   3.180   0.469   2.938 -1.1484  1.1123  0.2509
  183SLPC  H15B20880   3.073   0.404   2.828 -0.5429  1.5417  0.8403
  183SLPC  H15C20881   3.240   0.423   2.775 -0.2830  0.1714 -1.4688
  183SLPC   C1220882   3.009   0.659   2.894  0.6506  0.2297 -0.2387
  183SLPC  H12A20883   2.985   0.764   2.881  2.2275  0.3962 -2.4543
  183SLPC  H12B20884   3.053   0.634   2.989  0.1115  1.3211  0.3188
  183SLPC   C1120885   2.864   0.584   2.881 -0.2987 -0.4151  0.0441
  183SLPC  H11A20886   2.796   0.580   2.969 -1.4447 -0.5267 -0.8158
  183SLPC  H11B20887   2.884   0.478   2.857 -0.3710 -0.4657  0.2011
  183SLPC     P20888   2.722   0.780   2.786  0.0449 -0.0022 -0.2277
  183SLPC   O1320889   2.686   0.829   2.653  0.0005 -0.0411  0.0576
  183SLPC   O1420890   2.607   0.770   2.884 -0.1290  0.3242  0.5288
  183SLPC   O1220891   2.787   0.639   2.774  0.2450 -0.6567  0.0171
  183SLPC   O1120892   2.835   0.868   2.844  0.0371 -0.0299  0.4653
  183SLPC    C120893   2.817   1.008   2.863 -0.1206  0.4859 -0.3465
  183SLPC    HA20894   2.902   1.052   2.806  2.6503 -2.0796  1.4449
  183SLPC    HB20895   2.722   1.052   2.827  0.6603 -0.5683 -4.1672
  183SLPC    C220896   2.841   1.052   3.017  0.1727 -0.6690 -0.1193
  183SLPC    HS20897   2.949   1.034   3.035  0.2582  0.9570  1.2258
  183SLPC   O2120898   2.757   0.981   3.106 -0.1392  0.5387  0.0449
  183SLPC   C2120899   2.804   0.872   3.164 -0.3590 -0.6010  0.4902
  183SLPC   O2220900   2.920   0.838   3.159  0.2875 -0.6916 -0.2001
  183SLPC   C2220901   2.688   0.797   3.227 -0.7638  0.4399  0.2827
  183SLPC   H2R20902   2.619   0.861   3.286  0.4787  0.1822  2.1240
  183SLPC   H2S20903   2.646   0.743   3.140 -0.2487 -0.5395  0.6147
  183SLPC    C320904   2.823   1.205   3.037  0.2831  0.1518 -0.1200
  183SLPC    HX20905   2.717   1.232   3.017  0.0328  0.1875  1.1568
  183SLPC    HY20906   2.891   1.254   2.964  0.5415 -1.2149 -0.8132
  183SLPC   O3120907   2.833   1.262   3.168 -0.6453  0.2352  0.0184
  183SLPC   C3120908   2.953   1.250   3.232 -0.7521  0.4249  0.6225
  183SLPC   O3220909   3.055   1.204   3.188 -0.6154 -0.1652  0.3668
  183SLPC   C3220910   2.933   1.319   3.371 -0.1436  0.6622 -0.3548
  183SLPC   H2X20911   2.824   1.314   3.395 -0.2475  0.7712 -0.7989
  183SLPC   H2Y20912   2.965   1.424   3.352  0.2892  0.6238  0.1415
  183SLPC   C2320913   2.722   0.670   3.310 -0.2052  0.0335  0.5749
  183SLPC   H3R20914   2.767   0.603   3.234  2.8089  1.1531  1.2162
  183SLPC   H3S20915   2.632   0.611   3.338  0.1375 -0.0833  1.4771
  183SLPC   C2420916   2.801   0.687   3.437  0.0705  0.0219  0.2555
  183SLPC   H4R20917   2.895   0.743   3.418 -0.3125 -0.1729 -2.7016
  183SLPC   H4S20918   2.832   0.591   3.484 -0.4779  1.4145  3.7421
  183SLPC   C2520919   2.724   0.763   3.549 -0.5791  0.5980 -0.5533
  183SLPC   H5R20920   2.615   0.744   3.549 -0.3278 -1.1150 -1.8578
  183SLPC   H5S20921   2.728   0.868   3.513  1.4630  0.1124 -1.9276
  183SLPC   C2620922   2.777   0.743   3.694 -0.1093 -0.5943 -0.5399
  183SLPC   H6R20923   2.853   0.821   3.716 -0.0599 -0.9740  0.7062
  183SLPC   H6S20924   2.821   0.641   3.692  1.7004  0.1535 -0.8891
  183SLPC   C2720925   2.665   0.759   3.800  0.0921  0.0851  0.7090
  183SLPC   H7R20926   2.586   0.693   3.758 -0.8547  1.3187  0.5113
  183SLPC   H7S20927   2.618   0.859   3.801 -0.8032 -0.2398 -1.5714
  183SLPC   C2820928   2.705   0.719   3.946  0.1199 -0.4545  0.2963
  183SLPC   H8R20929   2.757   0.621   3.938  1.7791  0.5271 -2.2099
  183SLPC   H8S20930   2.611   0.703   4.003  1.1358 -2.6513  1.4929
  183SLPC   C2920931   2.796   0.822   4.008  0.0194  0.5943 -0.0518
  183SLPC   H9R20932   2.841   0.894   3.938  0.9151 -0.3351 -0.4503
  183SLPC  C21020933   2.818   0.830   4.144  0.1340  0.0092 -0.0730
  183SLPC  H10R20934   2.859   0.923   4.185  0.5125 -0.1233 -0.1529
  183SLPC  C21120935   2.778   0.741   4.261  0.3451  0.6972  1.1016
  183SLPC  H11R20936   2.860   0.723   4.333  0.6359 -0.7750  0.4369
  183SLPC  H11S20937   2.763   0.638   4.221 -1.2880  0.7737  1.4502
  183SLPC  C21220938   2.650   0.789   4.326  0.1609  0.6780 -0.2205
  183SLPC  H12R20939   2.559   0.773   4.266 -2.0515  3.2070  2.1487
  183SLPC  C21320940   2.628   0.863   4.436  0.2147  0.0456 -0.3179
  183SLPC  H13R20941   2.525   0.888   4.466  0.5867  0.7462  0.4146
  183SLPC  C21420942   2.737   0.912   4.531  0.3729 -0.1964  0.4510
  183SLPC  H14R20943   2.839   0.872   4.512  0.0133 -1.4704  1.0802
  183SLPC  H14S20944   2.709   0.874   4.632 -0.9964  1.0337  0.5624
  183SLPC  C21520945   2.735   1.065   4.540  0.0974  0.0717  0.8982
  183SLPC  H15R20946   2.808   1.101   4.617 -2.7964  1.9536  2.9874
  183SLPC  H15S20947   2.642   1.099   4.590  0.0770  1.2423  0.1120
  183SLPC  C21620948   2.760   1.141   4.402  0.2607 -0.0673 -0.0523
  183SLPC  H16R20949   2.670   1.121   4.341 -0.0919 -3.7185  1.4346
  183SLPC  H16S20950   2.842   1.096   4.343  0.3184  0.1300 -0.1266
  183SLPC  C21720951   2.782   1.292   4.422  0.0324  0.1510  0.5121
  183SLPC  H17R20952   2.876   1.307   4.479  0.9950 -1.1630 -0.6743
  183SLPC  H17S20953   2.705   1.329   4.493  0.0110  1.1551 -0.0103
  183SLPC  C21820954   2.791   1.369   4.287 -0.0298 -0.5572  0.0559
  183SLPC  H18R20955   2.696   1.371   4.229 -1.5195  3.0663  2.2460
  183SLPC  H18S20956   2.863   1.314   4.223  1.6435  1.2314  0.2899
  183SLPC  H18T20957   2.825   1.473   4.308 -2.3362  0.2917 -0.0707
  183SLPC   C3320958   3.023   1.249   3.470 -0.0402 -0.3778 -0.0308
  183SLPC   H3X20959   3.130   1.276   3.457  0.0169  0.4453  1.7671
  183SLPC   H3Y20960   3.008   1.139   3.478  0.2796 -0.4822 -0.8152
  183SLPC   C3420961   3.001   1.306   3.608 -0.4035 -1.0352 -0.0657
  183SLPC   H4X20962   2.896   1.295   3.643 -0.5927  1.5480  0.3968
  183SLPC   H4Y20963   3.005   1.417   3.599  0.1019 -1.2331 -3.2015
  183SLPC   C3520964   3.110   1.256   3.709 -0.2024 -0.1344 -0.1530
  183SLPC   H5X20965   3.209   1.304   3.700 -0.0929 -0.1836  0.7011
  183SLPC   H5Y20966   3.139   1.154   3.676  1.2109  0.3643 -0.4921
  183SLPC   C3620967   3.066   1.256   3.852 -0.2887  0.0817 -0.5594
  183SLPC   H6X20968   2.976   1.191   3.856 -0.0627 -0.1632  0.8654
  183SLPC   H6Y20969   3.037   1.353   3.898 -1.4927 -1.1787  1.5045
  183SLPC   C3720970   3.161   1.199   3.955 -0.1694  0.4974 -0.4959
  183SLPC   H7X20971   3.216   1.285   4.000  1.1181 -0.7899  0.4865
  183SLPC   H7Y20972   3.245   1.142   3.911  0.1160  0.2890  0.2870
  183SLPC   C3820973   3.087   1.107   4.055  0.3196  0.0233  0.3282
  183SLPC   H8X20974   3.056   1.017   3.999 -0.9793  0.9937 -0.5859
  183SLPC   H8Y20975   2.995   1.151   4.101 -0.0167 -0.8951  0.5687
  183SLPC   C3920976   3.186   1.063   4.163 -0.1200  0.2958 -0.3320
  183SLPC   H9X20977   3.238   1.147   4.214  0.0665 -0.6527  1.1206
  183SLPC   H9Y20978   3.250   0.993   4.106 -0.9285 -0.2473 -0.5981
  183SLPC  C31020979   3.125   0.976   4.268 -0.3055  0.3139 -0.0963
  183SLPC  H10X20980   3.094   0.886   4.211  1.7438 -0.1056 -0.6392
  183SLPC  H10Y20981   3.040   1.020   4.323  0.4484 -0.5417  1.8448
  183SLPC  C31120982   3.229   0.942   4.377 -0.3209  0.6136 -0.8329
  183SLPC  H11X20983   3.284   1.030   4.417 -1.2116  1.7917 -2.1046
  183SLPC  H11Y20984   3.301   0.867   4.340 -1.1381 -1.2321  1.1268
  183SLPC  C31220985   3.160   0.880   4.501 -0.4549 -0.2142 -0.0091
  183SLPC  H12X20986   3.122   0.777   4.481  0.6732 -0.5354 -0.5803
  183SLPC  H12Y20987   3.069   0.938   4.526  0.7149  2.1242 -0.8076
  183SLPC  C31320988   3.261   0.864   4.618  0.4316 -0.1893 -0.0544
  183SLPC  H13X20989   3.297   0.967   4.638  1.6036 -0.4081 -0.9745
  183SLPC  H13Y20990   3.349   0.805   4.586 -0.9104 -2.0756 -0.4789
  183SLPC  C31420991   3.207   0.798   4.743  0.1808 -0.1325 -0.6076
  183SLPC  H14X20992   3.284   0.804   4.824 -0.7379 -0.4582  0.3046
  183SLPC  H14Y20993   3.199   0.689   4.724  2.1926 -0.6327  1.0384
  183SLPC  C31520994   3.079   0.849   4.809 -0.0016 -0.2890 -0.0326
  183SLPC  H15X20995   3.064   0.789   4.902  1.1216  1.5838  1.4383
  183SLPC  H15Y20996   2.988   0.837   4.747  0.3470  0.6481 -0.7338
  183SLPC  C31620997   3.078   0.995   4.855  0.5038  0.0228 -1.3122
  183SLPC  H16X20998   3.104   1.055   4.765  0.9645  0.7607 -0.7025
  183SLPC  H16Y20999   3.142   1.018   4.943  0.7158 -3.2865 -0.4757
  183SLPC  C31721000   2.935   1.050   4.890 -0.4756  0.5090 -0.3138
  183SLPC  H17X21001   2.895   1.015   4.987  1.3307 -1.1794 -0.1213
  183SLPC  H17Y21002   2.873   1.026   4.801  1.2360 -0.6243 -1.2755
  183SLPC  C31821003   2.940   1.204   4.917 -0.3703  0.3173 -0.4950
  183SLPC  H18X21004   2.838   1.240   4.940 -0.1805 -0.0668  1.0306
  183SLPC  H18Y21005   2.989   1.250   4.828 -1.7135 -2.2233 -2.6855
  183SLPC  H18Z21006   3.000   1.226   5.008  0.6987 -0.2638 -1.0309
  184SLPC     N21007   0.259   1.236   2.243  0.2503  0.2414 -0.6068
  184SLPC   C1321008   0.372   1.242   2.147 -0.7061  0.2539 -0.4363
  184SLPC  H13A21009   0.342   1.228   2.044  1.3524 -0.5884 -0.9634
  184SLPC  H13B21010   0.425   1.336   2.150 -0.3425  0.0317  0.0860
  184SLPC  H13C21011   0.441   1.162   2.167  1.2875  1.5824 -1.7108
  184SLPC   C1421012   0.192   1.099   2.229 -0.1794 -0.5697  0.2804
  184SLPC  H14A21013   0.165   1.085   2.126 -0.5687 -2.3375  0.5999
  184SLPC  H14B21014   0.258   1.017   2.251 -0.8226 -1.8926 -2.3571
  184SLPC  H14C21015   0.099   1.096   2.284 -1.4507  1.9218 -1.5330
  184SLPC   C1521016   0.159   1.337   2.194 -1.0340  0.3370 -0.2372
  184SLPC  H15A21017   0.144   1.316   2.089  0.4175  0.6504 -0.5320
  184SLPC  H15B21018   0.069   1.325   2.252 -0.2745  1.0761  1.1565
  184SLPC  H15C21019   0.185   1.443   2.196 -1.6444  0.5243 -1.3693
  184SLPC   C1221020   0.297   1.255   2.392 -0.5439  0.1741 -0.3574
  184SLPC  H12A21021   0.201   1.263   2.441 -1.3457 -0.3678 -1.7687
  184SLPC  H12B21022   0.346   1.351   2.400  2.7919 -1.3313 -1.0575
  184SLPC   C1121023   0.374   1.145   2.467  0.9310  0.3768  0.0187
  184SLPC  H11A21024   0.322   1.050   2.444  1.6638 -0.2134  0.7397
  184SLPC  H11B21025   0.368   1.155   2.578  1.4244 -2.0749  0.3174
  184SLPC     P21026   0.614   1.235   2.447  0.4817 -0.3033 -0.2588
  184SLPC   O1321027   0.737   1.170   2.499  0.1643  0.3966 -0.1177
  184SLPC   O1421028   0.639   1.323   2.331 -0.0864  0.1197 -0.3153
  184SLPC   O1221029   0.501   1.128   2.413  0.5342 -0.4693  0.6698
  184SLPC   O1121030   0.559   1.321   2.568  0.1899 -0.2563 -0.2158
  184SLPC    C121031   0.641   1.354   2.682 -0.5642  0.5985 -0.2677
  184SLPC    HA21032   0.745   1.381   2.656 -1.0466  3.6947  0.5646
  184SLPC    HB21033   0.610   1.445   2.739  1.3009  0.2437  1.4256
  184SLPC    C221034   0.633   1.236   2.780 -0.2778  0.2394 -0.1935
  184SLPC    HS21035   0.656   1.138   2.734  1.5186 -0.8379  2.6893
  184SLPC   O2121036   0.506   1.247   2.847  0.2575  0.0339 -0.2592
  184SLPC   C2121037   0.460   1.144   2.906 -0.2659  0.4969  0.3192
  184SLPC   O2221038   0.505   1.033   2.911 -0.4158  0.0321  0.3752
  184SLPC   C2221039   0.325   1.184   2.979  0.5125  0.4756  0.4387
  184SLPC   H2R21040   0.303   1.289   2.952 -0.9581  0.0201 -0.2054
  184SLPC   H2S21041   0.244   1.111   2.956  0.5621 -0.1187  2.0364
  184SLPC    C321042   0.750   1.241   2.891 -0.3990  0.6009 -0.2813
  184SLPC    HX21043   0.849   1.230   2.841 -0.4063  1.4540 -0.4963
  184SLPC    HY21044   0.737   1.160   2.967 -1.3334  0.6513 -0.3724
  184SLPC   O3121045   0.752   1.359   2.967 -0.1866  0.2222  0.1427
  184SLPC   C3121046   0.824   1.464   2.925  0.8281  0.9729  0.1067
  184SLPC   O3221047   0.912   1.452   2.842 -0.1038 -0.1347  0.0720
  184SLPC   C3221048   0.797   1.594   3.006 -0.4542 -0.6530  0.1490
  184SLPC   H2X21049   0.759   1.572   3.108 -0.0560  0.3039  0.5134
  184SLPC   H2Y21050   0.716   1.653   2.958 -0.1873 -0.2933  0.1343
  184SLPC   C2321051   0.345   1.171   3.131  0.0821 -0.0527 -0.2007
  184SLPC   H3R21052   0.249   1.204   3.177  0.3242 -1.4547  1.3806
  184SLPC   H3S21053   0.425   1.232   3.177  2.0937 -1.0727 -2.1158
  184SLPC   C2421054   0.366   1.029   3.190 -0.1100 -0.0567  0.5104
  184SLPC   H4R21055   0.463   0.989   3.151  0.5075  2.4874 -0.8102
  184SLPC   H4S21056   0.276   0.971   3.160 -1.0169  0.1090  2.7168
  184SLPC   C2521057   0.356   1.028   3.340 -0.2916 -0.0023  0.6220
  184SLPC   H5R21058   0.257   1.074   3.360 -0.0975  2.8922 -3.6565
  184SLPC   H5S21059   0.439   1.091   3.379 -0.8980  1.1345  0.1156
  184SLPC   C2621060   0.372   0.891   3.398  0.1806  0.3557 -0.6767
  184SLPC   H6R21061   0.476   0.855   3.384  0.3654 -0.8223  2.8224
  184SLPC   H6S21062   0.308   0.824   3.335  0.2815  0.8834 -1.3570
  184SLPC   C2721063   0.361   0.871   3.552 -0.8970 -0.4462  0.3179
  184SLPC   H7R21064   0.413   0.962   3.592 -1.2804 -0.8370  1.7370
  184SLPC   H7S21065   0.421   0.781   3.576  0.4637 -0.1469 -1.7340
  184SLPC   C2821066   0.221   0.875   3.607  0.1670  0.2321 -0.2430
  184SLPC   H8R21067   0.207   0.825   3.706  1.6716  0.6639  0.2111
  184SLPC   H8S21068   0.155   0.810   3.546  0.3135  0.7565 -0.9771
  184SLPC   C2921069   0.159   1.009   3.608 -0.0275 -0.0725 -0.0674
  184SLPC   H9R21070   0.106   1.031   3.514 -0.7511  0.8890  0.5529
  184SLPC  C21021071   0.138   1.088   3.718 -0.2607  0.5132 -0.0315
  184SLPC  H10R21072   0.074   1.177   3.722 -2.3248 -0.8357 -1.2407
  184SLPC  C21121073   0.187   1.032   3.856  0.1173 -0.3117  0.1659
  184SLPC  H11R21074   0.155   0.925   3.862  0.0147 -0.5028 -2.5901
  184SLPC  H11S21075   0.124   1.081   3.933  0.0246 -0.0597 -0.0703
  184SLPC  C21221076   0.335   1.050   3.884 -0.2755 -0.1725  0.8580
  184SLPC  H12R21077   0.393   1.032   3.793 -2.8560 -2.7101 -0.4154
  184SLPC  C21321078   0.394   1.072   4.002  0.4886 -0.3418  0.2788
  184SLPC  H13R21079   0.499   1.102   4.005  0.2160  0.5781  1.0967
  184SLPC  C21421080   0.310   1.086   4.132 -0.4182  0.2909 -0.8378
  184SLPC  H14R21081   0.348   1.025   4.217 -0.1838 -0.3505 -1.3962
  184SLPC  H14S21082   0.204   1.056   4.125 -1.3040  2.1822  2.2576
  184SLPC  C21521083   0.308   1.228   4.193 -0.0593 -0.0177 -0.0804
  184SLPC  H15R21084   0.238   1.290   4.132 -0.5085  1.4857  1.8613
  184SLPC  H15S21085   0.402   1.286   4.200  0.3307 -0.7942  1.6759
  184SLPC  C21621086   0.242   1.229   4.331  0.5099 -0.1230 -0.6712
  184SLPC  H16R21087   0.140   1.187   4.319  0.4562 -0.6835  1.3032
  184SLPC  H16S21088   0.236   1.336   4.361  1.6552  0.1739 -1.4444
  184SLPC  C21721089   0.311   1.149   4.447  0.4034  0.6410 -0.4808
  184SLPC  H17R21090   0.416   1.185   4.459  0.3147  0.8211 -0.2431
  184SLPC  H17S21091   0.314   1.042   4.418 -0.9199  0.4926 -0.1296
  184SLPC  C21821092   0.225   1.172   4.569  0.2839 -0.4895 -0.1749
  184SLPC  H18R21093   0.232   1.281   4.589  2.0045 -0.2792 -1.6355
  184SLPC  H18S21094   0.264   1.129   4.664  0.6861  0.1962 -0.0139
  184SLPC  H18T21095   0.120   1.136   4.570 -0.1111  0.6062 -0.4817
  184SLPC   C3321096   0.937   1.673   3.008  0.7003  0.2796  0.7613
  184SLPC   H3X21097   0.937   1.711   2.904  2.3379 -0.5315  0.4255
  184SLPC   H3Y21098   1.030   1.612   3.009 -0.0397 -0.8982 -0.1641
  184SLPC   C3421099   0.954   1.789   3.109  0.3061 -0.4703 -0.9280
  184SLPC   H4X21100   1.039   1.856   3.083  0.4907 -0.1224  0.5219
  184SLPC   H4Y21101   0.997   1.731   3.193  0.3083 -0.4857 -0.9393
  184SLPC   C3521102   0.839   1.882   3.137  0.6981  0.4567  0.2113
  184SLPC   H5X21103   0.739   1.834   3.146 -0.0040  1.8111 -0.1061
  184SLPC   H5Y21104   0.831   1.949   3.048  1.6544  1.6725  1.0173
  184SLPC   C3621105   0.875   1.972   3.259  0.3728  0.2548  0.1221
  184SLPC   H6X21106   0.781   2.025   3.282 -1.7508 -3.1485  0.0226
  184SLPC   H6Y21107   0.957   2.044   3.240 -0.3354  0.9810 -0.2511
  184SLPC   C3721108   0.918   1.899   3.387  0.2582 -0.0037 -0.2315
  184SLPC   H7X21109   1.017   1.848   3.380  0.5457  0.4519  0.4429
  184SLPC   H7Y21110   0.843   1.818   3.401  1.4498 -2.2402 -4.6980
  184SLPC   C3821111   0.930   1.985   3.510 -0.1642 -0.2638  0.3706
  184SLPC   H8X21112   0.850   2.062   3.513  2.5639  2.8317 -0.3248
  184SLPC   H8Y21113   1.029   2.035   3.501 -0.5493  0.4441  0.0636
  184SLPC   C3921114   0.940   1.904   3.639 -0.3737  0.0735 -0.3672
  184SLPC   H9X21115   1.020   1.828   3.624 -0.0329  0.0621  1.3100
  184SLPC   H9Y21116   0.837   1.862   3.645 -1.1294  1.7819 -0.8225
  184SLPC  C31021117   0.970   1.981   3.763 -0.2706 -0.0047 -0.2735
  184SLPC  H10X21118   0.888   2.054   3.780 -0.4554 -0.3532  0.3539
  184SLPC  H10Y21119   1.068   2.034   3.751  0.3187 -0.9039  0.4511
  184SLPC  C31121120   0.985   1.885   3.886 -0.0178  0.1380 -0.5197
  184SLPC  H11X21121   1.064   1.808   3.876 -1.2413 -1.2558  0.1237
  184SLPC  H11Y21122   0.896   1.821   3.904  1.9059 -2.3513  0.7547
  184SLPC  C31221123   1.007   1.972   4.011  0.6422 -0.1596  0.4725
  184SLPC  H12X21124   0.912   2.022   4.038 -0.3433 -0.9810 -1.2983
  184SLPC  H12Y21125   1.075   2.055   3.981 -0.5517  0.3653 -0.8668
  184SLPC  C31321126   1.040   1.896   4.145  0.6041  0.2472  0.9028
  184SLPC  H13X21127   1.134   1.840   4.127 -0.5939 -1.3054 -0.8846
  184SLPC  H13Y21128   0.974   1.807   4.152  1.0013 -0.6578 -3.8045
  184SLPC  C31421129   1.028   1.989   4.261  0.2331 -0.2472  0.3165
  184SLPC  H14X21130   0.968   2.081   4.244  1.6086  0.5579 -0.3651
  184SLPC  H14Y21131   1.129   2.019   4.295  0.3843 -2.2101  1.7777
  184SLPC  C31521132   0.966   1.911   4.384  0.2102  0.4322  0.2067
  184SLPC  H15X21133   1.035   1.829   4.413  1.2471  1.3929  0.4956
  184SLPC  H15Y21134   0.870   1.863   4.353  0.3332 -0.0935  0.6357
  184SLPC  C31621135   0.938   1.999   4.519 -0.2053  0.0190 -0.1532
  184SLPC  H16X21136   0.847   2.061   4.506 -1.6418 -1.9777 -0.0494
  184SLPC  H16Y21137   1.022   2.068   4.539 -0.2450 -0.4389  1.8117
  184SLPC  C31721138   0.910   1.922   4.653 -0.7914  0.7948  0.6227
  184SLPC  H17X21139   1.001   1.887   4.707 -0.9708  3.3764  2.8257
  184SLPC  H17Y21140   0.861   1.831   4.612  0.3798  0.1137  0.6645
  184SLPC  C31821141   0.823   1.997   4.755  0.2820 -0.3646  0.0508
  184SLPC  H18X21142   0.726   2.021   4.706 -0.8445 -2.2284  1.2641
  184SLPC  H18Y21143   0.874   2.089   4.791  4.1506 -2.7071  1.1474
  184SLPC  H18Z21144   0.808   1.931   4.843  3.4845 -0.2390  0.7851
  185POPC     N21145   0.008   6.788   7.456  0.6326  0.3280  0.8193
  185POPC   C1221146   0.123   6.870   7.407 -0.2266  0.8313 -0.0845
  185POPC  H12A21147   0.207   6.808   7.382  0.8078  1.8393  0.7724
  185POPC  H12B21148   0.145   6.944   7.482 -0.2037  0.8866 -0.1460
  185POPC   C1321149  -0.029   6.682   7.354  0.4081 -0.4423 -0.1684
  185POPC  H13A21150   0.054   6.613   7.353 -0.2138 -1.1935 -0.3730
  185POPC  H13B21151  -0.119   6.634   7.387  1.1402 -1.5145  0.3284
  185POPC  H13C21152  -0.035   6.720   7.253  2.4521 -0.5428 -0.3676
  185POPC   C1421153   0.044   6.713   7.578  0.5683 -0.1233 -0.3097
  185POPC  H14A21154   0.119   6.636   7.567  2.0114  0.6867  2.7109
  185POPC  H14B21155   0.083   6.776   7.657 -0.8231  0.2957  0.0713
  185POPC  H14C21156  -0.044   6.664   7.617  1.1208 -1.2946 -0.4770
  185POPC   C1521157  -0.113   6.869   7.478  0.4206 -0.3891 -0.9472
  185POPC  H15A21158  -0.133   6.932   7.393  1.8118  1.7528  0.2423
  185POPC  H15B21159  -0.109   6.934   7.564  0.7744 -2.2590  0.5195
  185POPC  H15C21160  -0.204   6.814   7.493  0.5511  0.4283  4.7541
  185POPC   C1121161   0.107   6.961   7.290  0.8737 -0.3263  0.0295
  185POPC  H11A21162   0.057   6.905   7.208  0.6598 -1.1428  0.6878
  185POPC  H11B21163   0.204   6.983   7.241  0.4739 -2.2277 -1.7365
  185POPC     P21164   0.104   7.200   7.382 -0.4074 -0.5254 -0.2455
  185POPC   O1321165   0.200   7.145   7.479 -0.6185 -0.0400  0.4107
  185POPC   O1421166  -0.006   7.282   7.427  0.7005 -0.3890 -0.6274
  185POPC   O1221167   0.033   7.073   7.325  0.4655  0.5229 -0.4152
  185POPC   O1121168   0.174   7.257   7.251 -0.1224 -0.0690 -0.0694
  185POPC    C121169   0.132   7.235   7.119 -0.1995 -0.1137 -0.4028
  185POPC    HA21170   0.023   7.252   7.117 -0.4672 -1.6263  0.0476
  185POPC    HB21171   0.163   7.137   7.076  3.1958  0.8359 -0.4262
  185POPC    C221172   0.201   7.348   7.039 -0.0353 -0.4503  0.0394
  185POPC    HS21173   0.132   7.350   6.952 -1.9860  2.7848  1.4552
  185POPC   O2121174   0.344   7.327   7.006  0.1903  0.2889 -0.2741
  185POPC   C2121175   0.351   7.222   6.924 -0.3519  0.8057 -0.7027
  185POPC   O2221176   0.260   7.163   6.867  0.5836 -0.1249 -0.3044
  185POPC   C2221177   0.500   7.186   6.906 -0.0746 -0.8477 -0.0565
  185POPC   H2R21178   0.513   7.076   6.898  1.2897 -0.6651 -0.4320
  185POPC   H2S21179   0.549   7.229   6.996  0.2876  0.6119 -0.9395
  185POPC    C321180   0.192   7.486   7.095  1.1409 -0.7807 -0.0999
  185POPC    HX21181   0.262   7.497   7.180  2.9988 -1.4755 -1.4550
  185POPC    HY21182   0.089   7.497   7.134  1.2228  2.5856 -0.5515
  185POPC   O3121183   0.219   7.597   7.006  0.1252  0.3851 -0.1144
  185POPC   C3121184   0.144   7.618   6.899 -0.2216 -0.4451 -0.2602
  185POPC   O3221185   0.051   7.550   6.857 -0.1768  0.1551  0.2653
  185POPC   C3221186   0.195   7.743   6.820 -0.2288 -1.1624 -0.0086
  185POPC   H2X21187   0.269   7.805   6.876  0.0552 -0.8014 -0.7670
  185POPC   H2Y21188   0.102   7.802   6.825 -0.4424 -1.1652 -2.8132
  185POPC   C2321189   0.553   7.242   6.769  0.4300  0.7415  0.4102
  185POPC   H3R21190   0.664   7.233   6.767  0.3953  0.3297  0.1515
  185POPC   H3S21191   0.528   7.350   6.766  0.5532  0.7773  0.6109
  185POPC   C2421192   0.509   7.165   6.648  0.0781  0.2814 -0.2379
  185POPC   H4R21193   0.402   7.187   6.630 -0.4121 -2.2926 -1.0453
  185POPC   H4S21194   0.524   7.057   6.672  0.9847  0.3777 -0.3240
  185POPC   C2521195   0.588   7.218   6.528  0.6852  1.6233  0.0549
  185POPC   H5R21196   0.696   7.191   6.528  0.8707  2.2178 -1.9278
  185POPC   H5S21197   0.572   7.326   6.510 -0.4000  1.4048 -0.3413
  185POPC   C2621198   0.537   7.161   6.393 -0.4754 -0.4025  0.7408
  185POPC   H6R21199   0.440   7.108   6.391 -0.7342 -0.2806 -4.7730
  185POPC   H6S21200   0.605   7.079   6.361  2.3276  0.5671  3.6586
  185POPC   C2721201   0.513   7.271   6.288 -0.6486  0.1059  0.3395
  185POPC   H7R21202   0.464   7.361   6.330 -2.0703 -1.0336  1.2106
  185POPC   H7S21203   0.448   7.221   6.213  1.4112  0.0822 -1.5324
  185POPC   C2821204   0.641   7.316   6.213 -0.4676 -0.5662 -0.0383
  185POPC   H8R21205   0.702   7.388   6.271 -0.9565 -1.8612  2.1717
  185POPC   H8S21206   0.600   7.384   6.135  2.8606  3.5946  1.4653
  185POPC   C2921207   0.733   7.203   6.166  0.3447  0.4149  0.1281
  185POPC   H9121208   0.809   7.176   6.241 -2.0339 -0.4821  2.3897
  185POPC  C21021209   0.735   7.149   6.043 -0.7715 -0.3128  0.1978
  185POPC  H10121210   0.809   7.069   6.026  0.3376  0.8907 -0.9051
  185POPC  C21121211   0.643   7.175   5.930 -0.2848  0.1492  0.2549
  185POPC  H11R21212   0.688   7.208   5.834 -3.4379  0.2911 -1.3199
  185POPC  H11S21213   0.571   7.252   5.965  0.2761  0.8069 -0.0070
  185POPC  C21221214   0.555   7.052   5.893 -0.2863  0.1594  1.1340
  185POPC  H12R21215   0.531   7.000   5.988  0.8604 -0.4082  1.1402
  185POPC  H12S21216   0.608   6.980   5.826  0.5426 -0.6317  2.5929
  185POPC  C21321217   0.419   7.082   5.827  0.4333  0.1244  0.5046
  185POPC  H13R21218   0.351   7.141   5.893 -2.2560 -0.4872 -1.5292
  185POPC  H13S21219   0.361   6.988   5.817 -1.7183  1.5976 -1.9019
  185POPC  C21421220   0.419   7.120   5.671  0.2375  0.0887  0.3170
  185POPC  H14R21221   0.506   7.068   5.628  0.1357  0.7526 -0.7164
  185POPC  H14S21222   0.420   7.230   5.661  0.8964 -0.1214 -2.7940
  185POPC  C21521223   0.292   7.081   5.599 -0.2917  0.5753 -0.3084
  185POPC  H15R21224   0.196   7.103   5.650  0.1357 -1.3522  1.4884
  185POPC  H15S21225   0.290   6.970   5.596 -0.7767  0.5905 -0.7059
  185POPC  C21621226   0.285   7.126   5.453  0.5462  0.5048  0.0883
  185POPC  H16R21227   0.233   7.045   5.399  1.1161  0.6068 -0.6317
  185POPC  H16S21228   0.386   7.132   5.407  1.3273 -3.2527  0.9400
  185POPC  C21721229   0.199   7.250   5.417  0.2651 -0.8386 -0.0432
  185POPC  H17R21230   0.235   7.343   5.466  1.7255 -0.2490 -2.0943
  185POPC  H17S21231   0.091   7.242   5.441 -0.4365  3.2358 -1.0376
  185POPC  C21821232   0.220   7.272   5.268  0.1879 -0.2875 -0.2927
  185POPC  H18R21233   0.329   7.279   5.251  0.2590 -1.2355 -0.3062
  185POPC  H18S21234   0.162   7.360   5.233 -0.6306 -1.4503 -1.9985
  185POPC  H18T21235   0.190   7.183   5.208 -2.4183 -0.5656  1.2526
  185POPC   C3321236   0.237   7.696   6.681  0.9092  0.7918  0.3056
  185POPC   H3X21237   0.235   7.786   6.615  0.4712  0.6114  0.0631
  185POPC   H3Y21238   0.163   7.636   6.625 -0.0125  1.0069  1.2657
  185POPC   C3421239   0.376   7.630   6.680 -0.5179 -0.3459 -0.1541
  185POPC   H4X21240   0.366   7.520   6.687 -1.8536 -0.2562 -0.4231
  185POPC   H4Y21241   0.421   7.665   6.775  0.7811 -0.5891 -0.6552
  185POPC   C3521242   0.461   7.676   6.561 -0.7092  0.4127  0.2948
  185POPC   H5X21243   0.564   7.635   6.571 -0.2198  1.2389 -1.1229
  185POPC   H5Y21244   0.483   7.784   6.575  2.7410 -0.2070  0.5960
  185POPC   C3621245   0.393   7.666   6.420  1.0003  0.1000  0.2222
  185POPC   H6X21246   0.308   7.736   6.431  0.4219 -0.8388  2.5664
  185POPC   H6Y21247   0.345   7.568   6.396 -1.9730  1.5542 -0.3046
  185POPC   C3721248   0.479   7.687   6.298 -1.1530 -0.3471 -0.0529
  185POPC   H7X21249   0.576   7.635   6.294 -0.5894  0.7131 -2.3903
  185POPC   H7Y21250   0.504   7.796   6.299  1.4883 -0.9026  1.8997
  185POPC   C3821251   0.403   7.667   6.166  0.2081 -0.3382 -0.1507
  185POPC   H8X21252   0.323   7.743   6.153  1.8342  0.9820 -3.3834
  185POPC   H8Y21253   0.364   7.563   6.167 -0.4460 -0.1249  1.9295
  185POPC   C3921254   0.501   7.688   6.048 -0.6573  0.0989 -0.0744
  185POPC   H9X21255   0.601   7.641   6.052 -0.8840 -0.3562  0.3576
  185POPC   H9Y21256   0.514   7.797   6.033 -2.3319  0.2177 -0.9788
  185POPC  C31021257   0.433   7.623   5.933 -0.4174 -0.8549  0.1821
  185POPC  H10X21258   0.328   7.654   5.920 -0.1536  1.0102  1.9058
  185POPC  H10Y21259   0.423   7.516   5.958  0.1997 -0.6733  1.2795
  185POPC  C31121260   0.515   7.629   5.800 -0.1235 -0.4876  0.7015
  185POPC  H11X21261   0.608   7.570   5.814 -0.1216 -0.2602  1.7233
  185POPC  H11Y21262   0.535   7.738   5.788  1.2627 -0.6428  1.4132
  185POPC  C31221263   0.422   7.609   5.675 -0.5192 -0.1426  0.9718
  185POPC  H12X21264   0.335   7.678   5.680  1.1079  1.9264  1.8026
  185POPC  H12Y21265   0.388   7.503   5.681 -2.2076  0.3426  0.5367
  185POPC  C31321266   0.494   7.616   5.539 -0.7127  0.2508  0.8006
  185POPC  H13X21267   0.424   7.583   5.460  0.3374  1.6876 -0.8033
  185POPC  H13Y21268   0.575   7.540   5.530  0.5078  1.5186  0.6134
  185POPC  C31421269   0.553   7.760   5.510 -0.0249 -0.1530 -0.7032
  185POPC  H14X21270   0.641   7.766   5.578 -0.5073 -4.7811  0.6460
  185POPC  H14Y21271   0.483   7.844   5.529  1.5994  1.2494 -0.7347
  185POPC  C31521272   0.603   7.791   5.373 -0.3515 -0.4143  0.8325
  185POPC  H15X21273   0.690   7.725   5.356  0.3487  0.8529 -0.7494
  185POPC  H15Y21274   0.640   7.896   5.365  0.3125 -0.7804 -1.8931
  185POPC  C31621275   0.509   7.756   5.257 -0.0924 -0.1045  0.2340
  185POPC  H16X21276   0.414   7.810   5.276 -1.8528 -2.6965 -0.6051
  185POPC  H16Y21277   0.482   7.648   5.257  0.8729 -0.4310  2.9717
  185POPC  H16Z21278   0.556   7.788   5.161  0.0637  2.5331  1.1189
  186POPC     N21279   3.362   3.237   7.315  0.2135 -0.1934  0.4931
  186POPC   C1221280   3.302   3.238   7.174 -0.6396 -0.0849  0.5734
  186POPC  H12A21281   3.235   3.156   7.152 -0.2210 -1.1737  3.0795
  186POPC  H12B21282   3.382   3.233   7.101 -0.8660  2.2848  0.0766
  186POPC   C1321283   3.451   3.116   7.331 -0.0618  0.5298 -0.3714
  186POPC  H13A21284   3.495   3.113   7.429  0.6324  0.1605 -0.6925
  186POPC  H13B21285   3.387   3.030   7.319 -0.5709  1.1016 -2.0733
  186POPC  H13C21286   3.530   3.096   7.260  2.8231  0.6221  2.5985
  186POPC   C1421287   3.449   3.357   7.333 -0.2829 -0.1309 -0.1150
  186POPC  H14A21288   3.404   3.455   7.332  0.5418  0.2605 -0.2741
  186POPC  H14B21289   3.488   3.357   7.434 -0.8863 -0.7578  0.1181
  186POPC  H14C21290   3.527   3.359   7.258 -0.3833  0.2862 -0.2123
  186POPC   C1521291   3.259   3.237   7.417 -0.9710 -0.2805 -0.1513
  186POPC  H15A21292   3.196   3.323   7.399 -1.0229 -0.6618 -2.0589
  186POPC  H15B21293   3.296   3.235   7.518 -1.6741 -1.6235  0.1076
  186POPC  H15C21294   3.194   3.152   7.400  0.0230 -0.8560 -1.1559
  186POPC   C1121295   3.230   3.374   7.131  0.0447  0.3665 -0.0327
  186POPC  H11A21296   3.226   3.365   7.021 -1.8706  1.4524 -0.0972
  186POPC  H11B21297   3.298   3.459   7.154 -2.0106  1.9002  0.6830
  186POPC     P21298   2.970   3.315   7.172 -0.2081 -0.5360 -0.3107
  186POPC   O1321299   2.871   3.381   7.256  0.3050  0.6998  0.0643
  186POPC   O1421300   2.977   3.171   7.183 -0.0519  0.1655  0.5528
  186POPC   O1221301   3.111   3.381   7.205  0.9590 -0.3148  0.4714
  186POPC   O1121302   2.950   3.352   7.021  0.2462 -0.2499 -0.1940
  186POPC    C121303   2.979   3.491   6.982 -0.5177 -0.1367  0.1398
  186POPC    HA21304   3.078   3.532   7.009  0.5915 -2.0283 -0.8126
  186POPC    HB21305   2.894   3.561   6.997 -0.3836  0.0431  0.0691
  186POPC    C221306   2.985   3.490   6.826 -0.5459  0.1284 -0.9306
  186POPC    HS21307   2.889   3.440   6.798 -1.1187  0.8749 -0.3484
  186POPC   O2121308   3.105   3.424   6.782 -0.6355 -0.1975  0.0724
  186POPC   C2121309   3.101   3.290   6.769 -0.7986 -0.1689  0.1563
  186POPC   O2221310   3.013   3.213   6.798 -0.0174 -0.0657  0.4221
  186POPC   C2221311   3.243   3.246   6.720  0.4952  0.8870  0.4082
  186POPC   H2R21312   3.275   3.172   6.796 -2.4436 -0.6976  0.2594
  186POPC   H2S21313   3.300   3.340   6.734 -2.5020  2.7767  0.8137
  186POPC    C321314   2.978   3.636   6.778 -0.9728  0.3641 -0.2159
  186POPC    HX21315   3.059   3.703   6.813 -2.9149  1.7787  1.8710
  186POPC    HY21316   2.885   3.670   6.829 -0.0488  1.4005  0.8421
  186POPC   O3121317   2.955   3.633   6.640  0.1430  0.2457 -0.0402
  186POPC   C3121318   3.061   3.669   6.570  0.5264 -0.5096  0.2995
  186POPC   O3221319   3.168   3.718   6.609 -0.1127 -0.2792 -0.0727
  186POPC   C3221320   3.023   3.653   6.422  0.3060 -0.1633  0.2039
  186POPC   H2X21321   2.918   3.688   6.416  0.2291 -0.3857  0.2150
  186POPC   H2Y21322   3.023   3.547   6.388  0.8220  0.3764 -1.6121
  186POPC   C2321323   3.233   3.170   6.591  0.3081 -0.1976 -0.3520
  186POPC   H3R21324   3.171   3.078   6.602  0.9459 -0.8331 -1.8992
  186POPC   H3S21325   3.333   3.130   6.564 -0.4238 -0.4353 -3.0103
  186POPC   C2421326   3.179   3.265   6.475 -0.3664 -0.3695 -0.5483
  186POPC   H4R21327   3.265   3.305   6.418  1.3399  0.1424  2.1696
  186POPC   H4S21328   3.123   3.353   6.514 -0.8760  0.1450 -2.3622
  186POPC   C2521329   3.091   3.195   6.380  0.1499 -0.1536  0.3329
  186POPC   H5R21330   3.004   3.155   6.438  1.5645 -1.9572  1.3287
  186POPC   H5S21331   3.147   3.106   6.345 -1.2916 -0.7497 -0.5445
  186POPC   C2621332   3.047   3.285   6.262  0.2026  0.7718 -0.3811
  186POPC   H6R21333   3.133   3.356   6.250  1.3414 -0.3722  0.6630
  186POPC   H6S21334   2.956   3.337   6.297 -0.3762 -0.9172  0.7686
  186POPC   C2721335   3.033   3.217   6.123 -0.1535 -0.1165 -0.6345
  186POPC   H7R21336   2.955   3.141   6.143  1.2918 -0.8990  2.7688
  186POPC   H7S21337   3.129   3.165   6.103 -0.3243 -1.1892  1.0807
  186POPC   C2821338   3.002   3.315   6.006 -0.1867  0.6154  0.3195
  186POPC   H8R21339   3.095   3.355   5.959 -0.9050  3.0924  0.8575
  186POPC   H8S21340   2.952   3.407   6.041  0.0570  1.2062 -0.8296
  186POPC   C2921341   2.916   3.259   5.892 -0.0298  0.0883 -0.7744
  186POPC   H9121342   2.814   3.227   5.918  0.4630 -1.2966 -0.4885
  186POPC  C21021343   2.937   3.243   5.761  0.7438 -0.0832  0.0660
  186POPC  H10121344   2.855   3.193   5.709  0.9914 -1.0488  0.5888
  186POPC  C21121345   3.056   3.269   5.681 -0.4369  0.0282 -0.1511
  186POPC  H11R21346   3.103   3.171   5.655  1.1778 -0.2277  3.1475
  186POPC  H11S21347   3.139   3.311   5.743  0.1100 -1.1431 -0.0579
  186POPC  C21221348   3.023   3.354   5.560  0.5628  0.1380 -0.5686
  186POPC  H12R21349   2.956   3.437   5.588  1.2279  0.2344  0.8220
  186POPC  H12S21350   2.957   3.296   5.493  0.8245 -0.7040 -0.1172
  186POPC  C21321351   3.157   3.400   5.491 -0.1290 -0.1666 -0.0091
  186POPC  H13R21352   3.225   3.314   5.511 -0.7907 -0.7594 -0.2721
  186POPC  H13S21353   3.200   3.484   5.550 -0.0751  0.1768 -0.5347
  186POPC  C21421354   3.144   3.439   5.346  0.9513  0.3579  0.2682
  186POPC  H14R21355   3.098   3.358   5.287 -0.4417  0.5326  1.0762
  186POPC  H14S21356   3.245   3.468   5.309  1.7874 -0.7959  1.5591
  186POPC  C21521357   3.064   3.571   5.303  0.0721  0.2089 -0.6273
  186POPC  H15R21358   3.091   3.660   5.363 -0.7017 -1.8393  3.0366
  186POPC  H15S21359   2.960   3.543   5.331  0.3175  1.7681  2.2251
  186POPC  C21621360   3.074   3.596   5.145  0.7833  0.4947 -0.7282
  186POPC  H16R21361   2.971   3.623   5.114 -0.9772  0.6629  4.3256
  186POPC  H16S21362   3.091   3.500   5.092  2.1964  2.0362 -3.2595
  186POPC  C21721363   3.186   3.695   5.119 -0.1628  0.1528 -0.5270
  186POPC  H17R21364   3.277   3.660   5.173 -1.1432 -0.5502  0.7335
  186POPC  H17S21365   3.162   3.795   5.160  1.8695  0.1037  0.9502
  186POPC  C21821366   3.216   3.724   4.971  0.3375  0.1303  0.3703
  186POPC  H18R21367   3.126   3.757   4.915  1.0123  0.5639 -0.4709
  186POPC  H18S21368   3.252   3.627   4.932 -1.3825 -1.4491  2.4495
  186POPC  H18T21369   3.287   3.807   4.952  1.1857 -0.6284  0.1381
  186POPC   C3321370   3.120   3.729   6.324  0.2763  0.0881 -0.4765
  186POPC   H3X21371   3.227   3.703   6.316  0.2352  0.2166 -1.8185
  186POPC   H3Y21372   3.111   3.835   6.357  1.6877  0.1587 -0.2576
  186POPC   C3421373   3.062   3.726   6.181 -0.1136 -0.1675 -0.1781
  186POPC   H4X21374   3.065   3.619   6.153  1.2738 -1.1533  3.2223
  186POPC   H4Y21375   3.124   3.794   6.118  0.6062  1.1978  1.8802
  186POPC   C3521376   2.913   3.781   6.166  1.1554  0.0232 -0.1275
  186POPC   H5X21377   2.923   3.889   6.192  0.9646 -0.0465  0.2390
  186POPC   H5Y21378   2.833   3.729   6.223  0.4270 -1.3439 -2.2944
  186POPC   C3621379   2.881   3.755   6.020  0.1369  0.1169  0.6027
  186POPC   H6X21380   2.882   3.646   5.999  0.1476  0.1543  0.4016
  186POPC   H6Y21381   2.973   3.797   5.974 -0.6072  0.6850 -0.4075
  186POPC   C3721382   2.767   3.825   5.955 -0.2656  0.0093 -0.0929
  186POPC   H7X21383   2.769   3.928   5.998  1.2161  0.3498 -0.9140
  186POPC   H7Y21384   2.672   3.776   5.982 -0.7318  1.0446  0.1901
  186POPC   C3821385   2.778   3.844   5.804 -0.7166 -0.6086 -0.0910
  186POPC   H8X21386   2.855   3.917   5.772 -0.1610 -1.1070  0.0758
  186POPC   H8Y21387   2.676   3.868   5.767  0.1474  1.8407 -1.1234
  186POPC   C3921388   2.817   3.707   5.730  0.0892  1.1210  0.4531
  186POPC   H9X21389   2.745   3.629   5.763  2.2827 -0.3558  1.9729
  186POPC   H9Y21390   2.919   3.682   5.766 -0.2140  2.0165  1.9762
  186POPC  C31021391   2.824   3.712   5.575  0.5590  0.8393  0.1216
  186POPC  H10X21392   2.840   3.612   5.530  0.9884  0.2057  1.5976
  186POPC  H10Y21393   2.909   3.778   5.546 -0.0290  0.9707 -1.3954
  186POPC  C31121394   2.706   3.770   5.503 -0.1173 -0.5073  0.9691
  186POPC  H11X21395   2.698   3.879   5.522  0.5854  0.1838 -2.1395
  186POPC  H11Y21396   2.609   3.728   5.537 -1.3692  1.3146 -0.1310
  186POPC  C31221397   2.706   3.747   5.350  0.1094 -0.2842 -0.1146
  186POPC  H12X21398   2.702   3.638   5.325 -0.2102 -0.2430 -0.2500
  186POPC  H12Y21399   2.802   3.786   5.311  0.4113  0.1947  1.0657
  186POPC  C31321400   2.591   3.806   5.272  0.9024 -0.4080  0.6012
  186POPC  H13X21401   2.563   3.904   5.317  0.2885  0.0831 -0.7884
  186POPC  H13Y21402   2.506   3.735   5.285  1.2738 -0.7902  0.9620
  186POPC  C31421403   2.608   3.838   5.120  0.5542 -0.0734  0.1129
  186POPC  H14X21404   2.677   3.924   5.114  0.6523 -0.0963  0.8717
  186POPC  H14Y21405   2.517   3.877   5.068  2.0489  1.4245 -1.5401
  186POPC  C31521406   2.653   3.719   5.036 -0.3374 -0.5244  0.4475
  186POPC  H15X21407   2.587   3.632   5.057 -1.4376  0.6349  2.0185
  186POPC  H15Y21408   2.759   3.690   5.052  0.4039  1.6559 -0.1483
  186POPC  C31621409   2.633   3.751   4.890  1.2299  0.4272  0.0856
  186POPC  H16X21410   2.525   3.754   4.864  1.4548 -1.3091 -1.1996
  186POPC  H16Y21411   2.669   3.680   4.813 -1.1986  0.5954 -1.3130
  186POPC  H16Z21412   2.672   3.853   4.869  1.3937  0.3085 -0.1944
  187POPC     N21413   2.510   6.116   2.793  1.1000  0.3283 -0.1390
  187POPC   C1221414   2.598   5.995   2.842  0.8093  0.4334  0.9607
  187POPC  H12A21415   2.557   5.953   2.932 -0.4385 -1.8992 -0.5998
  187POPC  H12B21416   2.694   6.041   2.860  1.1571  0.3974 -0.7029
  187POPC   C1321417   2.565   6.180   2.673 -0.9240 -0.8674 -0.6524
  187POPC  H13A21418   2.497   6.254   2.635 -1.2474  0.4386  2.1942
  187POPC  H13B21419   2.653   6.238   2.698 -0.5511 -1.1425 -1.2809
  187POPC  H13C21420   2.590   6.111   2.594  2.4308 -0.0589 -0.4422
  187POPC   C1421421   2.364   6.075   2.773  0.3019  0.7379 -0.2660
  187POPC  H14A21422   2.315   6.051   2.866  3.1507  1.0659  1.4076
  187POPC  H14B21423   2.312   6.157   2.726  1.2075  1.3925 -0.1461
  187POPC  H14C21424   2.364   5.986   2.711  2.8476 -0.0573  0.7495
  187POPC   C1521425   2.513   6.212   2.907 -0.2944 -0.3225  0.3739
  187POPC  H15A21426   2.611   6.253   2.927 -0.9091  0.5622  1.6241
  187POPC  H15B21427   2.490   6.169   3.003 -2.1468 -0.3691 -0.0421
  187POPC  H15C21428   2.448   6.297   2.898 -1.2124 -0.9531  0.8629
  187POPC   C1121429   2.613   5.881   2.741 -0.3530 -0.2532  0.1416
  187POPC  H11A21430   2.689   5.810   2.780  2.2636  1.0510 -2.2512
  187POPC  H11B21431   2.663   5.928   2.654 -2.3386  1.7926 -0.0031
  187POPC     P21432   2.485   5.689   2.628 -0.2200  0.2957 -0.0370
  187POPC   O1321433   2.574   5.708   2.510  0.5686  0.6961 -0.3102
  187POPC   O1421434   2.345   5.658   2.598 -0.2681  0.1669  0.4671
  187POPC   O1221435   2.485   5.822   2.710 -0.1573 -0.0731  0.2984
  187POPC   O1121436   2.551   5.574   2.720 -0.5626  0.2163  0.2841
  187POPC    C121437   2.486   5.453   2.758 -0.4151 -0.0240  0.4275
  187POPC    HA21438   2.550   5.367   2.729 -1.5332 -0.8650  0.3972
  187POPC    HB21439   2.389   5.442   2.704 -1.4564  2.0382  1.7392
  187POPC    C221440   2.459   5.436   2.910  0.8107 -0.1748 -0.1118
  187POPC    HS21441   2.379   5.506   2.941  0.6778 -0.0915 -0.6294
  187POPC   O2121442   2.577   5.459   2.996 -0.3255  0.5519 -0.2563
  187POPC   C2121443   2.596   5.581   3.038  0.9682 -0.2408 -0.6430
  187POPC   O2221444   2.523   5.676   3.029 -0.5204  0.3406  0.2140
  187POPC   C2221445   2.736   5.601   3.101 -0.4417  0.2199  0.6526
  187POPC   H2R21446   2.780   5.684   3.042  0.5497  1.1682  2.6301
  187POPC   H2S21447   2.792   5.508   3.076  1.4353  1.7796 -1.2970
  187POPC    C321448   2.418   5.285   2.939 -0.9012 -0.0122  1.2567
  187POPC    HX21449   2.509   5.222   2.931  0.1660  1.6913 -1.3138
  187POPC    HY21450   2.347   5.258   2.858  0.9996 -1.8704  0.1134
  187POPC   O3121451   2.357   5.275   3.068 -0.2652 -0.0672 -0.2068
  187POPC   C3121452   2.432   5.222   3.172  0.6754 -0.0553  0.2501
  187POPC   O3221453   2.542   5.177   3.165 -0.6606  0.0070  0.2435
  187POPC   C3221454   2.342   5.209   3.292  0.0471  0.0786 -0.6480
  187POPC   H2X21455   2.400   5.184   3.384 -2.0966 -1.4985  0.3519
  187POPC   H2Y21456   2.297   5.110   3.268  0.2284 -0.2902  0.4625
  187POPC   C2321457   2.729   5.614   3.250  0.3690  0.0663  0.7867
  187POPC   H3R21458   2.668   5.704   3.272 -0.7211 -0.6846  0.8776
  187POPC   H3S21459   2.834   5.622   3.286  0.3119 -1.6438  1.4482
  187POPC   C2421460   2.664   5.502   3.327  0.9799  1.3798 -0.2910
  187POPC   H4R21461   2.720   5.418   3.281 -0.4671  2.1306 -3.7517
  187POPC   H4S21462   2.558   5.495   3.295  0.8864  2.2621 -0.1772
  187POPC   C2521463   2.642   5.518   3.485 -0.5839  0.0437 -0.2958
  187POPC   H5R21464   2.589   5.615   3.494 -1.5495 -0.3301 -1.6625
  187POPC   H5S21465   2.743   5.533   3.529  0.0229 -2.3999 -0.6966
  187POPC   C2621466   2.567   5.414   3.575  0.2944  0.3349  0.6303
  187POPC   H6R21467   2.622   5.318   3.590  0.1031  0.0867 -0.2405
  187POPC   H6S21468   2.469   5.387   3.530  0.1094  1.1639  0.5227
  187POPC   C2721469   2.548   5.476   3.706 -0.1530 -0.1175  0.1293
  187POPC   H7R21470   2.487   5.569   3.703 -2.4282 -1.5572 -0.8273
  187POPC   H7S21471   2.649   5.496   3.748  0.2212  1.2533 -1.3266
  187POPC   C2821472   2.487   5.383   3.816  0.5406 -0.0382  1.1358
  187POPC   H8R21473   2.545   5.288   3.815 -1.5800 -1.4417  2.7277
  187POPC   H8S21474   2.386   5.356   3.779  0.4324  2.0060 -0.2726
  187POPC   C2921475   2.473   5.443   3.950 -1.0467  0.5106  0.3943
  187POPC   H9121476   2.562   5.502   3.977 -0.9759  0.2848  0.6603
  187POPC  C21021477   2.362   5.461   4.019  0.3713 -0.5211 -0.8024
  187POPC  H10121478   2.366   5.512   4.117  2.5225 -0.3497 -0.9306
  187POPC  C21121479   2.227   5.396   3.990 -0.2368 -0.5860 -1.0032
  187POPC  H11R21480   2.179   5.442   3.901 -3.1666  0.1505  0.8060
  187POPC  H11S21481   2.157   5.420   4.073  0.3121 -0.3493 -0.6048
  187POPC  C21221482   2.222   5.241   3.978 -0.2451 -0.7871  0.1067
  187POPC  H12R21483   2.321   5.196   3.997 -1.2571 -2.3314  2.1479
  187POPC  H12S21484   2.184   5.215   3.877 -0.2096 -0.1872 -0.0635
  187POPC  C21321485   2.116   5.159   4.060 -0.1280 -0.7893  0.4186
  187POPC  H13R21486   2.043   5.223   4.115  0.0158  0.2145 -0.5380
  187POPC  H13S21487   2.165   5.103   4.143  4.0729  2.3103  0.3204
  187POPC  C21421488   2.033   5.065   3.967 -0.0497 -0.3848 -0.6555
  187POPC  H14R21489   1.983   5.124   3.888 -2.0220  0.5832  1.2048
  187POPC  H14S21490   1.957   5.008   4.026 -0.4555  0.8093  0.0075
  187POPC  C21521491   2.125   4.962   3.909 -0.0857 -0.3363  0.7745
  187POPC  H15R21492   2.160   4.891   3.987 -0.0440  0.5964  1.6148
  187POPC  H15S21493   2.210   5.015   3.861 -0.9126 -0.2725 -0.6829
  187POPC  C21621494   2.052   4.874   3.799 -0.1782 -0.4229 -0.4519
  187POPC  H16R21495   2.020   4.938   3.714 -1.2576 -2.1138 -1.3769
  187POPC  H16S21496   1.957   4.841   3.848 -0.3556  1.2431  0.3762
  187POPC  C21721497   2.135   4.754   3.766 -0.2848  0.5034 -0.0567
  187POPC  H17R21498   2.129   4.684   3.852  3.6804 -1.0255 -0.8171
  187POPC  H17S21499   2.241   4.787   3.767  1.3781 -3.8390  3.8676
  187POPC  C21821500   2.096   4.677   3.640 -0.5938 -0.6761 -0.0070
  187POPC  H18R21501   2.097   4.737   3.547 -0.7082 -0.7010 -0.0251
  187POPC  H18S21502   2.006   4.611   3.645  0.3698 -1.9275  1.7248
  187POPC  H18T21503   2.180   4.604   3.640 -0.1771 -0.1999  0.1030
  187POPC   C3321504   2.235   5.316   3.310  0.3095 -0.0703  0.1692
  187POPC   H3X21505   2.170   5.316   3.220  0.3986 -1.0912  0.0978
  187POPC   H3Y21506   2.271   5.417   3.337  0.5833  0.1051 -0.8211
  187POPC   C3421507   2.141   5.284   3.434 -0.6454 -0.1005 -0.5597
  187POPC   H4X21508   2.205   5.265   3.524 -2.8546  0.1369  1.1357
  187POPC   H4Y21509   2.086   5.189   3.417 -0.1882 -1.0245  2.5034
  187POPC   C3521510   2.049   5.400   3.476 -0.5652 -0.0785 -0.2779
  187POPC   H5X21511   1.974   5.418   3.397 -0.2911 -1.6311 -0.9276
  187POPC   H5Y21512   2.117   5.487   3.491  1.3540 -1.4750 -0.5222
  187POPC   C3621513   1.992   5.376   3.625 -0.5503 -0.3037  0.9885
  187POPC   H6X21514   2.068   5.317   3.681  0.2097  0.3031  0.6195
  187POPC   H6Y21515   1.894   5.325   3.620 -0.9187  0.4908 -0.7052
  187POPC   C3721516   1.961   5.511   3.682 -0.5429  0.0990 -0.2827
  187POPC   H7X21517   1.884   5.573   3.631 -1.0251 -1.1936 -1.1751
  187POPC   H7Y21518   2.057   5.566   3.691  0.1727 -1.3971  2.0022
  187POPC   C3821519   1.904   5.489   3.824 -0.2038  0.7787  0.0547
  187POPC   H8X21520   1.952   5.398   3.865 -2.6094 -1.3707 -1.6068
  187POPC   H8Y21521   1.797   5.460   3.824 -0.8471  2.7872  2.6051
  187POPC   C3921522   1.925   5.603   3.928 -0.1152 -0.6208  0.4215
  187POPC   H9X21523   1.861   5.686   3.892  0.4191 -0.3181  0.1481
  187POPC   H9Y21524   2.031   5.634   3.917 -0.7051  1.1462 -0.6242
  187POPC  C31021525   1.880   5.574   4.074 -0.8082 -0.0229 -0.3747
  187POPC  H10X21526   1.940   5.485   4.101  2.2072  1.6827 -0.8967
  187POPC  H10Y21527   1.777   5.534   4.077 -1.4670  1.3241 -2.5632
  187POPC  C31121528   1.901   5.702   4.161  0.3089 -0.3157  0.0850
  187POPC  H11X21529   1.839   5.678   4.251 -0.1199 -0.5154 -0.2552
  187POPC  H11Y21530   1.847   5.783   4.108 -1.0010 -0.7351  0.7046
  187POPC  C31221531   2.050   5.729   4.197  0.2379 -0.3598  0.6366
  187POPC  H12X21532   2.056   5.833   4.237  0.9096 -0.0441 -0.2556
  187POPC  H12Y21533   2.109   5.721   4.104 -0.8283  2.9919 -0.4986
  187POPC  C31321534   2.092   5.640   4.326  0.3537  0.6082  0.1963
  187POPC  H13X21535   2.202   5.655   4.327  0.5826  2.4690 -6.0120
  187POPC  H13Y21536   2.069   5.534   4.300 -2.1757  1.2182 -0.3692
  187POPC  C31421537   2.025   5.685   4.458  0.0732 -0.0341  0.2058
  187POPC  H14X21538   1.915   5.680   4.441 -0.2730  0.7433  1.9726
  187POPC  H14Y21539   2.058   5.790   4.474 -1.9720  0.6101  0.5484
  187POPC  C31521540   2.054   5.600   4.583 -0.2368  0.9366 -0.5637
  187POPC  H15X21541   2.158   5.563   4.589 -0.4016  0.7087  2.6398
  187POPC  H15Y21542   1.976   5.521   4.571 -0.0202  0.8626 -1.5226
  187POPC  C31621543   2.034   5.674   4.714  0.1161  0.2329  0.5847
  187POPC  H16X21544   1.993   5.773   4.685  1.6799  0.5662 -0.6273
  187POPC  H16Y21545   2.133   5.692   4.763 -0.7678  3.9067  1.3758
  187POPC  H16Z21546   1.963   5.621   4.780 -0.7395 -1.1383 -1.3646
  188POPC     N21547   2.512   3.030   2.272 -0.4351 -0.0282 -0.2771
  188POPC   C1221548   2.476   3.016   2.412 -0.6992  0.6660  0.6472
  188POPC  H12A21549   2.531   2.928   2.441  0.2089  1.6393  2.0138
  188POPC  H12B21550   2.375   2.978   2.417  0.0029 -2.2191 -2.8699
  188POPC   C1321551   2.461   2.914   2.187 -0.2910 -0.3508 -0.9400
  188POPC  H13A21552   2.516   2.822   2.198  0.1958 -0.1661 -1.7595
  188POPC  H13B21553   2.355   2.904   2.203 -0.2131 -0.7932 -0.6636
  188POPC  H13C21554   2.474   2.941   2.083  1.2789 -0.2553 -0.7473
  188POPC   C1421555   2.453   3.157   2.215 -0.4539 -0.0624  0.0804
  188POPC  H14A21556   2.490   3.190   2.120 -0.6458  0.7192  0.2716
  188POPC  H14B21557   2.345   3.158   2.206 -0.4191  0.6169 -0.3356
  188POPC  H14C21558   2.481   3.242   2.275 -0.1893 -0.0369 -0.0765
  188POPC   C1521559   2.662   3.036   2.258 -0.4465  0.0275 -0.8088
  188POPC  H15A21560   2.711   2.955   2.310  2.6459  2.0007 -0.3566
  188POPC  H15B21561   2.699   3.126   2.305 -2.6081  0.5864 -0.0604
  188POPC  H15C21562   2.700   3.042   2.157  0.9931  0.8234 -0.2635
  188POPC   C1121563   2.524   3.110   2.525 -0.3632  0.5941 -0.2739
  188POPC  H11A21564   2.632   3.128   2.506 -0.5326  2.0620 -0.0048
  188POPC  H11B21565   2.503   3.070   2.627 -1.4355  0.0114 -0.7156
  188POPC     P21566   2.488   3.371   2.547  0.0076 -0.1820 -0.7133
  188POPC   O1321567   2.371   3.456   2.509  0.1096 -0.8780  0.1593
  188POPC   O1421568   2.622   3.405   2.490  0.2832  0.0219  0.5677
  188POPC   O1221569   2.444   3.225   2.504  0.7455 -0.3147 -0.1124
  188POPC   O1121570   2.489   3.363   2.710 -0.3808  0.3119  1.0906
  188POPC    C121571   2.608   3.383   2.784 -0.0386  0.1366 -0.3951
  188POPC    HA21572   2.698   3.374   2.720  0.8349  1.0399  0.6607
  188POPC    HB21573   2.616   3.305   2.863 -0.8295  0.2012 -0.2428
  188POPC    C221574   2.605   3.523   2.858 -0.4143 -0.5852  0.5990
  188POPC    HS21575   2.604   3.602   2.779  2.6922 -0.4334  0.5819
  188POPC   O2121576   2.714   3.533   2.952 -0.2018 -0.1995 -0.3330
  188POPC   C2121577   2.750   3.658   2.975 -0.3062 -0.3697 -0.3482
  188POPC   O2221578   2.714   3.755   2.903  0.4058 -0.0997 -0.6838
  188POPC   C2221579   2.833   3.659   3.100  0.1589 -0.2113 -0.7923
  188POPC   H2R21580   2.892   3.752   3.116  0.0963  0.0307 -1.9303
  188POPC   H2S21581   2.912   3.585   3.077  1.3981  1.0678 -0.7959
  188POPC    C321582   2.470   3.535   2.939 -0.6001 -0.3588  0.3065
  188POPC    HX21583   2.465   3.448   3.009  1.1099 -1.0563 -0.3861
  188POPC    HY21584   2.390   3.514   2.865 -0.4155 -0.6934  0.1966
  188POPC   O3121585   2.456   3.665   3.007  0.3307  0.1492  0.4069
  188POPC   C3121586   2.373   3.756   2.948  0.1894 -0.6415  0.5602
  188POPC   O3221587   2.319   3.746   2.840  0.1848  0.3482 -0.1930
  188POPC   C3221588   2.359   3.877   3.046 -0.2572 -0.4580 -0.2887
  188POPC   H2X21589   2.299   3.843   3.133 -1.5603 -0.6520 -1.2322
  188POPC   H2Y21590   2.301   3.957   2.996  0.2206  0.1040  0.0535
  188POPC   C2321591   2.764   3.629   3.232  0.1538  0.1404 -0.2044
  188POPC   H3R21592   2.748   3.519   3.238  0.9256 -0.0663 -1.5649
  188POPC   H3S21593   2.664   3.676   3.245  0.9932  1.5020  1.9171
  188POPC   C2421594   2.849   3.692   3.347 -0.5132 -0.1301 -0.2469
  188POPC   H4R21595   2.841   3.802   3.339 -0.1003 -0.0299  0.5775
  188POPC   H4S21596   2.957   3.666   3.343 -0.8919 -2.0293  0.5314
  188POPC   C2521597   2.805   3.647   3.487 -0.3491  0.1283 -0.3382
  188POPC   H5R21598   2.818   3.540   3.513 -1.0783  0.7965  3.2927
  188POPC   H5S21599   2.695   3.657   3.486 -0.4626 -0.9223 -1.6628
  188POPC   C2621600   2.859   3.729   3.603 -0.0740  0.7096  0.3114
  188POPC   H6R21601   2.846   3.839   3.595  0.9223  0.9187  1.3234
  188POPC   H6S21602   2.969   3.716   3.593 -0.0458  2.1948 -2.2922
  188POPC   C2721603   2.809   3.662   3.729  0.9384  0.2255  0.1278
  188POPC   H7R21604   2.851   3.560   3.739  0.7305  0.1930  0.7036
  188POPC   H7S21605   2.699   3.649   3.725  0.5995  2.8928 -1.8422
  188POPC   C2821606   2.841   3.748   3.849  0.3577 -0.0838 -1.0183
  188POPC   H8R21607   2.837   3.684   3.940  0.6203  0.8374 -0.3532
  188POPC   H8S21608   2.767   3.829   3.866 -0.8415 -1.2794 -0.3777
  188POPC   C2921609   2.976   3.817   3.861  0.3868 -0.8513  0.1593
  188POPC   H9121610   3.048   3.824   3.778  0.8525 -0.4737  0.5878
  188POPC  C21021611   3.030   3.848   3.978 -0.7003  0.4985 -0.3610
  188POPC  H10121612   3.125   3.903   3.978  0.8836 -2.0740 -0.7196
  188POPC  C21121613   2.982   3.822   4.124 -0.4181  0.3983  0.8218
  188POPC  H11R21614   2.870   3.823   4.126 -0.5734 -2.8669 -0.4659
  188POPC  H11S21615   3.015   3.906   4.188 -0.5440  1.4086 -0.4103
  188POPC  C21221616   3.015   3.685   4.187 -0.4029  0.3360  0.3778
  188POPC  H12R21617   3.122   3.690   4.215 -0.0897 -2.1628 -0.2057
  188POPC  H12S21618   2.995   3.603   4.115  0.7592  1.2641 -1.0566
  188POPC  C21321619   2.933   3.643   4.315 -0.1512 -0.0423 -0.8019
  188POPC  H13R21620   2.975   3.543   4.337  0.6810  0.1803 -1.3206
  188POPC  H13S21621   2.830   3.644   4.274  0.2051  0.5434 -1.7197
  188POPC  C21421622   2.958   3.745   4.432  0.0074  0.2144  0.4355
  188POPC  H14R21623   2.931   3.850   4.409  0.8136  0.6228  1.3117
  188POPC  H14S21624   3.068   3.758   4.434  0.0205  0.0742  0.6728
  188POPC  C21521625   2.921   3.699   4.569 -0.3437  0.4528  0.5726
  188POPC  H15R21626   2.816   3.712   4.603  0.0142  3.4765  0.7848
  188POPC  H15S21627   2.979   3.768   4.635  0.4026 -0.5717  1.0092
  188POPC  C21621628   2.971   3.556   4.614 -0.1721 -0.1384  0.2833
  188POPC  H16R21629   3.074   3.527   4.581 -1.1454 -0.4477 -2.7714
  188POPC  H16S21630   2.895   3.500   4.556 -1.0672 -0.1754  1.4489
  188POPC  C21721631   2.938   3.530   4.763 -0.7440  0.1282  0.7247
  188POPC  H17R21632   2.829   3.527   4.784 -0.6116  1.6549  1.8465
  188POPC  H17S21633   2.968   3.613   4.831 -4.8775  0.6297  2.2131
  188POPC  C21821634   3.009   3.403   4.818  0.7516  0.0831 -0.0658
  188POPC  H18R21635   3.027   3.411   4.927 -0.0769 -0.4783  0.1120
  188POPC  H18S21636   3.108   3.393   4.768  0.2555 -2.6722 -0.6457
  188POPC  H18T21637   2.945   3.317   4.790  0.5232  0.4315 -0.6442
  188POPC   C3321638   2.500   3.940   3.079 -0.5752 -0.2782  0.4725
  188POPC   H3X21639   2.543   4.001   2.997  0.8092 -2.6870 -0.6862
  188POPC   H3Y21640   2.575   3.859   3.092  1.5121  1.0254 -2.2872
  188POPC   C3421641   2.498   4.010   3.214  0.1428  0.5779  0.3923
  188POPC   H4X21642   2.427   4.095   3.221  1.2529  1.4170  1.9047
  188POPC   H4Y21643   2.595   4.060   3.236  0.1870  1.0838 -0.8699
  188POPC   C3521644   2.476   3.914   3.327  0.2346 -0.6935 -0.2594
  188POPC   H5X21645   2.541   3.825   3.315  1.5104  0.3564 -1.5397
  188POPC   H5Y21646   2.372   3.876   3.318  0.8638 -2.5468 -0.1642
  188POPC   C3621647   2.494   3.984   3.467 -0.6229  0.2697  0.5108
  188POPC   H6X21648   2.430   4.073   3.483 -1.0062  0.2148 -0.6286
  188POPC   H6Y21649   2.603   3.997   3.484 -0.8775  1.5945  1.2663
  188POPC   C3721650   2.458   3.888   3.584 -0.5632  0.1433  0.8631
  188POPC   H7X21651   2.520   3.796   3.588  1.4074  1.2029 -1.9142
  188POPC   H7Y21652   2.350   3.862   3.585 -0.2462 -1.3232  0.3688
  188POPC   C3821653   2.478   3.962   3.710 -0.4660  0.2326  0.6794
  188POPC   H8X21654   2.435   4.064   3.698  0.8107  0.9588  1.9636
  188POPC   H8Y21655   2.587   3.974   3.727 -0.1292 -1.9793  0.3749
  188POPC   C3921656   2.413   3.888   3.833  0.1807 -0.4307 -0.0789
  188POPC   H9X21657   2.442   3.781   3.829  0.0089 -0.4535 -0.8264
  188POPC   H9Y21658   2.304   3.903   3.822  0.3741  0.1469 -1.4310
  188POPC  C31021659   2.462   3.934   3.968  0.3091 -0.1900 -0.5031
  188POPC  H10X21660   2.410   4.028   3.997 -0.0818 -0.6563  0.3479
  188POPC  H10Y21661   2.570   3.954   3.960  0.3829 -1.2718 -4.1166
  188POPC  C31121662   2.444   3.825   4.076  0.1332 -0.3065  0.4678
  188POPC  H11X21663   2.516   3.742   4.058  0.1282 -0.5756  1.6204
  188POPC  H11Y21664   2.349   3.769   4.074 -0.2543  0.1640  2.5811
  188POPC  C31221665   2.472   3.875   4.218  0.4017  0.4771  0.2466
  188POPC  H12X21666   2.381   3.937   4.231  0.2508  0.4119 -0.4673
  188POPC  H12Y21667   2.570   3.926   4.229 -0.7918  2.5264  1.9612
  188POPC  C31321668   2.466   3.753   4.314  0.2819 -0.9490  0.4633
  188POPC  H13X21669   2.513   3.667   4.262  1.2113  0.7518 -1.6919
  188POPC  H13Y21670   2.360   3.726   4.332 -0.5899  2.6353  1.7325
  188POPC  C31421671   2.555   3.776   4.437  0.3634 -0.5992  0.5798
  188POPC  H14X21672   2.530   3.875   4.480  0.7114 -0.4881  0.5290
  188POPC  H14Y21673   2.665   3.783   4.417  0.1667  2.0576 -0.0556
  188POPC  C31521674   2.513   3.672   4.531  0.2562 -0.1704 -0.2980
  188POPC  H15X21675   2.579   3.653   4.619  0.8662 -0.4386 -0.8123
  188POPC  H15Y21676   2.501   3.576   4.479 -0.0671  0.4782 -1.4447
  188POPC  C31621677   2.379   3.706   4.611 -0.0432 -0.6280  0.5334
  188POPC  H16X21678   2.350   3.616   4.669 -2.7791  0.9180  1.7409
  188POPC  H16Y21679   2.295   3.725   4.540 -0.8057  0.5593  1.6930
  188POPC  H16Z21680   2.388   3.797   4.674 -4.1887 -0.1631  0.7325
  189SAPI   C1221681   1.020   0.671   7.755 -0.2217  0.5785 -0.0317
  189SAPI    H221682   0.959   0.589   7.710 -0.0332  0.7650 -0.6428
  189SAPI    O221683   0.938   0.739   7.846  0.1464  0.0110  0.4644
  189SAPI   HO221684   0.860   0.756   7.792 -0.0791  0.7093  0.9901
  189SAPI   C1321685   1.138   0.603   7.831  0.3734  0.0437  0.8278
  189SAPI    H321686   1.208   0.553   7.760  1.3094 -0.6540  2.1817
  189SAPI    O321687   1.087   0.510   7.925  0.4198  0.1105  0.0212
  189SAPI   HO321688   1.159   0.478   7.980  0.4907 -0.8031 -0.5700
  189SAPI   C1421689   1.226   0.707   7.902  0.0378 -0.7662  0.1758
  189SAPI    H421690   1.166   0.762   7.979 -0.0303  1.2993 -1.2592
  189SAPI    O421691   1.341   0.656   7.969 -0.2979 -0.3068 -0.1789
  189SAPI   HO421692   1.413   0.649   7.906 -1.0907  1.9513 -1.4429
  189SAPI   C1521693   1.273   0.824   7.809  0.0204  0.3702  0.5096
  189SAPI    H521694   1.348   0.788   7.736 -0.8938 -0.1460 -0.2023
  189SAPI    O521695   1.333   0.934   7.875 -0.2316  1.1629 -0.0702
  189SAPI   HO521696   1.412   0.898   7.917 -1.5108 -2.7797 -0.6053
  189SAPI   C1621697   1.162   0.871   7.715 -0.5178 -0.1307 -0.5733
  189SAPI    H621698   1.105   0.947   7.774 -0.1543  0.3612 -0.8423
  189SAPI    O621699   1.215   0.947   7.611  0.1101  0.0130 -0.3193
  189SAPI   HO621700   1.271   0.892   7.554  0.1409 -0.5941  0.2812
  189SAPI   C1121701   1.073   0.767   7.653 -0.6059  0.1945 -0.2054
  189SAPI    H121702   1.141   0.714   7.583 -0.1496  0.7580 -0.1917
  189SAPI     P21703   0.937   0.803   7.430  0.3184  0.2801 -0.0624
  189SAPI   O1321704   1.064   0.804   7.360 -0.5162 -0.0616 -0.1678
  189SAPI   O1421705   0.823   0.889   7.387 -0.4068  0.3562 -0.2226
  189SAPI   O1221706   0.964   0.830   7.591  0.5782 -0.5253 -0.2219
  189SAPI   O1121707   0.879   0.654   7.442 -0.0060 -0.0367 -0.2796
  189SAPI    C121708   0.805   0.601   7.328 -0.2720  0.4149  0.7615
  189SAPI    HA21709   0.758   0.502   7.349 -0.5074  0.3141 -0.2172
  189SAPI    HB21710   0.720   0.666   7.296 -1.0726 -0.1996  1.5814
  189SAPI    C221711   0.887   0.572   7.196 -0.1134 -0.4067  0.3893
  189SAPI    HS21712   0.973   0.512   7.233 -0.1855 -0.5372  0.3459
  189SAPI   O2121713   0.932   0.691   7.130  0.5803 -0.3836  0.1972
  189SAPI   C2121714   1.051   0.683   7.062 -0.9307 -0.5856 -0.2329
  189SAPI   O2221715   1.125   0.586   7.054  0.0355  0.1842  0.4354
  189SAPI   C2221716   1.067   0.808   6.982 -0.4441  0.0227  0.0498
  189SAPI   H2R21717   0.966   0.852   6.966 -0.4979 -0.9299 -2.6258
  189SAPI   H2S21718   1.119   0.886   7.042  1.6069  2.1653 -4.0879
  189SAPI    C321719   0.807   0.488   7.093  0.7205 -0.0051  0.0811
  189SAPI    HX21720   0.720   0.546   7.055 -0.0127 -1.5123 -0.6414
  189SAPI    HY21721   0.765   0.401   7.148 -2.5213  1.7777  0.7136
  189SAPI   O3121722   0.883   0.455   6.977  0.1847 -0.0282  0.4358
  189SAPI   C3121723   0.869   0.334   6.921 -0.3956 -0.6092  0.0420
  189SAPI   O3221724   0.790   0.251   6.954  1.2196  0.2673  0.1925
  189SAPI   C3221725   0.969   0.328   6.803  0.3004  0.4873 -0.0820
  189SAPI   H2X21726   1.073   0.337   6.840  0.4766 -1.8821  0.1570
  189SAPI   H2Y21727   0.943   0.417   6.742  0.5362  0.2834 -0.4843
  189SAPI   C2321728   1.138   0.795   6.851  0.8426 -0.0036  0.1217
  189SAPI   H3R21729   1.244   0.767   6.869  1.5214  0.6370 -2.4938
  189SAPI   H3S21730   1.142   0.891   6.794 -1.7034 -1.3684 -2.6338
  189SAPI   C2421731   1.083   0.688   6.759 -0.0622  0.0637  0.0809
  189SAPI   H4R21732   1.100   0.586   6.801  1.7961 -1.4429 -3.8427
  189SAPI   H4S21733   1.157   0.681   6.677 -0.3626  2.0840 -0.4118
  189SAPI   C2521734   0.939   0.689   6.712 -0.0287  0.6853  0.1480
  189SAPI   H5R21735   0.858   0.697   6.787  0.2724  0.0730  0.5566
  189SAPI   C2621736   0.896   0.652   6.589 -0.3408  0.1938 -0.4379
  189SAPI   H6R21737   0.789   0.651   6.565 -0.0834  1.7330 -1.7913
  189SAPI   C2721738   0.982   0.631   6.463 -0.8208 -0.5720 -0.4168
  189SAPI   H7R21739   0.944   0.550   6.398  0.7762 -0.4714 -1.5245
  189SAPI   H7S21740   1.079   0.585   6.490 -1.5242 -2.0928 -0.3697
  189SAPI   C2821741   0.993   0.755   6.373 -1.0743  0.3717  0.3298
  189SAPI   H8R21742   1.009   0.850   6.425 -0.9045  0.3315  0.3530
  189SAPI   C2921743   0.997   0.756   6.236 -0.1291 -0.0980 -0.3545
  189SAPI   H9R21744   1.011   0.850   6.182  0.7448 -0.6454 -1.1104
  189SAPI  C21021745   0.978   0.646   6.136 -0.1144  0.7874 -0.0857
  189SAPI  H10R21746   0.876   0.652   6.092 -0.9067 -2.5019  1.0653
  189SAPI  H10S21747   0.973   0.548   6.187  0.5351 -0.5263 -2.3922
  189SAPI  C21121748   1.100   0.641   6.045  0.1345 -0.3033  0.6790
  189SAPI  H11R21749   1.201   0.621   6.084  0.7327  0.4071 -0.4402
  189SAPI  C21221750   1.103   0.695   5.914 -0.3828  0.0060 -0.1894
  189SAPI  H12R21751   1.201   0.689   5.863  1.0117  1.7624  2.0353
  189SAPI  C21321752   0.998   0.770   5.840  0.7812  0.2929 -0.5685
  189SAPI  H13R21753   1.052   0.843   5.775  1.6032 -0.1578 -0.4163
  189SAPI  H13S21754   0.936   0.829   5.911 -1.5870 -3.3363  0.6680
  189SAPI  C21421755   0.901   0.675   5.766 -0.8042 -0.0932  0.2138
  189SAPI  H14R21756   0.866   0.596   5.834  1.3731  0.8372  2.6072
  189SAPI  C21521757   0.874   0.682   5.629 -0.2385  0.5137 -0.5380
  189SAPI  H15R21758   0.818   0.600   5.583  0.7979  0.4921 -1.8283
  189SAPI  C21621759   0.926   0.774   5.521 -0.5191  0.8412 -0.0851
  189SAPI  H16R21760   0.979   0.863   5.559 -2.1263  0.6385  2.9148
  189SAPI  H16S21761   0.837   0.821   5.474 -1.2047  0.6875  1.0321
  189SAPI  C21721762   1.000   0.708   5.410  0.2006 -0.6114  0.4094
  189SAPI  H17R21763   1.090   0.654   5.444  0.9409  0.9408  1.0280
  189SAPI  H17S21764   1.027   0.791   5.340 -1.2601  1.4252  2.1406
  189SAPI  C21821765   0.906   0.605   5.326  0.0361  0.0832 -0.3491
  189SAPI  H18R21766   0.863   0.524   5.389 -0.2248 -1.0273 -1.9141
  189SAPI  H18S21767   0.981   0.564   5.256 -1.8383 -4.4880  0.0083
  189SAPI  C21921768   0.785   0.680   5.266  0.3622 -0.0460  1.0060
  189SAPI  H19R21769   0.830   0.776   5.235  3.4488 -1.5154  0.4945
  189SAPI  H19S21770   0.718   0.684   5.354 -0.2163  2.1809  0.5090
  189SAPI  C22021771   0.712   0.585   5.169 -0.4311  0.3390  0.6188
  189SAPI  H20R21772   0.676   0.498   5.227  0.7880 -1.2010 -0.8339
  189SAPI  H20S21773   0.772   0.559   5.080 -0.2437  3.2442 -0.2242
  189SAPI  H20T21774   0.618   0.633   5.133 -1.6929 -1.4409  1.4014
  189SAPI   C3321775   0.953   0.195   6.727 -0.0096  0.0478  0.4069
  189SAPI   H3X21776   0.850   0.192   6.688 -0.0283  1.0767  0.3453
  189SAPI   H3Y21777   0.971   0.108   6.793 -0.2989 -1.6834 -1.6814
  189SAPI   C3421778   1.048   0.182   6.603 -0.0796 -0.2393  0.1656
  189SAPI   H4X21779   0.999   0.109   6.535  2.0197 -0.8948 -0.7207
  189SAPI   H4Y21780   1.135   0.124   6.641 -0.7331 -2.5511 -1.5960
  189SAPI   C3521781   1.095   0.306   6.521 -0.0194 -0.2387  0.7002
  189SAPI   H5X21782   1.153   0.369   6.591  3.3167 -1.6550 -0.5711
  189SAPI   H5Y21783   1.009   0.355   6.471  0.1331 -2.1335 -1.6570
  189SAPI   C3621784   1.193   0.278   6.413 -0.2674  0.5717 -0.4180
  189SAPI   H6X21785   1.267   0.205   6.452 -0.3967  1.0085  0.6973
  189SAPI   H6Y21786   1.239   0.378   6.394 -1.1568  0.9737 -0.4929
  189SAPI   C3721787   1.127   0.232   6.283 -0.3233 -0.6649 -0.3967
  189SAPI   H7X21788   1.049   0.306   6.255  1.1607  0.3231 -2.1074
  189SAPI   H7Y21789   1.078   0.133   6.293 -0.2269 -0.4809  3.8889
  189SAPI   C3821790   1.228   0.239   6.169 -0.6892 -0.2638 -0.8450
  189SAPI   H8X21791   1.299   0.154   6.179  0.1056  0.5589  0.9985
  189SAPI   H8Y21792   1.292   0.330   6.165 -1.7585  0.6579  1.1903
  189SAPI   C3921793   1.166   0.232   6.028 -0.4524  0.3719 -0.1072
  189SAPI   H9X21794   1.107   0.326   6.017  0.6866  1.0010 -0.9983
  189SAPI   H9Y21795   1.082   0.159   6.018  0.4850 -0.5409 -1.7939
  189SAPI  C31021796   1.261   0.186   5.919  0.3121  0.1276 -0.0266
  189SAPI  H10X21797   1.319   0.105   5.969  2.8844  1.2011 -1.0673
  189SAPI  H10Y21798   1.338   0.263   5.897  0.1079  0.1960 -0.5189
  189SAPI  C31121799   1.195   0.149   5.786  0.5072 -0.2548 -0.6431
  189SAPI  H11X21800   1.124   0.065   5.803  1.9556 -2.0211 -2.7217
  189SAPI  H11Y21801   1.277   0.125   5.714  2.3403  0.0455  1.2548
  189SAPI  C31221802   1.126   0.271   5.729 -0.3889 -0.0901  0.0894
  189SAPI  H12X21803   1.196   0.357   5.737  0.1444 -0.5767  0.7034
  189SAPI  H12Y21804   1.036   0.300   5.788  0.5368  0.1798  1.4240
  189SAPI  C31321805   1.074   0.244   5.588  0.6515 -0.1969  0.3965
  189SAPI  H13X21806   0.989   0.313   5.572  0.5184 -1.0986 -4.2243
  189SAPI  H13Y21807   1.048   0.138   5.569  2.3738 -0.3250 -1.6153
  189SAPI  C31421808   1.175   0.265   5.484 -0.2616 -0.6604  0.1558
  189SAPI  H14X21809   1.248   0.182   5.498  0.0528 -0.3699  0.2653
  189SAPI  H14Y21810   1.223   0.361   5.512  0.8756 -1.8836  2.7922
  189SAPI  C31521811   1.110   0.262   5.340  0.4965  0.1236 -0.1425
  189SAPI  H15X21812   1.029   0.335   5.320 -1.8366 -1.7538  1.7900
  189SAPI  H15Y21813   1.066   0.164   5.309  0.3658  0.2969 -0.5033
  189SAPI  C31621814   1.208   0.300   5.227 -0.2010  0.2304  0.4074
  189SAPI  H16X21815   1.246   0.402   5.247 -1.8952  0.4198  3.2459
  189SAPI  H16Y21816   1.148   0.293   5.133 -0.5337 -1.3259  0.6959
  189SAPI  C31721817   1.327   0.214   5.233 -0.5598  0.7707  0.2503
  189SAPI  H17X21818   1.292   0.108   5.236 -1.5055  1.0500 -0.4489
  189SAPI  H17Y21819   1.375   0.233   5.331 -0.2977  1.2856  0.0212
  189SAPI  C31821820   1.422   0.234   5.111 -0.5745  0.7051 -0.0938
  189SAPI  H18X21821   1.359   0.232   5.019 -0.6640  1.5504 -0.0573
  189SAPI  H18Y21822   1.504   0.159   5.106 -0.2638  1.1052 -3.5480
  189SAPI  H18Z21823   1.467   0.334   5.131  0.4261  0.3917 -0.6904
  190SAPI   C1221824   1.819   3.910   7.285  0.0210 -0.3512 -0.1076
  190SAPI    H221825   1.764   3.902   7.189  2.1298  3.0195 -1.8069
  190SAPI    O221826   1.779   4.039   7.329 -0.2042  0.0499 -0.7556
  190SAPI   HO221827   1.684   4.043   7.334 -0.2230 -1.8067  2.2612
  190SAPI   C1321828   1.780   3.808   7.386 -0.4818 -0.0634  0.1927
  190SAPI    H321829   1.802   3.707   7.347 -0.7088 -1.1256  2.6184
  190SAPI    O321830   1.638   3.807   7.409  0.3967  0.0632 -0.0263
  190SAPI   HO321831   1.620   3.829   7.500 -3.1734 -2.3555  0.0541
  190SAPI   C1421832   1.854   3.813   7.517 -0.2445  0.1474  0.8585
  190SAPI    H421833   1.800   3.897   7.566  0.3632  0.8621  0.3238
  190SAPI    O421834   1.813   3.713   7.605 -0.1559  0.1019  0.4562
  190SAPI   HO421835   1.738   3.738   7.659  1.4943  0.6185  2.6549
  190SAPI   C1521836   2.003   3.859   7.517  0.4690  0.7609 -0.3554
  190SAPI    H521837   2.066   3.769   7.534 -0.5800 -0.0218 -0.4978
  190SAPI    O521838   2.032   3.950   7.620 -0.4758 -0.0325 -0.0653
  190SAPI   HO521839   2.127   3.960   7.623 -0.5006  0.5922 -0.9414
  190SAPI   C1621840   2.051   3.909   7.369 -0.2968 -0.0434 -0.5717
  190SAPI    H621841   2.075   4.016   7.386  1.6345 -0.5675  0.2429
  190SAPI    O621842   2.183   3.862   7.340 -0.3307 -0.0570  0.2934
  190SAPI   HO621843   2.249   3.930   7.349  2.8239 -2.4666 -1.9474
  190SAPI   C1121844   1.964   3.898   7.249 -0.0445 -0.9556  0.1435
  190SAPI    H121845   1.970   3.792   7.218 -1.6277 -1.3622  1.1317
  190SAPI     P21846   2.091   3.982   7.015 -0.7062  0.1147  0.1886
  190SAPI   O1321847   2.131   3.841   6.984  0.0602 -0.3684 -0.0397
  190SAPI   O1421848   2.197   4.088   7.024 -0.3351  0.7331  0.2426
  190SAPI   O1221849   2.003   3.991   7.152 -0.1692 -0.5582  0.1887
  190SAPI   O1121850   1.989   4.026   6.903 -0.6351  0.3595 -0.4411
  190SAPI    C121851   2.021   4.005   6.762 -0.5459 -0.0561 -0.5357
  190SAPI    HA21852   2.001   4.101   6.711 -1.9474 -0.5531 -0.9941
  190SAPI    HB21853   2.127   3.976   6.746 -0.9744 -1.2413 -1.3564
  190SAPI    C221854   1.922   3.909   6.700  0.0347 -0.3882 -0.9065
  190SAPI    HS21855   1.931   3.810   6.750  0.9561 -0.2093 -0.7072
  190SAPI   O2121856   1.970   3.884   6.566 -0.1738 -0.1091  0.0643
  190SAPI   C2121857   1.921   3.774   6.510  0.0524  0.9934  1.1329
  190SAPI   O2221858   1.838   3.698   6.555  0.2710  0.0822 -0.3106
  190SAPI   C2221859   1.994   3.763   6.370 -0.7147  0.3096  0.0939
  190SAPI   H2R21860   1.977   3.856   6.311 -0.6421 -0.4494 -1.1551
  190SAPI   H2S21861   2.104   3.765   6.383 -0.0568 -1.6858 -3.8626
  190SAPI    C321862   1.775   3.960   6.714  0.0574  0.2458 -0.5038
  190SAPI    HX21863   1.757   3.976   6.822 -1.5061 -1.9483 -0.3624
  190SAPI    HY21864   1.718   3.871   6.680 -0.0751  0.6300 -1.3078
  190SAPI   O3121865   1.761   4.079   6.639  0.6016  0.6760  0.2589
  190SAPI   C3121866   1.696   4.068   6.523 -0.7742 -0.1109 -0.2572
  190SAPI   O3221867   1.646   3.965   6.486 -0.3684  0.3698 -0.2882
  190SAPI   C3221868   1.709   4.197   6.442 -0.1085  0.3945 -0.0360
  190SAPI   H2X21869   1.722   4.275   6.521  0.0146 -0.7828  1.1440
  190SAPI   H2Y21870   1.614   4.214   6.389 -1.3360  0.4408  2.0581
  190SAPI   C2321871   1.954   3.646   6.271 -0.5023  0.6237  0.1143
  190SAPI   H3R21872   1.863   3.668   6.211 -0.4215  0.6373 -0.0025
  190SAPI   H3S21873   1.938   3.551   6.326  0.0062 -0.0306 -0.8367
  190SAPI   C2421874   2.071   3.606   6.177  0.1049  0.1147  0.4657
  190SAPI   H4R21875   2.062   3.503   6.135 -1.0058 -0.8033  2.7476
  190SAPI   H4S21876   2.159   3.581   6.239  0.7756  2.5419  0.5595
  190SAPI   C2521877   2.087   3.717   6.082 -0.2184 -0.1732 -0.1253
  190SAPI   H5R21878   2.119   3.814   6.125 -0.4018  0.1918 -0.8004
  190SAPI   C2621879   2.068   3.708   5.949  0.4475  0.2685 -0.1306
  190SAPI   H6R21880   2.089   3.803   5.898 -1.2311 -0.2121 -1.8277
  190SAPI   C2721881   2.020   3.593   5.865  0.9938 -0.5855  0.6415
  190SAPI   H7R21882   1.935   3.541   5.912 -1.2839  2.3266  0.0281
  190SAPI   H7S21883   2.105   3.521   5.857  0.0984 -1.6172  0.2398
  190SAPI   C2821884   1.975   3.635   5.730 -0.5490 -0.0211  0.0125
  190SAPI   H8R21885   1.872   3.672   5.735 -0.9435 -1.0911  0.1072
  190SAPI   C2921886   2.033   3.607   5.613  0.0346  0.0442  0.1823
  190SAPI   H9R21887   1.987   3.642   5.519  0.7355  1.2682  0.2647
  190SAPI  C21021888   2.168   3.546   5.599 -0.5764 -0.2183  0.4393
  190SAPI  H10R21889   2.190   3.549   5.490 -2.2123 -0.5918  0.0587
  190SAPI  H10S21890   2.159   3.439   5.629 -2.7925 -0.4362 -0.7914
  190SAPI  C21121891   2.289   3.617   5.663 -0.1704  0.0894 -1.2352
  190SAPI  H11R21892   2.285   3.727   5.662  1.9453  0.3400  2.1874
  190SAPI  C21221893   2.400   3.565   5.721  0.0993  0.1842  0.0444
  190SAPI  H12R21894   2.477   3.630   5.765  1.7413 -1.1416 -0.7378
  190SAPI  C21321895   2.423   3.419   5.745  0.4110 -0.0067 -0.5700
  190SAPI  H13R21896   2.364   3.347   5.684 -1.3634 -0.0208  1.0712
  190SAPI  H13S21897   2.382   3.391   5.844  0.5430 -0.4717 -0.6472
  190SAPI  C21421898   2.565   3.375   5.721 -0.1165  0.4637  0.7358
  190SAPI  H14R21899   2.617   3.343   5.813  0.3541 -0.1851  0.2500
  190SAPI  C21521900   2.615   3.340   5.596  0.1778 -0.4565 -0.7566
  190SAPI  H15R21901   2.719   3.303   5.592  0.0007 -2.4900  4.8447
  190SAPI  C21621902   2.547   3.352   5.463 -0.4452 -0.1570  0.0787
  190SAPI  H16R21903   2.550   3.458   5.430  2.6454 -0.5108 -1.1028
  190SAPI  H16S21904   2.440   3.325   5.474 -0.2715 -0.1454  2.2267
  190SAPI  C21721905   2.605   3.269   5.344 -0.3494 -0.0188 -0.2506
  190SAPI  H17R21906   2.523   3.246   5.272 -1.6820 -0.3701  1.3098
  190SAPI  H17S21907   2.643   3.168   5.373  0.6600  1.1007  2.6616
  190SAPI  C21821908   2.713   3.343   5.263  0.6153  0.4818 -0.0014
  190SAPI  H18R21909   2.806   3.349   5.323  0.0537  2.5365  0.7344
  190SAPI  H18S21910   2.679   3.445   5.235 -0.1692  0.2372  0.0360
  190SAPI  C21921911   2.732   3.274   5.126 -0.1664 -0.4112 -0.9387
  190SAPI  H19R21912   2.701   3.348   5.049  1.1000  2.0894  0.8008
  190SAPI  H19S21913   2.670   3.183   5.112 -0.8547 -0.2096  0.6803
  190SAPI  C22021914   2.879   3.238   5.104  0.0117  0.6523  0.0875
  190SAPI  H20R21915   2.894   3.176   5.013 -1.1478  0.7188 -0.1690
  190SAPI  H20S21916   2.905   3.180   5.195 -2.7785 -0.6227  0.1892
  190SAPI  H20T21917   2.942   3.329   5.105  0.6356  0.2347 -0.5008
  190SAPI   C3321918   1.842   4.203   6.359 -0.5486  0.1744  0.0790
  190SAPI   H3X21919   1.927   4.184   6.429 -1.3964 -3.2244  0.3767
  190SAPI   H3Y21920   1.864   4.306   6.324 -1.6835  0.5375  0.3814
  190SAPI   C3421921   1.830   4.111   6.236  0.5075  0.5390  0.1166
  190SAPI   H4X21922   1.733   4.129   6.184  0.9787  0.8475 -0.6781
  190SAPI   H4Y21923   1.820   4.003   6.258 -2.0223  0.5500 -0.6317
  190SAPI   C3521924   1.946   4.129   6.146 -0.0441 -0.1918  0.0383
  190SAPI   H5X21925   2.042   4.096   6.191  1.4649 -0.5380 -3.1718
  190SAPI   H5Y21926   1.942   4.238   6.122 -0.3676 -0.7160 -2.5785
  190SAPI   C3621927   1.934   4.056   6.008 -0.3958 -0.2126  0.0228
  190SAPI   H6X21928   1.920   3.946   6.013  0.8028 -0.3713  0.3235
  190SAPI   H6Y21929   2.041   4.045   5.978 -0.1649  0.1566  0.6876
  190SAPI   C3721930   1.865   4.129   5.896 -0.0032  0.2445 -0.5809
  190SAPI   H7X21931   1.909   4.231   5.889 -1.7211  1.0278 -0.6989
  190SAPI   H7Y21932   1.757   4.140   5.923  0.4616 -2.0322  2.8685
  190SAPI   C3821933   1.889   4.065   5.766  0.9328  0.6416 -0.1669
  190SAPI   H8X21934   1.906   3.956   5.777  0.4701  0.5645 -0.1797
  190SAPI   H8Y21935   1.987   4.090   5.720  1.4328 -0.0763  0.5024
  190SAPI   C3921936   1.783   4.099   5.664  0.3041 -0.4297 -0.1332
  190SAPI   H9X21937   1.754   4.205   5.680 -2.4287 -1.2553  1.0073
  190SAPI   H9Y21938   1.689   4.043   5.684 -1.7087  1.9623 -2.1441
  190SAPI  C31021939   1.826   4.065   5.526 -0.0095 -0.0177 -0.7196
  190SAPI  H10X21940   1.842   3.956   5.520  1.1400  0.1003 -0.1018
  190SAPI  H10Y21941   1.927   4.110   5.511 -0.5940  1.3385 -0.7848
  190SAPI  C31121942   1.735   4.130   5.420 -0.5590 -0.5399 -0.1171
  190SAPI  H11X21943   1.727   4.240   5.430 -1.0073 -0.4221 -1.5661
  190SAPI  H11Y21944   1.633   4.088   5.435 -0.5016 -0.8286 -0.5017
  190SAPI  C31221945   1.783   4.087   5.280  0.3344 -0.6021 -0.7699
  190SAPI  H12X21946   1.797   3.977   5.277 -1.5086 -0.8833 -0.5337
  190SAPI  H12Y21947   1.890   4.112   5.265 -0.0479  0.9787 -0.9943
  190SAPI  C31321948   1.702   4.150   5.163  0.1335  0.1710 -1.1754
  190SAPI  H13X21949   1.664   4.248   5.200  0.5519 -0.0816 -0.0362
  190SAPI  H13Y21950   1.621   4.075   5.148 -0.4476  0.6898 -0.6737
  190SAPI  C31421951   1.787   4.182   5.040  0.1531  0.4490 -0.6381
  190SAPI  H14X21952   1.868   4.106   5.036 -1.0609 -0.8647 -1.0979
  190SAPI  H14Y21953   1.827   4.283   5.061 -2.1771  0.8330  2.6971
  190SAPI  C31521954   1.703   4.184   4.912 -0.1673  0.0829 -0.2458
  190SAPI  H15X21955   1.613   4.243   4.935 -1.4796 -0.6977 -2.9353
  190SAPI  H15Y21956   1.663   4.082   4.895 -2.4097  1.0542 -1.2578
  190SAPI  C31621957   1.777   4.247   4.797 -0.1388 -0.2700  0.7052
  190SAPI  H16X21958   1.887   4.234   4.806 -0.2732 -2.5887 -0.1725
  190SAPI  H16Y21959   1.764   4.356   4.808 -0.0962 -0.0760 -0.9384
  190SAPI  C31721960   1.737   4.205   4.653 -0.0846  0.0621 -0.0653
  190SAPI  H17X21961   1.626   4.192   4.658  0.0127 -0.4086  3.3511
  190SAPI  H17Y21962   1.781   4.105   4.633 -1.3329 -0.4281 -0.5005
  190SAPI  C31821963   1.784   4.301   4.550 -0.5512  0.5036  0.0996
  190SAPI  H18X21964   1.895   4.306   4.541 -0.7140  2.0657 -1.8663
  190SAPI  H18Y21965   1.750   4.403   4.578  1.0463  1.0023  0.3400
  190SAPI  H18Z21966   1.752   4.256   4.453  2.2697 -0.7021 -0.3919
  191SAPI   C1221967   1.916   3.374   2.651  0.1505 -0.2786  0.0717
  191SAPI    H221968   1.882   3.456   2.717  0.0349 -1.0874  1.0561
  191SAPI    O221969   1.923   3.415   2.513  0.1128  0.3864  0.1777
  191SAPI   HO221970   1.853   3.480   2.504  1.3620  1.9847  1.4133
  191SAPI   C1321971   2.054   3.339   2.691 -0.0583  0.1791 -0.2145
  191SAPI    H321972   2.054   3.292   2.791  1.3278  0.3154 -0.1324
  191SAPI    O321973   2.145   3.453   2.707 -0.0362 -0.6358 -0.0961
  191SAPI   HO321974   2.201   3.451   2.629  1.2316  1.1455  0.6959
  191SAPI   C1421975   2.109   3.232   2.609  0.7852 -0.1735  0.7894
  191SAPI    H421976   2.137   3.269   2.508  1.7244 -1.9494  0.3533
  191SAPI    O421977   2.227   3.171   2.661 -0.0087 -0.3973  0.2554
  191SAPI   HO421978   2.294   3.164   2.593  0.3268 -1.6927  0.6986
  191SAPI   C1521979   2.014   3.117   2.563  0.1999 -0.0747  0.1090
  191SAPI    H521980   2.038   3.032   2.630  1.1752 -1.0676 -1.4373
  191SAPI    O521981   2.043   3.061   2.431  0.0761  0.1372  0.2886
  191SAPI   HO521982   2.031   2.965   2.432  0.2299  0.1060 -0.3993
  191SAPI   C1621983   1.858   3.137   2.589 -0.4536  0.0160 -0.2163
  191SAPI    H621984   1.822   3.169   2.489  0.8449 -0.6874 -0.9348
  191SAPI    O621985   1.787   3.019   2.623 -1.1166  0.1437  0.1425
  191SAPI   HO621986   1.701   3.026   2.582 -0.1707 -1.0135 -2.2402
  191SAPI   C1121987   1.819   3.256   2.676  0.7598 -0.4224  0.0169
  191SAPI    H121988   1.830   3.230   2.783 -0.1126  0.4307  0.3272
  191SAPI     P21989   1.567   3.288   2.753 -0.5599  0.0526  0.4362
  191SAPI   O1321990   1.592   3.166   2.832 -0.2228 -0.2364  0.2492
  191SAPI   O1421991   1.432   3.309   2.690  0.1057 -0.0626 -0.1955
  191SAPI   O1221992   1.692   3.310   2.640  0.6821 -0.3868 -0.0369
  191SAPI   O1121993   1.590   3.416   2.846 -0.4478 -0.0135 -0.0692
  191SAPI    C121994   1.678   3.410   2.962 -0.8708 -0.3380  0.4342
  191SAPI    HA21995   1.747   3.325   2.944  0.8695  1.4884 -2.2997
  191SAPI    HB21996   1.743   3.501   2.962 -0.3544 -0.6176  3.0363
  191SAPI    C221997   1.607   3.379   3.095 -0.3877 -0.2754 -0.1069
  191SAPI    HS21998   1.533   3.301   3.067 -0.0189 -0.3657 -0.8623
  191SAPI   O2121999   1.551   3.503   3.143  0.2110 -0.0962  0.4013
  191SAPI   C2122000   1.420   3.506   3.142  0.7138  0.3074  0.1213
  191SAPI   O2222001   1.344   3.433   3.090  0.5989 -0.0875 -0.1271
  191SAPI   C2222002   1.367   3.638   3.220  0.0545 -0.3534 -0.7517
  191SAPI   H2R22003   1.406   3.632   3.324 -1.0190 -1.6813 -0.3922
  191SAPI   H2S22004   1.423   3.711   3.159  0.5577 -0.2628 -0.1956
  191SAPI    C322005   1.698   3.336   3.214 -0.2938  0.6503 -0.5426
  191SAPI    HX22006   1.760   3.424   3.241  1.4145 -0.6766  0.0595
  191SAPI    HY22007   1.763   3.260   3.166  2.1357  3.2960 -1.7689
  191SAPI   O3122008   1.621   3.282   3.330 -0.5071 -0.2743 -0.4523
  191SAPI   C3122009   1.673   3.182   3.388 -0.7092  0.1115  0.1924
  191SAPI   O3222010   1.785   3.133   3.365  0.3607  0.2276 -0.2103
  191SAPI   C3222011   1.580   3.134   3.497 -0.7914  0.0269 -0.7155
  191SAPI   H2X22012   1.595   3.025   3.513 -2.3665 -0.0242  0.6267
  191SAPI   H2Y22013   1.476   3.166   3.477 -0.3603  0.9623 -1.5881
  191SAPI   C2322014   1.219   3.657   3.213  0.2186 -0.6559 -0.0003
  191SAPI   H3R22015   1.166   3.618   3.124 -0.5077 -0.5387  0.3717
  191SAPI   H3S22016   1.198   3.766   3.224  2.6502 -0.1456  0.2483
  191SAPI   C2422017   1.146   3.601   3.346  0.1961 -0.0924 -0.1416
  191SAPI   H4R22018   1.038   3.628   3.342 -0.2346 -1.7835 -1.1123
  191SAPI   H4S22019   1.187   3.653   3.435 -1.8705 -1.3616  1.6541
  191SAPI   C2522020   1.159   3.453   3.353  0.4043 -0.5580  0.6509
  191SAPI   H5R22021   1.136   3.414   3.253  1.5381  2.1629 -0.7862
  191SAPI   C2622022   1.171   3.373   3.460 -0.4034  0.1985  0.2598
  191SAPI   H6R22023   1.157   3.265   3.447 -2.6510  0.0646  2.9606
  191SAPI   C2722024   1.194   3.424   3.603  0.5628 -0.2612 -0.2066
  191SAPI   H7R22025   1.148   3.353   3.675 -1.7436 -1.1637 -2.4142
  191SAPI   H7S22026   1.119   3.504   3.617  0.6820 -0.1679 -0.0936
  191SAPI   C2822027   1.332   3.482   3.631  0.1294  0.1688  0.0177
  191SAPI   H8R22028   1.397   3.499   3.544  1.3241  0.6079  0.9731
  191SAPI   C2922029   1.372   3.543   3.742 -0.1976  0.3268 -0.2086
  191SAPI   H9R22030   1.472   3.583   3.765  0.0716 -1.5495  2.3601
  191SAPI  C21022031   1.295   3.546   3.869  0.2761 -0.1268 -0.5988
  191SAPI  H10R22032   1.303   3.445   3.914  1.4613 -0.3003 -1.1683
  191SAPI  H10S22033   1.185   3.543   3.853  0.1347 -0.8239  0.4047
  191SAPI  C21122034   1.319   3.657   3.975 -0.6885 -0.1903 -0.2021
  191SAPI  H11R22035   1.279   3.755   3.945  1.1571  0.0801 -1.9705
  191SAPI  C21222036   1.350   3.639   4.105  0.0339 -0.3198  0.9255
  191SAPI  H12R22037   1.371   3.733   4.157  0.2800  0.5011 -0.5945
  191SAPI  C21322038   1.396   3.510   4.164 -0.0846 -0.2566 -0.0830
  191SAPI  H13R22039   1.457   3.541   4.251 -1.1920 -1.5207  1.1832
  191SAPI  H13S22040   1.473   3.466   4.097 -2.5381 -1.8484 -2.0165
  191SAPI  C21422041   1.289   3.408   4.191 -0.5122  0.3012  0.0279
  191SAPI  H14R22042   1.229   3.371   4.107 -0.0343  1.5317 -0.8833
  191SAPI  C21522043   1.297   3.329   4.297  0.6285 -0.0339 -0.1776
  191SAPI  H15R22044   1.221   3.251   4.310  0.1847  0.8614  3.7956
  191SAPI  C21622045   1.395   3.335   4.411  0.6712  0.4647  0.4134
  191SAPI  H16R22046   1.358   3.421   4.472 -0.0355  0.1923  0.3731
  191SAPI  H16S22047   1.491   3.370   4.367 -0.6241  1.6621 -1.6098
  191SAPI  C21722048   1.404   3.200   4.490 -0.6505  0.3442 -0.2027
  191SAPI  H17R22049   1.494   3.202   4.555 -0.6015 -2.6889 -0.0450
  191SAPI  H17S22050   1.429   3.124   4.413 -0.5972  2.2964 -2.2331
  191SAPI  C21822051   1.281   3.152   4.567  0.1836 -0.7245  0.3492
  191SAPI  H18R22052   1.197   3.116   4.505 -0.4444  2.7397 -1.0136
  191SAPI  H18S22053   1.240   3.238   4.625 -0.8852 -1.7412  1.1358
  191SAPI  C21922054   1.327   3.036   4.660  0.4694  0.1349 -0.9429
  191SAPI  H19R22055   1.414   3.065   4.723  0.4512  1.9316 -1.6820
  191SAPI  H19S22056   1.362   2.952   4.596 -1.5805 -2.4796  1.0803
  191SAPI  C22022057   1.215   2.982   4.757 -0.6724  0.0053  1.2958
  191SAPI  H20R22058   1.152   3.069   4.784 -1.4028  0.1336 -0.6546
  191SAPI  H20S22059   1.273   2.941   4.842 -0.6649  1.0808  1.8201
  191SAPI  H20T22060   1.154   2.904   4.707 -0.5077 -0.8951  2.4595
  191SAPI   C3322061   1.621   3.196   3.636  0.3354 -0.9222 -0.5367
  191SAPI   H3X22062   1.529   3.200   3.697  0.0379  0.2036 -1.0304
  191SAPI   H3Y22063   1.651   3.302   3.619  1.0257 -0.8973  0.7477
  191SAPI   C3422064   1.733   3.113   3.699  0.3441  0.0248 -0.6019
  191SAPI   H4X22065   1.822   3.132   3.634  0.2758 -0.3096 -0.7923
  191SAPI   H4Y22066   1.720   3.005   3.680  2.3308 -0.1171 -1.4357
  191SAPI   C3522067   1.759   3.129   3.845 -0.0712  0.9482 -0.8614
  191SAPI   H5X22068   1.764   3.237   3.871  0.6091  0.4797  1.1414
  191SAPI   H5Y22069   1.860   3.086   3.862  0.1841  0.3179 -3.5703
  191SAPI   C3622070   1.658   3.060   3.926  0.1339 -0.7876 -0.2135
  191SAPI   H6X22071   1.638   2.957   3.888 -1.8067 -0.6308  0.2793
  191SAPI   H6Y22072   1.557   3.106   3.927  2.1360  4.1968 -0.8514
  191SAPI   C3722073   1.699   3.046   4.080  0.5438 -0.1529  0.0599
  191SAPI   H7X22074   1.691   3.147   4.126  0.1365  0.0940 -0.5298
  191SAPI   H7Y22075   1.798   3.000   4.100  0.3904 -0.7488 -0.5139
  191SAPI   C3822076   1.600   2.942   4.147  0.4067  0.6032  0.1640
  191SAPI   H8X22077   1.617   2.840   4.106 -0.6125  0.2954  0.4705
  191SAPI   H8Y22078   1.494   2.963   4.118  0.4084  0.7218  0.2408
  191SAPI   C3922079   1.615   2.949   4.297 -0.7430  0.4746  0.7539
  191SAPI   H9X22080   1.519   2.933   4.351 -2.2333  1.3276 -1.4806
  191SAPI   H9Y22081   1.638   3.055   4.321 -2.1445  0.8915  0.3470
  191SAPI  C31022082   1.731   2.865   4.358  0.3880 -0.2835  0.6720
  191SAPI  H10X22083   1.827   2.904   4.319  0.9078 -1.0168  1.1736
  191SAPI  H10Y22084   1.715   2.759   4.330  0.2322 -0.5326  1.6503
  191SAPI  C31122085   1.735   2.868   4.511  0.4989 -0.4812  0.0950
  191SAPI  H11X22086   1.643   2.821   4.552  0.8786 -1.4206 -0.1037
  191SAPI  H11Y22087   1.737   2.974   4.542  0.5470 -0.5643  0.3844
  191SAPI  C31222088   1.847   2.798   4.587 -0.2178  0.0130  0.6112
  191SAPI  H12X22089   1.941   2.832   4.538  0.2567  0.1009  1.5601
  191SAPI  H12Y22090   1.845   2.688   4.567 -1.5747 -0.0576  1.0736
  191SAPI  C31322091   1.856   2.841   4.735  0.0782 -0.6273 -0.1951
  191SAPI  H13X22092   1.839   2.950   4.750  0.9154 -0.4263 -0.6438
  191SAPI  H13Y22093   1.962   2.816   4.756  0.4301 -0.9347 -2.1179
  191SAPI  C31422094   1.743   2.773   4.823 -0.2658 -0.2941  0.1636
  191SAPI  H14X22095   1.645   2.812   4.789 -0.3123  0.4846  1.1542
  191SAPI  H14Y22096   1.753   2.791   4.933 -0.1229  1.4076 -0.1031
  191SAPI  C31522097   1.732   2.623   4.799 -0.0858  0.6289 -0.2172
  191SAPI  H15X22098   1.835   2.587   4.781 -0.6450 -1.8066  1.1151
  191SAPI  H15Y22099   1.664   2.609   4.712 -1.8991  1.2316  1.0376
  191SAPI  C31622100   1.673   2.536   4.916  1.2443 -0.3990  0.1874
  191SAPI  H16X22101   1.573   2.583   4.922  0.1402 -2.0432 -2.9446
  191SAPI  H16Y22102   1.740   2.534   5.006  1.3108  0.0570  0.1471
  191SAPI  C31722103   1.660   2.387   4.882 -0.5300 -0.5268 -0.0440
  191SAPI  H17X22104   1.756   2.350   4.838 -0.8078  1.0450 -2.1596
  191SAPI  H17Y22105   1.595   2.365   4.795  0.1266 -2.3465 -0.1208
  191SAPI  C31822106   1.607   2.312   5.003 -0.7720 -0.1221  0.1183
  191SAPI  H18X22107   1.669   2.337   5.091 -0.9290  0.2648  0.1218
  191SAPI  H18Y22108   1.617   2.203   4.986 -0.3506 -0.3936  1.9596
  191SAPI  H18Z22109   1.500   2.335   5.024 -0.4896  0.1619  1.2781
  192SAPI   C1222110   2.989   6.523   2.634 -0.3225 -0.4091  0.3515
  192SAPI    H222111   2.913   6.450   2.599  0.7589 -1.6587  0.4939
  192SAPI    O222112   3.119   6.480   2.599 -0.8864  0.4779  0.1400
  192SAPI   HO222113   3.126   6.384   2.597  0.2798  0.5491 -0.8181
  192SAPI   C1322114   2.947   6.658   2.577  0.1013 -0.2459 -0.5124
  192SAPI    H322115   2.859   6.691   2.636 -1.7535 -1.0047 -2.7349
  192SAPI    O322116   2.908   6.653   2.446 -0.3282  0.4539 -0.2941
  192SAPI   HO322117   2.813   6.647   2.442 -0.2998 -0.4817  0.0503
  192SAPI   C1422118   3.053   6.772   2.598 -0.1519  0.0837  0.8730
  192SAPI    H422119   3.135   6.726   2.539  1.0442 -0.1272  2.6062
  192SAPI    O422120   3.023   6.897   2.536  0.8404 -0.2784 -0.1927
  192SAPI   HO422121   2.957   6.939   2.592 -0.5842  0.4549 -2.2876
  192SAPI   C1522122   3.085   6.789   2.746 -0.3392 -0.0864 -0.2029
  192SAPI    H522123   3.037   6.883   2.782 -0.3379  0.1019 -0.6843
  192SAPI    O522124   3.232   6.816   2.755 -0.2584 -0.0368 -0.9257
  192SAPI   HO522125   3.265   6.870   2.683  0.5534 -1.0737 -1.3652
  192SAPI   C1622126   3.047   6.658   2.836 -0.4092 -0.8319  0.6413
  192SAPI    H622127   3.152   6.630   2.860  0.9165  0.5547 -2.8116
  192SAPI    O622128   2.990   6.715   2.952  0.8790 -0.4724  0.2813
  192SAPI   HO622129   2.899   6.741   2.934 -0.1855 -3.3118  0.9714
  192SAPI   C1122130   2.973   6.540   2.780 -0.3440 -0.4760 -0.2807
  192SAPI    H122131   2.865   6.554   2.801 -0.5015 -1.8852 -0.0580
  192SAPI     P22132   2.899   6.303   2.878  0.4321 -0.3073  0.4599
  192SAPI   O1322133   2.981   6.188   2.921 -0.2886  0.1848 -1.0722
  192SAPI   O1422134   2.823   6.292   2.752 -0.4251 -0.0585  0.1161
  192SAPI   O1222135   3.011   6.420   2.855  0.2476 -0.3855  0.5219
  192SAPI   O1122136   2.801   6.329   2.995 -0.1848  0.4203  0.7002
  192SAPI    C122137   2.794   6.456   3.065 -0.5578  0.5602  1.1294
  192SAPI    HA22138   2.803   6.540   2.993  0.3339 -0.5584 -0.1248
  192SAPI    HB22139   2.691   6.474   3.103 -0.8588  2.2126 -0.3553
  192SAPI    C222140   2.899   6.472   3.175 -0.8393  0.7893  0.4892
  192SAPI    HS22141   2.995   6.476   3.121 -0.4349  0.5282  1.1741
  192SAPI   O2122142   2.881   6.360   3.264 -0.2429 -0.2008 -0.9201
  192SAPI   C2122143   2.995   6.313   3.312  0.0751  0.4572 -0.3126
  192SAPI   O2222144   3.106   6.336   3.276  0.5128 -0.2770 -0.0232
  192SAPI   C2222145   2.958   6.211   3.427 -0.5206  0.5656 -0.3115
  192SAPI   H2R22146   2.954   6.105   3.395  1.5672 -0.6420  2.9101
  192SAPI   H2S22147   3.046   6.225   3.494 -0.3866  1.4209 -0.6548
  192SAPI    C322148   2.880   6.609   3.243  0.3436 -0.3035 -0.8642
  192SAPI    HX22149   2.784   6.611   3.299 -1.3076  0.1311 -3.5299
  192SAPI    HY22150   2.879   6.694   3.172 -0.5677  0.9993  0.6553
  192SAPI   O3122151   2.982   6.621   3.344 -0.1484 -0.2474  0.5047
  192SAPI   C3122152   2.998   6.732   3.397  0.0084 -1.0020  0.1399
  192SAPI   O3222153   2.919   6.832   3.392  0.1540  0.8901 -0.3847
  192SAPI   C3222154   3.125   6.736   3.470 -0.0036  0.2903 -1.1196
  192SAPI   H2X22155   3.159   6.840   3.488  2.3413 -0.8094  1.5281
  192SAPI   H2Y22156   3.211   6.689   3.417  3.0043  0.4461  3.1139
  192SAPI   C2322157   2.828   6.239   3.513  0.3222 -0.0719 -0.1253
  192SAPI   H3R22158   2.745   6.213   3.444 -0.4970 -0.7283  1.0688
  192SAPI   H3S22159   2.818   6.347   3.536  0.1199  0.1674 -1.2841
  192SAPI   C2422160   2.830   6.153   3.640 -0.1545 -0.4514 -0.3490
  192SAPI   H4R22161   2.820   6.045   3.617 -1.1240 -0.3958 -0.2215
  192SAPI   H4S22162   2.738   6.173   3.699  0.2833  0.8715 -0.0806
  192SAPI   C2522163   2.950   6.179   3.732  0.6898  0.6883 -0.1844
  192SAPI   H5R22164   3.036   6.112   3.714  0.0724 -0.4247  0.9205
  192SAPI   C2622165   2.953   6.268   3.835  0.1612  0.3592  0.4811
  192SAPI   H6R22166   3.046   6.273   3.893  1.9628 -1.2172 -2.0504
  192SAPI   C2722167   2.842   6.356   3.899  0.1057  0.7156  0.2439
  192SAPI   H7R22168   2.753   6.290   3.913  0.1422  1.0154  2.1347
  192SAPI   H7S22169   2.805   6.433   3.828 -3.8556 -2.2485 -1.2757
  192SAPI   C2822170   2.872   6.404   4.032 -0.2825 -0.0399 -0.2437
  192SAPI   H8R22171   2.936   6.493   4.023  2.1422 -1.7370 -0.7873
  192SAPI   C2922172   2.838   6.361   4.159 -0.5879  0.0409 -0.3542
  192SAPI   H9R22173   2.868   6.426   4.244 -1.3932 -0.8153  0.6092
  192SAPI  C21022174   2.744   6.249   4.184  0.0659 -0.1043  0.3903
  192SAPI  H10R22175   2.673   6.238   4.100  0.5978  1.1376 -0.2405
  192SAPI  H10S22176   2.688   6.249   4.280  0.2666  0.8710  0.5141
  192SAPI  C21122177   2.820   6.122   4.178  0.0277  0.1505 -0.0013
  192SAPI  H11R22178   2.836   6.091   4.074  1.4116 -0.7589  0.4371
  192SAPI  C21222179   2.854   6.042   4.284 -0.2190 -0.1057  0.5704
  192SAPI  H12R22180   2.899   5.944   4.263 -1.0222 -0.2015 -0.7937
  192SAPI  C21322181   2.827   6.078   4.431  0.0047  0.0588  0.4026
  192SAPI  H13R22182   2.725   6.124   4.427  1.2248  2.8819 -1.9234
  192SAPI  H13S22183   2.884   6.171   4.454 -1.3106  1.8040 -2.7665
  192SAPI  C21422184   2.830   5.967   4.535  0.0105 -0.4806 -0.1433
  192SAPI  H14R22185   2.733   5.932   4.572 -1.8598  2.4222 -1.9778
  192SAPI  C21522186   2.945   5.917   4.587 -0.2954  1.1286  0.3343
  192SAPI  H15R22187   2.943   5.845   4.670  1.7609 -3.3719 -3.1160
  192SAPI  C21622188   3.084   5.959   4.548  0.3257  0.0388  0.1751
  192SAPI  H16R22189   3.115   6.041   4.617 -0.7821  1.5360 -1.0433
  192SAPI  H16S22190   3.098   6.014   4.452  0.1583 -1.2420 -0.5941
  192SAPI  C21722191   3.201   5.857   4.545  0.4843 -0.8000  0.4475
  192SAPI  H17R22192   3.294   5.917   4.539 -0.5829  0.8963  0.2817
  192SAPI  H17S22193   3.197   5.799   4.451 -0.9268 -0.9553  0.5893
  192SAPI  C21822194   3.215   5.767   4.671 -0.0695  0.1317  0.0944
  192SAPI  H18R22195   3.302   5.700   4.656 -1.3749 -1.6147 -0.1130
  192SAPI  H18S22196   3.130   5.695   4.665  0.3142 -0.2488 -0.8994
  192SAPI  C21922197   3.225   5.835   4.805  0.6141 -0.0016  0.3462
  192SAPI  H19R22198   3.131   5.892   4.821 -0.4133 -1.9046  1.5795
  192SAPI  H19S22199   3.306   5.911   4.800 -1.8405  2.6731 -1.3507
  192SAPI  C22022200   3.247   5.744   4.931  0.4688  0.3969 -0.2426
  192SAPI  H20R22201   3.171   5.666   4.954  2.0304 -0.8502  0.8990
  192SAPI  H20S22202   3.237   5.821   5.010  1.4158  0.3613 -0.0770
  192SAPI  H20T22203   3.347   5.697   4.942  0.0839 -0.6353 -1.0442
  192SAPI   C3322204   3.114   6.670   3.607 -0.1073  0.4602 -0.1475
  192SAPI   H3X22205   3.213   6.646   3.651 -0.0715  0.4993 -0.2072
  192SAPI   H3Y22206   3.063   6.571   3.600  0.2782  0.0592  2.0294
  192SAPI   C3422207   3.053   6.758   3.714  0.3844 -0.2638  0.0797
  192SAPI   H4X22208   2.950   6.795   3.692  1.2064  2.1282 -0.0585
  192SAPI   H4Y22209   3.105   6.855   3.729  0.6100 -0.5888  1.5487
  192SAPI   C3522210   3.042   6.696   3.856 -0.2806  0.1888 -0.1422
  192SAPI   H5X22211   3.129   6.632   3.884 -0.0064  0.4705 -0.3467
  192SAPI   H5Y22212   2.956   6.626   3.848  0.7819 -1.0867 -0.8362
  192SAPI   C3622213   3.011   6.795   3.962 -0.3190  0.1401 -0.2174
  192SAPI   H6X22214   2.911   6.837   3.939 -0.4279 -0.4594 -0.8510
  192SAPI   H6Y22215   3.094   6.870   3.963  0.5983 -0.7400 -2.6097
  192SAPI   C3722216   3.005   6.741   4.109  0.0970  0.6422 -0.2107
  192SAPI   H7X22217   3.100   6.688   4.134 -1.2059 -0.8738  1.9461
  192SAPI   H7Y22218   2.915   6.676   4.117  0.1011  0.3143 -2.3408
  192SAPI   C3822219   3.000   6.847   4.218 -0.4060  0.3845  0.1539
  192SAPI   H8X22220   2.916   6.917   4.196 -0.9745  0.2805  1.8273
  192SAPI   H8Y22221   3.096   6.903   4.215  0.3341 -0.7455 -4.3403
  192SAPI   C3922222   2.966   6.794   4.363  0.2716  0.2517 -0.7513
  192SAPI   H9X22223   2.871   6.737   4.356  1.2823 -1.5489 -0.2856
  192SAPI   H9Y22224   2.947   6.878   4.434 -0.0069 -0.8919  0.5747
  192SAPI  C31022225   3.090   6.738   4.428  0.2282 -0.1205 -0.8424
  192SAPI  H10X22226   3.168   6.817   4.440 -0.5694  0.4721  0.5937
  192SAPI  H10Y22227   3.128   6.656   4.362 -1.5743 -1.5287 -0.2107
  192SAPI  C31122228   3.074   6.678   4.572 -0.0354  0.1288  0.6871
  192SAPI  H11X22229   3.027   6.746   4.647 -3.3354 -0.7180 -0.4532
  192SAPI  H11Y22230   3.172   6.647   4.615  0.0612  2.5112  2.4556
  192SAPI  C31222231   2.981   6.549   4.556  0.3870  0.0743  0.3846
  192SAPI  H12X22232   3.034   6.474   4.494 -0.8430  1.7103 -2.8639
  192SAPI  H12Y22233   2.893   6.572   4.493  0.6921 -0.3250 -0.1949
  192SAPI  C31322234   2.925   6.494   4.691  1.3142 -0.3428 -0.3341
  192SAPI  H13X22235   2.887   6.584   4.744 -0.6662 -1.2421 -0.1451
  192SAPI  H13Y22236   3.012   6.460   4.751  1.0936  0.3205  0.3790
  192SAPI  C31422237   2.793   6.402   4.689  0.1416 -0.7141 -0.3803
  192SAPI  H14X22238   2.811   6.310   4.629  0.6333 -0.8464 -0.0336
  192SAPI  H14Y22239   2.725   6.457   4.620  0.3972  0.6710  0.4191
  192SAPI  C31522240   2.734   6.364   4.827 -0.4868 -0.0500 -0.7333
  192SAPI  H15X22241   2.759   6.436   4.908  0.4885 -1.5013  0.3038
  192SAPI  H15Y22242   2.784   6.269   4.855  2.0635  0.0806 -4.1437
  192SAPI  C31622243   2.589   6.333   4.822  0.3943  0.2051  0.3875
  192SAPI  H16X22244   2.571   6.234   4.776 -0.2706  1.3295 -1.9380
  192SAPI  H16Y22245   2.540   6.408   4.756 -2.7859 -0.8524  1.3582
  192SAPI  C31722246   2.519   6.352   4.955 -0.1667  0.3468  0.1400
  192SAPI  H17X22247   2.409   6.357   4.937 -0.5057  1.4148  2.1982
  192SAPI  H17Y22248   2.552   6.442   5.011 -1.6063 -0.1104  1.8146
  192SAPI  C31822249   2.553   6.235   5.050 -0.0355  0.5459  0.4485
  192SAPI  H18X22250   2.536   6.136   5.001 -4.1042  0.4943  1.6067
  192SAPI  H18Y22251   2.492   6.224   5.142 -1.5577 -1.6291 -0.7244
  192SAPI  H18Z22252   2.663   6.242   5.067  0.1215 -0.7842  0.1195
  193SOD    SOD22253   6.715   0.723   7.442 -0.3104 -0.0903 -0.4124
  194SOD    SOD22254   3.305   5.070   8.739 -1.0521  0.0776  0.3611
  195SOD    SOD22255   6.678   1.643   2.356 -0.2113 -0.1828  0.2006
  196SOD    SOD22256   2.007   3.343   2.075 -0.3908  0.6017  0.3989
  197SOD    SOD22257   3.562   2.655   0.567 -0.3844 -0.1005  0.2997
  198SOD    SOD22258   1.236   2.312   2.129  0.4599 -0.0638  0.1057
  199SOD    SOD22259   5.331   6.031   2.783 -0.0128 -0.7517 -0.2757
  200SOD    SOD22260   3.850   4.361   2.678  0.0212 -0.5041 -0.4174
  201SOD    SOD22261   0.957   6.042   7.912 -0.1433 -0.6529 -0.1869
  202SOD    SOD22262   2.678   2.571   2.296 -0.0843 -0.6067  0.4203
  203SOD    SOD22263   2.264   2.030   7.832 -0.4538  0.3952  0.6263
  204SOD    SOD22264   4.339   4.957   0.106 -0.0161 -0.2111 -0.4896
  205SOD    SOD22265   6.590   6.679   8.594  0.3370  0.1512 -0.1958
  206SOD    SOD22266   5.653   0.708   0.799 -0.1386 -0.1361  0.5652
  207SOD    SOD22267   3.410   3.778   2.502  0.7755  0.3994  0.2709
  208SOD    SOD22268   1.292   4.920   0.416 -0.1742  0.5133  0.1810
  209SOD    SOD22269   3.494   6.520   1.808 -0.2452  0.2102 -0.4802
  210SOD    SOD22270   1.287   2.437   0.293  0.5351 -0.2033  0.5518
  211SOD    SOD22271   1.266   1.162   7.223 -0.3194 -0.3118 -0.1210
  212SOD    SOD22272   2.349   4.453   1.280 -0.0452 -0.4937 -0.6033
  213SOD    SOD22273   0.480   0.126   2.162  0.3983  0.4615 -0.3303
  214SOD    SOD22274   5.699   1.849   6.694  0.5302  0.4496 -0.0854
  215SOD    SOD22275   1.430   3.243   2.252  0.8006 -0.1238 -0.0280
  216SOD    SOD22276   3.835   5.584   6.993 -0.3112 -0.1602 -0.1993
  217SOD    SOD22277   0.618   1.091   8.125 -0.1939 -0.1434 -0.2026
  218SOD    SOD22278   4.700   4.657   0.747 -0.0258  0.2002  0.0034
  219SOD    SOD22279   5.632   3.690   0.135 -0.5966 -0.0770  0.4619
  220SOD    SOD22280   2.370   6.750   8.694  0.2290 -0.3557  0.3896
  221SOD    SOD22281   4.363   0.192   7.485 -0.4154  0.1594  0.2321
  222SOD    SOD22282   1.708   2.941   0.939  0.1267  0.3406  0.4509
  223SOD    SOD22283   3.474   2.483   1.507  0.2356  0.2408 -0.4509
  224SOD    SOD22284   5.530   3.111   7.626 -0.2769  0.2368 -0.0041
  225SOD    SOD22285   1.844   6.081   2.850  0.1644  0.2031 -0.3037
  226SOD    SOD22286   3.837   6.582   0.691  0.2575 -0.4613 -0.1368
  227SOD    SOD22287   0.901   2.447   0.258 -0.5706  0.0169  0.0821
  228SOD    SOD22288   1.836   5.948   8.292  0.4813  0.6286 -0.1425
  229SOD    SOD22289   5.024   5.360   7.592  0.0686  0.3173  0.1845
  230SOD    SOD22290   0.906   6.664   0.509 -0.0359  0.3360 -0.0165
  231SOD    SOD22291   4.686   3.458   7.523 -0.1016  0.5300  0.0224
  232SOD    SOD22292   1.098   3.632   7.153  0.3096  0.2278 -0.6069
  233SOD    SOD22293   1.931   3.486   6.965 -0.1438 -0.1087  0.1129
  234CLA    CLA22294   1.520   3.344   1.761 -0.0829  0.1356  0.1669
  235CLA    CLA22295   3.915   3.656   8.036  0.0144 -0.0063 -0.2370
  236CLA    CLA22296   4.078   1.590   1.089 -0.4471  0.2769 -0.0848
  237CLA    CLA22297   2.380   0.606   0.468 -0.2934 -0.3532 -0.1968
  238CLA    CLA22298   5.823   3.228   8.220 -0.1228 -0.1363 -0.2001
  239CLA    CLA22299   2.732   3.977   1.084  0.0133  0.1286 -0.1977
  240CLA    CLA22300   6.604   5.306   7.834  0.1665  0.1605 -0.0458
  241CLA    CLA22301   0.318   4.313   0.043 -0.0068 -0.1652  0.1084
  242CLA    CLA22302   2.069   3.072   8.108 -0.4373  0.0356 -0.0874
  243CLA    CLA22303   2.474   4.532   0.246  0.1481  0.1840  0.0594
  244CLA    CLA22304   5.258   5.807   8.842  0.0100 -0.4290 -0.5226
  245CLA    CLA22305   5.340   1.257   1.756  0.3738 -0.0542 -0.0337
  246CLA    CLA22306   3.329   0.363   8.521 -0.2611 -0.4035 -0.0683
  247CLA    CLA22307   6.781   3.595   1.364 -0.2189  0.2959  0.0683
  248CLA    CLA22308   3.196   2.950   8.537  0.0033 -0.3612  0.2809
  249CLA    CLA22309   2.184   2.541   1.839  0.1031 -0.3305 -0.0191
  250CLA    CLA22310   4.279   4.463   0.231  0.1895  0.2901  0.3688
  251TIP3   OH222311   0.811   1.198   8.217  0.3961  0.4527  0.4819
  251TIP3    H122312   0.845   1.284   8.241  0.3044  0.3386  1.0555
  251TIP3    H222313   0.879   1.137   8.245  0.3550  0.3267  0.3048
  252TIP3   OH222314   1.829   2.671   7.927 -0.0082  0.1361 -0.1402
  252TIP3    H122315   1.897   2.692   7.863 -0.0677 -1.2798 -0.7187
  252TIP3    H222316   1.864   2.699   8.011  1.7609 -1.4728 -0.2747
  253TIP3   OH222317   5.153   1.791   7.449  0.1702  0.1194 -0.3638
  253TIP3    H122318   5.107   1.738   7.384 -1.0150 -0.7048  1.0788
  253TIP3    H222319   5.227   1.829   7.401  0.7918 -2.4299 -1.5867
  254TIP3   OH222320   1.348   4.719   2.728 -0.2840 -0.4170  0.3635
  254TIP3    H122321   1.340   4.722   2.824  1.6297  2.2104  0.5777
  254TIP3    H222322   1.259   4.732   2.696 -0.8624 -0.5952  1.8170
  255TIP3   OH222323   0.284   1.454   1.782 -0.7674  0.5624  0.3729
  255TIP3    H122324   0.371   1.465   1.819 -0.3513 -1.6402  0.1926
  255TIP3    H222325   0.297   1.463   1.687 -0.3859 -1.2931  0.2062
  256TIP3   OH222326   5.806   0.216   2.838  0.1596 -0.3219 -1.1246
  256TIP3    H122327   5.820   0.205   2.932 -2.1053  0.0670 -0.6719
  256TIP3    H222328   5.735   0.156   2.817 -0.3619  0.6391 -2.2712
  257TIP3   OH222329   1.034   0.303   0.922 -0.1149 -0.4660  0.2560
  257TIP3    H122330   1.116   0.316   0.874 -0.0034  0.6382  0.7203
  257TIP3    H222331   0.974   0.366   0.884 -0.7205 -1.1902  0.0019
  258TIP3   OH222332   4.492   3.234   1.768 -0.4061 -0.4615  0.3207
  258TIP3    H122333   4.499   3.166   1.834  0.2435  1.8642  2.8195
  258TIP3    H222334   4.398   3.241   1.750 -0.5387 -1.4773  0.5925
  259TIP3   OH222335   2.989   3.923   2.478  0.5103  0.6562  0.0091
  259TIP3    H122336   2.908   3.945   2.525  0.8812  2.5521 -0.1532
  259TIP3    H222337   2.963   3.853   2.418 -0.6575  0.2199  0.9744
  260TIP3   OH222338   4.245   1.159   2.209 -0.4422 -0.7960 -0.5476
  260TIP3    H122339   4.297   1.079   2.217  2.0461  0.6718 -0.7455
  260TIP3    H222340   4.305   1.222   2.169 -2.7618  0.7788 -1.7422
  261TIP3   OH222341   2.081   5.219   1.286  0.3102  0.0716  0.0082
  261TIP3    H122342   2.142   5.259   1.349 -0.6052  0.0661  0.9280
  261TIP3    H222343   2.070   5.129   1.317 -1.9474  0.7079  1.2866
  262TIP3   OH222344   6.402   5.001   8.040 -0.4985  0.1439  0.0134
  262TIP3    H122345   6.497   4.996   8.032 -0.4418 -0.1496  0.7098
  262TIP3    H222346   6.382   4.944   8.114 -1.4241 -1.4174 -1.3831
  263TIP3   OH222347   0.465   0.718   8.331 -0.5525  0.0056  0.2782
  263TIP3    H122348   0.402   0.646   8.326 -1.2032  0.5917 -0.3146
  263TIP3    H222349   0.487   0.725   8.423 -0.9227 -0.5911  0.4137
  264TIP3   OH222350   2.721   3.082   8.843  0.1118  0.4150  0.0195
  264TIP3    H122351   2.790   3.043   8.896 -0.3342  0.0169  0.3129
  264TIP3    H222352   2.748   3.065   8.753 -0.2265 -0.8670  0.1399
  265TIP3   OH222353   1.906   0.263   0.268  0.2421 -0.2523 -0.3610
  265TIP3    H122354   1.982   0.207   0.286 -0.5908 -1.5269 -0.6840
  265TIP3    H222355   1.916   0.337   0.328  1.7743 -0.3381 -0.4570
  266TIP3   OH222356   5.775   4.102   8.031 -0.2779 -0.2738  0.5355
  266TIP3    H122357   5.771   4.027   8.091 -0.7464 -0.4238  0.3255
  266TIP3    H222358   5.852   4.151   8.059 -0.1226 -0.6881  0.8508
  267TIP3   OH222359   5.903   0.472   7.479 -0.3256 -0.5268 -0.7668
  267TIP3    H122360   5.886   0.566   7.484  0.9403 -0.2210 -1.6705
  267TIP3    H222361   5.941   0.459   7.392  0.4688 -1.6999 -0.2710
  268TIP3   OH222362   0.902   5.341   2.525 -0.1765  0.7007 -0.3496
  268TIP3    H122363   0.821   5.336   2.474 -0.4254  0.8128  0.0292
  268TIP3    H222364   0.874   5.325   2.615  0.2831  0.3266 -0.2696
  269TIP3   OH222365   2.223   0.012   2.481 -1.1600  0.3596  0.1965
  269TIP3    H122366   2.266  -0.013   2.562  1.4851  2.2911 -0.4677
  269TIP3    H222367   2.258  -0.048   2.415 -0.1359  1.3411 -0.1814
  270TIP3   OH222368   3.897   5.734   0.858 -0.0178 -0.2669  0.4331
  270TIP3    H122369   3.874   5.821   0.891 -0.8580  0.0248 -0.8516
  270TIP3    H222370   3.946   5.693   0.929 -0.7553  0.7658  1.5632
  271TIP3   OH222371   2.847   5.284   8.511  0.2441  0.0805 -0.4738
  271TIP3    H122372   2.863   5.324   8.597 -1.7320 -0.7536  0.3343
  271TIP3    H222373   2.851   5.190   8.528  1.0510 -0.0954 -1.5745
  272TIP3   OH222374   3.106   4.931   8.711  0.0604  0.1040 -0.7111
  272TIP3    H122375   3.042   4.966   8.649  1.3287  0.7917 -1.6836
  272TIP3    H222376   3.077   4.841   8.728 -1.8868  0.8124 -0.0808
  273TIP3   OH222377   3.481   2.875   7.959  0.6205  0.1549  0.4102
  273TIP3    H122378   3.528   2.829   8.029 -0.0167  0.4663  1.0534
  273TIP3    H222379   3.401   2.907   8.001 -0.3224 -0.6094 -0.7307
  274TIP3   OH222380   4.234   0.105   7.307  0.0281 -0.4282 -0.2088
  274TIP3    H122381   4.223   0.010   7.300  0.8321 -0.7115  1.6680
  274TIP3    H222382   4.267   0.132   7.221  0.6987 -2.0037 -0.4888
  275TIP3   OH222383   3.126   5.290   1.907  0.2718 -0.0190  0.9447
  275TIP3    H122384   3.159   5.275   1.996 -0.4694  0.3614  1.2931
  275TIP3    H222385   3.032   5.272   1.914  0.5210 -2.2135 -0.2732
  276TIP3   OH222386   1.040   5.925   7.734  0.2473 -0.3824 -0.2433
  276TIP3    H122387   1.104   5.856   7.718 -0.6032 -0.9967 -1.1729
  276TIP3    H222388   0.980   5.918   7.660  0.5415  1.8454 -0.7405
  277TIP3   OH222389   5.207   3.558   2.530  0.1001 -0.4745 -0.3785
  277TIP3    H122390   5.167   3.522   2.609  0.2216  1.0745  0.4290
  277TIP3    H222391   5.286   3.505   2.517  0.1150 -0.7074  0.5767
  278TIP3   OH222392   5.454   1.532   0.241  0.1768 -0.2373 -0.3733
  278TIP3    H122393   5.502   1.605   0.281  0.3717 -0.8955  0.6337
  278TIP3    H222394   5.367   1.537   0.280  0.7705 -1.7314  1.3398
  279TIP3   OH222395   4.558   6.084   1.045 -0.0349 -0.3655  0.0164
  279TIP3    H122396   4.516   6.162   1.008 -0.4997 -1.4877 -1.9436
  279TIP3    H222397   4.495   6.014   1.030  0.6476 -1.2625  1.1795
  280TIP3   OH222398   5.921   3.948   2.771  0.4583 -0.1656 -0.3714
  280TIP3    H122399   5.931   3.853   2.779  1.2441 -0.0190  0.7484
  280TIP3    H222400   5.860   3.961   2.699  1.3621 -1.4823 -1.4230
  281TIP3   OH222401   4.786   1.105   7.518 -0.4306 -0.5248 -0.2966
  281TIP3    H122402   4.857   1.153   7.475  0.4632  0.2297  1.8939
  281TIP3    H222403   4.710   1.121   7.462  0.2331  1.9813 -0.6416
  282TIP3   OH222404   2.646   6.059   1.790 -0.5320  0.0965 -0.1389
  282TIP3    H122405   2.620   6.133   1.846 -1.6733 -1.6774  1.8328
  282TIP3    H222406   2.624   6.087   1.701  1.0718  2.9303  0.2110
  283TIP3   OH222407   2.945   2.286   0.979  0.3858  0.2612  0.2809
  283TIP3    H122408   2.875   2.261   0.919  0.5705 -4.2841  1.5741
  283TIP3    H222409   2.902   2.297   1.063  0.6772  2.5734  0.1933
  284TIP3   OH222410   1.138   3.256   8.574  0.6805  0.2098 -0.0807
  284TIP3    H122411   1.070   3.209   8.622  1.6137  0.2691  1.3632
  284TIP3    H222412   1.091   3.309   8.510 -0.6500  0.6041  1.1875
  285TIP3   OH222413   4.229   3.140   0.924  0.2625  0.3822  0.2512
  285TIP3    H122414   4.309   3.162   0.971  0.6798  0.2790 -0.3871
  285TIP3    H222415   4.222   3.208   0.856  0.4673 -0.2762 -0.4479
  286TIP3   OH222416   0.426   2.156   0.198 -0.0660  0.1766  0.2858
  286TIP3    H122417   0.364   2.089   0.227  0.6534 -0.7265 -0.1886
  286TIP3    H222418   0.511   2.123   0.227  0.1966  1.4388  1.0042
  287TIP3   OH222419   3.553   0.198   7.573 -0.0945 -0.0339 -0.0182
  287TIP3    H122420   3.624   0.179   7.633  1.2174 -2.3189 -2.1035
  287TIP3    H222421   3.590   0.183   7.486 -3.5758 -3.5228 -1.2002
  288TIP3   OH222422   4.948   3.702   2.761 -0.0619 -0.3506  0.3243
  288TIP3    H122423   4.860   3.693   2.722 -0.3304  0.4544  0.7378
  288TIP3    H222424   4.986   3.778   2.717  0.5058 -0.8048  0.0187
  289TIP3   OH222425   4.115   4.198   8.175  0.2862 -0.3087 -0.1396
  289TIP3    H122426   4.193   4.197   8.230  0.4758 -0.3630 -0.4098
  289TIP3    H222427   4.075   4.112   8.187  1.8255 -1.3885 -2.2291
  290TIP3   OH222428   4.238   1.656   2.152  0.6046 -0.0012 -0.3223
  290TIP3    H122429   4.282   1.597   2.092  0.3095  1.1122 -1.6763
  290TIP3    H222430   4.145   1.648   2.129  0.2551 -0.9651  1.2758
  291TIP3   OH222431   1.242   5.774   8.016 -0.2921 -0.2453 -0.3358
  291TIP3    H122432   1.330   5.761   7.979  0.2827 -1.4947  1.3046
  291TIP3    H222433   1.198   5.690   8.001 -0.1475 -0.6751  1.4080
  292TIP3   OH222434   5.570   6.578   8.600 -0.2373  0.2838 -0.1433
  292TIP3    H122435   5.628   6.504   8.585  0.3741  0.4495  1.2340
  292TIP3    H222436   5.521   6.587   8.519 -2.4333 -3.4187  0.5338
  293TIP3   OH222437   6.762   6.712   8.456 -0.1895 -0.6504  0.4597
  293TIP3    H122438   6.849   6.751   8.467 -0.3562  0.0839 -0.6572
  293TIP3    H222439   6.776   6.640   8.395 -0.3443 -0.6305  0.4003
  294TIP3   OH222440   4.814   1.514   0.795  0.4443  0.1618 -0.5886
  294TIP3    H122441   4.905   1.490   0.775  1.0680  1.0488  1.0125
  294TIP3    H222442   4.786   1.448   0.858  0.4329  0.6795 -0.0535
  295TIP3   OH222443   3.479   2.744   7.619 -0.2867  0.0041  0.2588
  295TIP3    H122444   3.459   2.688   7.694 -0.4504 -0.0475  0.1758
  295TIP3    H222445   3.575   2.744   7.615 -0.2880 -0.3244  0.2161
  296TIP3   OH222446   6.521   3.472   3.054 -0.7385  0.4919  0.3755
  296TIP3    H122447   6.516   3.382   3.022  1.6232 -0.3986  2.1837
  296TIP3    H222448   6.436   3.487   3.095 -0.8082 -1.3607  1.0395
  297TIP3   OH222449   5.882   4.236   2.737  0.5355  0.0066  0.7534
  297TIP3    H122450   5.807   4.254   2.680  0.5413  0.4047  0.8665
  297TIP3    H222451   5.883   4.141   2.747 -0.1554  0.0267  1.0323
  298TIP3   OH222452   5.031   0.518   7.332 -0.0061  0.3453  0.1902
  298TIP3    H122453   4.969   0.446   7.318 -0.2677  0.7618 -0.8905
  298TIP3    H222454   5.117   0.477   7.332 -0.2223 -0.1383  0.9468
  299TIP3   OH222455   4.938   6.100   8.507  0.7164  0.3604 -0.3595
  299TIP3    H122456   5.033   6.104   8.511  0.7279  0.4964 -0.6824
  299TIP3    H222457   4.913   6.180   8.461  0.5618 -0.4452 -1.7519
  300TIP3   OH222458   5.463   0.461   2.705  0.1521 -0.1453  0.3802
  300TIP3    H122459   5.449   0.434   2.796  1.9018 -0.2707  0.6502
  300TIP3    H222460   5.470   0.379   2.657 -1.0636 -0.0767  0.0638
  301TIP3   OH222461   1.556   2.299   8.626  0.0433 -0.6075  0.1777
  301TIP3    H122462   1.544   2.220   8.573  0.9395  0.6625 -2.0719
  301TIP3    H222463   1.617   2.352   8.576 -1.5233  2.1141  0.9230
  302TIP3   OH222464   5.815   3.723   0.603  0.1522  0.0236  0.0361
  302TIP3    H122465   5.731   3.688   0.629 -0.1099  0.0883 -0.6852
  302TIP3    H222466   5.876   3.650   0.611 -0.8168 -1.4233 -3.7422
  303TIP3   OH222467   2.385   3.152   2.885  0.2207 -0.0332 -0.0873
  303TIP3    H122468   2.422   3.226   2.837  1.3136 -1.0383 -0.8453
  303TIP3    H222469   2.312   3.122   2.829  1.0472 -0.7625 -0.8010
  304TIP3   OH222470   5.895   1.304   1.345 -0.6186  0.3074 -0.6717
  304TIP3    H122471   5.871   1.387   1.386 -3.0355 -1.0679  0.9718
  304TIP3    H222472   5.962   1.268   1.404 -2.0190 -0.3667  0.5772
  305TIP3   OH222473   5.038   4.406   8.122  0.0482  0.3722 -0.9567
  305TIP3    H122474   5.082   4.361   8.194  0.4432 -0.5037 -1.7343
  305TIP3    H222475   5.022   4.494   8.156  0.9347  0.2127 -0.0704
  306TIP3   OH222476   2.672   3.316   1.067 -0.2324  0.7949 -0.3742
  306TIP3    H122477   2.595   3.262   1.057 -2.6756  4.1621 -1.7179
  306TIP3    H222478   2.728   3.293   0.993 -0.7023 -0.5561 -0.3235
  307TIP3   OH222479   0.374   4.950   1.388 -1.1865  0.6128  0.1496
  307TIP3    H122480   0.290   4.908   1.407 -0.4403 -1.2041 -0.3797
  307TIP3    H222481   0.412   4.968   1.474 -0.7124 -1.5656  0.4553
  308TIP3   OH222482   3.672   3.452   7.968  0.0453 -0.3140  0.5424
  308TIP3    H122483   3.584   3.428   7.997  0.0319  0.5418  1.2356
  308TIP3    H222484   3.700   3.521   8.028  1.0498 -0.3172  0.1052
  309TIP3   OH222485   5.178   2.345   0.104 -0.0521 -0.1868 -0.3786
  309TIP3    H122486   5.240   2.344   0.031 -1.0846  0.5410 -1.3063
  309TIP3    H222487   5.214   2.284   0.168  2.3572  1.2298 -0.2519
  310TIP3   OH222488   6.044   2.708   0.656  0.5661  0.3230  0.1909
  310TIP3    H122489   6.128   2.668   0.680 -0.1854 -0.3747  1.7555
  310TIP3    H222490   6.065   2.761   0.579  1.8681 -2.0981 -1.2738
  311TIP3   OH222491   6.679   5.167   0.166 -0.1784 -0.4886  0.5282
  311TIP3    H122492   6.759   5.115   0.154  0.8516  0.7614  1.6797
  311TIP3    H222493   6.644   5.138   0.251  1.1742  1.5787  1.8752
  312TIP3   OH222494   6.118   5.700   2.991  0.3233 -0.5341 -0.4799
  312TIP3    H122495   6.213   5.706   2.994  0.1839  2.1973  0.7513
  312TIP3    H222496   6.101   5.631   2.926  3.0908 -0.5258 -1.3452
  313TIP3   OH222497   6.552   5.552   0.791  0.0150  0.2010  0.1145
  313TIP3    H122498   6.610   5.476   0.791 -0.0607 -0.0138  3.3355
  313TIP3    H222499   6.538   5.572   0.699  0.8456 -3.0431 -0.8414
  314TIP3   OH222500   2.097   1.445   6.945  0.0570 -0.1812 -0.2351
  314TIP3    H122501   2.060   1.513   7.001  1.4377  0.1808  0.2833
  314TIP3    H222502   2.155   1.492   6.885  1.0616 -0.8890  0.1541
  315TIP3   OH222503   0.483   3.427   1.486 -0.0780 -0.0903  0.1198
  315TIP3    H122504   0.541   3.486   1.438  2.1482 -0.2229  2.4114
  315TIP3    H222505   0.447   3.368   1.419  1.3561  0.8809 -1.5866
  316TIP3   OH222506   0.721   6.254   0.568 -0.3748 -0.3458  0.2785
  316TIP3    H122507   0.684   6.192   0.631  0.2091 -0.3517  0.6194
  316TIP3    H222508   0.745   6.331   0.620  0.3212 -0.4386  0.1080
  317TIP3   OH222509   6.178   5.397   6.929  0.0444 -0.2881 -0.6935
  317TIP3    H122510   6.160   5.448   6.850 -1.8357  1.9025  1.0099
  317TIP3    H222511   6.132   5.314   6.915 -1.4756  0.6155 -1.3834
  318TIP3   OH222512   0.028   6.774   1.010 -0.4402  0.6874  0.0071
  318TIP3    H122513  -0.039   6.824   0.963  1.8192  3.5480 -0.4944
  318TIP3    H222514   0.076   6.728   0.941  0.0840  1.2999 -0.0578
  319TIP3   OH222515   4.759   4.070   0.936 -0.2831  0.3406 -0.3077
  319TIP3    H122516   4.747   4.126   1.013 -0.5485 -0.3438  0.1546
  319TIP3    H222517   4.828   4.009   0.962 -0.5164 -0.0213 -0.5349
  320TIP3   OH222518   5.023   5.585   7.562  0.2158  0.5548 -0.4809
  320TIP3    H122519   5.034   5.645   7.488 -1.6066  1.1989 -0.2771
  320TIP3    H222520   4.997   5.641   7.635  5.3184  0.4917  1.8048
  321TIP3   OH222521   3.583   2.312   0.272 -0.2062 -0.6244  0.1756
  321TIP3    H122522   3.591   2.396   0.317 -1.3396 -0.6872  0.5248
  321TIP3    H222523   3.672   2.293   0.242  0.2231  0.3101  0.7848
  322TIP3   OH222524   3.434   0.876   0.133 -0.8443  0.5962 -0.2004
  322TIP3    H122525   3.478   0.792   0.143 -0.8132  0.2328 -2.6723
  322TIP3    H222526   3.358   0.870   0.190 -2.4938 -2.3674 -2.4258
  323TIP3   OH222527   4.214   4.378   2.365 -1.0547  0.1765  0.0952
  323TIP3    H122528   4.212   4.283   2.358 -1.2323  0.1521  0.4266
  323TIP3    H222529   4.195   4.396   2.457 -3.6757  0.5980 -0.4227
  324TIP3   OH222530   5.766   4.369   8.347 -0.5185  0.3376 -0.0679
  324TIP3    H122531   5.762   4.358   8.442 -1.3065 -0.6976 -0.1931
  324TIP3    H222532   5.689   4.321   8.315 -0.8860  1.6110 -1.1583
  325TIP3   OH222533   6.400   0.494   0.442  0.3504 -0.5121  0.0658
  325TIP3    H122534   6.378   0.496   0.348 -0.6805 -0.1092  0.2956
  325TIP3    H222535   6.411   0.586   0.465 -0.2106 -0.5516  0.5091
  326TIP3   OH222536   3.509   3.331   0.468  0.0994  0.1335 -0.0032
  326TIP3    H122537   3.553   3.246   0.475 -0.7081 -0.2766  0.1433
  326TIP3    H222538   3.579   3.395   0.485  0.6559 -0.5028  0.1584
  327TIP3   OH222539   0.299   5.900   0.760  0.0724  0.5451 -0.3008
  327TIP3    H122540   0.297   5.996   0.763  3.0120  0.7847 -1.9276
  327TIP3    H222541   0.391   5.878   0.776 -0.1959 -1.8859 -1.6798
  328TIP3   OH222542   0.863   3.070   8.444 -0.0980 -0.4373  0.0402
  328TIP3    H122543   0.787   3.119   8.475 -0.1485 -0.2310 -0.3979
  328TIP3    H222544   0.921   3.065   8.520 -0.5546 -0.6077  0.3803
  329TIP3   OH222545   1.000   1.014   8.339  0.2549  0.0964  0.3926
  329TIP3    H122546   1.035   1.022   8.428  1.1386 -1.0801  0.1669
  329TIP3    H222547   1.052   0.945   8.299 -2.0555 -1.4606 -0.0901
  330TIP3   OH222548   1.948   1.317   0.688 -0.3729 -0.2606 -0.3286
  330TIP3    H122549   2.009   1.257   0.645 -0.7109 -0.1737 -0.9450
  330TIP3    H222550   1.983   1.404   0.670  0.0254 -0.2576  0.4240
  331TIP3   OH222551   3.872   4.082   0.924 -0.3376  0.0617  0.4058
  331TIP3    H122552   3.964   4.096   0.902 -0.4910  1.7645  0.6866
  331TIP3    H222553   3.828   4.078   0.839  0.0771 -1.5977  0.2462
  332TIP3   OH222554   3.808   5.600   0.551 -0.3079 -0.2478  0.6688
  332TIP3    H122555   3.796   5.562   0.464  1.8666  0.7147 -0.1285
  332TIP3    H222556   3.885   5.555   0.586  0.3354  1.0881  1.0363
  333TIP3   OH222557   4.151   0.813   8.381  0.0482  0.5720  0.0522
  333TIP3    H122558   4.128   0.867   8.305  1.4060 -0.0007 -0.8127
  333TIP3    H222559   4.246   0.825   8.390  0.6531 -2.5429 -0.9507
  334TIP3   OH222560   1.342   5.738   0.145  0.4545 -0.5732  0.6649
  334TIP3    H122561   1.269   5.716   0.202  0.0873  0.3928  0.5743
  334TIP3    H222562   1.302   5.773   0.066  0.9784 -1.3439  0.0323
  335TIP3   OH222563   0.184   1.196   7.132  0.6371 -0.5269  0.4672
  335TIP3    H122564   0.119   1.139   7.090  0.5091 -1.0169  1.3038
  335TIP3    H222565   0.233   1.138   7.191  1.2873  0.0007  0.4662
  336TIP3   OH222566   6.600   3.777   1.181  0.2738 -0.1198  0.0251
  336TIP3    H122567   6.614   3.722   1.258 -2.4580 -2.1183 -0.7527
  336TIP3    H222568   6.688   3.803   1.154  1.5560 -2.4632  1.6278
  337TIP3   OH222569   0.026   2.259   7.755  0.1953 -0.1326 -0.4901
  337TIP3    H122570  -0.049   2.205   7.729 -0.4706  0.2723  0.5083
  337TIP3    H222571  -0.014   2.340   7.789  1.1567  0.8734 -1.6701
  338TIP3   OH222572   1.942   5.886   1.237  0.2289 -0.2068  0.4490
  338TIP3    H122573   1.861   5.876   1.186  0.3524 -1.4869  0.4583
  338TIP3    H222574   1.965   5.796   1.262  1.7716  0.1119  0.2681
  339TIP3   OH222575   3.676   4.869   2.034 -0.0682 -0.2080 -0.5356
  339TIP3    H122576   3.755   4.819   2.054  1.0978  1.5463 -0.5156
  339TIP3    H222577   3.609   4.803   2.017  1.4758 -1.7545 -0.8546
  340TIP3   OH222578   0.173   1.683   7.468  0.7992  0.1318 -0.3524
  340TIP3    H122579   0.248   1.698   7.526 -0.2324  1.0572  0.7851
  340TIP3    H222580   0.157   1.767   7.426  0.9036 -0.2803 -1.2619
  341TIP3   OH222581   5.157   1.235   0.901 -0.1634  0.2138 -0.0146
  341TIP3    H122582   5.090   1.262   0.963 -0.0180 -0.4445  0.4356
  341TIP3    H222583   5.233   1.288   0.923 -0.3272  0.4900 -0.1011
  342TIP3   OH222584   0.777   2.295   1.698 -0.5632 -0.2867  0.1505
  342TIP3    H122585   0.765   2.258   1.611  0.3476 -0.4558  0.0851
  342TIP3    H222586   0.707   2.257   1.751 -1.4144  0.1860 -0.6096
  343TIP3   OH222587   2.230   5.638   7.362 -0.0196  0.1630  0.2637
  343TIP3    H122588   2.309   5.642   7.415  1.2787  0.8705 -1.6199
  343TIP3    H222589   2.259   5.657   7.273 -2.4643  1.5545 -0.3518
  344TIP3   OH222590   1.063   2.885   1.084  0.4336  0.2365  0.0853
  344TIP3    H122591   1.134   2.862   1.024  1.5117  1.3731  0.8721
  344TIP3    H222592   1.050   2.807   1.137  0.9792 -0.0437 -0.1884
  345TIP3   OH222593   0.880   6.136   1.587  0.4019 -0.5472 -0.3281
  345TIP3    H122594   0.841   6.054   1.618 -0.4806  0.3685  1.1160
  345TIP3    H222595   0.950   6.154   1.649  0.9755 -0.4858 -0.9846
  346TIP3   OH222596   3.817   1.015   1.264 -0.4734  0.0694 -0.1288
  346TIP3    H122597   3.753   0.963   1.313 -0.2426 -2.0661 -1.9571
  346TIP3    H222598   3.861   1.068   1.331 -2.6893  0.0553  1.4408
  347TIP3   OH222599   1.888   5.645   1.360 -0.0373 -0.0323  0.2816
  347TIP3    H122600   1.827   5.579   1.326  2.5245 -1.8416 -1.0982
  347TIP3    H222601   1.871   5.646   1.454 -0.8840 -1.8811  0.1983
  348TIP3   OH222602   2.078   4.308   8.645 -0.0491 -0.3366  0.0334
  348TIP3    H122603   2.147   4.274   8.588  0.4673  0.1533  0.3504
  348TIP3    H222604   1.997   4.276   8.606  0.4104 -2.3272  0.5925
  349TIP3   OH222605   2.919   0.237   1.745 -0.2252 -0.1916  0.2086
  349TIP3    H122606   3.011   0.219   1.730  0.6381  1.0622  3.2602
  349TIP3    H222607   2.895   0.301   1.677  0.3959 -2.2065 -2.0578
  350TIP3   OH222608   3.628   6.297   8.185 -0.3490 -0.4672 -0.2859
  350TIP3    H122609   3.535   6.317   8.189 -0.3322 -0.5531  1.6046
  350TIP3    H222610   3.666   6.343   8.260  0.7669 -2.1418  0.2517
  351TIP3   OH222611   5.034   3.649   8.492 -0.5995 -0.1327  0.1666
  351TIP3    H122612   4.945   3.676   8.466 -0.0896 -0.4587 -2.1859
  351TIP3    H222613   5.038   3.556   8.467  1.1253  0.4662 -2.1187
  352TIP3   OH222614   4.312   6.029   7.649  0.5320 -0.5707  0.2847
  352TIP3    H122615   4.401   6.002   7.628  0.1974 -2.1904  0.7522
  352TIP3    H222616   4.256   5.965   7.604 -0.3465 -0.3113  0.9704
  353TIP3   OH222617   5.748   4.058   2.125  0.3569  0.3644 -0.1089
  353TIP3    H122618   5.773   4.109   2.203 -0.7322  0.4628  0.1891
  353TIP3    H222619   5.704   3.981   2.160  0.6256 -0.0194 -0.6115
  354TIP3   OH222620   0.543   2.966   1.564  0.4036 -0.6436  0.0729
  354TIP3    H122621   0.622   2.966   1.511  1.0320  0.1695  0.9797
  354TIP3    H222622   0.571   2.935   1.650 -0.2322 -0.2303  0.4429
  355TIP3   OH222623   3.215   5.188   0.354 -0.1716 -0.2676  0.1370
  355TIP3    H122624   3.212   5.266   0.410  1.6733 -0.1180  0.0875
  355TIP3    H222625   3.130   5.187   0.310  0.3288  2.7240 -1.1660
  356TIP3   OH222626   4.168   6.103   7.888  0.0658  0.2939  0.2631
  356TIP3    H122627   4.243   6.135   7.938 -0.8359  0.0632  1.8663
  356TIP3    H222628   4.203   6.082   7.802  1.4869  1.7622  0.4397
  357TIP3   OH222629   6.056   3.370   2.212 -0.2043  0.1306 -0.0600
  357TIP3    H122630   6.122   3.323   2.161 -0.3607  1.1241 -1.2399
  357TIP3    H222631   6.036   3.313   2.286  1.8563 -0.2662  0.2388
  358TIP3   OH222632   4.490   4.129   7.560  0.4074  0.6259 -0.0762
  358TIP3    H122633   4.523   4.183   7.488  1.0011  0.9459  0.4336
  358TIP3    H222634   4.562   4.126   7.623  0.2990 -0.5566  0.0137
  359TIP3   OH222635   3.875   3.915   8.619  0.6412 -0.4621 -0.2640
  359TIP3    H122636   3.939   3.929   8.548  1.7418 -2.0296  0.3482
  359TIP3    H222637   3.876   3.820   8.633  1.2172 -0.1464  2.4972
  360TIP3   OH222638   3.057   5.847   7.959 -0.5399  0.0513  0.1304
  360TIP3    H122639   3.100   5.819   7.878 -1.0412 -1.8828  0.4755
  360TIP3    H222640   3.112   5.812   8.029  0.4912  2.6353  0.7213
  361TIP3   OH222641   1.575   4.828   2.631 -0.4016 -0.3098 -0.9120
  361TIP3    H122642   1.491   4.787   2.651 -0.8200  0.9268  0.0870
  361TIP3    H222643   1.636   4.791   2.695 -0.1783 -1.1944 -1.6259
  362TIP3   OH222644   5.185   5.372   8.081  0.0713 -0.0673  0.3719
  362TIP3    H122645   5.141   5.287   8.078  1.5075 -0.9061  1.6194
  362TIP3    H222646   5.250   5.368   8.011  0.0054  0.1019  0.2983
  363TIP3   OH222647   3.088   3.337   0.994  0.5255  0.0118  0.1850
  363TIP3    H122648   3.133   3.418   0.971  0.0870  0.3107  0.3545
  363TIP3    H222649   3.152   3.269   0.980  0.4076  0.2109 -1.5407
  364TIP3   OH222650   6.187   2.435   1.631  0.1494  0.6874 -0.0061
  364TIP3    H122651   6.101   2.409   1.663  0.2761 -1.4847 -1.2311
  364TIP3    H222652   6.225   2.485   1.703 -1.1231 -0.5669  1.6195
  365TIP3   OH222653   0.349   3.553   2.249 -0.2005 -0.0527  0.3298
  365TIP3    H122654   0.264   3.561   2.207  0.4302 -0.7112 -1.1527
  365TIP3    H222655   0.358   3.459   2.267 -0.4487  0.2065  1.9999
  366TIP3   OH222656   0.867   5.798   0.337 -0.1085  0.6852  0.4682
  366TIP3    H122657   0.883   5.708   0.309 -0.1683  0.6131  0.6650
  366TIP3    H222658   0.840   5.843   0.257  0.9553  0.7871  0.1545
  367TIP3   OH222659   3.736   1.592   8.841 -0.0121 -0.1798  0.6066
  367TIP3    H122660   3.665   1.560   8.897  0.2033  1.0929  1.6580
  367TIP3    H222661   3.743   1.685   8.862  1.0536  0.0131 -0.4968
  368TIP3   OH222662   6.460   6.333   8.102  0.1338 -0.0352 -0.1518
  368TIP3    H122663   6.460   6.329   8.006  3.0058  1.4716 -0.3340
  368TIP3    H222664   6.473   6.426   8.121 -1.5033 -0.1461  1.7754
  369TIP3   OH222665   2.031   1.514   7.606 -0.0325 -0.1200  0.3175
  369TIP3    H122666   1.973   1.462   7.551  0.4021  0.4815 -0.7551
  369TIP3    H222667   2.118   1.475   7.593 -0.0151 -0.3300  1.0366
  370TIP3   OH222668   3.487   3.738   8.028  0.3769 -0.0123  0.4828
  370TIP3    H122669   3.529   3.810   7.980 -0.0686  0.0808  0.2285
  370TIP3    H222670   3.553   3.711   8.093  1.3434 -0.7338 -0.7573
  371TIP3   OH222671   1.841   0.785   2.260  0.2283  0.2646  0.2892
  371TIP3    H122672   1.841   0.781   2.164  1.5024 -3.2965  0.2649
  371TIP3    H222673   1.927   0.821   2.282  0.7774 -0.8416  0.0295
  372TIP3   OH222674   0.908   0.143   1.467  0.0660 -0.2837  0.1635
  372TIP3    H122675   0.976   0.128   1.533  1.7566 -1.1188 -1.6623
  372TIP3    H222676   0.930   0.229   1.430  0.4428 -0.7490 -0.7347
  373TIP3   OH222677   6.490   0.725   7.479 -0.4772 -0.7447  0.0461
  373TIP3    H122678   6.464   0.784   7.549 -1.7947 -1.0103 -0.2013
  373TIP3    H222679   6.408   0.687   7.447  0.2513 -1.9050 -0.5087
  374TIP3   OH222680   5.121   2.819   7.558 -0.5083  0.1942 -0.0366
  374TIP3    H122681   5.202   2.868   7.570 -1.5258  2.7003 -2.3342
  374TIP3    H222682   5.126   2.784   7.469 -2.3528  1.4047 -0.6811
  375TIP3   OH222683   2.223   1.165   1.184  0.5490  0.2889  0.0541
  375TIP3    H122684   2.138   1.125   1.166  0.3486  0.1864  1.1526
  375TIP3    H222685   2.207   1.224   1.257  1.3415  0.5780  0.0088
  376TIP3   OH222686   1.931   3.958   8.646  0.1504  0.5661  0.4793
  376TIP3    H122687   1.979   3.979   8.565  0.2523 -0.5366  0.2445
  376TIP3    H222688   1.876   3.884   8.623  0.7243 -0.2340  1.6163
  377TIP3   OH222689   5.208   1.798   0.373 -0.8515  0.2644  0.2264
  377TIP3    H122690   5.275   1.819   0.308 -0.5255 -0.1068  0.4369
  377TIP3    H222691   5.184   1.707   0.355  0.4768 -0.4153  1.6756
  378TIP3   OH222692   1.660   0.645   1.666  0.4281  0.5802 -0.3345
  378TIP3    H122693   1.735   0.705   1.670  1.2236 -0.4061 -0.2391
  378TIP3    H222694   1.616   0.654   1.750  1.3650 -0.0089  0.2239
  379TIP3   OH222695   2.015   3.292   8.688  0.2760 -0.6433  0.1956
  379TIP3    H122696   2.040   3.201   8.702 -1.1743 -0.8431  1.8946
  379TIP3    H222697   1.923   3.288   8.660 -1.0085  0.3044  3.7174
  380TIP3   OH222698   4.689   5.479   1.592 -0.3968 -0.5038 -0.2081
  380TIP3    H122699   4.640   5.558   1.614  1.3396  0.5177  0.2259
  380TIP3    H222700   4.709   5.438   1.676 -0.1102 -0.6434 -0.3405
  381TIP3   OH222701   3.916   2.826   1.710 -0.1355 -0.1657  0.4250
  381TIP3    H122702   3.881   2.914   1.693  1.4424  0.4855  0.3479
  381TIP3    H222703   4.001   2.826   1.667 -0.1850 -1.8135  0.2870
  382TIP3   OH222704   4.493   6.703   0.931  0.3656  0.3724  0.4273
  382TIP3    H122705   4.417   6.729   0.982  0.1365  0.8415 -0.1399
  382TIP3    H222706   4.562   6.764   0.957  0.7683 -0.4986  1.4670
  383TIP3   OH222707   4.868   6.147   0.674 -0.2969  0.3154  0.1129
  383TIP3    H122708   4.953   6.122   0.710 -1.0891 -0.2281  1.7281
  383TIP3    H222709   4.849   6.081   0.607 -0.1284 -0.4884  0.8386
  384TIP3   OH222710   2.925   1.403   6.922 -0.0176  0.0456  0.5924
  384TIP3    H122711   2.929   1.312   6.951 -1.3888 -0.0385  0.6171
  384TIP3    H222712   2.860   1.402   6.851  1.0205  0.7620 -0.3969
  385TIP3   OH222713   2.479   6.754   3.083  0.1750  0.2222 -0.1169
  385TIP3    H122714   2.414   6.762   3.013 -1.6806 -0.8799  1.3760
  385TIP3    H222715   2.476   6.839   3.128 -2.4139 -0.6772  1.6407
  386TIP3   OH222716   5.952   1.736   7.707 -0.5163 -0.4419  0.3627
  386TIP3    H122717   5.903   1.728   7.625 -1.0009  0.0134  0.5971
  386TIP3    H222718   5.888   1.772   7.769 -0.3346 -1.3829  1.1077
  387TIP3   OH222719   0.295   0.986   7.296  0.2087 -0.0789 -0.1708
  387TIP3    H122720   0.355   1.032   7.354 -1.4159  0.7586  0.9276
  387TIP3    H222721   0.346   0.969   7.217  2.3607 -0.8563  1.2789
  388TIP3   OH222722   4.590   5.257   7.466  0.2553 -0.0491 -0.7356
  388TIP3    H122723   4.574   5.163   7.476  1.2906 -0.2300 -0.6361
  388TIP3    H222724   4.555   5.279   7.379 -1.2452 -0.2193 -0.2039
  389TIP3   OH222725   2.543   1.657   0.809  0.0565 -0.1281 -0.1259
  389TIP3    H122726   2.466   1.697   0.767 -0.5507 -0.7231  0.3989
  389TIP3    H222727   2.569   1.587   0.748 -2.5461 -2.8975  1.6693
  390TIP3   OH222728   0.942   6.517   1.380 -0.4843 -0.6967  0.4504
  390TIP3    H122729   0.848   6.518   1.398 -0.4831  0.3044  0.4831
  390TIP3    H222730   0.957   6.595   1.326  0.2158 -1.2474 -0.1909
  391TIP3   OH222731   5.965   1.353   0.610 -0.4159 -0.3621  0.3623
  391TIP3    H122732   6.043   1.343   0.666  0.2512 -1.7949 -0.7448
  391TIP3    H222733   5.906   1.283   0.640 -0.4009 -0.6021 -0.1614
  392TIP3   OH222734   2.738   1.997   8.275 -0.4359 -0.2156  0.4615
  392TIP3    H122735   2.819   1.959   8.240 -0.6370 -0.1574 -0.0851
  392TIP3    H222736   2.754   2.092   8.274 -0.5342 -0.2005  0.2905
  393TIP3   OH222737   0.291   2.865   8.358  0.3996 -0.3704  0.5807
  393TIP3    H122738   0.324   2.953   8.341  1.2610 -0.6699  0.6570
  393TIP3    H222739   0.357   2.825   8.415  1.4379 -1.9591 -1.5673
  394TIP3   OH222740   1.909   0.314   1.175  0.0551 -0.1239  0.1477
  394TIP3    H122741   1.846   0.244   1.191  1.8731 -1.5681  1.4365
  394TIP3    H222742   1.899   0.373   1.250 -1.9402  1.4755 -1.2638
  395TIP3   OH222743   4.675   3.778   1.699 -0.1865  0.0493 -0.8922
  395TIP3    H122744   4.734   3.793   1.772 -0.8381 -0.9398 -0.1464
  395TIP3    H222745   4.716   3.824   1.625  1.3017 -0.2810 -0.3060
  396TIP3   OH222746   1.671   2.011   2.169 -0.4529  0.6004  0.1816
  396TIP3    H122747   1.586   2.001   2.212 -1.3298  0.0330 -1.5566
  396TIP3    H222748   1.722   1.934   2.196 -2.0993 -1.4472 -2.0841
  397TIP3   OH222749   4.761   1.602   8.856  0.0600 -0.9744 -0.1206
  397TIP3    H122750   4.818   1.526   8.840  1.1020 -1.1976  3.7033
  397TIP3    H222751   4.672   1.566   8.857  0.3021 -1.6218 -0.8972
  398TIP3   OH222752   5.154   0.132   2.953  0.0475  1.0147  0.8213
  398TIP3    H122753   5.197   0.213   2.979 -0.0647  0.9164  1.3260
  398TIP3    H222754   5.217   0.088   2.896  0.1695  1.3839  0.6702
  399TIP3   OH222755   4.673   2.243   7.659 -0.2388  0.1575  0.6412
  399TIP3    H122756   4.704   2.284   7.578  0.3801 -1.3043  0.1031
  399TIP3    H222757   4.750   2.239   7.715 -0.0345 -1.1691  0.2917
  400TIP3   OH222758   0.759   6.137   0.342  0.1489  0.5112 -0.0590
  400TIP3    H122759   0.728   6.165   0.428 -0.9344  1.1888 -0.6405
  400TIP3    H222760   0.692   6.076   0.312  0.3094  0.5963 -0.5931
  401TIP3   OH222761   4.725   5.856   0.975 -0.5562  0.5286  0.3068
  401TIP3    H122762   4.737   5.822   1.063  1.7993  0.6569  0.0966
  401TIP3    H222763   4.737   5.951   0.984  2.2729  0.3481 -0.4134
  402TIP3   OH222764   4.182   6.321   1.654  0.1311 -0.0828  0.3857
  402TIP3    H122765   4.275   6.304   1.665  0.3918  1.6719  1.2687
  402TIP3    H222766   4.139   6.242   1.684  1.3149 -0.4953  1.0441
  403TIP3   OH222767   3.739   4.281   0.630  0.3288 -0.3152 -0.2198
  403TIP3    H122768   3.772   4.229   0.557 -1.0273  1.2436 -2.0427
  403TIP3    H222769   3.650   4.247   0.645  0.7234 -0.8666  1.0002
  404TIP3   OH222770   5.932   6.622   1.043 -0.7151 -0.0203  0.0675
  404TIP3    H122771   5.870   6.694   1.029 -0.2214  0.6463  1.1780
  404TIP3    H222772   6.016   6.655   1.013 -1.0061 -1.3171 -2.5077
  405TIP3   OH222773   4.423   3.275   6.532 -0.0640  0.5887 -1.3762
  405TIP3    H122774   4.482   3.309   6.465 -2.9154  3.0783 -2.8942
  405TIP3    H222775   4.431   3.335   6.605 -0.5216  0.8105 -1.5030
  406TIP3   OH222776   5.641   6.238   8.026 -0.5118  0.0493 -0.2382
  406TIP3    H122777   5.582   6.202   8.093 -0.4261  0.7355  0.2237
  406TIP3    H222778   5.711   6.174   8.019  0.2137  0.5957  1.3668
  407TIP3   OH222779   3.314   4.900   2.142 -0.3198  0.7409  0.3373
  407TIP3    H122780   3.334   4.993   2.129  0.8261  0.4085 -0.3956
  407TIP3    H222781   3.221   4.899   2.167 -0.8285  1.9663 -1.3068
  408TIP3   OH222782   6.463   5.422   1.334 -0.5069 -0.2899  0.4381
  408TIP3    H122783   6.481   5.372   1.255  0.9506  0.8085  0.0391
  408TIP3    H222784   6.457   5.513   1.304 -0.4557  0.0833  1.5193
  409TIP3   OH222785   0.216   4.640   1.154  0.0645  0.1547 -0.1424
  409TIP3    H122786   0.262   4.594   1.084 -0.1347  1.0453 -0.8674
  409TIP3    H222787   0.132   4.595   1.161  1.1319 -1.7898  1.5051
  410TIP3   OH222788   4.099   5.484   8.065  0.2549 -0.2562 -0.3856
  410TIP3    H122789   4.152   5.472   8.144  0.6007 -0.6585 -0.6760
  410TIP3    H222790   4.162   5.480   7.993 -0.3443 -2.3028 -0.8479
  411TIP3   OH222791   3.989   5.138   7.962  0.0987  0.1057 -0.0130
  411TIP3    H122792   3.912   5.096   7.923  0.1592  0.8001 -0.9025
  411TIP3    H222793   3.957   5.177   8.043 -0.7634  1.3577 -0.9254
  412TIP3   OH222794   2.002   5.738   7.511  0.2793  0.8293 -0.1345
  412TIP3    H122795   1.984   5.699   7.596  0.5172 -0.6747 -0.7254
  412TIP3    H222796   2.095   5.717   7.495 -0.0267  0.1877 -1.1806
  413TIP3   OH222797   4.144   6.004   8.545 -0.1083 -0.2629 -0.1776
  413TIP3    H122798   4.142   5.977   8.453  0.0056 -2.0493  0.3012
  413TIP3    H222799   4.067   6.060   8.556  0.8832  1.5323 -1.7633
  414TIP3   OH222800   6.255   3.380   3.050  0.0004 -0.3575  0.0399
  414TIP3    H122801   6.213   3.453   3.004  2.9901  1.5550  0.0446
  414TIP3    H222802   6.259   3.310   2.985 -1.2133  0.1450 -0.6125
  415TIP3   OH222803   0.584   1.724   1.967  0.3180  0.7727  0.1494
  415TIP3    H122804   0.538   1.705   1.885  1.2055  1.7651 -0.6051
  415TIP3    H222805   0.597   1.638   2.007  0.4268  0.1971 -1.0728
  416TIP3   OH222806   2.642   5.054   8.602 -0.2947  0.3260  0.4994
  416TIP3    H122807   2.634   4.960   8.614  0.3768  0.3116  0.8911
  416TIP3    H222808   2.602   5.091   8.681 -1.7934  0.4172 -0.2740
  417TIP3   OH222809   0.647   3.288   2.053  0.1213 -0.1828  0.4488
  417TIP3    H122810   0.639   3.382   2.035  0.5150 -0.0113  1.1419
  417TIP3    H222811   0.580   3.248   1.997  0.9804  0.3579 -1.0455
  418TIP3   OH222812   5.320   1.638   2.386 -0.2767 -0.0955 -0.5567
  418TIP3    H122813   5.276   1.629   2.471  0.7746  2.0762  0.2943
  418TIP3    H222814   5.363   1.723   2.390  1.9521 -1.0273 -2.2844
  419TIP3   OH222815   4.023   3.274   7.777 -0.5731  0.3362  0.1483
  419TIP3    H122816   4.039   3.265   7.683  1.4952 -0.4861  0.5242
  419TIP3    H222817   3.976   3.357   7.786 -0.8344  0.4026 -1.6150
  420TIP3   OH222818   2.732   6.497   8.500 -0.5302 -0.3716 -0.0667
  420TIP3    H122819   2.737   6.454   8.415  1.2784  0.2482 -0.3158
  420TIP3    H222820   2.639   6.505   8.517 -0.9283 -0.9825 -1.7403
  421TIP3   OH222821   1.347   3.459   0.465  0.5427  0.3249  0.5168
  421TIP3    H122822   1.341   3.544   0.421 -0.8935  1.1131  2.1426
  421TIP3    H222823   1.329   3.396   0.396  0.5962  1.3897 -0.5136
  422TIP3   OH222824   1.262   4.308   7.624  0.3851 -0.4155  0.6436
  422TIP3    H122825   1.257   4.309   7.720  3.1906 -1.3647  0.8802
  422TIP3    H222826   1.215   4.387   7.597 -2.2226 -1.1376  2.6208
  423TIP3   OH222827   1.658   0.302   1.853  0.4756 -0.5228  0.3970
  423TIP3    H122828   1.741   0.340   1.823  0.5902  0.2510  1.6362
  423TIP3    H222829   1.653   0.324   1.946 -0.7922 -1.1731  0.5108
  424TIP3   OH222830   6.035   3.441   1.263 -0.1692 -0.1306  0.3905
  424TIP3    H122831   5.995   3.422   1.347 -0.3797 -2.0475 -0.0999
  424TIP3    H222832   5.982   3.393   1.199  0.2234  0.9551 -0.7949
  425TIP3   OH222833   2.303   2.901   0.313 -0.5337 -0.1837 -0.6370
  425TIP3    H122834   2.304   2.860   0.226 -0.6624  0.8462 -1.1470
  425TIP3    H222835   2.395   2.913   0.335 -0.4651 -1.8038  0.0533
  426TIP3   OH222836   6.730   1.045   7.020 -0.4322 -0.2643  0.1636
  426TIP3    H122837   6.694   1.134   7.028 -0.4002 -0.3189  0.9473
  426TIP3    H222838   6.653   0.988   7.026 -0.4240 -0.3018 -0.0819
  427TIP3   OH222839   0.464   5.963   3.006  0.3933 -0.0173 -0.0257
  427TIP3    H122840   0.456   5.918   3.090  1.7385  0.3455  0.3091
  427TIP3    H222841   0.386   6.017   3.000  0.7012  0.6174  1.3928
  428TIP3   OH222842   0.109   2.721   0.294 -0.3661  0.4430  0.2591
  428TIP3    H122843   0.197   2.713   0.257 -0.5028  0.1361 -0.0106
  428TIP3    H222844   0.057   2.657   0.245 -0.5821  0.1163  0.8983
  429TIP3   OH222845   3.813   6.389   8.021 -0.1421  0.2086 -0.4597
  429TIP3    H122846   3.852   6.469   8.056  0.6474 -0.6813  0.7419
  429TIP3    H222847   3.774   6.346   8.097 -1.4613 -0.0592 -1.2655
  430TIP3   OH222848   5.425   4.412   8.552  0.3000 -0.2832  0.6887
  430TIP3    H122849   5.441   4.347   8.484 -0.8488 -0.7931  0.8839
  430TIP3    H222850   5.456   4.371   8.632  2.7192  0.7514  0.3901
  431TIP3   OH222851   6.029   5.868   0.185  0.1747 -0.3637  0.5510
  431TIP3    H122852   6.035   5.854   0.279  0.9678 -0.8821  0.4353
  431TIP3    H222853   6.120   5.867   0.154 -0.1328 -3.0758 -0.5881
  432TIP3   OH222854   5.532   6.388   8.341 -0.0475 -0.0780  0.1844
  432TIP3    H122855   5.481   6.459   8.303  0.3068 -1.1348 -2.4696
  432TIP3    H222856   5.471   6.314   8.344  0.2461 -0.3031  0.6688
  433TIP3   OH222857   6.594   2.102   2.105  0.1008  1.0599  0.4384
  433TIP3    H122858   6.534   2.152   2.160 -1.1759  2.4871 -2.0255
  433TIP3    H222859   6.601   2.154   2.025  2.3395 -0.5558 -0.5170
  434TIP3   OH222860   5.089   0.887   7.725  0.5188 -0.3790 -0.8107
  434TIP3    H122861   4.997   0.870   7.702  0.2029  1.1310 -0.7354
  434TIP3    H222862   5.104   0.832   7.802 -0.0002 -1.4213 -1.4200
  435TIP3   OH222863   0.903   5.624   2.961 -0.2628  0.1992 -0.2416
  435TIP3    H122864   0.855   5.650   3.040 -1.0225 -0.9012 -0.3092
  435TIP3    H222865   0.989   5.597   2.993  0.0447  1.3850 -0.0111
  436TIP3   OH222866   3.817   1.829   8.621 -0.1909  0.0027  0.2586
  436TIP3    H122867   3.790   1.852   8.710 -0.0591 -0.8914  0.5409
  436TIP3    H222868   3.913   1.825   8.626 -0.2123 -0.5928  0.2170
  437TIP3   OH222869   4.730   1.303   8.633 -0.4092  0.0075  0.0999
  437TIP3    H122870   4.703   1.334   8.720  1.0025 -1.9875  1.3129
  437TIP3    H222871   4.791   1.232   8.650 -0.4827 -0.8063 -2.5537
  438TIP3   OH222872   6.445   1.596   8.245  0.3194  0.0881 -0.1354
  438TIP3    H122873   6.503   1.656   8.292 -0.7760  0.3382  0.9669
  438TIP3    H222874   6.501   1.552   8.181  1.3270  1.6857 -0.4150
  439TIP3   OH222875   5.331   0.653   8.112  0.5495 -0.2673 -0.8383
  439TIP3    H122876   5.406   0.712   8.114 -0.6497  1.3377 -0.0367
  439TIP3    H222877   5.326   0.618   8.201 -0.6568  1.0277 -0.3706
  440TIP3   OH222878   4.884   3.816   0.785  0.4757  0.0456 -0.3290
  440TIP3    H122879   4.933   3.897   0.769  0.4480  0.0364 -0.4639
  440TIP3    H222880   4.821   3.813   0.713  0.0349  0.2446  0.0400
  441TIP3   OH222881   4.458   3.860   7.483 -0.2052 -0.3374 -0.7152
  441TIP3    H122882   4.447   3.948   7.519  0.5840 -0.7661  0.6618
  441TIP3    H222883   4.460   3.872   7.388 -0.0562  1.1209 -0.5423
  442TIP3   OH222884   5.722   5.571   7.648 -0.3116 -0.4970  0.6127
  442TIP3    H122885   5.631   5.543   7.641 -0.3380 -0.0211 -2.1815
  442TIP3    H222886   5.744   5.603   7.560  3.1787 -2.5338  0.5497
  443TIP3   OH222887   5.601   3.591   7.106  0.1977  0.2116  0.3245
  443TIP3    H122888   5.567   3.634   7.027  0.6875 -1.0706 -0.6079
  443TIP3    H222889   5.678   3.643   7.131  1.0446 -0.3407 -1.0470
  444TIP3   OH222890   5.421   0.349   7.094 -0.2456  0.2851 -0.2646
  444TIP3    H122891   5.382   0.304   7.020  0.1889  1.1035 -1.0082
  444TIP3    H222892   5.504   0.304   7.110  1.3676  2.2003 -2.5464
  445TIP3   OH222893   1.603   4.866   1.499  0.3257 -0.3609 -0.2705
  445TIP3    H122894   1.542   4.878   1.425 -1.0678 -1.5572  0.6183
  445TIP3    H222895   1.604   4.951   1.543  0.8583  0.2513 -1.4010
  446TIP3   OH222896   1.986   1.010   1.737  0.0139 -0.0669  0.0711
  446TIP3    H122897   2.058   0.963   1.779 -0.8380 -0.4022  1.2184
  446TIP3    H222898   1.939   1.052   1.809 -1.4547 -0.5870 -0.5343
  447TIP3   OH222899   1.780   3.171   0.932 -0.2713 -0.1107 -0.0359
  447TIP3    H122900   1.715   3.232   0.966  0.5565  0.6213  0.2875
  447TIP3    H222901   1.840   3.226   0.881  0.8693 -0.5265  0.8159
  448TIP3   OH222902   0.878   1.627   1.407 -0.2783  0.5333  0.8429
  448TIP3    H122903   0.937   1.702   1.417  0.8882 -0.1951 -0.3134
  448TIP3    H222904   0.876   1.586   1.494 -0.0165  1.2448  1.1894
  449TIP3   OH222905   2.689   6.180   8.050 -0.1873 -0.3516 -0.7636
  449TIP3    H122906   2.755   6.122   8.011 -0.5129 -1.3881  0.1896
  449TIP3    H222907   2.693   6.259   7.996 -1.4055 -2.0947 -3.6585
  450TIP3   OH222908   2.732   3.627   7.201 -0.2346  0.4407 -0.0959
  450TIP3    H122909   2.685   3.665   7.275 -1.3011 -1.3488  0.1937
  450TIP3    H222910   2.766   3.544   7.234 -1.5581 -0.8644 -1.8395
  451TIP3   OH222911   6.732   0.285   0.990  0.0086 -0.1736  0.1559
  451TIP3    H122912   6.742   0.214   1.053 -0.3384 -1.2336 -0.9507
  451TIP3    H222913   6.789   0.355   1.023  0.3923 -0.9789  1.2381
  452TIP3   OH222914   5.247   3.091   6.587 -0.6878  0.4552  0.1787
  452TIP3    H122915   5.264   3.182   6.560 -1.2242  0.6370  0.4570
  452TIP3    H222916   5.261   3.091   6.681  2.2295 -0.4149 -0.1577
  453TIP3   OH222917   3.366   0.141   2.550  0.1495  0.0030 -0.4121
  453TIP3    H122918   3.390   0.087   2.475  0.9116 -1.8628  1.0839
  453TIP3    H222919   3.387   0.230   2.523  0.9701 -0.6760 -2.1908
  454TIP3   OH222920   3.187   6.497   7.719  0.0141  0.7296 -0.0551
  454TIP3    H122921   3.103   6.527   7.756 -0.5810  0.4748 -1.1620
  454TIP3    H222922   3.253   6.546   7.768 -0.8116  1.5019  0.3222
  455TIP3   OH222923   3.061   4.867   0.650 -0.3072 -0.5560  0.7069
  455TIP3    H122924   3.041   4.824   0.733 -0.5682 -0.0282  0.9226
  455TIP3    H222925   3.130   4.813   0.611  1.0120  0.0781  2.0317
  456TIP3   OH222926   5.849   4.479   1.166  0.3806  0.1283  0.1117
  456TIP3    H122927   5.834   4.553   1.225  1.1627  1.7405 -1.6003
  456TIP3    H222928   5.795   4.409   1.202  0.6686  1.0677  2.6022
  457TIP3   OH222929   6.151   1.253   0.201 -0.0032 -0.0870  0.1016
  457TIP3    H122930   6.184   1.317   0.138 -2.2599  0.9887 -0.0762
  457TIP3    H222931   6.086   1.203   0.152 -1.2831  0.2869  1.3708
  458TIP3   OH222932   6.351   6.671   8.685  0.0719  0.1795  0.0622
  458TIP3    H122933   6.311   6.653   8.770  0.1228 -1.6956 -0.2662
  458TIP3    H222934   6.278   6.675   8.624  0.1369  0.2241 -0.0141
  459TIP3   OH222935   3.653   4.400   2.092  0.2889  0.1527 -0.2603
  459TIP3    H122936   3.588   4.392   2.163  0.9220  1.9690  0.5887
  459TIP3    H222937   3.731   4.434   2.136  1.2552 -0.3042 -1.5795
  460TIP3   OH222938   4.089   6.003   6.707 -0.3418  0.2174  0.2817
  460TIP3    H122939   4.145   5.975   6.634 -2.0720  1.1298 -1.4930
  460TIP3    H222940   4.033   6.071   6.670 -1.9994 -0.0015  2.1924
  461TIP3   OH222941   3.887   2.437   0.235 -0.0668 -0.5985  0.1710
  461TIP3    H122942   3.872   2.515   0.181  3.4409 -0.0319 -0.2015
  461TIP3    H222943   3.896   2.366   0.171  0.9206 -0.5104  0.2023
  462TIP3   OH222944   1.176   1.544   1.958 -0.1024  0.2749  0.5175
  462TIP3    H122945   1.092   1.526   1.917  0.8030 -1.5841 -0.6646
  462TIP3    H222946   1.193   1.467   2.014  0.2548  1.1974  1.7270
  463TIP3   OH222947   2.084   6.762   0.659 -0.2470  0.4872  0.1448
  463TIP3    H122948   2.128   6.681   0.686  0.7468  0.7862 -0.5190
  463TIP3    H222949   1.991   6.744   0.673  0.0994  0.3095  2.8948
  464TIP3   OH222950   5.646   2.586   2.591 -0.4163  0.3439  0.0358
  464TIP3    H122951   5.559   2.608   2.626 -0.5655 -0.2848  0.0773
  464TIP3    H222952   5.702   2.658   2.619 -1.0895  1.1696 -0.6736
  465TIP3   OH222953   6.728   5.776   1.627  0.0999  0.1597 -0.2107
  465TIP3    H122954   6.730   5.833   1.550 -1.3794 -0.7990 -1.0061
  465TIP3    H222955   6.673   5.824   1.690 -0.7885 -0.1758 -0.7173
  466TIP3   OH222956   3.449   1.625   7.634  0.4117  0.0567 -0.3517
  466TIP3    H122957   3.391   1.602   7.707  0.3147 -0.8293 -0.6940
  466TIP3    H222958   3.507   1.692   7.670 -0.2185  0.2912  0.2711
  467TIP3   OH222959   0.391   5.857   1.220 -0.0440  0.2667  0.2492
  467TIP3    H122960   0.383   5.946   1.255 -1.0521 -0.4782  2.0743
  467TIP3    H222961   0.454   5.814   1.279  1.3164  0.0444 -1.2874
  468TIP3   OH222962   3.162   4.481   1.443 -0.7689 -0.0991 -0.1795
  468TIP3    H122963   3.245   4.490   1.488  0.3089 -1.2653 -1.8071
  468TIP3    H222964   3.171   4.534   1.364 -1.6910  0.0242 -0.2110
  469TIP3   OH222965   0.536   1.905   8.203 -0.1921  0.0420 -0.1368
  469TIP3    H122966   0.593   1.933   8.131 -1.3714 -0.5463 -1.3562
  469TIP3    H222967   0.541   1.976   8.267 -0.3464  1.3583 -1.5241
  470TIP3   OH222968   2.612   1.113   7.031  0.1501 -0.3059  0.0494
  470TIP3    H122969   2.690   1.131   6.979  0.4178  0.6185  0.7418
  470TIP3    H222970   2.554   1.186   7.012 -0.3265 -0.7047 -0.0380
  471TIP3   OH222971   4.176   3.472   0.009  0.4788 -0.4855  0.0680
  471TIP3    H122972   4.224   3.552   0.030  0.5794 -0.5804  0.1960
  471TIP3    H222973   4.139   3.443   0.092 -0.2194 -0.1413 -0.1061
  472TIP3   OH222974   2.338   1.811   0.716 -0.8397 -0.0446 -0.0769
  472TIP3    H122975   2.365   1.903   0.706  0.6020 -0.3898  0.3704
  472TIP3    H222976   2.276   1.813   0.788  0.8271  0.3368  1.4219
  473TIP3   OH222977   0.987   6.620   1.897  0.4658  0.5520  0.3767
  473TIP3    H122978   0.971   6.536   1.940  0.9883  0.8487  1.1605
  473TIP3    H222979   0.915   6.629   1.834  0.6390 -0.6808 -0.0280
  474TIP3   OH222980   4.979   4.867   0.565  0.1289  0.3958 -0.2532
  474TIP3    H122981   5.057   4.817   0.588  0.4983  0.8873 -0.4254
  474TIP3    H222982   5.009   4.931   0.501 -0.8370 -0.8148 -1.9913
  475TIP3   OH222983   3.564   2.549   1.129 -0.6657 -1.0139  0.2149
  475TIP3    H122984   3.532   2.470   1.086  0.4698 -1.7082  0.6070
  475TIP3    H222985   3.576   2.525   1.220  0.7745 -0.7548  0.1265
  476TIP3   OH222986   0.319   5.920   2.466 -0.0412 -0.5365 -0.1828
  476TIP3    H122987   0.349   5.988   2.526 -0.4304 -1.2418  0.8473
  476TIP3    H222988   0.244   5.959   2.421 -0.4570 -0.3804  0.6291
  477TIP3   OH222989   0.164   5.488   7.784  0.0681 -0.0675  0.1875
  477TIP3    H122990   0.070   5.509   7.779 -0.0774 -0.4778  1.1559
  477TIP3    H222991   0.168   5.398   7.816  0.7905 -0.2923 -0.4868
  478TIP3   OH222992   6.478   4.134   0.694 -0.2471 -0.6719  0.3586
  478TIP3    H122993   6.494   4.224   0.721 -1.7589  0.2134 -1.4907
  478TIP3    H222994   6.519   4.081   0.763  2.0533  1.3740  0.7162
  479TIP3   OH222995   4.940   4.607   7.885 -0.6423  0.3617  0.1194
  479TIP3    H122996   4.949   4.544   7.957 -0.0274  0.2338 -0.0563
  479TIP3    H222997   5.018   4.663   7.893 -1.7330  1.8461  0.9633
  480TIP3   OH222998   6.308   5.699   8.366  0.7226  0.0154  0.4737
  480TIP3    H122999   6.227   5.688   8.417  1.8359 -1.9706  1.9539
  480TIP3    H223000   6.289   5.772   8.306 -2.3683 -0.7901  0.3084
  481TIP3   OH223001   5.027   3.173   1.749 -0.0218  0.3700 -0.1385
  481TIP3    H123002   4.931   3.166   1.749  0.0530 -1.0688 -0.9553
  481TIP3    H223003   5.044   3.267   1.741 -1.3922  0.4939 -2.5300
  482TIP3   OH223004   5.294   4.575   2.277 -0.2877 -0.5603 -0.5907
  482TIP3    H123005   5.302   4.500   2.217  0.9227 -0.5693 -0.4341
  482TIP3    H223006   5.366   4.565   2.338 -1.6176 -0.6482  1.0328
  483TIP3   OH223007   6.181   3.626   0.833 -0.7781 -0.3570  0.6376
  483TIP3    H123008   6.161   3.569   0.907 -0.5919  0.0109  0.9790
  483TIP3    H223009   6.149   3.579   0.756  0.6037 -1.5312  0.7601
  484TIP3   OH223010   1.940   6.521   2.508  0.0687 -0.5469 -0.5886
  484TIP3    H123011   1.985   6.597   2.471  0.7768 -0.6032  0.1338
  484TIP3    H223012   1.850   6.550   2.520  0.9718  1.4219  2.8540
  485TIP3   OH223013   5.529   1.256   7.841 -0.1513 -0.5860  0.4241
  485TIP3    H123014   5.440   1.277   7.814 -0.6430 -0.9923  1.6780
  485TIP3    H223015   5.541   1.164   7.815 -0.0476 -0.4967  0.1493
  486TIP3   OH223016   6.384   6.017   8.611  0.4917 -0.4892  0.7235
  486TIP3    H123017   6.429   5.960   8.672  1.8772 -1.1119 -0.8199
  486TIP3    H223018   6.418   5.993   8.525 -0.3943  1.2726 -0.1819
  487TIP3   OH223019   0.348   6.645   0.330 -0.0158 -0.3520 -0.0779
  487TIP3    H123020   0.381   6.563   0.365 -0.9440  0.2136  2.2621
  487TIP3    H223021   0.260   6.653   0.365 -0.7200  0.7129 -1.9188
  488TIP3   OH223022   6.767   1.459   7.899 -0.3796  0.0703  0.7060
  488TIP3    H123023   6.698   1.393   7.901  0.7527 -1.2463 -1.1889
  488TIP3    H223024   6.723   1.540   7.925 -2.0952 -1.1560  1.7902
  489TIP3   OH223025   5.417   4.776   1.112 -0.5552 -0.0399  0.3474
  489TIP3    H123026   5.423   4.749   1.203 -1.0264 -1.9614 -0.1361
  489TIP3    H223027   5.324   4.769   1.091 -0.6374  1.5928  0.0315
  490TIP3   OH223028   3.901   5.756   2.438  0.3184  0.0707  0.1750
  490TIP3    H123029   3.920   5.687   2.374  1.4564  1.6469 -1.2804
  490TIP3    H223030   3.954   5.734   2.515 -0.9812 -1.7908  0.5998
  491TIP3   OH223031   3.142   6.480   0.780 -0.2750  1.0753 -0.3147
  491TIP3    H123032   3.106   6.398   0.746  1.4266  0.2426 -0.2041
  491TIP3    H223033   3.073   6.544   0.765 -1.3544 -0.2121 -1.1035
  492TIP3   OH223034   4.926   2.725   8.810 -0.3386 -0.1030  0.2816
  492TIP3    H123035   4.853   2.701   8.866 -0.6405 -0.6067 -0.3178
  492TIP3    H223036   4.886   2.769   8.735 -0.0238 -0.2519  0.0217
  493TIP3   OH223037   6.197   1.823   1.534 -0.6456 -0.4875 -0.1958
  493TIP3    H123038   6.281   1.812   1.578 -0.8208  1.5596  0.7514
  493TIP3    H223039   6.219   1.863   1.450 -0.5660 -1.5351 -0.6912
  494TIP3   OH223040   0.166   1.621   8.217 -0.2516  0.7279  0.3584
  494TIP3    H123041   0.229   1.669   8.163  0.0390  0.6381  0.6110
  494TIP3    H223042   0.219   1.585   8.288 -0.4976  0.1781  0.2641
  495TIP3   OH223043   1.115   5.506   7.985  0.5034 -0.2192 -0.3248
  495TIP3    H123044   1.125   5.447   8.059  0.6226  0.4644  0.2142
  495TIP3    H223045   1.034   5.478   7.942 -0.7569  0.7007  1.3076
  496TIP3   OH223046   3.192   0.287   8.186 -0.6713 -0.1549  0.7339
  496TIP3    H123047   3.118   0.262   8.240 -1.2102  0.5196  0.3183
  496TIP3    H223048   3.256   0.324   8.247 -1.0270  0.0441  0.9867
  497TIP3   OH223049   5.291   4.586   6.980 -0.0437  0.4397 -0.5693
  497TIP3    H123050   5.196   4.578   6.988 -0.0676 -1.0422 -1.9251
  497TIP3    H223051   5.309   4.678   7.002 -1.8157  0.8382 -0.6389
  498TIP3   OH223052   1.491   0.921   0.007 -0.2418 -0.2327  0.0550
  498TIP3    H123053   1.575   0.921   0.052  0.0837  0.6632 -0.5129
  498TIP3    H223054   1.426   0.913   0.076  0.2176  1.5891  0.7588
  499TIP3   OH223055   1.815   6.348   8.510 -0.4325 -0.5869  0.8235
  499TIP3    H123056   1.846   6.434   8.539 -0.5528 -0.6852  1.2443
  499TIP3    H223057   1.880   6.320   8.445 -0.6571  0.0376  0.3096
  500TIP3   OH223058   0.706   0.559   1.522 -0.2817 -0.2517 -0.2140
  500TIP3    H123059   0.691   0.613   1.599  1.4169  1.2701 -0.8511
  500TIP3    H223060   0.635   0.495   1.522 -1.1117  0.5952  1.8097
  501TIP3   OH223061   4.965   2.450   1.320 -0.0706 -0.1170 -0.0725
  501TIP3    H123062   5.008   2.466   1.236  2.0575 -3.2536  0.2323
  501TIP3    H223063   4.903   2.379   1.302 -0.3682 -0.0846  0.7852
  502TIP3   OH223064   5.690   1.356   0.493 -0.1699  0.1844  0.4124
  502TIP3    H123065   5.719   1.382   0.406 -1.4133  0.4002  0.0374
  502TIP3    H223066   5.653   1.436   0.531 -1.5140 -0.3706  0.3194
  503TIP3   OH223067   0.123   0.137   8.655  0.0609  0.4034 -0.3151
  503TIP3    H123068   0.169   0.203   8.603 -1.9827 -0.1816 -3.1704
  503TIP3    H223069   0.191   0.076   8.683  1.2562 -0.0660 -3.7294
  504TIP3   OH223070   2.494   3.043   7.870  0.5433 -0.4659 -0.1096
  504TIP3    H123071   2.558   3.114   7.861  0.2003 -0.3103 -1.7419
  504TIP3    H223072   2.457   3.055   7.957  2.2070 -0.1251  0.5883
  505TIP3   OH223073   0.660   4.684   8.866  0.2757 -0.1201 -0.3846
  505TIP3    H123074   0.601   4.749   8.903 -0.5629  0.4343 -2.5419
  505TIP3    H223075   0.711   4.652   8.940 -2.8540 -0.7910  1.6213
  506TIP3   OH223076   4.458   3.514   1.931 -0.1542  0.1704  0.6834
  506TIP3    H123077   4.367   3.507   1.960 -0.2087 -1.3588  0.2528
  506TIP3    H223078   4.485   3.423   1.915  1.0962  0.6785 -0.2614
  507TIP3   OH223079   5.059   6.214   7.768 -0.3781  0.1868 -0.0507
  507TIP3    H123080   5.068   6.306   7.743 -0.4707 -0.5638 -3.3322
  507TIP3    H223081   5.148   6.184   7.785 -0.2675  0.6879  0.2614
  508TIP3   OH223082   5.072   4.197   2.519 -0.0751  0.2660 -0.0270
  508TIP3    H123083   4.977   4.211   2.516  0.0750  1.2265 -1.4565
  508TIP3    H223084   5.099   4.231   2.604 -0.9768  0.1890  0.3001
  509TIP3   OH223085   6.204   0.172   8.228 -0.6290 -0.0466  0.6780
  509TIP3    H123086   6.196   0.263   8.256  1.3175  0.1222  0.8672
  509TIP3    H223087   6.139   0.124   8.280 -0.7858  1.0539  1.5235
  510TIP3   OH223088   1.455   0.497   0.902  0.2603  0.0402 -0.1454
  510TIP3    H123089   1.506   0.507   0.822  2.0012 -0.1916  0.8871
  510TIP3    H223090   1.505   0.435   0.955 -1.6176 -0.9762  0.5448
  511TIP3   OH223091   2.801   1.298   1.537  0.1333 -0.6789  0.7402
  511TIP3    H123092   2.882   1.317   1.490 -0.3214 -0.8589 -0.1529
  511TIP3    H223093   2.823   1.310   1.629  0.6072  1.4458  0.4089
  512TIP3   OH223094   4.373   0.114   3.330  0.5037 -0.0311  0.1381
  512TIP3    H123095   4.460   0.127   3.291 -0.2918 -1.3681 -2.2999
  512TIP3    H223096   4.390   0.067   3.412  2.1689  1.6351  0.8316
  513TIP3   OH223097   4.532   3.470   7.702  0.2481  0.3224  0.7593
  513TIP3    H123098   4.479   3.396   7.731  0.0764  0.1590  0.0390
  513TIP3    H223099   4.473   3.545   7.710  1.0369  0.7628  3.4817
  514TIP3   OH223100   0.343   3.612   0.686 -0.1583  0.1671 -0.3077
  514TIP3    H123101   0.277   3.552   0.721 -0.4403  1.3004  1.2106
  514TIP3    H223102   0.294   3.677   0.636  0.0279 -0.1510 -0.9161
  515TIP3   OH223103   5.398   6.177   0.088 -0.2378  0.1730  0.4428
  515TIP3    H123104   5.404   6.114   0.016 -3.5765  0.0487  0.1175
  515TIP3    H223105   5.330   6.238   0.061 -0.4326  1.1050  2.8037
  516TIP3   OH223106   0.503   0.875   1.049 -0.1925  0.1812  0.2779
  516TIP3    H123107   0.536   0.938   1.114 -0.7178 -0.4442  1.1623
  516TIP3    H223108   0.554   0.796   1.066 -0.4664 -0.0413  0.0443
  517TIP3   OH223109   5.165   5.247   0.431  0.4541  0.4247 -0.8437
  517TIP3    H123110   5.070   5.240   0.424  0.5014 -1.0194 -0.4176
  517TIP3    H223111   5.179   5.302   0.508 -0.0225  0.5536 -0.8434
  518TIP3   OH223112   4.042   6.520   0.785 -0.3570  0.1974  0.2391
  518TIP3    H123113   4.071   6.585   0.848  0.0347  0.5912 -0.3443
  518TIP3    H223114   4.120   6.497   0.735 -0.4190 -0.9471  0.6262
  519TIP3   OH223115   4.665   4.556   8.280 -0.6160  0.4196 -0.3836
  519TIP3    H123116   4.605   4.622   8.314 -1.2397 -0.1315 -0.4061
  519TIP3    H223117   4.629   4.473   8.309  0.8462  0.1273  0.7321
  520TIP3   OH223118   2.394   4.032   7.376  0.2632 -0.3011 -0.5085
  520TIP3    H123119   2.444   4.073   7.447 -2.3837  1.7148  0.3571
  520TIP3    H223120   2.413   4.086   7.300 -0.8608  0.7644 -0.0697
  521TIP3   OH223121   1.850   6.185   8.239 -0.3011 -0.4877  0.4709
  521TIP3    H123122   1.780   6.246   8.216 -1.0508 -0.6407  2.2379
  521TIP3    H223123   1.930   6.228   8.208 -1.0377  0.1871 -0.6037
  522TIP3   OH223124   0.380   0.742   8.014 -0.0974 -0.1250  0.1139
  522TIP3    H123125   0.311   0.689   7.974 -1.0362  0.0714  1.3870
  522TIP3    H223126   0.356   0.745   8.107  0.8581  1.1270  0.3399
  523TIP3   OH223127   0.718   1.429   7.575 -0.3178  0.3903 -0.1289
  523TIP3    H123128   0.738   1.474   7.493  0.8836  1.1217  0.5427
  523TIP3    H223129   0.703   1.338   7.549  0.1152  0.5999 -1.1545
  524TIP3   OH223130   2.283   4.540   7.986 -0.2543 -0.1262  0.4515
  524TIP3    H123131   2.340   4.537   7.909  0.1515  1.7890  0.6312
  524TIP3    H223132   2.337   4.505   8.057 -0.1598 -0.6000  0.1539
  525TIP3   OH223133   1.691   0.465   0.377 -0.3227 -0.6269 -0.2678
  525TIP3    H123134   1.621   0.526   0.354  0.5263  0.6056  0.2265
  525TIP3    H223135   1.683   0.393   0.315 -0.0312  1.0404 -2.3730
  526TIP3   OH223136   5.360   5.134   7.346 -0.0577 -0.2828 -0.9046
  526TIP3    H123137   5.333   5.062   7.403 -0.8281 -0.7686 -1.8576
  526TIP3    H223138   5.432   5.098   7.295 -0.5066 -0.4248 -1.4500
  527TIP3   OH223139   2.435   2.953   0.062 -0.1958  0.3126 -0.0784
  527TIP3    H123140   2.527   2.965   0.037 -0.3472  0.7279 -0.4549
  527TIP3    H223141   2.390   3.028   0.024 -0.2846  1.6456  2.4287
  528TIP3   OH223142   1.374   0.006   3.214  0.6756 -0.4275  0.3775
  528TIP3    H123143   1.380   0.102   3.210  0.5462 -0.4372 -0.0288
  528TIP3    H223144   1.281  -0.012   3.222  0.7854 -0.4741  1.8314
  529TIP3   OH223145   0.337   6.724   2.178  0.4124 -0.0672 -0.0947
  529TIP3    H123146   0.246   6.696   2.163  0.1439  0.0900  1.1193
  529TIP3    H223147   0.386   6.643   2.188  0.5015 -0.1637 -1.1844
  530TIP3   OH223148   1.649   5.175   7.409  0.5085 -0.3392  0.0874
  530TIP3    H123149   1.568   5.125   7.398 -0.4099  0.5611  2.3360
  530TIP3    H223150   1.681   5.188   7.319 -0.9258 -2.1129 -0.7562
  531TIP3   OH223151   2.988   2.997   0.486  0.4526 -0.1752 -0.1198
  531TIP3    H123152   2.975   3.043   0.569  0.8121  0.3242 -0.3358
  531TIP3    H223153   3.065   3.039   0.447  3.1700 -3.2737  1.3371
  532TIP3   OH223154   6.750   5.824   2.720  0.2488 -0.1888 -0.1877
  532TIP3    H123155   6.731   5.917   2.725  0.6224 -0.1380  4.0088
  532TIP3    H223156   6.846   5.819   2.721  0.2529 -0.5327  1.6866
  533TIP3   OH223157   2.364   3.772   0.951  0.1617  0.2042 -0.1685
  533TIP3    H123158   2.408   3.743   0.871 -0.0219  0.0556 -0.2152
  533TIP3    H223159   2.422   3.742   1.022 -1.2825 -2.6545 -0.0469
  534TIP3   OH223160   4.969   5.640   0.403 -0.2147 -0.1355  0.1139
  534TIP3    H123161   5.051   5.647   0.453  0.8638 -1.6065 -1.3177
  534TIP3    H223162   4.998   5.639   0.312 -1.7467 -1.5594 -0.4057
  535TIP3   OH223163   6.432   4.312   1.258 -0.0629  0.0322  0.1201
  535TIP3    H123164   6.442   4.391   1.311 -1.8362  0.2292  0.2221
  535TIP3    H223165   6.338   4.293   1.261  0.3800 -2.4062  0.5358
  536TIP3   OH223166   6.042   3.254   2.654  0.1181  0.3368 -0.2974
  536TIP3    H123167   6.103   3.305   2.601  0.0155 -0.6956 -1.4527
  536TIP3    H223168   6.084   3.246   2.739 -0.0177  2.6257  0.0518
  537TIP3   OH223169   6.668   1.975   0.013  0.7157 -0.2177  0.6043
  537TIP3    H123170   6.749   2.026   0.013  1.6536 -1.5985 -0.8670
  537TIP3    H223171   6.677   1.916   0.087  1.0859 -0.3885  0.4275
  538TIP3   OH223172   2.953   1.755   2.749  0.0679 -0.2655 -0.3060
  538TIP3    H123173   2.974   1.664   2.770  0.3689 -0.2075 -0.3514
  538TIP3    H223174   2.859   1.755   2.730 -0.5671 -0.0826  2.4236
  539TIP3   OH223175   4.428   6.071   1.380  0.2215 -0.6557  0.7749
  539TIP3    H123176   4.444   5.977   1.381 -0.5252 -0.8275 -0.4775
  539TIP3    H223177   4.444   6.097   1.289  2.4602  0.8328  1.5387
  540TIP3   OH223178   1.546   2.582   1.820 -0.0690 -0.0827  0.2144
  540TIP3    H123179   1.533   2.669   1.782  1.8756  0.2378  0.2227
  540TIP3    H223180   1.474   2.573   1.882 -0.5842  1.3137 -0.1362
  541TIP3   OH223181   3.185   0.766   1.843  0.2674  0.0161  0.1081
  541TIP3    H123182   3.253   0.720   1.795  1.8528  0.9574  1.3251
  541TIP3    H223183   3.183   0.724   1.929 -0.1620  0.4572  0.3225
  542TIP3   OH223184   6.011   0.466   2.316 -0.4594 -0.6369 -0.0136
  542TIP3    H123185   5.973   0.388   2.356  0.1065 -1.4648 -1.0163
  542TIP3    H223186   5.989   0.458   2.223  0.7071 -0.2837 -0.3413
  543TIP3   OH223187   2.624   5.067   1.917 -0.2689  0.3907  0.3516
  543TIP3    H123188   2.548   5.125   1.924 -1.0663 -0.6858  0.9624
  543TIP3    H223189   2.679   5.108   1.851 -1.4938  1.0925 -0.2763
  544TIP3   OH223190   0.992   4.035   1.926 -0.4305  0.2877 -0.3283
  544TIP3    H123191   1.084   4.052   1.945 -0.3533  1.3602 -1.5045
  544TIP3    H223192   0.991   4.004   1.835 -1.2561  0.5926 -0.4344
  545TIP3   OH223193   5.844   3.220   1.416  0.6396  0.0557 -0.0739
  545TIP3    H123194   5.895   3.145   1.445 -0.7204 -0.3512  1.4309
  545TIP3    H223195   5.822   3.267   1.497 -2.1735 -0.3664 -0.4749
  546TIP3   OH223196   4.513   3.142   0.961 -0.1993 -0.4396 -0.3108
  546TIP3    H123197   4.490   3.091   0.883  1.0546 -0.9985 -0.3324
  546TIP3    H223198   4.603   3.117   0.980 -0.2969  0.1332  0.9821
  547TIP3   OH223199   3.946   5.720   8.491  0.0344  0.6956 -0.0383
  547TIP3    H123200   4.041   5.721   8.505  0.1198 -1.2932 -0.1950
  547TIP3    H223201   3.935   5.748   8.400  0.3625  2.0696  0.3276
  548TIP3   OH223202   4.385   5.180   0.893  0.0368 -0.0962 -0.2935
  548TIP3    H123203   4.470   5.184   0.848 -0.1389  0.9338 -0.5532
  548TIP3    H223204   4.341   5.104   0.854  1.0680 -1.0200  0.2858
  549TIP3   OH223205   0.104   4.071   8.549  0.4440  0.3807 -0.4362
  549TIP3    H123206   0.081   4.162   8.527 -2.7883  0.2932  1.8115
  549TIP3    H223207   0.065   4.019   8.480 -0.0258  0.6064 -0.3464
  550TIP3   OH223208   0.938   2.048   8.856 -0.3538 -0.5375 -0.1250
  550TIP3    H123209   0.861   2.095   8.824 -0.8514 -0.0844  1.6586
  550TIP3    H223210   1.001   2.056   8.785 -2.3966 -2.2022 -2.3288
  551TIP3   OH223211   2.448   1.971   8.281 -0.2964  0.2515 -0.3344
  551TIP3    H123212   2.424   2.054   8.323  0.2291  0.5724 -0.6556
  551TIP3    H223213   2.544   1.970   8.284 -0.0099  1.6413 -3.9752
  552TIP3   OH223214   5.055   5.264   1.533 -0.2059 -0.4815  0.4600
  552TIP3    H123215   5.113   5.261   1.609 -1.1269  1.0073  1.2789
  552TIP3    H223216   5.032   5.357   1.524 -2.0918 -0.9449 -0.0721
  553TIP3   OH223217   6.617   5.012   0.381 -0.0714 -0.0443  0.3899
  553TIP3    H123218   6.631   4.926   0.341  0.4500  0.9687 -1.7239
  553TIP3    H223219   6.696   5.027   0.433  1.1373  0.3234 -1.4903
  554TIP3   OH223220   3.882   4.136   0.421 -0.1103 -0.2973 -0.1076
  554TIP3    H123221   3.933   4.217   0.420 -0.0751 -0.3177 -1.1739
  554TIP3    H223222   3.942   4.069   0.389 -0.5968 -0.4522 -0.7146
  555TIP3   OH223223   2.164   1.959   1.256  0.1688 -0.0074  0.2102
  555TIP3    H123224   2.182   1.870   1.288 -1.2453 -0.4875 -0.2528
  555TIP3    H223225   2.249   1.992   1.228  0.9281 -0.7502  1.5241
  556TIP3   OH223226   2.131   1.310   2.119 -0.0119  0.7569  0.6960
  556TIP3    H123227   2.198   1.322   2.052  0.2889  1.1545  1.0593
  556TIP3    H223228   2.178   1.323   2.202  0.2071 -2.1662  1.1418
  557TIP3   OH223229   0.157   3.193   2.733  0.3524  0.2724 -0.1091
  557TIP3    H123230   0.128   3.102   2.723  1.8280 -0.0979 -1.5979
  557TIP3    H223231   0.176   3.221   2.643 -0.7640  2.3171  0.2523
  558TIP3   OH223232   2.132   1.499   1.206 -0.8560 -0.4047  1.0661
  558TIP3    H123233   2.119   1.443   1.282  1.9710 -0.9183  1.2813
  558TIP3    H223234   2.167   1.581   1.241  1.6047 -1.0599  0.3734
  559TIP3   OH223235   2.344   5.835   2.943  0.3250 -0.3631  0.1577
  559TIP3    H123236   2.410   5.772   2.972 -0.5400 -0.6544  1.5719
  559TIP3    H223237   2.384   5.877   2.867  1.9348 -0.8893  0.6593
  560TIP3   OH223238   0.476   0.987   1.734 -0.0858 -0.4019 -0.1337
  560TIP3    H123239   0.419   1.064   1.734  1.3966  0.7407 -0.3718
  560TIP3    H223240   0.460   0.946   1.649  0.0880  0.4299 -0.5859
  561TIP3   OH223241   5.531   2.454   0.216  0.2467 -0.0509  0.5532
  561TIP3    H123242   5.522   2.362   0.193 -1.4507  0.5499 -1.4923
  561TIP3    H223243   5.497   2.460   0.306 -0.8729 -1.2306  0.2309
  562TIP3   OH223244   5.581   0.968   7.872 -0.0648  0.0162 -0.0304
  562TIP3    H123245   5.565   0.905   7.801 -0.8670  0.0240  0.1334
  562TIP3    H223246   5.494   0.986   7.908  0.1013  1.4890 -0.2994
  563TIP3   OH223247   6.787   0.233   8.383 -0.0316  0.1503 -0.7723
  563TIP3    H123248   6.868   0.184   8.398  0.3675  1.1026  0.3549
  563TIP3    H223249   6.718   0.170   8.402  0.4681 -0.0166  0.6740
  564TIP3   OH223250   5.514   3.768   8.825 -0.1581 -0.4074  0.6997
  564TIP3    H123251   5.580   3.728   8.769  0.4510 -0.3152  1.3408
  564TIP3    H223252   5.431   3.733   8.793 -0.1362  1.6674 -2.0166
  565TIP3   OH223253   2.326   6.077   1.310 -0.3948 -0.4634  0.1841
  565TIP3    H123254   2.295   6.032   1.389  0.3215  0.2170  0.8666
  565TIP3    H223255   2.250   6.128   1.280 -0.6609 -0.7040  0.4388
  566TIP3   OH223256   3.245   5.408   7.874 -0.0904  0.3263 -0.0718
  566TIP3    H123257   3.336   5.378   7.872 -0.0181  0.5712 -0.5792
  566TIP3    H223258   3.226   5.419   7.968  0.7068  1.1565  0.0164
  567TIP3   OH223259   0.987   0.696   8.382 -0.1255 -0.0054 -0.6765
  567TIP3    H123260   1.048   0.623   8.374  1.2443  1.0383 -0.1308
  567TIP3    H223261   0.964   0.718   8.292  1.0085  0.1386 -0.9453
  568TIP3   OH223262   2.420   3.636   7.539 -0.2606 -0.2194 -0.2693
  568TIP3    H123263   2.434   3.544   7.561  2.0726  0.3698  0.9039
  568TIP3    H223264   2.503   3.665   7.501 -1.0518  1.3471 -0.8967
  569TIP3   OH223265   0.401   2.788   0.927 -0.3082  0.3383  0.6284
  569TIP3    H123266   0.377   2.710   0.877  2.4495 -1.7027  2.2113
  569TIP3    H223267   0.344   2.785   1.004  0.0483 -0.3529  0.8723
  570TIP3   OH223268   2.070   6.001   0.026  0.1556 -0.4804  0.1167
  570TIP3    H123269   2.117   5.935  -0.024  1.1974 -0.1415  0.6148
  570TIP3    H223270   1.988   5.958   0.052  1.0945 -1.8129  0.9949
  571TIP3   OH223271   5.801   2.256   1.492 -0.2798 -0.7423 -0.1076
  571TIP3    H123272   5.739   2.191   1.461  0.1872 -2.5656  2.4437
  571TIP3    H223273   5.877   2.205   1.520  1.2158  1.1662 -0.4536
  572TIP3   OH223274   4.281   3.007   2.432  0.7812 -0.1792  0.2721
  572TIP3    H123275   4.354   3.055   2.472  1.5986 -1.0148 -0.1595
  572TIP3    H223276   4.321   2.926   2.399 -0.2209 -0.3611 -0.5646
  573TIP3   OH223277   0.668   0.178   1.039 -0.0086 -0.0364 -0.8870
  573TIP3    H123278   0.724   0.115   0.994  0.4563  0.0847 -0.4878
  573TIP3    H223279   0.647   0.243   0.972 -0.5489 -0.6472 -1.3193
  574TIP3   OH223280   5.478   0.740   0.658 -0.0613  0.1193  0.1785
  574TIP3    H123281   5.388   0.763   0.681 -0.0398  0.3650  0.0332
  574TIP3    H223282   5.472   0.709   0.568 -0.3203 -1.9628  0.8623
  575TIP3   OH223283   3.418   1.546   8.048  0.1542 -0.0913 -0.1687
  575TIP3    H123284   3.358   1.476   8.072 -0.7124  0.7095  0.0709
  575TIP3    H223285   3.364   1.609   8.000  0.8138  0.6058 -0.0269
  576TIP3   OH223286   5.896   4.843   8.293  0.3424 -0.4064  0.4607
  576TIP3    H123287   5.867   4.839   8.202  0.8769  0.6627  0.2265
  576TIP3    H223288   5.956   4.918   8.296 -0.6027  0.3372  1.9520
  577TIP3   OH223289   0.890   2.814   1.418  0.1046  0.0174  0.5568
  577TIP3    H123290   0.979   2.850   1.414  0.6956 -1.1923  1.8770
  577TIP3    H223291   0.878   2.792   1.510 -0.7694 -1.7462  0.0524
  578TIP3   OH223292   4.357   1.153   0.608  0.2248  0.0625  0.1464
  578TIP3    H123293   4.304   1.196   0.675 -3.1472 -0.2821 -2.0760
  578TIP3    H223294   4.386   1.225   0.552 -1.4745 -0.0539 -0.9417
  579TIP3   OH223295   4.108   1.857   1.810 -0.6501  0.2902  0.0880
  579TIP3    H123296   4.181   1.798   1.789 -1.1902  0.1309 -1.4265
  579TIP3    H223297   4.052   1.805   1.868 -1.0649 -0.6961 -1.1412
  580TIP3   OH223298   0.695   4.598   2.013 -0.1070  0.4256  0.3106
  580TIP3    H123299   0.633   4.658   1.972 -3.1596 -1.4600  1.7081
  580TIP3    H223300   0.742   4.558   1.940 -0.6928  1.8079 -0.8718
  581TIP3   OH223301   3.390   4.386   1.554 -0.0325  0.5504 -0.2544
  581TIP3    H123302   3.393   4.295   1.585  2.2048  0.5434 -0.3196
  581TIP3    H223303   3.453   4.431   1.609  0.6332  1.5446 -1.7824
  582TIP3   OH223304   3.144   2.478   8.153 -0.2991  0.2226  0.4095
  582TIP3    H123305   3.128   2.518   8.239  0.4529 -1.1288  1.2080
  582TIP3    H223306   3.218   2.419   8.167 -0.6141 -0.5583 -1.0066
  583TIP3   OH223307   6.178   4.617   7.655 -1.2763 -0.2651  0.1810
  583TIP3    H123308   6.225   4.599   7.573 -4.0413 -2.3936 -1.1151
  583TIP3    H223309   6.119   4.690   7.633 -0.2971  0.8233  1.0777
  584TIP3   OH223310   4.628   0.914   7.197 -0.6420 -0.0057 -0.0968
  584TIP3    H123311   4.547   0.902   7.148 -1.7472 -1.1261  1.8636
  584TIP3    H223312   4.606   0.978   7.264 -0.1544 -0.8566  0.9098
  585TIP3   OH223313   3.122   3.901   7.673  0.0892  0.4632  0.3861
  585TIP3    H123314   3.078   3.819   7.698  0.7524 -0.7184 -1.9606
  585TIP3    H223315   3.059   3.945   7.616  0.0484  1.2353  1.0114
  586TIP3   OH223316   3.569   5.207   0.617  0.4658 -0.4392 -0.1222
  586TIP3    H123317   3.506   5.218   0.546  0.0471  1.3137  0.5008
  586TIP3    H223318   3.651   5.187   0.572 -0.6604 -4.0514 -0.9086
  587TIP3   OH223319   4.518   3.015   8.216 -0.0591 -0.1350 -0.1887
  587TIP3    H123320   4.611   3.019   8.194 -0.2227  2.1433 -0.6704
  587TIP3    H223321   4.517   3.009   8.312  0.5794 -0.1607 -0.1777
  588TIP3   OH223322   4.673   3.420   0.938  0.1151 -0.2265 -0.1814
  588TIP3    H123323   4.754   3.377   0.964  0.1218  0.9051  1.8492
  588TIP3    H223324   4.667   3.497   0.994 -1.9604  0.1764 -0.8528
  589TIP3   OH223325   0.750   0.818   8.450  0.8167  0.1473 -0.4488
  589TIP3    H123326   0.842   0.792   8.454  0.9515  0.7093  0.1371
  589TIP3    H223327   0.737   0.846   8.359  1.0932 -0.3968 -0.6578
  590TIP3   OH223328   6.039   0.684   7.101 -0.4247 -0.5698 -0.3353
  590TIP3    H123329   6.078   0.693   7.014 -0.6670 -1.5330 -0.5469
  590TIP3    H223330   6.079   0.755   7.151  0.7171 -0.8094 -0.8653
  591TIP3   OH223331   4.360   1.982   0.500 -0.0468  0.2993 -0.1929
  591TIP3    H123332   4.363   2.062   0.552  1.9349 -0.6625  1.3332
  591TIP3    H223333   4.348   1.912   0.565  2.1687 -0.9232 -0.9639
  592TIP3   OH223334   2.854   2.772   2.905 -0.1278 -0.2261 -0.3945
  592TIP3    H123335   2.825   2.763   2.996  0.3014 -0.0796 -0.2402
  592TIP3    H223336   2.939   2.815   2.911 -0.7994  1.2587 -0.9366
  593TIP3   OH223337   6.777   3.217   1.052 -0.4336 -0.3003  0.4640
  593TIP3    H123338   6.867   3.201   1.080 -0.4305 -2.4844 -0.6193
  593TIP3    H223339   6.725   3.157   1.105 -0.9329 -0.9934 -0.7808
  594TIP3   OH223340   5.200   5.633   8.193 -0.0592  0.7841  0.3440
  594TIP3    H123341   5.159   5.583   8.122 -0.6998 -0.9189  1.8372
  594TIP3    H223342   5.242   5.568   8.248  1.5859  2.1915  0.8460
  595TIP3   OH223343   3.724   3.485   0.564  0.0453 -0.1568 -0.1809
  595TIP3    H123344   3.819   3.478   0.553  0.1469  1.5810 -0.6596
  595TIP3    H223345   3.707   3.579   0.563 -1.3617 -0.2849  2.6965
  596TIP3   OH223346   2.382   0.057   0.469 -0.0384  0.2112 -0.5655
  596TIP3    H123347   2.324   0.101   0.530 -0.2832 -2.3608  1.2166
  596TIP3    H223348   2.469   0.094   0.487 -0.2243 -0.0012  0.8705
  597TIP3   OH223349   1.895   2.179   7.105 -0.3019  0.3828 -0.2753
  597TIP3    H123350   1.857   2.254   7.060  1.1157  0.7386 -0.9225
  597TIP3    H223351   1.846   2.104   7.071 -1.8322  0.9901  0.4927
  598TIP3   OH223352   4.885   6.034   8.168 -0.3872  0.1029 -0.2531
  598TIP3    H123353   4.965   6.058   8.121 -0.9402 -0.4023 -1.5109
  598TIP3    H223354   4.894   5.941   8.186  0.3275  0.5243  1.7203
  599TIP3   OH223355   6.457   6.743   7.731  0.2350 -0.0028  0.2646
  599TIP3    H123356   6.395   6.750   7.658  0.0526 -0.9828  0.3075
  599TIP3    H223357   6.421   6.800   7.799  0.4826  1.0335 -0.4526
  600TIP3   OH223358   1.165   0.628   1.701  0.3712  0.2729 -0.7939
  600TIP3    H123359   1.169   0.710   1.751 -0.9758  0.1161 -0.3929
  600TIP3    H223360   1.251   0.588   1.714 -0.5438 -0.8697  3.3820
  601TIP3   OH223361   6.691   4.907   1.948  0.5434 -0.0718  0.1800
  601TIP3    H123362   6.693   4.819   1.912  1.5304  0.0064 -0.0075
  601TIP3    H223363   6.625   4.954   1.898 -1.4026 -1.2052  1.5448
  602TIP3   OH223364   3.607   4.013   0.439 -0.3401 -0.1212 -0.2780
  602TIP3    H123365   3.632   4.043   0.352  1.9039 -1.5300 -0.1888
  602TIP3    H223366   3.515   3.988   0.431 -1.1522  2.8008 -1.3496
  603TIP3   OH223367   1.175   0.839   2.291  0.0131  0.2902 -0.1421
  603TIP3    H123368   1.080   0.852   2.283 -0.1231  0.4432  1.4185
  603TIP3    H223369   1.192   0.757   2.245 -0.7706  0.5822 -0.9910
  604TIP3   OH223370   2.500   5.571   8.200 -0.0359 -0.0162  0.3350
  604TIP3    H123371   2.464   5.521   8.127 -1.4884  0.7547  0.4805
  604TIP3    H223372   2.592   5.584   8.178 -0.4899  0.3651 -1.4549
  605TIP3   OH223373   6.558   3.649   8.335 -0.2598 -0.2009  0.5095
  605TIP3    H123374   6.514   3.691   8.410 -1.4630 -1.1642  0.3938
  605TIP3    H223375   6.586   3.564   8.370  2.0950  0.5994  0.7322
  606TIP3   OH223376   2.691   5.572   7.597  0.0916  0.0539  0.4034
  606TIP3    H123377   2.768   5.568   7.540  0.6365  0.6043  1.0780
  606TIP3    H223378   2.623   5.525   7.548  0.8487 -0.4514 -0.2027
  607TIP3   OH223379   6.169   4.022   7.481 -0.5645  0.1802  0.5209
  607TIP3    H123380   6.203   4.110   7.460 -1.3165  0.2667 -0.3804
  607TIP3    H223381   6.225   3.992   7.553  0.0189  1.2002  0.5188
  608TIP3   OH223382   4.952   4.094   7.553 -0.4857 -0.3917 -0.5133
  608TIP3    H123383   4.970   4.181   7.588 -1.5714 -0.0388 -0.7815
  608TIP3    H223384   4.996   4.092   7.468 -0.7085  0.0021 -0.6366
  609TIP3   OH223385   1.240   3.222   2.139 -0.2951  0.3567 -0.9127
  609TIP3    H123386   1.170   3.167   2.173 -0.3575  0.2418 -1.2215
  609TIP3    H223387   1.196   3.295   2.098 -0.1923  1.1608  0.3454
  610TIP3   OH223388   1.906   0.608   1.858 -0.1147 -0.0694  0.1362
  610TIP3    H123389   1.894   0.535   1.797  1.2594  0.6262 -1.0404
  610TIP3    H223390   1.939   0.567   1.938  0.8135 -0.7549 -0.5654
  611TIP3   OH223391   1.053   0.409   8.373  0.2503 -0.4857 -0.1731
  611TIP3    H123392   1.105   0.419   8.293  0.0553  0.0697 -0.2326
  611TIP3    H223393   1.063   0.317   8.396 -1.0409 -1.0741 -1.7461
  612TIP3   OH223394   3.701   1.877   7.429  0.1440 -0.5090 -0.0087
  612TIP3    H123395   3.792   1.884   7.458  0.5102  0.6532 -1.3154
  612TIP3    H223396   3.699   1.799   7.373  0.4049 -0.3531 -0.2332
  613TIP3   OH223397   5.370   0.940   7.590 -0.6127 -0.4467  0.6256
  613TIP3    H123398   5.279   0.947   7.620 -1.0865 -1.5385 -0.4412
  613TIP3    H223399   5.410   0.875   7.648 -0.1164  0.9628  1.9131
  614TIP3   OH223400   4.387   0.603   2.558 -0.9821 -0.3438  0.1933
  614TIP3    H123401   4.343   0.565   2.635  1.4835 -0.3465  1.6859
  614TIP3    H223402   4.404   0.693   2.582 -0.1467 -0.3533 -0.3463
  615TIP3   OH223403   3.160   5.006   1.211 -0.1648  0.2287  1.0801
  615TIP3    H123404   3.151   5.075   1.145 -0.4658 -0.3642  0.4786
  615TIP3    H223405   3.254   4.994   1.221 -0.0710 -1.0158 -0.7329
  616TIP3   OH223406   1.355   6.787   1.588  0.0596  0.0771  0.4475
  616TIP3    H123407   1.409   6.861   1.616 -2.0371  0.9397  2.5526
  616TIP3    H223408   1.367   6.722   1.658 -2.4558  0.7832  1.6320
  617TIP3   OH223409   6.163   1.193   7.311 -0.2891  0.2763 -0.7155
  617TIP3    H123410   6.076   1.233   7.298  0.8240  3.0152 -0.4465
  617TIP3    H223411   6.172   1.133   7.237 -2.0368  0.6280 -1.2891
  618TIP3   OH223412   2.468   0.307   2.327  0.0687  0.0660 -0.2014
  618TIP3    H123413   2.429   0.360   2.258 -0.7838 -0.7877 -0.4023
  618TIP3    H223414   2.558   0.338   2.334  0.0774  0.3705 -1.4814
  619TIP3   OH223415   3.440   5.257   1.434 -0.2498 -0.0158  0.6768
  619TIP3    H123416   3.395   5.330   1.391 -0.2823 -0.3942  0.0614
  619TIP3    H223417   3.422   5.270   1.528  1.1017  1.6759  0.7432
  620TIP3   OH223418   1.514   5.587   7.678 -0.3488  0.0309 -0.2143
  620TIP3    H123419   1.536   5.497   7.656 -0.4601  0.1339 -0.7595
  620TIP3    H223420   1.450   5.580   7.750 -0.5159 -0.3281 -0.3971
  621TIP3   OH223421   1.140   2.893   1.362 -0.1118  0.6995 -0.2786
  621TIP3    H123422   1.212   2.911   1.423  1.5057  1.3253 -2.2425
  621TIP3    H223423   1.177   2.913   1.276 -1.8741 -1.3067 -1.5995
  622TIP3   OH223424   4.072   1.809   8.702 -0.0077  0.1768 -0.4407
  622TIP3    H123425   4.106   1.739   8.758 -1.3905  0.5587  0.9132
  622TIP3    H223426   4.105   1.890   8.741  0.8082  0.3795 -1.4709
  623TIP3   OH223427   2.686   3.965   2.377 -0.0302  0.0382  0.3711
  623TIP3    H123428   2.629   3.893   2.349  0.3551 -0.8135  1.6451
  623TIP3    H223429   2.731   3.992   2.297 -1.9511  0.5301 -0.6099
  624TIP3   OH223430   5.091   5.826   0.716  0.5249  0.0651  0.1085
  624TIP3    H123431   5.140   5.782   0.646  0.5692  0.0408  0.1547
  624TIP3    H223432   5.124   5.915   0.717 -0.1119  0.3213 -0.5047
  625TIP3   OH223433   5.315   3.182   7.120 -0.5287 -0.1438 -0.6381
  625TIP3    H123434   5.261   3.260   7.130  0.3170  0.2805  0.8692
  625TIP3    H223435   5.379   3.205   7.052 -1.6319 -0.3444 -1.7960
  626TIP3   OH223436   4.012   1.613   0.632  0.0720 -0.2714 -0.0262
  626TIP3    H123437   3.951   1.554   0.677  0.2625 -0.1188  0.4435
  626TIP3    H223438   4.096   1.598   0.675  0.0651  0.5478  0.2953
  627TIP3   OH223439   6.729   6.559   1.678 -0.6544 -0.2543  0.2003
  627TIP3    H123440   6.657   6.598   1.728 -1.3171 -2.2207  0.8672
  627TIP3    H223441   6.686   6.502   1.615  0.2803  0.1241 -0.8050
  628TIP3   OH223442   4.826   2.125   8.040  0.2404 -0.2972 -0.1181
  628TIP3    H123443   4.896   2.082   8.090  0.0717 -0.1408  0.2584
  628TIP3    H223444   4.873   2.178   7.974  0.5766  1.2927  1.3101
  629TIP3   OH223445   0.326   4.443   0.986  0.3678 -0.1164 -0.0848
  629TIP3    H123446   0.422   4.442   0.984  0.3637 -0.7966 -0.1096
  629TIP3    H223447   0.300   4.395   0.908  0.0056 -0.0097 -0.0295
  630TIP3   OH223448   4.593   5.958   0.468 -0.2959 -0.3936 -0.1749
  630TIP3    H123449   4.643   5.886   0.429 -0.2251  0.7029 -2.2161
  630TIP3    H223450   4.628   6.037   0.427 -0.3501  0.8628  2.0336
  631TIP3   OH223451   1.228   0.163   8.344  0.4011 -0.4581 -0.6888
  631TIP3    H123452   1.270   0.077   8.350  1.4103  0.0812  0.0712
  631TIP3    H223453   1.247   0.193   8.255  1.8877 -0.1036 -0.2762
  632TIP3   OH223454   2.564   5.944   8.111  0.5580 -0.1339  0.3517
  632TIP3    H123455   2.638   5.893   8.078  0.5871  0.3137 -0.2951
  632TIP3    H223456   2.587   6.035   8.092 -0.5594 -0.0441 -0.7178
  633TIP3   OH223457   6.380   6.641   0.860 -0.0096 -0.2336 -0.2567
  633TIP3    H123458   6.318   6.633   0.787  1.1944  1.5764 -1.5635
  633TIP3    H223459   6.333   6.693   0.925 -0.5666 -0.5904 -0.3657
  634TIP3   OH223460   2.234   3.702   7.728 -0.7641  0.0852 -0.2512
  634TIP3    H123461   2.268   3.691   7.639  1.5657  1.1715  0.4342
  634TIP3    H223462   2.207   3.794   7.732 -0.0157  0.2772  0.4337
  635TIP3   OH223463   0.916   1.419   1.929 -0.2595  0.2031 -0.1188
  635TIP3    H123464   0.894   1.377   2.012 -1.4641  0.7929 -0.1157
  635TIP3    H223465   0.855   1.380   1.866 -0.5839  1.0704 -0.3521
  636TIP3   OH223466   0.659   5.390   3.099  0.2939  0.0291  0.2520
  636TIP3    H123467   0.739   5.351   3.062  1.2325  0.1901  2.0129
  636TIP3    H223468   0.621   5.320   3.152  0.2931  0.5386  0.9309
  637TIP3   OH223469   4.163   2.097   8.227 -0.0587  0.0252  0.2885
  637TIP3    H123470   4.113   2.047   8.292 -1.9506  0.1255 -1.0192
  637TIP3    H223471   4.211   2.030   8.177 -2.0520 -0.4953 -1.0203
  638TIP3   OH223472   4.027   2.405   7.861 -0.0811  0.9163  0.2987
  638TIP3    H123473   4.073   2.410   7.944 -0.0524 -1.0836  0.4453
  638TIP3    H223474   3.938   2.379   7.884 -0.0410  0.2260 -0.2741
  639TIP3   OH223475   4.332   6.752   1.162 -0.2094 -0.2101  0.3330
  639TIP3    H123476   4.255   6.708   1.198 -0.8584  1.2188  0.7351
  639TIP3    H223477   4.387   6.770   1.238 -0.0855 -0.0415  0.2033
  640TIP3   OH223478   0.175   3.809   7.657  0.2518 -0.6849 -0.1761
  640TIP3    H123479   0.178   3.808   7.561  0.9901  1.8553 -0.2385
  640TIP3    H223480   0.192   3.718   7.682 -0.8185 -1.5806 -2.4468
  641TIP3   OH223481   1.586   6.618   0.107  0.1387  0.2909 -0.1826
  641TIP3    H123482   1.586   6.698   0.054 -0.7503 -1.1861 -2.5982
  641TIP3    H223483   1.675   6.583   0.097  0.6901  1.1925  1.3106
  642TIP3   OH223484   5.214   6.509   1.579 -0.2999 -0.2300 -0.0278
  642TIP3    H123485   5.266   6.553   1.511 -0.1778 -1.0095 -0.4415
  642TIP3    H223486   5.267   6.515   1.657  0.4247 -1.0263 -0.4508
  643TIP3   OH223487   6.762   6.701   7.027 -0.1870  0.1199 -0.4171
  643TIP3    H123488   6.679   6.688   6.979 -0.0043 -0.1347 -0.6642
  643TIP3    H223489   6.805   6.772   6.980  0.3385 -0.6326 -1.1057
  644TIP3   OH223490   0.974   4.564   7.873  0.3480  0.2771  0.4260
  644TIP3    H123491   0.906   4.613   7.919 -0.6535  0.2393 -0.9380
  644TIP3    H223492   0.984   4.483   7.923 -1.9114 -0.5182 -0.2893
  645TIP3   OH223493   0.308   6.594   7.886  0.5958  0.0035 -0.9741
  645TIP3    H123494   0.288   6.514   7.935  1.6804  0.7297  0.7576
  645TIP3    H223495   0.387   6.573   7.837  1.4460  0.2638  0.2343
  646TIP3   OH223496   5.424   4.324   2.647 -0.4854  0.0406  0.9309
  646TIP3    H123497   5.464   4.313   2.733  1.7359  1.8271  0.2331
  646TIP3    H223498   5.492   4.296   2.585 -1.6971 -0.3422 -0.2694
  647TIP3   OH223499   6.091   2.855   1.907 -0.4396 -0.5396  0.2526
  647TIP3    H123500   6.090   2.830   1.815 -1.7275 -2.0138  0.6183
  647TIP3    H223501   6.004   2.893   1.923 -0.5585 -1.1096  1.0367
  648TIP3   OH223502   4.944   6.732   0.821 -0.7820  0.0074 -0.4792
  648TIP3    H123503   4.903   6.724   0.908 -0.1155 -0.7182 -0.2263
  648TIP3    H223504   4.942   6.644   0.785  0.1700  0.0377 -0.6367
  649TIP3   OH223505   1.529   4.441   2.235  0.0963  0.5127 -0.2407
  649TIP3    H123506   1.602   4.434   2.297 -0.5713  0.2853  0.5362
  649TIP3    H223507   1.463   4.493   2.281 -0.2924  0.5895 -0.8728
  650TIP3   OH223508   0.655   2.572   7.935  0.2192 -0.0777  0.3049
  650TIP3    H123509   0.739   2.618   7.927  1.6378 -2.1995  2.0956
  650TIP3    H223510   0.600   2.631   7.988 -0.0069  1.9204 -1.9469
  651TIP3   OH223511   3.349   6.296   8.815 -0.1193 -0.4388 -0.3667
  651TIP3    H123512   3.365   6.386   8.788  0.8122 -0.4749  0.0328
  651TIP3    H223513   3.253   6.288   8.815 -0.2568  0.8522  0.5845
  652TIP3   OH223514   3.994   3.394   2.276 -0.2696  0.3594  0.2023
  652TIP3    H123515   3.947   3.477   2.267 -2.1234 -0.7800 -1.3014
  652TIP3    H223516   3.951   3.350   2.350 -2.2457 -1.0127 -1.6482
  653TIP3   OH223517   2.506   3.237   1.590 -0.1069 -0.1495 -0.2372
  653TIP3    H123518   2.478   3.251   1.680  0.3112  1.9256 -0.3949
  653TIP3    H223519   2.424   3.222   1.541 -0.7689  2.7233 -0.1603
  654TIP3   OH223520   0.240   2.623   7.200 -0.1256  0.4455  0.1357
  654TIP3    H123521   0.264   2.530   7.193  1.5860  0.7469  1.3512
  654TIP3    H223522   0.163   2.624   7.256  0.3052 -0.2132  0.7606
  655TIP3   OH223523   3.349   0.695   1.160 -0.0272 -0.4672  0.5015
  655TIP3    H123524   3.367   0.783   1.194  0.5901 -0.5037  0.2755
  655TIP3    H223525   3.290   0.710   1.086 -0.3369 -0.2859  0.7836
  656TIP3   OH223526   0.621   6.012   1.133  0.1409 -0.0941  0.1691
  656TIP3    H123527   0.557   5.942   1.120  1.3417 -0.7183 -3.2297
  656TIP3    H223528   0.706   5.969   1.122  1.0302  1.4075  0.8953
  657TIP3   OH223529   6.288   0.191   0.096  0.5666 -0.4041 -0.6241
  657TIP3    H123530   6.224   0.136   0.051  0.7065 -1.7269  0.6944
  657TIP3    H223531   6.236   0.240   0.160  0.4498  1.0046 -1.7653
  658TIP3   OH223532   0.229   2.242   1.813  0.2176  0.3962  0.2128
  658TIP3    H123533   0.304   2.299   1.828 -0.5477  1.3471  0.4815
  658TIP3    H223534   0.197   2.266   1.726  0.5752 -0.4325 -0.1611
  659TIP3   OH223535   6.390   5.496   7.093 -0.3606 -0.3777  0.3991
  659TIP3    H123536   6.324   5.468   7.030 -1.8364  1.6570  0.9633
  659TIP3    H223537   6.374   5.589   7.105  2.5974  0.2078  0.6301
  660TIP3   OH223538   5.958   6.344   0.678 -0.0286 -0.5368  0.6293
  660TIP3    H123539   5.975   6.356   0.771  0.8884  1.9378  0.2210
  660TIP3    H223540   5.866   6.368   0.667  0.5396  1.9057  0.5805
  661TIP3   OH223541   2.553   4.816   8.713  0.4353 -0.2457 -0.1399
  661TIP3    H123542   2.637   4.772   8.701  0.3224 -0.0593 -1.8601
  661TIP3    H223543   2.548   4.832   8.807  2.2188 -0.4477  0.0279
  662TIP3   OH223544   3.620   0.018   7.839 -0.1676  0.0141 -0.2771
  662TIP3    H123545   3.652  -0.020   7.757 -1.1381 -1.4706 -0.0296
  662TIP3    H223546   3.692   0.007   7.901  0.5374  1.0603 -0.8918
  663TIP3   OH223547   2.758   3.138   0.834 -0.2911 -0.7693  0.3350
  663TIP3    H123548   2.750   3.206   0.767  1.1388 -2.6127 -1.8964
  663TIP3    H223549   2.672   3.095   0.834 -0.5046 -0.3501  0.1520
  664TIP3   OH223550   0.502   6.242   3.462  0.0739 -0.4859  0.0786
  664TIP3    H123551   0.563   6.306   3.499  2.5966 -3.7475  2.0194
  664TIP3    H223552   0.557   6.177   3.419 -2.2814 -1.9425 -0.9607
  665TIP3   OH223553   5.756   5.231   2.448  1.0438 -0.1146  0.1448
  665TIP3    H123554   5.756   5.142   2.485  1.8539  0.7244  2.3397
  665TIP3    H223555   5.748   5.218   2.354  0.9616 -2.5073  0.4240
  666TIP3   OH223556   1.470   4.910   2.129 -0.4547 -0.0468  0.2835
  666TIP3    H123557   1.537   4.841   2.123 -0.1151  0.2708  0.3680
  666TIP3    H223558   1.439   4.905   2.219  0.7408  0.9790  0.7739
  667TIP3   OH223559   3.435   0.483   7.221  0.2605 -0.0973 -0.5243
  667TIP3    H123560   3.455   0.405   7.170  0.4564 -0.1038 -0.4410
  667TIP3    H223561   3.455   0.459   7.312 -1.5574 -0.5742 -0.2299
  668TIP3   OH223562   1.643   5.975   7.400  0.2169  0.4602 -0.2147
  668TIP3    H123563   1.640   6.012   7.312  2.1962 -1.0648 -1.0182
  668TIP3    H223564   1.570   5.914   7.404 -0.3600  1.1236 -0.4888
  669TIP3   OH223565   0.454   0.013   1.034 -0.2318 -0.2702 -0.0858
  669TIP3    H123566   0.434   0.043   1.123 -0.4456 -0.5893 -0.0254
  669TIP3    H223567   0.544   0.042   1.018  0.3859 -1.5974  0.8328
  670TIP3   OH223568   2.220   4.725   2.559 -0.0362  0.4679  0.0010
  670TIP3    H123569   2.140   4.763   2.595 -0.0504  1.2296 -0.8107
  670TIP3    H223570   2.260   4.679   2.633 -1.2522  0.0085  0.4076
  671TIP3   OH223571   1.307   1.797   1.982  0.2909 -0.3079 -1.0598
  671TIP3    H123572   1.256   1.715   1.982 -0.5780  0.2154 -0.8527
  671TIP3    H223573   1.363   1.790   2.059 -1.7347  0.4465  0.5663
  672TIP3   OH223574   3.784   3.968   0.660 -0.3484 -0.1363  0.2035
  672TIP3    H123575   3.743   3.961   0.574  0.2874  0.5392 -0.1662
  672TIP3    H223576   3.861   3.912   0.655 -0.3784 -0.1944  0.3798
  673TIP3   OH223577   3.390   5.641   7.998  0.0607  0.3151 -0.5896
  673TIP3    H123578   3.300   5.618   8.021  0.4540 -0.3425  0.3733
  673TIP3    H223579   3.384   5.680   7.911 -0.8123 -2.5076 -1.9108
  674TIP3   OH223580   2.804   1.665   1.754 -0.2756 -0.5189  0.6346
  674TIP3    H123581   2.780   1.647   1.663 -0.1221 -1.3894  0.7553
  674TIP3    H223582   2.802   1.580   1.797  0.0527 -0.1764  1.3541
  675TIP3   OH223583   4.193   0.444   1.950 -0.1971  0.2252 -0.1029
  675TIP3    H123584   4.287   0.452   1.966 -0.2467  0.4873  0.0665
  675TIP3    H223585   4.168   0.529   1.915 -0.0635 -0.3763 -1.7437
  676TIP3   OH223586   3.020   1.846   1.730 -0.9005 -0.4751  0.6477
  676TIP3    H123587   3.103   1.801   1.747  0.0171  0.3413 -1.2679
  676TIP3    H223588   2.958   1.776   1.711  0.2203 -1.0491 -1.1975
  677TIP3   OH223589   0.487   4.517   2.637  0.4555 -0.1916  0.6295
  677TIP3    H123590   0.391   4.507   2.634  0.4317  0.1857  0.0674
  677TIP3    H223591   0.504   4.552   2.724 -0.0891  1.4178  0.1213
  678TIP3   OH223592   4.217   6.722   6.966  0.3353  0.4615 -0.5178
  678TIP3    H123593   4.228   6.698   7.058  1.6991  3.1689  0.1366
  678TIP3    H223594   4.149   6.663   6.934 -0.6919 -0.1147  2.4005
  679TIP3   OH223595   6.671   1.328   1.068  0.3129  0.3292 -0.2390
  679TIP3    H123596   6.757   1.326   1.026  0.3792 -0.7059 -0.0736
  679TIP3    H223597   6.637   1.416   1.047  1.6034  0.9438  0.1340
  680TIP3   OH223598   5.913   1.152   8.861  0.1047 -0.5087 -0.3515
  680TIP3    H123599   5.915   1.190   8.773  0.7987 -0.6303 -0.3952
  680TIP3    H223600   5.822   1.125   8.874 -0.6847  2.0864  0.0903
  681TIP3   OH223601   5.665   5.491   0.048  0.7779  0.2732  0.6149
  681TIP3    H123602   5.636   5.437  -0.026  2.2141  1.3811 -0.8115
  681TIP3    H223603   5.601   5.562   0.052  0.0701 -0.3760  1.1757
  682TIP3   OH223604   6.575   2.137   7.670  0.5612  0.2556  0.3060
  682TIP3    H123605   6.487   2.117   7.702  0.3226 -0.3389 -0.6857
  682TIP3    H223606   6.564   2.151   7.576  1.5953 -0.2532  0.0994
  683TIP3   OH223607   5.390   6.667   8.398  0.1570 -0.5340 -0.2844
  683TIP3    H123608   5.302   6.698   8.422  0.0481 -0.3415 -0.9174
  683TIP3    H223609   5.395   6.680   8.303  1.3745  0.7783 -0.0717
  684TIP3   OH223610   0.966   4.831   2.395  0.2235  0.2150 -0.0830
  684TIP3    H123611   1.042   4.854   2.342  0.4629 -0.7922 -0.2071
  684TIP3    H223612   0.909   4.781   2.335 -0.2545  0.4416  0.1724
  685TIP3   OH223613   0.908   0.172   2.261 -0.4321  0.5722  0.2193
  685TIP3    H123614   0.925   0.078   2.253 -0.4342  0.6221 -0.4346
  685TIP3    H223615   0.828   0.187   2.210 -0.7586  0.8369  0.7978
  686TIP3   OH223616   6.031   6.394   0.913 -0.5752  0.6191  0.0409
  686TIP3    H123617   6.018   6.342   0.992 -2.1724  1.5452  0.4264
  686TIP3    H223618   5.994   6.480   0.934  0.6551  1.4665 -1.0873
  687TIP3   OH223619   1.225   2.809   7.839  0.1807 -0.8554 -0.2341
  687TIP3    H123620   1.159   2.879   7.834 -0.1516 -1.0924  0.6210
  687TIP3    H223621   1.302   2.845   7.796 -0.3996 -0.4474 -0.9580
  688TIP3   OH223622   0.202   6.463   1.771 -0.7650 -0.4923 -0.1184
  688TIP3    H123623   0.116   6.505   1.775 -0.5887 -0.2298  1.5172
  688TIP3    H223624   0.184   6.374   1.741 -1.7239 -0.7017  1.0091
  689TIP3   OH223625   4.985   2.191   7.574  0.2699 -0.3030 -0.6832
  689TIP3    H123626   4.952   2.156   7.491  1.8312 -0.2594 -1.3485
  689TIP3    H223627   5.078   2.208   7.558  0.7846 -1.0095  1.2971
  690TIP3   OH223628   4.400   2.619   8.019  0.0356  0.5292  0.4949
  690TIP3    H123629   4.495   2.623   8.013  0.1589 -0.1868  1.7514
  690TIP3    H223630   4.380   2.635   8.111 -1.0014 -0.0782  0.3954
  691TIP3   OH223631   1.279   0.206   8.071  0.6098  0.0877  0.0572
  691TIP3    H123632   1.330   0.277   8.032  1.1876  1.2366  2.7316
  691TIP3    H223633   1.314   0.127   8.029  1.8051  1.1547 -1.0620
  692TIP3   OH223634   5.832   3.841   6.845 -0.1648 -0.5376 -0.3598
  692TIP3    H123635   5.795   3.892   6.773 -2.2268  1.8335  2.1390
  692TIP3    H223636   5.899   3.787   6.805 -1.7275  0.0461 -4.1417
  693TIP3   OH223637   0.865   4.948   7.437  0.4706 -0.2132 -0.0524
  693TIP3    H123638   0.840   5.038   7.457 -0.5961 -0.5958  0.4390
  693TIP3    H223639   0.804   4.921   7.369 -0.9765 -1.3689  1.5912
  694TIP3   OH223640   0.078   1.818   7.973 -0.1714 -0.0764  0.3744
  694TIP3    H123641   0.005   1.796   7.914 -0.2967 -0.8422  0.7968
  694TIP3    H223642   0.060   1.768   8.052  0.8817 -0.3654  0.4401
  695TIP3   OH223643   0.960   3.367   2.294 -0.2355 -0.6019 -0.8032
  695TIP3    H123644   0.976   3.350   2.387 -2.1088 -0.1957 -0.3550
  695TIP3    H223645   0.884   3.313   2.273  0.4904 -1.1130 -2.2828
  696TIP3   OH223646   4.637   3.328   1.341 -0.3579  0.0969 -0.4944
  696TIP3    H123647   4.613   3.375   1.421 -0.7050  0.6759 -0.9287
  696TIP3    H223648   4.595   3.243   1.350  0.3635 -0.1806  0.3540
  697TIP3   OH223649   0.015   6.030   8.113 -0.9344  0.2240 -0.0766
  697TIP3    H123650   0.028   6.108   8.168  0.1263 -1.2433  1.8696
  697TIP3    H223651   0.006   5.958   8.175 -1.5920 -1.2766 -1.8275
  698TIP3   OH223652   5.825   1.089   1.716 -0.1419  0.9425  0.2725
  698TIP3    H123653   5.826   1.183   1.732 -0.5169  0.5246  3.2416
  698TIP3    H223654   5.912   1.058   1.743 -0.7803  0.1629  1.5093
  699TIP3   OH223655   5.049   1.636   7.222  0.0712 -0.0360  0.1627
  699TIP3    H123656   4.955   1.651   7.235  0.1147  1.0750 -0.6678
  699TIP3    H223657   5.063   1.650   7.128  0.9883 -0.6747  0.1950
  700TIP3   OH223658   4.791   3.056   0.940 -0.0694  0.4522 -0.3138
  700TIP3    H123659   4.808   2.986   1.003  2.2558  0.3137 -1.0058
  700TIP3    H223660   4.775   3.011   0.858  2.5734  0.6450 -1.0226
  701TIP3   OH223661   6.740   4.927   1.175 -0.1234 -0.1235 -0.2274
  701TIP3    H123662   6.738   4.848   1.230  1.7046 -0.9496 -1.2562
  701TIP3    H223663   6.793   4.989   1.224 -0.3947 -0.0269 -0.0513
  702TIP3   OH223664   2.422   2.954   8.628  0.2625 -0.2417 -0.7351
  702TIP3    H123665   2.474   3.006   8.566  0.2180  0.5711 -0.1011
  702TIP3    H223666   2.487   2.912   8.684  0.2996 -0.9056 -1.2656
  703TIP3   OH223667   6.727   2.347   1.198 -0.1665  0.4293  0.2263
  703TIP3    H123668   6.756   2.344   1.107  3.2948 -1.9190  1.1749
  703TIP3    H223669   6.657   2.283   1.204  0.3710 -0.2525 -0.5965
  704TIP3   OH223670   0.414   3.984   0.951  0.1395 -0.3643 -0.0095
  704TIP3    H123671   0.383   4.038   1.024  1.4745  0.2110  0.1539
  704TIP3    H223672   0.336   3.937   0.921 -0.2929 -1.2710  2.3365
  705TIP3   OH223673   5.270   0.773   7.062  1.0162 -0.2072  0.7612
  705TIP3    H123674   5.248   0.680   7.061 -2.1672  0.3749 -1.9036
  705TIP3    H223675   5.344   0.782   7.002  0.5388 -0.9219  0.0496
  706TIP3   OH223676   3.621   5.414   1.279 -0.3738 -0.1377 -0.3510
  706TIP3    H123677   3.561   5.411   1.205  1.0752  0.1667 -1.5920
  706TIP3    H223678   3.577   5.364   1.348 -2.0515  0.1372 -1.1752
  707TIP3   OH223679   0.142   2.558   8.526  0.3737  0.2304 -0.5630
  707TIP3    H123680   0.218   2.609   8.499  0.6251 -0.3944 -1.0609
  707TIP3    H223681   0.074   2.580   8.462  0.1570  0.7283 -0.1652
  708TIP3   OH223682   0.033   6.617   2.525 -0.2879  0.1034 -0.1526
  708TIP3    H123683  -0.015   6.646   2.602  0.5980 -0.2276  0.5473
  708TIP3    H223684   0.019   6.523   2.522 -1.0574  0.2314 -0.9320
  709TIP3   OH223685   5.056   5.375   7.824 -0.3602  0.3882 -0.4667
  709TIP3    H123686   5.067   5.322   7.903  0.5959 -0.9092 -1.4151
  709TIP3    H223687   5.050   5.465   7.855 -2.1976 -0.2364  1.2333
  710TIP3   OH223688   5.612   2.369   1.106 -0.0914  0.5309 -0.1709
  710TIP3    H123689   5.619   2.414   1.022 -0.1416  2.0840  0.6379
  710TIP3    H223690   5.693   2.390   1.151 -0.4879  0.5142  0.5591
  711TIP3   OH223691   5.031   0.320   2.050  0.0837 -0.0024  0.0292
  711TIP3    H123692   4.964   0.362   1.996 -0.4964  0.3094  0.9738
  711TIP3    H223693   5.062   0.247   1.996 -1.3622 -0.4652 -0.2310
  712TIP3   OH223694   2.934   4.020   1.595  0.1709  0.2167 -0.3803
  712TIP3    H123695   2.895   4.088   1.539 -2.3520  0.1237  1.1022
  712TIP3    H223696   3.013   3.993   1.548 -0.4381  1.9357 -2.5873
  713TIP3   OH223697   1.506   0.111   2.841  0.2249 -0.2008  0.8778
  713TIP3    H123698   1.570   0.086   2.774 -1.2697 -0.0395 -0.6696
  713TIP3    H223699   1.514   0.206   2.848 -1.2410  0.1219 -0.9058
  714TIP3   OH223700   6.536   4.414   7.104  0.6120 -0.1708  0.1028
  714TIP3    H123701   6.489   4.330   7.099 -0.9027  0.6372  0.0357
  714TIP3    H223702   6.471   4.475   7.137  1.0910  1.3888 -1.6650
  715TIP3   OH223703   4.085   1.247   0.613  0.0373 -0.1177  0.3316
  715TIP3    H123704   4.057   1.174   0.557 -0.9970  0.5611 -0.0696
  715TIP3    H223705   4.019   1.251   0.682  1.4971 -1.1758  1.8646
  716TIP3   OH223706   4.759   2.033   1.544  1.2002 -0.6083  0.6881
  716TIP3    H123707   4.850   2.013   1.564  1.0298 -0.2413  1.8795
  716TIP3    H223708   4.734   2.101   1.606  0.7468  0.8975 -1.0590
  717TIP3   OH223709   6.252   2.157   7.661 -0.3055  0.4854  0.0492
  717TIP3    H123710   6.209   2.118   7.738 -0.2650 -0.5027 -0.4164
  717TIP3    H223711   6.186   2.217   7.626 -0.9634 -0.2819 -0.0815
  718TIP3   OH223712   0.969   0.000   1.227 -0.2036 -0.0184  0.3389
  718TIP3    H123713   1.061  -0.012   1.252  0.6188  2.7623 -0.9132
  718TIP3    H223714   0.928   0.037   1.305 -0.0824 -0.5513  0.6598
  719TIP3   OH223715   5.052   1.719   0.640  0.4933 -0.2399 -0.0424
  719TIP3    H123716   4.963   1.751   0.623 -0.0017 -0.5323  1.7765
  719TIP3    H223717   5.108   1.794   0.621 -0.2332  0.2414 -0.3300
  720TIP3   OH223718   5.370   1.443   8.610 -0.1440 -0.2869  0.1377
  720TIP3    H123719   5.276   1.455   8.617 -0.4561 -2.0818 -0.6354
  720TIP3    H223720   5.397   1.502   8.539 -0.6497  0.2635  0.3919
  721TIP3   OH223721   3.996   3.290   2.024 -0.2451  0.0472  0.9304
  721TIP3    H123722   4.090   3.277   2.009 -0.4224 -0.7748  0.4900
  721TIP3    H223723   3.992   3.339   2.107  0.6348  1.9178 -0.0586
  722TIP3   OH223724   0.190   0.576   1.541 -0.4647  0.1982  0.2280
  722TIP3    H123725   0.141   0.658   1.537 -0.5078  0.3512  2.6052
  722TIP3    H223726   0.123   0.508   1.530 -0.5405  0.4280 -0.9062
  723TIP3   OH223727   2.590   3.461   2.220  0.0362 -0.1507  0.3925
  723TIP3    H123728   2.637   3.408   2.156  3.4599  2.8174  0.1677
  723TIP3    H223729   2.625   3.433   2.304  1.2138  1.0880  0.3348
  724TIP3   OH223730   3.738   3.649   7.081  0.4299 -0.5141 -0.3916
  724TIP3    H123731   3.679   3.702   7.135  1.9383  1.5485 -0.6368
  724TIP3    H223732   3.807   3.710   7.055  0.7712 -1.9193 -3.0968
  725TIP3   OH223733   0.160   2.317   7.530 -0.5692 -0.1220 -0.1592
  725TIP3    H123734   0.227   2.251   7.544 -1.0650 -0.3942  1.0933
  725TIP3    H223735   0.103   2.310   7.607 -0.6235  1.7730  0.0222
  726TIP3   OH223736   2.308   0.197   7.887 -0.3267 -0.1103  0.5919
  726TIP3    H123737   2.313   0.198   7.792  1.5898  0.4912  0.6593
  726TIP3    H223738   2.221   0.232   7.907 -0.2074  1.1464 -0.9256
  727TIP3   OH223739   6.680   5.655   1.001 -0.4160 -0.1439 -0.1988
  727TIP3    H123740   6.632   5.622   0.925 -0.8171 -1.0523  0.4333
  727TIP3    H223741   6.764   5.684   0.966 -1.2870  1.1928 -1.2784
  728TIP3   OH223742   3.546   2.383   0.917  0.1958 -0.3493  0.1697
  728TIP3    H123743   3.637   2.358   0.901 -0.2206 -2.3305  0.6967
  728TIP3    H223744   3.494   2.307   0.889 -1.4183  1.1590 -1.2187
  729TIP3   OH223745   3.862   4.739   7.548 -0.3140  0.8759  0.1388
  729TIP3    H123746   3.935   4.800   7.547 -0.5641  1.1833 -1.2863
  729TIP3    H223747   3.789   4.787   7.509 -0.5075 -0.3206 -1.0529
  730TIP3   OH223748   6.241   6.231   7.458  0.5248 -0.0512  0.4556
  730TIP3    H123749   6.303   6.254   7.389 -0.3966  1.3068  0.0541
  730TIP3    H223750   6.192   6.311   7.476 -1.3168 -1.1259  0.5586
  731TIP3   OH223751   1.227   0.854   1.412  0.1484  0.4018 -0.3320
  731TIP3    H123752   1.169   0.779   1.425 -0.2408  0.7764  0.1120
  731TIP3    H223753   1.314   0.815   1.398 -0.1695 -0.1514 -0.7800
  732TIP3   OH223754   5.474   3.930   0.651 -0.0092  0.2917 -0.0555
  732TIP3    H123755   5.488   3.871   0.577  0.9366  2.0385 -1.3624
  732TIP3    H223756   5.379   3.937   0.659 -0.2940 -3.2647  1.8047
  733TIP3   OH223757   1.987   1.617   8.421 -0.2723  1.1996  0.0221
  733TIP3    H123758   2.073   1.630   8.382  0.3821 -0.8468  0.6964
  733TIP3    H223759   1.927   1.618   8.346  0.6554  0.0427 -0.7774
  734TIP3   OH223760   1.428   6.274   0.719  0.2989 -0.0158  0.0126
  734TIP3    H123761   1.363   6.342   0.739 -0.0331 -0.2886 -0.1174
  734TIP3    H223762   1.512   6.319   0.725  0.0150  0.7939 -1.6030
  735TIP3   OH223763   2.919   4.358   2.019  0.1608  0.3011 -0.0814
  735TIP3    H123764   2.852   4.388   2.080  0.5943  0.1697  0.4685
  735TIP3    H223765   2.971   4.296   2.069  1.3386  1.1835 -0.1643
  736TIP3   OH223766   2.588   1.285   1.002 -0.3097  0.5450  0.0367
  736TIP3    H123767   2.550   1.261   0.918 -2.4577  1.1591  0.7724
  736TIP3    H223768   2.524   1.343   1.042  1.5411  1.8101  1.3101
  737TIP3   OH223769   3.939   6.085   1.058  0.2957  0.7004 -0.5280
  737TIP3    H123770   3.969   6.080   0.967 -2.4813  2.2513 -1.6581
  737TIP3    H223771   3.859   6.031   1.060  0.5725  0.3062  1.1287
  738TIP3   OH223772   4.095   2.817   1.385  0.3148 -0.0344  0.4472
  738TIP3    H123773   4.080   2.911   1.369 -0.8211  0.0797  2.0058
  738TIP3    H223774   4.017   2.774   1.349  0.9143 -0.4228 -0.4226
  739TIP3   OH223775   0.215   5.362   0.970  0.2554 -0.1152 -0.2695
  739TIP3    H123776   0.133   5.333   1.010  1.2905 -1.4401  1.0518
  739TIP3    H223777   0.240   5.439   1.021  0.3765 -0.3829  0.0840
  740TIP3   OH223778   2.521   6.388   0.759  0.3124  0.4525  0.1491
  740TIP3    H123779   2.453   6.359   0.820  1.6968 -1.9604  0.7166
  740TIP3    H223780   2.578   6.443   0.811 -0.1291  0.8657  0.2027
  741TIP3   OH223781   0.864   3.927   2.704 -0.1139 -0.8950  0.4377
  741TIP3    H123782   0.960   3.923   2.702  0.0915  1.6442  1.3280
  741TIP3    H223783   0.841   3.972   2.623 -0.5140 -1.1459  0.4126
  742TIP3   OH223784   3.225   3.143   0.412 -0.5205  0.2284  0.6738
  742TIP3    H123785   3.204   3.237   0.412  1.5150  0.7287  1.2003
  742TIP3    H223786   3.320   3.140   0.414 -0.5452 -1.8790  0.4887
  743TIP3   OH223787   0.394   6.034   7.502  0.4877  0.1548 -0.2204
  743TIP3    H123788   0.443   6.009   7.580  0.1887 -2.4368 -0.7887
  743TIP3    H223789   0.352   6.117   7.526  3.6578  1.6035  0.8653
  744TIP3   OH223790   6.780   2.301   0.901  0.4792 -0.6867  0.2934
  744TIP3    H123791   6.867   2.302   0.860  0.2826  1.2412 -0.1963
  744TIP3    H223792   6.738   2.381   0.869 -0.1426  0.3261  3.2971
  745TIP3   OH223793   2.777   5.787   7.999  0.1376  0.1156 -0.0189
  745TIP3    H123794   2.813   5.726   8.063 -0.2021 -0.1578 -0.0871
  745TIP3    H223795   2.854   5.825   7.956  0.4081  1.0503  1.2227
  746TIP3   OH223796   5.462   5.467   1.612 -0.0482  0.0596  0.1635
  746TIP3    H123797   5.407   5.463   1.691 -0.2165  2.3371  0.2185
  746TIP3    H223798   5.536   5.409   1.632 -0.2396  0.3452  1.8820
  747TIP3   OH223799   1.578   2.320   2.421  0.0607 -0.1469 -0.2591
  747TIP3    H123800   1.510   2.383   2.446  3.3158  3.0472  1.5231
  747TIP3    H223801   1.594   2.270   2.501  1.3981  0.8454  0.1272
  748TIP3   OH223802   1.709   6.032   2.642 -0.3683 -0.1655 -0.0418
  748TIP3    H123803   1.622   6.019   2.680 -0.6728 -1.5292 -1.1177
  748TIP3    H223804   1.693   6.086   2.564 -0.6155 -2.1743 -1.4579
  749TIP3   OH223805   1.282   2.087   2.202  0.0562  0.1256  0.0287
  749TIP3    H123806   1.332   2.014   2.167  2.1170  2.3893 -2.0818
  749TIP3    H223807   1.313   2.097   2.292  2.4058  0.5316 -0.7677
  750TIP3   OH223808   5.936   0.596   1.600  0.3056 -0.1782 -0.5750
  750TIP3    H123809   5.932   0.671   1.659  0.3207 -0.9099  0.3800
  750TIP3    H223810   5.846   0.565   1.594  0.2607  0.0498 -1.1573
  751TIP3   OH223811   4.820   5.314   1.781  0.3498 -0.0337  0.1301
  751TIP3    H123812   4.875   5.385   1.814  1.1104  0.5551 -2.1826
  751TIP3    H223813   4.881   5.256   1.736 -0.6424 -0.5696 -0.5618
  752TIP3   OH223814   3.881   0.974   8.374 -0.0342  0.0606  0.4965
  752TIP3    H123815   3.799   1.019   8.393  0.9550  1.5208  1.5024
  752TIP3    H223816   3.910   0.942   8.460  0.0558 -1.1757  0.0219
  753TIP3   OH223817   5.686   2.167   2.199 -0.4741 -0.1578 -0.4967
  753TIP3    H123818   5.610   2.181   2.254  0.4630  0.5005  0.6621
  753TIP3    H223819   5.667   2.086   2.152 -1.4276 -0.5728  0.5706
  754TIP3   OH223820   2.007   0.372   2.343 -0.4748 -0.1851 -0.0698
  754TIP3    H123821   2.094   0.345   2.373 -0.9573 -1.6163  0.1361
  754TIP3    H223822   1.961   0.396   2.423 -0.3816  0.2383 -0.1424
  755TIP3   OH223823   4.072   3.768   0.059  0.2580 -0.2487  0.4352
  755TIP3    H123824   4.153   3.734   0.095  0.4607 -1.1405 -0.7954
  755TIP3    H223825   4.086   3.766  -0.036 -0.7926  0.6207  0.2496
  756TIP3   OH223826   2.814   6.549   1.492 -0.0020  0.1673  0.2467
  756TIP3    H123827   2.871   6.623   1.513  0.4305 -0.0008 -0.3110
  756TIP3    H223828   2.739   6.589   1.448 -0.1312  0.3520  0.6325
  757TIP3   OH223829   2.090   5.073   2.043  0.5072  0.4397 -0.6788
  757TIP3    H123830   2.146   5.000   2.019  0.2341  0.4593 -1.4136
  757TIP3    H223831   2.103   5.085   2.137 -1.0334 -1.9445 -0.0710
  758TIP3   OH223832   1.277   3.763   1.870  0.3673 -0.2065 -0.8306
  758TIP3    H123833   1.325   3.700   1.924  2.2743  1.1864 -0.8271
  758TIP3    H223834   1.341   3.830   1.848 -1.3041  1.1483 -1.8105
  759TIP3   OH223835   4.166   6.491   3.047  0.3317 -0.1246 -0.1003
  759TIP3    H123836   4.110   6.542   2.988 -2.8709 -2.7473  0.4117
  759TIP3    H223837   4.174   6.545   3.125 -1.1640  0.5085 -0.3590
  760TIP3   OH223838   1.041   2.369   2.052  0.1157  0.1886 -0.5406
  760TIP3    H123839   1.037   2.343   1.959  2.2254  0.1640 -0.6680
  760TIP3    H223840   1.003   2.457   2.054 -2.0882 -0.6867 -1.0065
  761TIP3   OH223841   4.154   0.964   0.939 -0.4495 -0.1269 -0.0195
  761TIP3    H123842   4.140   0.882   0.893  0.6352  0.2793 -1.1239
  761TIP3    H223843   4.150   0.941   1.032 -1.3174 -1.1999 -0.3083
  762TIP3   OH223844   5.170   4.173   0.105  0.0764  0.3632 -0.0345
  762TIP3    H123845   5.206   4.088   0.130 -0.8152  0.5837  2.1978
  762TIP3    H223846   5.114   4.155   0.030 -0.0410 -1.0058  0.3649
  763TIP3   OH223847   1.082   3.577   0.933 -0.5385  0.2260  0.5076
  763TIP3    H123848   1.101   3.671   0.937 -0.6608  0.3136 -0.4828
  763TIP3    H223849   1.152   3.541   0.877  0.4875 -0.5750  2.2175
  764TIP3   OH223850   0.548   0.058   7.635 -0.2093 -0.0098 -0.3986
  764TIP3    H123851   0.594   0.086   7.714  2.0992 -2.1918 -0.8327
  764TIP3    H223852   0.534   0.139   7.586  1.2851  1.0319  0.7837
  765TIP3   OH223853   0.336   2.099   1.403 -0.1001  0.7957  0.4805
  765TIP3    H123854   0.241   2.104   1.415 -0.1449 -0.1162  0.6052
  765TIP3    H223855   0.372   2.163   1.464 -0.6561  1.5146  0.0643
  766TIP3   OH223856   0.077   1.100   8.497 -0.2084 -0.0292 -0.3735
  766TIP3    H123857   0.048   1.025   8.549  0.1889  1.1433  1.6725
  766TIP3    H223858   0.169   1.082   8.479 -0.0792  0.0124  0.2235
  767TIP3   OH223859   5.381   4.496   0.781  0.0203 -0.1484 -0.1090
  767TIP3    H123860   5.460   4.533   0.742 -0.7017 -0.3031 -1.8137
  767TIP3    H223861   5.360   4.422   0.725 -0.2587 -1.3058  1.4796
  768TIP3   OH223862   4.091   1.044   8.235  0.3221  0.3340  0.5278
  768TIP3    H123863   4.160   1.082   8.289 -0.5530  0.6010  1.5015
  768TIP3    H223864   4.015   1.039   8.293 -0.5942  0.4058 -0.6134
  769TIP3   OH223865   2.651   0.609   1.476  0.3601  0.0540 -0.3465
  769TIP3    H123866   2.680   0.692   1.439 -0.0291  0.5846  0.5320
  769TIP3    H223867   2.580   0.581   1.418  0.5923  0.2502 -0.7323
  770TIP3   OH223868   4.056   0.248   0.763 -0.8389 -0.0618  0.2224
  770TIP3    H123869   4.066   0.184   0.833 -0.7266  1.2326  1.4429
  770TIP3    H223870   4.138   0.243   0.714  0.1710  0.7552  1.7370
  771TIP3   OH223871   0.043   3.444   8.600 -0.2531 -0.5421  0.3879
  771TIP3    H123872   0.054   3.496   8.680  2.5458 -1.7612  0.9090
  771TIP3    H223873   0.066   3.505   8.530 -3.1126  0.6582  0.3495
  772TIP3   OH223874   1.093   6.045   8.423  0.3195  0.0379  0.3736
  772TIP3    H123875   1.018   6.104   8.420  0.3696  0.1327  0.8947
  772TIP3    H223876   1.066   5.976   8.484 -0.0036 -0.8542 -0.7361
  773TIP3   OH223877   3.338   2.613   1.975  0.2378  0.0947  0.5555
  773TIP3    H123878   3.338   2.707   1.991 -0.2704 -0.2390  2.9170
  773TIP3    H223879   3.404   2.578   2.035  0.1979 -1.0931 -0.0563
  774TIP3   OH223880   0.247   1.515   0.265 -0.7965  0.3502  0.6446
  774TIP3    H123881   0.235   1.542   0.174 -0.2473  2.4653  1.1410
  774TIP3    H223882   0.209   1.427   0.269 -1.2524  0.3885 -1.5017
  775TIP3   OH223883   5.211   6.332   2.024  0.4270 -0.0986 -0.4719
  775TIP3    H123884   5.254   6.355   2.107 -0.5008  1.5934 -0.4219
  775TIP3    H223885   5.136   6.278   2.051  1.7513 -2.0382 -0.4738
  776TIP3   OH223886   4.793   3.000   1.435  0.4080 -0.2083  0.2159
  776TIP3    H123887   4.726   2.987   1.368 -0.3446 -0.5269  1.0045
  776TIP3    H223888   4.787   2.922   1.491  4.0023 -2.1907 -1.7736
  777TIP3   OH223889   2.560   4.529   1.241 -0.2133 -0.2344 -0.2996
  777TIP3    H123890   2.591   4.568   1.160 -0.4152  1.3997  0.3680
  777TIP3    H223891   2.638   4.516   1.294 -0.3717  2.0130  0.5933
  778TIP3   OH223892   4.273   6.749   8.671 -0.2256  0.2859 -0.2643
  778TIP3    H123893   4.296   6.681   8.734  1.5256  1.8905  0.9557
  778TIP3    H223894   4.179   6.762   8.683 -0.3828 -1.1566  0.2361
  779TIP3   OH223895   4.801   5.404   7.551  0.0388 -0.3283 -0.4300
  779TIP3    H123896   4.760   5.432   7.632  2.8360 -0.0898  1.0177
  779TIP3    H223897   4.736   5.347   7.509 -0.9703 -1.6670  2.6814
  780TIP3   OH223898   6.756   3.398   8.179 -1.2890 -0.3924  0.5560
  780TIP3    H123899   6.731   3.401   8.271 -0.5060 -2.8372  0.9164
  780TIP3    H223900   6.801   3.482   8.164 -1.6515  0.1621  2.3052
  781TIP3   OH223901   0.995   4.621   6.923 -0.5627 -0.2228  0.4100
  781TIP3    H123902   1.042   4.679   6.862  0.3974 -0.4251  0.9367
  781TIP3    H223903   0.999   4.535   6.882 -1.2149 -0.0976  0.0592
  782TIP3   OH223904   3.787   2.516   7.521 -0.9006 -0.0370 -0.3815
  782TIP3    H123905   3.846   2.524   7.596 -1.0229  1.1653 -0.3871
  782TIP3    H223906   3.783   2.605   7.485 -1.2149 -0.5040 -1.5277
  783TIP3   OH223907   4.986   3.121   1.268 -1.0344  0.0407 -0.3683
  783TIP3    H123908   4.988   3.215   1.286 -0.1436 -0.2369  1.1486
  783TIP3    H223909   4.942   3.083   1.345 -0.2372 -0.8979 -0.3598
  784TIP3   OH223910   6.008   0.872   1.323 -0.4863  0.0422 -0.4994
  784TIP3    H123911   5.937   0.919   1.367 -1.0976  0.7176 -2.1242
  784TIP3    H223912   6.047   0.936   1.265 -0.2177 -1.0039 -1.5120
  785TIP3   OH223913   2.150   2.267   7.921 -0.0084  0.5551 -0.0996
  785TIP3    H123914   2.065   2.226   7.934  1.2186 -1.7397  1.7088
  785TIP3    H223915   2.132   2.351   7.881 -3.1301  0.3160  0.6049
  786TIP3   OH223916   1.275   6.443   1.200  0.0955 -0.3953 -0.2737
  786TIP3    H123917   1.326   6.464   1.279 -2.1328  0.0602  1.1287
  786TIP3    H223918   1.253   6.350   1.210 -1.2425 -0.0374  0.3280
  787TIP3   OH223919   2.847   5.299   1.027  0.5653 -0.3597 -0.6713
  787TIP3    H123920   2.855   5.288   1.122 -0.2559  1.1166 -0.3903
  787TIP3    H223921   2.876   5.216   0.991 -0.0553 -1.3202  0.9200
  788TIP3   OH223922   0.774   1.158   7.496 -0.0051 -0.3197 -0.1129
  788TIP3    H123923   0.774   1.088   7.430  1.5098 -0.3222 -0.1396
  788TIP3    H223924   0.813   1.118   7.574  1.8965  0.7335 -0.4552
  789TIP3   OH223925   2.704   3.291   2.063  0.0657 -0.0506  0.2761
  789TIP3    H123926   2.757   3.337   1.999 -0.2734 -0.6897 -0.4762
  789TIP3    H223927   2.768   3.256   2.126  0.4805 -0.2431 -0.2460
  790TIP3   OH223928   5.653   2.464   2.295  0.6267  0.2266  0.1330
  790TIP3    H123929   5.568   2.462   2.251  1.4200  0.1226 -1.4793
  790TIP3    H223930   5.632   2.457   2.388 -1.2405  2.0594 -0.0655
  791TIP3   OH223931   3.864   0.200   7.705 -0.6928  0.3634  0.0308
  791TIP3    H123932   3.836   0.289   7.727 -0.4106  0.3807  0.3305
  791TIP3    H223933   3.901   0.208   7.617 -1.6956  0.3195 -0.4023
  792TIP3   OH223934   0.049   3.732   8.531  0.7981 -0.2946 -0.0472
  792TIP3    H123935   0.131   3.765   8.567 -0.4119  1.5844  1.1448
  792TIP3    H223936  -0.010   3.724   8.606 -0.3182 -0.9835 -0.9458
  793TIP3   OH223937   3.634   4.276   0.188  0.0317  0.0328  0.2562
  793TIP3    H123938   3.610   4.184   0.196 -0.9995  0.4000  1.7683
  793TIP3    H223939   3.609   4.299   0.098  1.2399 -1.3865 -0.4849
  794TIP3   OH223940   0.273   3.725   0.375 -0.1928  0.1182  0.2652
  794TIP3    H123941   0.286   3.764   0.289  0.3713  1.1051  0.7796
  794TIP3    H223942   0.221   3.646   0.358 -1.3952  1.0887 -0.8032
  795TIP3   OH223943   1.061   3.611   8.135 -0.0726  0.3572 -0.4764
  795TIP3    H123944   1.069   3.516   8.142 -1.0278  0.2587 -0.5510
  795TIP3    H223945   1.002   3.625   8.062 -0.4104  0.9914 -0.0945
  796TIP3   OH223946   0.838   6.414   1.716 -0.2369 -0.2187 -0.2136
  796TIP3    H123947   0.812   6.327   1.687 -1.2157  0.2259 -0.7300
  796TIP3    H223948   0.779   6.474   1.669  1.8430  0.8895 -1.5927
  797TIP3   OH223949   6.276   6.148   2.031  0.4275 -0.0932  0.1138
  797TIP3    H123950   6.276   6.242   2.012  1.3639 -0.1659 -0.2651
  797TIP3    H223951   6.195   6.134   2.080  0.6055  1.0262  0.7584
  798TIP3   OH223952   1.264   4.064   1.916 -0.4671  0.1060  0.0011
  798TIP3    H123953   1.338   4.030   1.865  0.6782  1.0151  0.9844
  798TIP3    H223954   1.305   4.118   1.983 -1.9176 -1.1193  1.9687
  799TIP3   OH223955   2.151   6.098   1.814 -0.0595  0.3945 -0.4900
  799TIP3    H123956   2.183   6.007   1.811  0.2593  0.3774  1.8843
  799TIP3    H223957   2.175   6.129   1.901  0.0020  2.8566 -1.3217
  800TIP3   OH223958   2.986   5.046   7.353  0.0930 -0.0197 -0.8286
  800TIP3    H123959   2.986   5.035   7.258  1.0495 -0.8702 -0.7420
  800TIP3    H223960   3.052   5.113   7.370  1.6312 -1.5398 -0.6126
  801TIP3   OH223961   4.064   6.282   7.580  0.1022  0.3399 -0.0618
  801TIP3    H123962   4.071   6.190   7.553 -1.1883  0.4383 -0.8185
  801TIP3    H223963   4.032   6.278   7.670  1.2057  0.0448  0.3313
  802TIP3   OH223964   1.526   3.543   8.653  0.2405 -0.0587 -0.0293
  802TIP3    H123965   1.503   3.635   8.642  0.2022 -0.0084  0.4622
  802TIP3    H223966   1.487   3.518   8.736  0.7553 -0.3624  0.1267
  803TIP3   OH223967   4.044   1.385   1.555  0.0533  0.1686  0.4051
  803TIP3    H123968   4.016   1.399   1.465  0.9018 -0.3926  0.0437
  803TIP3    H223969   4.137   1.408   1.556  0.3416 -0.9413  0.8522
  804TIP3   OH223970   5.151   0.498   1.170  0.2271 -0.5278 -0.0781
  804TIP3    H123971   5.143   0.592   1.154 -0.1755 -0.6660 -0.6817
  804TIP3    H223972   5.078   0.477   1.228 -0.2171 -0.6360 -0.6715
  805TIP3   OH223973   3.934   2.736   0.177 -0.7913  0.3041 -0.1549
  805TIP3    H123974   3.962   2.793   0.105 -2.2172  0.8534 -0.3167
  805TIP3    H223975   4.004   2.744   0.242 -0.4824  1.4800 -0.5945
  806TIP3   OH223976   0.572   5.671   7.509  0.0990  0.0962 -0.4844
  806TIP3    H123977   0.482   5.699   7.524  0.0587  0.3458 -1.1689
  806TIP3    H223978   0.605   5.730   7.441  0.7172 -0.1169 -0.3770
  807TIP3   OH223979   0.774   5.847   8.361  0.0422 -0.0585 -0.3979
  807TIP3    H123980   0.844   5.794   8.322 -0.3523 -0.2969 -0.7887
  807TIP3    H223981   0.803   5.862   8.451  0.7101  0.0472 -0.6232
  808TIP3   OH223982   1.580   0.987   1.747 -0.0190 -0.5030  0.0854
  808TIP3    H123983   1.529   0.925   1.801 -0.5099 -0.4897 -0.3535
  808TIP3    H223984   1.532   0.991   1.664 -0.7921  1.5287  0.5854
  809TIP3   OH223985   1.923   0.114   7.618  0.0094 -0.2688 -0.2130
  809TIP3    H123986   1.933   0.199   7.662  1.5611 -0.6088  0.1289
  809TIP3    H223987   1.952   0.050   7.683 -2.2988 -1.2174 -0.0195
  810TIP3   OH223988   2.814   5.472   2.719 -0.5285 -0.0641  0.9414
  810TIP3    H123989   2.722   5.499   2.717 -0.6357 -0.4037  1.2849
  810TIP3    H223990   2.838   5.464   2.626 -0.7872  0.2036  0.8477
  811TIP3   OH223991   3.416   6.495   1.325  0.1180  0.3831 -0.3968
  811TIP3    H123992   3.507   6.509   1.301  0.4873  0.3213  0.8928
  811TIP3    H223993   3.366   6.552   1.267  1.1304  1.9970  0.2518
  812TIP3   OH223994   4.281   1.236   1.290 -1.0497  0.4400 -0.3652
  812TIP3    H123995   4.306   1.266   1.378 -1.6341  1.0010 -0.3840
  812TIP3    H223996   4.363   1.233   1.241 -0.7072  0.0401  0.2233
  813TIP3   OH223997   0.650   2.755   0.531 -0.5748  0.2783 -0.0883
  813TIP3    H123998   0.646   2.843   0.567 -0.6657 -0.4058  1.6600
  813TIP3    H223999   0.560   2.722   0.537  0.1862 -1.6866  4.1180
  814TIP3   OH224000   4.373   3.276   0.503  0.1581  0.2464  0.4252
  814TIP3    H124001   4.408   3.254   0.589  0.3364 -1.4266 -0.0452
  814TIP3    H224002   4.439   3.242   0.442  0.9623  3.0004 -0.3961
  815TIP3   OH224003   2.066   2.522   7.766  0.4763  0.6409  0.4311
  815TIP3    H124004   2.045   2.595   7.708 -0.4351  0.0621  0.0054
  815TIP3    H224005   2.115   2.561   7.838 -1.0384  1.8914  0.8450
  816TIP3   OH224006   4.540   4.269   0.909  0.4036 -0.8149  0.0702
  816TIP3    H124007   4.584   4.184   0.911  2.0053 -0.0498 -0.8373
  816TIP3    H224008   4.539   4.297   1.001  3.3545 -0.1514 -0.0061
  817TIP3   OH224009   6.738   5.774   7.094 -0.1250 -0.0777 -0.5896
  817TIP3    H124010   6.695   5.764   7.180  0.1041 -0.7031 -0.5385
  817TIP3    H224011   6.670   5.808   7.037  0.0707  1.6124  0.1463
  818TIP3   OH224012   5.183   1.053   1.962 -1.0556 -0.5788  1.2534
  818TIP3    H124013   5.121   0.992   1.922 -2.0912  0.1318  1.7240
  818TIP3    H224014   5.199   1.119   1.895  0.0341 -1.3231  0.7583
  819TIP3   OH224015   0.725   2.738   0.977  0.4666  0.3242  0.3738
  819TIP3    H124016   0.674   2.700   1.049  2.4196 -1.8251  0.7640
  819TIP3    H224017   0.709   2.832   0.983 -3.6320 -0.1529  0.2401
  820TIP3   OH224018   3.780   0.847   8.093 -0.8640  0.2664 -0.3524
  820TIP3    H124019   3.765   0.919   8.031 -0.9054 -1.3388 -2.2746
  820TIP3    H224020   3.820   0.890   8.169  1.2857  2.0623 -2.3324
  821TIP3   OH224021   6.642   1.276   1.342  1.3324  0.0980 -0.0263
  821TIP3    H124022   6.600   1.190   1.342  2.0844 -0.2750  0.1936
  821TIP3    H224023   6.662   1.293   1.250  2.0532 -0.4013  0.0304
  822TIP3   OH224024   0.724   6.078   7.827 -0.4617 -0.1942  0.1412
  822TIP3    H124025   0.704   6.007   7.766 -3.1813  0.5380  0.0543
  822TIP3    H224026   0.655   6.143   7.812  0.2116  1.1218  2.2878
  823TIP3   OH224027   2.027   2.313   2.796 -0.3016  0.3093  0.5771
  823TIP3    H124028   2.001   2.401   2.823 -0.1538  0.0139  1.7308
  823TIP3    H224029   2.000   2.257   2.869 -1.0485 -0.7126 -0.4405
  824TIP3   OH224030   2.837   2.962   1.427 -0.0704 -0.1611 -0.6917
  824TIP3    H124031   2.801   2.881   1.390  0.2004 -0.0766 -1.1469
  824TIP3    H224032   2.777   3.030   1.396 -0.9220 -0.3004  0.5782
  825TIP3   OH224033   2.308   1.834   0.137  0.0015  0.0425  0.0971
  825TIP3    H124034   2.398   1.844   0.106  0.2176 -0.9016  0.3728
  825TIP3    H224035   2.266   1.917   0.115  1.5409  1.4626  2.1010
  826TIP3   OH224036   2.219   2.136   7.634  0.2252 -0.0547 -0.1128
  826TIP3    H124037   2.135   2.095   7.611 -0.2478 -0.2095  1.7398
  826TIP3    H224038   2.259   2.157   7.549 -1.0137 -1.3063 -1.0619
  827TIP3   OH224039   2.306   0.633   0.760  0.0107  0.1733 -0.0983
  827TIP3    H124040   2.340   0.612   0.673  1.7416 -0.1910  0.6080
  827TIP3    H224041   2.211   0.629   0.751  0.1584 -0.2244 -1.8715
  828TIP3   OH224042   3.508   6.096   2.051 -0.0415 -0.4886  0.7016
  828TIP3    H124043   3.427   6.121   2.007 -1.0148 -0.3188  2.4907
  828TIP3    H224044   3.556   6.178   2.062  0.5434 -0.6256 -0.6013
  829TIP3   OH224045   5.428   3.829   7.571  0.1648 -0.4571 -0.2965
  829TIP3    H124046   5.469   3.774   7.505 -1.1828  0.2467 -1.7678
  829TIP3    H224047   5.377   3.892   7.522 -0.2225  0.6234  1.4114
  830TIP3   OH224048   4.423   4.479   6.830  0.8214  0.2398 -0.3322
  830TIP3    H124049   4.383   4.396   6.805  0.1936  0.1796  0.7867
  830TIP3    H224050   4.453   4.465   6.920  3.0868  0.4042 -1.0024
  831TIP3   OH224051   2.723   1.688   1.271  0.0565 -0.2735 -0.3867
  831TIP3    H124052   2.740   1.659   1.181  0.9028  0.3412 -0.4388
  831TIP3    H224053   2.657   1.756   1.262  0.3907  0.0296 -0.5872
  832TIP3   OH224054   0.962   5.107   1.422  0.4165  0.1468 -0.1354
  832TIP3    H124055   0.985   5.017   1.446 -0.0846  0.3227  1.0730
  832TIP3    H224056   0.878   5.099   1.377  1.3763 -0.1892 -1.9752
  833TIP3   OH224057   2.301   2.720   8.796 -0.1144 -0.2112 -0.3314
  833TIP3    H124058   2.380   2.744   8.843  1.0426 -1.0750 -1.7513
  833TIP3    H224059   2.282   2.796   8.741 -1.3278  0.6990  1.2455
  834TIP3   OH224060   6.223   2.230   0.129  0.3965  0.2045 -0.2387
  834TIP3    H124061   6.244   2.147   0.172 -2.1525 -0.3840 -0.0144
  834TIP3    H224062   6.144   2.212   0.078  0.2151  2.3153 -0.8109
  835TIP3   OH224063   1.009   6.619   7.922 -0.3933 -0.3316 -0.0790
  835TIP3    H124064   0.979   6.530   7.939  0.3829 -0.8861 -1.4818
  835TIP3    H224065   1.011   6.627   7.827 -0.5796  1.2454  0.0121
  836TIP3   OH224066   3.658   6.779   0.055 -0.1137  0.5372 -0.4535
  836TIP3    H124067   3.642   6.704  -0.003  2.0552 -0.8319  0.6118
  836TIP3    H224068   3.666   6.853  -0.005  0.5512 -0.5687 -1.8082
  837TIP3   OH224069   3.188   0.383   1.462  0.5255 -0.4725  0.6972
  837TIP3    H124070   3.190   0.292   1.494  0.0083  0.1218  2.5538
  837TIP3    H224071   3.169   0.435   1.540  0.8154  1.2491 -0.3352
  838TIP3   OH224072   1.523   1.507   0.376  0.0886  0.0489  0.4894
  838TIP3    H124073   1.568   1.589   0.393 -0.2922  0.5917 -0.9000
  838TIP3    H224074   1.531   1.495   0.281 -0.4801 -1.1503  0.5707
  839TIP3   OH224075   2.391   4.381   2.362 -0.5308  0.4420  0.1346
  839TIP3    H124076   2.296   4.381   2.350 -0.6972  0.5522  1.3245
  839TIP3    H224077   2.411   4.292   2.393  0.0921 -0.3492 -2.3092
  840TIP3   OH224078   0.410   1.230   1.497 -0.3352  0.3333  0.4397
  840TIP3    H124079   0.386   1.145   1.532  2.4179 -0.3223  0.9840
  840TIP3    H224080   0.335   1.286   1.516 -1.5924 -1.5799  1.4325
  841TIP3   OH224081   0.187   1.280   7.798 -0.3045 -0.4421  0.4705
  841TIP3    H124082   0.184   1.219   7.871 -0.2297 -0.6470  0.3025
  841TIP3    H224083   0.119   1.345   7.818  1.5593  1.0959  2.1261
  842TIP3   OH224084   2.784   1.497   8.147 -0.2940  0.1873 -0.3677
  842TIP3    H124085   2.753   1.587   8.146  2.6657  1.2962 -0.5848
  842TIP3    H224086   2.758   1.461   8.062 -0.2525  1.2839 -0.8557
  843TIP3   OH224087   5.474   0.653   0.951  0.0327 -0.3022 -0.2040
  843TIP3    H124088   5.447   0.703   1.027  0.2488 -1.1043  0.4188
  843TIP3    H224089   5.395   0.645   0.898 -0.6883 -1.5394  0.9817
  844TIP3   OH224090   5.423   0.407   2.340  0.3772  0.1055 -0.2684
  844TIP3    H124091   5.497   0.466   2.356  0.6138 -0.2579 -0.0171
  844TIP3    H224092   5.438   0.333   2.399 -0.5605  0.3602  0.3100
  845TIP3   OH224093   6.582   1.796   0.987  0.5408 -0.4497 -0.1743
  845TIP3    H124094   6.524   1.824   0.917  0.4011  0.7379  0.3923
  845TIP3    H224095   6.605   1.705   0.965 -0.8114 -0.6467 -0.8690
  846TIP3   OH224096   3.610   6.633   1.085  0.2768  0.0410 -0.0653
  846TIP3    H124097   3.532   6.613   1.032 -1.1514  1.3262  1.4428
  846TIP3    H224098   3.636   6.549   1.121 -1.3562 -0.2307  0.5828
  847TIP3   OH224099   0.984   5.512   0.615  0.1808 -0.1358  0.0885
  847TIP3    H124100   1.020   5.564   0.686 -1.2021  0.7713  0.1616
  847TIP3    H224101   0.898   5.484   0.647 -0.3590  0.0815 -1.1242
  848TIP3   OH224102   0.447   0.905   2.232 -0.1358  0.0223 -0.0265
  848TIP3    H124103   0.455   0.959   2.311 -0.2781  0.7853 -0.5204
  848TIP3    H224104   0.420   0.819   2.264 -0.6984  0.4675  0.7159
  849TIP3   OH224105   1.711   5.473   1.954  0.3148 -0.3584  0.2745
  849TIP3    H124106   1.761   5.422   2.017 -0.5236 -3.1053 -1.1285
  849TIP3    H224107   1.625   5.483   1.994  0.6262  0.4085  0.7627
  850TIP3   OH224108   1.526   3.327   6.777 -0.5884 -0.5459  0.4762
  850TIP3    H124109   1.520   3.391   6.847  2.3529 -2.6549  2.8905
  850TIP3    H224110   1.439   3.286   6.775 -1.8383  1.9091  0.3189
  851TIP3   OH224111   4.977   1.457   0.407  0.2811 -0.3024 -0.1824
  851TIP3    H124112   4.881   1.457   0.409  0.2554 -1.7407 -0.0458
  851TIP3    H224113   5.003   1.482   0.495 -0.0328 -2.0856  0.4648
  852TIP3   OH224114   3.311   5.690   1.016  0.0248  0.9847  0.1075
  852TIP3    H124115   3.361   5.716   1.092  1.9978 -1.7187 -0.1221
  852TIP3    H224116   3.237   5.640   1.051  0.3769  0.6035  0.3187
  853TIP3   OH224117   6.112   1.459   1.732 -0.5746  0.5241  0.7382
  853TIP3    H124118   6.079   1.370   1.745  0.1405  0.3184  1.2170
  853TIP3    H224119   6.207   1.452   1.743 -0.5109  1.3508  0.8435
  854TIP3   OH224120   1.753   3.044   0.312 -0.2876  0.8573  0.0736
  854TIP3    H124121   1.675   2.993   0.334 -0.4470  0.7374 -0.7463
  854TIP3    H224122   1.808   3.038   0.391 -0.6370  0.0559  0.2734
  855TIP3   OH224123   0.443   0.217   8.094 -0.5217 -0.6287 -0.3625
  855TIP3    H124124   0.509   0.228   8.162 -0.7077 -1.2143 -0.0795
  855TIP3    H224125   0.391   0.142   8.123 -1.9636  0.4454 -0.0511
  856TIP3   OH224126   4.429   5.206   1.453 -0.2981  0.0396  0.2242
  856TIP3    H124127   4.444   5.300   1.438  1.5865 -0.1700  0.4925
  856TIP3    H224128   4.439   5.167   1.366  1.0476 -0.1226  0.4329
  857TIP3   OH224129   6.461   0.653   7.869 -0.0194  0.4542  0.0738
  857TIP3    H124130   6.544   0.698   7.887  0.5776 -0.1657 -1.0150
  857TIP3    H224131   6.403   0.723   7.837  1.1990  0.3778 -2.5446
  858TIP3   OH224132   3.031   1.553   2.282 -0.2510  0.4101  0.7403
  858TIP3    H124133   3.013   1.605   2.203  0.7889  1.0138  0.8806
  858TIP3    H224134   2.945   1.543   2.323 -0.6662  0.9346  0.0461
  859TIP3   OH224135   4.653   0.095   0.352 -0.1530 -0.1609  0.7439
  859TIP3    H124136   4.559   0.115   0.350 -0.0530  0.2817  0.0358
  859TIP3    H224137   4.681   0.107   0.261  0.9506  1.4948  1.2646
  860TIP3   OH224138   4.369   4.005   0.782 -0.1786 -0.8852  0.9830
  860TIP3    H124139   4.334   3.922   0.749  1.9717 -1.6192  0.4350
  860TIP3    H224140   4.379   3.992   0.876 -1.3965 -0.6271  1.1672
  861TIP3   OH224141   5.154   0.609   2.049 -0.1585  0.2082 -0.5032
  861TIP3    H124142   5.130   0.674   1.982 -4.5446 -1.5214 -0.9691
  861TIP3    H224143   5.154   0.525   2.003  1.0621 -0.6028  0.8985
  862TIP3   OH224144   4.063   5.721   2.651  0.2045  0.3914  0.1160
  862TIP3    H124145   4.158   5.722   2.640  0.3037 -0.1658  0.8204
  862TIP3    H224146   4.041   5.628   2.658 -0.5699  0.4348 -1.4161
  863TIP3   OH224147   6.013   2.911   8.571  0.1915  0.4353 -0.5036
  863TIP3    H124148   6.094   2.935   8.617 -0.4899 -2.9092  3.0355
  863TIP3    H224149   6.042   2.847   8.506  0.5383 -0.2743  0.3182
  864TIP3   OH224150   0.534   2.608   0.129  0.0280 -0.3890  0.1198
  864TIP3    H124151   0.509   2.556   0.205 -0.9639  1.1077  0.8622
  864TIP3    H224152   0.611   2.657   0.158  1.3199 -1.7691 -0.7629
  865TIP3   OH224153   0.275   2.544   1.936  0.1974  0.6101 -0.1603
  865TIP3    H124154   0.247   2.517   2.023  1.6305  0.6384  0.3292
  865TIP3    H224155   0.200   2.525   1.880 -0.0206 -1.3648  0.7154
  866TIP3   OH224156   1.154   4.677   8.693  0.6846  0.3381  0.2979
  866TIP3    H124157   1.139   4.705   8.603  0.4901  1.1641  0.5744
  866TIP3    H224158   1.206   4.597   8.685  1.5966  0.9886 -0.5286
  867TIP3   OH224159   5.207   0.510   7.080 -0.1582  0.1163 -0.3768
  867TIP3    H124160   5.161   0.426   7.086  0.4708 -0.1747  0.6462
  867TIP3    H224161   5.299   0.487   7.090 -0.0308  0.9862  0.5943
  868TIP3   OH224162   6.465   4.223   0.094 -0.5814  0.5011  0.1650
  868TIP3    H124163   6.426   4.298   0.049  1.4408  1.4187 -0.1894
  868TIP3    H224164   6.542   4.200   0.040  0.5641  0.1303  1.8888
  869TIP3   OH224165   5.026   0.600   8.325  0.7937 -0.5838 -0.0449
  869TIP3    H124166   5.120   0.605   8.306  0.8871 -2.5142 -0.2284
  869TIP3    H224167   4.984   0.632   8.245  1.2955 -1.5868 -0.7331
  870TIP3   OH224168   3.203   4.252   8.330 -0.2221 -0.1989  0.3132
  870TIP3    H124169   3.131   4.215   8.381 -1.7691 -0.0099 -1.6720
  870TIP3    H224170   3.181   4.234   8.239  1.8631  0.5645 -0.4056
  871TIP3   OH224171   4.748   5.578   0.544  0.4237 -0.4212  0.2850
  871TIP3    H124172   4.767   5.652   0.602  2.2414 -0.0519 -0.7003
  871TIP3    H224173   4.824   5.573   0.486 -0.4444 -2.0046 -0.7917
  872TIP3   OH224174   0.335   1.496   1.521  0.2541 -0.5726 -0.5677
  872TIP3    H124175   0.414   1.504   1.469 -0.5048  0.4481 -1.6374
  872TIP3    H224176   0.264   1.523   1.462 -0.6213  0.9577  1.0417
  873TIP3   OH224177   0.835   1.326   7.809  0.2703  0.0800 -0.2549
  873TIP3    H124178   0.850   1.233   7.794  0.1322  0.1008 -0.5289
  873TIP3    H224179   0.781   1.354   7.735  1.4896  0.6799 -0.9451
  874TIP3   OH224180   0.415   1.176   8.249  0.2658 -0.3989 -0.5832
  874TIP3    H124181   0.385   1.142   8.332  0.8807  0.8407  0.1835
  874TIP3    H224182   0.335   1.205   8.204 -0.1712 -1.9988 -0.8962
  875TIP3   OH224183   0.243   6.270   7.684 -0.5414  1.3075  0.2919
  875TIP3    H124184   0.174   6.204   7.695  0.0097  1.0423  2.7571
  875TIP3    H224185   0.247   6.315   7.769  3.4345  0.1683  0.9106
  876TIP3   OH224186   2.300   1.872   6.847 -0.1628 -0.2976 -0.3764
  876TIP3    H124187   2.229   1.932   6.869 -0.3064 -0.1663 -1.1524
  876TIP3    H224188   2.377   1.928   6.837 -0.3165 -0.2206 -1.1921
  877TIP3   OH224189   2.491   1.084   8.476 -0.0915 -0.0577 -0.4736
  877TIP3    H124190   2.475   1.153   8.540 -0.4440  1.8039 -2.4422
  877TIP3    H224191   2.571   1.111   8.431  0.7330 -1.8630 -0.1528
  878TIP3   OH224192   6.742   3.047   0.297 -0.8441 -0.5410 -0.2185
  878TIP3    H124193   6.681   2.976   0.318 -1.2692 -0.6732 -1.7451
  878TIP3    H224194   6.806   3.045   0.367 -2.4361 -0.5846  1.2934
  879TIP3   OH224195   4.404   3.720   7.765 -0.7647  0.0604 -0.0602
  879TIP3    H124196   4.440   3.795   7.718 -1.6915 -0.0133 -0.9322
  879TIP3    H224197   4.436   3.730   7.855 -0.2375  1.0649 -0.3425
  880TIP3   OH224198   2.828   2.821   0.919 -0.4095  0.0122 -0.2388
  880TIP3    H124199   2.774   2.899   0.913  1.5515  1.3931 -1.2475
  880TIP3    H224200   2.838   2.791   0.828  1.1059  0.2803 -0.1959
  881TIP3   OH224201   2.498   4.764   0.480 -0.4473  0.2734  0.0481
  881TIP3    H124202   2.502   4.685   0.426  0.1572  0.5715 -0.3610
  881TIP3    H224203   2.572   4.757   0.539 -1.6484 -0.5046  1.5180
  882TIP3   OH224204   0.435   6.702   8.500 -0.2098 -0.0740 -0.2244
  882TIP3    H124205   0.495   6.677   8.569 -0.6108 -1.5346 -0.3861
  882TIP3    H224206   0.350   6.670   8.528 -0.5009 -0.0797 -1.0718
  883TIP3   OH224207   4.427   2.661   8.448  0.5860  0.1150  0.5054
  883TIP3    H124208   4.520   2.665   8.425  0.9572 -3.8719  0.5175
  883TIP3    H224209   4.383   2.645   8.365 -0.0336  1.2636  0.5998
  884TIP3   OH224210   3.890   2.454   1.676  0.3228  0.2033 -0.5263
  884TIP3    H124211   3.825   2.505   1.724 -0.1689 -0.0832 -0.8649
  884TIP3    H224212   3.893   2.370   1.721  1.7051  0.7671  0.5063
  885TIP3   OH224213   3.652   2.299   1.975  0.0128  0.1135 -0.0520
  885TIP3    H124214   3.615   2.376   2.018 -0.9706 -0.6374  0.4735
  885TIP3    H224215   3.738   2.289   2.014  0.0257  0.7646  0.1020
  886TIP3   OH224216   6.653   2.071   1.100  0.7259 -0.4251 -0.7403
  886TIP3    H124217   6.677   1.981   1.126 -0.5736 -0.0389  2.2521
  886TIP3    H224218   6.639   2.066   1.006  3.3251 -2.7101 -1.1581
  887TIP3   OH224219   1.863   3.667   8.851 -0.3019  0.0721  0.0378
  887TIP3    H124220   1.905   3.742   8.894 -1.7897  1.1313 -0.2402
  887TIP3    H224221   1.877   3.682   8.757 -0.7181  0.0806 -0.0245
  888TIP3   OH224222   5.785   1.354   1.945 -0.2378  0.6525  0.5492
  888TIP3    H124223   5.694   1.337   1.966 -0.3859 -1.8553 -1.6760
  888TIP3    H224224   5.835   1.302   2.008 -0.4071  0.7184  0.7352
  889TIP3   OH224225   6.576   6.446   1.223 -0.1194  0.7497 -0.0027
  889TIP3    H124226   6.586   6.386   1.150  1.4391  2.4721 -1.3085
  889TIP3    H224227   6.482   6.446   1.242 -0.1628 -2.1699  0.2057
  890TIP3   OH224228   5.129   1.998   8.370 -0.0951 -0.1434 -0.5081
  890TIP3    H124229   5.203   2.055   8.391  1.0682 -1.4201 -0.9609
  890TIP3    H224230   5.077   1.994   8.450 -0.4894  1.8917 -0.6046
  891TIP3   OH224231   3.724   4.522   2.805  0.1388  0.0524 -0.5232
  891TIP3    H124232   3.631   4.501   2.795 -0.0317  1.2082 -1.6631
  891TIP3    H224233   3.725   4.613   2.834  0.9106 -0.3931  0.9420
  892TIP3   OH224234   2.976   1.747   0.016 -0.0183  0.6101  0.2866
  892TIP3    H124235   2.883   1.726   0.012  0.1251  0.1809 -1.3012
  892TIP3    H224236   2.979   1.831   0.063 -1.3044  1.1387 -0.5046
  893TIP3   OH224237   1.778   3.271   0.047 -0.4878  0.2135  0.5633
  893TIP3    H124238   1.825   3.353   0.062 -0.9346  0.4866  0.4705
  893TIP3    H224239   1.697   3.280   0.097  0.1793 -0.8324  1.9052
  894TIP3   OH224240   1.631   6.663   3.299  0.4392  0.4004 -0.0824
  894TIP3    H124241   1.541   6.689   3.280  0.2493 -0.2665 -0.1263
  894TIP3    H224242   1.640   6.576   3.260  1.7086  1.2204 -1.8107
  895TIP3   OH224243   6.459   3.959   1.907  0.0323  0.3746  0.0151
  895TIP3    H124244   6.551   3.936   1.902 -0.3146 -1.1078 -0.0284
  895TIP3    H224245   6.454   4.048   1.871  1.3963  0.3937 -0.1631
  896TIP3   OH224246   2.466   2.140   0.156 -0.2135  0.3027 -0.3795
  896TIP3    H124247   2.485   2.136   0.250 -1.1945 -0.0967 -0.1790
  896TIP3    H224248   2.435   2.229   0.141 -2.4937 -0.3032  0.2225
  897TIP3   OH224249   1.947   5.417   8.123 -0.1973  0.2336  0.5577
  897TIP3    H124250   1.910   5.443   8.207  2.5181  0.0819  1.9179
  897TIP3    H224251   1.982   5.329   8.139 -0.3650 -0.1374 -0.9945
  898TIP3   OH224252   3.479   0.208   1.634 -0.0956  0.0675  0.6962
  898TIP3    H124253   3.532   0.186   1.557 -0.4836  0.7581  0.2229
  898TIP3    H224254   3.498   0.301   1.649 -1.2023  0.3313  0.4971
  899TIP3   OH224255   2.398   0.164   1.685  0.0590  0.5834  0.4991
  899TIP3    H124256   2.461   0.182   1.755  0.8592 -1.5409  0.4157
  899TIP3    H224257   2.435   0.088   1.639 -1.6274  0.4679 -0.7608
  900TIP3   OH224258   2.804   4.916   0.570 -0.3672  0.1873  0.4510
  900TIP3    H124259   2.888   4.922   0.615  0.4484 -0.7705 -0.8822
  900TIP3    H224260   2.751   4.859   0.627  0.0822  0.2930  0.9867
  901TIP3   OH224261   5.725   5.721   0.391 -0.4277 -0.3665 -0.0885
  901TIP3    H124262   5.717   5.672   0.309 -1.0145  1.7407 -1.3895
  901TIP3    H224263   5.813   5.701   0.423  0.7031  0.4152 -2.4419
  902TIP3   OH224264   5.278   3.202   0.198 -0.3992  0.0997 -0.2492
  902TIP3    H124265   5.332   3.248   0.263 -0.3062 -0.3481 -0.0087
  902TIP3    H224266   5.260   3.268   0.132  2.1018 -0.2322 -1.3786
  903TIP3   OH224267   1.029   0.640   1.443 -0.1379 -0.7578 -0.1431
  903TIP3    H124268   1.062   0.557   1.479 -0.6061 -0.2859  1.4510
  903TIP3    H224269   1.029   0.700   1.517 -0.7775  0.3945 -1.0399
  904TIP3   OH224270   3.553   3.763   0.575  0.1841 -0.0654  0.0895
  904TIP3    H124271   3.469   3.734   0.541  1.0044 -1.0594 -1.1964
  904TIP3    H224272   3.554   3.858   0.561  0.4196 -0.4088 -2.6102
  905TIP3   OH224273   6.187   3.991   6.846 -0.1310 -0.2927 -0.4697
  905TIP3    H124274   6.197   4.025   6.935 -1.3824  0.9684 -0.7750
  905TIP3    H224275   6.236   4.052   6.792  2.1978 -2.0703 -0.5362
  906TIP3   OH224276   4.277   1.868   8.118  0.8855  0.4666  0.2267
  906TIP3    H124277   4.291   1.804   8.188 -0.5971  1.0011  1.0576
  906TIP3    H224278   4.204   1.832   8.068  0.8095  0.9412 -0.0048
  907TIP3   OH224279   4.872   3.476   7.693 -0.2320  0.2276 -0.2737
  907TIP3    H124280   4.837   3.546   7.748 -0.4077  0.8066 -1.1037
  907TIP3    H224281   4.921   3.420   7.753 -1.6463  0.0154  0.7276
  908TIP3   OH224282   6.465   2.898   1.528  0.5343  0.3465 -0.5315
  908TIP3    H124283   6.548   2.873   1.567  1.0269  1.7429 -0.6184
  908TIP3    H224284   6.473   2.992   1.512 -1.5528  0.8179  0.7424
  909TIP3   OH224285   0.494   0.102   0.511  0.2595 -0.5869 -0.6326
  909TIP3    H124286   0.452   0.085   0.595  1.8728  1.6996  0.7481
  909TIP3    H224287   0.423   0.094   0.446 -1.7558  0.6737  1.2857
  910TIP3   OH224288   2.412   0.350   0.322  0.0170 -0.0580  1.0702
  910TIP3    H124289   2.451   0.298   0.392 -2.5915  0.3312  2.9797
  910TIP3    H224290   2.406   0.438   0.358  2.3367  1.1734 -1.2829
  911TIP3   OH224291   0.990   3.465   1.855 -0.2723  0.0494  0.5011
  911TIP3    H124292   1.030   3.454   1.769  2.0472 -1.1044  1.6433
  911TIP3    H224293   0.923   3.397   1.859  0.2032 -0.4599 -0.0659
  912TIP3   OH224294   6.557   3.472   8.727 -0.1799  0.0364 -0.2239
  912TIP3    H124295   6.632   3.464   8.786 -0.3550 -0.5994 -0.0768
  912TIP3    H224296   6.524   3.383   8.718 -0.4533  0.1994 -0.9021
  913TIP3   OH224297   5.610   1.337   1.491 -0.4437 -0.0268 -0.3990
  913TIP3    H124298   5.559   1.404   1.536 -0.1504 -0.6269  0.8935
  913TIP3    H224299   5.684   1.319   1.549  0.7717  0.1798 -1.8112
  914TIP3   OH224300   5.681   1.249   0.847  0.0810 -0.1054  0.5619
  914TIP3    H124301   5.596   1.279   0.880  0.3372 -0.4514  1.5838
  914TIP3    H224302   5.744   1.282   0.910  0.7964  0.7753 -0.5885
  915TIP3   OH224303   6.653   1.640   8.474 -0.1459  0.1332  0.2297
  915TIP3    H124304   6.592   1.592   8.530 -0.6698 -1.1434 -1.3355
  915TIP3    H224305   6.678   1.717   8.525  0.3862 -1.5642  2.7048
  916TIP3   OH224306   5.160   1.575   0.240  0.1855 -0.1558  0.1511
  916TIP3    H124307   5.144   1.548   0.150  0.8005 -1.4441  0.4065
  916TIP3    H224308   5.086   1.541   0.289  0.4239 -0.4387  0.3126
  917TIP3   OH224309   0.167   4.882   0.776  0.1608 -0.0784 -0.6151
  917TIP3    H124310   0.215   4.881   0.859 -1.5133  1.9053  0.4871
  917TIP3    H224311   0.159   4.790   0.752  2.5070 -0.6038  0.2892
  918TIP3   OH224312   0.730   2.252   7.689  0.1328  0.9419 -0.0523
  918TIP3    H124313   0.787   2.325   7.713 -0.1992  0.7318  1.4208
  918TIP3    H224314   0.685   2.228   7.770  0.0976 -0.7845 -0.5501
  919TIP3   OH224315   4.156   1.320   2.432 -0.4238  0.1511 -0.4314
  919TIP3    H124316   4.109   1.402   2.417 -2.8312 -1.0882 -0.2120
  919TIP3    H224317   4.155   1.276   2.347  0.5136  0.1631 -0.4585
  920TIP3   OH224318   3.031   3.517   2.828  0.1301  0.1151  0.7379
  920TIP3    H124319   2.972   3.446   2.801 -0.3245  0.4613  0.8189
  920TIP3    H224320   3.117   3.476   2.831  0.4498  0.3571 -2.4616
  921TIP3   OH224321   1.452   4.935   1.265 -0.1760 -0.1781  0.2537
  921TIP3    H124322   1.386   4.906   1.203  0.0835  0.9425 -0.5765
  921TIP3    H224323   1.424   5.024   1.289  2.0406  1.1419 -1.6641
  922TIP3   OH224324   5.167   6.583   2.267  0.7438  0.0228 -0.5564
  922TIP3    H124325   5.103   6.643   2.306  1.4808  1.1344 -0.9876
  922TIP3    H224326   5.117   6.528   2.207  0.3221  1.5878 -1.7033
  923TIP3   OH224327   3.042   2.889   1.155 -0.1815 -0.6896  0.2468
  923TIP3    H124328   3.133   2.913   1.175 -0.4565 -1.0629  2.0898
  923TIP3    H224329   2.995   2.972   1.153 -0.0452 -0.5991  0.6827
  924TIP3   OH224330   2.212   4.055   2.149 -0.1010  1.0450 -0.2377
  924TIP3    H124331   2.138   4.112   2.129 -1.0093  0.1377  0.4265
  924TIP3    H224332   2.188   4.013   2.232  1.3238  1.0072  0.1752
  925TIP3   OH224333   0.092   0.882   2.445  0.3299 -0.0632  1.1376
  925TIP3    H124334   0.055   0.931   2.518 -0.9412 -0.9836  1.1497
  925TIP3    H224335   0.132   0.805   2.486 -1.2212 -1.0697  0.8234
  926TIP3   OH224336   2.860   3.570   1.060  0.1543  0.2741  0.2087
  926TIP3    H124337   2.915   3.630   1.109  0.7655 -1.0746  1.2266
  926TIP3    H224338   2.872   3.485   1.102 -1.9041 -0.2840 -0.1781
  927TIP3   OH224339   0.371   3.815   1.229  0.0586  0.1356  0.2996
  927TIP3    H124340   0.371   3.720   1.219 -0.9468  0.1531  0.0407
  927TIP3    H224341   0.399   3.848   1.143 -0.0298  0.0902  0.2543
  928TIP3   OH224342   5.696   6.362   0.758  0.6058 -0.1289  0.2686
  928TIP3    H124343   5.643   6.356   0.837  0.0402  0.1295 -0.0826
  928TIP3    H224344   5.643   6.320   0.690  1.4387 -1.0998  0.1972
  929TIP3   OH224345   6.472   5.565   7.453  0.2620 -0.2238 -0.3421
  929TIP3    H124346   6.532   5.491   7.462  0.5804  0.0074 -0.5430
  929TIP3    H224347   6.473   5.607   7.539  0.7983  0.0858 -0.4960
  930TIP3   OH224348   1.641   1.673   1.467  0.0895  0.1478  0.0302
  930TIP3    H124349   1.691   1.682   1.548  0.6790 -1.3340 -0.1243
  930TIP3    H224350   1.690   1.725   1.403  1.5722 -1.3646 -0.1414
  931TIP3   OH224351   1.426   2.944   1.409  0.1354 -0.1639  0.3106
  931TIP3    H124352   1.519   2.962   1.421  0.3506 -0.1239 -1.1905
  931TIP3    H224353   1.424   2.852   1.381  0.1346  0.7697 -3.2632
  932TIP3   OH224354   2.349   5.275   7.738  0.7244  0.3308 -0.2928
  932TIP3    H124355   2.419   5.337   7.721 -0.2491  1.5678  0.0670
  932TIP3    H224356   2.298   5.273   7.657  1.2666 -0.7129 -0.6231
  933TIP3   OH224357   2.244   0.024   2.952  0.0678  0.3321 -0.0555
  933TIP3    H124358   2.213   0.108   2.919  0.2077  0.5454  0.3458
  933TIP3    H224359   2.189   0.006   3.028 -0.3778 -0.2458 -0.5047
  934TIP3   OH224360   2.854   2.214   2.145 -0.3152 -0.3534 -0.1707
  934TIP3    H124361   2.771   2.237   2.102  0.8253  2.0398 -1.3034
  934TIP3    H224362   2.891   2.145   2.090 -1.0238 -0.6450 -0.2987
  935TIP3   OH224363   1.711   2.837   2.816  0.0435  0.5821  0.1859
  935TIP3    H124364   1.743   2.917   2.775 -1.6571  0.8013 -0.8040
  935TIP3    H224365   1.671   2.788   2.745  1.1287 -1.2226  0.7590
  936TIP3   OH224366   3.367   2.991   8.835 -0.2659 -0.5507 -0.1371
  936TIP3    H124367   3.456   2.981   8.799 -0.4570  0.8979 -1.0974
  936TIP3    H224368   3.309   2.981   8.760 -1.0428 -2.5502  0.6473
  937TIP3   OH224369   1.142   4.499   1.502 -0.0220 -0.1351  0.6058
  937TIP3    H124370   1.063   4.489   1.555 -1.3699  0.0595 -1.2399
  937TIP3    H224371   1.128   4.580   1.454 -0.9313 -2.2465 -3.1187
  938TIP3   OH224372   6.762   4.486   8.222 -0.0589 -0.3572 -0.1821
  938TIP3    H124373   6.704   4.512   8.293 -0.2935 -1.5957  0.1151
  938TIP3    H224374   6.834   4.549   8.225 -1.0771  0.8331 -0.1725
  939TIP3   OH224375   1.756   1.161   8.864  0.2502  0.6096 -0.0596
  939TIP3    H124376   1.806   1.111   8.800  1.0406 -0.4538  1.3328
  939TIP3    H224377   1.724   1.096   8.926  1.8350  1.7785  2.1772
  940TIP3   OH224378   0.291   0.070   7.743  0.0384  0.4498 -0.0643
  940TIP3    H124379   0.370   0.082   7.689 -0.7374  0.3719 -1.2606
  940TIP3    H224380   0.306  -0.013   7.788  0.2042 -0.1099 -1.1025
  941TIP3   OH224381   3.543   2.063   1.823  0.2130  0.3496  0.3400
  941TIP3    H124382   3.602   1.988   1.827 -1.1004 -0.7600 -0.0816
  941TIP3    H224383   3.583   2.129   1.879  0.8834 -1.0591  1.5931
  942TIP3   OH224384   6.746   1.022   7.837 -0.3824 -0.2724  0.5180
  942TIP3    H124385   6.702   1.007   7.921 -0.4255 -0.3385  0.4837
  942TIP3    H224386   6.840   1.015   7.858 -0.4053 -2.4645  0.1716
  943TIP3   OH224387   0.728   1.701   0.702 -0.3074 -0.6435 -0.0383
  943TIP3    H124388   0.698   1.789   0.725 -0.4912 -0.6091 -0.3978
  943TIP3    H224389   0.739   1.657   0.786  0.5646 -0.0275  0.1887
  944TIP3   OH224390   1.031   3.233   0.064  0.0640  0.4034 -0.7402
  944TIP3    H124391   1.084   3.287   0.005 -2.4538  2.2605 -1.5119
  944TIP3    H224392   0.972   3.296   0.107 -1.1242 -1.4362  0.4741
  945TIP3   OH224393   2.139   0.102   0.294  0.2142 -0.1213 -0.2110
  945TIP3    H124394   2.078   0.029   0.291  0.1254 -0.0744  0.3499
  945TIP3    H224395   2.209   0.073   0.352  0.8352 -0.2532 -1.0146
  946TIP3   OH224396   6.401   2.647   2.149 -0.1033  0.0066 -0.1286
  946TIP3    H124397   6.418   2.559   2.185  1.4433  0.1320 -0.4720
  946TIP3    H224398   6.470   2.659   2.084  0.0941  1.7295  0.3691
  947TIP3   OH224399   6.407   0.704   8.632 -0.4163  0.0669 -0.2836
  947TIP3    H124400   6.456   0.703   8.550  0.2164 -2.9850 -0.0242
  947TIP3    H224401   6.322   0.667   8.610 -0.3305 -0.5421  0.3416
  948TIP3   OH224402   3.693   5.089   8.349 -0.1071 -0.4772 -0.6818
  948TIP3    H124403   3.601   5.115   8.351 -0.3952 -1.4704  1.1792
  948TIP3    H224404   3.694   5.003   8.389  1.7853  0.0302  0.4787
  949TIP3   OH224405   5.548   4.538   7.119  0.3469  0.3161 -0.2560
  949TIP3    H124406   5.477   4.523   7.056  0.1460  0.3607 -0.0376
  949TIP3    H224407   5.615   4.475   7.093 -0.3334 -0.7073  0.3988
  950TIP3   OH224408   0.845   5.926   8.616 -0.3683 -0.3296 -0.2234
  950TIP3    H124409   0.845   5.913   8.710  0.2744  0.2124 -0.1352
  950TIP3    H224410   0.858   6.021   8.605 -0.7800 -0.3341 -0.8518
  951TIP3   OH224411   6.157   3.575   8.591  0.5688  0.0600 -0.2523
  951TIP3    H124412   6.147   3.660   8.634  2.9602  1.6339 -2.4946
  951TIP3    H224413   6.181   3.515   8.662 -1.9381  0.9765  1.5058
  952TIP3   OH224414   0.842   0.469   3.424 -0.1920  0.4473 -0.6444
  952TIP3    H124415   0.850   0.406   3.353 -1.3250  0.6885 -1.0085
  952TIP3    H224416   0.750   0.496   3.422  0.3160  2.2999 -0.6566
  953TIP3   OH224417   3.052   4.398   1.058  0.3780 -0.4429  0.2767
  953TIP3    H124418   3.076   4.490   1.045 -0.4501 -0.3362 -0.5630
  953TIP3    H224419   2.958   4.395   1.043  0.2070 -1.2461  1.3693
  954TIP3   OH224420   3.673   3.358   0.820  0.3559 -0.5987 -0.2312
  954TIP3    H124421   3.624   3.277   0.805  1.1865 -1.1809  0.1707
  954TIP3    H224422   3.687   3.394   0.733  0.7375 -1.3382 -0.4825
  955TIP3   OH224423   3.286   2.724   0.948 -0.1258 -0.0409  0.3108
  955TIP3    H124424   3.202   2.679   0.947  0.3903 -1.0315  0.7037
  955TIP3    H224425   3.277   2.790   1.017 -0.5451 -0.2185  0.4277
  956TIP3   OH224426   2.927   1.614   0.772 -0.7352  0.1699 -0.0225
  956TIP3    H124427   3.019   1.629   0.792 -0.4730 -1.6113  0.2834
  956TIP3    H224428   2.885   1.603   0.858 -1.0842  0.2169 -0.1840
  957TIP3   OH224429   4.488   1.013   7.758  0.0137 -0.4323  0.3263
  957TIP3    H124430   4.466   1.081   7.694  1.2367  0.2568  0.5980
  957TIP3    H224431   4.471   0.931   7.712  1.6709  0.0244 -1.2541
  958TIP3   OH224432   3.016   4.771   1.838 -0.9259  0.5948 -0.3722
  958TIP3    H124433   3.063   4.854   1.830  1.6469 -0.6670  0.7307
  958TIP3    H224434   3.019   4.733   1.750  1.4204 -0.0562 -0.0754
  959TIP3   OH224435   0.327   4.592   8.392 -0.0942 -0.0813  0.6969
  959TIP3    H124436   0.253   4.563   8.445  0.9609 -0.6764  1.8997
  959TIP3    H224437   0.289   4.614   8.307 -1.6721 -0.1384  1.3656
  960TIP3   OH224438   3.416   5.378   1.094 -0.0726  0.0891 -0.2077
  960TIP3    H124439   3.432   5.315   1.024 -0.9181  0.2618 -0.5606
  960TIP3    H224440   3.336   5.423   1.069  1.1898  2.2309 -0.6216
  961TIP3   OH224441   6.754   4.032   2.100  0.0849 -0.3865 -0.2069
  961TIP3    H124442   6.822   3.998   2.159 -0.4389  1.2981  1.4796
  961TIP3    H224443   6.780   4.002   2.013  1.1015 -2.6780  0.8066
  962TIP3   OH224444   0.597   4.642   8.394  0.4261 -0.8505 -0.4565
  962TIP3    H124445   0.507   4.621   8.419  0.5975 -1.7156 -0.5361
  962TIP3    H224446   0.649   4.619   8.471  0.3795  1.6540  0.4120
  963TIP3   OH224447   1.231   1.783   8.480 -0.0770  0.1971  0.5672
  963TIP3    H124448   1.159   1.847   8.479  0.7759  1.1857 -0.3135
  963TIP3    H224449   1.211   1.726   8.554 -1.6694  0.5459  0.4583
  964TIP3   OH224450   0.955   0.018   8.736  0.1237  0.4385 -0.3123
  964TIP3    H124451   0.933   0.084   8.802  0.0971 -0.3289  0.4552
  964TIP3    H224452   0.955  -0.065   8.783 -0.0570 -0.1484 -1.3135
  965TIP3   OH224453   6.554   4.200   2.245  0.3880 -0.1214 -0.0463
  965TIP3    H124454   6.581   4.168   2.159  0.4331 -0.6282  0.1522
  965TIP3    H224455   6.604   4.147   2.307 -0.9458 -0.9769  0.3329
  966TIP3   OH224456   2.431   2.629   1.373 -0.9470  0.3685 -0.1237
  966TIP3    H124457   2.380   2.693   1.423  1.4426  1.9240  0.5031
  966TIP3    H224458   2.477   2.682   1.308 -0.7490 -1.0778 -1.1936
  967TIP3   OH224459   5.792   0.030   0.950  0.0548 -0.0431 -0.3952
  967TIP3    H124460   5.702  -0.000   0.958  0.0214 -0.1990 -1.2515
  967TIP3    H224461   5.793   0.115   0.993 -0.0658 -0.8341  1.2212
  968TIP3   OH224462   5.642   4.443   2.196 -0.3269 -0.0804  0.1117
  968TIP3    H124463   5.671   4.394   2.119 -0.2492 -0.6641  0.5007
  968TIP3    H224464   5.556   4.405   2.217 -0.0535 -0.3944  0.7030
  969TIP3   OH224465   4.035   0.140   0.416  0.1212 -0.2335 -0.7544
  969TIP3    H124466   4.068   0.213   0.364 -2.8278 -0.2620 -2.8717
  969TIP3    H224467   4.091   0.066   0.392 -0.3238  0.0821 -2.9525
  970TIP3   OH224468   3.413   5.609   2.155 -0.8083 -0.0971 -0.9504
  970TIP3    H124469   3.497   5.655   2.148  0.0564 -1.2686  0.7218
  970TIP3    H224470   3.419   5.539   2.090  0.5392 -1.5454  0.6278
  971TIP3   OH224471   0.292   5.643   7.997  0.1548 -0.1510  0.6485
  971TIP3    H124472   0.327   5.591   7.925  1.0570  1.0524  0.1806
  971TIP3    H224473   0.210   5.600   8.020 -1.8955  1.1408 -3.2686
  972TIP3   OH224474   1.147   3.991   7.975  0.2293 -0.5980  0.2157
  972TIP3    H124475   1.136   4.033   8.060 -0.5051 -0.8599  0.2580
  972TIP3    H224476   1.058   3.980   7.942  0.5555  1.1769 -1.4313
  973TIP3   OH224477   2.981   3.352   0.110  0.1630  0.1132  0.1608
  973TIP3    H124478   2.892   3.332   0.140  0.3795  0.6366  1.1942
  973TIP3    H224479   3.020   3.400   0.183  1.3888 -0.3660 -0.1687
  974TIP3   OH224480   3.763   2.729   7.054 -0.1945  0.2639 -0.1668
  974TIP3    H124481   3.783   2.806   7.000  1.4536 -0.1876 -0.2559
  974TIP3    H224482   3.719   2.669   6.993  0.1350  0.4294 -0.5797
  975TIP3   OH224483   6.110   3.795   8.375  0.4456  0.3635  0.0055
  975TIP3    H124484   6.047   3.827   8.310  0.0207 -1.4782 -0.5324
  975TIP3    H224485   6.196   3.817   8.338  0.1689  2.2801  0.4190
  976TIP3   OH224486   3.041   4.654   8.730  0.4814 -0.2608  0.6418
  976TIP3    H124487   3.134   4.663   8.747  0.3206  0.0524  1.3925
  976TIP3    H224488   3.034   4.578   8.672  1.2574  0.1912 -0.0577
  977TIP3   OH224489   5.416   2.556   6.495  0.0905  0.3480  0.1127
  977TIP3    H124490   5.368   2.500   6.434 -1.8362  2.2302 -0.2005
  977TIP3    H224491   5.355   2.572   6.566  0.7069  1.7668  0.3548
  978TIP3   OH224492   6.314   1.825   2.102  0.1434 -0.5432 -0.3881
  978TIP3    H124493   6.328   1.850   2.010 -1.2781  1.3965 -0.1340
  978TIP3    H224494   6.273   1.901   2.141  1.2748 -1.1011  2.0579
  979TIP3   OH224495   6.076   6.491   7.381  0.3536 -0.3619 -0.4329
  979TIP3    H124496   6.155   6.508   7.330  0.4521  0.2548 -0.0805
  979TIP3    H224497   6.013   6.556   7.350 -0.0354 -0.8653 -0.7302
  980TIP3   OH224498   1.796   2.631   7.048 -0.5744  0.0563 -0.1592
  980TIP3    H124499   1.740   2.683   6.991  1.5912  3.0388  0.1648
  980TIP3    H224500   1.763   2.648   7.136 -0.3475  0.2540 -0.1112
  981TIP3   OH224501   2.827   1.478   1.936 -0.3054 -0.0551  0.3618
  981TIP3    H124502   2.897   1.538   1.961  0.0994 -0.3830  0.0218
  981TIP3    H224503   2.784   1.455   2.019  0.2970 -0.2333  0.6245
  982TIP3   OH224504   4.221   5.724   0.057  0.0566 -0.0078  0.1867
  982TIP3    H124505   4.187   5.669   0.127 -0.4645 -0.1545 -0.1715
  982TIP3    H224506   4.304   5.757   0.090 -0.1848 -0.0759  0.8682
  983TIP3   OH224507   5.546   5.378   8.692  0.7487  0.2256  0.6223
  983TIP3    H124508   5.570   5.395   8.601 -0.5853  0.0200  0.2014
  983TIP3    H224509   5.476   5.441   8.710 -1.0975 -1.6912  0.5055
  984TIP3   OH224510   1.948   2.812   0.146 -0.3070 -0.3636  0.0236
  984TIP3    H124511   1.862   2.779   0.119  0.0277  0.0829 -1.7836
  984TIP3    H224512   2.009   2.741   0.122 -0.0304 -0.1098 -0.0254
  985TIP3   OH224513   1.592   0.396   8.173 -0.6043  0.4725 -0.0298
  985TIP3    H124514   1.560   0.479   8.210 -0.0493  0.6815 -0.0156
  985TIP3    H224515   1.577   0.405   8.079 -3.2240 -0.5735  0.2034
  986TIP3   OH224516   1.910   1.224   0.223 -0.2724 -0.3112  0.9227
  986TIP3    H124517   1.882   1.212   0.132 -0.8340 -1.8772  1.2507
  986TIP3    H224518   1.863   1.155   0.270  0.1240  0.3886  2.3783
  987TIP3   OH224519   3.456   1.638   2.029 -0.1218 -0.2820  0.1842
  987TIP3    H124520   3.482   1.546   2.032 -1.7826 -0.8623 -1.6668
  987TIP3    H224521   3.403   1.650   2.108  0.5211 -0.7579  0.6990
  988TIP3   OH224522   0.828   1.052   0.794 -0.4945  0.2692  0.2158
  988TIP3    H124523   0.826   1.095   0.879 -1.9154  0.7481 -0.0399
  988TIP3    H224524   0.770   1.103   0.739 -1.5895 -1.4714 -0.3318
  989TIP3   OH224525   0.515   6.291   7.889  0.0877 -0.0731 -0.0495
  989TIP3    H124526   0.490   6.242   7.967  1.0656 -0.0925  0.2657
  989TIP3    H224527   0.504   6.383   7.913 -0.1423 -0.0947 -0.0735
  990TIP3   OH224528   0.652   3.783   8.764  0.5681  0.2774  0.2054
  990TIP3    H124529   0.580   3.790   8.827  0.8880  2.0968  0.4179
  990TIP3    H224530   0.626   3.840   8.691  0.6954 -0.9703 -0.8667
  991TIP3   OH224531   2.954   3.413   1.253 -0.3042  0.7472 -0.1446
  991TIP3    H124532   2.978   3.430   1.344 -1.3828 -1.9972  0.7603
  991TIP3    H224533   3.036   3.421   1.204  0.4583  1.3763  1.1909
  992TIP3   OH224534   2.115   5.010   1.057  0.0143 -0.2330  0.3895
  992TIP3    H124535   2.204   5.007   1.021 -0.3869  3.0727 -1.3441
  992TIP3    H224536   2.127   5.043   1.146  0.5652  1.1162 -0.1423
  993TIP3   OH224537   6.022   4.299   8.186 -0.0559  0.7451  0.2720
  993TIP3    H124538   5.940   4.294   8.234 -0.3429 -1.2340 -0.3479
  993TIP3    H224539   6.028   4.390   8.158 -2.6663  0.6831 -0.7077
  994TIP3   OH224540   6.277   4.551   8.170  0.3934 -0.0863  0.1022
  994TIP3    H124541   6.273   4.537   8.076 -0.2401  0.3458  0.0639
  994TIP3    H224542   6.186   4.563   8.197  0.5688 -0.2111  0.7695
  995TIP3   OH224543   6.450   6.622   7.246 -0.3583 -0.5548 -0.3401
  995TIP3    H124544   6.468   6.675   7.168  0.1591  0.3116  0.3654
  995TIP3    H224545   6.396   6.549   7.213  0.9464 -0.9290 -1.7531
  996TIP3   OH224546   2.519   0.351   1.994  0.6019  0.1253  0.4558
  996TIP3    H124547   2.589   0.404   1.958  1.5621 -0.3622  1.5313
  996TIP3    H224548   2.548   0.260   1.982 -0.5324 -0.1544 -0.4073
  997TIP3   OH224549   4.727   3.825   1.400 -0.1856 -0.0492  0.1146
  997TIP3    H124550   4.655   3.874   1.361  0.0681  0.7104  0.5627
  997TIP3    H224551   4.806   3.863   1.360  0.1667  1.6457  2.2173
  998TIP3   OH224552   4.116   0.565   1.295  0.0001 -0.0914 -0.3076
  998TIP3    H124553   4.210   0.562   1.278 -0.0382  2.0827 -1.2667
  998TIP3    H224554   4.109   0.585   1.388  0.4891 -0.3616 -0.2115
  999TIP3   OH224555   2.424   4.761   0.945 -0.3396  0.3980  0.3612
  999TIP3    H124556   2.447   4.800   1.029  0.9785 -3.0181  1.7758
  999TIP3    H224557   2.329   4.759   0.944 -0.3960  1.9258  1.0058
 1000TIP3   OH224558   4.995   6.538   7.737  0.1415  0.1363 -0.1747
 1000TIP3    H124559   4.899   6.532   7.735  0.1998 -1.4528  0.2993
 1000TIP3    H224560   5.018   6.577   7.653 -0.8253 -1.7947 -1.4116
 1001TIP3   OH224561   6.677   0.444   8.544 -0.1648 -0.5982  0.8440
 1001TIP3    H124562   6.584   0.421   8.542 -0.3876  0.3311  0.3583
 1001TIP3    H224563   6.719   0.377   8.490 -0.8024  0.0456 -0.4874
 1002TIP3   OH224564   0.229   6.360   7.989  1.0110  0.0942 -0.4594
 1002TIP3    H124565   0.149   6.325   8.027  0.1610 -1.0824 -3.0593
 1002TIP3    H224566   0.299   6.309   8.028  0.2529 -0.6267 -0.0159
 1003TIP3   OH224567   6.504   0.899   1.032  0.3391  0.0864 -0.0612
 1003TIP3    H124568   6.440   0.847   0.983 -2.8298 -0.5885  4.1694
 1003TIP3    H224569   6.460   0.982   1.047  3.1530  2.1081 -2.1235
 1004TIP3   OH224570   6.304   6.418   1.980  0.2637  0.1294  0.1923
 1004TIP3    H124571   6.251   6.491   1.948  1.7238  0.7614 -0.9386
 1004TIP3    H224572   6.356   6.456   2.051  0.0774 -0.1572  0.4811
 1005TIP3   OH224573   2.353   5.993   0.590  0.3293 -0.1010 -0.0521
 1005TIP3    H124574   2.326   6.029   0.674 -0.4206  0.0036 -0.3378
 1005TIP3    H224575   2.302   5.913   0.580  0.9042 -0.4699 -0.1053
 1006TIP3   OH224576   4.343   6.450   6.986  0.2057 -0.4090  0.0817
 1006TIP3    H124577   4.251   6.426   6.974 -0.4913  2.2822 -0.6772
 1006TIP3    H224578   4.354   6.458   7.081 -0.6392  0.1551  0.1426
 1007TIP3   OH224579   0.722   6.772   8.591  0.2463  0.2350  0.2806
 1007TIP3    H124580   0.808   6.747   8.625  0.6167  0.9563 -0.1012
 1007TIP3    H224581   0.661   6.712   8.634  1.2549 -2.5982 -1.9342
 1008TIP3   OH224582   1.553   4.095   8.691 -0.4991  0.0104 -0.0001
 1008TIP3    H124583   1.626   4.126   8.744 -0.3155  0.7447 -0.6541
 1008TIP3    H224584   1.475   4.114   8.743 -0.2034 -1.2906  0.9459
 1009TIP3   OH224585   4.493   2.255   0.969  0.2378 -0.1797  0.1549
 1009TIP3    H124586   4.514   2.169   1.005 -0.6275 -0.5472 -0.1856
 1009TIP3    H224587   4.398   2.262   0.978  0.5442  1.9700  2.8552
 1010TIP3   OH224588   1.973   3.108   1.179  0.2667 -0.0934 -0.3841
 1010TIP3    H124589   1.902   3.172   1.174  0.2890 -0.0442 -0.0990
 1010TIP3    H224590   2.001   3.110   1.270  0.1240 -0.6722 -0.3229
 1011TIP3   OH224591   0.578   1.565   2.459  0.1185  0.0574 -0.2619
 1011TIP3    H124592   0.623   1.485   2.486 -0.4327 -0.1228  0.1393
 1011TIP3    H224593   0.492   1.535   2.429  0.3147  0.3747 -1.1883
 1012TIP3   OH224594   4.819   0.864   7.668 -0.2225  0.0818 -0.1670
 1012TIP3    H124595   4.796   0.949   7.631 -1.2751  1.2533  2.8433
 1012TIP3    H224596   4.753   0.804   7.633 -2.5090  1.5724  1.3061
 1013TIP3   OH224597   1.332   4.319   1.460 -0.0239  0.5127 -0.2971
 1013TIP3    H124598   1.285   4.394   1.498 -1.5080 -0.7334  0.4284
 1013TIP3    H224599   1.322   4.249   1.525 -3.2371 -1.9410 -3.0375
 1014TIP3   OH224600   1.195   5.157   0.229 -0.0875 -0.0903 -0.1114
 1014TIP3    H124601   1.152   5.072   0.221  0.6490 -0.4986  0.2107
 1014TIP3    H224602   1.187   5.197   0.142 -1.1733 -0.1227 -0.0428
 1015TIP3   OH224603   0.548   2.190   7.915  0.2531 -0.2284 -0.3830
 1015TIP3    H124604   0.583   2.238   7.989  0.9457 -2.3921  0.7800
 1015TIP3    H224605   0.455   2.213   7.913  0.6493  1.5099 -0.2268
 1016TIP3   OH224606   0.100   1.340   0.911  0.2912  0.3823 -0.1600
 1016TIP3    H124607   0.125   1.257   0.953  1.2625 -0.9646 -3.1029
 1016TIP3    H224608   0.182   1.374   0.876 -0.3387  1.8559 -0.2596
 1017TIP3   OH224609   1.183   4.309   1.003  0.3598  0.4464  0.1635
 1017TIP3    H124610   1.125   4.379   0.972 -0.7064 -0.1481  0.7668
 1017TIP3    H224611   1.221   4.343   1.084  1.8983  1.3527 -0.8815
 1018TIP3   OH224612   6.267   6.783   1.286 -0.9008 -0.2958  0.5671
 1018TIP3    H124613   6.301   6.740   1.365 -1.2074  1.4338  1.6972
 1018TIP3    H224614   6.201   6.844   1.319  0.5405  2.1157 -0.7501
 1019TIP3   OH224615   1.252   0.817   8.684 -0.1537 -0.0598 -0.1059
 1019TIP3    H124616   1.172   0.765   8.690 -1.0898  1.0735 -1.9946
 1019TIP3    H224617   1.231   0.899   8.728  1.0006 -0.7903  1.9835
 1020TIP3   OH224618   1.858   0.677   0.235 -0.1728  0.2270  0.5835
 1020TIP3    H124619   1.814   0.592   0.237 -1.1646  0.7173  2.0261
 1020TIP3    H224620   1.950   0.658   0.252 -0.4995 -0.5198  1.5832
 1021TIP3   OH224621   0.776   5.147   0.757 -0.6905 -0.4403 -0.3605
 1021TIP3    H124622   0.740   5.158   0.669  1.7690 -1.4583 -1.6142
 1021TIP3    H224623   0.740   5.064   0.788 -0.9336 -0.4822 -0.7517
 1022TIP3   OH224624   4.098   6.705   1.512 -0.3382  0.3375  0.1920
 1022TIP3    H124625   4.190   6.678   1.521 -0.3507  1.0078  3.9312
 1022TIP3    H224626   4.096   6.795   1.544 -2.3319  0.2856  0.3192
 1023TIP3   OH224627   6.711   5.644   7.757 -0.2021 -0.2955 -0.2617
 1023TIP3    H124628   6.638   5.693   7.719  0.8401  1.1895 -0.4766
 1023TIP3    H224629   6.673   5.598   7.832 -1.0907  1.5779  0.5058
 1024TIP3   OH224630   0.294   4.130   1.170 -0.0184  0.6102  0.2607
 1024TIP3    H124631   0.199   4.132   1.162 -0.1248 -0.6720  0.8902
 1024TIP3    H224632   0.321   4.221   1.159 -1.1926  0.8168 -1.2676
 1025TIP3   OH224633   4.182   1.756   0.853  0.1588 -0.2263 -0.2565
 1025TIP3    H124634   4.118   1.715   0.911  0.2618  0.2004  0.1656
 1025TIP3    H224635   4.261   1.702   0.863  0.2267 -0.0604  0.1298
 1026TIP3   OH224636   3.269   0.063   2.227 -0.6214  0.4000  0.6930
 1026TIP3    H124637   3.285  -0.020   2.272  0.5073 -0.0422 -0.4795
 1026TIP3    H224638   3.177   0.082   2.246 -0.8257 -0.9565  1.2286
 1027TIP3   OH224639   1.418   1.111   8.394  0.1295 -0.3294  0.2271
 1027TIP3    H124640   1.491   1.118   8.457 -0.4234 -0.8784  0.9442
 1027TIP3    H224641   1.436   1.031   8.345  0.7012  0.2381 -0.5165
 1028TIP3   OH224642   4.912   0.898   8.836  0.4232  0.8388  0.3449
 1028TIP3    H124643   4.951   0.925   8.919  0.2458  0.4189  0.5714
 1028TIP3    H224644   4.841   0.839   8.861 -0.3301  1.5648 -0.0689
 1029TIP3   OH224645   3.456   2.761   1.726  0.0294 -0.3501  0.0780
 1029TIP3    H124646   3.548   2.739   1.737  0.3965  1.9206  2.8241
 1029TIP3    H224647   3.448   2.788   1.635  1.8549 -1.3511 -0.4300
 1030TIP3   OH224648   1.646   2.065   7.758  0.1674  0.0015 -0.5840
 1030TIP3    H124649   1.556   2.058   7.791  0.4336 -0.5876  0.0184
 1030TIP3    H224650   1.663   1.980   7.717 -0.1470  0.7003 -2.2496
 1031TIP3   OH224651   1.036   6.744   8.278 -0.1548  0.8391  0.2440
 1031TIP3    H124652   1.060   6.810   8.343  1.8593 -1.9331  2.5828
 1031TIP3    H224653   1.120   6.718   8.239 -0.3733 -2.4279  1.6624
 1032TIP3   OH224654   6.675   4.887   0.791 -0.3665  0.3554  0.6572
 1032TIP3    H124655   6.770   4.876   0.801 -0.5160 -1.3987  0.6071
 1032TIP3    H224656   6.658   4.863   0.700 -1.0615 -1.4806  1.2191
 1033TIP3   OH224657   3.800   5.630   1.258  0.2661 -0.2459  0.4749
 1033TIP3    H124658   3.736   5.562   1.280 -0.1994  0.6856  2.1883
 1033TIP3    H224659   3.844   5.648   1.341  0.9466  0.9722 -0.1300
 1034TIP3   OH224660   5.838   0.666   8.186  0.3362  0.2188  0.2202
 1034TIP3    H124661   5.887   0.646   8.265  1.0448  0.6741 -0.0960
 1034TIP3    H224662   5.848   0.761   8.175  1.5321 -0.0463 -1.2446
 1035TIP3   OH224663   0.783   5.383   8.098 -0.3079  0.1023 -0.0448
 1035TIP3    H124664   0.793   5.411   8.007 -0.6390 -2.9112 -1.1226
 1035TIP3    H224665   0.872   5.363   8.126 -0.3156  0.0292 -0.0719
 1036TIP3   OH224666   3.118   6.745   0.999 -0.4489  0.3001  0.7080
 1036TIP3    H124667   3.054   6.736   0.929 -0.6317 -0.1109  0.9214
 1036TIP3    H224668   3.111   6.836   1.026 -0.2934  0.4883  0.1160
 1037TIP3   OH224669   0.239   0.002   3.151  0.2274 -0.3497  0.1363
 1037TIP3    H124670   0.283   0.069   3.100 -1.3225  0.0690 -0.6965
 1037TIP3    H224671   0.159   0.044   3.182 -0.3288 -1.5393  0.3563
 1038TIP3   OH224672   2.353   1.377   1.973  0.0814  0.6750 -0.1122
 1038TIP3    H124673   2.414   1.402   1.904  1.1646  0.6323  0.8027
 1038TIP3    H224674   2.302   1.457   1.990 -0.6506  0.5023 -1.3876
 1039TIP3   OH224675   5.114   2.484   0.970  0.3799 -0.0248  0.5724
 1039TIP3    H124676   5.106   2.538   0.892  0.3623  1.1256  1.3383
 1039TIP3    H224677   5.101   2.394   0.939 -1.1926  0.5244 -0.4905
 1040TIP3   OH224678   0.167   5.241   8.846  0.0460  0.6900  0.3838
 1040TIP3    H124679   0.112   5.285   8.780 -0.2687  0.6157  0.5909
 1040TIP3    H224680   0.228   5.309   8.875  0.3438  0.6586 -0.1509
 1041TIP3   OH224681   1.083   3.428   2.987 -0.7384  0.1834 -0.4260
 1041TIP3    H124682   1.162   3.421   3.040 -0.1556 -0.5346 -1.3606
 1041TIP3    H224683   1.114   3.443   2.898 -1.6376 -0.3555 -0.8548
 1042TIP3   OH224684   6.445   5.458   8.371 -0.0922 -0.6466  0.2744
 1042TIP3    H124685   6.386   5.424   8.304 -0.3007 -1.9588  1.1023
 1042TIP3    H224686   6.417   5.549   8.384  0.7285  0.0449 -2.2557
 1043TIP3   OH224687   0.772   5.452   8.354 -0.0040  0.5641  0.6878
 1043TIP3    H124688   0.771   5.419   8.264  1.7829 -0.7558  1.0932
 1043TIP3    H224689   0.804   5.379   8.407 -0.2407  1.5638  2.3018
 1044TIP3   OH224690   5.917   4.240   7.645 -0.6811 -0.1057  0.4312
 1044TIP3    H124691   5.850   4.183   7.685 -0.9297 -0.1033  0.0212
 1044TIP3    H224692   5.983   4.249   7.713  0.0168 -1.9746  0.0658
 1045TIP3   OH224693   3.181   2.585   0.667 -0.2018 -1.0717 -0.8267
 1045TIP3    H124694   3.263   2.620   0.702 -1.3250  0.6150  0.3102
 1045TIP3    H224695   3.176   2.617   0.577 -1.0695  1.7030  0.0956
 1046TIP3   OH224696   0.504   3.058   1.184  0.2075 -0.1659  0.4839
 1046TIP3    H124697   0.591   3.019   1.194  0.1793 -1.1106 -2.1890
 1046TIP3    H224698   0.511   3.144   1.225  2.5119 -0.0658 -0.0102
 1047TIP3   OH224699   3.642   2.964   8.748 -0.1408  0.1700 -0.6415
 1047TIP3    H124700   3.660   3.047   8.705 -0.4757  0.2166 -0.6925
 1047TIP3    H224701   3.624   2.903   8.677  0.5199 -0.0522 -0.6257
 1048TIP3   OH224702   2.279   6.630   7.902 -0.0100 -0.0299 -0.1803
 1048TIP3    H124703   2.259   6.612   7.810 -1.1845  0.1951  0.0134
 1048TIP3    H224704   2.247   6.719   7.916  0.7414  0.1741  0.2972
 1049TIP3   OH224705   0.183   0.181   2.832  0.0651  0.3948 -0.1539
 1049TIP3    H124706   0.234   0.131   2.895  1.1538  0.9663 -0.5517
 1049TIP3    H224707   0.109   0.125   2.811  0.4112 -0.3674  0.6055
 1050TIP3   OH224708   1.603   1.363   1.013  0.5745 -0.4295  0.0950
 1050TIP3    H124709   1.685   1.331   0.977  1.7108 -0.2058  2.3052
 1050TIP3    H224710   1.625   1.392   1.101 -1.6797  0.6350  0.3846
 1051TIP3   OH224711   1.589   3.611   0.305 -0.1303  0.1974 -0.3489
 1051TIP3    H124712   1.643   3.679   0.266 -0.0006  0.2670 -0.0438
 1051TIP3    H224713   1.499   3.642   0.293 -0.0587  0.5473  0.0304
 1052TIP3   OH224714   4.459   1.488   1.995  0.6743  0.2546 -0.1690
 1052TIP3    H124715   4.543   1.518   1.962  0.9623  1.5123  1.5512
 1052TIP3    H224716   4.481   1.425   2.064  0.3474  1.9574  1.5852
 1053TIP3   OH224717   4.391   0.521   1.298  0.3033  0.0855 -0.1431
 1053TIP3    H124718   4.420   0.567   1.377  0.0265  0.9311 -0.5218
 1053TIP3    H224719   4.432   0.435   1.305  0.8367  0.3791  0.5853
 1054TIP3   OH224720   1.181   1.048   0.884 -0.5938 -0.0626 -0.1837
 1054TIP3    H124721   1.259   1.088   0.922  0.0332  1.0871 -2.4920
 1054TIP3    H224722   1.118   1.043   0.956  1.0885  0.3754  1.3676
 1055TIP3   OH224723   1.626   6.421   2.006 -0.2152  0.2656 -0.6273
 1055TIP3    H124724   1.660   6.500   1.963 -0.8227  0.8763 -0.0078
 1055TIP3    H224725   1.532   6.423   1.988 -0.3313  0.0322 -0.0630
 1056TIP3   OH224726   5.080   3.409   2.055 -0.1602 -0.6711  0.1044
 1056TIP3    H124727   5.005   3.384   2.108  0.5133 -1.8019  0.5792
 1056TIP3    H224728   5.145   3.341   2.073  1.3702  0.8575  0.5326
 1057TIP3   OH224729   2.538   4.181   2.474  0.2661  0.2070 -0.2849
 1057TIP3    H124730   2.589   4.105   2.448  0.2587  0.5538 -1.3802
 1057TIP3    H224731   2.584   4.217   2.550  1.1669  0.0263 -0.7371
 1058TIP3   OH224732   6.542   5.347   1.611 -0.4442  0.2081 -0.0165
 1058TIP3    H124733   6.613   5.372   1.552  0.0697 -0.5461  0.2618
 1058TIP3    H224734   6.467   5.330   1.554  0.2742 -1.3050 -0.5474
 1059TIP3   OH224735   3.452   1.917   0.966 -0.0361  0.9329  0.1228
 1059TIP3    H124736   3.421   1.890   1.052 -2.0685  0.4631 -0.6850
 1059TIP3    H224737   3.439   1.840   0.910  1.3278  1.1911 -0.6034
 1060TIP3   OH224738   6.229   5.400   0.960 -0.9040 -0.8568 -0.4665
 1060TIP3    H124739   6.243   5.400   0.865  0.8714 -3.0053 -0.2895
 1060TIP3    H224740   6.312   5.368   0.996 -2.2572 -2.1853  1.6709
 1061TIP3   OH224741   2.802   2.948   7.878 -0.1733  0.2421  0.2096
 1061TIP3    H124742   2.757   3.028   7.907  0.9365  2.7104 -4.0913
 1061TIP3    H224743   2.894   2.972   7.873  0.4163 -1.8164  0.1081
 1062TIP3   OH224744   0.307   3.594   1.001  0.1852 -0.4431  0.0785
 1062TIP3    H124745   0.291   3.524   0.938  1.9201 -1.2951  0.5076
 1062TIP3    H224746   0.294   3.675   0.951 -1.0283 -1.0584 -0.6417
 1063TIP3   OH224747   1.681   5.962   0.534  0.6484 -0.0757  0.1131
 1063TIP3    H124748   1.663   5.920   0.450  0.6611  1.0930 -0.4819
 1063TIP3    H224749   1.598   6.001   0.560  1.0843  1.1205 -0.2511
 1064TIP3   OH224750   0.558   4.133   0.004 -0.7194  0.2342 -0.0690
 1064TIP3    H124751   0.470   4.171   0.005 -0.5122  0.7162  0.4417
 1064TIP3    H224752   0.550   4.053   0.056 -0.7007  0.6420  0.5644
 1065TIP3   OH224753   0.859   4.786   0.465 -0.2383 -0.0850  0.3030
 1065TIP3    H124754   0.865   4.856   0.400 -0.7380 -1.2129 -1.0085
 1065TIP3    H224755   0.948   4.752   0.472 -0.4099 -0.7896 -0.7682
 1066TIP3   OH224756   4.357   6.337   8.057  0.7235  0.5853  0.2274
 1066TIP3    H124757   4.355   6.305   8.147 -0.2351  1.8714  0.6871
 1066TIP3    H224758   4.279   6.391   8.049 -0.5062 -1.3824 -2.1150
 1067TIP3   OH224759   4.438   4.372   7.765 -0.3554 -0.4430 -0.6661
 1067TIP3    H124760   4.515   4.321   7.739 -0.7605 -0.6861 -1.4250
 1067TIP3    H224761   4.474   4.450   7.807  0.3667  0.1108 -2.2311
 1068TIP3   OH224762   3.052   4.422   1.766  0.1089  0.2908  0.3903
 1068TIP3    H124763   3.018   4.489   1.707 -2.0345 -1.5962 -0.7066
 1068TIP3    H224764   2.977   4.399   1.821  0.3909 -1.9873 -0.0809
 1069TIP3   OH224765   2.453   3.385   7.360 -0.1136  0.1327 -0.7031
 1069TIP3    H124766   2.522   3.436   7.403 -1.4144  0.8992  0.5682
 1069TIP3    H224767   2.492   3.357   7.278  1.3650  1.4128 -0.4947
 1070TIP3   OH224768   1.668   6.051   1.364  0.2282  0.3696 -0.4650
 1070TIP3    H124769   1.669   6.008   1.278  0.4815 -1.1147  0.2414
 1070TIP3    H224770   1.659   6.144   1.344 -0.7806 -0.0248 -2.0642
 1071TIP3   OH224771   0.169   2.442   8.772 -0.6269  0.3090  0.2331
 1071TIP3    H124772   0.144   2.481   8.688 -0.1192  1.8009  0.7427
 1071TIP3    H224773   0.186   2.350   8.752 -2.0845  0.2673 -0.9808
 1072TIP3   OH224774   6.005   2.042   7.512  0.5977  0.2387 -0.3975
 1072TIP3    H124775   5.957   2.106   7.459 -0.4098  0.5090  0.7674
 1072TIP3    H224776   6.018   1.967   7.454  0.6712  1.0046 -1.3977
 1073TIP3   OH224777   4.516   1.686   7.167  0.2964  0.4887 -0.2276
 1073TIP3    H124778   4.447   1.622   7.150  0.5983 -0.3842  1.5355
 1073TIP3    H224779   4.471   1.762   7.203  0.2306 -0.2674  1.3987
 1074TIP3   OH224780   5.919   4.492   0.903  0.0943 -0.1993  0.3078
 1074TIP3    H124781   5.919   4.461   0.993  0.5181 -2.1256 -0.3027
 1074TIP3    H224782   5.834   4.464   0.868 -0.7426  1.9164  0.4970
 1075TIP3   OH224783   5.055   1.317   2.127  0.2715  0.4249 -0.0322
 1075TIP3    H124784   4.983   1.349   2.181 -0.4162 -0.4543 -0.4006
 1075TIP3    H224785   5.107   1.263   2.186  0.3678  0.6816  0.1192
 1076TIP3   OH224786   1.195   1.885   0.461  0.2090 -0.5362 -0.3241
 1076TIP3    H124787   1.204   1.960   0.402 -0.1697 -0.2473 -0.0231
 1076TIP3    H224788   1.284   1.853   0.473  0.7326  1.2911  1.3828
 1077TIP3   OH224789   0.852   3.184   7.534  0.1289  0.1400  0.3993
 1077TIP3    H124790   0.842   3.277   7.552 -0.9833  0.0812  0.1617
 1077TIP3    H224791   0.796   3.141   7.599  0.4823 -0.3518  0.3803
 1078TIP3   OH224792   1.625   3.516   0.598 -0.6019 -0.2563 -0.8479
 1078TIP3    H124793   1.594   3.472   0.519 -1.6344  0.3898 -0.8109
 1078TIP3    H224794   1.553   3.573   0.625  0.7233  1.5520 -0.9540
 1079TIP3   OH224795   0.805   6.557   0.711 -0.1362 -0.2471 -0.2632
 1079TIP3    H124796   0.754   6.598   0.780 -2.1562 -2.2948 -0.4128
 1079TIP3    H224797   0.856   6.489   0.755  0.0739 -0.2769 -0.5457
 1080TIP3   OH224798   3.466   2.496   0.093 -0.3638  0.4817  0.0146
 1080TIP3    H124799   3.544   2.551   0.097  1.2637 -1.7920  2.2168
 1080TIP3    H224800   3.468   2.457   0.005  1.5140 -0.1893  0.3093
 1081TIP3   OH224801   4.198   2.322   0.084 -0.2026 -0.5763 -0.5559
 1081TIP3    H124802   4.194   2.391   0.149  1.5151 -0.9075 -0.0502
 1081TIP3    H224803   4.176   2.365   0.001  1.1039  0.6763 -0.2985
 1082TIP3   OH224804   4.073   3.093   8.013 -0.2379 -0.4407  0.5592
 1082TIP3    H124805   4.004   3.039   7.974 -0.2448  0.7019 -1.1146
 1082TIP3    H224806   4.074   3.172   7.960  1.3498  0.2209  1.5054
 1083TIP3   OH224807   5.548   1.026   7.140 -0.5718  0.6573  0.5455
 1083TIP3    H124808   5.464   1.060   7.107 -0.4046  0.0687 -0.5278
 1083TIP3    H224809   5.526   0.941   7.178 -0.2404 -0.2737 -1.2344
 1084TIP3   OH224810   0.157   4.791   0.435  0.1417  0.2954 -0.0916
 1084TIP3    H124811   0.148   4.710   0.486 -2.5722 -1.0607 -2.4541
 1084TIP3    H224812   0.115   4.858   0.488 -0.4424 -0.5435  0.5296
 1085TIP3   OH224813   1.516   0.905   8.598  0.0280  0.3497  0.3461
 1085TIP3    H124814   1.434   0.872   8.634  0.6151  0.4895  1.9411
 1085TIP3    H224815   1.557   0.951   8.672  0.8965  1.4870 -0.8013
 1086TIP3   OH224816   6.625   1.824   0.239  0.0862  0.0554  0.1284
 1086TIP3    H124817   6.532   1.804   0.238 -0.1038  0.9091 -0.2353
 1086TIP3    H224818   6.668   1.739   0.245 -0.6921 -0.4100 -0.7117
 1087TIP3   OH224819   3.400   2.173   0.838 -0.6024  0.1036  0.0315
 1087TIP3    H124820   3.304   2.167   0.838 -0.7322  0.9182  2.4093
 1087TIP3    H224821   3.429   2.094   0.883 -0.2207  0.3119  0.1545
 1088TIP3   OH224822   3.856   4.575   7.227  0.1506  0.0746 -0.4646
 1088TIP3    H124823   3.813   4.518   7.291  0.5442  0.4895  0.1839
 1088TIP3    H224824   3.858   4.523   7.146 -1.4188 -0.0121 -0.4778
 1089TIP3   OH224825   4.396   4.220   1.547 -0.0659  0.2156 -0.1804
 1089TIP3    H124826   4.402   4.129   1.577 -0.3541  0.2792  0.0861
 1089TIP3    H224827   4.485   4.243   1.523  0.2156  0.2121  0.8011
 1090TIP3   OH224828   5.724   0.965   7.586  0.2221 -0.3708 -0.6285
 1090TIP3    H124829   5.764   0.880   7.567  2.8928  1.2234 -3.1560
 1090TIP3    H224830   5.681   0.989   7.504  2.1050  1.8672 -1.0829
 1091TIP3   OH224831   5.758   3.789   1.772 -0.0770 -0.0108  0.2079
 1091TIP3    H124832   5.825   3.813   1.835  0.7807 -0.6699 -0.4337
 1091TIP3    H224833   5.778   3.842   1.694  0.4443 -1.0811 -0.4102
 1092TIP3   OH224834   0.598   4.917   0.112  0.0611  0.2948 -0.2048
 1092TIP3    H124835   0.589   5.005   0.150 -0.3281 -0.0194  0.4554
 1092TIP3    H224836   0.685   4.889   0.136  0.6447  0.9510 -1.4257
 1093TIP3   OH224837   6.468   0.762   0.260  0.0144 -0.0995 -0.4942
 1093TIP3    H124838   6.426   0.846   0.279  0.9295 -0.4067  3.7377
 1093TIP3    H224839   6.544   0.784   0.207 -0.8417  1.4593 -1.1310
 1094TIP3   OH224840   5.303   5.822   2.917  0.0536  0.4097  0.5179
 1094TIP3    H124841   5.222   5.772   2.916  0.9686 -1.1409  0.3386
 1094TIP3    H224842   5.289   5.890   2.983 -1.5536  0.4935  0.1237
 1095TIP3   OH224843   6.221   1.314   0.718 -0.1729  0.0860 -0.4571
 1095TIP3    H124844   6.210   1.228   0.679 -0.4120 -0.1925  0.2006
 1095TIP3    H224845   6.314   1.320   0.737 -0.2191 -0.1970 -0.1310
 1096TIP3   OH224846   4.730   6.276   3.139 -0.0022 -0.1760 -0.7231
 1096TIP3    H124847   4.805   6.273   3.078  1.1324  0.7685  0.5616
 1096TIP3    H224848   4.722   6.368   3.161 -1.4598 -0.2984 -0.6832
 1097TIP3   OH224849   1.618   4.710   0.402  0.3141 -0.3195  0.7206
 1097TIP3    H124850   1.676   4.634   0.400 -0.4661 -0.9278 -1.4726
 1097TIP3    H224851   1.669   4.781   0.363  0.4152 -0.1873  1.0865
 1098TIP3   OH224852   6.782   1.352   0.624 -0.1188  0.0104 -0.0550
 1098TIP3    H124853   6.804   1.300   0.547 -0.6553  0.8705 -0.8175
 1098TIP3    H224854   6.853   1.415   0.632  0.1886 -0.3951  0.4624
 1099TIP3   OH224855   0.930   5.169   1.789  0.0258 -0.6614 -0.0780
 1099TIP3    H124856   0.837   5.153   1.804 -0.0474  0.9742  1.6225
 1099TIP3    H224857   0.940   5.164   1.694 -2.4615  2.1252 -0.6634
 1100TIP3   OH224858   2.542   4.953   2.656 -0.0214  0.2054 -0.7793
 1100TIP3    H124859   2.602   5.020   2.690  0.0601  1.3561 -2.9550
 1100TIP3    H224860   2.504   4.993   2.578 -2.5453 -1.0676 -0.2869
 1101TIP3   OH224861   1.549   2.127   0.387 -0.6336 -0.0473  0.0840
 1101TIP3    H124862   1.588   2.078   0.459 -0.5165 -0.4807 -0.2707
 1101TIP3    H224863   1.572   2.077   0.309 -0.1010  0.8262 -0.3310
 1102TIP3   OH224864   0.559   5.264   7.765  0.0348 -0.1890  0.0104
 1102TIP3    H124865   0.485   5.235   7.712 -0.5461  2.3800 -0.7261
 1102TIP3    H224866   0.521   5.299   7.845  0.4569  0.6629 -0.1420
 1103TIP3   OH224867   5.925   2.091   1.733  0.0463  0.1446 -0.2805
 1103TIP3    H124868   5.850   2.034   1.749  0.3547 -0.8333 -2.0536
 1103TIP3    H224869   5.998   2.050   1.781  0.4301 -1.4342 -2.0812
 1104TIP3   OH224870   4.010   1.052   8.809  0.1038 -0.2227 -0.1926
 1104TIP3    H124871   3.968   1.042   8.894 -0.7129  0.2075 -0.5356
 1104TIP3    H224872   4.071   1.125   8.821 -3.3727  3.1828 -1.1335
 1105TIP3   OH224873   3.367   4.787   1.016 -0.2465 -0.2061 -0.3675
 1105TIP3    H124874   3.346   4.874   0.981 -1.4156 -0.2518  0.1643
 1105TIP3    H224875   3.448   4.762   0.972 -0.2677  0.8588 -1.0434
 1106TIP3   OH224876   3.258   0.908   7.710 -0.1338  0.1597  0.3027
 1106TIP3    H124877   3.273   1.002   7.720  0.4218  0.4205 -2.2498
 1106TIP3    H224878   3.345   0.871   7.695 -0.2542 -0.9198  2.0076
 1107TIP3   OH224879   0.018   5.116   1.714  0.1764 -0.1618 -0.1888
 1107TIP3    H124880  -0.066   5.091   1.752  0.3112  0.1660  0.3313
 1107TIP3    H224881   0.057   5.033   1.685  0.1373 -0.4334  0.5314
 1108TIP3   OH224882   6.164   6.589   1.523  0.1107 -0.2462  0.2968
 1108TIP3    H124883   6.250   6.548   1.527  0.4767  0.3589 -0.9292
 1108TIP3    H224884   6.124   6.555   1.443 -0.4318  0.1583  0.3880
 1109TIP3   OH224885   1.122   2.683   1.547  0.0629 -0.2160 -0.5341
 1109TIP3    H124886   1.045   2.627   1.542  0.4536 -0.8578  0.3806
 1109TIP3    H224887   1.115   2.741   1.470 -1.2732 -0.3073 -0.4999
 1110TIP3   OH224888   2.701   4.415   0.417  0.0627 -0.0308  0.0844
 1110TIP3    H124889   2.633   4.453   0.360 -0.0583 -0.1608  0.1415
 1110TIP3    H224890   2.776   4.473   0.406 -0.3613  0.6645  0.7551
 1111TIP3   OH224891   1.374   1.763   7.748  0.0874  0.1905  0.3597
 1111TIP3    H124892   1.409   1.691   7.696  2.0428  1.7463 -0.6197
 1111TIP3    H224893   1.285   1.775   7.716  0.0079 -1.2300 -0.0233
 1112TIP3   OH224894   2.866   4.472   8.326 -0.0704 -0.6966 -0.4323
 1112TIP3    H124895   2.925   4.544   8.304 -1.7641  0.8430 -0.1216
 1112TIP3    H224896   2.852   4.426   8.243 -0.9298  0.8720 -1.1923
 1113TIP3   OH224897   2.082   5.417   8.549 -0.4626  0.1070 -0.0442
 1113TIP3    H124898   2.001   5.372   8.575 -1.1308  1.1210 -0.3100
 1113TIP3    H224899   2.151   5.352   8.565 -1.4393 -1.2504 -1.0157
 1114TIP3   OH224900   0.776   3.644   2.405 -0.2965  0.3884  0.1827
 1114TIP3    H124901   0.765   3.553   2.379 -3.7858  0.9241 -0.7010
 1114TIP3    H224902   0.837   3.641   2.479 -1.2668 -2.8028  0.9868
 1115TIP3   OH224903   4.646   1.690   8.615 -0.4550  0.3172  0.3826
 1115TIP3    H124904   4.688   1.697   8.701 -0.6855 -1.2144  0.6407
 1115TIP3    H224905   4.716   1.707   8.552 -0.0310  0.3344  0.8529
 1116TIP3   OH224906   0.480   5.999   0.320  0.0018  0.0508  0.0611
 1116TIP3    H124907   0.418   6.062   0.283  1.1457  0.5483 -1.1017
 1116TIP3    H224908   0.477   5.925   0.259  0.5039  0.0628  0.0186
 1117TIP3   OH224909   5.979   5.512   7.748 -0.2087  0.0265  0.1277
 1117TIP3    H124910   5.898   5.561   7.729 -1.3655 -2.0052 -0.4314
 1117TIP3    H224911   5.960   5.465   7.829  0.8387  0.3350  0.5672
 1118TIP3   OH224912   1.454   3.518   0.027 -0.3142 -0.0696  0.7014
 1118TIP3    H124913   1.514   3.458   0.072  0.5702 -0.2551 -0.6576
 1118TIP3    H224914   1.367   3.485   0.047  0.1085 -0.8918  1.2294
 1119TIP3   OH224915   5.489   6.543   2.467 -0.2178  0.4604  0.6373
 1119TIP3    H124916   5.413   6.488   2.485  0.8254 -1.0301  0.7305
 1119TIP3    H224917   5.458   6.633   2.478 -2.3566 -0.0288 -0.8829
 1120TIP3   OH224918   1.911   6.589   8.655 -0.2062 -0.2949 -0.1243
 1120TIP3    H124919   1.875   6.658   8.600 -1.3664 -3.1747 -3.3681
 1120TIP3    H224920   2.002   6.616   8.671 -1.2257  2.9957  0.8471
 1121TIP3   OH224921   5.784   4.313   8.629  0.0900  0.4992 -0.0196
 1121TIP3    H124922   5.831   4.354   8.702  0.5005 -1.8145  1.0972
 1121TIP3    H224923   5.695   4.302   8.660  0.0339  0.3697 -0.2203
 1122TIP3   OH224924   3.592   2.486   7.228  0.2586  0.0562 -0.6277
 1122TIP3    H124925   3.666   2.504   7.170  2.6206 -1.0299  1.8161
 1122TIP3    H224926   3.554   2.405   7.194  1.3696 -0.3703 -0.9143
 1123TIP3   OH224927   6.132   0.729   8.300 -0.3333 -0.1012  0.8121
 1123TIP3    H124928   6.072   0.667   8.341  0.0134  0.5703  2.4503
 1123TIP3    H224929   6.117   0.812   8.347  0.2434  0.6705 -0.3093
 1124TIP3   OH224930   4.988   3.374   8.460  0.4662 -0.1254  0.3408
 1124TIP3    H124931   4.916   3.343   8.514  0.9794 -0.7077  0.7061
 1124TIP3    H224932   5.067   3.339   8.502  1.1358  2.1299  1.1020
 1125TIP3   OH224933   0.065   0.957   8.193 -0.0589  0.0631  0.4434
 1125TIP3    H124934   0.031   0.881   8.241 -0.4977 -0.5624 -0.8085
 1125TIP3    H224935   0.001   1.026   8.208 -0.5559 -0.3398  0.1849
 1126TIP3   OH224936   3.675   4.423   7.358  0.2836 -0.2275 -0.1678
 1126TIP3    H124937   3.602   4.482   7.379  0.7977  0.4847 -0.3210
 1126TIP3    H224938   3.644   4.373   7.283 -0.1916 -0.2077  0.0071
 1127TIP3   OH224939   5.034   6.524   1.896 -0.3816  0.0190 -0.2116
 1127TIP3    H124940   5.000   6.576   1.969 -1.0606  0.3645 -0.7625
 1127TIP3    H224941   5.114   6.485   1.930 -0.9759 -0.2710  0.9039
 1128TIP3   OH224942   0.187   1.829   1.625  0.4856 -0.5628  0.0879
 1128TIP3    H124943   0.176   1.902   1.564 -1.1417 -0.0316  0.9515
 1128TIP3    H224944   0.124   1.763   1.595  1.5634 -1.4058 -0.3629
 1129TIP3   OH224945   2.803   1.037   2.003  0.4317  0.1567  0.4567
 1129TIP3    H124946   2.725   0.991   2.035  1.2200 -1.2030  0.5041
 1129TIP3    H224947   2.876   0.986   2.039  1.3406  0.2401 -1.2112
 1130TIP3   OH224948   3.882   5.208   8.208  0.0094 -0.0565  0.2959
 1130TIP3    H124949   3.876   5.302   8.225  0.5438  0.0170  0.0967
 1130TIP3    H224950   3.811   5.170   8.259  0.6305  0.3121  1.4917
 1131TIP3   OH224951   0.512   0.720   7.110 -0.3922  0.0661 -0.4364
 1131TIP3    H124952   0.509   0.815   7.103  0.2234  0.1270  0.0966
 1131TIP3    H224953   0.454   0.689   7.040  0.3516  0.7985 -1.4062
 1132TIP3   OH224954   5.625   6.724   0.449  0.0065 -0.0118 -0.3217
 1132TIP3    H124955   5.633   6.801   0.391  0.3955  1.0190  1.0442
 1132TIP3    H224956   5.569   6.753   0.520  0.8182 -0.7269  0.6389
 1133TIP3   OH224957   1.311   1.345   7.954 -0.4589  0.0520 -0.3650
 1133TIP3    H124958   1.269   1.348   7.868 -0.5685 -1.0691 -0.3593
 1133TIP3    H224959   1.239   1.341   8.016 -0.3591 -0.7531 -0.2989
 1134TIP3   OH224960   5.589   2.145   0.709  1.0718  0.5188 -1.0076
 1134TIP3    H124961   5.684   2.158   0.716  0.9612  0.9713 -0.2268
 1134TIP3    H224962   5.552   2.232   0.719  0.5138  0.1840  0.0554
 1135TIP3   OH224963   5.033   0.496   7.827  0.1726 -0.5392 -0.1800
 1135TIP3    H124964   5.011   0.404   7.844  1.6910 -0.9171 -0.1430
 1135TIP3    H224965   4.979   0.520   7.751 -0.5095 -1.3422  0.0400
 1136TIP3   OH224966   1.431   4.089   7.607 -0.3773 -0.1446  0.3750
 1136TIP3    H124967   1.476   4.115   7.526  0.0931  1.7276  1.1722
 1136TIP3    H224968   1.370   4.161   7.624 -3.0102 -2.1319 -0.1113
 1137TIP3   OH224969   3.334   4.035   0.538 -0.1724  0.0448  0.6008
 1137TIP3    H124970   3.295   3.978   0.604  0.8566  1.4876  2.5446
 1137TIP3    H224971   3.266   4.101   0.521 -0.8400 -0.9036 -0.6471
 1138TIP3   OH224972   3.669   4.959   8.739  1.3901  0.1825 -0.0803
 1138TIP3    H124973   3.597   4.904   8.770  1.1456 -0.6265 -1.9474
 1138TIP3    H224974   3.685   5.020   8.811 -1.0543  0.3160  0.4360
 1139TIP3   OH224975   2.353   5.434   1.773 -0.1513 -0.1701  0.0115
 1139TIP3    H124976   2.434   5.478   1.797  0.2782 -0.9329  0.0159
 1139TIP3    H224977   2.285   5.501   1.780 -0.0322 -0.2605  3.0549
 1140TIP3   OH224978   6.726   2.869   1.263 -0.0613  0.1269  0.0355
 1140TIP3    H124979   6.809   2.897   1.302 -0.0125 -0.9971  0.7938
 1140TIP3    H224980   6.679   2.950   1.244  0.4226  0.7377  1.3317
 1141TIP3   OH224981   1.037   4.547   0.919 -0.1628  0.5619  0.2473
 1141TIP3    H124982   1.030   4.629   0.870 -0.1148  1.3598  1.5112
 1141TIP3    H224983   0.980   4.560   0.995  0.1874 -0.4075  0.6958
 1142TIP3   OH224984   4.174   6.496   8.813 -0.2445  0.4108 -0.6240
 1142TIP3    H124985   4.104   6.555   8.842  1.3856  2.1871 -0.1290
 1142TIP3    H224986   4.161   6.417   8.865 -2.0229  0.5870 -0.7295
 1143TIP3   OH224987   1.676   4.988   0.770  0.5801 -0.8821 -0.0335
 1143TIP3    H124988   1.653   4.931   0.844  3.0931 -1.9075  0.0519
 1143TIP3    H224989   1.741   5.048   0.806  0.7876 -0.4674 -1.0767
 1144TIP3   OH224990   2.633   1.622   2.652 -0.3186  0.1035  0.0457
 1144TIP3    H124991   2.610   1.710   2.682 -2.1612  0.3871 -1.9309
 1144TIP3    H224992   2.582   1.610   2.572  0.6685 -2.3958 -0.3047
 1145TIP3   OH224993   6.497   5.833   1.797  0.3518 -0.0029 -0.0832
 1145TIP3    H124994   6.424   5.783   1.834 -0.1035 -0.7051 -1.8500
 1145TIP3    H224995   6.477   5.924   1.821 -1.4044 -0.1099 -0.9718
 1146TIP3   OH224996   5.871   4.877   1.137  0.5542 -0.2095  0.4904
 1146TIP3    H124997   5.815   4.955   1.142  0.2524 -0.5105  3.1815
 1146TIP3    H224998   5.842   4.822   1.209  3.9787 -0.5787  1.7718
 1147TIP3   OH224999   6.202   0.393   8.005  0.8069  0.1244  0.4847
 1147TIP3    H125000   6.156   0.456   7.950 -1.3592 -0.6722  1.2595
 1147TIP3    H225001   6.217   0.317   7.949  0.9841  0.3021  0.2921
 1148TIP3   OH225002   1.041   5.347   1.522 -0.0113 -0.0707  0.4463
 1148TIP3    H125003   1.000   5.269   1.483  0.0243 -0.0290  0.3252
 1148TIP3    H225004   0.968   5.396   1.560  0.0435 -0.5092  1.1397
 1149TIP3   OH225005   0.215   6.103   2.264 -0.5013 -0.2294 -0.3708
 1149TIP3    H125006   0.142   6.047   2.240  0.3896 -1.2656 -0.7863
 1149TIP3    H225007   0.256   6.127   2.180 -0.5939  0.6661 -0.1695
 1150TIP3   OH225008   6.116   2.510   0.198  0.8008  0.0983 -0.1214
 1150TIP3    H125009   6.167   2.456   0.258  0.7823  1.4110  1.1332
 1150TIP3    H225010   6.041   2.456   0.173  0.4963 -0.2871  1.5245
 1151TIP3   OH225011   6.406   0.118   7.939  0.3542  0.3620 -0.2506
 1151TIP3    H125012   6.460   0.197   7.951 -1.1871  1.3009  0.9806
 1151TIP3    H225013   6.355   0.112   8.020 -3.3219  1.1224 -2.2536
 1152TIP3   OH225014   0.538   4.301   1.569 -0.1983  0.1039 -0.1001
 1152TIP3    H125015   0.486   4.243   1.514  0.3845  0.4231 -1.0105
 1152TIP3    H225016   0.595   4.242   1.618  0.0909 -0.1265 -0.6995
 1153TIP3   OH225017   0.843   0.458   8.560 -0.0704 -0.4919 -0.1031
 1153TIP3    H125018   0.908   0.498   8.503  0.0861 -1.5930 -0.7233
 1153TIP3    H225019   0.822   0.374   8.519 -1.0300 -0.6749  0.6946
 1154TIP3   OH225020   5.886   4.778   0.564 -0.5565  0.1646  0.1424
 1154TIP3    H125021   5.858   4.853   0.617 -0.2915  0.0376  0.4657
 1154TIP3    H225022   5.972   4.802   0.531 -0.6485  0.1727 -0.0933
 1155TIP3   OH225023   2.751   5.127   7.189 -0.1007 -0.1038  0.2152
 1155TIP3    H125024   2.695   5.124   7.267  0.0509 -0.5847  0.3062
 1155TIP3    H225025   2.763   5.220   7.172 -0.8002  0.0067  0.2903
 1156TIP3   OH225026   0.361   4.682   1.806  0.2049  0.3517  0.4855
 1156TIP3    H125027   0.357   4.704   1.899  2.0735 -1.4067  1.0805
 1156TIP3    H225028   0.361   4.586   1.805 -0.1745  0.3425 -1.3636
 1157TIP3   OH225029   3.386   2.201   8.187  0.5389  0.0547 -0.1370
 1157TIP3    H125030   3.464   2.215   8.133 -0.4263  1.0147 -1.3491
 1157TIP3    H225031   3.388   2.271   8.252  0.8256 -0.0883  0.0081
 1158TIP3   OH225032   3.333   2.873   1.494 -0.0645 -0.2314  0.6227
 1158TIP3    H125033   3.310   2.936   1.427  0.2052 -0.0353  0.7144
 1158TIP3    H225034   3.271   2.890   1.565 -0.0320 -0.1120  0.6224
 1159TIP3   OH225035   4.619   5.855   2.889  0.9119 -0.0437  0.7646
 1159TIP3    H125036   4.634   5.947   2.910  0.4750  0.1776  0.1426
 1159TIP3    H225037   4.640   5.848   2.796 -0.0488 -0.3392  0.5582
 1160TIP3   OH225038   1.290   2.970   7.403 -0.2798  0.2778 -0.3830
 1160TIP3    H125039   1.350   2.896   7.405  0.0292  0.5217 -0.4201
 1160TIP3    H225040   1.241   2.959   7.321 -1.0220 -0.4879  0.1618
 1161TIP3   OH225041   1.371   4.392   1.193 -0.0074 -0.0937 -0.1131
 1161TIP3    H125042   1.336   4.371   1.279 -0.7074  0.8637 -0.1439
 1161TIP3    H225043   1.424   4.471   1.207 -1.9832  1.4615 -0.9047
 1162TIP3   OH225044   0.997   5.166   7.766 -0.1700  1.1013  0.1109
 1162TIP3    H125045   1.051   5.165   7.845 -0.5617 -1.2170  0.4213
 1162TIP3    H225046   1.051   5.124   7.699 -1.6994 -2.0217  0.6282
 1163TIP3   OH225047   5.071   3.590   0.265  0.1236  0.5983  0.2209
 1163TIP3    H125048   5.068   3.525   0.336  2.5298  0.1089 -0.0481
 1163TIP3    H225049   5.121   3.547   0.196 -1.4363  1.3983 -1.4835
 1164TIP3   OH225050   2.309   3.201   8.737 -0.9185  0.1142 -0.0668
 1164TIP3    H125051   2.327   3.117   8.694 -2.0695  0.0905 -0.5319
 1164TIP3    H225052   2.394   3.246   8.736 -0.7131 -0.2411 -1.6065
 1165TIP3   OH225053   4.354   5.036   2.052 -0.0113  0.9835  0.5306
 1165TIP3    H125054   4.368   5.131   2.046 -1.1072  1.1978  1.0857
 1165TIP3    H225055   4.336   5.009   1.962 -0.9506  1.5346  0.5369
 1166TIP3   OH225056   1.888   4.727   1.874 -0.3479 -0.0560  0.0781
 1166TIP3    H125057   1.794   4.739   1.884 -0.4010 -0.5370  0.2006
 1166TIP3    H225058   1.900   4.705   1.782 -0.1768  1.5158 -0.3117
 1167TIP3   OH225059   3.682   1.397   1.326 -0.1170  0.1054  0.4507
 1167TIP3    H125060   3.772   1.388   1.295 -0.3412 -0.6128 -0.0117
 1167TIP3    H225061   3.690   1.436   1.413  0.6487 -0.1655  0.5052
 1168TIP3   OH225062   4.029   6.554   6.847  0.6401 -0.3739 -0.3788
 1168TIP3    H125063   3.938   6.543   6.818 -0.3614  2.0731  1.5436
 1168TIP3    H225064   4.049   6.473   6.893 -1.0171 -0.4662  0.2442
 1169TIP3   OH225065   1.567   4.455   7.376 -0.0906  0.1110  0.1853
 1169TIP3    H125066   1.568   4.550   7.386  0.8467  0.2618 -0.9952
 1169TIP3    H225067   1.515   4.439   7.297  0.9546 -0.2225 -0.4633
 1170TIP3   OH225068   4.028   2.446   6.970  0.2293 -0.0940  0.6243
 1170TIP3    H125069   4.050   2.369   7.022 -1.1610  0.2661  1.7954
 1170TIP3    H225070   3.957   2.416   6.913  0.5348  0.0035  0.1845
 1171TIP3   OH225071   2.306   1.695   1.363  0.1040  0.1544  0.2068
 1171TIP3    H125072   2.381   1.744   1.395 -0.9682  2.1257 -0.0897
 1171TIP3    H225073   2.257   1.672   1.442  1.6892 -2.4727  0.5355
 1172TIP3   OH225074   3.315   1.256   7.395 -0.1887 -0.5755  0.6790
 1172TIP3    H125075   3.361   1.247   7.312 -0.7650 -2.1354  0.4998
 1172TIP3    H225076   3.382   1.281   7.458  0.4395 -0.4098 -0.0455
 1173TIP3   OH225077   1.568   3.929   2.151 -0.4321  0.7990 -0.6256
 1173TIP3    H125078   1.634   3.948   2.085 -0.0317 -1.7503 -1.0712
 1173TIP3    H225079   1.594   3.980   2.228  0.2875  2.1681 -1.7328
 1174TIP3   OH225080   0.997   4.185   0.660 -0.2198  0.0906 -0.3089
 1174TIP3    H125081   1.068   4.246   0.642 -0.2002  0.2559  0.3143
 1174TIP3    H225082   0.978   4.145   0.575  1.0920 -0.4785 -0.3588
 1175TIP3   OH225083   2.776   4.176   7.720  0.2462 -0.0290 -0.3348
 1175TIP3    H125084   2.837   4.133   7.660 -0.4099  0.4226 -1.3638
 1175TIP3    H225085   2.783   4.269   7.698  0.1109  0.1566  0.4034
 1176TIP3   OH225086   3.972   5.230   7.568  0.0822 -0.3112 -0.3469
 1176TIP3    H125087   3.931   5.288   7.505  0.3695  0.2793 -0.0078
 1176TIP3    H225088   4.010   5.289   7.634 -0.0315 -0.8982  0.2630
 1177TIP3   OH225089   0.790   6.571   2.324  0.5702  0.1471 -0.0094
 1177TIP3    H125090   0.847   6.540   2.254  0.1322 -0.9965  0.1215
 1177TIP3    H225091   0.734   6.497   2.345  0.0834  0.7529  0.9413
 1178TIP3   OH225092   3.314   0.927   8.056  0.1996  0.1607  0.2195
 1178TIP3    H125093   3.240   0.866   8.049 -0.3643  0.8631 -0.0384
 1178TIP3    H225094   3.382   0.877   8.101 -0.4291 -0.4982  0.4521
 1179TIP3   OH225095   3.229   6.166   3.028  0.1431  0.5110 -0.1565
 1179TIP3    H125096   3.274   6.250   3.028  0.6587  0.2368 -0.2478
 1179TIP3    H225097   3.142   6.185   2.993 -0.8683  1.5872  2.6540
 1180TIP3   OH225098   2.882   5.926   2.529 -0.1072  0.0635  0.5663
 1180TIP3    H125099   2.907   5.944   2.619  0.1785 -1.1049  0.7404
 1180TIP3    H225100   2.898   5.832   2.518  0.4037  0.2892 -0.8726
 1181TIP3   OH225101   5.049   0.006   1.354 -0.1960 -0.1363 -0.4488
 1181TIP3    H125102   4.991  -0.069   1.368 -1.5678  1.1629  1.3488
 1181TIP3    H225103   5.138  -0.030   1.360 -0.8083 -1.7753 -0.8573
 1182TIP3   OH225104   6.539   2.236   2.845 -0.1626  0.4223 -0.1449
 1182TIP3    H125105   6.464   2.179   2.828  0.7716 -0.9751  0.1834
 1182TIP3    H225106   6.500   2.320   2.869 -1.7054 -0.6970  1.6215
 1183TIP3   OH225107   6.552   4.924   8.449  0.1293 -0.3561  0.1724
 1183TIP3    H125108   6.544   4.874   8.367  1.7132 -0.0400 -0.2112
 1183TIP3    H225109   6.527   5.013   8.425 -0.6319 -0.5213  0.3426
 1184TIP3   OH225110   1.340   1.643   3.079  0.2767  0.6216 -0.4775
 1184TIP3    H125111   1.358   1.664   2.987  2.8765  0.6116 -0.0465
 1184TIP3    H225112   1.334   1.548   3.081  2.6391  0.4137 -0.3490
 1185TIP3   OH225113   2.090   1.903   7.930 -0.0907 -0.6791  0.1603
 1185TIP3    H125114   2.039   1.842   7.876  1.0037 -1.3757 -0.1303
 1185TIP3    H225115   2.037   1.917   8.008 -0.7012 -1.4255 -0.1088
 1186TIP3   OH225116   4.729   5.769   0.322  0.0330 -0.6276 -0.0787
 1186TIP3    H125117   4.813   5.731   0.350  0.9385  1.4950  0.2880
 1186TIP3    H225118   4.754   5.846   0.271 -1.7009  0.2619  0.3569
 1187TIP3   OH225119   5.319   4.318   0.564  0.6376  0.6661  0.4101
 1187TIP3    H125120   5.375   4.328   0.487 -0.3074  1.9493 -0.1328
 1187TIP3    H225121   5.230   4.319   0.530  0.2255 -0.3656  1.3740
 1188TIP3   OH225122   4.005   4.401   0.388  0.7459  0.4248  0.2766
 1188TIP3    H125123   3.959   4.360   0.314  1.1835 -1.0657  0.8111
 1188TIP3    H225124   4.078   4.448   0.348 -0.6793  2.1021 -0.5022
 1189TIP3   OH225125   5.041   3.883   1.829  0.1956 -0.4332 -0.5553
 1189TIP3    H125126   5.025   3.791   1.807  2.3224 -0.8306 -0.6238
 1189TIP3    H225127   4.986   3.932   1.767 -0.4594 -1.6313 -0.9599
 1190TIP3   OH225128   4.020   5.692   1.087  0.0801 -0.2998 -0.2242
 1190TIP3    H125129   3.966   5.639   1.146  2.1386 -0.1750  1.9075
 1190TIP3    H225130   4.038   5.771   1.137  0.9965  0.3050 -1.4904
 1191TIP3   OH225131   0.750   1.017   2.179  0.9127 -0.0824 -0.1007
 1191TIP3    H125132   0.830   1.038   2.228  1.3189  1.8221 -1.4652
 1191TIP3    H225133   0.688   0.988   2.245  1.6513  1.7394  1.4658
 1192TIP3   OH225134   2.209   0.204   0.595  0.3093  0.2828  0.5287
 1192TIP3    H125135   2.170   0.124   0.630 -0.2024 -0.6411 -1.9703
 1192TIP3    H225136   2.136   0.254   0.560  0.7085  1.5487  1.4357
 1193TIP3   OH225137   2.458   3.373   0.318  0.0200  0.7958 -0.0950
 1193TIP3    H125138   2.523   3.312   0.283  0.5265  1.7591 -0.8858
 1193TIP3    H225139   2.375   3.347   0.277  0.4802  1.4619 -1.5031
 1194TIP3   OH225140   2.049   5.322   2.728 -0.7242  0.1666 -0.5304
 1194TIP3    H125141   2.050   5.312   2.823 -0.5815 -0.6377 -0.6071
 1194TIP3    H225142   2.088   5.408   2.713  1.0781 -0.4984  0.0590
 1195TIP3   OH225143   2.368   5.181   1.936  0.2515 -0.0663 -0.0092
 1195TIP3    H125144   2.367   5.266   1.892  2.1538  0.0827  0.1782
 1195TIP3    H225145   2.333   5.199   2.024  0.7652  0.5429  0.0716
 1196TIP3   OH225146   6.649   1.723   7.841 -0.1578  0.3248  0.2891
 1196TIP3    H125147   6.560   1.734   7.873 -1.1686 -1.1749 -1.7384
 1196TIP3    H225148   6.644   1.745   7.748  1.0523 -1.8374 -0.3698
 1197TIP3   OH225149   5.610   5.421   0.831  0.6679  0.5296  0.0059
 1197TIP3    H125150   5.542   5.355   0.822  1.7556 -0.6284 -0.0054
 1197TIP3    H225151   5.586   5.470   0.910  0.4261 -0.5970  0.6498
 1198TIP3   OH225152   0.074   2.641   8.155  0.1058 -0.2893  0.1527
 1198TIP3    H125153   0.050   2.727   8.191 -0.4392  0.5269 -2.0042
 1198TIP3    H225154  -0.006   2.589   8.160  0.2145 -0.4090  0.7071
 1199TIP3   OH225155   2.133   1.627   0.291  0.3920 -0.2093 -0.0395
 1199TIP3    H125156   2.224   1.648   0.312  0.2836 -0.9581  1.3102
 1199TIP3    H225157   2.122   1.536   0.321 -0.8735 -0.0264  0.0872
 1200TIP3   OH225158   0.324   0.590   0.449 -0.7801 -0.5464 -0.3504
 1200TIP3    H125159   0.340   0.665   0.505  0.0810 -1.5682  0.8287
 1200TIP3    H225160   0.319   0.627   0.361  1.8570  0.6898 -0.0994
 1201TIP3   OH225161   6.532   0.360   7.976  0.1816  0.1790 -0.3982
 1201TIP3    H125162   6.491   0.440   7.944  0.2579  0.6936  0.7552
 1201TIP3    H225163   6.626   0.380   7.980  0.1596  0.1637  0.2551
 1202TIP3   OH225164   3.284   1.574   2.227 -0.0265 -0.5276 -0.7577
 1202TIP3    H125165   3.338   1.603   2.301 -1.8081 -1.2511  0.9027
 1202TIP3    H225166   3.200   1.552   2.266 -0.5348 -2.5117 -2.7694
 1203TIP3   OH225167   0.573   2.313   0.544 -0.2283  0.1661 -0.4524
 1203TIP3    H125168   0.549   2.220   0.537 -0.6900  0.3606 -1.6827
 1203TIP3    H225169   0.556   2.336   0.635  1.8820 -1.4926  0.4663
 1204TIP3   OH225170   6.759   2.970   8.668  0.4464 -0.3775  0.1259
 1204TIP3    H125171   6.834   2.918   8.696 -0.0228 -1.2915 -0.2492
 1204TIP3    H225172   6.684   2.910   8.676 -0.1360  0.2941 -0.1630
 1205TIP3   OH225173   5.217   4.033   2.773  0.5722 -0.4314  1.0058
 1205TIP3    H125174   5.306   4.067   2.776  0.7836 -0.8060 -0.3104
 1205TIP3    H225175   5.221   3.962   2.709 -1.0675  0.7418 -0.4724
 1206TIP3   OH225176   1.082   2.534   0.379 -0.3513 -1.0382 -0.2819
 1206TIP3    H125177   1.083   2.625   0.407  1.9499 -0.1543 -2.7686
 1206TIP3    H225178   1.061   2.484   0.458  1.6471  1.4106  1.9728
 1207TIP3   OH225179   1.508   0.989   1.113 -0.3595 -0.4626  0.1864
 1207TIP3    H125180   1.465   1.071   1.088  0.4433  0.1299  0.6601
 1207TIP3    H225181   1.510   0.937   1.034 -0.6787  0.0795 -0.1842
 1208TIP3   OH225182   5.302   0.863   8.809  0.0810  0.1358 -0.5621
 1208TIP3    H125183   5.373   0.800   8.822 -0.0173  0.5627  3.4862
 1208TIP3    H225184   5.237   0.817   8.757  1.9719 -1.3918 -1.6830
 1209TIP3   OH225185   5.013   3.641   8.766 -0.2669 -0.3998  0.3518
 1209TIP3    H125186   4.963   3.718   8.790  2.4011  0.9932  1.8111
 1209TIP3    H225187   5.007   3.637   8.670  0.5217  2.3804  0.1227
 1210TIP3   OH225188   2.910   2.951   0.175  0.8522  0.1834  0.2786
 1210TIP3    H125189   2.993   2.981   0.137 -0.6151  2.0573 -1.6677
 1210TIP3    H225190   2.917   2.855   0.175  2.5206  0.2552 -1.0446
 1211TIP3   OH225191   0.126   4.777   7.932  0.4069  0.0129  0.1302
 1211TIP3    H125192   0.194   4.810   7.873  1.0859 -0.1988  0.7850
 1211TIP3    H225193   0.063   4.734   7.874 -0.3836  2.1814 -0.7443
 1212TIP3   OH225194   3.478   3.225   1.804  0.5597  0.1029 -0.3408
 1212TIP3    H125195   3.515   3.145   1.841 -1.7071 -0.7308  0.3085
 1212TIP3    H225196   3.450   3.276   1.880 -0.0074  0.4940 -0.8020
 1213TIP3   OH225197   3.854   4.641   8.216 -0.5468  0.0928 -0.1636
 1213TIP3    H125198   3.823   4.721   8.172 -0.2627  0.6046  0.5529
 1213TIP3    H225199   3.777   4.586   8.223 -0.4703 -0.2956 -1.9162
 1214TIP3   OH225200   0.759   4.967   2.976  0.4531  0.3780  0.5727
 1214TIP3    H125201   0.754   4.954   3.071  1.8830  0.1305  0.6322
 1214TIP3    H225202   0.822   4.902   2.946 -3.0501 -2.6304 -1.1952
 1215TIP3   OH225203   2.649   2.979   8.142 -0.1710  0.4332 -0.0228
 1215TIP3    H125204   2.670   2.903   8.087 -0.2110 -0.1957  0.8140
 1215TIP3    H225205   2.554   2.988   8.135 -0.2703 -0.1258  0.5511
 1216TIP3   OH225206   5.325   5.789   7.928  0.1361 -0.1754 -0.1299
 1216TIP3    H125207   5.328   5.703   7.970 -0.9248  0.0795  0.5143
 1216TIP3    H225208   5.317   5.770   7.835  1.6340 -0.7546 -0.1603
 1217TIP3   OH225209   3.910   3.840   7.798  0.3899 -0.4210 -0.0108
 1217TIP3    H125210   3.953   3.917   7.834 -1.4292  0.2132  0.9021
 1217TIP3    H225211   3.916   3.774   7.867 -0.4381 -0.2001  0.2756
 1218TIP3   OH225212   3.796   0.642   8.425 -1.0608  0.3679  0.2412
 1218TIP3    H125213   3.741   0.636   8.347 -1.2581 -3.1199  0.4930
 1218TIP3    H225214   3.734   0.632   8.498 -0.4666 -0.1441  0.6762
 1219TIP3   OH225215   5.698   4.748   8.835  0.3257  0.2748 -0.2084
 1219TIP3    H125216   5.682   4.840   8.859 -3.5045  0.0871 -1.3458
 1219TIP3    H225217   5.733   4.708   8.914 -0.1469  2.2491  1.0623
 1220TIP3   OH225218   1.449   0.928   0.455  0.0466  0.2039  0.2666
 1220TIP3    H125219   1.440   0.946   0.548 -0.2199 -0.8290  0.4538
 1220TIP3    H225220   1.382   0.983   0.413 -0.7402 -0.3196  0.8135
 1221TIP3   OH225221   5.169   3.814   7.400  0.0304 -0.3932 -0.2163
 1221TIP3    H125222   5.204   3.727   7.420 -0.8273 -0.3760  1.5217
 1221TIP3    H225223   5.225   3.846   7.329  2.3508 -1.1292  1.1756
 1222TIP3   OH225224   3.964   6.335   2.042 -0.1355  0.2672 -0.1295
 1222TIP3    H125225   4.053   6.351   2.012 -0.1825 -0.1098 -0.4720
 1222TIP3    H225226   3.945   6.409   2.101  0.7462 -0.1474  0.7073
 1223TIP3   OH225227   1.334   2.941   2.101  0.3792 -0.4074  0.0658
 1223TIP3    H125228   1.333   2.977   2.190 -0.3073 -0.2750  0.0121
 1223TIP3    H225229   1.287   2.858   2.108  0.0284 -0.2377 -0.2302
 1224TIP3   OH225230   3.659   4.401   0.875 -0.4514  0.0002 -0.0031
 1224TIP3    H125231   3.676   4.399   0.780 -1.4479 -2.8778 -0.2047
 1224TIP3    H225232   3.740   4.369   0.914 -0.1575  0.8749  0.1304
 1225TIP3   OH225233   0.884   6.305   0.830  0.2310 -0.0377 -0.2034
 1225TIP3    H125234   0.971   6.285   0.796  0.4049  0.6430 -0.1750
 1225TIP3    H225235   0.891   6.295   0.925 -0.4271 -2.5956 -0.3614
 1226TIP3   OH225236   0.565   4.421   0.243 -0.5719 -0.4929  0.5442
 1226TIP3    H125237   0.488   4.391   0.194  0.1790 -1.7344  0.0730
 1226TIP3    H225238   0.602   4.341   0.281  1.0212 -0.0692 -0.0371
 1227TIP3   OH225239   1.938   3.000   3.183  0.4054 -0.8135 -0.3052
 1227TIP3    H125240   1.923   3.055   3.260  0.9451 -0.7807 -0.2182
 1227TIP3    H225241   1.860   3.013   3.129  0.0984 -0.7032  0.1544
 1228TIP3   OH225242   4.401   6.248   1.783  0.3678 -0.0449  0.2121
 1228TIP3    H125243   4.484   6.216   1.746 -0.5579 -1.3313 -0.8651
 1228TIP3    H225244   4.382   6.187   1.854  2.4324  2.7491  3.4851
 1229TIP3   OH225245   3.734   1.877   0.049 -0.0211 -0.2340  0.5119
 1229TIP3    H125246   3.689   1.921   0.122 -1.1659  1.4112 -1.0858
 1229TIP3    H225247   3.827   1.894   0.065 -0.2775  0.5299  1.3348
 1230TIP3   OH225248   2.137   3.073   0.426 -0.0653 -0.8529 -0.0810
 1230TIP3    H125249   2.109   3.137   0.361 -0.2490 -0.7005  0.1482
 1230TIP3    H225250   2.192   3.012   0.376 -0.3539 -0.8432 -0.4164
 1231TIP3   OH225251   3.035   3.033   7.406 -0.0067  0.1363  0.0213
 1231TIP3    H125252   3.017   2.939   7.403 -0.8775  0.1239  2.9679
 1231TIP3    H225253   3.007   3.065   7.320 -0.8897 -2.0787 -0.6022
 1232TIP3   OH225254   4.454   3.920   8.430  0.4294  0.3235 -0.2198
 1232TIP3    H125255   4.456   3.875   8.346  0.4968  0.2440 -0.1761
 1232TIP3    H225256   4.442   3.849   8.494  0.5381  0.3676 -0.1516
 1233TIP3   OH225257   1.927   2.724   8.177  0.0690 -0.0224  0.3352
 1233TIP3    H125258   1.938   2.818   8.192 -0.2373  0.3096 -1.2985
 1233TIP3    H225259   1.933   2.685   8.264 -1.9711  1.7162  1.3710
 1234TIP3   OH225260   5.509   2.156   0.437 -0.1943  0.0450  0.0989
 1234TIP3    H125261   5.531   2.124   0.525 -2.6951  1.4837  1.3532
 1234TIP3    H225262   5.586   2.207   0.410  0.8560 -0.9253  1.1651
 1235TIP3   OH225263   1.891   0.397   1.702 -0.5267 -0.0721  0.4011
 1235TIP3    H125264   1.961   0.338   1.728 -1.6932 -2.0701 -0.7558
 1235TIP3    H225265   1.877   0.378   1.609 -1.4818  1.4941  0.1904
 1236TIP3   OH225266   6.043   4.838   7.566  0.0989 -0.3856  0.1814
 1236TIP3    H125267   6.123   4.855   7.516  0.7748 -1.7011  0.7684
 1236TIP3    H225268   5.979   4.899   7.530  0.8955 -0.4511 -1.4686
 1237TIP3   OH225269   2.259   0.950   0.713 -0.1030 -0.1129 -0.3954
 1237TIP3    H125270   2.299   1.001   0.783 -0.1925 -1.8280  0.9537
 1237TIP3    H225271   2.333   0.918   0.661  0.1379 -0.9920  0.4713
 1238TIP3   OH225272   0.994   0.248   7.725  0.0039 -0.7986 -0.2369
 1238TIP3    H125273   0.915   0.269   7.775 -0.4629 -0.6589 -1.0047
 1238TIP3    H225274   0.997   0.315   7.657  1.3529 -0.1993  0.3851
 1239TIP3   OH225275   2.251   0.142   3.225 -0.0955  0.2362 -0.2537
 1239TIP3    H125276   2.187   0.211   3.208 -1.0878  0.5083  3.6849
 1239TIP3    H225277   2.204   0.061   3.205 -1.3447  0.4965  1.3853
 1240TIP3   OH225278   0.469   0.856   2.537  0.4252  0.2501 -0.1101
 1240TIP3    H125279   0.413   0.903   2.598  1.2366  1.3537 -0.1859
 1240TIP3    H225280   0.448   0.763   2.551 -1.0188  0.6038  0.2199
 1241TIP3   OH225281   4.485   5.798   1.339  0.2345 -0.0027  0.0973
 1241TIP3    H125282   4.469   5.712   1.378  0.7394 -0.5894 -0.9581
 1241TIP3    H225283   4.536   5.780   1.261  0.7504  1.3059  0.1086
 1242TIP3   OH225284   5.388   2.820   8.750 -0.0251  0.6512  0.1572
 1242TIP3    H125285   5.403   2.726   8.744 -1.0767  0.3647  1.6429
 1242TIP3    H225286   5.437   2.848   8.827 -1.2971  0.9453  0.8928
 1243TIP3   OH225287   0.214   5.740   0.503  0.0768 -0.1153  0.4021
 1243TIP3    H125288   0.296   5.776   0.471 -1.0966  1.6177 -0.8026
 1243TIP3    H225289   0.181   5.806   0.564  0.4377 -1.6655  2.4148
 1244TIP3   OH225290   1.634   4.471   6.704 -0.6163 -0.0581  0.6886
 1244TIP3    H125291   1.651   4.559   6.737  0.5028 -0.0171  0.0579
 1244TIP3    H225292   1.592   4.485   6.619  0.6248 -0.1030  0.0507
 1245TIP3   OH225293   6.079   4.110   2.336 -0.2302 -0.2595 -0.0968
 1245TIP3    H125294   6.114   4.036   2.384 -0.1708  0.9219  1.7692
 1245TIP3    H225295   5.987   4.117   2.364  0.4968  2.0649  2.0723
 1246TIP3   OH225296   6.215   0.825   8.043 -0.1514 -0.5526 -0.4410
 1246TIP3    H125297   6.187   0.799   8.131  0.2741 -0.2719 -0.2209
 1246TIP3    H225298   6.160   0.772   7.985 -0.7253 -0.4429 -0.0162
 1247TIP3   OH225299   6.496   5.161   0.638 -0.0514 -0.5614 -0.3136
 1247TIP3    H125300   6.550   5.217   0.694  0.3164 -1.4584  0.2565
 1247TIP3    H225301   6.535   5.169   0.551 -1.0009  1.3333 -0.6097
 1248TIP3   OH225302   5.359   2.730   0.161  0.7216 -0.2028  0.1466
 1248TIP3    H125303   5.374   2.659   0.098  0.7554  0.1709 -0.2676
 1248TIP3    H225304   5.269   2.759   0.144  1.6053  1.7323 -1.6123
 1249TIP3   OH225305   1.778   3.116   8.432  0.1781 -0.0154  0.2158
 1249TIP3    H125306   1.843   3.089   8.497  1.1994 -1.4202 -1.2826
 1249TIP3    H225307   1.821   3.187   8.384 -0.0518  0.1535  0.2583
 1250TIP3   OH225308   5.634   5.753   8.217  0.6461 -0.0974 -0.0529
 1250TIP3    H125309   5.716   5.758   8.266  0.4397 -1.6047  0.4931
 1250TIP3    H225310   5.566   5.756   8.284  0.3196 -0.8932 -0.3399
 1251TIP3   OH225311   0.059   6.153   7.394 -0.1305  0.2789 -0.4555
 1251TIP3    H125312   0.136   6.121   7.348  0.6608  0.7582  0.4960
 1251TIP3    H225313   0.008   6.075   7.414 -0.0666 -0.0080 -1.3757
 1252TIP3   OH225314   5.252   2.510   7.536 -0.5684  0.1591  0.4042
 1252TIP3    H125315   5.171   2.560   7.522  0.5890  1.7853 -0.9137
 1252TIP3    H225316   5.303   2.525   7.456  0.4817 -1.9520  0.6250
 1253TIP3   OH225317   0.878   0.063   0.652 -0.0598  0.0594  0.3182
 1253TIP3    H125318   0.949   0.095   0.708  1.3805  0.0335 -1.4116
 1253TIP3    H225319   0.859   0.137   0.594 -0.9785 -0.1888  0.2892
 1254TIP3   OH225320   4.054   6.061   0.808  0.2590 -0.2437  0.1315
 1254TIP3    H125321   4.136   6.051   0.761  0.5666 -1.1956  0.8264
 1254TIP3    H225322   3.991   6.088   0.741  0.7025 -1.4389 -0.8067
 1255TIP3   OH225323   1.387   5.785   8.337 -0.4310  0.6709  0.4082
 1255TIP3    H125324   1.406   5.848   8.407 -0.4223  1.5729 -0.3862
 1255TIP3    H225325   1.343   5.837   8.269  0.7468  0.1174 -0.8293
 1256TIP3   OH225326   3.109   4.343   0.781  0.1929  0.6560  0.5940
 1256TIP3    H125327   3.145   4.425   0.812 -0.5600 -0.1516  3.9835
 1256TIP3    H225328   3.018   4.344   0.809  0.7838 -2.3033  3.1757
 1257TIP3   OH225329   1.887   2.086   1.261 -0.1974  0.3684 -0.4850
 1257TIP3    H125330   1.973   2.051   1.283  0.4536  2.6969  1.0170
 1257TIP3    H225331   1.899   2.128   1.176  0.6699  2.1214  0.4477
 1258TIP3   OH225332   1.656   4.550   2.712  0.4829 -0.1371  0.3448
 1258TIP3    H125333   1.592   4.486   2.744  1.3114 -1.1860 -0.0448
 1258TIP3    H225334   1.676   4.604   2.789 -3.2700  2.4232 -0.1981
 1259TIP3   OH225335   1.840   0.704   1.097  0.2536 -0.4758 -0.3495
 1259TIP3    H125336   1.835   0.733   1.188 -0.1358  0.9639 -0.8096
 1259TIP3    H225337   1.930   0.722   1.070  0.2470 -0.4934 -0.3844
 1260TIP3   OH225338   1.693   6.618   8.245  0.3569  0.1186 -0.2632
 1260TIP3    H125339   1.684   6.668   8.326  3.1335  0.0973  0.1537
 1260TIP3    H225340   1.640   6.539   8.260  1.0819 -0.0576  1.6839
 1261TIP3   OH225341   0.621   0.993   1.262 -0.4488  0.0237 -0.6716
 1261TIP3    H125342   0.652   0.908   1.294 -1.5441 -0.5820 -1.1744
 1261TIP3    H225343   0.662   1.057   1.320 -1.8058 -0.9756  1.5080
 1262TIP3   OH225344   6.743   3.678   0.878  0.2756  0.1278  0.0134
 1262TIP3    H125345   6.648   3.681   0.889  0.1266  0.2541 -1.2117
 1262TIP3    H225346   6.771   3.606   0.936 -0.6526 -0.4032 -0.1788
 1263TIP3   OH225347   6.700   4.668   1.781 -0.3717  0.4731 -0.0850
 1263TIP3    H125348   6.722   4.585   1.738 -0.1111  1.1744 -1.3667
 1263TIP3    H225349   6.605   4.663   1.796 -0.2861 -0.2330  0.2603
 1264TIP3   OH225350   1.024   0.818   0.790  0.5486  0.7502 -0.0902
 1264TIP3    H125351   1.079   0.886   0.830 -0.0477  0.5494  1.1061
 1264TIP3    H225352   0.936   0.836   0.822 -0.0874  0.9732 -1.8717
 1265TIP3   OH225353   4.158   0.386   2.380  0.0292  0.1951  0.1587
 1265TIP3    H125354   4.109   0.429   2.450  0.6300  0.6668  0.2958
 1265TIP3    H225355   4.092   0.334   2.334 -0.2186 -0.8925  1.6381
 1266TIP3   OH225356   4.536   3.088   0.637 -0.0894 -0.4521  0.1079
 1266TIP3    H125357   4.623   3.127   0.649  0.3967 -1.5170  0.1027
 1266TIP3    H225358   4.530   3.071   0.543  0.4877 -2.1303  0.3387
 1267TIP3   OH225359   2.998   2.742   7.698  0.2859  0.0932 -0.4319
 1267TIP3    H125360   3.016   2.814   7.758  1.0907 -2.3401  2.5243
 1267TIP3    H225361   3.081   2.727   7.653  0.4083  0.3299 -0.2876
 1268TIP3   OH225362   2.934   4.606   0.454 -0.3226  0.3843  0.4785
 1268TIP3    H125363   3.027   4.593   0.435  0.0948  2.1201  1.1585
 1268TIP3    H225364   2.917   4.696   0.429 -1.8384  0.1074  0.4120
 1269TIP3   OH225365   3.632   5.903   0.369  0.0507 -0.7660 -0.1178
 1269TIP3    H125366   3.719   5.870   0.347 -0.7985 -3.1110 -0.2378
 1269TIP3    H225367   3.627   5.897   0.465  0.7755  1.5243  0.1146
 1270TIP3   OH225368   3.461   4.407   2.291  0.0863  0.3381 -0.2667
 1270TIP3    H125369   3.383   4.454   2.264  0.8934  1.4595 -0.7382
 1270TIP3    H225370   3.464   4.416   2.386  0.6574  2.0029 -0.4091
 1271TIP3   OH225371   4.659   2.606   1.286  0.1919 -0.0218  0.4597
 1271TIP3    H125372   4.731   2.602   1.349 -0.9589 -1.8354  1.7778
 1271TIP3    H225373   4.580   2.613   1.340 -0.6730  2.3892 -0.9446
 1272TIP3   OH225374   5.172   5.547   1.203  0.1119  0.1342  0.3144
 1272TIP3    H125375   5.170   5.471   1.145  0.2991  0.9263 -0.7581
 1272TIP3    H225376   5.262   5.548   1.237 -0.3099 -0.9824  1.5427
 1273TIP3   OH225377   2.938   4.415   8.053 -0.1579 -0.3977 -0.6244
 1273TIP3    H125378   3.030   4.389   8.039 -0.1404  0.8096 -3.3498
 1273TIP3    H225379   2.888   4.352   8.001 -0.6487  0.6158 -1.3979
 1274TIP3   OH225380   3.746   5.507   0.285  0.4889 -0.0894  0.1515
 1274TIP3    H125381   3.773   5.588   0.241  1.5714 -0.5087  0.0014
 1274TIP3    H225382   3.662   5.485   0.245 -0.9979  2.1490  1.7929
 1275TIP3   OH225383   1.076   2.406   0.117  0.2550 -0.1497  0.6271
 1275TIP3    H125384   1.089   2.347   0.043  0.4756 -1.2382  1.5039
 1275TIP3    H225385   1.122   2.487   0.092  1.2120 -0.8671  0.0122
 1276TIP3   OH225386   6.450   4.616   1.775  0.3914 -0.0801  0.1439
 1276TIP3    H125387   6.370   4.640   1.822 -0.1453  0.9953 -1.2701
 1276TIP3    H225388   6.426   4.538   1.726  0.5397 -0.3778  0.5359
 1277TIP3   OH225389   1.101   3.977   8.761  0.3404 -0.1570  0.3568
 1277TIP3    H125390   1.076   4.069   8.748 -0.3096 -0.5717 -1.8148
 1277TIP3    H225391   1.024   3.928   8.734  0.3765 -1.3605  2.3098
 1278TIP3   OH225392   4.822   4.679   8.611  0.1239 -0.1759  0.1020
 1278TIP3    H125393   4.817   4.774   8.625 -0.5667 -0.1047 -0.5529
 1278TIP3    H225394   4.898   4.652   8.662  1.4871  1.0316 -1.1857
 1279TIP3   OH225395   3.132   1.580   8.343  0.4268  0.2707 -0.4022
 1279TIP3    H125396   3.055   1.580   8.401 -0.2290  0.6233 -1.2381
 1279TIP3    H225397   3.168   1.669   8.351  0.7941  0.0825  0.0460
 1280TIP3   OH225398   4.747   4.731   1.518  0.6127  0.0870  0.3814
 1280TIP3    H125399   4.718   4.720   1.609  1.6608  0.8335  0.8292
 1280TIP3    H225400   4.835   4.694   1.517  0.7402  0.4091 -0.2507
 1281TIP3   OH225401   1.968   6.344   1.454  0.0866 -0.7045 -0.1701
 1281TIP3    H125402   2.014   6.374   1.532 -0.4142  1.0642 -0.5043
 1281TIP3    H225403   2.037   6.316   1.394  0.4737 -2.1091  0.8844
 1282TIP3   OH225404   1.141   4.853   8.434 -0.2292 -0.1843  0.2781
 1282TIP3    H125405   1.153   4.767   8.394 -0.0155  0.4367 -1.0116
 1282TIP3    H225406   1.183   4.914   8.375 -1.5173  0.9698  0.4997
 1283TIP3   OH225407   2.741   3.985   0.493  0.7962 -0.0950 -0.3200
 1283TIP3    H125408   2.746   3.895   0.523 -1.1576 -0.4166 -0.7697
 1283TIP3    H225409   2.687   4.030   0.559  2.1240  0.8809  0.1437
 1284TIP3   OH225410   0.997   3.919   1.672  0.3390 -0.2061 -0.0204
 1284TIP3    H125411   1.036   3.877   1.594  1.6946 -2.0823  1.5644
 1284TIP3    H225412   0.966   3.846   1.725  0.8596  0.9231  1.9214
 1285TIP3   OH225413   5.102   3.852   0.326 -0.2364 -0.1421 -0.0896
 1285TIP3    H125414   5.100   3.759   0.303  0.2519 -0.3549  0.6767
 1285TIP3    H225415   5.010   3.877   0.334 -0.4182 -1.2360  2.2415
 1286TIP3   OH225416   1.277   0.869   0.154 -0.2906  0.0234  0.1481
 1286TIP3    H125417   1.212   0.802   0.137 -0.2761  0.2704 -0.9751
 1286TIP3    H225418   1.232   0.934   0.208 -0.5436 -0.4863  0.5536
 1287TIP3   OH225419   4.650   5.645   1.140  0.3314  0.0080  0.0762
 1287TIP3    H125420   4.596   5.577   1.099  1.0303 -0.5398  0.0493
 1287TIP3    H225421   4.722   5.597   1.181  0.0692  0.6109  1.2898
 1288TIP3   OH225422   2.329   0.726   3.297  0.5581  0.4159 -0.7407
 1288TIP3    H125423   2.349   0.771   3.215  0.0393 -0.3262 -1.2906
 1288TIP3    H225424   2.358   0.636   3.284  0.2959  0.2402 -0.1845
 1289TIP3   OH225425   4.458   4.472   2.365 -0.8088  0.1444 -0.1707
 1289TIP3    H125426   4.367   4.443   2.377 -1.1362  1.5777  1.2509
 1289TIP3    H225427   4.499   4.455   2.450  0.9199 -2.4826 -1.4126
 1290TIP3   OH225428   6.335   6.721   8.172 -0.5547 -0.2360 -0.1801
 1290TIP3    H125429   6.263   6.663   8.147 -0.4569 -0.4360  0.0009
 1290TIP3    H225430   6.292   6.800   8.205 -0.6876 -0.2029 -0.4237
 1291TIP3   OH225431   0.951   0.174   8.499  0.3849 -0.1579  0.4798
 1291TIP3    H125432   0.881   0.123   8.457  0.3044  0.1809  0.1963
 1291TIP3    H225433   0.983   0.117   8.569 -0.7130  0.0030  1.1348
 1292TIP3   OH225434   3.280   2.341   7.461 -0.2405  0.0653 -0.6307
 1292TIP3    H125435   3.237   2.362   7.543 -2.0390  0.6886 -1.6794
 1292TIP3    H225436   3.371   2.368   7.473 -0.6278  0.7421  0.9075
 1293TIP3   OH225437   6.216   1.491   1.050 -0.0677 -0.0272 -0.0450
 1293TIP3    H125438   6.161   1.449   1.116 -1.3167  1.1151 -0.3079
 1293TIP3    H225439   6.158   1.507   0.976  0.9307  0.1267 -0.8201
 1294TIP3   OH225440   5.501   5.029   8.031 -0.4935  0.3958 -0.0311
 1294TIP3    H125441   5.520   4.950   8.081 -0.9967 -0.4762 -1.1667
 1294TIP3    H225442   5.571   5.033   7.965 -0.7096  0.6660 -0.2471
 1295TIP3   OH225443   3.389   1.307   7.129 -0.0293 -0.4785  0.0334
 1295TIP3    H125444   3.324   1.374   7.105 -0.3813  0.0756  2.3147
 1295TIP3    H225445   3.472   1.342   7.097 -0.3238  0.6892  0.4825
 1296TIP3   OH225446   1.565   4.056   1.535  0.0889 -0.4877  0.0222
 1296TIP3    H125447   1.475   4.050   1.503 -0.2231 -2.2110  1.1159
 1296TIP3    H225448   1.615   4.000   1.476  0.3880  0.1008 -0.2978
 1297TIP3   OH225449   3.857   1.030   2.125  0.2174  0.2203  0.5958
 1297TIP3    H125450   3.857   0.941   2.091  1.6378 -0.6486  2.6728
 1297TIP3    H225451   3.908   1.080   2.061  0.9628 -0.8709  0.3052
 1298TIP3   OH225452   5.868   3.646   0.080 -0.0966  0.0387  0.0764
 1298TIP3    H125453   5.910   3.578   0.027  1.3388  0.9907 -0.0805
 1298TIP3    H225454   5.921   3.649   0.160 -0.6643  0.4023  0.4414
 1299TIP3   OH225455   2.953   1.314   7.305 -0.5290 -0.0610  0.2205
 1299TIP3    H125456   2.864   1.343   7.327 -0.5929  0.3540 -0.5508
 1299TIP3    H225457   2.940   1.251   7.233 -0.3775 -1.8816  1.7199
 1300TIP3   OH225458   4.942   0.008   3.600 -0.0480 -0.1994 -0.0573
 1300TIP3    H125459   4.896  -0.059   3.550  0.0682 -0.6511  0.4281
 1300TIP3    H225460   5.022   0.024   3.550 -0.0946 -0.4020 -0.1982
 1301TIP3   OH225461   2.155   5.561   7.961  0.5480 -0.7900  0.1546
 1301TIP3    H125462   2.126   5.632   7.904 -1.1703  0.1801  2.1392
 1301TIP3    H225463   2.075   5.527   8.001  1.5334 -2.5959  0.7270
 1302TIP3   OH225464   3.696   6.038   8.728  0.9869 -0.3421  0.5690
 1302TIP3    H125465   3.641   6.031   8.807 -1.8261  0.2123 -1.1888
 1302TIP3    H225466   3.729   5.949   8.714 -0.6997 -1.0734  0.9286
 1303TIP3   OH225467   0.798   4.155   7.825 -0.5682  0.5772  0.5114
 1303TIP3    H125468   0.825   4.205   7.749 -2.8818  2.6286  0.9277
 1303TIP3    H225469   0.843   4.196   7.899  0.0535 -0.0717  0.5007
 1304TIP3   OH225470   5.899   2.648   7.940 -0.5584 -0.4349 -0.2634
 1304TIP3    H125471   5.844   2.674   7.866 -1.1407 -0.9476 -0.0233
 1304TIP3    H225472   5.983   2.626   7.901 -0.9776 -1.0853 -0.8244
 1305TIP3   OH225473   1.321   1.305   0.453 -0.0821  0.0255  0.0748
 1305TIP3    H125474   1.395   1.358   0.425 -0.3851  0.4694  0.0970
 1305TIP3    H225475   1.247   1.367   0.456 -1.1195 -0.9245 -2.7316
 1306TIP3   OH225476   4.130   0.692   1.841  0.6883 -0.3586  0.2285
 1306TIP3    H125477   4.145   0.725   1.930  0.9362  0.9634 -0.2785
 1306TIP3    H225478   4.155   0.765   1.784 -3.9834  0.7130 -0.8781
 1307TIP3   OH225479   5.189   1.189   2.337 -0.0286  0.4301 -0.3078
 1307TIP3    H125480   5.171   1.095   2.346  0.0275  0.3708 -0.7479
 1307TIP3    H225481   5.262   1.206   2.396  1.0596 -0.1516 -1.4471
 1308TIP3   OH225482   0.549   3.763   0.464  0.1268 -0.2132  0.9163
 1308TIP3    H125483   0.550   3.804   0.550 -1.1223  0.3818  0.6658
 1308TIP3    H225484   0.461   3.725   0.457 -0.0792  0.4681 -0.4212
 1309TIP3   OH225485   4.914   4.431   1.115 -0.1188  0.1146  0.0552
 1309TIP3    H125486   4.957   4.354   1.151 -2.3016 -1.4160 -0.4128
 1309TIP3    H225487   4.876   4.475   1.192 -1.6117 -1.0996  0.0455
 1310TIP3   OH225488   5.270   3.162   1.279  0.4147 -0.5672  0.1446
 1310TIP3    H125489   5.188   3.141   1.235 -0.1354  1.6953 -0.0604
 1310TIP3    H225490   5.248   3.162   1.373  0.7412 -2.0532  0.2375
 1311TIP3   OH225491   4.715   2.412   1.765  0.5119 -0.2258 -0.2799
 1311TIP3    H125492   4.696   2.421   1.671  0.0271 -1.8518 -0.3710
 1311TIP3    H225493   4.738   2.320   1.776 -1.2175 -0.5162  1.4808
 1312TIP3   OH225494   4.283   1.246   8.244 -0.0777 -0.3005 -0.9841
 1312TIP3    H125495   4.362   1.272   8.197  0.1245 -1.0202 -1.0447
 1312TIP3    H225496   4.313   1.223   8.332 -0.3519  0.3076 -0.7252
 1313TIP3   OH225497   0.467   1.871   1.320 -0.5882  0.2678 -0.2143
 1313TIP3    H125498   0.530   1.859   1.392  1.0162 -0.0079 -1.5868
 1313TIP3    H225499   0.430   1.958   1.336  1.5364  1.2784 -0.2974
 1314TIP3   OH225500   5.257   2.576   7.795 -0.0519  0.2650  0.2067
 1314TIP3    H125501   5.250   2.544   7.705  0.9649 -0.1789  0.2746
 1314TIP3    H225502   5.274   2.497   7.847  0.5806  0.6741  0.6285
 1315TIP3   OH225503   5.415   3.413   1.205  0.0194 -0.2381 -0.3078
 1315TIP3    H125504   5.342   3.472   1.188 -0.7801 -1.6208 -2.0018
 1315TIP3    H225505   5.374   3.329   1.223  1.1681 -0.6295  0.5579
 1316TIP3   OH225506   2.466   6.389   8.857 -0.0722 -0.3332 -0.2380
 1316TIP3    H125507   2.504   6.450   8.794 -0.2801 -0.7106 -0.7307
 1316TIP3    H225508   2.372   6.391   8.839 -0.0352 -1.1148 -0.5421
 1317TIP3   OH225509   0.733   4.683   7.948  0.5837 -0.1447 -0.6102
 1317TIP3    H125510   0.735   4.738   7.869  0.4486  0.5788 -0.1198
 1317TIP3    H225511   0.645   4.694   7.983  1.2776  1.2657  0.8135
 1318TIP3   OH225512   1.733   6.401   2.277 -0.7431  0.8297 -0.2213
 1318TIP3    H125513   1.703   6.372   2.191  1.9675 -2.4683 -0.2999
 1318TIP3    H225514   1.821   6.435   2.261 -0.1812  0.1082  1.2043
 1319TIP3   OH225515   1.080   6.191   0.710  0.7075 -0.0558  0.2160
 1319TIP3    H125516   1.110   6.220   0.624  0.9560 -0.9445 -0.0110
 1319TIP3    H225517   1.143   6.230   0.771  0.5033  0.6177  0.0062
 1320TIP3   OH225518   3.666   3.775   0.036  0.1848  0.1678 -0.1954
 1320TIP3    H125519   3.740   3.757   0.094  0.3247  1.6207  0.0970
 1320TIP3    H225520   3.591   3.735   0.080  0.8183 -1.7002 -0.7035
 1321TIP3   OH225521   4.549   2.181   8.087 -0.3628  0.3325 -0.0891
 1321TIP3    H125522   4.519   2.254   8.034 -0.0628  1.7278  1.5999
 1321TIP3    H225523   4.643   2.197   8.099 -0.2918 -0.3358  0.3202
 1322TIP3   OH225524   1.902   4.960   6.964 -0.0005  0.2288  0.4893
 1322TIP3    H125525   1.942   5.022   6.903  0.6641 -0.3450  0.3310
 1322TIP3    H225526   1.909   5.003   7.050  0.4195  0.3835  0.3762
 1323TIP3   OH225527   6.104   1.843   7.349 -0.0794 -0.1347 -0.1542
 1323TIP3    H125528   6.159   1.777   7.390  0.1966 -0.3573 -0.8572
 1323TIP3    H225529   6.102   1.818   7.256 -1.2264 -0.0396 -0.1751
 1324TIP3   OH225530   1.487   3.331   7.802  0.8205  0.0878 -0.0290
 1324TIP3    H125531   1.506   3.241   7.829 -1.8155 -0.8559 -0.9933
 1324TIP3    H225532   1.436   3.367   7.875  0.0486  0.0643 -0.5521
 1325TIP3   OH225533   2.894   2.684   7.061 -0.1205 -0.1509  0.5517
 1325TIP3    H125534   2.827   2.623   7.031 -1.6700  1.2563  0.9740
 1325TIP3    H225535   2.935   2.716   6.980  1.7026 -2.7139  0.3704
 1326TIP3   OH225536   1.516   4.576   1.357 -0.1740  0.0272  0.1463
 1326TIP3    H125537   1.487   4.581   1.448  1.7319  0.7498  0.7714
 1326TIP3    H225538   1.576   4.650   1.346 -0.6758  0.2016 -1.8366
 1327TIP3   OH225539   3.785   0.389   1.361  0.1069 -0.0530 -0.4254
 1327TIP3    H125540   3.872   0.356   1.337 -0.3109  0.0421 -2.1997
 1327TIP3    H225541   3.771   0.464   1.303 -0.5632  0.8706  0.8767
 1328TIP3   OH225542   5.791   3.049   8.479  0.4464  0.4279  0.6409
 1328TIP3    H125543   5.883   3.026   8.490  0.3412 -0.6408 -0.4829
 1328TIP3    H225544   5.786   3.088   8.392 -0.4910 -1.5566 -0.2572
 1329TIP3   OH225545   0.135   3.885   2.347  0.4308 -0.0633 -0.5147
 1329TIP3    H125546   0.228   3.882   2.366  0.0592 -1.7598  1.4264
 1329TIP3    H225547   0.092   3.870   2.431 -1.6428  1.4228 -1.2060
 1330TIP3   OH225548   1.297   0.281   2.543  0.0990  0.3535  0.8150
 1330TIP3    H125549   1.218   0.317   2.584 -0.7626  1.1268 -1.4146
 1330TIP3    H225550   1.264   0.226   2.472  1.4900  2.6702 -1.8317
 1331TIP3   OH225551   2.501   3.582   2.011  0.3051  0.5460 -0.0897
 1331TIP3    H125552   2.467   3.669   2.029 -0.0557  0.0784  1.6291
 1331TIP3    H225553   2.543   3.554   2.093  1.5520 -0.3887 -0.9996
 1332TIP3   OH225554   4.517   3.076   1.984 -0.1602 -0.2488  0.0144
 1332TIP3    H125555   4.556   3.102   2.068 -0.0890 -0.5980  0.0913
 1332TIP3    H225556   4.569   3.001   1.956 -0.0203  0.0298 -0.4732
 1333TIP3   OH225557   5.445   5.193   0.922  0.2565 -0.4697  0.1380
 1333TIP3    H125558   5.481   5.104   0.931  0.5699 -0.4596 -0.8059
 1333TIP3    H225559   5.375   5.184   0.857  0.0632 -0.0853  0.2903
 1334TIP3   OH225560   0.210   1.541   0.546 -0.4885  0.8981  0.3350
 1334TIP3    H125561   0.279   1.581   0.599  0.5255 -0.9111  0.4636
 1334TIP3    H225562   0.244   1.542   0.457 -0.1293 -0.2850  0.4436
 1335TIP3   OH225563   5.130   5.743   2.076 -0.1738 -0.3214  0.1818
 1335TIP3    H125564   5.190   5.809   2.041  0.8400 -1.6638 -0.7432
 1335TIP3    H225565   5.187   5.683   2.124 -0.5262 -2.3046 -1.7290
 1336TIP3   OH225566   6.459   4.776   8.233  0.5741  0.1890 -0.5793
 1336TIP3    H125567   6.411   4.699   8.263  0.2507  0.8543  0.6544
 1336TIP3    H225568   6.527   4.741   8.176  0.3992 -1.0074 -0.0780
 1337TIP3   OH225569   1.803   3.375   8.562 -0.1929  0.0024  0.0910
 1337TIP3    H125570   1.780   3.346   8.474  1.2746  0.3873 -0.4512
 1337TIP3    H225571   1.719   3.383   8.608 -1.0160  0.2624 -1.4102
 1338TIP3   OH225572   2.544   5.714   7.338  0.9146 -0.0468 -0.1522
 1338TIP3    H125573   2.632   5.752   7.334  0.4791  0.9158 -1.1060
 1338TIP3    H225574   2.530   5.676   7.251  0.2140  0.2232 -0.1606
 1339TIP3   OH225575   2.920   3.995   1.321  0.0016  0.2187 -0.5613
 1339TIP3    H125576   2.961   3.912   1.347 -0.9276  0.4221  1.7504
 1339TIP3    H225577   2.845   3.969   1.268 -0.4429 -0.4728  0.3681
 1340TIP3   OH225578   4.181   0.326   7.122  0.0198 -0.4660  0.1638
 1340TIP3    H125579   4.210   0.416   7.137 -0.4448 -0.0956 -1.0498
 1340TIP3    H225580   4.115   0.310   7.189  0.2842  0.0038  0.5426
 1341TIP3   OH225581   6.247   4.892   1.759  0.1375 -0.1932  0.3880
 1341TIP3    H125582   6.152   4.892   1.773  0.0222  0.7703 -0.2997
 1341TIP3    H225583   6.261   4.830   1.688 -0.3258  1.7260 -1.4654
 1342TIP3   OH225584   5.071   3.153   2.608  0.2496 -0.0922 -0.3415
 1342TIP3    H125585   5.120   3.204   2.673  0.1371 -1.0191  0.4734
 1342TIP3    H225586   5.132   3.145   2.535  1.0223 -0.5291  0.3378
 1343TIP3   OH225587   2.318   1.970   0.372  0.6074  0.0648 -0.5988
 1343TIP3    H125588   2.350   1.912   0.303  0.2206 -2.0602  0.9285
 1343TIP3    H225589   2.398   2.013   0.405  1.0431 -0.3285 -1.1172
 1344TIP3   OH225590   4.651   0.362   0.736  0.0110 -0.0558 -0.4097
 1344TIP3    H125591   4.635   0.436   0.677  2.6373  0.9160 -0.0385
 1344TIP3    H225592   4.598   0.381   0.813 -1.0805  0.2477 -1.2121
 1345TIP3   OH225593   0.893   4.815   1.581  0.2139  0.0748  0.1832
 1345TIP3    H125594   0.955   4.811   1.653 -1.1279 -0.2733  1.3608
 1345TIP3    H225595   0.883   4.724   1.553 -1.0165 -0.1124  1.1400
 1346TIP3   OH225596   0.271   2.239   7.895 -0.1943 -0.1767  0.4225
 1346TIP3    H125597   0.228   2.256   7.979  0.6342  0.9544  0.6525
 1346TIP3    H225598   0.200   2.238   7.831 -0.7004  0.3459  0.9608
 1347TIP3   OH225599   3.894   6.532   8.585 -0.2531 -0.0598  0.5093
 1347TIP3    H125600   3.836   6.609   8.584 -0.8698 -0.3591  3.2187
 1347TIP3    H225601   3.975   6.563   8.546 -0.6939  1.8293  0.9542
 1348TIP3   OH225602   6.311   5.015   0.335 -0.1300  0.1116 -0.0004
 1348TIP3    H125603   6.297   5.097   0.288  0.8732  0.1079 -0.3454
 1348TIP3    H225604   6.396   5.028   0.379 -0.0776 -0.6468  0.1324
 1349TIP3   OH225605   0.783   1.807   0.096  0.3054  0.1910 -0.1744
 1349TIP3    H125606   0.831   1.815   0.178  0.1446  0.5694 -0.1124
 1349TIP3    H225607   0.839   1.852   0.031  0.2548  0.2257 -0.1942
 1350TIP3   OH225608   3.139   3.397   2.101  0.3543 -0.3446 -0.1153
 1350TIP3    H125609   3.134   3.487   2.135  0.1274 -0.4354  0.0933
 1350TIP3    H225610   3.106   3.404   2.011 -0.3464 -0.3386  0.1326
 1351TIP3   OH225611   4.566   5.292   7.183 -0.1362 -0.3543 -0.1150
 1351TIP3    H125612   4.508   5.367   7.174  0.2521 -0.1887 -1.5012
 1351TIP3    H225613   4.620   5.294   7.104  1.4495 -0.7562  0.9145
 1352TIP3   OH225614   3.562   6.177   0.884 -0.2718 -0.1550 -0.2556
 1352TIP3    H125615   3.516   6.235   0.824  0.0166  0.5586  0.2035
 1352TIP3    H225616   3.547   6.215   0.971  0.3439 -0.4743 -0.0035
 1353TIP3   OH225617   1.730   0.413   7.597  0.3186 -0.0721 -0.4383
 1353TIP3    H125618   1.756   0.360   7.522  1.0893  0.3366 -0.4678
 1353TIP3    H225619   1.673   0.480   7.560  0.1959 -0.2473 -0.5646
 1354TIP3   OH225620   0.712   2.257   0.924 -0.5186 -0.2285  0.2486
 1354TIP3    H125621   0.642   2.310   0.886 -1.0315 -1.9464 -1.3537
 1354TIP3    H225622   0.695   2.259   1.018 -1.1568  1.4993  0.1381
 1355TIP3   OH225623   1.681   5.945   8.651  0.3755  0.1595  0.0641
 1355TIP3    H125624   1.765   5.975   8.685  0.9420  0.0529 -1.1577
 1355TIP3    H225625   1.641   5.897   8.723  0.6538  1.5444  1.1660
 1356TIP3   OH225626   4.819   4.172   8.374 -0.2141  0.1127  0.2069
 1356TIP3    H125627   4.739   4.206   8.334 -0.5395 -1.6307 -0.7043
 1356TIP3    H225628   4.861   4.250   8.412 -1.8306  1.2148 -0.1418
 1357TIP3   OH225629   3.581   3.079   1.523  0.1583  0.0275  0.3955
 1357TIP3    H125630   3.627   3.163   1.516  0.3506  0.0202  1.4389
 1357TIP3    H225631   3.513   3.094   1.589 -0.0215 -0.5478  0.3490
 1358TIP3   OH225632   2.725   2.159   0.815  0.0965 -0.2346  0.5688
 1358TIP3    H125633   2.754   2.102   0.744 -1.0498 -0.6874  0.4407
 1358TIP3    H225634   2.681   2.101   0.877 -0.8662  0.4556  0.5629
 1359TIP3   OH225635   6.468   4.773   0.615 -0.0418 -0.2293 -0.4151
 1359TIP3    H125636   6.390   4.726   0.587  0.2341 -0.5146 -0.7138
 1359TIP3    H225637   6.436   4.858   0.645 -0.7231 -1.0883  1.4317
 1360TIP3   OH225638   0.976   3.621   2.582 -0.3835  0.3263  0.0840
 1360TIP3    H125639   0.958   3.555   2.649  1.9051 -0.2445  0.2057
 1360TIP3    H225640   1.014   3.695   2.630  1.6528 -0.2421 -0.5604
 1361TIP3   OH225641   0.678   3.159   8.659  0.4459  0.1101  0.1768
 1361TIP3    H125642   0.592   3.180   8.696  0.6125  1.3269 -0.0855
 1361TIP3    H225643   0.698   3.071   8.693 -1.6545 -0.9423 -1.1402
 1362TIP3   OH225644   6.465   3.756   0.572  0.1042 -0.1709  0.7530
 1362TIP3    H125645   6.539   3.785   0.517 -0.4966 -0.0640 -0.0229
 1362TIP3    H225646   6.487   3.666   0.596  0.7531  0.0451  1.0039
 1363TIP3   OH225647   1.349   0.340   8.524 -0.1720 -0.1533  0.1898
 1363TIP3    H125648   1.324   0.268   8.466 -0.4192  1.3644 -1.6873
 1363TIP3    H225649   1.284   0.338   8.594 -1.3317 -0.5758 -0.8630
 1364TIP3   OH225650   0.818   0.268   0.416  0.4590  0.3713  0.4440
 1364TIP3    H125651   0.744   0.268   0.356  0.8004 -1.8584 -0.0675
 1364TIP3    H225652   0.893   0.293   0.362  0.3544  0.9044  0.5474
 1365TIP3   OH225653   4.810   1.808   8.052 -0.1422  0.4628 -0.3424
 1365TIP3    H125654   4.733   1.862   8.033 -0.4797  0.0600 -0.1298
 1365TIP3    H225655   4.775   1.721   8.071  0.4999 -0.2496 -2.2074
 1366TIP3   OH225656   0.100   6.341   6.530  0.4030  0.0127 -0.1124
 1366TIP3    H125657   0.063   6.410   6.585  0.5009  0.8905 -1.1187
 1366TIP3    H225658   0.057   6.352   6.445 -0.0345 -1.5711 -0.1103
 1367TIP3   OH225659   4.292   3.788   8.017 -0.1970 -0.2791 -0.4242
 1367TIP3    H125660   4.226   3.836   8.066 -0.2004 -0.9248  0.2268
 1367TIP3    H225661   4.244   3.720   7.971 -0.2125  0.4152 -1.4731
 1368TIP3   OH225662   2.588   4.896   8.043 -0.2613 -0.0242 -0.2821
 1368TIP3    H125663   2.590   4.819   8.098 -0.3308 -1.3439 -2.0352
 1368TIP3    H225664   2.557   4.865   7.958 -1.6944  2.2001 -0.6692
 1369TIP3   OH225665   3.124   1.532   7.046 -0.3307 -0.6034  0.1144
 1369TIP3    H125666   3.055   1.487   6.996 -0.2171  1.2638 -1.8914
 1369TIP3    H225667   3.076   1.582   7.112 -0.9856  0.6303 -1.2235
 1370TIP3   OH225668   2.400   4.920   1.173 -0.1277 -0.1211 -0.4322
 1370TIP3    H125669   2.356   5.004   1.158 -0.1098  0.2935  1.6173
 1370TIP3    H225670   2.448   4.932   1.255  1.9245 -1.3418 -1.3807
 1371TIP3   OH225671   4.517   4.450   0.674  0.2310  0.1226 -0.6201
 1371TIP3    H125672   4.560   4.407   0.747 -1.5832  0.3346  0.6276
 1371TIP3    H225673   4.424   4.432   0.686 -0.4169  2.6485 -1.1659
 1372TIP3   OH225674   0.129   1.781   7.115  0.0122 -0.1584  0.7327
 1372TIP3    H125675   0.076   1.820   7.045  2.6585 -0.0995 -1.3893
 1372TIP3    H225676   0.172   1.706   7.074  5.7996  2.8021  0.3473
 1373TIP3   OH225677   5.212   6.540   0.906 -0.2756  0.2377 -0.0881
 1373TIP3    H125678   5.169   6.611   0.858 -0.9833  0.5266  0.9554
 1373TIP3    H225679   5.298   6.533   0.864 -0.5234  1.1109 -0.7890
 1374TIP3   OH225680   0.650   2.515   2.195 -0.1828 -0.0450 -0.8430
 1374TIP3    H125681   0.656   2.587   2.258  2.9212  0.2161 -1.3065
 1374TIP3    H225682   0.560   2.484   2.204 -0.3975  1.1302  2.4135
 1375TIP3   OH225683   1.291   4.452   2.607 -0.2097  0.7486 -0.3103
 1375TIP3    H125684   1.204   4.427   2.638 -0.2889  0.1371 -0.9979
 1375TIP3    H225685   1.314   4.527   2.661 -0.2610 -0.3674  1.3786
 1376TIP3   OH225686   4.785   6.462   2.442  0.2529 -0.6743  0.0686
 1376TIP3    H125687   4.811   6.474   2.351  0.4196 -1.1232  0.0552
 1376TIP3    H225688   4.776   6.551   2.476 -1.3761 -0.4649 -0.8156
 1377TIP3   OH225689   1.529   4.163   7.367  0.7276 -0.0032 -0.5890
 1377TIP3    H125690   1.537   4.255   7.341 -0.7020  0.1857 -0.4654
 1377TIP3    H225691   1.482   4.122   7.295 -2.4642  0.3354  1.1136
 1378TIP3   OH225692   0.028   5.581   8.123 -0.5410 -0.1231  0.2280
 1378TIP3    H125693  -0.058   5.578   8.082  0.3445 -0.7318 -1.6827
 1378TIP3    H225694   0.040   5.494   8.161 -0.7504 -0.0312  0.5147
 1379TIP3   OH225695   5.139   1.153   0.643 -0.2657 -0.5285 -0.6203
 1379TIP3    H125696   5.145   1.196   0.729 -1.0900  0.7523 -1.1678
 1379TIP3    H225697   5.203   1.199   0.589 -1.0090 -0.1048 -1.1580
 1380TIP3   OH225698   1.184   3.215   1.337 -0.0323  0.2645 -0.2317
 1380TIP3    H125699   1.116   3.264   1.384  0.1130  0.2128  0.0310
 1380TIP3    H225700   1.252   3.198   1.403  0.1686  0.1881 -0.4571
 1381TIP3   OH225701   5.632   6.010   8.750  0.0777 -0.1075  0.4575
 1381TIP3    H125702   5.596   5.927   8.720  1.8686 -0.3070 -1.3263
 1381TIP3    H225703   5.707   5.986   8.805  0.6708  0.2998 -0.1532
 1382TIP3   OH225704   4.758   2.138   1.818 -0.4943 -0.3960  0.4306
 1382TIP3    H125705   4.701   2.118   1.893  1.4047  1.6295  2.5888
 1382TIP3    H225706   4.839   2.091   1.837 -0.3283 -0.7082 -0.9648
 1383TIP3   OH225707   5.953   1.507   0.866  0.0349  0.1400 -0.4153
 1383TIP3    H125708   5.902   1.472   0.939  0.8000 -0.0385  0.0437
 1383TIP3    H225709   5.902   1.486   0.788 -0.8993  0.5216  0.0819
 1384TIP3   OH225710   0.801   4.282   1.380 -0.5057 -0.1152 -0.1046
 1384TIP3    H125711   0.895   4.264   1.384 -0.5171 -0.1829 -0.1326
 1384TIP3    H225712   0.762   4.197   1.363 -0.7562 -0.5572  2.3158
 1385TIP3   OH225713   3.116   2.119   0.849 -0.2718  0.1650  0.2546
 1385TIP3    H125714   3.096   2.184   0.783  0.4173  0.0747 -0.0562
 1385TIP3    H225715   3.083   2.156   0.931 -0.3658  0.6562 -0.0045
 1386TIP3   OH225716   3.546   4.313   8.178  0.2471 -0.1903 -0.1309
 1386TIP3    H125717   3.489   4.290   8.251  1.3616  0.1178  0.8689
 1386TIP3    H225718   3.609   4.241   8.174  2.2824  1.3955  1.4619
 1387TIP3   OH225719   0.856   0.728   2.291  0.2794 -0.0190 -0.5560
 1387TIP3    H125720   0.805   0.802   2.324  0.2374 -0.9768  1.6753
 1387TIP3    H225721   0.868   0.747   2.198 -0.7698  2.1717 -0.3054
 1388TIP3   OH225722   2.858   6.376   7.774 -0.0826 -0.2635 -0.2240
 1388TIP3    H125723   2.900   6.462   7.772 -0.9650  0.1740 -1.1713
 1388TIP3    H225724   2.930   6.314   7.765  0.5479  0.3788  0.2683
 1389TIP3   OH225725   5.971   2.886   2.459 -0.0100 -0.5471 -0.1402
 1389TIP3    H125726   5.952   2.967   2.410  1.4955 -0.2178 -0.2559
 1389TIP3    H225727   5.916   2.891   2.537 -0.1186  0.4900 -0.2692
 1390TIP3   OH225728   5.320   2.215   8.776  0.4644 -0.0760 -0.1209
 1390TIP3    H125729   5.324   2.209   8.681 -0.8687 -0.0994 -0.1839
 1390TIP3    H225730   5.235   2.178   8.799  0.7722 -0.0635  1.0849
 1391TIP3   OH225731   5.151   4.801   2.165  0.4161  0.3926 -0.1231
 1391TIP3    H125732   5.165   4.707   2.172  0.7319  0.4053 -0.5603
 1391TIP3    H225733   5.072   4.809   2.112 -0.8914  0.3374  1.7130
 1392TIP3   OH225734   0.287   6.019   7.241 -0.4764 -0.1759  0.2440
 1392TIP3    H125735   0.380   6.002   7.257 -0.3158  1.3430  1.0545
 1392TIP3    H225736   0.265   5.963   7.167  0.3815 -2.6186  1.7275
 1393TIP3   OH225737   2.377   6.374   1.690  0.2355  0.1325 -0.4813
 1393TIP3    H125738   2.438   6.318   1.738  0.3398  1.4017  0.9495
 1393TIP3    H225739   2.421   6.391   1.606 -0.3682 -2.8985 -1.5243
 1394TIP3   OH225740   0.450   0.863   1.491 -0.0380  0.3051  0.0554
 1394TIP3    H125741   0.389   0.922   1.446 -0.4848 -1.1563 -1.3557
 1394TIP3    H225742   0.448   0.782   1.439  2.0492 -0.2830  0.7755
 1395TIP3   OH225743   4.945   2.868   1.763 -0.3706 -0.5206  0.2363
 1395TIP3    H125744   4.883   2.938   1.787  0.9662  0.4783  0.9046
 1395TIP3    H225745   4.919   2.794   1.818 -1.1672 -0.2247  0.2766
 1396TIP3   OH225746   6.121   2.984   2.920  0.0825  0.3049  0.1067
 1396TIP3    H125747   6.160   2.935   2.993  0.9914  0.2890 -0.3778
 1396TIP3    H225748   6.190   3.044   2.892 -0.6834  1.1768  0.0483
 1397TIP3   OH225749   5.737   5.264   7.797 -0.4010 -0.2665  0.1617
 1397TIP3    H125750   5.724   5.336   7.859  0.2863 -0.8622  1.0192
 1397TIP3    H225751   5.659   5.266   7.741  0.3452  2.2135 -0.9658
 1398TIP3   OH225752   3.807   3.023   2.669  0.3851  0.4895  0.1874
 1398TIP3    H125753   3.752   2.947   2.650  0.1246  0.3756  1.3393
 1398TIP3    H225754   3.745   3.094   2.687  0.6254  0.7355  0.0570
 1399TIP3   OH225755   4.163   5.460   1.419  0.3555  0.1093  0.0924
 1399TIP3    H125756   4.138   5.369   1.407  0.2876 -0.3081  2.7446
 1399TIP3    H225757   4.083   5.503   1.448 -0.0394  1.4630 -2.7065
 1400TIP3   OH225758   1.475   3.748   0.684 -0.2402 -0.2729  0.6391
 1400TIP3    H125759   1.469   3.783   0.595 -0.9406  1.3547  1.2730
 1400TIP3    H225760   1.426   3.812   0.737  1.5645 -0.3083  2.4366
 1401TIP3   OH225761   6.224   1.602   0.681 -0.7747 -0.2511 -0.7527
 1401TIP3    H125762   6.318   1.585   0.678 -0.6605  0.2356 -0.0969
 1401TIP3    H225763   6.184   1.516   0.691 -0.2733 -0.2857  1.2679
 1402TIP3   OH225764   4.753   3.995   8.579 -0.5024  0.1590  0.0639
 1402TIP3    H125765   4.792   4.044   8.507 -0.2443 -0.0633  0.0464
 1402TIP3    H225766   4.661   4.019   8.579 -0.1250  1.7083  0.9309
 1403TIP3   OH225767   1.730   2.508   1.016 -0.5684 -0.3729 -0.0731
 1403TIP3    H125768   1.707   2.485   1.106  1.6060 -0.3996  0.5178
 1403TIP3    H225769   1.824   2.527   1.019 -0.6808  0.7843 -2.1111
 1404TIP3   OH225770   4.567   0.696   1.833  0.3946 -0.0915  0.0998
 1404TIP3    H125771   4.548   0.749   1.910 -0.2017  1.3796 -1.0238
 1404TIP3    H225772   4.541   0.607   1.858 -1.9228  0.7371  0.8305
 1405TIP3   OH225773   4.303   2.024   1.325  0.1476  0.1897  0.0286
 1405TIP3    H125774   4.307   1.936   1.288 -0.7757  0.1677 -0.0382
 1405TIP3    H225775   4.234   2.018   1.392  1.9544  0.1388  1.9853
 1406TIP3   OH225776   2.229   5.241   7.484 -0.2541 -0.5552 -0.4718
 1406TIP3    H125777   2.141   5.240   7.520 -0.2112  0.2017 -0.3294
 1406TIP3    H225778   2.251   5.149   7.470 -0.1164 -0.9388  1.8207
 1407TIP3   OH225779   2.577   6.637   2.861 -0.2780 -0.2645  0.4760
 1407TIP3    H125780   2.552   6.641   2.953  3.3251 -0.5476  1.6378
 1407TIP3    H225781   2.647   6.702   2.852 -0.8378  0.0738 -2.1991
 1408TIP3   OH225782   0.185   3.887   0.579  0.1110  0.2430 -0.3979
 1408TIP3    H125783   0.227   3.842   0.506 -2.4143 -0.3380 -1.6120
 1408TIP3    H225784   0.095   3.902   0.549 -1.5292 -1.4390  3.1401
 1409TIP3   OH225785   5.748   0.329   1.883 -0.4542  0.7118 -0.2432
 1409TIP3    H125786   5.830   0.357   1.924 -1.3886  1.2311  1.3641
 1409TIP3    H225787   5.733   0.242   1.919 -1.4282  1.2846  0.7739
 1410TIP3   OH225788   4.353   2.191   0.664 -0.6605  0.4429  0.4379
 1410TIP3    H125789   4.308   2.149   0.738 -3.1797  2.0737 -0.0789
 1410TIP3    H225790   4.336   2.284   0.675  0.4005  0.8804 -1.2808
 1411TIP3   OH225791   0.438   6.375   0.406  0.2330  0.0085  0.0792
 1411TIP3    H125792   0.400   6.292   0.435  0.1785 -0.0670 -0.2119
 1411TIP3    H225793   0.477   6.412   0.486 -0.4904  0.1109  0.3973
 1412TIP3   OH225794   5.550   4.214   8.758  0.6557 -0.3621  0.1343
 1412TIP3    H125795   5.537   4.123   8.731  1.7880 -0.4031 -0.3265
 1412TIP3    H225796   5.499   4.223   8.838  0.0357 -1.2230 -0.1472
 1413TIP3   OH225797   1.551   3.338   0.887 -0.0487  0.3183 -0.6175
 1413TIP3    H125798   1.602   3.361   0.810  2.8492  0.6843  1.2558
 1413TIP3    H225799   1.523   3.422   0.923  2.4948  0.5744  1.0671
 1414TIP3   OH225800   1.653   6.196   2.438  0.1192 -0.2935  0.2866
 1414TIP3    H125801   1.680   6.268   2.381  0.1690 -0.2377  0.3805
 1414TIP3    H225802   1.584   6.232   2.493  1.0139  0.0653  1.2193
 1415TIP3   OH225803   5.679   3.590   1.580  0.1947  0.6232  0.2913
 1415TIP3    H125804   5.643   3.544   1.655 -0.1521  0.1958 -0.1312
 1415TIP3    H225805   5.704   3.676   1.614 -0.3343  0.5792  0.7993
 1416TIP3   OH225806   4.536   1.308   0.360 -0.1080  0.3202 -0.3648
 1416TIP3    H125807   4.529   1.220   0.323 -0.2071  0.5485 -0.9000
 1416TIP3    H225808   4.489   1.363   0.299  0.6734  0.8715 -0.4890
 1417TIP3   OH225809   2.318   6.134   6.969 -0.4370 -0.6813  0.6290
 1417TIP3    H125810   2.332   6.039   6.961  0.1679 -0.5674  0.3252
 1417TIP3    H225811   2.406   6.171   6.972 -0.6284  0.0309 -1.1387
 1418TIP3   OH225812   0.762   4.678   2.276 -0.5783  0.2026 -0.8959
 1418TIP3    H125813   0.682   4.663   2.327  1.4729 -2.8467  1.7548
 1418TIP3    H225814   0.736   4.659   2.186 -2.3424 -3.5106  0.2123
 1419TIP3   OH225815   1.457   5.024   0.312  0.2636  0.0399  0.3443
 1419TIP3    H125816   1.532   4.984   0.269  0.7504  1.6190 -0.3414
 1419TIP3    H225817   1.495   5.081   0.379 -0.3842 -0.1536  0.8949
 1420TIP3   OH225818   6.728   3.903   1.860 -0.1418 -0.0309  0.3655
 1420TIP3    H125819   6.692   3.815   1.867 -0.6365  0.2227  1.1619
 1420TIP3    H225820   6.821   3.889   1.842 -0.4937 -0.6898 -1.0860
 1421TIP3   OH225821   2.623   1.749   0.006 -0.3823 -0.1400 -0.0089
 1421TIP3    H125822   2.588   1.669  -0.033  0.4902 -0.0271 -1.0577
 1421TIP3    H225823   2.600   1.818  -0.055  0.1989  0.1857  0.1365
 1422TIP3   OH225824   2.373   3.366   7.842 -0.0990 -0.7083 -0.2695
 1422TIP3    H125825   2.315   3.439   7.822 -0.6291 -0.8591  0.6278
 1422TIP3    H225826   2.354   3.300   7.776  0.0486 -0.2159 -0.8049
 1423TIP3   OH225827   2.144   1.148   0.549  0.1018  0.2963 -0.4676
 1423TIP3    H125828   2.168   1.095   0.625 -0.5681 -0.4484 -0.7544
 1423TIP3    H225829   2.185   1.103   0.475  2.1505  1.9224 -0.4266
 1424TIP3   OH225830   0.811   1.025   7.746  0.5612 -0.0059 -0.3905
 1424TIP3    H125831   0.813   0.995   7.837  2.2564 -1.0588 -0.7391
 1424TIP3    H225832   0.827   0.946   7.694  1.6613  0.9076 -1.5030
 1425TIP3   OH225833   1.726   1.380   2.963 -0.5653 -0.5982 -0.0329
 1425TIP3    H125834   1.697   1.408   2.876  1.7316 -0.0251 -0.6732
 1425TIP3    H225835   1.698   1.450   3.022 -0.4236 -0.0367 -0.6266
 1426TIP3   OH225836   6.746   3.479   2.340  0.1960  0.0827  0.7778
 1426TIP3    H125837   6.741   3.536   2.262  1.0670 -1.8328 -0.7589
 1426TIP3    H225838   6.717   3.535   2.412 -0.8364  1.9050 -0.9353
 1427TIP3   OH225839   0.764   1.272   1.752 -0.1187 -0.6995 -0.4260
 1427TIP3    H125840   0.796   1.199   1.698  3.0725 -1.2361  1.9179
 1427TIP3    H225841   0.720   1.230   1.826 -1.2627 -0.0805 -0.7241
 1428TIP3   OH225842   5.621   4.714   2.203 -0.1162  0.2260  0.0626
 1428TIP3    H125843   5.616   4.618   2.200  2.5728 -0.0269  0.9626
 1428TIP3    H225844   5.649   4.734   2.292  3.9215  1.4377 -1.2673
 1429TIP3   OH225845   0.699   2.172   8.317 -0.0673 -0.2143  0.3864
 1429TIP3    H125846   0.784   2.215   8.316  0.6909 -1.6653 -0.6904
 1429TIP3    H225847   0.645   2.223   8.256  0.5723 -0.2991 -0.2642
 1430TIP3   OH225848   5.043   6.314   0.357 -0.3590 -0.4007  0.3082
 1430TIP3    H125849   5.075   6.404   0.364 -1.4771  0.0018  0.4642
 1430TIP3    H225850   5.095   6.265   0.420 -0.8928  0.4920  1.4807
 1431TIP3   OH225851   6.494   5.927   1.267  0.4945  0.4836 -0.1810
 1431TIP3    H125852   6.412   5.947   1.311  0.9510  0.1552  0.8541
 1431TIP3    H225853   6.494   5.832   1.258  1.3557  0.3282  1.0990
 1432TIP3   OH225854   5.974   0.302   1.596  0.1846 -0.0338 -0.6692
 1432TIP3    H125855   6.066   0.297   1.619  0.6048  0.1705 -2.2016
 1432TIP3    H225856   5.955   0.396   1.593 -0.8586 -0.0352  2.3980
 1433TIP3   OH225857   5.602   0.722   7.201 -0.3793 -0.0176 -0.2045
 1433TIP3    H125858   5.575   0.705   7.110  0.3973 -1.1224 -0.2403
 1433TIP3    H225859   5.567   0.648   7.250 -1.2068  0.8156  0.5077
 1434TIP3   OH225860   5.629   0.519   2.486  0.3666 -0.0028  0.0778
 1434TIP3    H125861   5.661   0.608   2.501  0.1027 -0.2154  2.1215
 1434TIP3    H225862   5.573   0.500   2.561  0.0730 -1.7485 -0.5364
 1435TIP3   OH225863   3.747   3.591   2.340 -0.2114  0.3266  0.0679
 1435TIP3    H125864   3.798   3.667   2.368 -1.7874  1.4585 -0.0296
 1435TIP3    H225865   3.726   3.545   2.421  0.4569  0.1626  0.1572
 1436TIP3   OH225866   6.036   2.180   1.074  0.1043  0.0896  0.2499
 1436TIP3    H125867   5.970   2.250   1.080 -0.8788 -0.7395 -0.4809
 1436TIP3    H225868   6.048   2.167   0.980  0.7598 -0.3022  0.3796
 1437TIP3   OH225869   5.957   2.775   7.569 -0.0321  0.2330 -0.2179
 1437TIP3    H125870   5.936   2.851   7.624  0.1175  0.6943 -0.7924
 1437TIP3    H225871   5.976   2.812   7.483  2.1990 -0.2474  0.0196
 1438TIP3   OH225872   0.217   3.830   0.843  0.2135 -0.2618  0.3949
 1438TIP3    H125873   0.128   3.799   0.860  0.2048  0.5890  2.1120
 1438TIP3    H225874   0.216   3.856   0.751 -0.8862 -1.6007 -0.0065
 1439TIP3   OH225875   4.669   6.755   8.194 -0.4262 -0.0548  0.2249
 1439TIP3    H125876   4.575   6.741   8.185 -0.0993 -1.2561 -1.8902
 1439TIP3    H225877   4.690   6.823   8.130  0.2177 -0.0744  0.4048
 1440TIP3   OH225878   3.004   3.951   6.981 -0.1002 -0.1129  0.2983
 1440TIP3    H125879   2.911   3.938   6.966  0.2191 -2.6356  0.0943
 1440TIP3    H225880   3.018   3.925   7.072  0.5229 -0.5651  0.0832
 1441TIP3   OH225881   5.215   6.370   8.372 -0.5339  0.1338  0.2271
 1441TIP3    H125882   5.134   6.393   8.326 -0.0115  1.6302  0.0046
 1441TIP3    H225883   5.245   6.290   8.329 -1.2956  0.2002 -0.4490
 1442TIP3   OH225884   5.731   5.991   0.468 -0.5612 -0.2534  0.7358
 1442TIP3    H125885   5.728   6.019   0.376 -0.1522  1.1270  1.1114
 1442TIP3    H225886   5.735   5.895   0.464  2.5913 -0.1801 -0.8115
 1443TIP3   OH225887   0.605   1.929   0.847 -0.5585 -0.0188 -0.2507
 1443TIP3    H125888   0.510   1.937   0.840 -0.3488  1.8260 -2.3614
 1443TIP3    H225889   0.632   2.008   0.894 -0.0657 -0.3929  0.0941
 1444TIP3   OH225890   0.970   1.302   2.526 -0.3611  0.2410  0.3101
 1444TIP3    H125891   1.015   1.271   2.604  0.3409  1.6941  0.5195
 1444TIP3    H225892   0.888   1.253   2.525  0.4002 -1.1218  0.9336
 1445TIP3   OH225893   4.642   6.548   8.716  0.5697 -0.4816 -0.2693
 1445TIP3    H125894   4.628   6.601   8.637 -0.5357 -0.9850 -0.4370
 1445TIP3    H225895   4.694   6.473   8.687 -0.6857 -1.1914 -0.7644
 1446TIP3   OH225896   5.265   3.365   6.514  0.7240 -0.0425  0.2663
 1446TIP3    H125897   5.207   3.406   6.578 -0.2957 -1.0018  0.0057
 1446TIP3    H225898   5.344   3.417   6.515  0.1480  0.8386  1.2265
 1447TIP3   OH225899   6.522   1.312   0.747  0.0502 -0.3812 -0.7021
 1447TIP3    H125900   6.478   1.229   0.764 -0.8200  0.2698  0.4182
 1447TIP3    H225901   6.613   1.288   0.729  0.2909 -1.4982  1.5526
 1448TIP3   OH225902   0.546   5.276   2.166 -0.0624  0.3559  0.3190
 1448TIP3    H125903   0.572   5.189   2.196 -1.1429 -0.6454 -1.4309
 1448TIP3    H225904   0.614   5.335   2.199  1.8705 -1.4535 -0.2487
 1449TIP3   OH225905   4.413   2.182   7.310 -0.5050  0.2307 -0.1039
 1449TIP3    H125906   4.421   2.267   7.354  2.6097  0.2092 -0.4203
 1449TIP3    H225907   4.420   2.202   7.217 -0.4574 -0.3081 -0.2212
 1450TIP3   OH225908   6.207   2.058   0.329 -0.4272 -0.1667  0.6302
 1450TIP3    H125909   6.275   1.991   0.332  1.3650  1.4983 -0.0841
 1450TIP3    H225910   6.128   2.014   0.361 -0.0406 -3.3338 -2.2387
 1451TIP3   OH225911   1.668   3.077   1.854 -0.0979 -0.1472  0.3336
 1451TIP3    H125912   1.626   2.998   1.820  0.2721  0.6200 -2.0749
 1451TIP3    H225913   1.631   3.148   1.801  0.0901  1.2300  1.9808
 1452TIP3   OH225914   2.682   5.568   0.173  0.3716 -0.7950  0.1255
 1452TIP3    H125915   2.603   5.515   0.164 -0.8668  1.1280 -0.8211
 1452TIP3    H225916   2.700   5.602   0.085  2.2882 -1.1874  0.3068
 1453TIP3   OH225917   5.267   5.227   8.504  0.2774  0.0329 -0.4717
 1453TIP3    H125918   5.347   5.176   8.490  0.1835 -0.5727  1.0620
 1453TIP3    H225919   5.210   5.200   8.432 -0.3440 -3.2672  1.0420
 1454TIP3   OH225920   0.087   3.913   7.896  0.2469 -0.0474  0.0038
 1454TIP3    H125921   0.103   3.900   7.803 -0.3931 -0.8041 -0.0011
 1454TIP3    H225922   0.080   3.825   7.932  0.6505  0.2356  0.8011
 1455TIP3   OH225923   3.772   0.046   1.263  0.4110  0.8602 -0.2188
 1455TIP3    H125924   3.706   0.115   1.274  0.2441  0.7347 -0.4194
 1455TIP3    H225925   3.735  -0.011   1.195  0.3750  0.3654  0.2112
 1456TIP3   OH225926   5.674   6.770   8.748  0.3375  0.0111 -0.0162
 1456TIP3    H125927   5.714   6.747   8.832  0.2082 -0.4852 -0.0861
 1456TIP3    H225928   5.693   6.694   8.692 -0.2934 -0.0167 -0.1902
 1457TIP3   OH225929   1.286   0.185   0.089  0.0702  0.5947  0.2013
 1457TIP3    H125930   1.221   0.190   0.020 -0.2347  2.4433  0.5767
 1457TIP3    H225931   1.283   0.271   0.132  2.6899  0.7172  0.2940
 1458TIP3   OH225932   1.946   6.229   0.092 -0.6237 -0.0115 -0.2236
 1458TIP3    H125933   1.987   6.145   0.070 -1.3886 -0.2654 -0.7435
 1458TIP3    H225934   1.902   6.212   0.175  0.6270  0.3767  0.5417
 1459TIP3   OH225935   2.424   5.680   7.571  0.5894  0.1508  0.0779
 1459TIP3    H125936   2.477   5.678   7.491 -0.2486  0.5334 -0.4969
 1459TIP3    H225937   2.479   5.726   7.635  2.3882 -2.4607  0.5817
 1460TIP3   OH225938   3.930   3.801   2.335 -0.2936  0.5895 -0.1869
 1460TIP3    H125939   3.872   3.868   2.372  2.1030  0.8331  3.7189
 1460TIP3    H225940   4.017   3.841   2.336  0.4117 -0.4334 -3.9817
 1461TIP3   OH225941   2.358   2.885   8.288 -0.1303 -0.3200 -0.2367
 1461TIP3    H125942   2.349   2.965   8.236  1.3013 -0.4163 -0.6788
 1461TIP3    H225943   2.298   2.898   8.362 -2.5960 -0.3757 -2.0671
 1462TIP3   OH225944   2.337   2.855   7.784  0.5087 -0.2322  0.5301
 1462TIP3    H125945   2.344   2.842   7.689 -0.7257 -0.4774  0.4568
 1462TIP3    H225946   2.411   2.912   7.805  2.0604 -1.8522 -0.2217
 1463TIP3   OH225947   0.818   1.248   7.220  0.0301 -0.7202 -0.1742
 1463TIP3    H125948   0.892   1.286   7.267  0.4227 -1.6070 -0.0602
 1463TIP3    H225949   0.743   1.264   7.278  0.2372 -0.4075  0.0136
 1464TIP3   OH225950   1.083   6.500   8.860  0.1043  0.1022 -0.4018
 1464TIP3    H125951   1.138   6.541   8.927 -0.7868  0.2071  0.2779
 1464TIP3    H225952   1.110   6.408   8.859 -1.4051 -0.4225  1.7209
 1465TIP3   OH225953   5.816   3.779   7.116 -1.0177 -0.3901 -0.1719
 1465TIP3    H125954   5.809   3.824   7.032  2.5995 -0.0173 -0.4495
 1465TIP3    H225955   5.903   3.803   7.148 -2.6038  0.3873  4.2658
 1466TIP3   OH225956   0.532   3.782   8.349  0.0756 -0.1546  0.0747
 1466TIP3    H125957   0.608   3.833   8.377  0.5059  1.4976 -3.5194
 1466TIP3    H225958   0.458   3.840   8.362 -0.0595 -0.3367  0.1216
 1467TIP3   OH225959   6.644   2.841   7.056 -0.4040  0.0592 -0.2715
 1467TIP3    H125960   6.574   2.903   7.079 -1.6733 -0.5094 -2.3171
 1467TIP3    H225961   6.627   2.820   6.964  0.4612 -2.7022  0.1222
 1468TIP3   OH225962   6.178   0.600   8.589 -0.0543 -0.4025 -0.1468
 1468TIP3    H125963   6.153   0.524   8.641  0.1877 -0.6479 -0.3889
 1468TIP3    H225964   6.095   0.641   8.565 -0.2411 -1.2549 -1.0144
 1469TIP3   OH225965   6.225   6.498   8.856 -0.5054  0.0775  0.4450
 1469TIP3    H125966   6.295   6.435   8.839 -0.4196  0.3956 -0.4278
 1469TIP3    H225967   6.208   6.491   8.950 -0.3983 -1.1383  0.3897
 1470TIP3   OH225968   5.953   3.907   1.950  0.4935  0.7091  0.1253
 1470TIP3    H125969   5.885   3.945   2.006 -0.6128 -1.2805  0.2082
 1470TIP3    H225970   6.024   3.884   2.010 -0.8897 -1.8852  0.9212
 1471TIP3   OH225971   1.949   3.769   1.688 -0.2529  0.6336 -0.1276
 1471TIP3    H125972   2.022   3.785   1.628 -0.6777  1.0484 -0.5494
 1471TIP3    H225973   1.990   3.755   1.773  0.3502  0.2529 -0.4686
 1472TIP3   OH225974   4.637   1.689   1.187 -0.7652  0.3715  0.3550
 1472TIP3    H125975   4.598   1.767   1.228  1.3522  1.0709  1.2159
 1472TIP3    H225976   4.634   1.622   1.255 -1.0905  0.1914  0.1691
 1473TIP3   OH225977   0.326   6.158   0.821  0.3339 -0.2357  0.0806
 1473TIP3    H125978   0.260   6.225   0.801 -0.4638 -0.7136  1.0538
 1473TIP3    H225979   0.370   6.190   0.900  0.9684 -0.1531 -0.2943
 1474TIP3   OH225980   0.062   2.896   2.006  0.1937 -0.2539  0.3925
 1474TIP3    H125981   0.004   2.970   1.986 -0.2815 -0.2346  1.6964
 1474TIP3    H225982   0.018   2.851   2.078  1.8279 -0.2153  1.4622
 1475TIP3   OH225983   4.528   5.843   0.776  0.2218  0.0766  0.0428
 1475TIP3    H125984   4.590   5.840   0.849  0.0203 -0.8865  0.1846
 1475TIP3    H225985   4.581   5.870   0.701  0.2216  2.2087  0.7238
 1476TIP3   OH225986   4.000   4.354   2.861 -0.0741  0.8450 -0.7217
 1476TIP3    H125987   3.974   4.406   2.937  1.5513  0.7693 -0.0902
 1476TIP3    H225988   4.089   4.324   2.880  0.2117  0.4475 -2.4458
 1477TIP3   OH225989   1.947   5.792   1.717  0.5007  0.0926 -0.2656
 1477TIP3    H125990   1.862   5.747   1.722 -0.2216  1.5088  0.9877
 1477TIP3    H225991   1.931   5.868   1.661  1.4950 -0.6740 -1.6543
 1478TIP3   OH225992   5.648   6.726   2.267 -0.1282  0.5252 -0.2548
 1478TIP3    H125993   5.645   6.779   2.346  0.7564  0.0320  0.1314
 1478TIP3    H225994   5.558   6.726   2.234 -0.7213 -0.0578  1.2816
 1479TIP3   OH225995   6.552   0.495   2.355 -0.0455  0.4930 -0.7293
 1479TIP3    H125996   6.457   0.507   2.360  0.0163  2.3751 -2.8518
 1479TIP3    H225997   6.588   0.583   2.355  1.8565 -0.1953  1.2157
 1480TIP3   OH225998   6.437   3.707   8.635  0.0586  0.0139 -0.0462
 1480TIP3    H125999   6.479   3.623   8.656  0.0764  0.0440  0.0414
 1480TIP3    H226000   6.355   3.683   8.592  0.0583 -0.0483 -0.0097
 1481TIP3   OH226001   2.347   5.779   1.551  0.3094 -0.0419  0.6941
 1481TIP3    H126002   2.267   5.815   1.512  0.4056 -1.2372 -0.6687
 1481TIP3    H226003   2.416   5.842   1.527  0.5913 -1.2998 -2.1968
 1482TIP3   OH226004   3.930   3.769   1.212 -0.0004  0.0138  0.4869
 1482TIP3    H126005   3.918   3.837   1.278  1.1514  0.7498 -0.0171
 1482TIP3    H226006   4.006   3.799   1.161 -0.3773 -0.9256 -0.6667
 1483TIP3   OH226007   5.344   2.501   1.746 -0.4353  1.2092  0.3418
 1483TIP3    H126008   5.369   2.436   1.811  1.7289  1.8169  0.1908
 1483TIP3    H226009   5.281   2.456   1.690  2.1874 -1.3923 -0.7624
 1484TIP3   OH226010   1.489   6.364   0.112  0.1960 -0.0136 -0.4138
 1484TIP3    H126011   1.508   6.457   0.122 -2.5039  0.6656 -0.9140
 1484TIP3    H226012   1.516   6.344   0.022  0.3239  0.4204 -0.4745
 1485TIP3   OH226013   2.913   0.078   2.250  0.1567 -0.5036 -0.1419
 1485TIP3    H126014   2.898   0.082   2.345 -3.2908  0.3925 -0.5850
 1485TIP3    H226015   2.946  -0.010   2.234 -1.3133 -1.4499  1.7005
 1486TIP3   OH226016   4.444   4.655   7.712 -0.1151 -0.1053 -0.1383
 1486TIP3    H126017   4.465   4.748   7.708  1.3899 -0.2850  1.9251
 1486TIP3    H226018   4.356   4.651   7.750  0.2608  0.4585  0.7989
 1487TIP3   OH226019   1.509   1.526   8.164 -0.7607  0.6762  0.3185
 1487TIP3    H126020   1.561   1.446   8.155 -0.1876  0.7368  2.4925
 1487TIP3    H226021   1.464   1.516   8.248 -1.1839  2.3669  0.3251
 1488TIP3   OH226022   3.056   0.070   7.037  0.2345  0.6205  0.0165
 1488TIP3    H126023   3.150   0.054   7.046 -0.0189 -0.7494  0.5551
 1488TIP3    H226024   3.050   0.142   6.975  1.6984  2.0555  1.4256
 1489TIP3   OH226025   4.077   5.632   1.950  0.6079 -0.1113 -0.6137
 1489TIP3    H126026   4.121   5.649   2.034  0.1317 -0.2187 -0.3371
 1489TIP3    H226027   4.085   5.714   1.902  0.6185  0.0515 -0.3391
 1490TIP3   OH226028   6.310   4.002   0.523  0.7829 -0.3978  0.6520
 1490TIP3    H126029   6.337   4.058   0.596  2.1129 -0.0827 -0.0462
 1490TIP3    H226030   6.349   3.917   0.542 -1.5550 -1.2770  1.9077
 1491TIP3   OH226031   2.743   0.820   1.288 -0.1753 -0.0658 -0.0933
 1491TIP3    H126032   2.648   0.808   1.283  0.0794 -2.1819 -0.9045
 1491TIP3    H226033   2.755   0.882   1.360 -2.1618 -0.0633  0.3006
 1492TIP3   OH226034   5.945   1.785   7.114  0.4897  0.6405 -0.1672
 1492TIP3    H126035   5.959   1.691   7.127  1.3915  0.5117 -1.8101
 1492TIP3    H226036   5.856   1.791   7.081  1.3003  0.0256 -2.6882
 1493TIP3   OH226037   0.786   4.026   0.812 -0.2644 -0.2909  0.5450
 1493TIP3    H126038   0.723   4.097   0.800 -0.3392 -0.5615 -0.7515
 1493TIP3    H226039   0.870   4.065   0.790 -0.4258 -0.8421 -1.1795
 1494TIP3   OH226040   3.443   6.652   8.437 -0.3539  0.1226 -0.0058
 1494TIP3    H126041   3.374   6.671   8.373  0.8540 -0.9162 -1.7180
 1494TIP3    H226042   3.503   6.593   8.391  0.6338 -0.6250  2.0859
 1495TIP3   OH226043   5.247   3.064   2.384  0.3697 -0.4034 -0.4093
 1495TIP3    H126044   5.340   3.052   2.406  0.6087 -0.5042 -1.4364
 1495TIP3    H226045   5.215   2.975   2.367  0.0277 -0.3875  0.1219
 1496TIP3   OH226046   2.283   1.602   6.811 -0.5395 -0.3807 -1.1797
 1496TIP3    H126047   2.306   1.693   6.830 -0.3490 -1.0271  2.3071
 1496TIP3    H226048   2.348   1.573   6.747  1.4009  1.0917  0.0087
 1497TIP3   OH226049   4.236   3.025   6.903 -0.2712  0.0160  0.0734
 1497TIP3    H126050   4.251   2.934   6.880  0.2028 -0.1411  0.9713
 1497TIP3    H226051   4.225   3.070   6.819 -1.9269 -1.0889 -0.3580
 1498TIP3   OH226052   1.774   1.452   8.028 -0.4347 -0.0225  0.5216
 1498TIP3    H126053   1.743   1.382   8.085 -0.5794 -0.8988 -0.5822
 1498TIP3    H226054   1.709   1.456   7.958  0.2038  0.3830 -0.0622
 1499TIP3   OH226055   1.147   6.231   8.866 -0.0367  0.4927 -0.2101
 1499TIP3    H126056   1.193   6.148   8.858 -0.0837  0.4922 -0.5031
 1499TIP3    H226057   1.093   6.222   8.944 -0.3947  0.0764 -0.5018
 1500TIP3   OH226058   2.844   2.765   8.814 -0.4117  0.2982 -0.4269
 1500TIP3    H126059   2.934   2.799   8.810 -0.1494 -0.4428 -1.0095
 1500TIP3    H226060   2.837   2.730   8.903  0.0120 -0.0105 -0.5135
 1501TIP3   OH226061   5.118   4.805   0.286  0.5248 -0.0541 -0.1293
 1501TIP3    H126062   5.184   4.833   0.349  0.4583 -2.2457  1.0081
 1501TIP3    H226063   5.165   4.797   0.203  1.4788 -0.6737  0.4594
 1502TIP3   OH226064   6.236   4.952   8.524  0.4207 -0.6326 -0.1323
 1502TIP3    H126065   6.217   5.037   8.563  0.0433 -1.0007  0.4967
 1502TIP3    H226066   6.323   4.962   8.486 -0.1856  0.4567 -1.2998
 1503TIP3   OH226067   1.588   4.416   7.884  0.1198  0.6606 -0.0593
 1503TIP3    H126068   1.604   4.382   7.797  1.0693  1.7538 -0.3495
 1503TIP3    H226069   1.626   4.504   7.882 -1.4906  1.4129  0.8911
 1504TIP3   OH226070   0.438   5.808   0.098  0.1940 -0.0417  0.3511
 1504TIP3    H126071   0.462   5.880   0.039  1.0743  0.6472  1.4815
 1504TIP3    H226072   0.391   5.746   0.044 -0.6515  1.4295 -0.6596
 1505TIP3   OH226073   6.537   5.907   2.166 -0.3008  0.0992  0.2302
 1505TIP3    H126074   6.574   5.854   2.095 -0.6427 -0.5823  0.5438
 1505TIP3    H226075   6.585   5.989   2.163 -0.8526  0.3839 -1.2871
 1506TIP3   OH226076   5.361   1.766   8.046  0.3750 -0.2864 -0.1285
 1506TIP3    H126077   5.372   1.671   8.043  0.0798 -0.3863  1.0943
 1506TIP3    H226078   5.274   1.781   8.011 -0.1111 -0.6099  0.8987
 1507TIP3   OH226079   0.666   1.462   0.383 -0.3882  0.5285 -0.1421
 1507TIP3    H126080   0.617   1.526   0.331  1.8235  1.7787 -0.7857
 1507TIP3    H226081   0.694   1.396   0.319 -2.4660 -1.0786  0.4819
 1508TIP3   OH226082   0.269   3.870   8.137 -0.6935 -0.2257  0.0256
 1508TIP3    H126083   0.238   3.946   8.088 -1.7184 -0.0884  0.8474
 1508TIP3    H226084   0.358   3.856   8.105 -0.2136  1.7374  0.3182
 1509TIP3   OH226085   0.295   3.428   8.837 -0.4446  0.5968  0.2991
 1509TIP3    H126086   0.381   3.394   8.811 -0.1728  0.0261  1.8307
 1509TIP3    H226087   0.233   3.363   8.803 -0.3239  1.1820 -1.1057
 1510TIP3   OH226088   5.397   1.206   8.145  0.6695 -0.3865  0.7529
 1510TIP3    H126089   5.360   1.150   8.077  2.4124 -3.8199  2.3570
 1510TIP3    H226090   5.492   1.204   8.128  0.8682  1.3257  1.4839
 1511TIP3   OH226091   3.011   2.821   8.138 -0.0853  0.4120 -0.2066
 1511TIP3    H126092   2.957   2.751   8.174  0.1498  1.6174  2.7666
 1511TIP3    H226093   2.956   2.899   8.144  0.8078  1.0672 -0.3287
 1512TIP3   OH226094   5.766   1.382   7.890  0.1635 -0.0461 -0.0519
 1512TIP3    H126095   5.673   1.365   7.870 -0.0217  2.1446 -1.4394
 1512TIP3    H226096   5.812   1.358   7.809  0.7918 -0.8216  0.5252
 1513TIP3   OH226097   3.887   2.257   1.050 -0.1527  0.5419 -0.0648
 1513TIP3    H126098   3.900   2.163   1.063 -0.0985  0.5070 -0.3783
 1513TIP3    H226099   3.802   2.275   1.090 -1.0559  0.0029 -1.6861
 1514TIP3   OH226100   6.197   6.728   1.037  0.2063 -0.8744 -0.7670
 1514TIP3    H126101   6.214   6.767   1.123  0.1047 -1.1179 -0.6359
 1514TIP3    H226102   6.158   6.799   0.986  0.4367 -0.6774 -0.6694
 1515TIP3   OH226103   0.729   5.635   1.762 -0.3842 -0.2629 -0.1296
 1515TIP3    H126104   0.783   5.628   1.841 -0.2824 -0.6003 -0.2259
 1515TIP3    H226105   0.760   5.564   1.706 -0.2593  0.1500 -0.5934
 1516TIP3   OH226106   4.480   1.207   1.848  0.3598 -0.1527  0.3297
 1516TIP3    H126107   4.500   1.257   1.928 -0.3036 -1.5468  1.4047
 1516TIP3    H226108   4.467   1.117   1.878 -0.9957 -0.5180 -1.2083
 1517TIP3   OH226109   2.015   5.275   2.409  0.7334 -0.5311 -0.3522
 1517TIP3    H126110   2.067   5.294   2.487 -0.0437  0.0485  0.0461
 1517TIP3    H226111   1.929   5.313   2.428  0.9106  0.8273 -2.0312
 1518TIP3   OH226112   1.363   2.236   1.014 -0.1153  0.0892 -0.3014
 1518TIP3    H126113   1.404   2.151   1.033 -1.3186 -0.7453 -1.2608
 1518TIP3    H226114   1.273   2.214   0.993  0.1705  1.2748 -3.2240
 1519TIP3   OH226115   4.554   0.573   0.609 -0.3801 -0.0874  0.1510
 1519TIP3    H126116   4.616   0.580   0.537 -0.2853 -1.2234  0.1060
 1519TIP3    H226117   4.469   0.595   0.569 -0.8485 -3.5839 -1.1378
 1520TIP3   OH226118   1.815   5.439   2.983  0.0034 -0.0333  0.4902
 1520TIP3    H126119   1.774   5.367   3.031 -0.9127 -0.1790 -0.4855
 1520TIP3    H226120   1.901   5.405   2.957 -0.1379 -0.5154  0.6498
 1521TIP3   OH226121   1.580   3.851   2.508  0.6999  0.3739  0.0016
 1521TIP3    H126122   1.492   3.812   2.510  1.2783 -1.2760 -2.3337
 1521TIP3    H226123   1.564   3.944   2.490 -0.5788  0.3225  0.7062
 1522TIP3   OH226124   0.416   0.500   7.794  0.1628 -0.0119 -0.5042
 1522TIP3    H126125   0.346   0.502   7.729 -0.4866  0.1627  0.2006
 1522TIP3    H226126   0.495   0.480   7.742 -0.5393 -1.1747 -1.1696
 1523TIP3   OH226127   6.072   6.440   2.643 -0.4111 -0.3943 -0.4137
 1523TIP3    H126128   6.089   6.362   2.695 -1.2446 -1.0709 -1.1248
 1523TIP3    H226129   6.157   6.462   2.605 -0.0624 -0.6400  0.2100
 1524TIP3   OH226130   5.671   0.658   0.216  0.5294 -0.1733 -0.2139
 1524TIP3    H126131   5.670   0.563   0.207  1.8319 -0.2346  0.0784
 1524TIP3    H226132   5.602   0.677   0.279  0.8513 -1.0190  0.4140
 1525TIP3   OH226133   3.474   1.358   1.767 -0.4793  0.0011 -0.3097
 1525TIP3    H126134   3.393   1.407   1.758  0.5056  1.6635 -0.6382
 1525TIP3    H226135   3.517   1.366   1.681  0.2453 -0.4278 -0.0027
 1526TIP3   OH226136   0.501   4.553   1.490 -0.2942 -0.6285  0.2382
 1526TIP3    H126137   0.590   4.586   1.501 -0.7893  0.1352  2.2507
 1526TIP3    H226138   0.507   4.460   1.513 -0.0927 -0.4801  0.7950
 1527TIP3   OH226139   5.082   4.925   2.878 -0.4713 -0.3141  0.3863
 1527TIP3    H126140   5.105   4.837   2.909 -1.3785  0.2160  2.7866
 1527TIP3    H226141   5.158   4.978   2.901  0.9647 -0.7005 -2.8688
 1528TIP3   OH226142   6.683   4.055   8.765  0.2551 -0.5767 -0.9115
 1528TIP3    H126143   6.724   4.069   8.850  0.1876  1.4388 -1.1769
 1528TIP3    H226144   6.751   4.079   8.702  0.1764 -1.6932 -1.4553
 1529TIP3   OH226145   1.042   4.843   7.870 -0.4936 -0.4638 -0.1330
 1529TIP3    H126146   1.024   4.815   7.960 -0.3053 -1.1945 -0.3108
 1529TIP3    H226147   1.071   4.763   7.826 -1.3881 -0.2951 -1.0605
 1530TIP3   OH226148   5.714   3.938   7.312  0.0627  0.8944  0.2942
 1530TIP3    H126149   5.730   3.870   7.246 -2.1663  1.5697 -1.0444
 1530TIP3    H226150   5.671   4.009   7.264  0.5432  2.4518  2.0378
 1531TIP3   OH226151   6.613   0.345   2.122 -0.0819  0.3489 -1.0216
 1531TIP3    H126152   6.614   0.387   2.208  0.7854 -2.4231  0.4401
 1531TIP3    H226153   6.700   0.307   2.113 -1.2879 -2.5872 -1.3689
 1532TIP3   OH226154   1.643   4.963   8.135  0.0397  0.4781  0.5750
 1532TIP3    H126155   1.573   4.902   8.109 -0.1544  0.6314  0.7259
 1532TIP3    H226156   1.711   4.951   8.070  0.2122 -0.2585  0.8747
 1533TIP3   OH226157   6.580   3.306   1.980  0.0117  0.0033  0.1051
 1533TIP3    H126158   6.656   3.308   2.038  0.4704 -0.6456 -0.4560
 1533TIP3    H226159   6.505   3.327   2.037  0.0972 -3.0149  1.5087
 1534TIP3   OH226160   6.229   3.898   2.038 -0.4794 -0.0644  0.4405
 1534TIP3    H126161   6.308   3.920   1.988 -0.3732  0.4685  0.8347
 1534TIP3    H226162   6.216   3.804   2.021 -0.2963  0.0457 -0.3662
 1535TIP3   OH226163   0.996   5.657   8.881  0.7450  0.7348  0.2020
 1535TIP3    H126164   0.987   5.614   8.966  1.5474 -0.8667 -0.4665
 1535TIP3    H226165   1.012   5.585   8.820  2.4279  2.0027 -0.9590
 1536TIP3   OH226166   1.111   5.033   7.108  0.3935 -0.0289  0.4331
 1536TIP3    H126167   1.035   5.087   7.129  1.0003  1.0613 -0.0515
 1536TIP3    H226168   1.080   4.943   7.113 -0.6298  0.3615  1.3792
 1537TIP3   OH226169   4.933   3.394   1.301  0.3308  0.3105  0.4553
 1537TIP3    H126170   4.841   3.404   1.277  0.3728  0.5078  0.3764
 1537TIP3    H226171   4.945   3.455   1.375  0.6718  1.1252 -0.2471
 1538TIP3   OH226172   1.313   4.790   7.274  0.3737  0.0697 -0.2221
 1538TIP3    H126173   1.236   4.820   7.322  1.0740  0.0040  0.9847
 1538TIP3    H226174   1.288   4.797   7.181 -0.8895  0.5243  0.1332
 1539TIP3   OH226175   4.470   0.379   0.243 -0.5505  0.5622  0.2080
 1539TIP3    H126176   4.565   0.367   0.248 -0.7505 -1.1663  0.3049
 1539TIP3    H226177   4.434   0.291   0.237 -2.0262  1.2249 -2.7045
 1540TIP3   OH226178   0.441   2.125   7.177 -0.4158 -0.7545  0.4963
 1540TIP3    H126179   0.417   2.089   7.262 -2.9676 -2.3076 -0.7565
 1540TIP3    H226180   0.516   2.073   7.149  0.8340  0.1741  1.9883
 1541TIP3   OH226181   4.538   4.008   1.314  0.1766 -0.0695  0.3161
 1541TIP3    H126182   4.576   4.081   1.265  1.5408 -0.8787  0.1238
 1541TIP3    H226183   4.443   4.021   1.308  0.3895  1.3091 -0.2703
 1542TIP3   OH226184   0.357   2.842   0.269 -0.0570  0.0903  0.2736
 1542TIP3    H126185   0.304   2.884   0.202  0.5335 -0.5290 -0.5950
 1542TIP3    H226186   0.443   2.830   0.228 -0.0289 -1.3887  0.7209
 1543TIP3   OH226187   3.296   5.914   8.368 -0.5046  0.1680 -0.0181
 1543TIP3    H126188   3.359   5.984   8.353 -0.4551  0.1733  0.2022
 1543TIP3    H226189   3.341   5.835   8.341 -0.3858  0.1660  0.1858
 1544TIP3   OH226190   4.050   0.900   3.190 -0.4781  0.2945 -0.1560
 1544TIP3    H126191   3.972   0.852   3.218  1.1052 -2.3157  0.1178
 1544TIP3    H226192   4.038   0.913   3.096 -0.7843 -1.0936 -0.3379
 1545TIP3   OH226193   1.978   4.978   8.053  0.1566  0.6588 -0.1676
 1545TIP3    H126194   2.067   4.963   8.020  0.7366  1.5224  0.9123
 1545TIP3    H226195   1.984   5.063   8.096 -0.7777 -0.0299  1.3690
 1546TIP3   OH226196   1.712   5.367   8.529  0.3842 -0.1756 -0.4500
 1546TIP3    H126197   1.732   5.406   8.444  1.7653  1.5024  0.5811
 1546TIP3    H226198   1.694   5.442   8.587 -1.3068 -1.3058  0.5695
 1547TIP3   OH226199   5.675   4.395   2.838 -0.0051  0.0576 -0.3358
 1547TIP3    H126200   5.740   4.325   2.831 -0.8365 -0.6866 -0.8144
 1547TIP3    H226201   5.709   4.452   2.907  0.7398 -0.7634 -0.0016
 1548TIP3   OH226202   5.540   5.132   8.399 -0.0871 -0.4157  0.8667
 1548TIP3    H126203   5.617   5.154   8.451 -0.1658  1.4741  0.2821
 1548TIP3    H226204   5.548   5.188   8.321 -1.3541 -1.1897  0.1507
 1549TIP3   OH226205   0.149   3.283   1.931 -0.2984  0.1180  0.3774
 1549TIP3    H126206   0.178   3.211   1.986  1.5018  1.2820  1.0408
 1549TIP3    H226207   0.211   3.284   1.858 -2.2855 -1.0181 -1.4229
 1550TIP3   OH226208   0.186   4.485   2.666 -0.1127  0.3877 -0.2415
 1550TIP3    H126209   0.168   4.392   2.680 -1.0650  0.5368 -0.3941
 1550TIP3    H226210   0.135   4.530   2.734 -1.8762  0.9195 -1.7998
 1551TIP3   OH226211   2.615   4.421   8.822 -0.1689 -0.7479 -0.4812
 1551TIP3    H126212   2.584   4.461   8.903 -2.2758  0.1852 -1.6604
 1551TIP3    H226213   2.556   4.454   8.755  1.7605 -1.1535 -2.5038
 1552TIP3   OH226214   3.906   5.292   0.428  0.0750  0.6676 -0.2207
 1552TIP3    H126215   3.875   5.364   0.373  0.2486  0.5649 -0.4502
 1552TIP3    H226216   3.987   5.325   0.466  0.5380  0.3181 -0.8963
 1553TIP3   OH226217   6.092   5.537   8.535  0.6431  0.0937  0.1296
 1553TIP3    H126218   6.000   5.528   8.560  0.2140  1.2666 -0.9578
 1553TIP3    H226219   6.126   5.605   8.593  0.6280  0.1897  0.0261
 1554TIP3   OH226220   0.976   1.869   0.920 -0.2267 -0.4506 -0.0465
 1554TIP3    H126221   0.968   1.880   0.825 -1.2771 -0.0560  0.0746
 1554TIP3    H226222   0.951   1.777   0.936  2.4380 -1.3278 -0.3881
 1555TIP3   OH226223   0.873   4.961   0.246 -0.6177 -0.2458  0.3068
 1555TIP3    H126224   0.910   4.948   0.159  0.8945  2.4779  0.4403
 1555TIP3    H226225   0.854   5.055   0.250 -1.7504 -0.5111  2.5091
 1556TIP3   OH226226   0.725   3.897   7.786  0.2016 -0.2645 -0.4438
 1556TIP3    H126227   0.733   3.990   7.805 -0.9626  0.1430 -1.7870
 1556TIP3    H226228   0.731   3.891   7.691  0.6578 -1.6173 -0.3539
 1557TIP3   OH226229   3.999   1.887   0.140  0.2274  0.2881 -0.2054
 1557TIP3    H126230   4.068   1.928   0.087  0.3759 -1.3918 -1.3748
 1557TIP3    H226231   4.047   1.841   0.209  0.2499 -0.4021 -0.6776
 1558TIP3   OH226232   1.684   2.084   0.155  0.6886  0.1992  0.2978
 1558TIP3    H126233   1.718   2.014   0.099  0.1895  0.7826 -0.7531
 1558TIP3    H226234   1.674   2.159   0.096  1.0189  1.1015  1.3610
 1559TIP3   OH226235   5.281   3.689   8.702  0.4490 -0.4748 -0.0138
 1559TIP3    H126236   5.280   3.678   8.607 -0.3090 -0.7295  0.0194
 1559TIP3    H226237   5.191   3.712   8.725  0.6443 -0.3303  0.6347
 1560TIP3   OH226238   6.489   2.431   2.413 -0.1493  0.2501 -0.1694
 1560TIP3    H126239   6.568   2.467   2.372  0.3095 -2.8820 -2.4314
 1560TIP3    H226240   6.522   2.362   2.471 -1.1368  1.0169  1.3575
 1561TIP3   OH226241   1.725   4.166   2.771  0.5246 -0.2700  0.1253
 1561TIP3    H126242   1.820   4.158   2.763  0.4327 -1.2273 -0.1089
 1561TIP3    H226243   1.712   4.243   2.827  1.4557 -0.6795  0.9305
 1562TIP3   OH226244   4.254   2.062   0.900 -0.2894 -0.7133  0.5529
 1562TIP3    H126245   4.189   1.995   0.876  0.2478 -0.9695 -0.2481
 1562TIP3    H226246   4.330   2.011   0.927 -0.0383 -0.4233  0.3893
 1563TIP3   OH226247   0.668   6.761   0.815  0.1971  0.5166 -0.2218
 1563TIP3    H126248   0.753   6.784   0.778 -0.3392  0.2696 -1.6813
 1563TIP3    H226249   0.609   6.761   0.740 -0.9990  0.2311  0.6979
 1564TIP3   OH226250   3.681   0.517   1.899  0.5123  0.4359  0.2134
 1564TIP3    H126251   3.734   0.446   1.935  0.1677  0.4824  0.8364
 1564TIP3    H226252   3.698   0.515   1.805 -0.1556 -1.0485  0.0874
 1565TIP3   OH226253   6.743   0.730   8.276 -0.0886 -0.1199 -0.3369
 1565TIP3    H126254   6.787   0.647   8.258  1.1353  0.5528 -0.4916
 1565TIP3    H226255   6.653   0.716   8.245  0.8464 -0.3953 -3.1899
 1566TIP3   OH226256   1.495   2.092   8.469 -0.5798 -0.2275  0.0382
 1566TIP3    H126257   1.549   2.026   8.424 -1.1697 -0.3078 -0.5587
 1566TIP3    H226258   1.421   2.106   8.410 -1.0429  0.1300  0.7026
 1567TIP3   OH226259   3.538   2.839   8.522  0.2071 -0.6092 -0.1325
 1567TIP3    H126260   3.461   2.895   8.514  0.0128 -0.8391  0.1430
 1567TIP3    H226261   3.506   2.751   8.502  0.4266 -0.6844 -0.1541
 1568TIP3   OH226262   0.451   3.679   1.600  0.3126 -0.1684 -0.2647
 1568TIP3    H126263   0.359   3.683   1.627  0.0906  1.2514 -1.1091
 1568TIP3    H226264   0.456   3.604   1.542 -0.8750  1.0474 -2.0404
 1569TIP3   OH226265   3.038   4.123   2.190 -0.6304 -0.3078  0.5008
 1569TIP3    H126266   3.011   4.159   2.275 -1.0669 -0.5324  0.4623
 1569TIP3    H226267   3.133   4.114   2.197 -0.7477 -1.1381  1.2979
 1570TIP3   OH226268   1.873   0.316   0.901 -0.0869  0.1775  0.0832
 1570TIP3    H126269   1.894   0.324   0.994  0.7301  0.2871 -0.0992
 1570TIP3    H226270   1.794   0.368   0.889  0.8082  1.6668  0.3938
 1571TIP3   OH226271   0.132   5.550   0.304 -0.3035 -0.0167  0.3286
 1571TIP3    H126272   0.083   5.604   0.241 -1.0811  0.4289  1.2809
 1571TIP3    H226273   0.164   5.612   0.369  0.6305 -0.4489  0.2912
 1572TIP3   OH226274   5.734   6.133   0.204  0.0315  0.4951 -0.2675
 1572TIP3    H126275   5.781   6.113   0.124  1.4626  1.2554  0.3399
 1572TIP3    H226276   5.653   6.175   0.175  1.2580  2.3040 -1.3342
 1573TIP3   OH226277   3.463   3.031   0.354  0.1293  0.2813 -0.4919
 1573TIP3    H126278   3.543   3.050   0.304 -0.0420  0.2270 -0.7910
 1573TIP3    H226279   3.412   2.973   0.297 -1.1060  2.0168 -1.2460
 1574TIP3   OH226280   6.748   1.889   6.931  0.6943  0.8908  0.2719
 1574TIP3    H126281   6.805   1.942   6.875 -2.5711  1.1187 -3.2059
 1574TIP3    H226282   6.689   1.952   6.971  0.1052  0.3302  0.2946
 1575TIP3   OH226283   6.153   0.369   0.508  0.2905  0.4981  0.7061
 1575TIP3    H126284   6.233   0.422   0.507  0.0340  0.9075  1.3601
 1575TIP3    H226285   6.181   0.283   0.540  0.6471  0.3289 -0.0379
 1576TIP3   OH226286   3.402   1.917   1.229 -0.1738  0.3134 -0.0283
 1576TIP3    H126287   3.482   1.872   1.253 -0.4455 -1.1141 -1.5707
 1576TIP3    H226288   3.386   1.979   1.299  1.1638 -0.8277  1.3337
 1577TIP3   OH226289   3.627   4.886   7.914 -0.8397  0.8744 -0.3129
 1577TIP3    H126290   3.709   4.914   7.955 -0.3263 -0.4348 -0.4201
 1577TIP3    H226291   3.636   4.911   7.822 -0.4455  0.4925 -0.3793
 1578TIP3   OH226292   6.625   4.144   7.875  0.3978  0.2712 -0.4747
 1578TIP3    H126293   6.658   4.074   7.932  0.5195  1.1870  0.6254
 1578TIP3    H226294   6.681   4.219   7.895 -0.0644  0.8364 -1.2499
 1579TIP3   OH226295   5.008   0.448   1.585  0.0672 -0.1397 -0.0838
 1579TIP3    H126296   4.987   0.499   1.663  0.1618  0.1871 -0.2740
 1579TIP3    H226297   5.045   0.511   1.524 -0.5995 -0.2763 -0.6325
 1580TIP3   OH226298   0.076   5.899   1.258 -0.1047 -0.3300  0.3352
 1580TIP3    H126299   0.073   5.920   1.165  1.0685 -0.8608  0.1576
 1580TIP3    H226300   0.169   5.905   1.281 -0.3772 -0.2282  1.4650
 1581TIP3   OH226301   4.439   0.048   1.402  0.1665  0.2846  0.1823
 1581TIP3    H126302   4.366   0.091   1.445 -0.1879 -0.5468  0.4318
 1581TIP3    H226303   4.491   0.010   1.473 -0.5004 -1.2154 -0.0946
 1582TIP3   OH226304   3.560   1.138   0.442  0.5941 -0.0797 -0.3007
 1582TIP3    H126305   3.605   1.111   0.362  1.3498 -0.0651  0.1106
 1582TIP3    H226306   3.523   1.057   0.477  1.3575 -0.2995  0.0058
 1583TIP3   OH226307   2.124   5.810   2.071 -0.1868 -0.0385  0.2150
 1583TIP3    H126308   2.151   5.730   2.117 -1.2520 -0.3061  0.3946
 1583TIP3    H226309   2.034   5.792   2.043 -0.7169  1.3854  0.9299
 1584TIP3   OH226310   5.259   5.562   2.242  0.3091 -0.2600 -0.0204
 1584TIP3    H126311   5.350   5.532   2.248  0.4034  0.1231  0.5041
 1584TIP3    H226312   5.219   5.535   2.325  0.7013  2.0479  0.9882
 1585TIP3   OH226313   1.611   2.176   1.931  0.1181  0.2831  0.1798
 1585TIP3    H126314   1.529   2.140   1.899 -0.0268 -0.1065  0.9876
 1585TIP3    H226315   1.636   2.120   2.004  0.2972  1.3255  0.9399
 1586TIP3   OH226316   1.899   3.765   0.380 -0.2225  0.1696  0.1439
 1586TIP3    H126317   1.985   3.757   0.340 -0.7172 -1.1463 -0.7329
 1586TIP3    H226318   1.839   3.728   0.314 -1.3893  0.6060  0.9363
 1587TIP3   OH226319   2.912   1.323   0.599  0.3269  0.0973  0.1397
 1587TIP3    H126320   3.000   1.356   0.617  0.9615 -0.5595 -1.5478
 1587TIP3    H226321   2.919   1.228   0.610 -0.7082  0.1683  1.9088
 1588TIP3   OH226322   5.406   2.440   2.145  0.1385  0.0772 -0.1512
 1588TIP3    H126323   5.340   2.466   2.209  0.2386 -1.0865  0.4687
 1588TIP3    H226324   5.363   2.373   2.092  0.3219  0.4378 -0.7576
 1589TIP3   OH226325   1.587   1.992   0.640  0.4958  0.1342 -0.2885
 1589TIP3    H126326   1.579   1.942   0.721 -1.1544  0.3577 -0.2836
 1589TIP3    H226327   1.631   2.073   0.667  1.8571 -0.6676 -0.0307
 1590TIP3   OH226328   0.823   0.883   1.634 -0.4926  0.1905 -0.1504
 1590TIP3    H126329   0.818   0.969   1.592  1.0844  2.4949  3.8142
 1590TIP3    H226330   0.916   0.863   1.636 -0.4155  0.4895  2.5179
 1591TIP3   OH226331   2.172   6.612   7.400  0.0374 -0.4855 -0.4769
 1591TIP3    H126332   2.197   6.678   7.336 -0.1572  0.7780  0.6791
 1591TIP3    H226333   2.134   6.541   7.349 -0.7976  0.7925 -1.7199
 1592TIP3   OH226334   2.622   6.263   3.234 -0.2129  0.0967 -0.1034
 1592TIP3    H126335   2.595   6.342   3.281 -0.0956 -1.0281  1.9851
 1592TIP3    H226336   2.713   6.281   3.210 -0.1485  0.5801  0.4527
 1593TIP3   OH226337   4.742   2.822   1.113 -1.0929 -0.3261 -0.9400
 1593TIP3    H126338   4.718   2.738   1.153 -1.0006 -0.1542 -0.5281
 1593TIP3    H226339   4.691   2.887   1.161  1.0886  0.2014  0.8053
 1594TIP3   OH226340   0.825   0.391   7.882 -0.2498  0.2981  0.0922
 1594TIP3    H126341   0.910   0.433   7.897 -0.3133  0.7313 -0.6651
 1594TIP3    H226342   0.804   0.348   7.964 -0.4548  2.2683  1.1380
 1595TIP3   OH226343   4.667   0.273   8.550 -0.3345 -0.4200 -0.3206
 1595TIP3    H126344   4.718   0.284   8.469  0.7366  0.5572  0.4401
 1595TIP3    H226345   4.605   0.203   8.531  1.5278 -1.9117 -1.2047
 1596TIP3   OH226346   2.643   0.956   0.320 -0.2446  0.4447 -0.3906
 1596TIP3    H126347   2.588   0.973   0.397 -0.8866  0.7318 -0.9019
 1596TIP3    H226348   2.610   1.016   0.254  0.6153  0.5342 -0.7508
 1597TIP3   OH226349   4.500   0.655   0.232  0.1107  0.2569 -0.1353
 1597TIP3    H126350   4.490   0.560   0.243  0.6769  0.2516  0.3567
 1597TIP3    H226351   4.450   0.693   0.304  1.8465  0.2692  1.1227
 1598TIP3   OH226352   1.112   5.058   1.958 -0.4531  0.1368 -0.1054
 1598TIP3    H126353   1.036   5.056   1.899 -1.5855  1.9245  1.1951
 1598TIP3    H226354   1.127   5.151   1.974  0.4486 -0.2760  1.6387
 1599TIP3   OH226355   5.373   4.876   1.544  0.7587  0.0448 -0.1886
 1599TIP3    H126356   5.296   4.914   1.503  1.4404  0.2879 -1.2836
 1599TIP3    H226357   5.419   4.832   1.473  0.7791 -1.5465  0.7668
 1600TIP3   OH226358   6.520   2.291   0.721  0.1122 -0.2813 -0.1990
 1600TIP3    H126359   6.567   2.219   0.761 -0.7656 -0.9394 -0.3134
 1600TIP3    H226360   6.454   2.315   0.786 -1.8698 -1.9018 -1.4765
 1601TIP3   OH226361   3.945   0.540   2.121 -0.0395  0.4280 -0.3308
 1601TIP3    H126362   3.906   0.611   2.070 -2.6472 -1.6297 -1.4627
 1601TIP3    H226363   4.007   0.498   2.061 -0.7742 -0.0664 -0.7669
 1602TIP3   OH226364   3.836   4.497   6.955  0.0736  0.5683 -0.3122
 1602TIP3    H126365   3.928   4.499   6.929  0.1761  3.0194  0.0410
 1602TIP3    H226366   3.788   4.522   6.876  0.0704  3.4132  0.4868
 1603TIP3   OH226367   3.421   6.058   7.711 -0.1880 -0.2264  0.2442
 1603TIP3    H126368   3.345   6.019   7.668 -0.2289  0.3139 -0.1959
 1603TIP3    H226369   3.385   6.129   7.764  0.1135  0.9881 -1.0998
 1604TIP3   OH226370   5.800   4.100   1.201 -0.4708 -0.5540  0.0824
 1604TIP3    H126371   5.884   4.055   1.196 -0.0970 -0.3794  3.0097
 1604TIP3    H226372   5.739   4.035   1.235 -1.1316 -0.1886 -0.3634
 1605TIP3   OH226373   2.962   1.512   0.169  0.7101  0.2788  0.4420
 1605TIP3    H126374   3.054   1.485   0.167  0.5160 -0.4842  1.3819
 1605TIP3    H226375   2.954   1.574   0.096  2.0177  0.5286  0.4902
 1606TIP3   OH226376   4.838   2.802   7.627 -0.4950  0.7155 -0.0699
 1606TIP3    H126377   4.930   2.799   7.652 -0.8000 -0.9282  1.0418
 1606TIP3    H226378   4.826   2.727   7.568 -1.4351 -0.0650  1.0689
 1607TIP3   OH226379   6.376   5.934   0.687  0.3225  0.6109 -0.3737
 1607TIP3    H126380   6.322   5.863   0.721  3.3703 -1.5847  0.2650
 1607TIP3    H226381   6.370   5.925   0.592 -0.6582  0.6295 -0.3245
 1608TIP3   OH226382   6.737   0.109   7.863  0.1653 -0.4685  0.1568
 1608TIP3    H126383   6.803   0.177   7.851  0.0326 -0.1321  1.2924
 1608TIP3    H226384   6.661   0.140   7.814  0.4967 -0.3720 -0.3041
 1609TIP3   OH226385   5.779   3.870   8.204 -0.6450 -0.0432 -0.4367
 1609TIP3    H126386   5.836   3.811   8.155 -2.2300 -3.0681  1.0855
 1609TIP3    H226387   5.694   3.862   8.162 -0.9700  1.0394 -0.0374
 1610TIP3   OH226388   1.526   3.631   6.860 -0.3716  0.1352 -0.0244
 1610TIP3    H126389   1.508   3.699   6.925  0.8529  0.3106  0.1528
 1610TIP3    H226390   1.460   3.645   6.792 -0.2748  1.3744  0.1168
 1611TIP3   OH226391   6.194   5.279   2.230 -0.3314 -0.1847  0.0443
 1611TIP3    H126392   6.236   5.353   2.272  0.4772 -0.8828  0.5051
 1611TIP3    H226393   6.235   5.274   2.144 -1.5223  0.8455 -0.6247
 1612TIP3   OH226394   3.858   3.699   0.210  0.1623 -0.3083  0.0775
 1612TIP3    H126395   3.893   3.686   0.298  0.5519  2.5896  0.4406
 1612TIP3    H226396   3.934   3.722   0.156 -0.1769 -1.3503 -0.9026
 1613TIP3   OH226397   6.660   4.495   2.131 -0.3453 -0.0282  0.7304
 1613TIP3    H126398   6.729   4.435   2.102 -0.3617 -0.0595  0.7563
 1613TIP3    H226399   6.671   4.502   2.225 -0.3100  0.0527  0.7197
 1614TIP3   OH226400   0.327   0.448   8.040  0.4019 -0.2978  0.1790
 1614TIP3    H126401   0.371   0.364   8.054  1.5697  0.4081  0.8604
 1614TIP3    H226402   0.334   0.463   7.945 -0.4334 -1.2841 -0.0528
 1615TIP3   OH226403   1.760   6.701   1.838  0.1490 -0.4803 -0.7823
 1615TIP3    H126404   1.840   6.649   1.845  0.5039  0.1367 -0.1668
 1615TIP3    H226405   1.785   6.777   1.786 -0.1222 -0.4431 -0.8601
 1616TIP3   OH226406   2.747   4.651   8.729  0.0153 -0.2708  0.0210
 1616TIP3    H126407   2.736   4.562   8.764  0.4899 -0.6123 -0.6713
 1616TIP3    H226408   2.839   4.656   8.706 -0.1554  0.1634 -0.5886
 1617TIP3   OH226409   6.488   4.500   7.467  0.2162 -0.2598 -0.0570
 1617TIP3    H126410   6.478   4.578   7.522  1.5421 -0.9065  1.1577
 1617TIP3    H226411   6.486   4.534   7.377 -0.4249  1.0088  0.4055
 1618TIP3   OH226412   5.100   3.419   7.526 -0.1171  0.2814  0.0209
 1618TIP3    H126413   5.133   3.367   7.600 -0.6400 -0.5020 -0.2788
 1618TIP3    H226414   5.016   3.452   7.557 -0.6250 -0.5549 -0.4242
 1619TIP3   OH226415   2.040   0.337   7.787  0.0768 -0.1051 -0.2693
 1619TIP3    H126416   2.121   0.369   7.748  0.7435 -1.4101 -0.0108
 1619TIP3    H226417   1.991   0.416   7.809  2.1617  0.7932  1.4277
 1620TIP3   OH226418   1.026   2.687   7.502  0.1164  0.0522 -0.0814
 1620TIP3    H126419   1.058   2.769   7.465  0.9166  0.3955  1.2757
 1620TIP3    H226420   1.030   2.624   7.430  0.7030  0.8940 -0.8048
 1621TIP3   OH226421   1.442   2.896   7.140  0.1263  0.4383  0.0418
 1621TIP3    H126422   1.464   2.884   7.233 -0.7436  1.0195  0.3452
 1621TIP3    H226423   1.524   2.884   7.093  0.5183 -0.1839  0.8632
 1622TIP3   OH226424   2.564   4.082   1.631  0.0985  0.0495 -0.5301
 1622TIP3    H126425   2.564   4.153   1.696  1.4062 -0.3899 -0.0183
 1622TIP3    H226426   2.472   4.065   1.614 -0.2693  2.0009 -0.8117
 1623TIP3   OH226427   4.318   6.155   2.047 -0.5411 -0.1544  0.3845
 1623TIP3    H126428   4.313   6.227   2.110  0.5957 -0.0111  0.3386
 1623TIP3    H226429   4.239   6.103   2.063 -1.2405  0.9407  0.6082
 1624TIP3   OH226430   3.749   6.773   8.522  0.2072 -0.1865 -0.0626
 1624TIP3    H126431   3.682   6.833   8.489  0.9963  0.4966 -0.4692
 1624TIP3    H226432   3.750   6.788   8.616 -0.7200 -0.7410  0.0415
 1625TIP3   OH226433   0.964   3.848   7.569 -0.4554  0.0444  1.0432
 1625TIP3    H126434   0.877   3.887   7.563  0.4114  1.8342 -2.3140
 1625TIP3    H226435   1.020   3.919   7.601  0.0153 -0.7072  1.9425
 1626TIP3   OH226436   6.631   2.456   1.700 -0.3862  0.0440 -0.8290
 1626TIP3    H126437   6.580   2.474   1.621  0.4177  1.2077 -1.1103
 1626TIP3    H226438   6.658   2.365   1.690 -3.0687 -0.9221 -0.2581
 1627TIP3   OH226439   1.081   2.810   2.277 -0.1599  0.1137  0.8795
 1627TIP3    H126440   1.075   2.902   2.251  1.1239  0.6723  2.4488
 1627TIP3    H226441   1.042   2.808   2.364 -2.7360 -1.3929 -0.1905
 1628TIP3   OH226442   1.884   3.026   8.859  0.2233  0.1050  0.3067
 1628TIP3    H126443   1.953   2.986   8.912  1.8510  1.6669 -0.5241
 1628TIP3    H226444   1.844   3.092   8.917 -0.9166 -1.0657  0.9185
 1629TIP3   OH226445   1.754   4.314   2.432 -0.6374 -0.0325 -0.2929
 1629TIP3    H126446   1.837   4.301   2.478  0.4886 -0.0353 -2.1992
 1629TIP3    H226447   1.687   4.302   2.499  0.8573 -1.0618  1.1055
 1630TIP3   OH226448   5.711   1.982   7.002 -0.1624 -0.9744  0.8163
 1630TIP3    H126449   5.639   1.947   6.949  1.2548 -0.6530 -1.4432
 1630TIP3    H226450   5.784   1.991   6.941  1.2933  0.3669  2.6399
 1631TIP3   OH226451   5.058   4.726   1.312  0.3208 -0.1125  0.0993
 1631TIP3    H126452   4.993   4.764   1.253  0.3623  0.3964  0.3766
 1631TIP3    H226453   5.115   4.675   1.255 -1.2013 -1.8477  0.0284
 1632TIP3   OH226454   1.585   0.676   2.867  0.1628  0.0173 -0.0021
 1632TIP3    H126455   1.534   0.757   2.855  1.0737  0.2866 -2.9329
 1632TIP3    H226456   1.523   0.606   2.847 -0.3289  0.0152  1.4307
 1633TIP3   OH226457   0.057   5.788   8.308 -0.4930 -0.3200  0.3636
 1633TIP3    H126458   0.017   5.714   8.261 -0.4621  0.8027 -1.5381
 1633TIP3    H226459   0.151   5.770   8.304 -0.5607 -1.0311  1.4695
 1634TIP3   OH226460   2.693   5.597   8.763 -0.2577  0.2495 -0.6153
 1634TIP3    H126461   2.643   5.601   8.681  1.4115 -0.0956 -1.6926
 1634TIP3    H226462   2.777   5.558   8.739  0.2848  0.1330  1.2751
 1635TIP3   OH226463   5.494   2.120   1.043 -0.0473 -0.5674 -0.4574
 1635TIP3    H126464   5.538   2.205   1.041 -0.8999 -0.0792  0.5904
 1635TIP3    H226465   5.406   2.138   1.009 -0.6500 -0.7512  0.9411
 1636TIP3   OH226466   4.400   4.784   2.869 -0.0016  0.6406 -0.1254
 1636TIP3    H126467   4.472   4.764   2.929 -1.3344 -2.2266  0.7051
 1636TIP3    H226468   4.419   4.731   2.791 -1.1598 -0.1461  0.1061
 1637TIP3   OH226469   2.726   5.171   2.704 -0.5401 -0.1960  0.5772
 1637TIP3    H126470   2.819   5.154   2.687 -1.2142 -0.4533 -4.5466
 1637TIP3    H226471   2.710   5.258   2.667 -2.5019 -0.6561  0.2212
 1638TIP3   OH226472   4.721   2.545   8.441 -0.0285  0.0146 -0.5709
 1638TIP3    H126473   4.703   2.503   8.525  0.1911  1.3639  0.1768
 1638TIP3    H226474   4.796   2.602   8.458  2.3619 -2.2774 -2.5499
 1639TIP3   OH226475   2.706   2.346   2.745 -0.5911  0.9170 -0.4657
 1639TIP3    H126476   2.726   2.255   2.724  0.8717  0.5699  1.9386
 1639TIP3    H226477   2.627   2.342   2.799  1.5958  0.4559  3.0399
 1640TIP3   OH226478   3.733   2.351   6.969  0.2414  0.5085 -0.2605
 1640TIP3    H126479   3.761   2.312   6.886 -0.2678 -1.3608  0.4049
 1640TIP3    H226480   3.680   2.426   6.944  2.5832  1.8633 -1.5808
 1641TIP3   OH226481   0.959   4.354   0.252 -0.0365  0.2510 -0.7204
 1641TIP3    H126482   0.911   4.411   0.192  1.7912  1.3614 -1.2127
 1641TIP3    H226483   0.923   4.375   0.338 -0.1779  1.3425 -1.0254
 1642TIP3   OH226484   1.040   4.336   8.539 -0.0264  0.5504 -0.2977
 1642TIP3    H126485   1.062   4.310   8.450 -1.3733  2.2896 -1.1783
 1642TIP3    H226486   1.047   4.431   8.539  1.9961  0.5131  2.0486
 1643TIP3   OH226487   0.240   3.187   1.105 -0.3367  0.1204 -0.4505
 1643TIP3    H126488   0.306   3.249   1.135 -1.0627  1.0762 -0.7588
 1643TIP3    H226489   0.279   3.101   1.120 -0.3962  0.5200  2.6664
 1644TIP3   OH226490   4.711   4.175   8.052  0.2386  0.1638  0.2087
 1644TIP3    H126491   4.632   4.131   8.084  0.4772  0.6657  1.5280
 1644TIP3    H226492   4.681   4.263   8.030  0.3418  0.2124  0.2655
 1645TIP3   OH226493   2.826   5.662   2.451  0.3737 -0.0433  0.3112
 1645TIP3    H126494   2.736   5.687   2.472  0.3472  0.3577 -0.2619
 1645TIP3    H226495   2.827   5.566   2.459  0.6215  0.1080  3.0920
 1646TIP3   OH226496   1.064   6.001   2.277  0.2685 -0.2491 -0.0316
 1646TIP3    H126497   1.088   6.007   2.370 -0.9908  1.4280  0.2429
 1646TIP3    H226498   0.999   6.070   2.265  0.8354 -0.0201 -2.3116
 1647TIP3   OH226499   1.369   2.458   8.734 -0.4030  0.7366  0.0187
 1647TIP3    H126500   1.400   2.431   8.820 -0.9906  1.8342  0.5982
 1647TIP3    H226501   1.439   2.432   8.674  0.5295  0.9800  0.9652
 1648TIP3   OH226502   0.523   5.519   0.844  0.3907 -0.5761  0.5714
 1648TIP3    H126503   0.515   5.425   0.860 -0.9960 -0.4422  0.7857
 1648TIP3    H226504   0.476   5.559   0.917  2.7278  0.3752  1.6592
 1649TIP3   OH226505   1.482   5.135   0.585  0.5750 -0.9094 -0.2379
 1649TIP3    H126506   1.538   5.069   0.625  1.7833 -0.6877 -1.4990
 1649TIP3    H226507   1.533   5.216   0.588  1.3423 -1.1486 -3.3674
 1650TIP3   OH226508   2.541   4.140   0.714 -0.4725 -0.3862 -0.1132
 1650TIP3    H126509   2.479   4.135   0.787 -1.6282  0.0347 -1.0432
 1650TIP3    H226510   2.536   4.231   0.685  1.1509 -0.1547  0.2618
 1651TIP3   OH226511   2.679   3.806   1.680  0.4980  0.2454  0.3195
 1651TIP3    H126512   2.675   3.890   1.634 -0.9576 -0.1813 -0.3752
 1651TIP3    H226513   2.690   3.831   1.772 -2.7976  1.3866  0.5315
 1652TIP3   OH226514   2.721   5.282   7.852  0.5308  0.0255 -0.1059
 1652TIP3    H126515   2.726   5.286   7.757 -1.7240 -0.6264 -0.3095
 1652TIP3    H226516   2.735   5.372   7.881  1.7073  0.1565 -0.9798
 1653TIP3   OH226517   1.244   0.584   7.358  0.0573  0.0106 -0.6712
 1653TIP3    H126518   1.286   0.657   7.403  0.8889 -1.2850  0.7582
 1653TIP3    H226519   1.187   0.625   7.292 -0.8089  1.9996  1.2048
 1654TIP3   OH226520   5.205   0.385   0.434 -0.0253  0.5082 -0.6711
 1654TIP3    H126521   5.147   0.458   0.411  0.2307  1.2589  0.9012
 1654TIP3    H226522   5.145   0.313   0.456 -0.4528  1.3928  1.3264
 1655TIP3   OH226523   6.687   6.580   0.805  0.2985 -0.3479  0.1336
 1655TIP3    H126524   6.616   6.554   0.864 -0.7590 -0.8551 -1.3140
 1655TIP3    H226525   6.690   6.675   0.813  0.3795 -0.4216  1.2134
 1656TIP3   OH226526   5.134   3.462   1.099 -0.3631 -0.0776  0.1959
 1656TIP3    H126527   5.117   3.526   1.030 -0.7473  1.1771  1.4005
 1656TIP3    H226528   5.047   3.437   1.131 -0.1887 -0.3042  0.5007
 1657TIP3   OH226529   3.678   1.793   8.002 -0.1448 -0.0090 -0.1261
 1657TIP3    H126530   3.751   1.849   7.976  0.2167 -0.8658 -1.0195
 1657TIP3    H226531   3.615   1.853   8.043  0.4338  0.9651 -0.6215
 1658TIP3   OH226532   3.103   4.084   8.106  0.3260  0.4889  0.0580
 1658TIP3    H126533   3.030   4.117   8.054 -0.8318 -1.0585  0.6015
 1658TIP3    H226534   3.116   3.995   8.074  0.9642  0.2332  0.9953
 1659TIP3   OH226535   6.102   1.218   1.521 -0.4730 -0.1881 -0.0170
 1659TIP3    H126536   6.176   1.244   1.467  0.3990 -1.8011  0.3320
 1659TIP3    H226537   6.128   1.134   1.559 -1.8091 -0.0073  1.4311
 1660TIP3   OH226538   1.800   3.126   7.994  0.6865 -0.6545 -0.2748
 1660TIP3    H126539   1.882   3.085   8.021  1.1276  0.0080 -0.5605
 1660TIP3    H226540   1.809   3.217   8.024  0.2886 -0.4467 -0.7767
 1661TIP3   OH226541   1.377   5.457   8.255  0.4456 -0.3618  0.0899
 1661TIP3    H126542   1.381   5.371   8.295 -0.8958  0.1593  1.4790
 1661TIP3    H226543   1.288   5.488   8.275  0.3196  0.6712 -1.8150
 1662TIP3   OH226544   4.412   1.909   7.275 -0.3167  0.3544  0.0985
 1662TIP3    H126545   4.449   1.971   7.338  0.8177 -0.2373  0.0253
 1662TIP3    H226546   4.398   1.961   7.196  0.8588  0.4724 -0.0453
 1663TIP3   OH226547   3.355   1.175   7.758  0.1299 -0.0385 -0.0125
 1663TIP3    H126548   3.272   1.223   7.769  0.2144  0.0819  0.1008
 1663TIP3    H226549   3.423   1.240   7.777  0.2380 -0.5469  1.5029
 1664TIP3   OH226550   2.667   2.027   7.885  0.0919 -0.5374 -0.6930
 1664TIP3    H126551   2.670   1.951   7.827  0.8340 -0.3401 -0.9206
 1664TIP3    H226552   2.750   2.073   7.870 -0.5209  0.5544 -0.8772
 1665TIP3   OH226553   3.165   5.703   8.163 -0.8442 -0.0209  0.2680
 1665TIP3    H126554   3.202   5.650   8.234  0.3911  0.9930  0.4291
 1665TIP3    H226555   3.076   5.671   8.152 -0.4340 -1.4809  0.9866
 1666TIP3   OH226556   1.955   3.527   8.049 -0.5066  0.2437 -0.0594
 1666TIP3    H126557   1.877   3.473   8.052 -1.1339  1.1657  1.5247
 1666TIP3    H226558   2.028   3.465   8.055 -1.1820 -0.4959  0.7788
 1667TIP3   OH226559   2.177   5.993   1.533  0.1543 -0.0520 -0.0786
 1667TIP3    H126560   2.082   5.991   1.526  0.0843  2.7483 -1.1341
 1667TIP3    H226561   2.194   6.030   1.620  0.2202  1.2460 -0.6344
 1668TIP3   OH226562   0.975   1.013   1.084 -0.1963  0.3199 -0.2457
 1668TIP3    H126563   1.000   1.050   1.169 -0.9861  1.5268 -0.5216
 1668TIP3    H226564   0.976   0.919   1.098 -0.0829  0.4952  1.0355
 1669TIP3   OH226565   4.118   3.987   1.938  0.3158  0.1459  0.5421
 1669TIP3    H126566   4.069   3.906   1.925  0.5903  0.1321 -0.4726
 1669TIP3    H226567   4.082   4.025   2.018 -1.6982  0.4026 -0.4479
 1670TIP3   OH226568   2.134   1.876   2.315  0.4666 -0.0464 -0.1194
 1670TIP3    H126569   2.211   1.874   2.259  1.0725  2.0452  0.5465
 1670TIP3    H226570   2.165   1.913   2.398 -1.1692  0.5960  0.2522
 1671TIP3   OH226571   0.525   3.983   0.218  0.2283  0.1046 -0.0393
 1671TIP3    H126572   0.495   3.962   0.307 -2.7874 -0.8184 -1.1349
 1671TIP3    H226573   0.482   3.917   0.163  0.8078  1.5467 -2.3439
 1672TIP3   OH226574   0.614   1.938   7.076  0.1540 -0.4623 -0.1077
 1672TIP3    H126575   0.665   1.874   7.125  2.8005  0.9275 -0.8475
 1672TIP3    H226576   0.654   1.939   6.989 -3.8246 -2.2306 -2.2291
 1673TIP3   OH226577   6.773   1.132   1.842  0.1464 -0.4058  0.5888
 1673TIP3    H126578   6.726   1.102   1.920 -1.3473  1.3126  0.4261
 1673TIP3    H226579   6.768   1.227   1.846  1.7590 -0.2189 -0.6149
 1674TIP3   OH226580   2.993   4.262   1.462 -0.2881 -0.9848  0.4345
 1674TIP3    H126581   3.077   4.308   1.474 -0.3164 -1.0314  0.8312
 1674TIP3    H226582   3.002   4.217   1.378 -0.3691 -0.0132 -0.1138
 1675TIP3   OH226583   2.073   1.617   0.794  0.3444  0.3626 -0.2406
 1675TIP3    H126584   2.021   1.612   0.714 -0.2907  1.8466  0.0478
 1675TIP3    H226585   2.090   1.711   0.806  0.2936  0.1877  1.4340
 1676TIP3   OH226586   2.418   2.627   0.406  0.2323  0.5588  0.1903
 1676TIP3    H126587   2.358   2.636   0.332 -1.6136  1.2817  1.6875
 1676TIP3    H226588   2.376   2.562   0.463  2.0064 -0.5664  0.2864
 1677TIP3   OH226589   5.952   1.516   7.163  0.2602  0.8670 -0.6039
 1677TIP3    H126590   5.971   1.527   7.070 -2.0170  1.6055 -1.0626
 1677TIP3    H226591   5.956   1.422   7.178  1.7012  0.8151 -1.1696
 1678TIP3   OH226592   6.573   6.477   7.496  0.1869  0.1459 -0.3732
 1678TIP3    H126593   6.663   6.476   7.529 -0.3424 -3.0280  1.3503
 1678TIP3    H226594   6.574   6.416   7.422 -0.7445 -0.9546  0.4787
 1679TIP3   OH226595   2.709   2.900   7.084  0.5899 -0.2808  0.7186
 1679TIP3    H126596   2.772   2.952   7.034  0.8915 -0.6605  0.6935
 1679TIP3    H226597   2.754   2.817   7.098  0.3454 -0.3171  1.2764
 1680TIP3   OH226598   5.654   0.060   1.392 -0.1918  0.2587 -0.1520
 1680TIP3    H126599   5.585  -0.006   1.393 -0.9439  0.9480 -2.1548
 1680TIP3    H226600   5.729   0.017   1.433 -0.9394 -1.5003 -0.5494
 1681TIP3   OH226601   1.803   1.408   7.479 -0.1144  0.1553 -0.4963
 1681TIP3    H126602   1.802   1.335   7.417 -0.3686 -0.7436  0.5220
 1681TIP3    H226603   1.748   1.378   7.551  0.9224  0.7737  0.5895
 1682TIP3   OH226604   1.914   1.697   1.677 -0.2953 -0.3534 -0.4420
 1682TIP3    H126605   1.921   1.730   1.767  0.0136 -1.4324 -0.0672
 1682TIP3    H226606   1.949   1.768   1.623  0.7436 -0.2177  0.3880
 1683TIP3   OH226607   2.885   4.169   7.981 -0.2704  0.4096  0.3952
 1683TIP3    H126608   2.846   4.139   7.899  0.2992  1.8763 -0.4406
 1683TIP3    H226609   2.819   4.148   8.048 -1.2081  0.1711 -0.5788
 1684TIP3   OH226610   1.425   5.988   8.520  0.2842  0.5689 -0.4986
 1684TIP3    H126611   1.421   6.081   8.496  0.9224  0.4060 -1.2720
 1684TIP3    H226612   1.505   5.981   8.572  1.5692  0.0317 -2.4541
 1685TIP3   OH226613   1.219   1.485   0.247  0.0855  0.3253  0.3982
 1685TIP3    H126614   1.290   1.534   0.206 -1.5096  2.7489  0.3113
 1685TIP3    H226615   1.220   1.514   0.338  0.3273 -1.0323  0.8451
 1686TIP3   OH226616   1.325   6.687   7.706  0.0124  0.0177 -0.4807
 1686TIP3    H126617   1.314   6.668   7.612  1.0258 -1.3382 -0.3666
 1686TIP3    H226618   1.323   6.782   7.711 -1.5307  0.0851 -1.6744
 1687TIP3   OH226619   1.423   6.743   8.334  0.6692  0.4278 -0.3607
 1687TIP3    H126620   1.397   6.687   8.261  2.8351  1.1021 -1.7451
 1687TIP3    H226621   1.438   6.683   8.407  1.2277 -0.6007 -1.3067
 1688TIP3   OH226622   6.392   2.486   2.742  0.1671  0.3520  0.1409
 1688TIP3    H126623   6.337   2.441   2.678 -0.1841  0.5915  0.2695
 1688TIP3    H226624   6.429   2.560   2.694  2.0114 -0.9187 -0.5286
 1689TIP3   OH226625   2.173   5.077   2.673  0.1337  0.5479 -0.2605
 1689TIP3    H126626   2.132   5.162   2.688  1.4122  1.2840 -0.7666
 1689TIP3    H226627   2.100   5.015   2.673 -0.6383  1.3551  2.0654
 1690TIP3   OH226628   5.688   2.676   1.290 -0.1976 -0.2280  0.0543
 1690TIP3    H126629   5.604   2.631   1.293  0.7288 -2.0011  2.3583
 1690TIP3    H226630   5.737   2.630   1.221 -0.3602 -0.6494  0.2173
 1691TIP3   OH226631   6.476   5.773   7.662 -0.4125 -0.6941 -0.7370
 1691TIP3    H126632   6.403   5.715   7.684 -0.3805 -1.1168 -1.7176
 1691TIP3    H226633   6.434   5.855   7.637 -0.4263  0.1347  1.7294
 1692TIP3   OH226634   5.492   5.398   7.723  0.0861  0.5592  0.1990
 1692TIP3    H126635   5.415   5.432   7.677  0.3082  1.3202  0.3743
 1692TIP3    H226636   5.472   5.408   7.816 -0.0161 -0.1904  0.2602
 1693TIP3   OH226637   1.834   2.105   8.426 -0.2962 -0.5497 -0.5362
 1693TIP3    H126638   1.801   2.019   8.400  0.8803 -0.7406 -1.5489
 1693TIP3    H226639   1.765   2.166   8.401 -1.4859 -1.2370  0.9167
 1694TIP3   OH226640   2.993   6.223   2.063 -0.1684 -0.1117 -0.3151
 1694TIP3    H126641   2.974   6.256   2.150  2.7261 -0.1116  0.4133
 1694TIP3    H226642   2.954   6.135   2.062  1.1626 -0.7952  1.6578
 1695TIP3   OH226643   0.863   6.184   2.242 -0.3002 -0.1277  0.5376
 1695TIP3    H126644   0.780   6.164   2.199 -1.1910  0.3006  1.9657
 1695TIP3    H226645   0.839   6.244   2.313  1.2883  0.2749  0.7682
 1696TIP3   OH226646   6.135   3.733   7.763  0.3362  0.2178  0.3917
 1696TIP3    H126647   6.070   3.669   7.793 -0.0140  0.0959 -0.5742
 1696TIP3    H226648   6.094   3.775   7.687  0.5517  1.6292  1.0315
 1697TIP3   OH226649   2.756   3.941   8.671 -0.0370  0.0709  0.3736
 1697TIP3    H126650   2.699   3.993   8.614  0.5000  0.8494  0.5235
 1697TIP3    H226651   2.769   3.996   8.748 -1.1210 -1.1678  1.4663
 1698TIP3   OH226652   3.469   5.781   7.775 -0.1128  0.3153  0.1935
 1698TIP3    H126653   3.493   5.866   7.739  1.1242  0.2937  0.8855
 1698TIP3    H226654   3.462   5.723   7.699 -1.4884  1.1308 -0.3274
 1699TIP3   OH226655   0.335   0.925   0.826  0.0963 -0.4671  0.2719
 1699TIP3    H126656   0.406   0.922   0.761 -1.2315  1.3651 -1.3904
 1699TIP3    H226657   0.380   0.928   0.910  1.9596 -0.6857 -0.6532
 1700TIP3   OH226658   5.211   3.508   1.821 -0.2727  0.3639  0.0492
 1700TIP3    H126659   5.289   3.561   1.836  1.5825 -1.6905 -1.6290
 1700TIP3    H226660   5.191   3.470   1.906  2.1623 -1.0515  0.0743
 1701TIP3   OH226661   1.129   6.238   7.458  0.0025  0.2423  0.0658
 1701TIP3    H126662   1.124   6.333   7.459  0.8199  0.3080 -0.6460
 1701TIP3    H226663   1.198   6.218   7.394 -0.9224 -0.8535 -0.6384
 1702TIP3   OH226664   4.685   6.459   0.904 -0.2824 -0.1729  0.4909
 1702TIP3    H126665   4.601   6.421   0.931  0.4319 -0.7417  2.0231
 1702TIP3    H226666   4.687   6.544   0.948 -0.9567  0.8153 -1.2700
 1703TIP3   OH226667   4.397   3.969   1.037 -0.1866  0.3584  0.3750
 1703TIP3    H126668   4.462   3.904   1.010  0.1909  0.8951 -0.0395
 1703TIP3    H226669   4.424   3.992   1.126  0.3075  0.7058  0.1425
 1704TIP3   OH226670   6.683   1.541   0.883  0.1272  0.4287  0.0803
 1704TIP3    H126671   6.710   1.474   0.820 -1.3114 -0.1630  0.0496
 1704TIP3    H226672   6.764   1.588   0.904  1.0138 -0.7241 -0.5943
 1705TIP3   OH226673   2.804   5.755   8.467  0.4011 -0.1352  0.3506
 1705TIP3    H126674   2.742   5.799   8.525  1.0536  0.8779  0.3024
 1705TIP3    H226675   2.887   5.800   8.480  1.0372 -1.1659  0.0693
 1706TIP3   OH226676   4.493   5.052   2.824  0.2048 -0.1492  0.2404
 1706TIP3    H126677   4.578   5.024   2.859  0.3808  0.4790  0.3297
 1706TIP3    H226678   4.432   4.983   2.851  0.1916  0.6437  2.4447
 1707TIP3   OH226679   1.688   4.296   0.156 -0.6335  0.2000 -0.0763
 1707TIP3    H126680   1.610   4.339   0.122 -0.1313  2.0678  0.9760
 1707TIP3    H226681   1.737   4.271   0.077  0.4279  4.2582 -0.9439
 1708TIP3   OH226682   5.272   1.768   1.315  0.3497 -0.0912 -0.5995
 1708TIP3    H126683   5.349   1.737   1.362 -0.3718 -3.6020 -1.4155
 1708TIP3    H226684   5.307   1.812   1.238  1.7001 -2.9929 -1.7940
 1709TIP3   OH226685   0.574   2.688   7.203  0.2203 -0.1562  0.4336
 1709TIP3    H126686   0.541   2.766   7.157  0.4367  0.4615  1.2979
 1709TIP3    H226687   0.647   2.721   7.256  0.9190 -1.1300  0.1040
 1710TIP3   OH226688   0.865   6.634   7.405 -0.1266 -0.2448 -0.1371
 1710TIP3    H126689   0.865   6.669   7.316  1.1324  3.2875  1.0813
 1710TIP3    H226690   0.943   6.579   7.410  0.3301  0.3127 -0.9805
 1711TIP3   OH226691   2.142   4.361   1.323 -0.1362 -0.7678 -0.1873
 1711TIP3    H126692   2.095   4.365   1.406 -0.4393 -0.7009 -0.3600
 1711TIP3    H226693   2.110   4.281   1.282  0.5760 -1.2089  0.0907
 1712TIP3   OH226694   5.695   5.513   1.121  0.8332 -0.6560 -0.0604
 1712TIP3    H126695   5.734   5.528   1.206 -0.0176  0.1546  0.2024
 1712TIP3    H226696   5.638   5.588   1.106 -0.0243 -1.4091 -0.7651
 1713TIP3   OH226697   3.053   3.141   1.462  0.2597  0.0015  0.2076
 1713TIP3    H126698   3.081   3.135   1.553  1.2667  0.3537 -0.0658
 1713TIP3    H226699   2.999   3.063   1.449  1.6121 -1.0419  0.6102
 1714TIP3   OH226700   5.573   2.879   0.728  0.2393 -0.1175  0.2575
 1714TIP3    H126701   5.505   2.925   0.778  1.2865  2.7824 -0.7308
 1714TIP3    H226702   5.537   2.872   0.640 -0.0369 -1.5843  0.4738
 1715TIP3   OH226703   4.020   0.680   8.580 -0.1730  0.3612  0.5253
 1715TIP3    H126704   3.934   0.682   8.540 -0.6861  2.1726  1.5962
 1715TIP3    H226705   4.080   0.706   8.510 -0.5396 -0.4911 -0.1101
 1716TIP3   OH226706   5.481   1.230   1.240  0.0709  0.4266 -0.5713
 1716TIP3    H126707   5.506   1.244   1.331 -0.7431  0.0483 -0.2809
 1716TIP3    H226708   5.386   1.217   1.243 -0.0559  1.0336 -1.5444
 1717TIP3   OH226709   2.203   6.621   0.114 -0.1595  0.1591  0.2829
 1717TIP3    H126710   2.275   6.653   0.168  1.2113 -0.6291 -1.0003
 1717TIP3    H226711   2.130   6.610   0.175  0.6222  1.4974  1.5232
 1718TIP3   OH226712   4.000   4.088   1.649  0.2081 -0.0572  0.2737
 1718TIP3    H126713   4.029   4.176   1.625  2.6249 -1.4997 -2.9384
 1718TIP3    H226714   4.072   4.051   1.700  1.0318 -1.3302 -1.6765
 1719TIP3   OH226715   0.082   1.244   0.383 -0.0368  0.0396  0.2372
 1719TIP3    H126716   0.081   1.161   0.335  1.2795  0.8035 -1.2003
 1719TIP3    H226717   0.171   1.250   0.418 -0.6104  0.0866  1.7741
 1720TIP3   OH226718   5.702   4.817   1.706 -0.1606  0.4314 -0.1347
 1720TIP3    H126719   5.741   4.733   1.681 -0.0196  0.7251 -0.9231
 1720TIP3    H226720   5.714   4.873   1.630  1.2040  1.6999  0.9392
 1721TIP3   OH226721   3.361   1.787   8.276 -0.1460  0.6816 -0.4482
 1721TIP3    H126722   3.429   1.850   8.255  0.8250  0.4809  1.7870
 1721TIP3    H226723   3.347   1.738   8.195  1.3632  1.6358 -1.3366
 1722TIP3   OH226724   0.734   0.714   3.137  0.0903  0.0338 -0.4738
 1722TIP3    H126725   0.674   0.692   3.208 -2.3501  1.0994 -2.0836
 1722TIP3    H226726   0.771   0.630   3.109 -0.5176 -0.6270  0.6638
 1723TIP3   OH226727   1.926   1.511   0.993 -0.0917  0.3870 -0.3287
 1723TIP3    H126728   1.981   1.541   0.921 -0.8438  0.4320 -0.9065
 1723TIP3    H226729   1.983   1.512   1.069  0.8959 -0.2260 -1.0270
 1724TIP3   OH226730   3.451   5.227   8.837 -0.2032  0.0974  0.1010
 1724TIP3    H126731   3.437   5.239   8.931 -0.3718  1.6113 -0.0795
 1724TIP3    H226732   3.546   5.233   8.825 -0.3078  2.1952 -0.0448
 1725TIP3   OH226733   2.472   2.414   0.114  0.4893 -0.2328 -0.1747
 1725TIP3    H126734   2.490   2.508   0.118 -2.2138  0.5395 -2.7299
 1725TIP3    H226735   2.465   2.394   0.020  0.5675 -2.9153  0.2920
 1726TIP3   OH226736   5.849   2.244   0.701  0.3701  1.0326 -0.1899
 1726TIP3    H126737   5.924   2.222   0.757  0.3317  2.4790  0.4604
 1726TIP3    H226738   5.886   2.298   0.631 -0.1024  2.0261  0.3150
 1727TIP3   OH226739   2.823   2.065   0.210 -0.2835 -0.3930  0.1019
 1727TIP3    H126740   2.776   2.149   0.202  0.5117 -0.0613 -1.5400
 1727TIP3    H226741   2.754   1.999   0.201 -0.6215  0.0909 -1.1380
 1728TIP3   OH226742   4.602   0.836   1.311 -0.5064 -0.0445  0.4356
 1728TIP3    H126743   4.512   0.811   1.289 -0.0385 -1.6550  0.2458
 1728TIP3    H226744   4.615   0.803   1.399  0.2204 -0.7005  0.0854
 1729TIP3   OH226745   1.365   4.705   6.981 -0.6288 -0.0061  0.0865
 1729TIP3    H126746   1.427   4.633   6.975 -1.4860 -0.7994  0.3772
 1729TIP3    H226747   1.313   4.699   6.900 -0.3667  0.6122 -0.1320
 1730TIP3   OH226748   1.590   4.962   8.453 -0.2282 -0.1177  0.0641
 1730TIP3    H126749   1.573   4.970   8.359 -1.2464 -1.0700  0.1623
 1730TIP3    H226750   1.639   4.880   8.462  1.1032  0.6603  0.2312
 1731TIP3   OH226751   6.370   2.947   1.873  0.2822  0.2135  0.3995
 1731TIP3    H126752   6.369   2.908   1.786  1.3580  0.0467  0.4428
 1731TIP3    H226753   6.351   2.875   1.933  1.5160 -0.1222  0.4252
 1732TIP3   OH226754   4.902   2.534   7.542  0.2426  0.2924 -0.3205
 1732TIP3    H126755   4.834   2.471   7.517  2.1223 -2.2273  0.4926
 1732TIP3    H226756   4.960   2.539   7.466  0.0895  1.1003 -0.3931
 1733TIP3   OH226757   3.855   3.487   7.757  0.2455  0.2707  0.0618
 1733TIP3    H126758   3.787   3.495   7.825  0.4274 -1.2517  0.4642
 1733TIP3    H226759   3.914   3.560   7.773  0.6833 -0.4626  2.0339
 1734TIP3   OH226760   6.505   1.787   1.478 -0.3237  0.0974 -0.2689
 1734TIP3    H126761   6.517   1.879   1.500 -0.2775  0.5076 -1.8806
 1734TIP3    H226762   6.488   1.787   1.384 -0.3344 -1.5424 -0.2947
 1735TIP3   OH226763   5.471   3.267   1.547 -0.3339  0.1484  0.3522
 1735TIP3    H126764   5.392   3.216   1.563 -0.1705 -0.2007  0.0558
 1735TIP3    H226765   5.519   3.217   1.482  0.5827 -0.1277  1.2165
 1736TIP3   OH226766   5.695   5.299   1.376 -0.0246 -0.1600 -0.1774
 1736TIP3    H126767   5.763   5.264   1.434  2.0155  0.3093 -2.1304
 1736TIP3    H226768   5.688   5.391   1.401  0.9621  0.0815 -0.7307
 1737TIP3   OH226769   4.220   2.861   0.877 -0.5995 -0.2181  0.0493
 1737TIP3    H126770   4.266   2.830   0.799 -1.2874 -0.3528 -0.3159
 1737TIP3    H226771   4.221   2.956   0.870 -0.2939 -0.2168  0.0963
 1738TIP3   OH226772   4.486   3.540   7.017 -0.1808  0.4004 -0.1642
 1738TIP3    H126773   4.581   3.530   7.022  0.0491  2.0680 -0.7803
 1738TIP3    H226774   4.465   3.609   7.079 -1.0023  0.0465 -0.0375
 1739TIP3   OH226775   1.020   1.588   0.060  0.4086 -0.0220  0.2832
 1739TIP3    H126776   1.070   1.543   0.128  1.7299  0.0940 -0.5798
 1739TIP3    H226777   0.952   1.635   0.108  0.7695 -0.6362  1.4437
 1740TIP3   OH226778   2.424   5.515   1.177 -0.3989 -0.3978  0.0763
 1740TIP3    H126779   2.337   5.549   1.197 -0.8043 -1.9836  1.1405
 1740TIP3    H226780   2.475   5.531   1.257  0.2123  0.1915 -0.4096
 1741TIP3   OH226781   5.015   5.118   0.092 -0.3216  0.8328 -0.4150
 1741TIP3    H126782   5.096   5.092   0.135 -0.4141  0.0066 -0.7165
 1741TIP3    H226783   4.951   5.125   0.163 -0.1565  0.7864 -0.2628
 1742TIP3   OH226784   1.659   6.258   2.860  0.2711 -0.4267  0.6987
 1742TIP3    H126785   1.592   6.199   2.824  0.2532 -0.4086  0.7021
 1742TIP3    H226786   1.627   6.346   2.840  0.2762 -0.4173  0.7326
 1743TIP3   OH226787   2.146   6.466   0.484 -0.0750  0.3973 -0.0514
 1743TIP3    H126788   2.207   6.394   0.497 -1.9883 -1.2004  0.5398
 1743TIP3    H226789   2.113   6.486   0.572 -1.0671  0.5854 -0.4500
 1744TIP3   OH226790   0.662   3.384   0.925 -0.9883 -0.3609 -0.7236
 1744TIP3    H126791   0.590   3.389   0.988 -0.9694 -0.6038 -0.6847
 1744TIP3    H226792   0.626   3.424   0.845 -0.6177  1.0828 -0.1982
 1745TIP3   OH226793   2.941   6.539   1.072 -0.7446 -0.3999 -0.2027
 1745TIP3    H126794   3.014   6.595   1.044 -0.4283 -0.6349  0.1440
 1745TIP3    H226795   2.974   6.449   1.060 -1.1002 -0.5131 -0.3629
 1746TIP3   OH226796   5.190   5.958   0.209  0.1008 -0.1987 -0.3467
 1746TIP3    H126797   5.128   5.986   0.142  1.1296  0.6558 -0.9501
 1746TIP3    H226798   5.246   5.895   0.165 -0.3620 -1.0385  0.2255
 1747TIP3   OH226799   1.452   0.374   7.927  0.0662 -0.3876  0.3848
 1747TIP3    H126800   1.528   0.344   7.878  0.4634  0.7000  0.2977
 1747TIP3    H226801   1.400   0.424   7.863 -0.0288  0.0080  0.7618
 1748TIP3   OH226802   6.257   1.000   1.479 -0.5387 -0.2080  0.1859
 1748TIP3    H126803   6.316   0.925   1.471 -0.8727 -0.6045  1.2580
 1748TIP3    H226804   6.210   1.003   1.396  0.0170 -0.7180 -0.1568
 1749TIP3   OH226805   3.350   0.178   0.156  0.2155  0.1587  0.6227
 1749TIP3    H126806   3.337   0.272   0.171 -0.2577  0.0323  1.0155
 1749TIP3    H226807   3.417   0.174   0.087 -1.4203  0.8304 -1.1176
 1750TIP3   OH226808   4.392   5.971   8.689  0.1996 -0.2850  0.3658
 1750TIP3    H126809   4.422   5.904   8.628  0.4102 -0.5379  0.7379
 1750TIP3    H226810   4.331   6.024   8.639  0.5154 -0.3733 -0.1156
 1751TIP3   OH226811   0.076   4.781   8.720 -0.0605 -0.6255  0.9761
 1751TIP3    H126812   0.103   4.855   8.773  2.1171 -0.3584 -0.3658
 1751TIP3    H226813   0.135   4.710   8.744 -0.3861 -1.1202  0.3772
 1752TIP3   OH226814   3.639   1.286   8.643  0.4458 -0.2953  0.1336
 1752TIP3    H126815   3.589   1.364   8.665  1.4614  0.3612  0.1823
 1752TIP3    H226816   3.713   1.287   8.704  2.2921  0.5484 -1.9984
 1753TIP3   OH226817   5.618   3.118   1.818 -0.6305 -0.2149  0.0383
 1753TIP3    H126818   5.583   3.082   1.736 -0.6260 -2.7633  1.0568
 1753TIP3    H226819   5.549   3.175   1.851  0.2661  2.8341 -2.7921
 1754TIP3   OH226820   0.707   2.469   2.585 -0.6668  0.1171  0.2221
 1754TIP3    H126821   0.624   2.424   2.568 -1.6424  1.9573 -0.1880
 1754TIP3    H226822   0.727   2.447   2.676 -0.8700 -1.4490 -0.0842
 1755TIP3   OH226823   2.936   4.778   0.868 -0.3454 -0.1030  0.0244
 1755TIP3    H126824   2.934   4.772   0.964 -1.2196  0.8046  0.0758
 1755TIP3    H226825   2.893   4.698   0.838 -0.4063 -0.2088  0.3936
 1756TIP3   OH226826   2.350   2.498   8.430  0.1465 -0.4495  1.0871
 1756TIP3    H126827   2.357   2.540   8.344 -1.8252  0.2442  1.2273
 1756TIP3    H226828   2.370   2.406   8.413  1.2296 -0.0747  0.1743
 1757TIP3   OH226829   1.480   3.777   8.868 -0.4586 -0.2853 -0.1274
 1757TIP3    H126830   1.480   3.682   8.885  0.3331  0.0622  2.3262
 1757TIP3    H226831   1.548   3.811   8.927 -2.5341  2.1151  1.0682
 1758TIP3   OH226832   2.503   6.667   8.850 -0.1864 -0.3905 -0.7017
 1758TIP3    H126833   2.599   6.667   8.851 -0.1865 -0.1176 -0.5407
 1758TIP3    H226834   2.478   6.669   8.942 -0.3622 -2.8107 -0.6283
 1759TIP3   OH226835   0.561   3.646   2.577  0.3678 -0.2142  0.1514
 1759TIP3    H126836   0.638   3.646   2.520 -0.3642 -0.9103 -0.8654
 1759TIP3    H226837   0.568   3.564   2.626  0.6912  0.1059  0.6435
 1760TIP3   OH226838   5.490   4.001   7.762 -0.3160  0.3956  0.4378
 1760TIP3    H126839   5.454   3.947   7.692 -0.6284  0.2100  0.7332
 1760TIP3    H226840   5.428   4.073   7.772 -0.8904 -0.1859  1.2761
 1761TIP3   OH226841   0.574   1.553   7.785  0.7600  0.2257  0.0934
 1761TIP3    H126842   0.630   1.514   7.716  1.2816  0.3173  0.4566
 1761TIP3    H226843   0.486   1.548   7.749  0.8860 -0.7577 -0.1258
 1762TIP3   OH226844   1.338   5.458   7.826 -0.6849 -0.2911  0.0181
 1762TIP3    H126845   1.266   5.474   7.887  1.5258  0.4740  2.6433
 1762TIP3    H226846   1.369   5.370   7.849  0.4655  0.1915  0.3748
 1763TIP3   OH226847   4.281   0.881   2.415  0.1571 -0.9255 -0.4219
 1763TIP3    H126848   4.327   0.843   2.490  2.5760  2.3785  0.0067
 1763TIP3    H226849   4.223   0.947   2.453 -0.4163 -0.8582 -1.3682
 1764TIP3   OH226850   3.213   6.339   7.487  0.1983 -0.0757  0.2113
 1764TIP3    H126851   3.283   6.385   7.441  0.9654 -0.2898  1.1283
 1764TIP3    H226852   3.207   6.383   7.571 -1.4814  0.5847 -0.2078
 1765TIP3   OH226853   2.798   4.832   8.284 -0.0941  0.6973 -0.0092
 1765TIP3    H126854   2.709   4.807   8.260 -0.2336 -0.7580  1.7664
 1765TIP3    H226855   2.854   4.773   8.234 -0.1417  1.1753 -0.6350
 1766TIP3   OH226856   1.245   1.076   0.326  0.0762 -0.7087  0.2821
 1766TIP3    H126857   1.195   1.061   0.406 -1.1909 -0.5156 -0.4321
 1766TIP3    H226858   1.283   1.163   0.337 -1.1477 -0.1309  0.1847
 1767TIP3   OH226859   3.874   1.544   2.129  0.5834  0.7295  0.1849
 1767TIP3    H126860   3.839   1.607   2.193 -1.9650 -0.6753  0.3191
 1767TIP3    H226861   3.840   1.459   2.158  0.5900 -0.1553 -2.1888
 1768TIP3   OH226862   5.322   3.157   7.530 -0.1881  0.3119 -0.8180
 1768TIP3    H126863   5.270   3.125   7.456  1.2898 -0.1474 -1.6958
 1768TIP3    H226864   5.259   3.203   7.585 -1.7815 -1.3315 -1.1622
 1769TIP3   OH226865   2.006   4.599   1.645  0.1429 -0.3509  0.7177
 1769TIP3    H126866   2.021   4.505   1.656  1.8343 -0.1096  0.6530
 1769TIP3    H226867   1.954   4.605   1.565 -0.4064 -1.2440  0.9848
 1770TIP3   OH226868   4.695   4.263   7.702  0.1346  0.5224  0.9829
 1770TIP3    H126869   4.788   4.242   7.700  0.1316  0.5959 -0.1008
 1770TIP3    H226870   4.687   4.344   7.652 -0.8917 -1.1019 -1.6872
 1771TIP3   OH226871   4.157   3.595   0.916 -0.0592  0.5507  0.2932
 1771TIP3    H126872   4.216   3.537   0.867 -1.0902  0.1642 -0.5329
 1771TIP3    H226873   4.190   3.592   1.006  1.4415  0.7035 -0.2125
 1772TIP3   OH226874   0.710   0.977   7.172 -0.0193 -0.3806  0.1028
 1772TIP3    H126875   0.759   0.928   7.238  0.2523 -0.2073  0.0294
 1772TIP3    H226876   0.747   1.065   7.175  0.8753 -0.6936 -1.1805
 1773TIP3   OH226877   1.379   6.788   0.567 -0.1672  0.0893 -0.1780
 1773TIP3    H126878   1.445   6.855   0.584 -0.2224  0.0506  0.1867
 1773TIP3    H226879   1.402   6.754   0.480  0.5152 -0.1839  0.1011
 1774TIP3   OH226880   4.417   6.717   8.098  0.3455  0.0874 -0.3219
 1774TIP3    H126881   4.340   6.754   8.141 -1.6718 -3.2874 -0.6945
 1774TIP3    H226882   4.435   6.777   8.026  1.3371  3.7078  2.5871
 1775TIP3   OH226883   4.129   3.863   1.074 -0.2526 -0.7601  0.3507
 1775TIP3    H126884   4.187   3.922   1.122 -2.1253  0.6799  0.9698
 1775TIP3    H226885   4.179   3.782   1.066  1.7529  0.3326  0.9920
 1776TIP3   OH226886   3.015   6.625   2.127  0.2043 -0.5702 -0.2985
 1776TIP3    H126887   3.091   6.634   2.070  1.4931 -4.0758  0.5638
 1776TIP3    H226888   3.053   6.610   2.214 -1.5687  0.0921  0.6302
 1777TIP3   OH226889   3.247   3.529   8.039  0.1972 -0.1301 -0.7840
 1777TIP3    H126890   3.297   3.529   7.957  0.2367 -1.6046 -0.7864
 1777TIP3    H226891   3.294   3.589   8.096  1.6934 -1.0880 -0.9643
 1778TIP3   OH226892   5.488   4.233   1.393 -0.0031 -0.3706  0.6133
 1778TIP3    H126893   5.512   4.231   1.301  1.1448 -0.9040  0.9130
 1778TIP3    H226894   5.538   4.306   1.429  0.0657 -0.5826  0.9519
 1779TIP3   OH226895   2.799   0.610   7.416 -0.1706  0.7124 -0.4713
 1779TIP3    H126896   2.743   0.681   7.446  0.2361  0.9140 -0.1857
 1779TIP3    H226897   2.774   0.597   7.324 -0.6350  0.8430 -0.3643
 1780TIP3   OH226898   5.097   6.541   1.194 -0.0501  0.2578  0.7090
 1780TIP3    H126899   5.183   6.558   1.232  0.2411 -0.5148  0.4237
 1780TIP3    H226900   5.111   6.546   1.099 -0.5598  1.2216  0.6768
 1781TIP3   OH226901   6.713   2.557   2.246 -0.1214  0.8960 -0.5471
 1781TIP3    H126902   6.708   2.648   2.217 -1.2944  0.9936 -0.0825
 1781TIP3    H226903   6.773   2.516   2.183 -0.2591  1.7824 -1.2910
 1782TIP3   OH226904   6.752   0.736   1.657 -0.1614 -0.0443  0.3515
 1782TIP3    H126905   6.808   0.740   1.735 -0.8141  0.8959  0.8051
 1782TIP3    H226906   6.721   0.826   1.646  2.3006  0.5685 -2.8341
 1783TIP3   OH226907   3.664   1.102   7.406 -0.0189  0.0175 -0.0800
 1783TIP3    H126908   3.649   1.194   7.385  0.1378  0.0679  0.0302
 1783TIP3    H226909   3.758   1.094   7.417 -0.2035  0.3987  2.3551
 1784TIP3   OH226910   0.575   3.526   2.815 -0.4284  0.1542  0.2222
 1784TIP3    H126911   0.615   3.613   2.813  0.5015 -0.2654 -0.4279
 1784TIP3    H226912   0.495   3.537   2.866 -1.4435  1.8569 -1.6159
 1785TIP3   OH226913   4.963   1.138   7.824 -0.2902 -0.1384 -0.0783
 1785TIP3    H126914   4.945   1.131   7.918  3.0563  0.8499  0.8000
 1785TIP3    H226915   4.929   1.057   7.787 -0.7867 -1.0407  2.1667
 1786TIP3   OH226916   4.485   6.406   8.484  0.6247 -0.0409  0.1994
 1786TIP3    H126917   4.471   6.340   8.415 -1.0772  0.4169  0.0672
 1786TIP3    H226918   4.421   6.383   8.552  1.1212  0.5412  0.8789
 1787TIP3   OH226919   3.265   3.041   0.675  0.4282 -0.1245 -0.2799
 1787TIP3    H126920   3.232   3.116   0.627 -0.8226 -1.2464 -1.2662
 1787TIP3    H226921   3.198   3.023   0.741  1.0909  0.0802  0.4653
 1788TIP3   OH226922   4.855   6.140   1.774  0.4224  0.1185  0.7099
 1788TIP3    H126923   4.895   6.053   1.773  0.2937  0.0509 -0.5027
 1788TIP3    H226924   4.764   6.124   1.799  0.5298 -0.0227  1.0230
 1789TIP3   OH226925   1.792   4.153   0.563  0.0861  0.3172  0.4432
 1789TIP3    H126926   1.751   4.234   0.595  0.7016  0.9023 -0.2264
 1789TIP3    H226927   1.789   4.094   0.638 -0.4358  0.9397  0.9220
 1790TIP3   OH226928   0.345   1.678   0.739  0.2970  0.3716  0.6924
 1790TIP3    H126929   0.389   1.760   0.717  0.2461  0.0799 -0.5452
 1790TIP3    H226930   0.394   1.644   0.813  0.6510  1.2527  0.8759
 1791TIP3   OH226931   4.568   1.181   8.441  0.2440  0.0165 -0.0279
 1791TIP3    H126932   4.603   1.214   8.523 -0.3257 -0.0932  0.2579
 1791TIP3    H226933   4.487   1.137   8.464  0.7855 -1.2562 -0.4545
 1792TIP3   OH226934   5.299   5.562   7.227  0.0330 -0.0597 -0.6361
 1792TIP3    H126935   5.383   5.600   7.254 -0.2531 -0.2420  0.5743
 1792TIP3    H226936   5.243   5.637   7.209 -0.0796  0.0933  0.3005
 1793TIP3   OH226937   6.775   5.555   2.575  0.8731 -0.2502 -0.2735
 1793TIP3    H126938   6.775   5.560   2.480 -1.2858  2.0124 -0.2595
 1793TIP3    H226939   6.828   5.629   2.604  1.0593 -0.5931  0.2925
 1794TIP3   OH226940   1.161   2.931   7.180 -0.2871  0.3560 -0.1107
 1794TIP3    H126941   1.221   2.879   7.126  1.7395  0.5885  1.7467
 1794TIP3    H226942   1.075   2.892   7.166  0.5353 -1.0010 -1.7076
 1795TIP3   OH226943   1.958   5.373   1.103 -0.3299 -0.1114 -0.1994
 1795TIP3    H126944   1.884   5.393   1.160 -0.4558  0.4728 -0.5513
 1795TIP3    H226945   2.016   5.318   1.156  1.1329  2.9817  1.6869
 1796TIP3   OH226946   2.111   4.189   0.003 -0.2148 -0.0973 -0.4223
 1796TIP3    H126947   2.117   4.259  -0.061  1.0731  0.4107  0.2141
 1796TIP3    H226948   2.060   4.226   0.075  0.1777  0.0775 -0.2317
 1797TIP3   OH226949   3.559   6.078   8.385 -0.5134 -0.3351 -0.4604
 1797TIP3    H126950   3.569   5.990   8.350  0.2108 -0.4158 -0.0633
 1797TIP3    H226951   3.612   6.134   8.328 -0.5043 -0.2424 -0.3618
 1798TIP3   OH226952   0.608   0.385   1.222 -0.1224  1.0452 -0.0239
 1798TIP3    H126953   0.521   0.363   1.257  0.1997 -1.2822 -0.5332
 1798TIP3    H226954   0.629   0.311   1.165  2.2715  1.5001  0.2055
 1799TIP3   OH226955   6.519   2.376   8.813 -0.0181 -0.0002  0.0296
 1799TIP3    H126956   6.570   2.298   8.834 -1.0814 -0.5246  0.7041
 1799TIP3    H226957   6.522   2.429   8.893  0.2334  0.3954 -0.2390
 1800TIP3   OH226958   5.644   3.557   1.313  0.1462 -0.3410  0.0281
 1800TIP3    H126959   5.563   3.515   1.285  0.6869 -0.2597 -1.7977
 1800TIP3    H226960   5.648   3.542   1.408 -1.6854 -0.8444  0.0615
 1801TIP3   OH226961   2.126   1.290   8.625 -0.6454 -0.0036 -0.2939
 1801TIP3    H126962   2.105   1.275   8.717  0.7953 -0.2003  0.0277
 1801TIP3    H226963   2.061   1.354   8.595  0.4128  2.0625  1.5743
 1802TIP3   OH226964   6.082   2.812   7.317 -0.2041  0.0219 -0.5293
 1802TIP3    H126965   6.039   2.788   7.235 -2.6286  1.7203  0.1216
 1802TIP3    H226966   6.115   2.900   7.302 -0.7027  0.3644  0.2863
 1803TIP3   OH226967   4.227   3.438   7.013  0.5505 -0.0234 -0.4809
 1803TIP3    H126968   4.189   3.526   7.019  0.3964  0.0745 -2.2515
 1803TIP3    H226969   4.315   3.448   7.048  0.6205  0.9059 -0.8824
 1804TIP3   OH226970   1.559   4.078   0.302 -0.3737 -0.0394  0.4264
 1804TIP3    H126971   1.562   4.154   0.245  0.9620 -1.0432 -0.9052
 1804TIP3    H226972   1.628   4.094   0.367 -0.0485 -0.1420  0.1079
 1805TIP3   OH226973   5.017   6.669   8.739 -0.0184 -0.1233  0.2983
 1805TIP3    H126974   4.971   6.608   8.796  0.5366  0.3856  1.3268
 1805TIP3    H226975   5.084   6.616   8.695  1.6121 -0.0227  2.4717
 1806TIP3   OH226976   4.685   3.247   7.596  0.0127  0.8770  1.2459
 1806TIP3    H126977   4.616   3.193   7.634  0.0008 -1.8536 -2.2214
 1806TIP3    H226978   4.765   3.194   7.604  0.3779  1.0914 -0.5798
 1807TIP3   OH226979   3.202   4.451   8.026 -0.0742 -0.2369 -0.1903
 1807TIP3    H126980   3.175   4.416   7.942  1.6368  1.4515 -1.5371
 1807TIP3    H226981   3.294   4.424   8.036  0.8678  2.4844 -0.6331
 1808TIP3   OH226982   5.841   6.281   1.371 -0.0576 -0.4497  0.1733
 1808TIP3    H126983   5.804   6.289   1.458  2.1575 -0.7729  1.2088
 1808TIP3    H226984   5.868   6.189   1.364  0.9100 -0.1426 -0.3436
 1809TIP3   OH226985   0.964   2.709   2.027 -0.4443 -0.4069  0.0327
 1809TIP3    H126986   1.008   2.692   2.110 -0.1377 -3.5840 -0.6646
 1809TIP3    H226987   1.033   2.703   1.961 -1.4134 -3.2188 -0.8577
 1810TIP3   OH226988   1.096   2.791   8.725 -0.2330  0.5683  0.1120
 1810TIP3    H126989   1.126   2.814   8.637 -0.6583  0.7805  0.0160
 1810TIP3    H226990   1.156   2.722   8.754  1.1024  1.8184  0.4200
 1811TIP3   OH226991   2.512   5.892   1.944  0.3486 -0.3658 -0.4591
 1811TIP3    H126992   2.585   5.911   1.885  0.5739  0.2511 -0.0046
 1811TIP3    H226993   2.435   5.885   1.887  0.6365 -0.2315 -0.8651
 1812TIP3   OH226994   0.406   2.226   2.079 -0.4706 -0.5511 -0.0445
 1812TIP3    H126995   0.310   2.223   2.080 -0.5551  0.9964 -0.3357
 1812TIP3    H226996   0.429   2.266   2.163 -0.1627  0.1201 -0.4378
 1813TIP3   OH226997   4.090   3.979   0.319  0.2956  0.6991 -0.4825
 1813TIP3    H126998   4.092   3.932   0.235  2.3451 -1.1675  0.4890
 1813TIP3    H226999   4.176   4.020   0.325  0.3428  0.4290  0.8982
 1814TIP3   OH227000   0.232   3.053   0.118 -0.4491  1.1481 -0.0204
 1814TIP3    H127001   0.175   3.063   0.195 -0.0142 -0.7820  0.6053
 1814TIP3    H227002   0.191   3.107   0.051 -3.3752 -0.6105  0.2045
 1815TIP3   OH227003   5.916   4.591   1.667  0.1183 -0.4593  0.4479
 1815TIP3    H127004   5.915   4.572   1.761  2.6927  1.6804  1.0198
 1815TIP3    H227005   6.008   4.602   1.646 -0.5012  0.5876 -2.0275
 1816TIP3   OH227006   0.142   3.030   1.365 -0.9106 -0.1309 -0.3310
 1816TIP3    H127007   0.194   3.035   1.445  2.8066  1.4707 -2.5498
 1816TIP3    H227008   0.119   3.120   1.345 -1.6995 -0.4855 -1.0912
 1817TIP3   OH227009   3.711   1.668   8.362  0.1510  0.4365  0.5258
 1817TIP3    H127010   3.659   1.736   8.318 -0.9980 -1.4183 -1.1538
 1817TIP3    H227011   3.738   1.708   8.444 -2.3641  2.1757  0.6192
 1818TIP3   OH227012   5.239   2.181   0.985 -0.1793 -0.4032 -0.2888
 1818TIP3    H127013   5.179   2.174   1.060  0.5526  0.6855  0.4187
 1818TIP3    H227014   5.181   2.192   0.910 -0.8952  1.6031  0.4887
 1819TIP3   OH227015   1.178   2.402   8.537  0.1418 -0.0225  0.5511
 1819TIP3    H127016   1.236   2.421   8.611  1.0490  1.0781 -0.3905
 1819TIP3    H227017   1.115   2.475   8.538 -0.2816 -0.3883  0.6529
 1820TIP3   OH227018   3.432   6.459   2.285  0.1798 -0.0863  0.5367
 1820TIP3    H127019   3.517   6.449   2.326  0.7413  0.2294 -0.5287
 1820TIP3    H227020   3.406   6.370   2.261  0.9282 -0.0261 -0.5394
 1821TIP3   OH227021   3.482   2.251   7.155  0.6127 -0.2387 -0.2112
 1821TIP3    H127022   3.429   2.205   7.090  1.1534  0.2853 -1.0305
 1821TIP3    H227023   3.432   2.242   7.236  0.0031 -1.0252 -0.6594
 1822TIP3   OH227024   4.000   4.085   2.167 -0.1456 -0.4450 -0.1453
 1822TIP3    H127025   4.042   4.096   2.253  0.1376 -1.2246 -0.1751
 1822TIP3    H227026   3.972   4.173   2.143 -0.0056 -0.1758  0.6364
 1823TIP3   OH227027   1.356   6.574   0.764 -0.6217 -0.1104  0.0497
 1823TIP3    H127028   1.274   6.586   0.812 -1.9265 -1.8025 -1.6019
 1823TIP3    H227029   1.372   6.659   0.723  0.1264  1.1478  2.6998
 1824TIP3   OH227030   3.990   5.902   2.869  0.1710  0.1487  0.0362
 1824TIP3    H127031   4.040   5.831   2.829 -0.8293 -1.9868  2.2851
 1824TIP3    H227032   4.047   5.936   2.938 -0.2251 -0.1440  0.5224
 1825TIP3   OH227033   6.715   4.927   8.092  0.0631  0.2923  0.1335
 1825TIP3    H127034   6.787   4.954   8.034  0.0727 -1.1878 -0.5726
 1825TIP3    H227035   6.715   4.832   8.087 -1.2496  0.2360  0.9962
 1826TIP3   OH227036   2.879   0.475   0.934 -0.2413  0.0770  0.2369
 1826TIP3    H127037   2.829   0.404   0.974  0.6903 -0.1238  1.0813
 1826TIP3    H227038   2.923   0.518   1.007  1.7276 -0.4731 -0.5548
 1827TIP3   OH227039   3.230   3.568   0.916  0.1341 -0.3240  0.1426
 1827TIP3    H127040   3.300   3.601   0.973 -1.2488 -0.5911  2.0761
 1827TIP3    H227041   3.275   3.538   0.837  2.0745  0.4885  0.8924
 1828TIP3   OH227042   5.507   4.288   7.480  0.1813 -0.0350 -0.0910
 1828TIP3    H127043   5.463   4.334   7.409  0.2717 -0.0869 -0.1822
 1828TIP3    H227044   5.452   4.211   7.496 -1.4044  1.3915  1.8232
 1829TIP3   OH227045   1.638   5.611   8.191  0.1739  0.3068 -0.1915
 1829TIP3    H127046   1.699   5.556   8.240  0.6285  1.8538  1.0957
 1829TIP3    H227047   1.555   5.564   8.193  0.3135  0.0809  1.6895
 1830TIP3   OH227048   3.417   2.593   0.344  0.5685 -0.1487 -0.2109
 1830TIP3    H127049   3.444   2.537   0.272 -1.7736 -0.4754 -0.9039
 1830TIP3    H227050   3.356   2.655   0.305 -1.9416 -1.2578  1.6608
 1831TIP3   OH227051   2.274   0.052   8.493  0.2893 -0.2527  0.3008
 1831TIP3    H127052   2.317   0.102   8.424  1.4180 -0.2785  0.9579
 1831TIP3    H227053   2.181   0.053   8.469  0.1676  2.5158  0.4986
 1832TIP3   OH227054   3.972   1.769   7.281 -0.4169  0.7847 -0.1593
 1832TIP3    H127055   3.888   1.726   7.266 -0.7023  1.4484 -0.5326
 1832TIP3    H227056   3.966   1.804   7.369  1.0955 -2.7472  1.5567
 1833TIP3   OH227057   0.355   5.428   1.911  0.0167 -0.2327  0.0073
 1833TIP3    H127058   0.362   5.335   1.929 -1.7520 -0.4353 -0.1899
 1833TIP3    H227059   0.278   5.457   1.961  0.6134  1.1536  0.1866
 1834TIP3   OH227060   2.661   4.555   1.704 -0.3539 -0.9310  0.4029
 1834TIP3    H127061   2.724   4.483   1.706 -0.5457 -1.1084  0.0699
 1834TIP3    H227062   2.627   4.560   1.793 -0.2763 -1.1963  0.4470
 1835TIP3   OH227063   1.515   1.226   8.669 -0.4795  0.5380  0.2933
 1835TIP3    H127064   1.602   1.206   8.702  0.0245  0.5944 -0.9674
 1835TIP3    H227065   1.512   1.322   8.667  0.0045  0.5427 -1.0886
 1836TIP3   OH227066   4.903   0.426   0.880 -0.2032 -0.4208 -0.0103
 1836TIP3    H127067   4.960   0.459   0.810  0.5340 -1.6043 -0.0052
 1836TIP3    H227068   4.819   0.410   0.837 -0.0979 -0.0617 -0.3577
 1837TIP3   OH227069   5.450   5.133   1.602 -0.0969 -0.8570  0.4729
 1837TIP3    H127070   5.421   5.042   1.593 -1.1292 -0.4351 -0.8490
 1837TIP3    H227071   5.459   5.164   1.512 -0.1690  0.4693  0.9077
 1838TIP3   OH227072   3.121   0.852   8.328  0.5826  0.0841 -0.4662
 1838TIP3    H127073   3.135   0.817   8.240  0.7654  1.5453 -1.0485
 1838TIP3    H227074   3.149   0.781   8.387 -0.6081 -1.3533 -1.5464
 1839TIP3   OH227075   5.337   2.818   6.771  0.5415 -0.1026 -0.1329
 1839TIP3    H127076   5.246   2.789   6.762  0.8300 -0.9808 -0.3491
 1839TIP3    H227077   5.341   2.901   6.725  0.3150 -1.0748 -2.0003
 1840TIP3   OH227078   1.122   0.145   1.631  0.8880 -0.5689 -0.5510
 1840TIP3    H127079   1.158   0.231   1.612 -0.4036  0.1735  0.1604
 1840TIP3    H227080   1.193   0.083   1.612  2.4090  0.7704  0.5499
 1841TIP3   OH227081   0.281   3.009   1.607  0.3987  0.3695 -0.1799
 1841TIP3    H127082   0.256   2.931   1.657  1.4590  0.0831 -0.0874
 1841TIP3    H227083   0.372   2.995   1.583  0.7615  1.8092  0.2527
 1842TIP3   OH227084   2.963   6.713   0.561  0.3697  0.3238  0.4169
 1842TIP3    H127085   2.956   6.789   0.503  1.3604 -0.1206 -0.3075
 1842TIP3    H227086   2.924   6.641   0.512  0.1317  0.1942  0.7906
 1843TIP3   OH227087   0.958   0.162   0.166  0.2861  0.5120  0.1991
 1843TIP3    H127088   1.000   0.199   0.088  0.6484  1.7092  0.9371
 1843TIP3    H227089   0.892   0.101   0.131  1.8504 -0.5700 -0.9936
 1844TIP3   OH227090   5.738   3.719   7.516  0.0887 -0.4138 -0.1423
 1844TIP3    H127091   5.675   3.647   7.507 -0.8277  0.2461  0.7264
 1844TIP3    H227092   5.688   3.797   7.489  0.4261  0.1648  0.8854
 1845TIP3   OH227093   1.394   3.222   7.503  0.4092 -0.2104  0.3762
 1845TIP3    H127094   1.480   3.211   7.462 -0.6103  1.6474 -2.5904
 1845TIP3    H227095   1.345   3.145   7.476  1.1473 -1.4545  2.3705
 1846TIP3   OH227096   4.873   5.993   2.738  0.0436 -0.0989  0.0028
 1846TIP3    H127097   4.883   6.086   2.757 -1.1856 -0.1698  1.1898
 1846TIP3    H227098   4.791   5.987   2.690 -1.3596 -0.7885  2.3304
 1847TIP3   OH227099   3.224   1.090   0.539 -0.7030 -0.1771 -0.3430
 1847TIP3    H127100   3.193   1.070   0.450 -1.6188 -2.2161  0.3861
 1847TIP3    H227101   3.289   1.022   0.557  0.1662  0.7876  0.2214
 1848TIP3   OH227102   4.505   3.665   8.576  0.3924  0.4440  0.0646
 1848TIP3    H127103   4.498   3.570   8.576 -2.5829  0.5768 -0.4685
 1848TIP3    H227104   4.513   3.689   8.668  0.0791 -0.2655  0.2830
 1849TIP3   OH227105   2.899   1.309   8.681  0.3560 -0.0078  0.0035
 1849TIP3    H127106   2.847   1.254   8.623 -2.6314  3.3869 -0.9418
 1849TIP3    H227107   2.879   1.277   8.769 -2.0798  0.0819 -0.4470
 1850TIP3   OH227108   1.124   4.370   8.244  0.0655  0.0440  0.1862
 1850TIP3    H127109   1.153   4.461   8.250  0.1020  0.0267  0.2750
 1850TIP3    H227110   1.198   4.324   8.204 -0.2793  0.2064 -0.6665
 1851TIP3   OH227111   6.114   3.649   0.441  0.2210  0.3265  0.2995
 1851TIP3    H127112   6.148   3.598   0.515 -1.1610  1.6088  1.8854
 1851TIP3    H227113   6.065   3.585   0.388  1.9427 -0.7767 -0.0357
 1852TIP3   OH227114   3.709   5.840   0.654  0.2500  0.4687 -0.4819
 1852TIP3    H127115   3.699   5.841   0.749 -1.2457  2.3368 -0.6203
 1852TIP3    H227116   3.766   5.764   0.637  1.5845  0.8299  1.9713
 1853TIP3   OH227117   2.438   1.612   8.012  0.6772  0.2522 -0.0371
 1853TIP3    H127118   2.371   1.676   8.036 -0.8154 -1.9190  1.9473
 1853TIP3    H227119   2.513   1.635   8.066  0.4408  0.7659  0.0856
 1854TIP3   OH227120   1.687   0.856   8.244 -0.0010  0.6083  0.5086
 1854TIP3    H127121   1.699   0.944   8.278 -0.3318  0.8713 -0.0412
 1854TIP3    H227122   1.732   0.800   8.306  0.1336  1.1569  0.9121
 1855TIP3   OH227123   3.431   3.310   8.048 -0.3446  0.5453  0.0934
 1855TIP3    H127124   3.376   3.340   8.121 -0.3942 -1.4416  0.9465
 1855TIP3    H227125   3.510   3.276   8.090  0.1892  0.5471 -0.8857
 1856TIP3   OH227126   1.841   5.215   0.240 -0.1188  0.5223  0.1851
 1856TIP3    H127127   1.921   5.216   0.187 -1.5563  2.5033 -2.1498
 1856TIP3    H227128   1.770   5.207   0.176 -1.8685 -2.9976  2.2746
 1857TIP3   OH227129   4.510   4.833   8.223 -0.3343  0.1248  0.1658
 1857TIP3    H127130   4.531   4.815   8.315 -0.9262  1.3977  0.5850
 1857TIP3    H227131   4.430   4.886   8.227 -0.0683  0.6575 -1.0643
 1858TIP3   OH227132   1.723   1.665   1.105 -0.2120 -0.4033 -0.2247
 1858TIP3    H127133   1.794   1.603   1.091  0.6337  0.1270  1.4244
 1858TIP3    H227134   1.676   1.630   1.182  0.3344  0.9939  0.7869
 1859TIP3   OH227135   2.311   3.619   7.245 -0.3404 -0.0010  0.5073
 1859TIP3    H127136   2.342   3.548   7.302  0.1222 -0.6297 -0.4909
 1859TIP3    H227137   2.270   3.682   7.305  0.7953 -0.2705  1.6140
 1860TIP3   OH227138   6.749   1.693   0.567  0.2674 -0.5985  0.4287
 1860TIP3    H127139   6.728   1.644   0.487 -0.1472  0.1770  0.0530
 1860TIP3    H227140   6.820   1.643   0.607 -1.1105 -2.3571  0.8373
 1861TIP3   OH227141   3.411   1.292   3.064  0.5409 -0.1595  0.5913
 1861TIP3    H127142   3.327   1.331   3.040 -0.1503 -1.3633  0.9614
 1861TIP3    H227143   3.400   1.199   3.045  1.7356 -0.3621  0.8194
 1862TIP3   OH227144   5.617   5.554   1.841 -0.4319  0.2180 -0.0519
 1862TIP3    H127145   5.703   5.556   1.801 -0.3118  1.5487  0.2535
 1862TIP3    H227146   5.570   5.486   1.793 -0.0120  1.1505 -1.8462
 1863TIP3   OH227147   3.164   4.807   7.967  0.1782 -0.5183  0.1378
 1863TIP3    H127148   3.245   4.772   8.004  0.3073  0.4040  0.7467
 1863TIP3    H227149   3.190   4.842   7.882  0.4037 -0.2815  0.3039
 1864TIP3   OH227150   3.273   3.900   2.377  0.6244 -0.0436 -0.1448
 1864TIP3    H127151   3.186   3.894   2.415 -0.1704 -1.3452 -2.0381
 1864TIP3    H227152   3.287   3.993   2.362 -0.7474  0.1360 -0.4364
 1865TIP3   OH227153   1.078   5.127   2.489  0.5665 -0.1679 -0.5181
 1865TIP3    H127154   1.006   5.188   2.507  1.2101  0.3640  0.3138
 1865TIP3    H227155   1.039   5.040   2.502 -0.2309  0.0727 -1.2318
 1866TIP3   OH227156   0.650   2.845   0.261  0.2016 -0.0555 -0.0469
 1866TIP3    H127157   0.626   2.845   0.353 -1.3486 -0.4786 -0.4248
 1866TIP3    H227158   0.736   2.803   0.258 -0.1008 -0.7787  1.1064
 1867TIP3   OH227159   5.328   0.034   1.581  0.5101  0.5959  0.1685
 1867TIP3    H127160   5.301   0.123   1.555  0.0440  0.2932 -0.4092
 1867TIP3    H227161   5.386   0.048   1.656 -1.0634  1.2921  1.3163
 1868TIP3   OH227162   3.177   0.766   0.333 -0.2026  0.0928  0.0839
 1868TIP3    H127163   3.147   0.753   0.243 -0.2172 -1.4643  0.2807
 1868TIP3    H227164   3.103   0.805   0.378 -1.6026 -2.6278  0.2944
 1869TIP3   OH227165   4.683   2.612   8.027 -0.5094 -0.2473  0.0724
 1869TIP3    H127166   4.738   2.579   8.097 -0.3322  1.8849  1.0278
 1869TIP3    H227167   4.733   2.597   7.947  0.0006 -1.2593  0.5738
 1870TIP3   OH227168   6.424   0.452   1.942  0.1490  0.5728  0.2157
 1870TIP3    H127169   6.463   0.405   2.015  0.2074 -0.8336 -0.6805
 1870TIP3    H227170   6.376   0.524   1.983 -0.6639 -0.7541  1.7224
 1871TIP3   OH227171   2.116   2.535   1.313 -0.0509 -0.4835  0.3374
 1871TIP3    H127172   2.111   2.519   1.219  0.5418 -0.7301  0.3443
 1871TIP3    H227173   2.206   2.564   1.328 -0.0730 -0.6737  0.8646
 1872TIP3   OH227174   2.845   4.552   0.710 -0.3878 -0.3196 -0.5093
 1872TIP3    H127175   2.876   4.584   0.626 -0.6173 -0.0887 -0.5081
 1872TIP3    H227176   2.855   4.457   0.705 -1.5869 -0.4336 -1.2921
 1873TIP3   OH227177   6.028   4.732   0.968  0.3922 -0.0562 -0.2494
 1873TIP3    H127178   5.959   4.761   1.027  0.1953 -1.5794  0.3250
 1873TIP3    H227179   5.995   4.650   0.932  1.6721 -0.5385 -0.3642
 1874TIP3   OH227180   6.767   4.133   0.153  0.3681  0.7048 -0.1780
 1874TIP3    H127181   6.763   4.226   0.176 -1.2007  0.7071 -0.3042
 1874TIP3    H227182   6.717   4.090   0.222  1.8324 -0.1697  0.3652
 1875TIP3   OH227183   2.494   0.326   0.044  0.1807 -0.8116  0.7296
 1875TIP3    H127184   2.479   0.345   0.136  0.4192  0.2117  0.5680
 1875TIP3    H227185   2.583   0.291   0.040 -0.0362 -1.4036  0.9504
 1876TIP3   OH227186   1.574   6.216   7.495  0.4652 -0.4871  0.4709
 1876TIP3    H127187   1.631   6.143   7.519  0.2676 -0.9941 -0.5367
 1876TIP3    H227188   1.583   6.222   7.400 -0.8666 -0.3305  0.3393
 1877TIP3   OH227189   3.723   2.658   2.076 -0.0508 -0.0907  0.1290
 1877TIP3    H127190   3.651   2.600   2.101  1.0534 -2.0238 -0.9332
 1877TIP3    H227191   3.757   2.691   2.159 -1.1378 -0.4172  0.7252
 1878TIP3   OH227192   1.522   2.842   1.745 -0.1689 -0.2456 -0.3570
 1878TIP3    H127193   1.551   2.847   1.654 -0.7280 -2.5466 -0.7138
 1878TIP3    H227194   1.449   2.904   1.750  0.7756  0.9693 -1.0617
 1879TIP3   OH227195   1.638   4.085   8.431  0.1189  1.0472 -0.1839
 1879TIP3    H127196   1.565   4.046   8.384  0.3060  1.4932 -0.8527
 1879TIP3    H227197   1.602   4.105   8.518 -0.8349  2.0919 -0.7879
 1880TIP3   OH227198   4.043   4.471   1.242  0.4869  0.4584 -0.6090
 1880TIP3    H127199   4.025   4.440   1.331  1.6559  0.1133 -0.4793
 1880TIP3    H227200   4.056   4.565   1.252  1.4196  0.3001 -0.2772
 1881TIP3   OH227201   1.950   1.355   1.356  0.3108 -0.1897  0.0611
 1881TIP3    H127202   1.863   1.365   1.394 -0.4731 -0.6542 -1.4919
 1881TIP3    H227203   1.991   1.284   1.405 -0.7544 -0.9486 -0.1349
 1882TIP3   OH227204   3.506   3.455   1.039  0.1783 -0.0776 -0.0968
 1882TIP3    H127205   3.570   3.422   0.976  1.0133 -0.2127  0.7960
 1882TIP3    H227206   3.555   3.518   1.092 -0.8987  1.1948 -0.5437
 1883TIP3   OH227207   2.385   2.128   1.492 -0.4238 -0.2687 -0.5081
 1883TIP3    H127208   2.318   2.193   1.516 -0.4144  0.0052 -1.2160
 1883TIP3    H227209   2.404   2.083   1.574  1.0484  1.9614  0.4780
 1884TIP3   OH227210   5.794   2.666   0.552  0.3796 -0.0304  0.1745
 1884TIP3    H127211   5.880   2.694   0.584  1.3145  0.4932 -2.4825
 1884TIP3    H227212   5.758   2.745   0.511 -0.8834 -0.5250  0.3079
 1885TIP3   OH227213   6.283   2.916   0.076 -0.2687 -0.2590 -0.1193
 1885TIP3    H127214   6.216   2.855   0.046  0.4471 -0.8887 -0.4636
 1885TIP3    H227215   6.302   2.888   0.166  1.6010 -1.9511 -0.9822
 1886TIP3   OH227216   5.418   4.900   8.534 -0.3446  0.0679  0.0453
 1886TIP3    H127217   5.456   4.817   8.506 -0.1350  0.1619  0.0513
 1886TIP3    H227218   5.472   4.967   8.492 -0.2805  0.2066  0.3423
 1887TIP3   OH227219   5.047   3.966   2.142  0.2050 -0.0033  0.1843
 1887TIP3    H127220   5.023   3.909   2.069 -1.0694 -0.1300  0.6714
 1887TIP3    H227221   5.127   4.010   2.113 -0.7049  0.5612 -1.6301
 1888TIP3   OH227222   3.079   5.804   8.861 -0.6129 -0.2182 -0.0805
 1888TIP3    H127223   3.029   5.771   8.936 -2.5218  0.2472 -1.0636
 1888TIP3    H227224   3.063   5.898   8.861 -2.4992 -0.4372 -2.2456
 1889TIP3   OH227225   1.294   5.253   7.207  0.4314  0.2437  0.2652
 1889TIP3    H127226   1.369   5.300   7.171 -0.9305  1.8632 -0.6035
 1889TIP3    H227227   1.266   5.195   7.136  0.0745  0.6001  0.1148
 1890TIP3   OH227228   5.784   6.351   1.852  0.3777 -0.6045 -0.2270
 1890TIP3    H127229   5.808   6.421   1.792 -1.0425  2.0108  2.0302
 1890TIP3    H227230   5.696   6.326   1.826  0.8056 -1.4491 -0.9018
 1891TIP3   OH227231   6.446   1.539   1.191  0.1064 -0.3196  0.4745
 1891TIP3    H127232   6.397   1.498   1.120 -0.1803  0.1743  0.3785
 1891TIP3    H227233   6.395   1.617   1.212  0.4420 -0.2155  0.9047
 1892TIP3   OH227234   0.312   5.218   7.611 -0.4251 -0.2126 -0.0563
 1892TIP3    H127235   0.226   5.205   7.651 -0.2045 -0.3097  0.3974
 1892TIP3    H227236   0.304   5.300   7.562  0.2385  1.7954  2.9427
 1893TIP3   OH227237   0.436   4.992   7.964 -0.1465  0.5020 -0.9802
 1893TIP3    H127238   0.515   5.020   7.918  0.2721  1.0590  0.0463
 1893TIP3    H227239   0.459   4.996   8.057 -1.1649  0.0048 -0.6833
 1894TIP3   OH227240   3.511   4.020   0.198 -0.3844 -0.2540  0.0389
 1894TIP3    H127241   3.420   4.045   0.180 -0.7236 -0.9696  0.7005
 1894TIP3    H227242   3.523   3.937   0.152 -0.1281 -0.2694  0.1322
 1895TIP3   OH227243   2.293   1.620   7.720 -0.1096 -0.1623 -0.0815
 1895TIP3    H127244   2.342   1.540   7.736 -0.2459 -0.2138  0.0737
 1895TIP3    H227245   2.202   1.595   7.731 -0.1425  0.0556  0.1389
 1896TIP3   OH227246   2.237   1.871   1.984  0.0498  0.0678  0.3848
 1896TIP3    H127247   2.295   1.899   1.914  0.5699 -2.0691 -0.1284
 1896TIP3    H227248   2.181   1.947   2.002  0.5764  0.9953 -1.6203
 1897TIP3   OH227249   2.167   5.888   2.634  0.3044 -0.6013  0.0851
 1897TIP3    H127250   2.201   5.831   2.565  1.4984 -0.2588  0.3671
 1897TIP3    H227251   2.132   5.964   2.587 -0.8070 -1.3087 -0.2592
 1898TIP3   OH227252   1.220   6.189   1.266  0.3113 -0.1502 -0.0330
 1898TIP3    H127253   1.223   6.095   1.279 -1.3881 -0.5328 -1.9609
 1898TIP3    H227254   1.221   6.225   1.355  0.5758 -1.9655  0.7491
 1899TIP3   OH227255   6.366   4.327   1.755 -0.2085  0.1566  0.1995
 1899TIP3    H127256   6.425   4.264   1.713 -0.2999  0.6731 -0.7423
 1899TIP3    H227257   6.395   4.331   1.846  1.0130  0.1634 -0.1729
 1900TIP3   OH227258   6.082   6.124   8.038 -0.3015 -0.1581 -0.2977
 1900TIP3    H127259   6.158   6.091   7.991  0.5115  1.9134 -0.5445
 1900TIP3    H227260   6.058   6.205   7.992 -1.6390  0.0944  0.7707
 1901TIP3   OH227261   2.507   1.414   1.713  0.6598 -0.2272 -0.3784
 1901TIP3    H127262   2.564   1.410   1.637 -1.2921  0.6919 -1.9676
 1901TIP3    H227263   2.471   1.503   1.712 -0.8576 -0.7868  0.4807
 1902TIP3   OH227264   6.585   3.838   8.087 -0.0344  0.3379 -0.0315
 1902TIP3    H127265   6.511   3.814   8.143 -1.6329  0.1376 -2.1090
 1902TIP3    H227266   6.557   3.918   8.043  2.5549  2.4576  1.8278
 1903TIP3   OH227267   3.944   5.595   1.491  0.3682 -0.1592 -0.2911
 1903TIP3    H127268   3.878   5.555   1.548 -1.6424  0.1558 -2.2606
 1903TIP3    H227269   3.986   5.661   1.546 -1.6296  0.3013  0.8062
 1904TIP3   OH227270   2.202   6.702   7.667  0.0418  0.0220 -0.0359
 1904TIP3    H127271   2.171   6.654   7.590 -1.8724 -0.1067  0.7537
 1904TIP3    H227272   2.243   6.781   7.631 -0.2550 -0.3353 -1.2100
 1905TIP3   OH227273   3.467   0.564   0.809 -0.0267 -0.3209 -0.0772
 1905TIP3    H127274   3.449   0.556   0.716  0.5567  0.3886 -0.2581
 1905TIP3    H227275   3.518   0.485   0.830 -1.8690 -1.5411  0.1115
 1906TIP3   OH227276   2.964   6.056   8.132  0.3657  0.7208  0.7404
 1906TIP3    H127277   3.059   6.067   8.133  0.5468 -0.6431  0.7412
 1906TIP3    H227278   2.944   6.028   8.042 -0.3406  3.1040  0.0724
 1907TIP3   OH227279   3.276   6.614   1.734  0.1114  0.0954  0.0552
 1907TIP3    H127280   3.220   6.544   1.700  0.9201 -0.9760  0.8432
 1907TIP3    H227281   3.291   6.672   1.659 -0.9912 -0.2967 -0.4856
 1908TIP3   OH227282   4.448   5.615   1.997  0.2450  0.0125  0.4652
 1908TIP3    H127283   4.435   5.521   2.007 -0.5068  0.0607 -0.0117
 1908TIP3    H227284   4.386   5.655   2.059  0.4931  0.1963  0.5966
 1909TIP3   OH227285   1.869   5.161   0.940  0.2614  0.3088 -0.3140
 1909TIP3    H127286   1.904   5.241   0.978 -0.6557  0.5231  0.1046
 1909TIP3    H227287   1.891   5.092   1.002  2.2444 -0.0216 -1.3139
 1910TIP3   OH227288   5.402   6.343   2.213  0.3946 -0.2648  0.4744
 1910TIP3    H127289   5.422   6.395   2.291  1.1534 -0.4527  0.4103
 1910TIP3    H227290   5.418   6.253   2.239  1.0697 -0.2982 -0.0166
 1911TIP3   OH227291   4.229   4.443   2.629  0.1721  0.2270 -0.1836
 1911TIP3    H127292   4.220   4.372   2.692 -1.4127 -0.9767 -1.6687
 1911TIP3    H227293   4.142   4.484   2.627  0.6920  1.3708 -0.3485
 1912TIP3   OH227294   1.351   6.457   0.393 -0.4933 -0.5443 -0.1244
 1912TIP3    H127295   1.385   6.546   0.407 -0.5643 -0.6613  0.8469
 1912TIP3    H227296   1.412   6.419   0.329  0.0083 -0.0595  0.0481
 1913TIP3   OH227297   2.405   4.703   8.502 -0.1553  0.2256  0.0669
 1913TIP3    H127298   2.365   4.618   8.520 -0.2692  0.0645 -0.8994
 1913TIP3    H227299   2.453   4.724   8.582  2.1887 -2.0498 -0.5898
 1914TIP3   OH227300   5.223   5.801   7.661 -0.6149  0.1766  0.1216
 1914TIP3    H127301   5.282   5.839   7.596  0.3966  1.4833  1.7160
 1914TIP3    H227302   5.207   5.712   7.630  0.7152  0.4002 -1.3398
 1915TIP3   OH227303   4.011   3.254   1.750  0.4482 -0.0640  1.0043
 1915TIP3    H127304   3.987   3.258   1.843  2.0077 -0.7397  1.4768
 1915TIP3    H227305   4.043   3.342   1.730 -1.7656  0.6945  0.5044
 1916TIP3   OH227306   4.362   6.371   7.516  0.6086 -0.2442 -0.3543
 1916TIP3    H127307   4.276   6.346   7.550  1.1503 -0.3778  0.9796
 1916TIP3    H227308   4.424   6.316   7.563  1.4310 -0.2362 -1.3878
 1917TIP3   OH227309   2.343   6.413   7.571 -0.4622 -0.2046 -0.0962
 1917TIP3    H127310   2.394   6.408   7.652  1.6909 -0.1243 -1.3899
 1917TIP3    H227311   2.260   6.452   7.599  1.5318  3.4329  1.5516
 1918TIP3   OH227312   0.028   0.876   1.359  0.0987  0.0708 -0.0541
 1918TIP3    H127313   0.012   0.810   1.292 -0.3859 -0.7213  0.8141
 1918TIP3    H227314  -0.057   0.918   1.374  0.7519  2.2607 -1.9388
 1919TIP3   OH227315   5.511   2.573   8.804 -0.5817 -0.1358 -0.0494
 1919TIP3    H127316   5.552   2.574   8.890 -1.1586 -3.5495  0.4028
 1919TIP3    H227317   5.579   2.603   8.744  0.5988  0.0111  1.3169
 1920TIP3   OH227318   3.442   1.593   1.007  0.3413 -0.1260  0.6963
 1920TIP3    H127319   3.504   1.620   1.074 -0.7281 -0.5238  1.8816
 1920TIP3    H227320   3.471   1.505   0.982  1.1030  0.2616  0.1714
 1921TIP3   OH227321   1.921   4.918   7.354 -0.3738  0.3662 -0.7209
 1921TIP3    H127322   1.956   4.833   7.381  0.0614  0.2852 -1.5295
 1921TIP3    H227323   1.834   4.921   7.395 -0.0297 -0.0630  0.0805
 1922TIP3   OH227324   4.603   2.676   7.423 -0.2673 -0.1735 -0.3186
 1922TIP3    H127325   4.582   2.769   7.415 -0.6584 -0.0645  1.4803
 1922TIP3    H227326   4.563   2.635   7.346  1.2763  1.3278 -1.9981
 1923TIP3   OH227327   0.924   1.848   8.626  0.2177 -0.1553  0.4564
 1923TIP3    H127328   0.834   1.860   8.594  0.4856  0.1320 -0.2095
 1923TIP3    H227329   0.979   1.869   8.550  0.8356 -0.8670  0.6951
 1924TIP3   OH227330   6.650   3.706   0.174  0.2721  0.0496 -0.6108
 1924TIP3    H127331   6.589   3.779   0.179 -0.5879 -0.6946  0.0599
 1924TIP3    H227332   6.596   3.629   0.156  0.6541 -0.9850  2.0715
 1925TIP3   OH227333   2.482   3.787   0.084 -0.2892  0.8518  0.2310
 1925TIP3    H127334   2.425   3.861   0.103  0.5166  1.5731 -0.1069
 1925TIP3    H227335   2.425   3.711   0.090 -1.2652  1.5490  0.0011
 1926TIP3   OH227336   6.657   5.398   7.550 -0.4775  0.3174  0.1543
 1926TIP3    H127337   6.738   5.445   7.568 -0.6784  0.3540  0.9893
 1926TIP3    H227338   6.619   5.381   7.636 -1.2374  0.0925 -0.2161
 1927TIP3   OH227339   4.483   2.102   8.859 -0.3743 -0.3913  0.2548
 1927TIP3    H127340   4.476   2.063   8.947 -1.5482  0.2211  0.4614
 1927TIP3    H227341   4.523   2.187   8.874 -1.3236  0.0561  0.3227
 1928TIP3   OH227342   5.031   4.337   2.246  0.4736 -0.0211 -0.4312
 1928TIP3    H127343   5.073   4.335   2.332  0.2750  1.2682 -0.2836
 1928TIP3    H227344   5.092   4.290   2.189 -0.5792 -3.2118  0.8505
 1929TIP3   OH227345   3.323   3.083   7.686 -0.1173  0.5113  0.0639
 1929TIP3    H127346   3.299   3.113   7.773  1.2641  2.2734 -0.1038
 1929TIP3    H227347   3.418   3.083   7.685 -0.1012  0.2100 -1.3393
 1930TIP3   OH227348   0.964   2.598   8.458  0.4029 -0.3971 -0.0138
 1930TIP3    H127349   1.002   2.652   8.388  0.4306  0.4196  0.6188
 1930TIP3    H227350   0.885   2.645   8.484 -0.6093 -1.6504 -0.7391
 1931TIP3   OH227351   2.537   1.110   0.148  0.1909 -0.1238 -0.5136
 1931TIP3    H127352   2.487   1.037   0.113 -0.3507 -0.0030  0.0091
 1931TIP3    H227353   2.485   1.188   0.126 -0.8264 -0.1232  1.6442
 1932TIP3   OH227354   4.616   4.433   8.671  0.6854  0.0929 -0.3291
 1932TIP3    H127355   4.651   4.397   8.752 -1.1982 -0.4946  0.2910
 1932TIP3    H227356   4.691   4.439   8.613  2.0259  0.1589  1.3160
 1933TIP3   OH227357   0.635   4.147   2.974 -0.1282  0.5323 -0.3737
 1933TIP3    H127358   0.587   4.066   2.958  0.0538  0.6136 -1.4460
 1933TIP3    H227359   0.717   4.118   3.015 -0.4248  0.2548  0.0308
 1934TIP3   OH227360   6.763   3.921   8.336 -0.3738 -0.4034 -0.2482
 1934TIP3    H127361   6.797   3.848   8.389  0.5011  1.0060  1.2140
 1934TIP3    H227362   6.668   3.914   8.345 -0.2759  0.5810  2.7695
 1935TIP3   OH227363   0.593   0.848   7.510 -0.0222 -0.0850 -0.2007
 1935TIP3    H127364   0.572   0.941   7.509 -2.5790 -0.5827  0.1754
 1935TIP3    H227365   0.663   0.838   7.445 -1.2416  1.7813 -1.8923
 1936TIP3   OH227366   5.767   3.255   7.865  0.5291  0.0227 -0.4040
 1936TIP3    H127367   5.835   3.268   7.931 -1.3223 -2.7980  2.3461
 1936TIP3    H227368   5.726   3.341   7.855  2.0242  0.9142  0.7689
 1937TIP3   OH227369   3.826   1.072   0.535  0.0573 -0.7159 -0.3369
 1937TIP3    H127370   3.816   1.132   0.461 -1.4680 -0.9571 -0.3593
 1937TIP3    H227371   3.854   0.989   0.494  0.3008 -0.5473 -0.5146
 1938TIP3   OH227372   0.185   4.520   8.609  0.2286  0.6826  0.8168
 1938TIP3    H127373   0.146   4.514   8.697  0.7733 -0.3950  0.9977
 1938TIP3    H227374   0.275   4.490   8.620  0.4290  0.9373 -0.0428
 1939TIP3   OH227375   1.215   1.589   0.762 -0.1048 -0.4140  0.1748
 1939TIP3    H127376   1.165   1.511   0.786  0.1781 -0.3545  0.9630
 1939TIP3    H227377   1.305   1.569   0.787  0.1125 -0.1424 -0.3627
 1940TIP3   OH227378   3.153   6.215   2.550  0.1941  0.1915  0.4959
 1940TIP3    H127379   3.135   6.166   2.470 -2.4879  0.9585  0.5422
 1940TIP3    H227380   3.187   6.150   2.611  2.8400 -0.3265 -1.3353
 1941TIP3   OH227381   1.624   4.362   8.178 -1.2841  0.2192  0.4301
 1941TIP3    H127382   1.603   4.447   8.216  0.5566  0.6483  0.5975
 1941TIP3    H227383   1.580   4.362   8.093 -0.6666  1.6886  0.0776
 1942TIP3   OH227384   6.384   3.580   7.829 -0.6924 -0.2607  0.0729
 1942TIP3    H127385   6.326   3.656   7.836 -0.2975 -0.0817  1.7254
 1942TIP3    H227386   6.417   3.566   7.917  1.6906 -0.4524 -0.7575
 1943TIP3   OH227387   5.676   2.688   0.891 -0.1602 -0.0167  0.4649
 1943TIP3    H127388   5.672   2.747   0.815  2.3384  0.4412  0.6047
 1943TIP3    H227389   5.586   2.657   0.902 -0.9862  1.5016 -1.4110
 1944TIP3   OH227390   2.591   1.778   8.469  0.2400 -0.3403  0.4824
 1944TIP3    H127391   2.525   1.837   8.507  1.4034  1.4117 -0.1003
 1944TIP3    H227392   2.673   1.804   8.511  0.5248 -2.9310  1.6956
 1945TIP3   OH227393   0.876   3.160   2.014  0.2762  0.0528 -0.0829
 1945TIP3    H127394   0.788   3.188   2.041  0.3122 -0.2687  0.3672
 1945TIP3    H227395   0.880   3.184   1.921 -0.6446 -0.7936 -0.3622
 1946TIP3   OH227396   2.647   1.483   8.510  0.4198  0.2687  0.0521
 1946TIP3    H127397   2.600   1.562   8.483 -1.0533 -0.6593 -0.2118
 1946TIP3    H227398   2.740   1.505   8.500  0.0294  1.8322 -0.3538
 1947TIP3   OH227399   6.456   6.116   1.825  0.4123  0.1947 -0.1541
 1947TIP3    H127400   6.520   6.187   1.836  0.8086 -0.2781  0.7590
 1947TIP3    H227401   6.411   6.111   1.909 -1.3460  0.9821 -1.0168
 1948TIP3   OH227402   0.733   1.124   8.524 -0.2396 -0.1307 -0.0770
 1948TIP3    H127403   0.806   1.149   8.467 -1.6246  0.8946 -1.5072
 1948TIP3    H227404   0.754   1.035   8.553  1.4046  0.0152 -0.6822
 1949TIP3   OH227405   3.192   2.266   7.908 -0.0605  0.3676 -0.0870
 1949TIP3    H127406   3.111   2.262   7.858 -1.8898  1.7082  2.5771
 1949TIP3    H227407   3.255   2.306   7.847 -1.5125 -0.1103 -2.0058
 1950TIP3   OH227408   2.580   5.599   2.043  0.6540 -0.1504 -0.0637
 1950TIP3    H127409   2.573   5.695   2.045  0.2601 -0.1818  0.4551
 1950TIP3    H227410   2.599   5.578   1.952  0.9594  0.4345 -0.1452
 1951TIP3   OH227411   5.076   2.737   0.348  0.0327 -0.0421 -0.5316
 1951TIP3    H127412   5.033   2.779   0.422  2.3409 -1.4540  1.7437
 1951TIP3    H227413   5.075   2.804   0.279 -2.1875  1.3244  0.6973
 1952TIP3   OH227414   1.028   4.772   7.139 -0.7263  0.5325  0.1823
 1952TIP3    H127415   1.020   4.710   7.212 -1.8912 -0.4248 -0.7260
 1952TIP3    H227416   1.024   4.718   7.060 -1.9035  1.7651 -0.6487
 1953TIP3   OH227417   3.387   6.554   0.325  0.4844  0.0544 -0.7373
 1953TIP3    H127418   3.303   6.566   0.281 -0.0384 -0.3683  0.1011
 1953TIP3    H227419   3.433   6.489   0.272  0.6458  0.9112 -1.6729
 1954TIP3   OH227420   6.157   6.640   1.991 -0.2872  0.1428  0.0887
 1954TIP3    H127421   6.193   6.682   2.069 -2.0729  1.0482  0.4865
 1954TIP3    H227422   6.086   6.698   1.963 -0.4594 -0.7779 -1.5095
 1955TIP3   OH227423   1.614   3.049   8.191  0.5064 -0.0335  0.5580
 1955TIP3    H127424   1.690   3.051   8.132  0.0601 -0.5308 -0.0501
 1955TIP3    H227425   1.641   3.100   8.267  1.3127  0.1164  0.1795
 1956TIP3   OH227426   1.537   6.290   8.534  0.1628 -0.8285 -0.1354
 1956TIP3    H127427   1.493   6.271   8.617 -1.3110 -1.5101 -1.0197
 1956TIP3    H227428   1.629   6.267   8.549 -0.2397 -1.8066  1.0349
 1957TIP3   OH227429   2.081   4.923   0.409 -0.0730  0.4983 -0.1569
 1957TIP3    H127430   1.997   4.892   0.376 -0.5843  1.0740  0.5517
 1957TIP3    H227431   2.073   4.918   0.504  1.3853 -1.1823 -0.0791
 1958TIP3   OH227432   5.280   6.297   1.010  0.2798 -0.3546 -0.4441
 1958TIP3    H127433   5.250   6.366   0.951  1.2257  2.0135  1.6754
 1958TIP3    H227434   5.204   6.276   1.063 -0.0226 -1.0093 -1.1233
 1959TIP3   OH227435   1.872   4.559   2.301  0.3895  0.3022 -0.1210
 1959TIP3    H127436   1.805   4.502   2.340 -1.1323  1.2689 -1.2135
 1959TIP3    H227437   1.868   4.640   2.352  0.2797  0.5923 -0.5834
 1960TIP3   OH227438   4.889   3.896   8.819 -0.4381  0.1952  0.2566
 1960TIP3    H127439   4.976   3.935   8.832  1.5052 -3.5025 -0.4896
 1960TIP3    H227440   4.859   3.930   8.735  0.8226  0.6164 -0.0356
 1961TIP3   OH227441   6.549   1.958   0.536 -0.2405  0.6018  0.1665
 1961TIP3    H127442   6.541   1.915   0.451  0.0146  0.9389 -0.0330
 1961TIP3    H227443   6.644   1.963   0.550 -0.2780 -1.1900  1.3678
 1962TIP3   OH227444   5.669   6.006   1.454 -0.0049  0.3984  0.5600
 1962TIP3    H127445   5.604   5.993   1.385 -0.3737  0.8166  0.8241
 1962TIP3    H227446   5.627   6.066   1.516  0.4438  0.2786  0.9869
 1963TIP3   OH227447   3.121   6.071   2.292  0.0756  0.6994  0.1272
 1963TIP3    H127448   3.084   6.001   2.239  0.4868  0.3526  0.2886
 1963TIP3    H227449   3.120   6.148   2.235  0.5317  0.3268 -0.3962
 1964TIP3   OH227450   4.099   2.010   1.535  0.4025  0.8140 -0.4810
 1964TIP3    H127451   4.100   1.941   1.601  3.4548  1.7035  0.5691
 1964TIP3    H227452   4.018   1.996   1.487  0.0840 -2.4215  0.7672
 1965TIP3   OH227453   4.774   5.253   1.396 -0.7852 -0.4794  0.1446
 1965TIP3    H127454   4.751   5.184   1.459 -4.6226 -1.1187 -1.7148
 1965TIP3    H227455   4.739   5.333   1.435 -1.6939 -0.6047 -0.3992
 1966TIP3   OH227456   6.337   3.404   2.082 -0.1157 -0.6355 -0.2776
 1966TIP3    H127457   6.299   3.329   2.038 -0.2700  0.2334 -1.6680
 1966TIP3    H227458   6.302   3.480   2.036  0.1771  0.3017  0.9801
 1967TIP3   OH227459   3.347   5.518   0.059 -0.5631 -0.2854  0.8715
 1967TIP3    H127460   3.401   5.439   0.054  0.6825  0.5433  0.9534
 1967TIP3    H227461   3.329   5.540  -0.032  0.3671  0.1767  0.7877
 1968TIP3   OH227462   3.710   5.645   7.365  0.2119  0.1910 -0.4839
 1968TIP3    H127463   3.656   5.627   7.443 -1.6500 -0.6118 -1.8935
 1968TIP3    H227464   3.648   5.674   7.299  1.4433 -1.1243 -2.3041
 1969TIP3   OH227465   1.899   0.971   0.700  0.4049  0.4209  0.0873
 1969TIP3    H127466   1.942   0.912   0.639  0.1704 -1.5061  1.7021
 1969TIP3    H227467   1.962   0.983   0.771 -0.6359 -0.1866  1.1332
 1970TIP3   OH227468   0.374   4.618   2.297 -0.2347  0.0196  0.3388
 1970TIP3    H127469   0.410   4.568   2.224  1.0821 -0.0430  0.9938
 1970TIP3    H227470   0.292   4.575   2.318 -0.4953 -0.1167 -0.9322
 1971TIP3   OH227471   6.248   3.374   2.526  0.1981 -0.0064 -0.1689
 1971TIP3    H127472   6.335   3.375   2.568  1.4255 -0.9840 -2.4868
 1971TIP3    H227473   6.236   3.463   2.493  1.0171 -0.2365 -1.1187
 1972TIP3   OH227474   2.025   5.467   0.396 -0.0163 -0.2163  0.0315
 1972TIP3    H127475   2.016   5.386   0.446 -1.5228 -1.2788 -1.7843
 1972TIP3    H227476   1.938   5.507   0.400 -0.3081 -0.5313 -1.9363
 1973TIP3   OH227477   0.495   3.612   7.920 -0.8693  0.4337 -0.0242
 1973TIP3    H127478   0.559   3.596   7.990  0.8405  0.0167 -1.6194
 1973TIP3    H227479   0.486   3.707   7.918  0.2544  0.5494 -0.2295
 1974TIP3   OH227480   1.179   1.444   1.065  0.1012  0.4529  0.2397
 1974TIP3    H127481   1.122   1.509   1.106 -0.3689  0.6264 -0.6718
 1974TIP3    H227482   1.131   1.414   0.988  1.2633  0.6758 -0.6160
 1975TIP3   OH227483   3.739   5.961   7.880  0.3881 -0.2991 -0.1458
 1975TIP3    H127484   3.815   5.962   7.822  0.0168  0.8605 -0.6489
 1975TIP3    H227485   3.683   6.031   7.847 -1.0266 -1.2921  0.0681
 1976TIP3   OH227486   1.265   6.400   8.276 -0.0635 -0.2643  0.0031
 1976TIP3    H127487   1.270   6.481   8.226 -0.4921 -1.3394 -1.8656
 1976TIP3    H227488   1.207   6.420   8.350 -0.8299  0.9043 -0.8922
 1977TIP3   OH227489   1.579   3.407   2.336 -0.2333 -0.3965 -0.3582
 1977TIP3    H127490   1.554   3.421   2.427  0.5274  0.6523 -0.2859
 1977TIP3    H227491   1.560   3.491   2.293  0.0223 -0.6666 -1.0194
 1978TIP3   OH227492   5.951   5.763   8.807 -0.2146 -0.0010 -0.9012
 1978TIP3    H127493   5.980   5.797   8.892  0.1262  1.3463 -1.5327
 1978TIP3    H227494   6.026   5.776   8.749 -0.2377 -1.4506 -1.2915
 1979TIP3   OH227495   1.751   0.669   0.831  0.0849  0.2267  0.1632
 1979TIP3    H127496   1.768   0.688   0.923  2.0805 -0.3231 -0.0417
 1979TIP3    H227497   1.748   0.755   0.789 -1.8747  0.5492  0.8379
 1980TIP3   OH227498   3.530   1.778   1.562 -0.3518  0.4429 -0.1521
 1980TIP3    H127499   3.575   1.847   1.611 -0.9910  0.5916  0.2450
 1980TIP3    H227500   3.570   1.697   1.592 -2.1402  0.3500  2.2623
 1981TIP3   OH227501   1.883   6.163   8.702  0.2228  0.1556  0.6080
 1981TIP3    H127502   1.902   6.215   8.780  0.0113  1.3415 -0.1009
 1981TIP3    H227503   1.852   6.227   8.638  1.0933 -0.6765 -0.6890
 1982TIP3   OH227504   0.512   3.341   1.203  0.2244 -0.2777  0.4241
 1982TIP3    H127505   0.436   3.388   1.236 -0.3980 -2.0988  1.7783
 1982TIP3    H227506   0.587   3.393   1.231 -0.4550  1.2521 -0.4541
 1983TIP3   OH227507   1.577   0.185   0.659  1.1156  0.3202  0.1192
 1983TIP3    H127508   1.589   0.280   0.667  2.5888  0.1015  0.9000
 1983TIP3    H227509   1.659   0.154   0.622 -0.5078 -0.3328 -3.2784
 1984TIP3   OH227510   0.687   3.996   1.341 -0.3536 -0.5431  0.1321
 1984TIP3    H127511   0.723   3.976   1.255 -1.3776  0.4142 -0.5444
 1984TIP3    H227512   0.682   3.912   1.385 -2.4009 -1.5238 -1.7679
 1985TIP3   OH227513   2.330   4.349   1.061  0.5560 -0.3561  0.3693
 1985TIP3    H127514   2.320   4.254   1.055  0.7365 -0.3589  0.0634
 1985TIP3    H227515   2.258   4.384   1.008  0.5490 -0.3257  0.3987
 1986TIP3   OH227516   6.289   3.700   7.400 -0.4320  0.0876 -0.0924
 1986TIP3    H127517   6.335   3.721   7.481 -1.5517  1.1405  0.2872
 1986TIP3    H227518   6.358   3.699   7.333  0.8729 -2.8693  1.1312
 1987TIP3   OH227519   5.859   2.413   1.249  0.3440  0.3549  0.2450
 1987TIP3    H127520   5.911   2.487   1.280 -1.8331  1.8596  0.5059
 1987TIP3    H227521   5.841   2.362   1.328 -0.8956  1.3886  0.6666
 1988TIP3   OH227522   3.765   0.270   1.993  0.4493 -0.0258  0.4539
 1988TIP3    H127523   3.686   0.218   2.009 -1.3218  2.5101  0.5846
 1988TIP3    H227524   3.814   0.220   1.928 -1.4578 -1.5117  0.0840
 1989TIP3   OH227525   3.017   4.674   1.569  0.4538 -0.1848 -0.3865
 1989TIP3    H127526   3.025   4.752   1.514 -2.0941  0.2702 -0.2122
 1989TIP3    H227527   3.063   4.605   1.519 -1.2692  0.3402 -2.8730
 1990TIP3   OH227528   5.269   5.477   8.425  0.1069  0.2812  0.1204
 1990TIP3    H127529   5.192   5.451   8.375  1.0296 -1.2180 -0.5894
 1990TIP3    H227530   5.281   5.408   8.490  1.1459  0.1966 -0.1405
 1991TIP3   OH227531   4.502   1.649   0.948 -0.0533 -0.4145 -0.0616
 1991TIP3    H127532   4.578   1.656   1.005 -0.2621 -0.4753  0.2283
 1991TIP3    H227533   4.446   1.584   0.991 -0.8508  0.5520  0.4128
 1992TIP3   OH227534   6.677   1.516   2.149 -0.5290 -0.6073  0.2266
 1992TIP3    H127535   6.739   1.463   2.100 -0.9503 -0.1074 -0.8825
 1992TIP3    H227536   6.617   1.453   2.189  0.0120 -1.0349  0.3677
 1993TIP3   OH227537   1.450   3.549   1.055  0.1640  0.2254 -0.2641
 1993TIP3    H127538   1.362   3.546   1.095  0.4753  0.4633  0.4614
 1993TIP3    H227539   1.469   3.642   1.048  1.2203  0.1932  1.5733
 1994TIP3   OH227540   4.016   3.744   1.870  0.7168  0.2250  0.1663
 1994TIP3    H127541   4.001   3.726   1.777 -0.9359  1.1831  0.2149
 1994TIP3    H227542   3.965   3.676   1.915  1.8622 -0.5051  0.4047
 1995TIP3   OH227543   6.485   3.375   0.841 -0.4962 -0.5488 -0.4468
 1995TIP3    H127544   6.441   3.293   0.865  0.2177 -0.3983  1.5886
 1995TIP3    H227545   6.470   3.433   0.915 -0.9683  1.2047 -1.8396
 1996TIP3   OH227546   1.424   1.615   7.213  0.1688  0.1020 -0.5490
 1996TIP3    H127547   1.481   1.620   7.291  0.2783 -1.0158 -0.5444
 1996TIP3    H227548   1.459   1.682   7.154  0.7441  0.2446 -0.0598
 1997TIP3   OH227549   6.612   6.137   1.135 -0.1856 -0.0707  0.1352
 1997TIP3    H127550   6.702   6.109   1.117 -0.0565  0.8033 -0.6887
 1997TIP3    H227551   6.571   6.061   1.177  0.9199 -0.4960  0.4827
 1998TIP3   OH227552   2.186   4.021   2.393 -0.2914  0.0106  0.5812
 1998TIP3    H127553   2.169   4.086   2.461 -2.3231  0.4045 -0.2293
 1998TIP3    H227554   2.276   3.992   2.409  0.0375  1.6969  2.0496
 1999TIP3   OH227555   0.009   6.315   8.762 -0.2265 -0.3785 -0.0077
 1999TIP3    H127556  -0.021   6.285   8.848 -0.8473  3.0119  1.0979
 1999TIP3    H227557   0.085   6.370   8.781  1.0858 -1.3900 -1.9396
 2000TIP3   OH227558   1.154   3.210   7.223  0.4301 -0.6772 -1.4112
 2000TIP3    H127559   1.159   3.117   7.247  1.5397 -0.2707  0.0679
 2000TIP3    H227560   1.226   3.222   7.160  0.5786 -0.7188 -1.2499
 2001TIP3   OH227561   4.551   5.307   0.440 -0.3656 -0.0269  0.0877
 2001TIP3    H127562   4.480   5.365   0.467  0.1962  1.2666 -1.1208
 2001TIP3    H227563   4.613   5.364   0.394  1.2399 -1.1988  0.6854
 2002TIP3   OH227564   2.617   6.162   0.048  0.0509 -0.7548  0.4491
 2002TIP3    H127565   2.573   6.247   0.051  1.0705 -0.1388 -0.9848
 2002TIP3    H227566   2.545   6.099   0.052 -0.7634  0.1693  0.9878
 2003TIP3   OH227567   1.000   1.429   7.311 -0.0353  0.0130 -0.3468
 2003TIP3    H127568   0.935   1.498   7.325 -0.4860 -0.7379  1.5761
 2003TIP3    H227569   1.071   1.451   7.371  0.4381 -0.4698 -0.7166
 2004TIP3   OH227570   1.093   4.092   7.682  0.0213 -0.4806 -0.3934
 2004TIP3    H127571   1.137   4.168   7.644  0.3218 -0.5733 -0.2321
 2004TIP3    H227572   1.050   4.125   7.760  0.3764 -0.5325 -0.1760
 2005TIP3   OH227573   6.176   2.206   1.310 -0.2519 -0.2779 -0.9643
 2005TIP3    H127574   6.109   2.219   1.243 -0.5928  3.0241 -0.1683
 2005TIP3    H227575   6.137   2.145   1.372 -2.2670  0.9397 -0.9375
 2006TIP3   OH227576   3.508   0.979   7.618 -0.1997  0.0661 -0.1570
 2006TIP3    H127577   3.536   1.020   7.537 -1.8093 -1.4431 -1.5772
 2006TIP3    H227578   3.478   1.051   7.673  0.5018  1.0812 -1.0740
 2007TIP3   OH227579   2.990   5.027   2.003 -0.3565 -0.6271 -0.1762
 2007TIP3    H127580   2.906   5.004   2.041 -1.0577  1.0011 -0.6639
 2007TIP3    H227581   3.055   4.988   2.062 -1.4427 -1.5558  0.4261
 2008TIP3   OH227582   1.224   0.657   0.943  0.0838 -0.0363  0.2670
 2008TIP3    H127583   1.310   0.616   0.937 -0.2296 -0.6689 -0.0167
 2008TIP3    H227584   1.167   0.600   0.891 -0.1635  1.2928 -0.9884
 2009TIP3   OH227585   4.763   6.487   8.161  0.1869  0.0967  0.0737
 2009TIP3    H127586   4.768   6.477   8.066  1.9737  0.4868  0.0837
 2009TIP3    H227587   4.725   6.574   8.174 -1.4765 -0.5487 -0.2248
 2010TIP3   OH227588   2.199   6.563   8.333  0.3744 -0.5533 -0.1655
 2010TIP3    H127589   2.142   6.634   8.361 -0.8896 -1.0210 -1.4150
 2010TIP3    H227590   2.284   6.604   8.319 -0.3908  0.7656 -1.1155
 2011TIP3   OH227591   4.173   3.564   7.737 -0.4427 -0.4139  0.5232
 2011TIP3    H127592   4.255   3.607   7.761 -0.7633  0.3875  0.2303
 2011TIP3    H227593   4.194   3.515   7.658 -0.7670  1.6649 -0.9268
 2012TIP3   OH227594   0.747   5.728   0.617 -0.2311  0.1090  0.3360
 2012TIP3    H127595   0.815   5.691   0.562 -0.5209 -0.9941  0.6922
 2012TIP3    H227596   0.784   5.810   0.650  0.4670  0.0918 -0.3851
 2013TIP3   OH227597   2.479   5.027   7.656 -0.3873  0.7452 -0.1519
 2013TIP3    H127598   2.408   4.963   7.658 -1.1132  1.5113 -0.8124
 2013TIP3    H227599   2.450   5.097   7.714  0.8076  0.0916  1.2923
 2014TIP3   OH227600   5.113   2.851   0.090  0.6420 -0.5412 -0.3034
 2014TIP3    H127601   5.102   2.939   0.053 -0.7228  0.0825  1.3832
 2014TIP3    H227602   5.057   2.795   0.037  0.1747 -0.0332 -0.3622
 2015TIP3   OH227603   4.321   0.095   0.789  0.4203 -0.5882  0.3854
 2015TIP3    H127604   4.381   0.135   0.726 -0.3774 -0.1431 -0.1156
 2015TIP3    H227605   4.304   0.008   0.752  0.6817 -0.6789  0.4776
 2016TIP3   OH227606   5.070   0.588   0.721 -0.0618  0.0147  0.0928
 2016TIP3    H127607   5.082   0.668   0.771  0.3709 -1.1751  2.0081
 2016TIP3    H227608   5.066   0.617   0.630  0.1172  2.1828  0.7167
 2017TIP3   OH227609   5.557   6.578   1.411 -0.5154 -0.0099  0.2517
 2017TIP3    H127610   5.624   6.532   1.463 -1.4249  0.2990  1.7328
 2017TIP3    H227611   5.522   6.510   1.353  0.2581 -0.4488  0.2770
 2018TIP3   OH227612   3.600   0.706   0.295 -0.5131 -0.5379  0.0774
 2018TIP3    H127613   3.548   0.669   0.367  0.3783 -2.4985 -0.2415
 2018TIP3    H227614   3.680   0.654   0.294 -0.2952 -0.2301 -2.0338
 2019TIP3   OH227615   1.817   1.918   2.468 -0.3818 -0.3655  0.5905
 2019TIP3    H127616   1.783   1.828   2.471  0.8326 -0.9091 -0.6815
 2019TIP3    H227617   1.912   1.908   2.475 -0.0393  0.6023 -1.7465
 2020TIP3   OH227618   3.517   5.575   1.748  0.4187 -0.2112  0.2870
 2020TIP3    H127619   3.611   5.594   1.756  0.3866  0.1573 -0.1473
 2020TIP3    H227620   3.499   5.513   1.819  1.0552 -0.5225  0.1912
 2021TIP3   OH227621   1.925   0.854   7.873  0.0923 -0.0684  0.0099
 2021TIP3    H127622   1.915   0.761   7.853  1.7676 -0.3574  0.2934
 2021TIP3    H227623   2.012   0.876   7.839 -0.0172  1.2399  0.5103
 2022TIP3   OH227624   3.595   1.162   0.728  0.1202  1.1293 -0.2321
 2022TIP3    H127625   3.678   1.119   0.749  0.6657  2.0086 -0.5407
 2022TIP3    H227626   3.591   1.159   0.632 -0.7976  0.0261 -0.1886
 2023TIP3   OH227627   4.603   3.637   8.878 -0.0327 -0.4226 -0.1324
 2023TIP3    H127628   4.583   3.729   8.892 -0.6962 -0.9506  3.6221
 2023TIP3    H227629   4.677   3.620   8.937 -0.5824 -2.4857  0.0479
 2024TIP3   OH227630   6.252   5.378   8.192 -0.7431  0.5510 -0.3114
 2024TIP3    H127631   6.233   5.286   8.174  0.7271  0.5091 -1.8470
 2024TIP3    H227632   6.168   5.415   8.217 -1.3085 -1.2645  0.6587
 2025TIP3   OH227633   6.464   0.936   8.004  0.0257  0.1816  0.3083
 2025TIP3    H127634   6.370   0.921   8.014  0.0724  1.2088  3.3400
 2025TIP3    H227635   6.474   0.968   7.915 -2.5856  0.5320  0.0630
 2026TIP3   OH227636   4.947   4.546   2.085  0.0313 -0.0257  0.3087
 2026TIP3    H127637   5.002   4.583   2.016  0.5010  1.2451  1.3217
 2026TIP3    H227638   4.993   4.466   2.111  0.4840  0.1234 -0.0227
 2027TIP3   OH227639   6.755   4.767   3.176  0.9256  0.7159 -0.6384
 2027TIP3    H127640   6.821   4.722   3.229  0.5922  0.4537 -0.4369
 2027TIP3    H227641   6.787   4.856   3.169  0.4417  1.0545  0.9482
 2028TIP3   OH227642   6.251   0.306   1.663  0.0596 -0.5013  0.2942
 2028TIP3    H127643   6.340   0.321   1.631 -0.5069 -0.2146 -1.2433
 2028TIP3    H227644   6.235   0.213   1.645  0.1289 -0.6048  0.7726
 2029TIP3   OH227645   1.076   1.075   1.329 -0.5049 -0.8999 -0.4936
 2029TIP3    H127646   1.147   1.021   1.364  0.0938 -0.2761 -0.7205
 2029TIP3    H227647   1.118   1.159   1.307 -1.1399 -0.8035 -1.4049
 2030TIP3   OH227648   5.825   2.734   8.431  0.3702 -0.4704 -0.4691
 2030TIP3    H127649   5.837   2.751   8.337 -0.9410 -0.1653 -0.6109
 2030TIP3    H227650   5.782   2.813   8.464  3.9951  0.9920  1.2049
 2031TIP3   OH227651   4.953   5.509   1.506 -0.1256  0.4991  0.1683
 2031TIP3    H127652   5.020   5.573   1.529  0.6451 -0.4391  0.6184
 2031TIP3    H227653   4.870   5.553   1.522  0.3617  0.6727  2.5905
 2032TIP3   OH227654   3.811   6.133   1.432 -0.4933 -0.6994 -0.1192
 2032TIP3    H127655   3.734   6.106   1.382 -1.6368 -1.4772  1.9767
 2032TIP3    H227656   3.792   6.222   1.460  1.1607  0.6584 -2.8753
 2033TIP3   OH227657   2.299   6.612   2.269  0.5539  0.5493  0.0329
 2033TIP3    H127658   2.260   6.601   2.183  0.8226 -2.5887  0.2220
 2033TIP3    H227659   2.393   6.598   2.256  0.6661  0.5586  0.7570
 2034TIP3   OH227660   4.521   0.244   1.698 -0.0915 -1.0397 -0.1272
 2034TIP3    H127661   4.555   0.162   1.733  0.6704 -2.3585 -3.5409
 2034TIP3    H227662   4.596   0.284   1.653 -1.0916  0.1655 -0.7886
 2035TIP3   OH227663   4.084   5.186   8.623  0.0136  0.3938 -0.0366
 2035TIP3    H127664   4.071   5.278   8.601  0.8131  0.9224  1.5243
 2035TIP3    H227665   4.178   5.179   8.640 -0.0057 -0.7644 -0.3243
 2036TIP3   OH227666   4.902   2.575   6.559 -0.2124  0.2438 -0.1990
 2036TIP3    H127667   4.817   2.531   6.566 -0.4972  0.8935  0.6794
 2036TIP3    H227668   4.966   2.505   6.560 -0.6030 -0.1682  2.0252
 2037TIP3   OH227669   1.607   0.313   1.021 -0.2437  0.8921  0.5793
 2037TIP3    H127670   1.600   0.309   1.116 -0.2441  0.7798  0.5747
 2037TIP3    H227671   1.574   0.229   0.991  1.6934  0.0890  0.5803
 2038TIP3   OH227672   4.259   3.996   1.710  0.0978 -0.2898  0.6942
 2038TIP3    H127673   4.235   4.007   1.802  0.7931 -1.6843  1.0645
 2038TIP3    H227674   4.329   3.931   1.711  1.9002  1.5043 -0.6170
 2039TIP3   OH227675   3.522   3.664   7.610  1.2456  0.5085  0.4298
 2039TIP3    H127676   3.593   3.642   7.549  2.1310  2.5818  0.6212
 2039TIP3    H227677   3.443   3.662   7.556  1.5978 -0.6822 -0.0632
 2040TIP3   OH227678   1.907   2.783   1.521  0.5298  0.2508 -0.5387
 2040TIP3    H127679   1.966   2.845   1.563  1.5475 -0.5410 -0.7512
 2040TIP3    H227680   1.887   2.719   1.589  0.3611  0.2081 -0.6277
 2041TIP3   OH227681   1.282   3.487   7.224  0.2677 -0.1451  0.5866
 2041TIP3    H127682   1.363   3.536   7.233  0.5145 -0.4583  0.0556
 2041TIP3    H227683   1.281   3.429   7.300  1.2412 -1.1553 -0.1522
 2042TIP3   OH227684   0.454   0.492   7.272  0.1336 -0.3090 -0.1081
 2042TIP3    H127685   0.485   0.562   7.215  0.2420 -0.5349 -0.3262
 2042TIP3    H227686   0.372   0.463   7.231 -1.8181  2.0270  1.8259
 2043TIP3   OH227687   0.404   2.193   7.629  0.1483  0.2022 -0.3821
 2043TIP3    H127688   0.395   2.100   7.607  2.7127 -0.2069 -0.0069
 2043TIP3    H227689   0.380   2.198   7.721  1.4342 -0.4165  0.0162
 2044TIP3   OH227690   1.280   5.064   0.791  0.2365 -0.1166  0.1242
 2044TIP3    H127691   1.216   5.131   0.767 -0.6018 -0.9491 -0.0193
 2044TIP3    H227692   1.334   5.054   0.713 -0.2211 -0.2640 -0.1793
 2045TIP3   OH227693   5.809   5.287   1.003  0.3790  0.2021 -0.1228
 2045TIP3    H127694   5.825   5.333   0.921 -1.5284 -1.1769 -1.3810
 2045TIP3    H227695   5.766   5.351   1.059  3.4343  1.7585  0.6561
 2046TIP3   OH227696   0.847   6.451   8.658  0.1875 -0.3766  0.3019
 2046TIP3    H127697   0.877   6.477   8.746  0.3537  1.2587 -0.2014
 2046TIP3    H227698   0.753   6.470   8.659  0.2066 -0.2700  0.1014
 2047TIP3   OH227699   2.228   6.383   2.444 -0.2617 -0.6999 -0.2487
 2047TIP3    H127700   2.223   6.447   2.373  1.8309  0.7979  0.8357
 2047TIP3    H227701   2.148   6.332   2.435 -1.2624  1.0125 -2.1703
 2048TIP3   OH227702   3.632   1.801   7.699 -0.5100 -0.2595 -0.1134
 2048TIP3    H127703   3.640   1.873   7.760 -1.4893 -0.7885  0.6735
 2048TIP3    H227704   3.668   1.834   7.617  1.6140  0.1883  0.9427
 2049TIP3   OH227705   5.792   2.015   8.846 -0.7872  0.3008 -0.0219
 2049TIP3    H127706   5.804   1.948   8.778 -2.8866 -0.3647  0.1880
 2049TIP3    H227707   5.832   1.977   8.924 -0.5804 -0.0130 -0.2744
 2050TIP3   OH227708   3.701   1.637   7.281  0.4581 -0.2614  0.0785
 2050TIP3    H127709   3.635   1.601   7.222 -0.9127  0.6893  0.9716
 2050TIP3    H227710   3.715   1.568   7.346 -0.9705  0.1564  0.8722
 2051TIP3   OH227711   0.124   6.057   6.741 -0.5704  0.4291  0.1879
 2051TIP3    H127712   0.038   6.082   6.774 -0.8067 -1.2137  0.8781
 2051TIP3    H227713   0.108   5.976   6.692  0.4260  0.6868 -0.5961
 2052TIP3   OH227714   4.139   5.492   0.241 -0.0347  0.6726  0.1191
 2052TIP3    H127715   4.092   5.481   0.159  1.8440  0.7094 -1.0135
 2052TIP3    H227716   4.171   5.404   0.263  0.8838  0.9393 -0.1002
 2053TIP3   OH227717   5.933   2.450   2.439 -0.0867 -0.1926 -0.0543
 2053TIP3    H127718   5.844   2.420   2.456 -0.0140 -0.3570  0.0480
 2053TIP3    H227719   5.963   2.394   2.366 -0.6848  1.0684 -1.3128
 2054TIP3   OH227720   0.442   3.073   8.790  0.3496 -0.4810  0.4554
 2054TIP3    H127721   0.361   3.070   8.840  0.4037  0.8581  0.6658
 2054TIP3    H227722   0.511   3.060   8.854  0.3111 -2.3369  0.1758
 2055TIP3   OH227723   0.699   2.720   2.420 -0.1138  0.0519 -0.3701
 2055TIP3    H127724   0.727   2.645   2.471  0.4425  0.2682 -0.3527
 2055TIP3    H227725   0.630   2.761   2.473 -0.7430 -0.6984 -0.5921
 2056TIP3   OH227726   2.178   6.120   2.092  0.4098 -0.0509  0.2728
 2056TIP3    H127727   2.174   6.024   2.088  1.5417 -0.0640 -1.6564
 2056TIP3    H227728   2.263   6.139   2.130  0.5224  0.1927 -0.1028
 2057TIP3   OH227729   0.577   2.675   1.204  0.1422 -0.5423 -0.3264
 2057TIP3    H127730   0.488   2.674   1.167 -0.1201 -1.2906  0.2772
 2057TIP3    H227731   0.563   2.662   1.298  0.8104  1.0109  0.0019
 2058TIP3   OH227732   4.825   0.825   8.525 -0.1256  0.1340  0.2314
 2058TIP3    H127733   4.862   0.898   8.575 -0.7796  0.3583  0.3901
 2058TIP3    H227734   4.898   0.793   8.472 -0.0285  1.3739 -0.3913
 2059TIP3   OH227735   4.028   2.897   2.571 -0.0362 -0.6933 -0.1608
 2059TIP3    H127736   4.056   2.957   2.502 -1.2625 -0.4488 -0.4687
 2059TIP3    H227737   3.950   2.938   2.608  0.2556 -1.1304  0.9672
 2060TIP3   OH227738   2.335   3.703   6.689  0.2942  0.3436 -0.2034
 2060TIP3    H127739   2.400   3.771   6.707  1.0336 -0.8317  1.9026
 2060TIP3    H227740   2.387   3.623   6.678 -0.7205 -1.1050  3.7842
 2061TIP3   OH227741   6.632   3.018   0.058  0.4120  0.1106 -0.3292
 2061TIP3    H127742   6.669   3.044   0.143 -0.6455  0.7006 -0.0330
 2061TIP3    H227743   6.675   2.935   0.038  1.0213  0.1910  0.5586
 2062TIP3   OH227744   2.392   0.821   3.036 -0.5068 -0.2883  1.0250
 2062TIP3    H127745   2.467   0.795   2.982 -1.3031 -1.1271  0.3091
 2062TIP3    H227746   2.375   0.912   3.010 -0.1352 -0.3022  0.7248
 2063TIP3   OH227747   5.631   2.198   7.184 -0.3727  0.6485 -1.1192
 2063TIP3    H127748   5.635   2.103   7.169  0.4159  0.5925 -0.5884
 2063TIP3    H227749   5.538   2.219   7.178 -0.8935 -0.5984  1.4105
 2064TIP3   OH227750   4.322   6.619   0.727  0.0628 -0.1077 -0.1984
 2064TIP3    H127751   4.332   6.531   0.691 -1.7483 -1.8429  3.0842
 2064TIP3    H227752   4.399   6.631   0.782  0.2995  0.4140 -0.6306
 2065TIP3   OH227753   1.001   2.424   0.618  0.5372  0.1512  0.4816
 2065TIP3    H127754   0.914   2.449   0.587  0.2829  1.1318  1.8674
 2065TIP3    H227755   0.984   2.362   0.689  1.0055 -0.1913  0.2982
 2066TIP3   OH227756   4.540   0.286   1.336  0.2452 -0.5912 -0.3224
 2066TIP3    H127757   4.611   0.283   1.271 -1.5472 -1.3126 -2.3779
 2066TIP3    H227758   4.523   0.194   1.356 -0.0375 -0.4199  0.2370
 2067TIP3   OH227759   6.319   5.480   2.080 -0.1138  0.7813  0.1009
 2067TIP3    H127760   6.328   5.533   2.001 -0.4279  2.0131  0.8651
 2067TIP3    H227761   6.400   5.494   2.128 -0.7081  1.6152  0.9050
 2068TIP3   OH227762   0.955   3.415   0.676  0.4081  0.1386  0.2960
 2068TIP3    H127763   0.935   3.357   0.750  0.3910 -0.5905 -0.2709
 2068TIP3    H227764   1.044   3.446   0.693  1.4748 -2.1384 -0.6992
 2069TIP3   OH227765   3.152   5.362   1.293  0.1125 -0.4992 -0.1248
 2069TIP3    H127766   3.223   5.424   1.309 -0.3988 -0.3387  1.6435
 2069TIP3    H227767   3.128   5.377   1.202  1.7430  0.0533 -0.5031
 2070TIP3   OH227768   0.693   1.664   8.215 -0.0291  0.5597  0.3154
 2070TIP3    H127769   0.736   1.607   8.151  0.6034 -1.3210  2.2863
 2070TIP3    H227770   0.636   1.720   8.163 -0.1937 -1.4397 -1.8135
 2071TIP3   OH227771   1.879   6.757   8.123 -0.6222 -0.0925 -0.2707
 2071TIP3    H127772   1.943   6.693   8.095 -0.8486 -1.1985  1.5436
 2071TIP3    H227773   1.815   6.706   8.174 -1.9577  1.2535 -0.5129
 2072TIP3   OH227774   5.233   3.375   8.268 -0.4389  0.0901 -0.6550
 2072TIP3    H127775   5.320   3.335   8.274  0.2161  1.4103 -0.8980
 2072TIP3    H227776   5.173   3.301   8.266  0.6913 -0.8648 -0.7152
 2073TIP3   OH227777   5.292   6.225   2.689 -0.0529 -0.0704  0.2997
 2073TIP3    H127778   5.240   6.273   2.753 -1.2246  0.3396 -0.9148
 2073TIP3    H227779   5.278   6.271   2.607  1.7486 -0.3420 -0.2016
 2074TIP3   OH227780   6.662   4.214   2.583 -0.3029  0.3826 -0.4901
 2074TIP3    H127781   6.734   4.215   2.646 -1.6988  0.7468  1.1785
 2074TIP3    H227782   6.660   4.125   2.549  1.9004  0.7681 -1.7956
 2075TIP3   OH227783   1.284   1.107   8.785 -0.1468 -0.3976 -0.0856
 2075TIP3    H127784   1.326   1.049   8.849 -0.7634  0.3517  1.0472
 2075TIP3    H227785   1.354   1.135   8.727  1.0714  1.1152  1.9786
 2076TIP3   OH227786   5.567   2.370   8.229 -0.1020 -0.0259 -0.5929
 2076TIP3    H127787   5.605   2.312   8.294 -1.1208  2.5908  2.5892
 2076TIP3    H227788   5.642   2.418   8.193  0.3329 -0.3393 -0.1163
 2077TIP3   OH227789   4.338   1.771   1.188  0.0251 -0.1081 -0.4542
 2077TIP3    H127790   4.383   1.788   1.106  0.8273  0.0119  0.0038
 2077TIP3    H227791   4.253   1.735   1.162 -0.4385  1.5544 -1.3626
 2078TIP3   OH227792   1.374   5.078   8.622  0.3058 -0.2482  0.2294
 2078TIP3    H127793   1.396   5.017   8.692  0.7077 -0.3338  0.0313
 2078TIP3    H227794   1.405   5.035   8.542 -1.1314 -0.6598 -0.1453
 2079TIP3   OH227795   6.489   5.623   0.524  0.3350 -0.3074  0.4431
 2079TIP3    H127796   6.512   5.586   0.439  1.2035 -0.4236  0.7172
 2079TIP3    H227797   6.395   5.609   0.532  0.1059  0.3948 -0.8222
 2080TIP3   OH227798   1.482   6.624   1.773  0.2573  0.2861  0.0319
 2080TIP3    H127799   1.451   6.675   1.848  0.3392 -0.5052  0.6177
 2080TIP3    H227800   1.569   6.660   1.755 -0.5824  1.8811 -1.0257
 2081TIP3   OH227801   5.892   4.053   8.584  0.5123  0.0912  0.0812
 2081TIP3    H127802   5.870   4.146   8.582  1.8503  0.5478  2.7793
 2081TIP3    H227803   5.840   4.018   8.656  1.7078 -0.7525  0.5663
 2082TIP3   OH227804   0.106   3.672   2.174  0.2526 -0.2443 -0.0500
 2082TIP3    H127805   0.036   3.684   2.109 -0.4954 -2.4479  0.2786
 2082TIP3    H227806   0.109   3.756   2.221 -0.2125  0.8721 -1.9151
 2083TIP3   OH227807   0.965   2.205   2.682 -0.5412 -0.1530  0.3829
 2083TIP3    H127808   0.884   2.210   2.733 -0.6960  0.9126  0.0626
 2083TIP3    H227809   1.031   2.246   2.737 -0.5917  0.5054 -0.0317
 2084TIP3   OH227810   0.861   4.361   1.760 -0.0828 -0.2588 -0.0366
 2084TIP3    H127811   0.807   4.282   1.753 -0.7296  0.0858  0.8489
 2084TIP3    H227812   0.912   4.348   1.840 -0.0345  0.1333 -0.0023
 2085TIP3   OH227813   4.231   3.676   8.457 -0.1552 -0.4977  0.1137
 2085TIP3    H127814   4.232   3.585   8.486  1.4484 -0.3293  0.6913
 2085TIP3    H227815   4.299   3.681   8.390  0.3575  0.4260  0.6727
 2086TIP3   OH227816   2.451   6.493   1.442 -0.7230 -0.0431  0.3040
 2086TIP3    H127817   2.509   6.557   1.401 -0.8004 -0.3636 -0.3282
 2086TIP3    H227818   2.363   6.524   1.420 -0.7602 -0.3776 -0.0277
 2087TIP3   OH227819   6.727   2.192   1.736 -0.2137  0.3403  0.0717
 2087TIP3    H127820   6.745   2.195   1.642  0.1508 -1.7783  0.0154
 2087TIP3    H227821   6.812   2.179   1.777 -0.6231 -1.8964  0.3908
 2088TIP3   OH227822   1.677   2.318   0.018 -0.0957 -0.3167 -0.1322
 2088TIP3    H127823   1.648   2.298  -0.072 -1.6047  1.9611 -0.2568
 2088TIP3    H227824   1.753   2.374   0.006 -0.1839 -0.1662  0.0126
 2089TIP3   OH227825   0.658   4.417   2.875  0.0505 -0.5588  0.3742
 2089TIP3    H127826   0.571   4.457   2.881 -0.6675 -1.7791 -1.1393
 2089TIP3    H227827   0.653   4.342   2.935  1.3649  1.3948  3.1419
 2090TIP3   OH227828   5.625   5.255   1.764  0.7105  0.4283 -0.2039
 2090TIP3    H127829   5.629   5.202   1.843 -1.4092  2.4045  1.3987
 2090TIP3    H227830   5.549   5.221   1.716  1.0529  0.2333 -0.6171
 2091TIP3   OH227831   3.898   4.224   0.156  0.3288 -0.1269  0.1456
 2091TIP3    H127832   3.888   4.158   0.224  0.3044 -1.5630 -1.1979
 2091TIP3    H227833   3.809   4.257   0.141  0.4657  0.9800  1.4906
 2092TIP3   OH227834   1.638   5.902   8.157 -0.2282  0.0876 -0.2020
 2092TIP3    H127835   1.627   5.808   8.147 -0.9282  0.4296 -3.6505
 2092TIP3    H227836   1.612   5.939   8.073  1.8434  3.2342  0.3681
 2093TIP3   OH227837   4.466   1.779   0.701 -0.1633  0.3452 -0.7355
 2093TIP3    H127838   4.471   1.750   0.792 -0.1362 -0.2767 -0.9307
 2093TIP3    H227839   4.525   1.853   0.696  1.1454 -0.6566 -0.6348
 2094TIP3   OH227840   5.747   4.996   7.878 -0.2492  0.2732 -0.5999
 2094TIP3    H127841   5.693   5.000   7.799 -1.9973  0.6179  0.5627
 2094TIP3    H227842   5.794   5.079   7.879 -0.1052  0.2092 -1.3317
 2095TIP3   OH227843   5.102   2.182   8.143  0.0891  0.4016 -0.4333
 2095TIP3    H127844   5.175   2.129   8.175 -1.0315 -1.6187 -1.0467
 2095TIP3    H227845   5.052   2.203   8.222 -1.3427 -2.5154 -0.4391
 2096TIP3   OH227846   6.027   0.325   2.699 -0.1898  0.1949 -0.0158
 2096TIP3    H127847   5.951   0.312   2.755 -0.5062  1.1124 -0.2085
 2096TIP3    H227848   5.991   0.327   2.610  0.4844 -2.8875 -0.4637
 2097TIP3   OH227849   0.369   5.309   8.277  0.0383  0.1108  0.1110
 2097TIP3    H127850   0.278   5.336   8.285 -0.2237 -0.9352  0.8822
 2097TIP3    H227851   0.370   5.218   8.305  1.4235  0.2693  0.6769
 2098TIP3   OH227852   0.097   3.215   8.740 -0.0969 -0.2527  0.0428
 2098TIP3    H127853   0.064   3.295   8.697 -1.3875 -0.1384  1.1751
 2098TIP3    H227854   0.032   3.148   8.717  0.3601 -0.7071  0.0612
 2099TIP3   OH227855   1.838   2.201   6.753  0.2786 -0.6342  0.3428
 2099TIP3    H127856   1.806   2.132   6.694 -0.7524  0.4719 -0.4573
 2099TIP3    H227857   1.769   2.208   6.819  0.0004  0.1387 -0.0219
 2100TIP3   OH227858   3.807   4.234   1.374  0.3359 -0.2553 -0.3498
 2100TIP3    H127859   3.748   4.207   1.304  0.9881 -0.3042 -0.8868
 2100TIP3    H227860   3.873   4.165   1.378  0.0958 -0.4581  0.5840
 2101TIP3   OH227861   3.900   0.972   7.753  0.1963 -0.2320  0.2284
 2101TIP3    H127862   3.943   1.025   7.686 -0.5879 -0.8403 -0.7891
 2101TIP3    H227863   3.848   1.034   7.804 -0.9872 -0.0087 -1.1612
 2102TIP3   OH227864   6.432   0.155   2.337  0.0417 -0.5806  0.0556
 2102TIP3    H127865   6.509   0.102   2.316 -0.0842  0.4364 -3.5014
 2102TIP3    H227866   6.468   0.237   2.371  0.4976 -0.5020 -0.6055
 2103TIP3   OH227867   0.068   5.167   1.293 -0.2441  0.0334  0.2581
 2103TIP3    H127868   0.096   5.186   1.383  0.8379 -1.5034  0.2770
 2103TIP3    H227869   0.010   5.240   1.271  0.3668  1.0488  1.7893
 2104TIP3   OH227870   2.597   0.210   0.481  0.0505  0.0994  0.0667
 2104TIP3    H127871   2.613   0.239   0.571  1.7550 -1.2878  0.2452
 2104TIP3    H227872   2.678   0.228   0.434 -0.9250  1.1314 -1.3395
 2105TIP3   OH227873   1.125   6.179   2.062  0.1828 -0.1736 -0.1233
 2105TIP3    H127874   1.144   6.094   2.101  0.0651 -0.3768 -0.5042
 2105TIP3    H227875   1.197   6.235   2.090  0.4878 -0.5136 -0.2245
 2106TIP3   OH227876   5.127   1.905   8.833 -0.2577  0.4367 -0.2581
 2106TIP3    H127877   5.092   1.887   8.746 -0.8712  1.4876 -0.2486
 2106TIP3    H227878   5.094   1.992   8.854 -1.1225 -0.2690  1.5151
 2107TIP3   OH227879   3.964   6.135   2.264 -0.2613  0.3055  0.0161
 2107TIP3    H127880   3.884   6.136   2.317  0.6587  1.3473  1.4709
 2107TIP3    H227881   3.940   6.177   2.182 -1.0486  1.2278  0.7017
 2108TIP3   OH227882   5.259   3.555   7.374  0.2363  0.7190 -0.2685
 2108TIP3    H127883   5.215   3.497   7.437 -2.9574  2.3680 -0.7639
 2108TIP3    H227884   5.274   3.501   7.297 -1.4878  0.1593 -0.2556
 2109TIP3   OH227885   2.197   6.070   0.254  0.3857 -0.1578 -0.6108
 2109TIP3    H127886   2.221   6.162   0.246  0.4479 -0.0910  0.2471
 2109TIP3    H227887   2.150   6.050   0.173  0.0548  0.7250 -0.6459
 2110TIP3   OH227888   1.126   0.304   7.227  0.1770  0.5546  0.2096
 2110TIP3    H127889   1.124   0.227   7.170 -1.1238  0.1838  0.7183
 2110TIP3    H227890   1.130   0.378   7.167  1.4048  0.1097 -0.2908
 2111TIP3   OH227891   2.872   5.639   8.223 -0.0647 -0.1096 -0.0980
 2111TIP3    H127892   2.816   5.562   8.231 -1.6688  0.7717 -1.9168
 2111TIP3    H227893   2.852   5.693   8.300 -0.2450 -0.6984  0.2670
 2112TIP3   OH227894   2.038   5.160   8.734  0.8064  0.0392  0.1989
 2112TIP3    H127895   2.092   5.175   8.812 -0.8600  1.0398  1.2209
 2112TIP3    H227896   1.984   5.238   8.727 -0.0023 -0.6084 -1.2132
 2113TIP3   OH227897   5.859   1.011   0.321  0.5481 -0.0533  0.0754
 2113TIP3    H127898   5.823   1.002   0.232  1.2130 -0.9054 -0.1193
 2113TIP3    H227899   5.870   1.105   0.332  0.8045  0.0502 -0.9026
 2114TIP3   OH227900   4.954   1.086   0.401 -0.2286 -0.6817 -0.1404
 2114TIP3    H127901   4.861   1.092   0.423 -0.4260 -2.2051 -0.4310
 2114TIP3    H227902   4.998   1.133   0.471 -1.2303  0.4765 -0.2504
 2115TIP3   OH227903   0.821   4.436   0.746 -0.5846 -0.6104  0.0097
 2115TIP3    H127904   0.891   4.371   0.744 -2.8897 -3.3014 -1.4122
 2115TIP3    H227905   0.763   4.406   0.816 -1.4732  0.1824 -0.3670
 2116TIP3   OH227906   1.352   2.684   8.358 -0.3758 -0.0214 -0.6321
 2116TIP3    H127907   1.395   2.654   8.438  2.7864  2.4853 -1.1600
 2116TIP3    H227908   1.375   2.619   8.292  1.1477  0.3062 -0.4681
 2117TIP3   OH227909   6.490   1.775   7.490 -0.1362 -0.1250  0.1817
 2117TIP3    H127910   6.472   1.838   7.420 -2.1067 -1.8545 -0.9592
 2117TIP3    H227911   6.429   1.799   7.560 -1.0414 -0.8672 -0.3401
 2118TIP3   OH227912   2.791   5.394   2.466 -0.0099 -0.2914 -0.5763
 2118TIP3    H127913   2.700   5.372   2.445 -0.7191  3.2607 -2.0220
 2118TIP3    H227914   2.842   5.357   2.394 -0.4455 -1.3034 -0.3788
 2119TIP3   OH227915   5.462   4.150   6.595 -0.3133 -0.4782 -0.0889
 2119TIP3    H127916   5.394   4.140   6.662  0.0896 -0.8569  0.2708
 2119TIP3    H227917   5.416   4.134   6.513 -0.7813 -0.1670  0.1068
 2120TIP3   OH227918   6.111   1.311   8.318 -0.5237 -0.5122 -0.5120
 2120TIP3    H127919   6.168   1.286   8.245  0.9255  0.8276  0.1200
 2120TIP3    H227920   6.149   1.391   8.352  0.2663 -2.2514  3.2053
 2121TIP3   OH227921   6.414   0.733   2.078 -0.3587  0.6011  0.1962
 2121TIP3    H127922   6.414   0.756   2.171 -0.9088  0.9761  0.1060
 2121TIP3    H227923   6.507   0.727   2.055 -0.2121 -0.3927  0.9819
 2122TIP3   OH227924   4.948   1.894   7.590  0.8960  0.0485  0.4741
 2122TIP3    H127925   5.027   1.866   7.544 -0.2105  0.5460 -1.8296
 2122TIP3    H227926   4.964   1.985   7.613  1.2065 -0.0181  0.5299
 2123TIP3   OH227927   3.869   2.666   1.245 -0.1930  0.4227  0.1271
 2123TIP3    H127928   3.947   2.660   1.189 -0.0744 -1.3024  0.3987
 2123TIP3    H227929   3.825   2.582   1.231 -0.7749  0.4481  1.7239
 2124TIP3   OH227930   3.781   6.384   0.001  0.0701  0.9319 -0.1725
 2124TIP3    H127931   3.694   6.378   0.038  0.3374  2.1508  0.7117
 2124TIP3    H227932   3.783   6.317  -0.068 -2.0505  1.8530 -1.2121
 2125TIP3   OH227933   3.369   4.710   8.299 -0.4657  0.5450 -0.6166
 2125TIP3    H127934   3.296   4.770   8.316 -2.0000 -1.2566 -0.5625
 2125TIP3    H227935   3.385   4.717   8.205 -1.7915 -0.1846 -0.9135
 2126TIP3   OH227936   4.872   1.749   6.778  0.0427 -0.0521 -0.6033
 2126TIP3    H127937   4.830   1.783   6.699 -0.7158 -0.2370 -0.2868
 2126TIP3    H227938   4.822   1.671   6.800 -0.1565  0.3508  0.4235
 2127TIP3   OH227939   2.710   0.572   0.592 -0.4212  0.4626 -0.6208
 2127TIP3    H127940   2.723   0.488   0.637  0.4363 -0.5087 -2.5756
 2127TIP3    H227941   2.623   0.566   0.553 -0.8384  0.9879  0.1864
 2128TIP3   OH227942   5.816   3.407   8.568  0.2659 -0.1564 -0.0225
 2128TIP3    H127943   5.831   3.499   8.549  1.0103  0.1271  1.7729
 2128TIP3    H227944   5.902   3.366   8.559  0.5519 -0.1072  1.9628
 2129TIP3   OH227945   0.088   2.897   7.172 -0.0698 -0.5222  0.4376
 2129TIP3    H127946   0.135   2.815   7.155  0.3470  0.0859 -1.6652
 2129TIP3    H227947   0.003   2.885   7.129  0.4849  0.5963 -1.0270
 2130TIP3   OH227948   1.965   0.220   8.030 -0.3109 -0.0880 -0.2915
 2130TIP3    H127949   1.929   0.132   8.040  2.8153 -1.7739 -2.2410
 2130TIP3    H227950   1.987   0.227   7.937  0.4114  2.3875 -0.0126
 2131TIP3   OH227951   4.479   2.674   1.695 -0.0316  0.0706  1.2364
 2131TIP3    H127952   4.396   2.707   1.660 -0.0589 -0.7469  0.4668
 2131TIP3    H227953   4.453   2.599   1.750  0.2712 -1.1657 -0.2444
 2132TIP3   OH227954   0.266   5.141   3.323  0.1795  0.2994  0.9644
 2132TIP3    H127955   0.319   5.092   3.260 -0.2678  0.0911  0.7511
 2132TIP3    H227956   0.265   5.230   3.289  0.4467  0.3173  1.0022
 2133TIP3   OH227957   6.736   2.858   7.836 -0.3700 -0.1622  0.2862
 2133TIP3    H127958   6.689   2.854   7.919 -1.1362  1.2789 -0.0467
 2133TIP3    H227959   6.699   2.786   7.784 -1.0058 -0.1017  0.6424
 2134TIP3   OH227960   4.719   0.950   1.730 -0.2298  0.1234 -0.3500
 2134TIP3    H127961   4.729   1.042   1.705 -0.6524  0.0226 -0.8991
 2134TIP3    H227962   4.746   0.947   1.822  1.9116  0.4073 -0.9182
 2135TIP3   OH227963   4.407   3.110   7.528  0.4658 -0.1639 -0.1157
 2135TIP3    H127964   4.405   3.206   7.529  1.6998 -0.0841  2.2537
 2135TIP3    H227965   4.327   3.085   7.483 -0.3199  1.9731 -0.0403
 2136TIP3   OH227966   2.754   5.381   8.253  0.5986  0.3884  0.5155
 2136TIP3    H127967   2.692   5.317   8.219 -0.9066  1.6341  0.8319
 2136TIP3    H227968   2.781   5.346   8.338 -0.9561  0.6401  1.1253
 2137TIP3   OH227969   2.639   5.109   2.179 -0.3614  0.1404  0.5064
 2137TIP3    H127970   2.630   5.080   2.088  1.8084  1.4905 -0.1896
 2137TIP3    H227971   2.602   5.037   2.230  0.6396 -1.7981 -1.3304
 2138TIP3   OH227972   6.666   6.164   2.092  0.1161 -0.4651  0.2245
 2138TIP3    H127973   6.653   6.229   2.161 -2.4277 -1.0320  0.3740
 2138TIP3    H227974   6.673   6.216   2.011 -0.6286  0.0500  0.4817
 2139TIP3   OH227975   0.339   0.487   0.713 -0.6291 -0.0057  0.2385
 2139TIP3    H127976   0.307   0.406   0.753 -0.2755 -0.3486 -0.1698
 2139TIP3    H227977   0.399   0.458   0.644  1.7304  0.6204  1.9121
 2140TIP3   OH227978   0.542   0.824   0.127  0.0572  0.4629  0.1248
 2140TIP3    H127979   0.610   0.858   0.186  1.1013  0.4924 -1.0629
 2140TIP3    H227980   0.530   0.733   0.153  0.3490  0.5369  0.5233
 2141TIP3   OH227981   5.719   4.890   0.352 -0.4907 -0.5625 -0.6550
 2141TIP3    H127982   5.730   4.865   0.443 -0.8108  1.2801 -0.0701
 2141TIP3    H227983   5.626   4.912   0.344 -0.0452  1.5061 -0.7802
 2142TIP3   OH227984   0.857   1.490   8.730  0.8907  0.1327 -0.5460
 2142TIP3    H127985   0.911   1.520   8.803  0.4006 -1.7067  0.6306
 2142TIP3    H227986   0.906   1.417   8.693 -0.5923 -1.3638  0.3398
 2143TIP3   OH227987   4.386   2.156   8.408 -0.5018 -0.5171  0.8148
 2143TIP3    H127988   4.333   2.117   8.339 -1.2402 -2.4065  2.3566
 2143TIP3    H227989   4.348   2.243   8.420 -0.0727  0.0352 -1.3853
 2144TIP3   OH227990   3.330   0.030   0.778 -0.6383 -0.0754  0.5941
 2144TIP3    H127991   3.339  -0.014   0.694  2.7551  1.2191  0.1186
 2144TIP3    H227992   3.298  -0.037   0.838 -1.1402 -1.5661 -1.2599
 2145TIP3   OH227993   0.999   1.755   0.318  0.6487  0.3619 -0.5425
 2145TIP3    H127994   1.083   1.792   0.344  0.0458  0.9648  0.6995
 2145TIP3    H227995   0.980   1.689   0.385  0.5801 -0.4664 -1.3636
 2146TIP3   OH227996   4.509   5.606   0.426 -0.0634  0.3177 -0.2513
 2146TIP3    H127997   4.542   5.629   0.339  1.3535  0.7124  0.3590
 2146TIP3    H227998   4.587   5.579   0.475 -0.9017 -0.3193  0.7718
 2147TIP3   OH227999   4.876   0.935   7.098  0.7839  0.1713  0.4706
 2147TIP3    H128000   4.784   0.909   7.105  1.0302 -0.3811  2.1529
 2147TIP3    H228001   4.875   1.029   7.116  0.5186  0.2293  0.1669
 2148TIP3   OH228002   5.816   6.020   8.029  0.0565 -0.2927 -0.0281
 2148TIP3    H128003   5.906   6.021   7.997 -0.5191  0.1098 -1.7010
 2148TIP3    H228004   5.811   5.941   8.083  1.9482  0.7420  1.8219
 2149TIP3   OH228005   3.389   5.863   8.801  0.0804  0.3217  0.1881
 2149TIP3    H128006   3.349   5.921   8.866  0.0003  1.2833 -0.6984
 2149TIP3    H228007   3.315   5.827   8.752  0.1730  0.1662  0.1634
 2150TIP3   OH228008   3.478   2.374   8.738 -0.0934  0.2827 -0.0184
 2150TIP3    H128009   3.406   2.419   8.694 -0.4679 -0.3287 -0.0469
 2150TIP3    H228010   3.464   2.282   8.718  0.1688  0.0687  0.7532
 2151TIP3   OH228011   4.085   0.740   0.782 -0.9833  0.3751 -0.0371
 2151TIP3    H128012   4.017   0.680   0.750 -0.9600  0.1473  0.3348
 2151TIP3    H228013   4.167   0.694   0.764 -0.9974 -0.0696  0.9783
 2152TIP3   OH228014   6.329   0.748   0.873 -0.4336 -0.2846  0.5621
 2152TIP3    H128015   6.242   0.727   0.840  0.8607 -1.0282 -2.8259
 2152TIP3    H228016   6.383   0.673   0.849  2.0380  1.9614 -1.6912
 2153TIP3   OH228017   1.116   1.760   7.652 -0.0931  0.0717 -0.4551
 2153TIP3    H128018   1.105   1.668   7.677  0.3758  0.4863  1.4558
 2153TIP3    H228019   1.028   1.797   7.662  0.1668  0.3254  1.1185
 2154TIP3   OH228020   2.177   5.346   2.176 -0.0489 -0.3785 -0.2645
 2154TIP3    H128021   2.271   5.363   2.173 -0.2603  0.7698 -1.4272
 2154TIP3    H228022   2.155   5.344   2.269  0.9424  0.4685  0.0009
 2155TIP3   OH228023   0.716   2.562   0.750 -0.1193 -0.3014  0.9989
 2155TIP3    H128024   0.709   2.606   0.834  2.3799 -0.4298  1.3636
 2155TIP3    H228025   0.782   2.612   0.702  0.0116 -1.4325 -0.0721
 2156TIP3   OH228026   5.063   6.148   2.152  0.3375 -0.2327  0.4382
 2156TIP3    H128027   5.070   6.104   2.237 -1.3105  1.1802  1.3638
 2156TIP3    H228028   5.053   6.076   2.090  0.0329 -1.2675  1.6272
 2157TIP3   OH228029   1.907   3.517   1.966 -0.3058  0.0502 -0.4821
 2157TIP3    H128030   1.985   3.567   1.942 -0.8828  2.4600  2.0847
 2157TIP3    H228031   1.841   3.583   1.986 -0.7083 -1.4080  4.5718
 2158TIP3   OH228032   0.883   6.381   2.008  0.2126  0.4633  0.3690
 2158TIP3    H128033   0.886   6.366   1.914 -1.1958  1.0594  0.2029
 2158TIP3    H228034   0.914   6.299   2.047  0.0876 -0.0532 -0.5959
 2159TIP3   OH228035   2.083   1.386   0.386 -0.2815  0.0035  0.6069
 2159TIP3    H128036   2.150   1.324   0.414  0.5108  0.2222 -0.7153
 2159TIP3    H228037   2.032   1.339   0.320  0.0732  0.6116 -0.1123
 2160TIP3   OH228038   0.087   2.630   1.696  0.6724  0.4625 -0.3048
 2160TIP3    H128039   0.037   2.712   1.697 -0.1491 -0.0311  0.4062
 2160TIP3    H228040   0.028   2.565   1.733  0.9467 -0.6843 -1.7895
 2161TIP3   OH228041   2.227   4.935   7.353 -0.1977  0.0637 -0.0265
 2161TIP3    H128042   2.313   4.893   7.355 -0.0602  0.2134 -1.7957
 2161TIP3    H228043   2.165   4.863   7.361  0.0668 -0.2327 -0.6303
 2162TIP3   OH228044   1.118   1.180   7.415 -0.0917  0.1428  0.1446
 2162TIP3    H128045   1.119   1.118   7.488  0.4154  0.8004  0.7059
 2162TIP3    H228046   1.033   1.224   7.422 -0.7799 -1.0099 -0.7164
 2163TIP3   OH228047   6.472   2.434   0.272 -0.4496 -0.0352  0.0566
 2163TIP3    H128048   6.379   2.410   0.275 -0.7987  1.0172 -1.1388
 2163TIP3    H228049   6.518   2.351   0.274 -1.4216 -0.5765  0.6993
 2164TIP3   OH228050   0.600   0.714   0.856 -0.3648  0.1163 -0.7350
 2164TIP3    H128051   0.617   0.652   0.926  1.6561  1.8024  0.3933
 2164TIP3    H228052   0.545   0.781   0.896  0.0526  0.6295 -1.0138
 2165TIP3   OH228053   6.742   4.006   1.328  0.0379  0.1063  0.1117
 2165TIP3    H128054   6.822   3.994   1.380  0.8677 -1.9662 -1.4639
 2165TIP3    H228055   6.682   3.939   1.361 -0.7347  1.0861  0.7090
 2166TIP3   OH228056   2.979   6.338   2.320  0.5974  0.0394  0.2532
 2166TIP3    H128057   3.023   6.420   2.343 -1.3114  1.2925 -0.3374
 2166TIP3    H228058   2.922   6.320   2.395 -1.7646  1.3435 -1.0932
 2167TIP3   OH228059   0.974   5.729   2.193  0.1732 -0.1025  0.2991
 2167TIP3    H128060   0.891   5.718   2.240  0.1136 -0.8861  0.0188
 2167TIP3    H228061   1.011   5.809   2.229 -1.3216  0.9985 -0.5152
 2168TIP3   OH228062   3.156   5.000   1.770 -0.4578  0.0233 -0.1993
 2168TIP3    H128063   3.226   5.064   1.758 -1.2081  0.7142 -1.0151
 2168TIP3    H228064   3.100   5.037   1.838  0.0669 -0.6299  0.6054
 2169TIP3   OH228065   4.695   1.521   0.467 -0.3901  0.5530 -0.9712
 2169TIP3    H128066   4.630   1.465   0.425 -1.0729  0.3613  0.2946
 2169TIP3    H228067   4.678   1.512   0.560 -0.4276  2.7754 -0.7155
 2170TIP3   OH228068   6.086   2.680   6.931  1.7611 -0.6470 -0.1027
 2170TIP3    H128069   6.050   2.597   6.898  0.9622 -0.1447 -0.5205
 2170TIP3    H228070   6.019   2.745   6.910  1.9882 -0.0280  1.0004
 2171TIP3   OH228071   3.861   5.400   7.376 -0.0467  0.4240 -0.0329
 2171TIP3    H128072   3.807   5.479   7.373 -0.2757  0.3215  1.0582
 2171TIP3    H228073   3.837   5.352   7.297 -1.2853  0.5665  0.2389
 2172TIP3   OH228074   0.447   2.091   0.565  0.0399 -0.2671  0.0150
 2172TIP3    H128075   0.431   2.005   0.527  1.5318 -0.4910 -0.1547
 2172TIP3    H228076   0.426   2.080   0.658  0.2552 -0.8249 -0.0015
 2173TIP3   OH228077   5.539   4.674   8.457  0.6414  0.4990 -0.2548
 2173TIP3    H128078   5.515   4.583   8.470  0.3307  0.3775 -1.5229
 2173TIP3    H228079   5.630   4.679   8.486 -0.4013  0.6956  3.4769
 2174TIP3   OH228080   4.660   0.248   8.085  0.1072 -0.7267 -0.0211
 2174TIP3    H128081   4.602   0.277   8.155  0.8919 -0.9935  0.7553
 2174TIP3    H228082   4.620   0.282   8.005  1.1668  2.9636  0.7961
 2175TIP3   OH228083   4.215   0.059   8.219 -0.4599 -0.2978  0.4600
 2175TIP3    H128084   4.186   0.105   8.297  0.3194  1.4900 -0.2643
 2175TIP3    H228085   4.134   0.022   8.182 -1.6943  2.9587 -0.4775
 2176TIP3   OH228086   2.353   5.133   1.002  0.5255 -0.5741  0.3808
 2176TIP3    H128087   2.300   5.173   0.932  0.6879  0.0711  0.6258
 2176TIP3    H228088   2.424   5.195   1.017 -0.2149 -0.0818  2.0117
 2177TIP3   OH228089   4.164   2.857   8.724  0.0299 -0.3641  0.4900
 2177TIP3    H128090   4.154   2.926   8.790  0.6274 -1.5444  1.8816
 2177TIP3    H228091   4.075   2.829   8.705 -0.1180 -0.6034  1.4775
 2178TIP3   OH228092   4.344   2.784   7.635 -0.1846 -0.3096  0.3804
 2178TIP3    H128093   4.268   2.843   7.641 -0.4276 -0.6610  0.8607
 2178TIP3    H228094   4.349   2.761   7.542 -1.2709 -1.0510  0.4853
 2179TIP3   OH228095   3.201   6.755   1.964  0.4682 -0.2129 -0.2664
 2179TIP3    H128096   3.215   6.720   1.876 -0.2871  0.1460 -0.5459
 2179TIP3    H228097   3.289   6.770   1.999  0.7755 -0.1315 -1.0543
 2180TIP3   OH228098   0.839   3.570   3.029  0.0408 -0.0226 -0.3835
 2180TIP3    H128099   0.767   3.538   3.083  0.6855  1.4120  1.4255
 2180TIP3    H228100   0.916   3.524   3.063  0.1416 -0.8953 -1.7256
 2181TIP3   OH228101   2.999   2.403   1.445 -0.1281 -0.7604  0.4473
 2181TIP3    H128102   3.033   2.478   1.396 -0.2507  0.2791  1.9063
 2181TIP3    H228103   2.909   2.393   1.413 -0.4368  0.3417  0.9197
 2182TIP3   OH228104   1.048   3.081   2.251  0.1707 -0.4679 -0.3962
 2182TIP3    H128105   1.016   3.081   2.341 -1.3061  0.9887 -0.8725
 2182TIP3    H228106   0.972   3.107   2.199  1.3652  0.1203 -1.9175
 2183TIP3   OH228107   4.772   3.353   8.627  0.1132  0.4147  0.5983
 2183TIP3    H128108   4.734   3.333   8.713 -0.1070  0.7667  0.5830
 2183TIP3    H228109   4.697   3.359   8.568  0.0587  2.2342  0.7832
 2184TIP3   OH228110   0.672   6.673   3.239 -0.3113  0.0823  0.1693
 2184TIP3    H128111   0.674   6.749   3.181  0.2207  0.8153  1.1025
 2184TIP3    H228112   0.739   6.614   3.204  1.2650  1.2899  1.0001
 2185TIP3   OH228113   4.119   2.486   8.725 -0.0977  0.3181  0.4795
 2185TIP3    H128114   4.084   2.500   8.637  1.5984 -0.4114 -0.3570
 2185TIP3    H228115   4.162   2.568   8.747  0.4791  0.1112  0.1330
 2186TIP3   OH228116   0.681   3.892   2.277 -0.0237  0.7545  0.6507
 2186TIP3    H128117   0.726   3.809   2.261  1.1850  1.5841 -0.4705
 2186TIP3    H228118   0.740   3.941   2.334  0.1070  1.4955 -0.0957
 2187TIP3   OH228119   0.232   3.360   7.057 -0.5844  0.0991 -0.1815
 2187TIP3    H128120   0.301   3.320   7.005 -0.6965  0.4162 -0.5747
 2187TIP3    H228121   0.186   3.286   7.097 -0.9722 -0.1769 -1.1319
 2188TIP3   OH228122   6.646   6.619   2.936 -0.4969 -0.2670 -0.5918
 2188TIP3    H128123   6.604   6.662   3.011 -1.9485  0.7506 -1.9122
 2188TIP3    H228124   6.677   6.692   2.882  0.5055 -0.9851 -1.0105
 2189TIP3   OH228125   6.490   3.529   8.095  0.6389  0.0914 -0.3432
 2189TIP3    H128126   6.572   3.480   8.101  3.1536  3.8323 -0.9427
 2189TIP3    H228127   6.491   3.586   8.173 -1.7168 -0.1299 -0.0849
 2190TIP3   OH228128   1.432   6.089   0.508  0.1285  0.0249  0.5387
 2190TIP3    H128129   1.363   6.023   0.498  0.6431 -0.4952  0.4001
 2190TIP3    H228130   1.401   6.145   0.579 -1.3064  0.8976 -0.7148
 2191TIP3   OH228131   4.397   1.676   8.277 -0.3885 -0.1559 -0.0669
 2191TIP3    H128132   4.451   1.599   8.290  2.1615  1.7212  1.3976
 2191TIP3    H228133   4.425   1.737   8.345 -2.5631  1.9351 -0.9015
 2192TIP3   OH228134   5.005   4.238   8.757 -0.6780  0.1853 -0.1000
 2192TIP3    H128135   4.978   4.218   8.668 -2.2616 -0.8986  0.5730
 2192TIP3    H228136   4.926   4.223   8.810  0.3604  0.2668  1.5501
 2193TIP3   OH228137   0.806   0.256   3.232 -0.7193 -0.2220  0.4559
 2193TIP3    H128138   0.750   0.212   3.169 -0.9717  1.1247 -0.2957
 2193TIP3    H228139   0.782   0.217   3.316 -2.1398 -0.3187  0.0354
 2194TIP3   OH228140   6.148   5.891   1.798  0.0228 -0.8805 -0.2078
 2194TIP3    H128141   6.063   5.885   1.754  0.4735  0.9918 -1.5012
 2194TIP3    H228142   6.132   5.946   1.874  0.1123 -0.2133 -0.6580
 2195TIP3   OH228143   2.984   3.619   8.026 -0.2307  0.8157 -0.3601
 2195TIP3    H128144   3.067   3.578   8.050 -1.0494 -0.2076  0.7648
 2195TIP3    H228145   2.980   3.698   8.080  0.5160  1.4799 -1.2424
 2196TIP3   OH228146   5.526   5.496   2.305  0.0560 -0.0633  0.3979
 2196TIP3    H128147   5.583   5.477   2.231  1.8168  0.3138  1.5835
 2196TIP3    H228148   5.587   5.511   2.378 -1.5039  2.2856  1.3088
 2197TIP3   OH228149   0.585   6.275   3.148  0.0536  0.1595 -0.2933
 2197TIP3    H128150   0.556   6.203   3.204  0.6711  0.0348 -0.1278
 2197TIP3    H228151   0.529   6.349   3.173 -0.0725 -0.0563  0.0709
 2198TIP3   OH228152   2.439   0.475   8.089 -0.1096 -0.4275  0.9796
 2198TIP3    H128153   2.442   0.475   8.185  0.0267  0.9108  1.0010
 2198TIP3    H228154   2.487   0.397   8.063  0.2355 -0.5706  2.0026
 2199TIP3   OH228155   5.307   4.879   0.689 -0.3055  0.4576 -0.3268
 2199TIP3    H128156   5.320   4.824   0.611  1.4328 -0.2594  0.4208
 2199TIP3    H228157   5.376   4.944   0.684 -1.2620  1.5012 -0.2675
 2200TIP3   OH228158   3.814   1.497   7.496  0.7791  0.5027 -0.4527
 2200TIP3    H128159   3.815   1.507   7.591  2.5678 -0.1669 -0.3534
 2200TIP3    H228160   3.901   1.463   7.475 -0.6638 -2.7612 -1.9469
 2201TIP3   OH228161   4.948   6.435   2.188  0.4012 -0.0154  0.2846
 2201TIP3    H128162   4.978   6.345   2.200  2.1786  0.5793  0.6857
 2201TIP3    H228163   4.893   6.433   2.110 -1.3989 -1.8160  1.5247
 2202TIP3   OH228164   5.663   4.426   0.757  0.2265  0.6124 -0.2299
 2202TIP3    H128165   5.621   4.340   0.747  0.0465  0.5947  0.5865
 2202TIP3    H228166   5.700   4.444   0.671 -0.5599  0.1544 -0.6861
 2203TIP3   OH228167   6.525   0.425   1.277 -0.4248  0.3001 -0.0823
 2203TIP3    H128168   6.556   0.351   1.329 -1.2230 -0.5822 -0.8376
 2203TIP3    H228169   6.604   0.459   1.234  0.0017  0.1387  0.5632
 2204TIP3   OH228170   4.805   5.754   8.125  0.1706  0.3852 -0.1870
 2204TIP3    H128171   4.855   5.732   8.204  0.4736  1.7289  0.0275
 2204TIP3    H228172   4.865   5.735   8.053  0.3009  0.1961 -0.0297
 2205TIP3   OH228173   1.463   5.762   7.460 -0.5425  0.0268 -0.1322
 2205TIP3    H128174   1.372   5.784   7.480 -0.3230  0.5689  0.2778
 2205TIP3    H228175   1.492   5.708   7.533 -0.7430 -0.7391 -0.6046
 2206TIP3   OH228176   1.210   0.829   8.227 -0.1395  0.5638  0.2120
 2206TIP3    H128177   1.204   0.739   8.195 -0.1968  0.3331  0.8485
 2206TIP3    H228178   1.269   0.824   8.302 -1.5582  0.7276  1.3837
 2207TIP3   OH228179   0.349   0.277   0.337 -0.5582 -0.0808 -0.1113
 2207TIP3    H128180   0.255   0.259   0.328 -0.7693  0.6425  0.5808
 2207TIP3    H228181   0.354   0.372   0.347  0.3141 -0.0338 -0.8750
 2208TIP3   OH228182   3.835   3.050   2.066  0.0560  0.2051  0.5241
 2208TIP3    H128183   3.919   3.019   2.100  0.5079  0.6759 -0.1297
 2208TIP3    H228184   3.858   3.124   2.009 -0.9232  1.4367  1.6418
 2209TIP3   OH228185   4.149   3.987   7.497  0.1585 -0.0763  0.6536
 2209TIP3    H128186   4.157   3.921   7.429  1.6506  0.8573 -0.1085
 2209TIP3    H228187   4.222   3.969   7.556 -1.2298 -1.0090  2.1949
 2210TIP3   OH228188   5.222   5.958   1.162  0.6531  0.0085 -0.0189
 2210TIP3    H128189   5.208   5.889   1.097  1.6806  0.3503 -0.6190
 2210TIP3    H228190   5.152   6.020   1.147  1.4982  0.6432 -1.5682
 2211TIP3   OH228191   6.715   3.105   8.438  0.2909  0.1510  0.1439
 2211TIP3    H128192   6.749   3.083   8.525 -1.5841  2.0851  1.4734
 2211TIP3    H228193   6.757   3.188   8.415  0.5658 -0.2086 -0.6885
 2212TIP3   OH228194   4.971   2.830   6.544 -0.1255 -0.1212 -0.3869
 2212TIP3    H128195   4.890   2.881   6.550 -0.7630 -0.9916 -1.2233
 2212TIP3    H228196   4.942   2.739   6.545  0.9375 -0.4665  0.3233
 2213TIP3   OH228197   3.181   5.351   0.805 -0.1409  0.5919 -0.3278
 2213TIP3    H128198   3.276   5.358   0.797 -0.1155  0.7441  0.0636
 2213TIP3    H228199   3.148   5.369   0.717  0.1986  0.4012 -0.4966
 2214TIP3   OH228200   2.444   2.663   1.972 -0.0334 -0.1712 -1.0429
 2214TIP3    H128201   2.479   2.741   1.929  1.7093 -0.2204  0.1976
 2214TIP3    H228202   2.380   2.628   1.910 -0.9305  2.2503 -1.6164
 2215TIP3   OH228203   5.005   5.245   0.987  0.4873 -0.2020 -0.0501
 2215TIP3    H128204   5.099   5.263   0.983  0.6724 -0.8599  0.9159
 2215TIP3    H228205   4.986   5.236   1.080 -0.3722 -0.9091 -0.2784
 2216TIP3   OH228206   0.179   5.284   1.514  0.1522 -0.1351 -0.3725
 2216TIP3    H128207   0.189   5.248   1.602 -1.8094 -0.8885 -0.3965
 2216TIP3    H228208   0.137   5.369   1.528  1.2392  0.4510 -0.5322
 2217TIP3   OH228209   3.786   4.902   0.786 -0.1354 -0.4624 -0.0886
 2217TIP3    H128210   3.813   4.877   0.698  0.9164  1.0352 -0.2206
 2217TIP3    H228211   3.799   4.997   0.790  1.6267 -0.6991  2.2636
 2218TIP3   OH228212   1.121   5.508   6.915 -0.0383  0.0009 -0.0195
 2218TIP3    H128213   1.047   5.459   6.949 -0.0940 -1.2998 -1.9021
 2218TIP3    H228214   1.181   5.441   6.881  0.0816  1.1614 -2.2670
 2219TIP3   OH228215   0.473   2.599   1.458 -0.2319 -0.2398 -0.7255
 2219TIP3    H128216   0.498   2.623   1.547  0.0849  1.5987 -1.2632
 2219TIP3    H228217   0.383   2.568   1.465  0.3934 -1.9164  0.4762
 2220TIP3   OH228218   3.039   0.746   7.807  0.1995  0.6536 -0.0182
 2220TIP3    H128219   2.995   0.737   7.722 -0.1282 -0.3011  0.2441
 2220TIP3    H228220   3.123   0.788   7.786 -0.4654  1.7205 -0.6257
 2221TIP3   OH228221   3.172   5.998   0.737 -0.1156 -0.4090  0.1843
 2221TIP3    H128222   3.183   5.926   0.676 -1.2835  0.4231 -1.0534
 2221TIP3    H228223   3.248   6.055   0.722 -0.6427  0.0350 -0.8594
 2222TIP3   OH228224   1.385   0.926   2.056 -0.0872  0.0271 -0.0491
 2222TIP3    H128225   1.432   1.008   2.072 -0.5796  0.3027  0.0078
 2222TIP3    H228226   1.387   0.881   2.140 -0.4738  0.3246  0.1196
 2223TIP3   OH228227   3.967   1.913   7.516  0.7843 -0.0917  0.7648
 2223TIP3    H128228   4.034   1.850   7.544  1.9999  1.4402  1.4236
 2223TIP3    H228229   3.964   1.977   7.587 -0.4162  0.6190  0.1014
 2224TIP3   OH228230   5.014   3.082   0.656  0.7504  0.2013  0.6218
 2224TIP3    H128231   4.964   3.162   0.668  1.2509  0.7796 -0.8690
 2224TIP3    H228232   4.957   3.026   0.602  0.7554 -0.1146  0.9352
 2225TIP3   OH228233   2.148   3.670   1.892  0.3849  0.2021 -0.5351
 2225TIP3    H128234   2.194   3.702   1.970  1.9917 -0.4999 -1.1351
 2225TIP3    H228235   2.212   3.680   1.821  0.0043 -1.7528 -1.2317
 2226TIP3   OH228236   2.405   3.934   2.517 -0.1256 -0.0035 -0.4343
 2226TIP3    H128237   2.463   3.906   2.588 -0.9481  0.0107  0.2676
 2226TIP3    H228238   2.438   4.020   2.492 -2.2138  1.9728  2.8104
 2227TIP3   OH228239   3.552   4.437   0.402 -0.3497  0.0135  0.3151
 2227TIP3    H128240   3.500   4.506   0.361  1.0161  1.6163  1.1539
 2227TIP3    H228241   3.578   4.380   0.329 -2.1988 -0.1478 -0.2702
 2228TIP3   OH228242   5.851   4.520   3.005  0.1796  0.0794 -0.6267
 2228TIP3    H128243   5.862   4.615   3.008 -0.3681  0.1203  0.9139
 2228TIP3    H228244   5.941   4.486   3.000  0.7226  0.6434  2.6152
 2229TIP3   OH228245   5.109   5.765   0.989  0.4729 -0.0423  0.4143
 2229TIP3    H128246   5.098   5.671   1.004 -1.3002 -0.2570 -1.8278
 2229TIP3    H228247   5.083   5.779   0.898 -0.3754  2.7975  0.9816
 2230TIP3   OH228248   4.848   5.447   1.195  0.1253 -0.3333  0.0008
 2230TIP3    H128249   4.910   5.504   1.241  0.6753 -0.1672 -0.9134
 2230TIP3    H228250   4.836   5.372   1.253  0.5410  0.0311  0.5635
 2231TIP3   OH228251   6.290   2.990   0.573  0.2384  0.8726 -0.5450
 2231TIP3    H128252   6.355   3.060   0.570  0.6342  0.5376 -0.0046
 2231TIP3    H228253   6.340   2.910   0.554 -0.3025  0.7804 -1.6882
 2232TIP3   OH228254   2.571   6.307   1.916  0.0742  0.5449 -0.1235
 2232TIP3    H128255   2.633   6.311   1.989  0.5021  2.2886 -0.5257
 2232TIP3    H228256   2.610   6.364   1.849 -1.3053  0.6003 -0.9128
 2233TIP3   OH228257   4.620   3.419   0.347 -0.3679  0.2080 -0.5254
 2233TIP3    H128258   4.711   3.390   0.345 -0.5156 -0.4232  0.8124
 2233TIP3    H228259   4.575   3.362   0.285 -0.0045 -0.0230 -0.5823
 2234TIP3   OH228260   5.825   4.692   0.199  0.2490 -0.3095  0.0605
 2234TIP3    H128261   5.793   4.751   0.268 -2.3508 -2.3987  0.7994
 2234TIP3    H228262   5.899   4.647   0.239 -0.9769 -1.1962  1.4438
 2235TIP3   OH228263   4.894   1.090   1.931  0.3177 -0.0841  0.0145
 2235TIP3    H128264   4.937   1.162   1.885  1.0379 -1.2159 -1.1492
 2235TIP3    H228265   4.940   1.085   2.015  0.3896  0.6745  0.0317
 2236TIP3   OH228266   2.861   1.849   8.510 -0.4445  0.6482 -0.4079
 2236TIP3    H128267   2.884   1.844   8.417  0.3578  1.4087 -0.2624
 2236TIP3    H228268   2.868   1.942   8.531  0.6994  0.3173  0.7425
 2237TIP3   OH228269   0.920   1.007   1.895  0.4333  0.5732 -0.0792
 2237TIP3    H128270   0.832   1.042   1.883 -0.6340 -2.1502 -1.0270
 2237TIP3    H228271   0.909   0.935   1.957  2.2218  0.9192  0.6948
 2238TIP3   OH228272   6.326   1.773   0.213  0.5893 -0.0257 -0.3042
 2238TIP3    H128273   6.248   1.724   0.189 -1.4214  2.5273  0.5284
 2238TIP3    H228274   6.327   1.770   0.309 -0.2848  2.3858 -0.1531
 2239TIP3   OH228275   3.447   3.667   8.550 -0.1660 -0.0804 -0.7294
 2239TIP3    H128276   3.374   3.635   8.603 -0.2482  4.2447  2.2646
 2239TIP3    H228277   3.525   3.642   8.600 -0.0976  1.7156  0.1209
 2240TIP3   OH228278   0.338   5.061   8.403  0.0294 -0.7294  0.4099
 2240TIP3    H128279   0.254   5.025   8.375  0.0067 -0.4567  0.1159
 2240TIP3    H228280   0.332   5.067   8.498 -0.1487 -1.0412  0.4192
 2241TIP3   OH228281   3.772   5.475   0.866  0.4864  0.1523  0.3935
 2241TIP3    H128282   3.825   5.463   0.945  1.8265  1.1506 -0.3179
 2241TIP3    H228283   3.811   5.551   0.822 -0.3247 -0.2903 -1.1621
 2242TIP3   OH228284   6.663   4.414   2.395  0.3598 -0.1214 -1.1227
 2242TIP3    H128285   6.654   4.360   2.474  0.1179 -0.2779 -1.2566
 2242TIP3    H228286   6.626   4.361   2.325  0.8710 -0.1144 -1.4034
 2243TIP3   OH228287   1.688   0.349   2.122 -0.1809  0.6534 -0.3734
 2243TIP3    H128288   1.715   0.426   2.172 -1.9592  1.4637 -0.5957
 2243TIP3    H228289   1.602   0.327   2.158  0.3629 -1.3782 -0.1786
 2244TIP3   OH228290   5.912   1.301   0.338  0.1156 -0.2746  0.2134
 2244TIP3    H128291   5.997   1.324   0.301 -1.3781  1.1954 -2.6601
 2244TIP3    H228292   5.924   1.306   0.432  3.0507  0.4042 -0.1098
 2245TIP3   OH228293   0.826   4.262   8.290 -0.7198 -0.6937 -0.2241
 2245TIP3    H128294   0.854   4.354   8.291 -0.2143 -0.7825 -2.5375
 2245TIP3    H228295   0.732   4.266   8.308 -0.9995  0.4383 -1.7247
 2246TIP3   OH228296   0.107   5.552   2.326  0.6265 -0.4867  0.1627
 2246TIP3    H128297   0.196   5.583   2.346 -0.0508  1.5541  0.2372
 2246TIP3    H228298   0.109   5.533   2.232  0.5212  2.0779 -0.4398
 2247TIP3   OH228299   4.029   3.053   2.275 -0.2681 -0.6286 -0.4998
 2247TIP3    H128300   4.120   3.052   2.306 -0.6272 -1.1321  0.6096
 2247TIP3    H228301   3.982   3.104   2.342 -0.9960 -1.3624 -0.4360
 2248TIP3   OH228302   4.086   0.345   8.673  0.2799  0.2459 -0.6359
 2248TIP3    H128303   4.123   0.428   8.643 -0.7380  0.1196 -2.3725
 2248TIP3    H228304   4.009   0.370   8.724  1.4234  0.4140  1.1290
 2249TIP3   OH228305   3.545   2.442   1.731 -1.0086 -0.3586  1.1617
 2249TIP3    H128306   3.568   2.532   1.756 -0.1142  0.1411 -1.1368
 2249TIP3    H228307   3.560   2.391   1.810  1.1412  1.1175  1.8346
 2250TIP3   OH228308   5.888   5.954   8.476 -0.0100 -0.3040 -0.1944
 2250TIP3    H128309   5.955   5.966   8.544 -0.6943 -0.1105  0.4617
 2250TIP3    H228310   5.869   6.043   8.446 -1.7412 -0.0859  1.3850
 2251TIP3   OH228311   5.183   1.430   1.161  0.3353  0.3182  0.3595
 2251TIP3    H128312   5.095   1.451   1.129  0.2235  1.0682  1.1240
 2251TIP3    H228313   5.176   1.340   1.192  0.1266  0.0003 -0.5854
 2252TIP3   OH228314   2.002   5.135   7.194  0.0185  0.1012 -0.3053
 2252TIP3    H128315   1.938   5.205   7.208  1.5284  1.3474  0.8516
 2252TIP3    H228316   1.979   5.067   7.257 -0.1133  0.5916  0.1819
 2253TIP3   OH228317   2.894   3.240   2.243 -0.2438 -0.0315  0.2386
 2253TIP3    H128318   2.907   3.162   2.298  0.8706  1.4478  2.2178
 2253TIP3    H228319   2.983   3.267   2.219 -0.6187  0.6953 -0.3549
 2254TIP3   OH228320   5.521   5.845   2.387 -0.1242  0.0212 -0.1636
 2254TIP3    H128321   5.597   5.788   2.374 -0.3478 -0.2627 -0.2377
 2254TIP3    H228322   5.446   5.785   2.392 -0.4372  0.3394 -0.8508
 2255TIP3   OH228323   4.586   5.271   8.794  0.1389 -0.0701 -0.6005
 2255TIP3    H128324   4.630   5.352   8.768  1.4642 -0.6689 -0.3462
 2255TIP3    H228325   4.656   5.205   8.794 -0.7986 -1.0971 -0.2776
 2256TIP3   OH228326   2.111   3.017   2.957 -0.1681 -0.9013  0.4104
 2256TIP3    H128327   2.160   3.097   2.977  0.0582 -1.0131  0.3035
 2256TIP3    H228328   2.051   3.007   3.032  1.8276 -2.2228  1.9402
 2257TIP3   OH228329   4.379   2.414   7.490 -0.5437 -0.3062 -0.3420
 2257TIP3    H128330   4.456   2.471   7.483 -0.4907 -0.3941 -0.4797
 2257TIP3    H228331   4.359   2.413   7.583 -0.3385 -0.3360 -0.2972
 2258TIP3   OH228332   5.997   6.406   8.743  0.1567  0.5500 -0.7119
 2258TIP3    H128333   6.012   6.368   8.657 -0.0761  0.3004 -0.6449
 2258TIP3    H228334   6.083   6.438   8.771  0.8621 -1.7931  0.1193
 2259TIP3   OH228335   6.137   6.711   8.527 -0.4274 -0.1841  0.2473
 2259TIP3    H128336   6.166   6.636   8.476  0.0705 -0.7969  1.3874
 2259TIP3    H228337   6.085   6.763   8.466  1.3504 -0.1130 -1.3019
 2260TIP3   OH228338   4.414   1.992   1.884  0.3069  0.2552  0.2309
 2260TIP3    H128339   4.427   1.905   1.846 -1.8673 -1.0188  2.1023
 2260TIP3    H228340   4.354   2.035   1.823 -0.3415 -0.4153  0.3791
 2261TIP3   OH228341   6.647   2.714   0.043  0.1953  0.3170  0.1990
 2261TIP3    H128342   6.604   2.717   0.128 -2.4838 -3.3956 -0.7893
 2261TIP3    H228343   6.708   2.641   0.049  2.5739  2.1700 -0.1230
 2262TIP3   OH228344   3.385   6.750   1.522  0.7481 -0.6082  1.0132
 2262TIP3    H128345   3.435   6.697   1.461 -0.7136 -2.2304  1.1475
 2262TIP3    H228346   3.344   6.817   1.467  1.3842 -0.5349  0.6124
 2263TIP3   OH228347   6.755   1.443   0.058  0.3930 -0.0174 -0.0476
 2263TIP3    H128348   6.711   1.414  -0.022 -0.2222 -1.1184  0.6676
 2263TIP3    H228349   6.784   1.362   0.100  1.0033  0.5698  0.6874
 2264TIP3   OH228350   4.038   1.211   0.884  0.4550 -0.2572  0.5247
 2264TIP3    H128351   3.962   1.205   0.942 -0.2477 -0.5543 -0.4135
 2264TIP3    H228352   4.093   1.136   0.910  1.5597  1.2032  2.7208
 2265TIP3   OH228353   5.742   4.380   6.990 -0.4531 -0.0358  0.0660
 2265TIP3    H128354   5.749   4.285   6.982 -0.1921  0.0869 -1.3880
 2265TIP3    H228355   5.773   4.414   6.907 -0.0733  1.3627  0.7450
 2266TIP3   OH228356   1.288   6.693   0.095 -0.5385  0.0810  0.2564
 2266TIP3    H128357   1.289   6.782   0.130  0.0468 -0.1109  0.7394
 2266TIP3    H228358   1.358   6.693   0.029 -1.6196  0.4362 -0.9265
 2267TIP3   OH228359   2.915   1.318   8.317 -0.4361 -0.8525  0.1756
 2267TIP3    H128360   2.873   1.378   8.255  0.8301 -0.8401 -0.6938
 2267TIP3    H228361   2.948   1.375   8.387  1.7996 -0.3113 -1.2148
 2268TIP3   OH228362   0.550   1.729   0.014  0.2854  0.4042  0.0388
 2268TIP3    H128363   0.563   1.750  -0.079 -0.3262  3.9675  0.6136
 2268TIP3    H228364   0.629   1.761   0.057 -1.2905  3.1318  1.1691
 2269TIP3   OH228365   6.764   0.806   7.650 -0.1783 -0.3991  0.1527
 2269TIP3    H128366   6.747   0.899   7.667  0.6043 -0.1578 -0.2941
 2269TIP3    H228367   6.833   0.783   7.713  0.5235 -0.3267 -0.5628
 2270TIP3   OH228368   4.648   0.109   1.039  0.0505  0.0561  0.0629
 2270TIP3    H128369   4.651   0.203   1.053  0.8923  0.2380 -1.2281
 2270TIP3    H228370   4.737   0.079   1.059 -0.1461 -0.4330  0.2213
 2271TIP3   OH228371   1.952   0.583   7.945 -0.1011 -0.0520 -0.2850
 2271TIP3    H128372   1.916   0.520   8.008 -1.2471  0.4446 -0.4134
 2271TIP3    H228373   2.033   0.614   7.985  0.6391 -1.7816 -0.3213
 2272TIP3   OH228374   6.523   4.217   8.374 -0.1509 -0.2323 -0.7053
 2272TIP3    H128375   6.478   4.183   8.451 -0.3985  0.7429 -0.4060
 2272TIP3    H228376   6.502   4.310   8.373 -1.8653 -0.5358 -3.0850
 2273TIP3   OH228377   5.865   2.839   6.835 -0.9148 -0.1775  0.2570
 2273TIP3    H128378   5.880   2.903   6.905 -0.2327  0.7426 -0.7154
 2273TIP3    H228379   5.879   2.888   6.754  1.1327 -1.9251 -0.5050
 2274TIP3   OH228380   5.572   1.688   0.805 -0.8099  0.2003  0.5637
 2274TIP3    H128381   5.519   1.645   0.872 -0.0674 -1.7711 -0.0537
 2274TIP3    H228382   5.656   1.705   0.848 -0.3843 -0.9284  0.1968
 2275TIP3   OH228383   3.286   6.648   0.556  0.3213 -0.1197  0.4071
 2275TIP3    H128384   3.329   6.603   0.483  0.5578 -1.0360  1.0802
 2275TIP3    H228385   3.210   6.691   0.516  1.1379  0.4586 -0.5813
 2276TIP3   OH228386   3.137   4.649   0.159 -0.3603  0.5453  0.4293
 2276TIP3    H128387   3.099   4.728   0.197 -3.4315 -0.3700 -0.4522
 2276TIP3    H228388   3.110   4.652   0.067  0.7064 -0.8210  0.0427
 2277TIP3   OH228389   6.517   3.194   8.761  0.2760  0.6664 -0.1256
 2277TIP3    H128390   6.484   3.147   8.685  0.1162  1.8642 -0.8215
 2277TIP3    H228391   6.557   3.126   8.816  0.4933 -0.1993 -1.3175
 2278TIP3   OH228392   2.701   6.386   7.224  0.2408 -0.3192  0.0865
 2278TIP3    H128393   2.608   6.391   7.243 -0.0152  0.1578 -1.1864
 2278TIP3    H228394   2.738   6.465   7.263 -0.1666  0.3231 -0.7938
 2279TIP3   OH228395   6.674   6.175   7.709 -0.3438  0.2213  0.2977
 2279TIP3    H128396   6.731   6.128   7.770 -2.3494 -2.0682  0.5386
 2279TIP3    H228397   6.668   6.118   7.633 -0.5638  1.4665 -0.6518
 2280TIP3   OH228398   1.829   5.044   1.953 -0.1783 -0.5542 -0.5101
 2280TIP3    H128399   1.774   5.095   2.013  0.3977 -0.3702 -0.1230
 2280TIP3    H228400   1.917   5.051   1.991  0.4057  0.4691 -1.9578
 2281TIP3   OH228401   0.900   5.965   1.951  0.1157 -0.4250 -0.4026
 2281TIP3    H128402   0.947   5.989   2.031 -1.3755  0.3734  0.2655
 2281TIP3    H228403   0.955   6.000   1.880  0.6640  0.2649  0.3373
 2282TIP3   OH228404   2.551   5.145   8.846  0.4649 -0.2134 -0.2281
 2282TIP3    H128405   2.458   5.120   8.851  0.4225  0.1772  1.5036
 2282TIP3    H228406   2.559   5.219   8.906  2.1350 -0.9830  0.5437
 2283TIP3   OH228407   3.332   2.695   8.312 -0.2340 -0.1171  0.0563
 2283TIP3    H128408   3.267   2.692   8.382 -1.0494 -0.7185 -0.7250
 2283TIP3    H228409   3.301   2.764   8.253  0.4587  0.3952  0.2719
 2284TIP3   OH228410   0.312   6.643   7.305 -0.8426  0.1629  0.2107
 2284TIP3    H128411   0.407   6.660   7.309 -0.6580 -0.4149 -1.2396
 2284TIP3    H228412   0.304   6.549   7.319 -1.0963  0.0325 -0.7551
 2285TIP3   OH228413   4.020   3.413   0.242 -0.2725 -0.6391 -0.2501
 2285TIP3    H128414   4.049   3.327   0.274 -1.2832 -0.9500 -0.1361
 2285TIP3    H228415   3.981   3.454   0.319 -0.0006 -0.1596 -0.3643
 2286TIP3   OH228416   3.720   4.008   1.617  0.2833  0.1613  0.4065
 2286TIP3    H128417   3.810   4.027   1.643  0.1068  1.9732 -0.1339
 2286TIP3    H228418   3.729   3.961   1.534  0.7376 -0.0836  0.5908
 2287TIP3   OH228419   5.053   2.242   0.389  0.2824  0.1061 -0.0910
 2287TIP3    H128420   5.139   2.212   0.359  0.9424  1.0435  0.7620
 2287TIP3    H228421   5.072   2.322   0.437 -1.2184  1.0029 -0.9147
 2288TIP3   OH228422   6.688   5.831   0.453  0.0439  0.0410  0.6839
 2288TIP3    H128423   6.760   5.828   0.516  1.5515 -3.5338 -0.9674
 2288TIP3    H228424   6.616   5.786   0.497  0.3886 -0.5641  0.6299
 2289TIP3   OH228425   6.741   2.246   0.152 -0.0116  0.0503 -0.3306
 2289TIP3    H128426   6.711   2.210   0.235  1.2717  0.5018  0.3619
 2289TIP3    H228427   6.811   2.186   0.124  0.1545  0.3811 -0.6378
 2290TIP3   OH228428   5.702   0.468   1.662  0.5907  0.3728 -0.1823
 2290TIP3    H128429   5.718   0.411   1.737 -1.9817  1.6501  1.5229
 2290TIP3    H228430   5.659   0.412   1.597 -0.2231 -0.0563  0.7118
 2291TIP3   OH228431   0.152   2.760   8.730 -0.3289 -0.2741 -0.4778
 2291TIP3    H128432   0.237   2.737   8.767 -0.4760  0.1935  0.1625
 2291TIP3    H228433   0.127   2.683   8.679  1.1002  0.0954 -1.8092
 2292TIP3   OH228434   1.203   0.865   1.849 -0.9747  0.6392  0.7573
 2292TIP3    H128435   1.125   0.893   1.896 -0.4993 -0.7430  2.4536
 2292TIP3    H228436   1.276   0.888   1.907 -0.1064  1.5791 -0.6275
 2293TIP3   OH228437   4.160   5.015   0.001 -0.2247  0.0430 -0.2493
 2293TIP3    H128438   4.099   5.086   0.023 -1.4709 -1.1877  0.4436
 2293TIP3    H228439   4.132   4.986  -0.086  0.2812  0.3716 -0.5295
 2294TIP3   OH228440   4.019   2.220   8.664  0.0732 -0.5225  0.7737
 2294TIP3    H128441   3.998   2.185   8.578 -1.3002 -1.0715  1.2953
 2294TIP3    H228442   4.057   2.306   8.647  1.2898 -1.2679 -0.4282
 2295TIP3   OH228443   0.028   4.203   1.145  0.6124 -0.1541  0.4221
 2295TIP3    H128444  -0.047   4.222   1.089 -0.1565  1.2390  1.8222
 2295TIP3    H228445  -0.008   4.149   1.215  1.2576 -0.7470  0.3016
 2296TIP3   OH228446   1.896   2.784   7.311 -0.4903 -0.6117 -0.3250
 2296TIP3    H128447   1.985   2.809   7.337  0.3677 -2.3755 -1.3801
 2296TIP3    H228448   1.853   2.867   7.291  1.4232  0.2142 -1.3458
 2297TIP3   OH228449   6.136   1.230   7.874  0.5627  0.3937 -0.1796
 2297TIP3    H128450   6.214   1.195   7.831  0.5372 -0.8272  0.6985
 2297TIP3    H228451   6.169   1.291   7.939  0.7706  0.2256 -0.1262
 2298TIP3   OH228452   0.209   4.461   0.323 -0.4098  0.0195  0.5794
 2298TIP3    H128453   0.126   4.413   0.317  1.2900 -2.9931 -1.9238
 2298TIP3    H228454   0.249   4.450   0.237  2.0429  2.5118  1.2596
 2299TIP3   OH228455   1.397   3.561   1.963  0.4333  0.3960  0.2428
 2299TIP3    H128456   1.311   3.525   1.984 -0.7497  2.3633 -0.9533
 2299TIP3    H228457   1.443   3.490   1.918  0.4214 -1.5162  2.9742
 2300TIP3   OH228458   1.361   4.837   0.625 -0.0647  0.5082 -0.3933
 2300TIP3    H128459   1.325   4.826   0.713 -0.0998  0.8025 -0.3720
 2300TIP3    H228460   1.449   4.799   0.630 -0.2715  0.0188 -0.3789
 2301TIP3   OH228461   5.212   5.960   1.508  0.4966  0.1097  0.4718
 2301TIP3    H128462   5.274   5.892   1.534 -1.0960 -2.0128 -0.9826
 2301TIP3    H228463   5.193   5.942   1.416 -3.5971 -0.5227  1.2361
 2302TIP3   OH228464   2.900   3.057   8.594  0.3786  0.0557 -0.3187
 2302TIP3    H128465   2.966   3.020   8.536  0.3385  2.0814 -1.7704
 2302TIP3    H228466   2.950   3.110   8.656  0.2420  0.0342 -0.1891
 2303TIP3   OH228467   5.962   6.157   1.665  0.3947 -0.3380 -0.6253
 2303TIP3    H128468   6.041   6.198   1.700 -0.1695  2.3332 -2.1862
 2303TIP3    H228469   5.891   6.194   1.718 -0.1187  0.7010 -1.9830
 2304TIP3   OH228470   1.811   5.958   7.635  0.3355  0.1813 -0.2567
 2304TIP3    H128471   1.759   5.981   7.558  1.2407 -0.2916 -1.0429
 2304TIP3    H228472   1.789   5.867   7.653  1.9359 -0.5116 -1.5238
 2305TIP3   OH228473   4.837   0.265   8.319 -0.3171  0.1952  0.0664
 2305TIP3    H128474   4.928   0.290   8.306 -0.5867  1.3219  0.1949
 2305TIP3    H228475   4.794   0.288   8.237 -0.2468 -1.6392 -0.5226
 2306TIP3   OH228476   0.225   1.767   1.210 -0.6294  0.3905  0.2351
 2306TIP3    H128477   0.220   1.789   1.117 -2.2725 -1.6013 -0.2156
 2306TIP3    H228478   0.317   1.782   1.233 -0.3610  1.7332 -1.4610
 2307TIP3   OH228479   2.317   3.571   0.126 -0.3883  0.2085  0.2887
 2307TIP3    H128480   2.376   3.511   0.171  0.6131  0.4609 -0.6379
 2307TIP3    H228481   2.303   3.530   0.040  0.6929  1.4930 -0.5385
 2308TIP3   OH228482   6.139   3.018   0.819  0.2056 -0.5591 -0.0197
 2308TIP3    H128483   6.166   3.030   0.728  0.7623  2.9047  0.4978
 2308TIP3    H228484   6.075   2.946   0.815  0.1760 -0.4860 -3.1176
 2309TIP3   OH228485   4.664   5.283   1.027 -0.0862  0.2132 -0.5464
 2309TIP3    H128486   4.708   5.353   1.076  3.2864 -2.0191 -0.0406
 2309TIP3    H228487   4.663   5.314   0.937 -0.2130  1.5902 -0.1063
 2310TIP3   OH228488   0.143   5.280   6.941 -0.2019 -0.3890  0.0374
 2310TIP3    H128489   0.143   5.342   6.868  1.3131  0.3814  0.6516
 2310TIP3    H228490   0.070   5.221   6.923  0.3677 -0.4576 -2.2792
 2311TIP3   OH228491   0.045   5.875   0.677 -0.4277  0.7085 -0.1473
 2311TIP3    H128492   0.126   5.862   0.726 -0.2028 -0.6244 -0.8097
 2311TIP3    H228493   0.011   5.960   0.707  2.1626  2.2197 -1.1951
 2312TIP3   OH228494   3.132   2.440   7.679 -0.1676 -0.2734  0.0597
 2312TIP3    H128495   3.151   2.475   7.766 -2.3350 -1.1110  0.9385
 2312TIP3    H228496   3.038   2.453   7.668  0.4857  3.4523 -3.8583
 2313TIP3   OH228497   0.861   5.631   7.418  0.8022 -0.1107  0.1525
 2313TIP3    H128498   0.787   5.584   7.457  0.1461 -1.0006 -2.0213
 2313TIP3    H228499   0.827   5.719   7.400  0.6101 -0.1843  0.1520
 2314TIP3   OH228500   4.702   5.034   2.239 -0.9659  0.1296 -0.5172
 2314TIP3    H128501   4.639   4.997   2.178  0.5523 -0.4901 -1.7964
 2314TIP3    H228502   4.704   5.127   2.218 -2.5710  0.4612  0.6279
 2315TIP3   OH228503   5.958   0.721   7.746  0.0406 -0.3284 -0.3340
 2315TIP3    H128504   6.026   0.730   7.679  0.1601  0.1750 -0.1428
 2315TIP3    H228505   5.942   0.810   7.777 -0.6150 -0.4562 -0.2848
 2316TIP3   OH228506   5.787   3.974   1.560 -0.0599  0.3597 -0.2385
 2316TIP3    H128507   5.789   4.070   1.562  1.2175  0.4030 -1.7091
 2316TIP3    H228508   5.748   3.954   1.475 -1.2053 -0.4525  0.4603
 2317TIP3   OH228509   1.456   2.855   7.691  0.3813  0.5657  0.1565
 2317TIP3    H128510   1.525   2.906   7.733  0.3425 -0.2868  1.2871
 2317TIP3    H228511   1.489   2.838   7.603  2.0566 -0.6620  0.9761
 2318TIP3   OH228512   1.195   3.695   1.605 -0.1066  0.0135  0.6992
 2318TIP3    H128513   1.284   3.694   1.571 -0.7654 -2.2912 -1.2135
 2318TIP3    H228514   1.199   3.754   1.680  2.2613  2.6035 -1.2362
 2319TIP3   OH228515   1.437   0.279   2.181  0.1164  0.0074  0.0405
 2319TIP3    H128516   1.363   0.223   2.160  0.0550  0.5814 -1.3941
 2319TIP3    H228517   1.400   0.366   2.190  0.5382  0.2104 -0.1512
 2320TIP3   OH228518   0.891   2.195   1.201  0.2630  0.3648  0.0784
 2320TIP3    H128519   0.947   2.234   1.268 -0.4965 -0.4151  1.1934
 2320TIP3    H228520   0.817   2.256   1.193 -0.0750  0.0326  0.5916
 2321TIP3   OH228521   5.052   5.647   7.920 -0.7148 -0.1795 -0.4828
 2321TIP3    H128522   5.092   5.731   7.940 -0.0418 -0.3966 -0.8988
 2321TIP3    H228523   4.996   5.664   7.845 -0.5222 -0.1218 -0.6126
 2322TIP3   OH228524   2.579   4.232   1.884  0.0010 -0.5181 -0.1969
 2322TIP3    H128525   2.541   4.217   1.970 -0.7850  0.4921 -0.3441
 2322TIP3    H228526   2.586   4.327   1.877  3.0566 -0.6488  0.0095
 2323TIP3   OH228527   5.550   5.620   7.315  0.4452 -0.2566 -0.6217
 2323TIP3    H128528   5.612   5.668   7.370 -0.3757  1.5362 -1.1862
 2323TIP3    H228529   5.605   5.579   7.248  1.1547  0.1100 -0.2761
 2324TIP3   OH228530   0.494   3.559   8.550  0.2036  0.1063  0.5533
 2324TIP3    H128531   0.576   3.564   8.501 -0.2295 -0.4206 -0.2614
 2324TIP3    H228532   0.426   3.561   8.483 -0.3925 -1.5740  1.0353
 2325TIP3   OH228533   2.930   2.311   8.101  0.3948 -0.8139 -0.0022
 2325TIP3    H128534   3.009   2.365   8.092  0.8821 -1.4795  0.2761
 2325TIP3    H228535   2.880   2.329   8.021  0.5526  0.0360  0.0729
 2326TIP3   OH228536   6.317   2.676   1.729  0.2318  0.4697  0.1801
 2326TIP3    H128537   6.354   2.626   1.656 -1.8876 -1.6535  0.4184
 2326TIP3    H228538   6.255   2.736   1.688  0.1514  0.3624  0.1460
 2327TIP3   OH228539   0.471   4.549   7.921 -0.0961 -0.4911 -0.2581
 2327TIP3    H128540   0.388   4.576   7.881  0.0922 -0.7766 -0.8607
 2327TIP3    H228541   0.500   4.625   7.970  0.2497  0.3080 -1.6296
 2328TIP3   OH228542   3.004   4.780   1.149 -0.0096 -0.2948  0.0891
 2328TIP3    H128543   3.054   4.862   1.156 -0.8023  0.4119 -1.8650
 2328TIP3    H228544   3.067   4.712   1.173  1.3859  0.6940 -0.5963
 2329TIP3   OH228545   4.014   4.714   8.734  0.1304  0.2038  0.1904
 2329TIP3    H128546   4.066   4.701   8.655  2.6373  2.2664  1.3461
 2329TIP3    H228547   3.982   4.804   8.727 -1.6161 -0.3674  0.4748
 2330TIP3   OH228548   5.192   3.268   8.793 -0.3369  0.4594  0.3073
 2330TIP3    H128549   5.117   3.216   8.822  0.2421  0.5528  2.1436
 2330TIP3    H228550   5.184   3.272   8.698 -2.3003 -0.0530  0.4109
 2331TIP3   OH228551   3.876   0.960   1.795  0.0790 -0.2531  0.8519
 2331TIP3    H128552   3.922   1.033   1.752 -1.0172 -0.8912 -1.5858
 2331TIP3    H228553   3.784   0.976   1.776 -0.2849 -1.5769  1.4266
 2332TIP3   OH228554   0.315   5.764   7.471  0.1107 -0.7315 -0.0883
 2332TIP3    H128555   0.336   5.856   7.458 -0.5714 -0.4846  0.4795
 2332TIP3    H228556   0.330   5.723   7.386  0.1596 -0.0434 -0.4131
 2333TIP3   OH228557   1.727   5.332   7.951 -0.0792  0.7413  0.0267
 2333TIP3    H128558   1.683   5.409   7.914  0.4695  0.4886 -1.2235
 2333TIP3    H228559   1.795   5.369   8.007 -0.8296  1.1441  0.6882
 2334TIP3   OH228560   0.098   3.287   0.388 -0.0402 -0.2660  0.6165
 2334TIP3    H128561   0.105   3.308   0.481 -0.9704  2.8851  0.0941
 2334TIP3    H228562   0.109   3.192   0.384  0.7725 -0.4203  3.8323
 2335TIP3   OH228563   6.399   6.240   8.841  0.1221  0.0714  0.2616
 2335TIP3    H128564   6.444   6.159   8.816  0.8618  0.3588  0.6124
 2335TIP3    H228565   6.319   6.211   8.884  0.0108 -0.4575 -0.2912
 2336TIP3   OH228566   1.671   5.897   1.116 -0.6841  0.5720 -0.3539
 2336TIP3    H128567   1.674   5.962   1.045  1.5294 -0.2077 -1.0414
 2336TIP3    H228568   1.638   5.818   1.074 -3.0364  1.0624  0.4079
 2337TIP3   OH228569   0.710   3.571   7.451  0.5552 -0.1729  0.4591
 2337TIP3    H128570   0.635   3.569   7.510  0.6675 -0.1068  0.6044
 2337TIP3    H228571   0.776   3.516   7.494  1.1434  0.9796  1.0701
 2338TIP3   OH228572   0.832   4.146   2.125 -0.2134 -0.5100  0.2713
 2338TIP3    H128573   0.745   4.134   2.088 -0.1084  0.5387 -0.3473
 2338TIP3    H228574   0.891   4.134   2.050  0.0447  0.8930  0.2295
 2339TIP3   OH228575   3.928   1.474   0.857 -0.3990 -0.2486  0.1503
 2339TIP3    H128576   3.988   1.509   0.923  2.5727 -0.7919 -2.0551
 2339TIP3    H228577   3.934   1.379   0.868  1.3756 -0.4296 -1.7615
 2340TIP3   OH228578   2.154   1.203   0.009  0.2019 -0.3685 -0.2920
 2340TIP3    H128579   2.193   1.116   0.016 -0.0510 -0.5630 -1.2280
 2340TIP3    H228580   2.189   1.250   0.085  1.5331 -0.8195 -0.5846
 2341TIP3   OH228581   1.858   2.878   1.095 -0.5806  0.3619 -0.0552
 2341TIP3    H128582   1.819   2.851   1.178  0.4160 -0.6695  0.0921
 2341TIP3    H228583   1.903   2.959   1.115 -0.1262 -0.0157  0.4806
 2342TIP3   OH228584   4.571   1.454   8.331  0.1840 -0.2786  0.0336
 2342TIP3    H128585   4.646   1.476   8.386 -1.4751 -0.8671  2.7240
 2342TIP3    H228586   4.564   1.359   8.338 -0.9829 -0.2010  0.1357
 2343TIP3   OH228587   4.434   2.770   8.696  0.1505  0.5028  0.0582
 2343TIP3    H128588   4.348   2.811   8.705 -0.7160 -1.1481 -0.4004
 2343TIP3    H228589   4.431   2.725   8.612  0.3816 -2.0255  1.3161
 2344TIP3   OH228590   5.959   6.496   3.146  0.0777  0.5287 -0.2960
 2344TIP3    H128591   5.968   6.524   3.237  2.0658 -3.2234  0.9200
 2344TIP3    H228592   6.042   6.521   3.105  0.4159 -0.3027 -0.1619
 2345TIP3   OH228593   0.115   2.320   8.081 -0.0716 -0.0087  0.9671
 2345TIP3    H128594   0.027   2.286   8.073 -0.7418  1.7624  0.3242
 2345TIP3    H228595   0.104   2.415   8.086  1.9155  0.5384 -2.1727
 2346TIP3   OH228596   6.099   0.010   8.781 -0.5844 -0.6043  0.2157
 2346TIP3    H128597   6.121  -0.061   8.841  1.7935  0.1372  0.3530
 2346TIP3    H228598   6.132  -0.019   8.695  2.4504  1.0416  0.6544
 2347TIP3   OH228599   3.499   5.318   8.139  0.0386  0.0724 -0.1826
 2347TIP3    H128600   3.572   5.380   8.130 -1.7301  2.0062 -2.6040
 2347TIP3    H228601   3.427   5.371   8.173 -0.8406 -1.3317  0.2395
 2348TIP3   OH228602   1.043   5.235   0.760  0.1767  0.1845 -0.0597
 2348TIP3    H128603   0.963   5.188   0.782  0.7458 -1.4989 -1.3711
 2348TIP3    H228604   1.038   5.316   0.811 -2.2561  0.0643  0.0187
 2349TIP3   OH228605   6.229   3.091   1.232  0.0832 -0.4928  0.6405
 2349TIP3    H128606   6.283   3.013   1.251 -0.0173 -1.1485 -1.5408
 2349TIP3    H228607   6.143   3.056   1.211 -0.7822  0.4524  2.3903
 2350TIP3   OH228608   6.256   0.526   2.392 -0.2378 -0.1180  0.3675
 2350TIP3    H128609   6.161   0.519   2.381 -0.5637  0.8679  2.1717
 2350TIP3    H228610   6.269   0.540   2.486  1.6900 -0.0061  0.1354
 2351TIP3   OH228611   4.059   6.262   0.519  0.1313 -0.2320 -0.0440
 2351TIP3    H128612   4.045   6.195   0.452 -0.9947 -0.4146  0.3428
 2351TIP3    H228613   3.985   6.323   0.508  1.3681  1.2251 -0.6793
 2352TIP3   OH228614   0.424   3.070   8.495  0.1136 -0.2320  0.1725
 2352TIP3    H128615   0.477   3.067   8.575  3.0934 -0.5600 -1.6375
 2352TIP3    H228616   0.489   3.079   8.424 -2.2869 -1.1425 -2.3119
 2353TIP3   OH228617   2.968   5.985   1.616 -0.6164 -0.0064 -0.1460
 2353TIP3    H128618   2.963   6.064   1.563 -0.6809 -0.9665 -1.6007
 2353TIP3    H228619   2.895   5.992   1.677 -0.0438  1.5092  0.4137
 2354TIP3   OH228620   1.491   0.820   2.306 -0.1638  0.5015 -0.0346
 2354TIP3    H128621   1.576   0.785   2.332 -0.5485 -0.7199 -0.3478
 2354TIP3    H228622   1.434   0.802   2.382 -0.3736  0.4301 -0.2079
 2355TIP3   OH228623   2.733   0.216   0.961 -0.0522  0.6256 -0.3866
 2355TIP3    H128624   2.790   0.141   0.945  0.4820  1.0004 -0.2803
 2355TIP3    H228625   2.652   0.178   0.994  0.1428  0.0847 -0.5214
 2356TIP3   OH228626   2.866   6.045   0.456  1.1520  0.0976 -0.3545
 2356TIP3    H128627   2.890   6.003   0.539 -0.6649  0.4792  0.4121
 2356TIP3    H228628   2.778   6.080   0.472 -0.7129 -2.6570 -3.4808
 2357TIP3   OH228629   3.242   3.176   1.266 -0.0114 -0.4357  0.2984
 2357TIP3    H128630   3.166   3.164   1.324 -1.3192  0.1014 -1.2352
 2357TIP3    H228631   3.251   3.271   1.259 -0.8170 -0.4459 -1.4872
 2358TIP3   OH228632   0.885   1.798   7.975 -0.1665  0.4370  0.1093
 2358TIP3    H128633   0.850   1.844   7.897 -0.4309 -0.5661 -0.3797
 2358TIP3    H228634   0.922   1.717   7.940  0.4263  0.3413  0.9475
 2359TIP3   OH228635   4.146   5.974   2.155 -0.4026  0.1677 -0.3114
 2359TIP3    H128636   4.072   6.009   2.205 -0.2069  0.6316 -0.3387
 2359TIP3    H228637   4.198   5.926   2.220 -2.3147 -2.8744 -0.8248
 2360TIP3   OH228638   3.507   0.726   1.979 -0.6714  0.5405 -0.0787
 2360TIP3    H128639   3.493   0.737   1.885 -0.9439 -0.5136 -0.1734
 2360TIP3    H228640   3.548   0.640   1.988  0.6747  1.2291  0.6666
 2361TIP3   OH228641   3.294   2.970   1.095  0.4621 -0.1043 -0.0041
 2361TIP3    H128642   3.386   2.992   1.083  0.0441  1.2321 -1.0375
 2361TIP3    H228643   3.253   3.050   1.128 -0.3711 -0.6053  0.2303
 2362TIP3   OH228644   4.421   3.696   8.248  0.3285 -0.6638  0.3559
 2362TIP3    H128645   4.483   3.651   8.191 -0.0427 -1.5996  0.6757
 2362TIP3    H228646   4.352   3.727   8.189  0.6671 -0.3532  0.1153
 2363TIP3   OH228647   1.816   5.617   2.748 -0.0843 -0.0380 -0.2496
 2363TIP3    H128648   1.808   5.587   2.839  4.1329 -0.7800  0.1003
 2363TIP3    H228649   1.865   5.699   2.756 -0.7817  0.5564 -1.8371
 2364TIP3   OH228650   2.563   3.735   2.244 -0.1395  0.1015  0.8510
 2364TIP3    H128651   2.482   3.713   2.291  0.6509  0.1348  2.3100
 2364TIP3    H228652   2.628   3.675   2.280  0.9392  1.4700  1.2620
 2365TIP3   OH228653   1.720   0.748   8.484  0.4530 -0.7069 -0.4605
 2365TIP3    H128654   1.741   0.701   8.564  0.1749  1.3548  0.9172
 2365TIP3    H228655   1.645   0.803   8.508 -0.2127 -0.6910 -2.4116
 2366TIP3   OH228656   0.882   1.027   8.758 -0.2864 -0.1604 -0.3113
 2366TIP3    H128657   0.831   0.946   8.759  0.6424 -0.7578 -0.0954
 2366TIP3    H228658   0.837   1.085   8.820 -1.8523  0.0848 -1.6088
 2367TIP3   OH228659   5.505   1.170   7.482 -0.2016  0.0820 -0.5095
 2367TIP3    H128660   5.482   1.181   7.390  2.1672 -1.2394 -1.3571
 2367TIP3    H228661   5.452   1.095   7.511 -2.1009  1.4408 -0.2744
 2368TIP3   OH228662   3.009   3.889   0.374  0.8301 -0.5244 -0.0187
 2368TIP3    H128663   2.977   3.886   0.464  0.8744 -0.8491 -0.0116
 2368TIP3    H228664   3.015   3.982   0.354  0.5333 -0.4521  0.2119
 2369TIP3   OH228665   3.860   0.098   7.969 -0.2705 -0.2611 -0.2076
 2369TIP3    H128666   3.841   0.184   8.006  0.5152 -0.2385  0.1631
 2369TIP3    H228667   3.855   0.111   7.874 -2.4776 -0.3650 -0.1463
 2370TIP3   OH228668   3.397   6.192   2.326  0.3041  0.1668 -0.0717
 2370TIP3    H128669   3.418   6.182   2.419  1.3613 -1.5693 -0.4488
 2370TIP3    H228670   3.309   6.155   2.318  0.1013  0.5682  0.2838
 2371TIP3   OH228671   1.435   5.680   1.339  0.5811  0.4186  0.1105
 2371TIP3    H128672   1.516   5.646   1.300 -0.1283  0.3719 -1.3793
 2371TIP3    H228673   1.378   5.604   1.348  0.6793  0.4544  1.1550
 2372TIP3   OH228674   6.748   2.879   1.657 -0.1896 -0.5814  0.2065
 2372TIP3    H128675   6.782   2.957   1.612 -1.6389  0.9527  1.6087
 2372TIP3    H228676   6.746   2.904   1.749  0.9628 -2.9738  0.9563
 2373TIP3   OH228677   2.568   2.980   0.366 -0.0407 -0.3430  0.3031
 2373TIP3    H128678   2.653   3.004   0.330 -0.3177  1.9388  1.0045
 2373TIP3    H228679   2.587   2.907   0.425  1.8125  1.2790  1.8605
 2374TIP3   OH228680   4.056   1.377   8.201  0.0883 -0.0733  0.0825
 2374TIP3    H128681   3.981   1.349   8.254  0.4184 -1.1259  0.0304
 2374TIP3    H228682   4.126   1.317   8.227  0.6232  0.2507 -0.5933
 2375TIP3   OH228683   2.829   0.676   2.453  0.0189 -0.3018  0.1681
 2375TIP3    H128684   2.789   0.594   2.483 -1.1165 -0.2906 -1.1949
 2375TIP3    H228685   2.804   0.740   2.519 -1.1570 -0.5677  0.0087
 2376TIP3   OH228686   6.010   6.275   8.452  0.0643  0.1829 -0.2086
 2376TIP3    H128687   5.960   6.315   8.380  1.2269  0.9227 -0.6268
 2376TIP3    H228688   6.089   6.240   8.410 -0.0441 -0.9081  0.4541
 2377TIP3   OH228689   4.714   2.849   0.298  0.1293 -0.2789  0.9426
 2377TIP3    H128690   4.722   2.818   0.208 -1.8242 -0.1371  0.6730
 2377TIP3    H228691   4.638   2.908   0.297  0.6075  0.4409  2.5097
 2378TIP3   OH228692   5.703   3.008   7.743 -0.0445 -0.0185  0.3188
 2378TIP3    H128693   5.776   2.947   7.756 -0.5294 -0.5787  0.4684
 2378TIP3    H228694   5.738   3.094   7.767  1.7756  0.4347 -3.3115
 2379TIP3   OH228695   5.198   5.154   1.749 -0.2109  0.6127  0.4844
 2379TIP3    H128696   5.218   5.180   1.839 -0.6788  0.0420  0.7655
 2379TIP3    H228697   5.282   5.152   1.704 -0.0568  1.5955  0.7214
 2380TIP3   OH228698   1.468   1.892   2.298  0.2687  0.5416  0.1738
 2380TIP3    H128699   1.421   1.924   2.375 -0.6375  1.7171 -0.8347
 2380TIP3    H228700   1.481   1.799   2.316  0.2429  0.8241  1.8226
 2381TIP3   OH228701   0.866   4.231   2.766  0.1838 -0.2821  0.4615
 2381TIP3    H128702   0.828   4.149   2.796  0.0648 -0.4215 -0.0493
 2381TIP3    H228703   0.818   4.299   2.812  0.2540 -0.4972  0.8549
 2382TIP3   OH228704   3.498   4.219   8.828  0.9735  0.4112  0.9122
 2382TIP3    H128705   3.541   4.149   8.780 -0.3309  0.3781 -0.2737
 2382TIP3    H228706   3.406   4.193   8.833  0.6825  1.4555  1.5301
 2383TIP3   OH228707   4.177   0.202   8.456 -0.1210  0.1541 -0.1623
 2383TIP3    H128708   4.159   0.206   8.550  2.7667  1.1780  0.4483
 2383TIP3    H228709   4.164   0.291   8.425  0.2894  0.1248 -0.4285
 2384TIP3   OH228710   4.350   6.441   2.513  0.3655  0.5625 -0.3332
 2384TIP3    H128711   4.344   6.475   2.602  0.8876 -0.3101  0.0506
 2384TIP3    H228712   4.385   6.352   2.523  0.4837  0.4661 -1.4095
 2385TIP3   OH228713   3.286   5.970   0.151 -0.6077 -0.3635 -0.8491
 2385TIP3    H128714   3.277   6.002   0.241  1.1371 -2.5009  0.2248
 2385TIP3    H228715   3.279   5.874   0.160 -1.6926 -0.5590 -3.2112
 2386TIP3   OH228716   4.675   5.535   8.683  0.2163  0.3438  0.3171
 2386TIP3    H128717   4.657   5.535   8.589  2.3450 -2.4858 -0.2264
 2386TIP3    H228718   4.758   5.580   8.691  0.7477 -0.6541  0.6087
 2387TIP3   OH228719   1.534   1.418   2.747 -0.4122  0.0882  0.2577
 2387TIP3    H128720   1.592   1.418   2.672 -0.9321  0.8979 -0.1625
 2387TIP3    H228721   1.464   1.357   2.724 -0.6253  0.4138  0.0358
 2388TIP3   OH228722   6.664   1.537   0.320  0.0468  0.1759  0.6517
 2388TIP3    H128723   6.605   1.471   0.356 -1.6280 -0.6850 -3.1486
 2388TIP3    H228724   6.725   1.487   0.266 -1.1411  1.5962 -2.1820
 2389TIP3   OH228725   2.935   3.825   8.498  0.1975  0.6410  0.2224
 2389TIP3    H128726   2.985   3.877   8.436 -1.1419  1.7090 -0.0210
 2389TIP3    H228727   2.880   3.889   8.543 -2.5274 -0.6524 -1.0382
 2390TIP3   OH228728   0.534   4.298   2.463  0.0318  0.0055 -0.1399
 2390TIP3    H128729   0.521   4.365   2.530  0.0414  0.2473 -0.3766
 2390TIP3    H228730   0.621   4.316   2.427 -0.5653  0.8399 -1.2647
 2391TIP3   OH228731   4.900   3.349   0.005 -0.5518 -0.3832 -0.1285
 2391TIP3    H128732   4.913   3.441  -0.016  2.1143 -0.8218 -0.7615
 2391TIP3    H228733   4.905   3.305  -0.080  0.3961 -1.2848  0.3737
 2392TIP3   OH228734   0.169   4.603   0.038 -0.2784  0.3203  0.1677
 2392TIP3    H128735   0.077   4.594   0.064 -0.2296 -0.9076 -0.0179
 2392TIP3    H228736   0.207   4.517   0.055  1.0025  0.9894  0.8237
 2393TIP3   OH228737   3.929   3.196   2.492 -0.2256 -0.2358  0.4415
 2393TIP3    H128738   3.902   3.148   2.570 -0.7987  0.4028  0.6448
 2393TIP3    H228739   4.008   3.243   2.519  0.9553 -1.8485 -0.0586
 2394TIP3   OH228740   1.122   5.102   0.486 -0.0642 -0.4833 -0.2100
 2394TIP3    H128741   1.068   5.130   0.560  0.1979 -2.2000  0.6823
 2394TIP3    H228742   1.108   5.169   0.419 -0.5864  0.9291  1.2533
 2395TIP3   OH228743   1.153   6.286   2.500 -0.5611  0.0916 -0.0011
 2395TIP3    H128744   1.119   6.196   2.498 -0.8530  0.1808 -2.3734
 2395TIP3    H228745   1.095   6.333   2.560 -0.0553 -1.3853  1.7285
 2396TIP3   OH228746   6.093   1.168   0.998  0.2003 -1.1832  0.2244
 2396TIP3    H128747   6.048   1.251   0.980  0.9742 -0.8594 -0.2861
 2396TIP3    H228748   6.087   1.119   0.917 -0.0742 -1.5415  0.4608
 2397TIP3   OH228749   6.313   1.165   1.881  0.0348 -0.1931 -0.3488
 2397TIP3    H128750   6.236   1.110   1.898 -1.3600  1.8467  0.4569
 2397TIP3    H228751   6.349   1.182   1.968 -0.5997  1.4969 -0.3770
 2398TIP3   OH228752   3.668   2.031   2.291  0.0540 -0.3209  0.0928
 2398TIP3    H128753   3.637   1.958   2.345  0.5057 -0.3303  0.3462
 2398TIP3    H228754   3.705   2.093   2.354  0.8191 -0.4478 -0.2141
 2399TIP3   OH228755   0.517   2.706   8.243 -0.3646 -0.2499  0.7084
 2399TIP3    H128756   0.447   2.705   8.178 -0.4081 -1.4882  0.7582
 2399TIP3    H228757   0.472   2.695   8.327 -0.0830 -1.6942  0.6917
 2400TIP3   OH228758   4.204   6.611   7.247  0.0056 -0.4760 -0.3247
 2400TIP3    H128759   4.270   6.592   7.313  0.4466 -0.5604 -0.7841
 2400TIP3    H228760   4.180   6.526   7.212 -1.3627 -0.5863  0.7855
 2401TIP3   OH228761   5.772   4.642   8.589  0.2019 -0.2061 -0.5356
 2401TIP3    H128762   5.731   4.669   8.672  3.2637 -0.4742  1.2161
 2401TIP3    H228763   5.854   4.691   8.586  0.3875 -0.5462 -3.2626
 2402TIP3   OH228764   5.309   4.807   0.076 -0.1357 -0.1024 -0.1500
 2402TIP3    H128765   5.304   4.795  -0.019 -2.0194 -0.9735  0.0067
 2402TIP3    H228766   5.382   4.752   0.104 -0.1254 -0.5422 -1.0128
 2403TIP3   OH228767   4.358   5.679   8.687  0.1803 -0.3246 -0.1535
 2403TIP3    H128768   4.311   5.695   8.768  3.0415  0.3313  1.4932
 2403TIP3    H228769   4.442   5.722   8.698  1.3607 -1.6939 -2.7710
 2404TIP3   OH228770   2.993   6.444   1.877 -1.0196  0.0890  0.3525
 2404TIP3    H128771   2.968   6.523   1.926 -1.7023 -0.3097  0.6542
 2404TIP3    H228772   2.967   6.371   1.933  0.1225 -0.3636  0.3309
 2405TIP3   OH228773   1.709   5.670   1.748 -0.0470 -0.3164  0.3064
 2405TIP3    H128774   1.708   5.640   1.839 -0.9194 -0.4015  0.2814
 2405TIP3    H228775   1.617   5.669   1.722  0.1182  0.4179 -0.3473
 2406TIP3   OH228776   0.925   2.331   8.389  0.0463  0.3897 -0.3832
 2406TIP3    H128777   0.929   2.426   8.395 -0.3445  0.4372 -0.8443
 2406TIP3    H228778   0.998   2.300   8.442  0.0580  0.9412 -0.0753
 2407TIP3   OH228779   1.468   1.121   8.032  0.1144 -0.5110  0.1681
 2407TIP3    H128780   1.528   1.164   8.093  2.2934 -1.1266 -1.4042
 2407TIP3    H228781   1.410   1.191   8.002  2.0822  0.9004 -0.5733
 2408TIP3   OH228782   4.003   1.813   6.727  0.2518 -0.1567  0.5816
 2408TIP3    H128783   4.095   1.799   6.749 -0.1191 -0.8004  1.8439
 2408TIP3    H228784   3.990   1.907   6.738  0.2811 -0.3284  2.5212
 2409TIP3   OH228785   3.497   1.167   8.100  0.2152  0.6375  0.1289
 2409TIP3    H128786   3.433   1.217   8.150  0.4502  3.6393 -2.2564
 2409TIP3    H228787   3.447   1.094   8.062 -0.9420  0.8920  1.1141
 2410TIP3   OH228788   1.125   6.004   6.770  0.7194  0.6352 -0.2674
 2410TIP3    H128789   1.216   5.974   6.778  0.9483  1.4369  0.2950
 2410TIP3    H228790   1.073   5.924   6.767  1.4548  0.1658 -0.7561
 2411TIP3   OH228791   2.797   2.038   0.585  0.3427  0.3781  0.1060
 2411TIP3    H128792   2.829   1.948   0.574 -1.7271 -0.1708 -2.3895
 2411TIP3    H228793   2.855   2.090   0.529  0.2198  0.2533 -0.1388
 2412TIP3   OH228794   3.666   4.372   7.770 -0.7759  0.0721  0.1950
 2412TIP3    H128795   3.728   4.444   7.755 -0.2825 -0.6201 -1.2610
 2412TIP3    H228796   3.719   4.293   7.760 -1.7415 -0.5204 -0.2565
 2413TIP3   OH228797   6.171   1.513   1.396  0.3236  0.2110 -0.1048
 2413TIP3    H128798   6.214   1.445   1.448  0.0179 -1.0968 -1.4876
 2413TIP3    H228799   6.093   1.536   1.447  0.6637 -0.1583  0.5977
 2414TIP3   OH228800   5.506   5.783   8.649 -0.4743  0.1256 -0.3283
 2414TIP3    H128801   5.457   5.728   8.588  0.4599 -1.9708  0.6721
 2414TIP3    H228802   5.446   5.796   8.723 -0.1130 -1.1149  0.2106
 2415TIP3   OH228803   0.309   4.287   2.274  0.1670 -0.0269 -0.9112
 2415TIP3    H128804   0.378   4.309   2.336 -1.5287  3.7113 -0.0710
 2415TIP3    H228805   0.240   4.248   2.328 -0.2009  0.6540 -0.8705
 2416TIP3   OH228806   6.178   1.072   6.958 -0.0340 -0.2494  0.9995
 2416TIP3    H128807   6.139   1.157   6.980 -0.8478 -0.2437 -0.3325
 2416TIP3    H228808   6.243   1.092   6.891  0.8786 -0.5061  1.7954
 2417TIP3   OH228809   5.730   2.350   6.968 -0.2251  0.4074  0.1972
 2417TIP3    H128810   5.709   2.277   7.027  1.0586  0.4505  0.7365
 2417TIP3    H228811   5.697   2.428   7.014 -0.4868  0.2963  0.1989
 2418TIP3   OH228812   3.472   4.179   1.321 -0.3697 -0.0838  0.2603
 2418TIP3    H128813   3.450   4.271   1.334 -1.0611 -0.3297  0.9573
 2418TIP3    H228814   3.443   4.160   1.232 -0.4933  0.3043  0.2153
 2419TIP3   OH228815   0.194   3.459   7.585 -0.6765 -0.5666 -0.1703
 2419TIP3    H128816   0.254   3.408   7.531 -0.0370  0.0081 -0.0117
 2419TIP3    H228817   0.133   3.499   7.523 -0.4340 -0.5526 -0.4006
 2420TIP3   OH228818   0.605   5.578   7.945  0.4766  0.4212 -0.5302
 2420TIP3    H128819   0.598   5.648   8.009  0.8199  0.6375 -0.7267
 2420TIP3    H228820   0.565   5.502   7.988 -1.4143  1.1302 -0.9297
 2421TIP3   OH228821   3.661   3.661   1.144 -0.0698  0.0183 -0.1216
 2421TIP3    H128822   3.735   3.697   1.191  0.3167 -0.2476 -0.5143
 2421TIP3    H228823   3.677   3.685   1.052 -1.2941  1.3679 -0.0242
 2422TIP3   OH228824   4.376   0.929   1.913  0.1826  0.2629 -0.1974
 2422TIP3    H128825   4.400   0.877   1.990  1.1997  1.8835  0.6205
 2422TIP3    H228826   4.358   0.864   1.845  1.2396 -1.1528  0.8298
 2423TIP3   OH228827   0.545   4.660   1.022 -1.0664 -0.3267  0.0806
 2423TIP3    H128828   0.456   4.694   1.026 -0.9927 -0.1025 -0.1670
 2423TIP3    H228829   0.555   4.628   0.932 -1.1751 -1.1189  0.3409
 2424TIP3   OH228830   5.192   5.378   7.393  0.2411 -0.4420 -0.1872
 2424TIP3    H128831   5.254   5.310   7.366  0.4939 -0.3476  0.1547
 2424TIP3    H228832   5.203   5.447   7.328  1.3809  0.1025  0.5425
 2425TIP3   OH228833   3.853   0.801   1.076  0.3415 -0.0901  0.1867
 2425TIP3    H128834   3.802   0.832   1.001 -1.7382 -0.1431  1.5103
 2425TIP3    H228835   3.833   0.862   1.146  1.5390 -0.5629  0.9773
 2426TIP3   OH228836   5.223   3.138   7.989 -0.3358  0.4100  0.0994
 2426TIP3    H128837   5.152   3.130   8.053  0.4264 -0.6801  0.8392
 2426TIP3    H228838   5.287   3.072   8.015 -0.1337 -0.2979 -1.9758
 2427TIP3   OH228839   3.264   2.507   8.608 -0.4379 -0.2623 -0.5681
 2427TIP3    H128840   3.243   2.534   8.698  0.2414 -0.1576 -0.4366
 2427TIP3    H228841   3.185   2.527   8.558  0.3361  3.0760 -0.7154
 2428TIP3   OH228842   2.558   6.649   7.944 -0.3045 -0.0816  0.0876
 2428TIP3    H128843   2.465   6.627   7.937 -0.3596 -0.1342  0.8663
 2428TIP3    H228844   2.576   6.703   7.867 -0.9666 -0.1232 -0.1019
 2429TIP3   OH228845   4.192   4.287   6.895 -0.4621 -0.6008  0.8227
 2429TIP3    H128846   4.166   4.221   6.959  1.6605 -1.6789  0.6588
 2429TIP3    H228847   4.268   4.249   6.851 -0.7191  0.8989 -1.0664
 2430TIP3   OH228848   0.232   4.053   0.241 -0.3345 -0.2122  0.1431
 2430TIP3    H128849   0.141   4.059   0.212 -0.4986  1.0417  0.8767
 2430TIP3    H228850   0.281   4.108   0.180  0.2028 -2.0232 -1.1583
 2431TIP3   OH228851   2.493   3.543   8.479 -0.8641  0.1182  0.1738
 2431TIP3    H128852   2.515   3.633   8.504 -2.4211  0.3862  0.6693
 2431TIP3    H228853   2.399   3.545   8.461 -1.5092 -1.9362  2.7357
 2432TIP3   OH228854   0.480   1.124   7.454  0.0416 -0.4366 -0.0957
 2432TIP3    H128855   0.493   1.153   7.545 -2.5799  0.4380  0.0961
 2432TIP3    H228856   0.511   1.197   7.401 -1.3744  0.4873  0.2548
 2433TIP3   OH228857   2.446   4.068   0.307  0.1557  0.3540  0.6049
 2433TIP3    H128858   2.420   4.132   0.374 -0.7844  0.5468  0.0667
 2433TIP3    H228859   2.537   4.090   0.288 -0.0647  1.3551  0.6453
 2434TIP3   OH228860   3.940   1.255   7.779 -0.4810 -0.6006 -0.9953
 2434TIP3    H128861   3.948   1.350   7.771 -0.4774 -0.4409  0.6673
 2434TIP3    H228862   4.016   1.228   7.830 -0.1266 -1.6015 -2.0154
 2435TIP3   OH228863   0.278   1.436   2.659  0.4564  0.2536  0.1047
 2435TIP3    H128864   0.267   1.514   2.604 -0.0715  0.6101  0.7087
 2435TIP3    H228865   0.372   1.419   2.656  0.4367  0.2524 -0.9210
 2436TIP3   OH228866   3.862   3.430   8.253 -0.0956 -0.0677  0.0265
 2436TIP3    H128867   3.873   3.502   8.191 -1.8807  0.2900  0.0762
 2436TIP3    H228868   3.839   3.355   8.199 -3.1692  0.5891  0.2664
 2437TIP3   OH228869   2.370   2.295   1.897 -0.0776  0.1760 -0.2823
 2437TIP3    H128870   2.447   2.285   1.842  0.3203 -1.0572  0.4615
 2437TIP3    H228871   2.324   2.371   1.861  0.7827  0.1185 -1.5525
 2438TIP3   OH228872   6.013   2.195   8.838  0.1715  0.8201 -0.3369
 2438TIP3    H128873   5.947   2.126   8.847  0.8263 -0.0528 -1.8367
 2438TIP3    H228874   5.963   2.275   8.824 -0.5896  0.5532  0.7420
 2439TIP3   OH228875   1.449   5.539   2.079 -0.4155  0.1667  0.1842
 2439TIP3    H128876   1.362   5.570   2.056 -0.7577  0.7750  2.1916
 2439TIP3    H228877   1.438   5.445   2.096 -0.1655 -0.2893 -1.8891
 2440TIP3   OH228878   6.373   1.086   0.792 -0.2988  0.3607 -0.5917
 2440TIP3    H128879   6.407   1.011   0.744 -0.6782 -1.0478  1.2142
 2440TIP3    H228880   6.281   1.064   0.809 -0.0755  0.5993  1.0962
 2441TIP3   OH228881   4.913   6.460   0.745  0.1129  0.0746 -0.1854
 2441TIP3    H128882   4.837   6.464   0.803  0.4006  0.4906  0.1681
 2441TIP3    H228883   4.922   6.367   0.724 -1.5256  0.1959 -1.6247
 2442TIP3   OH228884   4.712   5.721   1.927 -0.2187 -0.3413  0.7638
 2442TIP3    H128885   4.751   5.637   1.949  0.0579 -0.4357 -0.0393
 2442TIP3    H228886   4.619   5.710   1.946 -0.0352 -0.4997  1.5872
 2443TIP3   OH228887   1.807   3.585   6.790  0.3747  0.6358 -0.2262
 2443TIP3    H128888   1.813   3.627   6.705  0.3021 -0.6494 -0.8922
 2443TIP3    H228889   1.713   3.574   6.805  0.3468  1.6692  0.4508
 2444TIP3   OH228890   0.344   5.530   0.609  0.4139  0.4212 -0.3398
 2444TIP3    H128891   0.396   5.586   0.666  1.1562  0.7718 -1.3170
 2444TIP3    H228892   0.270   5.585   0.582  1.1801  0.9980 -1.3563
 2445TIP3   OH228893   2.636   1.713   8.205 -0.1329  0.1962 -0.4775
 2445TIP3    H128894   2.612   1.752   8.289 -2.4944  1.4283 -1.6337
 2445TIP3    H228895   2.694   1.777   8.164  0.8612 -0.3165  0.0961
 2446TIP3   OH228896   0.780   5.193   7.610  0.0977  0.1707 -0.3682
 2446TIP3    H128897   0.714   5.191   7.680  0.4182  0.6782 -0.0466
 2446TIP3    H228898   0.863   5.180   7.656  0.0717 -2.9841 -1.0136
 2447TIP3   OH228899   0.594   3.223   0.087 -0.2754 -0.1378 -0.9767
 2447TIP3    H128900   0.625   3.279   0.015  0.7570  0.6863  0.0674
 2447TIP3    H228901   0.650   3.146   0.084  1.6823  1.1458  0.6254
 2448TIP3   OH228902   0.790   5.399   0.863 -0.1570  0.0713  0.1788
 2448TIP3    H128903   0.763   5.314   0.829  0.8692 -0.0473 -0.3868
 2448TIP3    H228904   0.721   5.460   0.836  0.2598 -0.1524 -1.5306
 2449TIP3   OH228905   2.157   4.677   8.182 -1.0236  0.4161 -0.3925
 2449TIP3    H128906   2.184   4.759   8.224  1.3517 -0.5310  0.1537
 2449TIP3    H228907   2.199   4.679   8.096  1.0717 -1.1197  0.4822
 2450TIP3   OH228908   0.410   3.850   0.018 -0.3900 -0.0864 -0.3697
 2450TIP3    H128909   0.359   3.904  -0.042  0.4634  0.3811 -0.6923
 2450TIP3    H228910   0.350   3.780   0.044 -0.8313 -0.1819 -1.6039
 2451TIP3   OH228911   6.311   4.144   7.757 -0.4074 -0.2194  0.3142
 2451TIP3    H128912   6.238   4.164   7.816 -2.3015 -0.7687 -1.7025
 2451TIP3    H228913   6.294   4.198   7.680  0.4085 -1.5609 -0.8401
 2452TIP3   OH228914   0.874   3.409   0.225 -0.0536  0.0826  0.1674
 2452TIP3    H128915   0.903   3.463   0.298 -0.5659  1.0480 -0.3340
 2452TIP3    H228916   0.778   3.407   0.233 -0.2278  1.2890 -1.2073
 2453TIP3   OH228917   4.503   5.315   7.942  0.2814  0.0186  0.1858
 2453TIP3    H128918   4.440   5.251   7.977 -0.8411  1.6409  1.2686
 2453TIP3    H228919   4.454   5.362   7.874  0.5960  0.7146  0.4330
 2454TIP3   OH228920   0.024   1.083   0.091  0.2255  0.1637  0.4542
 2454TIP3    H128921  -0.018   1.064   0.007  0.7870 -2.5408  0.7118
 2454TIP3    H228922  -0.029   1.036   0.155  1.1058  0.3437  1.3267
 2455TIP3   OH228923   3.217   6.129   8.129  0.2043  0.1871  1.8152
 2455TIP3    H128924   3.260   6.191   8.071 -0.6271 -1.0909 -0.2682
 2455TIP3    H228925   3.279   6.057   8.137 -0.7370 -0.8334  0.2932
 2456TIP3   OH228926   0.171   5.088   8.036 -0.1100  0.1876 -0.5460
 2456TIP3    H128927   0.143   5.032   8.108 -0.4126 -0.5779 -1.2429
 2456TIP3    H228928   0.264   5.068   8.024 -0.3695 -0.6680 -1.2196
 2457TIP3   OH228929   3.135   5.942   1.005  0.5384  0.1200  0.6793
 2457TIP3    H128930   3.113   5.981   0.921  0.4195 -0.8006  0.2713
 2457TIP3    H228931   3.161   5.852   0.984 -1.0120 -0.6231  1.7779
 2458TIP3   OH228932   6.772   2.917   0.689 -0.4824  0.0758  0.0523
 2458TIP3    H128933   6.724   2.980   0.744  0.4589  0.7953  0.0837
 2458TIP3    H228934   6.864   2.940   0.702 -0.1848 -0.5296 -0.8926
 2459TIP3   OH228935   3.922   0.887   0.182 -0.1115 -0.2438 -0.5005
 2459TIP3    H128936   3.965   0.802   0.173  1.0196  0.3149 -0.5609
 2459TIP3    H228937   3.843   0.880   0.128 -0.7144 -1.6804  0.5203
 2460TIP3   OH228938   6.565   2.646   0.979  0.0791 -0.1284  0.2482
 2460TIP3    H128939   6.477   2.615   1.001  0.2892  0.0854  1.4600
 2460TIP3    H228940   6.551   2.735   0.947  0.0159  0.6892  2.4117
 2461TIP3   OH228941   2.930   5.260   1.410 -0.7888  0.1888  0.1761
 2461TIP3    H128942   3.018   5.268   1.374 -0.0182  0.1430  1.9204
 2461TIP3    H228943   2.903   5.171   1.388 -1.4326  0.9653 -2.4565
 2462TIP3   OH228944   1.823   2.635   1.756  0.3443 -0.3042 -0.3270
 2462TIP3    H128945   1.874   2.560   1.787  0.3263  0.3135  1.3169
 2462TIP3    H228946   1.732   2.612   1.775  0.4895  1.0780  2.5732
 2463TIP3   OH228947   2.937   5.961   2.784  0.4005 -0.3243  0.0776
 2463TIP3    H128948   2.957   5.880   2.830  1.6237  0.2127  0.5341
 2463TIP3    H228949   2.913   6.023   2.853 -0.5170 -0.2831 -0.2656
 2464TIP3   OH228950   4.456   0.117   8.470  0.1800 -0.0661 -0.4774
 2464TIP3    H128951   4.361   0.106   8.470  0.1330  0.2898  0.2426
 2464TIP3    H228952   4.491   0.028   8.470 -0.1639 -0.2085  0.6115
 2465TIP3   OH228953   0.600   4.997   2.753  0.6379  0.5276 -0.1138
 2465TIP3    H128954   0.657   4.985   2.829 -0.4750 -1.9837  0.4206
 2465TIP3    H228955   0.523   4.943   2.772  0.3064 -0.1679 -3.0023
 2466TIP3   OH228956   2.378   3.087   8.102 -0.0667  0.2284  0.3028
 2466TIP3    H128957   2.286   3.059   8.102  0.0586 -0.1905  0.6258
 2466TIP3    H228958   2.388   3.136   8.183  0.4676 -1.3452  1.2425
 2467TIP3   OH228959   4.230   4.376   0.620 -0.0572  1.0668 -0.7287
 2467TIP3    H128960   4.140   4.358   0.647  0.4627  2.0969  2.0338
 2467TIP3    H228961   4.226   4.462   0.577 -0.5631  0.4955 -1.8487
 2468TIP3   OH228962   3.110   2.537   6.826  0.0456 -0.1837  0.8286
 2468TIP3    H128963   3.110   2.618   6.776 -0.9325  0.0295  1.1593
 2468TIP3    H228964   3.203   2.517   6.839  0.3274 -0.1595 -0.9130
 2469TIP3   OH228965   2.987   4.211   8.727 -0.2779  0.8396 -0.5073
 2469TIP3    H128966   3.020   4.258   8.804 -1.9305  0.2605  0.6167
 2469TIP3    H228967   2.895   4.195   8.747 -0.3754 -0.6432 -1.9727
 2470TIP3   OH228968   2.320   1.128   8.198 -0.3400 -0.1895 -0.0959
 2470TIP3    H128969   2.333   1.055   8.258  0.3873  0.1835  0.2092
 2470TIP3    H228970   2.401   1.178   8.203 -1.7455  2.1203  1.7231
 2471TIP3   OH228971   6.080   5.240   1.753  0.2709  0.5491  0.2607
 2471TIP3    H128972   6.162   5.290   1.755  0.3434  0.5226 -1.1428
 2471TIP3    H228973   6.096   5.166   1.812  1.7525 -0.1753 -0.9630
 2472TIP3   OH228974   4.370   3.689   2.251  0.7666  0.3485 -0.0785
 2472TIP3    H128975   4.301   3.746   2.286  0.9785 -0.4551  1.8142
 2472TIP3    H228976   4.338   3.600   2.270  0.7632 -0.1748 -2.3336
 2473TIP3   OH228977   3.639   2.536   8.406  0.0305  0.3036 -0.6062
 2473TIP3    H128978   3.712   2.560   8.349  3.1763 -0.5118  2.7169
 2473TIP3    H228979   3.649   2.442   8.420  0.0697  0.6059  1.9794
 2474TIP3   OH228980   2.461   4.883   2.285  0.2300 -0.0172 -0.1484
 2474TIP3    H128981   2.442   4.840   2.201  0.3875 -0.0195 -0.1839
 2474TIP3    H228982   2.538   4.836   2.319  0.4007  0.2337 -0.1839
 2475TIP3   OH228983   4.116   3.308   0.655  0.4212 -0.2991 -0.2880
 2475TIP3    H128984   4.064   3.384   0.630  0.4352  0.0107  0.5702
 2475TIP3    H228985   4.200   3.345   0.683  0.1642 -0.5414  0.8615
 2476TIP3   OH228986   5.263   4.818   8.170 -0.1763 -0.1944  0.5419
 2476TIP3    H128987   5.230   4.907   8.175 -1.0156 -0.5540  2.4287
 2476TIP3    H228988   5.357   4.826   8.187  0.2602  0.5534 -1.9603
 2477TIP3   OH228989   0.539   3.831   8.063  0.4728 -0.9511  0.0829
 2477TIP3    H128990   0.560   3.835   8.156 -1.5541 -0.6348  0.5522
 2477TIP3    H228991   0.589   3.903   8.024 -0.8562  0.7643  1.4044
 2478TIP3   OH228992   2.164   4.529   7.620  0.0498  0.3693  0.0935
 2478TIP3    H128993   2.212   4.556   7.541  2.0691  0.0836  1.1717
 2478TIP3    H228994   2.190   4.438   7.633  2.4799  1.3047  2.9009
 2479TIP3   OH228995   0.658   2.372   8.115 -0.5845 -0.2628  0.1969
 2479TIP3    H128996   0.598   2.423   8.169 -1.7809  0.3793 -1.6544
 2479TIP3    H228997   0.668   2.423   8.034  0.3614 -1.6371 -0.6107
 2480TIP3   OH228998   6.448   2.751   0.624  0.3896  0.0094 -0.0337
 2480TIP3    H128999   6.384   2.681   0.634  0.6528 -0.3836 -1.0528
 2480TIP3    H229000   6.530   2.706   0.606  0.3746  0.5881 -1.6942
 2481TIP3   OH229001   4.275   4.839   8.015  0.9189 -0.5358  0.0456
 2481TIP3    H129002   4.228   4.834   7.931 -0.6397 -0.9065  0.8986
 2481TIP3    H229003   4.246   4.761   8.063  1.7318 -0.2866  0.9598
 2482TIP3   OH229004   6.638   2.623   1.316 -0.4938  0.8618 -0.4043
 2482TIP3    H129005   6.642   2.717   1.294  0.3541  0.9104 -0.0555
 2482TIP3    H229006   6.663   2.579   1.235  1.7480  1.0224  0.1252
 2483TIP3   OH229007   4.658   0.452   7.841 -0.3466  0.2824  0.5647
 2483TIP3    H129008   4.731   0.394   7.817 -0.6660 -0.3924  1.1678
 2483TIP3    H229009   4.633   0.494   7.758  0.6963  0.5079  0.3436
 2484TIP3   OH229010   1.853   4.692   6.936 -0.4290  0.1293 -0.2191
 2484TIP3    H129011   1.853   4.787   6.950 -1.2293  0.0355  0.4964
 2484TIP3    H229012   1.928   4.661   6.986 -0.3907  0.3487 -0.1372
 2485TIP3   OH229013   5.817   0.717   0.617 -0.4372 -0.3020 -0.1049
 2485TIP3    H129014   5.861   0.745   0.537 -2.5822  1.3088 -0.8025
 2485TIP3    H229015   5.814   0.621   0.610  1.7332 -0.3938 -0.6062
 2486TIP3   OH229016   3.839   2.919   6.875  0.4351 -0.3091  0.4768
 2486TIP3    H129017   3.782   2.924   6.799 -1.0185 -0.8177  1.4964
 2486TIP3    H229018   3.880   3.005   6.881  0.3637 -0.1799 -0.6966
 2487TIP3   OH229019   3.693   2.762   0.370  0.3043 -0.3531  0.0814
 2487TIP3    H129020   3.680   2.831   0.305  1.3330  1.3736  1.6056
 2487TIP3    H229021   3.753   2.700   0.329  1.1946  0.8784 -0.4899
 2488TIP3   OH229022   2.964   3.633   2.581 -0.1550 -0.2747 -0.2374
 2488TIP3    H129023   2.948   3.722   2.612  1.6506  0.1979 -0.5460
 2488TIP3    H229024   3.011   3.590   2.652 -1.7026 -1.2747  0.2323
 2489TIP3   OH229025   5.831   4.227   0.373 -0.7143  0.0165 -1.0356
 2489TIP3    H129026   5.883   4.288   0.426 -2.4431  0.5445  0.1425
 2489TIP3    H229027   5.877   4.223   0.289  0.6320  1.2575 -0.4058
 2490TIP3   OH229028   3.095   0.527   7.062 -0.3775  0.0300 -0.1872
 2490TIP3    H129029   3.065   0.452   7.011 -1.6423  0.8354 -0.6659
 2490TIP3    H229030   3.137   0.584   6.998 -2.3249  1.2336 -0.4558
 2491TIP3   OH229031   3.849   5.143   0.691  0.0387 -0.0532  0.4422
 2491TIP3    H129032   3.895   5.204   0.633 -0.4024 -0.1848 -0.0601
 2491TIP3    H229033   3.798   5.198   0.750 -0.1952  0.0698  0.1271
 2492TIP3   OH229034   0.940   4.347   7.660  0.0661 -0.4928 -0.1515
 2492TIP3    H129035   0.891   4.429   7.668  1.0009  0.0770 -0.0947
 2492TIP3    H229036   0.976   4.350   7.571  0.1316 -0.8212 -0.1343
 2493TIP3   OH229037   5.416   0.311   0.643 -0.1581 -0.4090  0.1729
 2493TIP3    H129038   5.365   0.344   0.570  0.7419  1.4142  0.3149
 2493TIP3    H229039   5.358   0.317   0.718 -0.5329 -0.7095 -0.0878
 2494TIP3   OH229040   3.895   4.451   8.683  0.3997 -0.0497  0.7049
 2494TIP3    H129041   3.935   4.402   8.755 -1.8041  1.5839  3.2116
 2494TIP3    H229042   3.935   4.538   8.688 -0.8143  0.5113  0.9216
 2495TIP3   OH229043   3.941   4.238   7.247  0.0225 -0.0781  0.6758
 2495TIP3    H129044   3.935   4.186   7.326 -1.2943  0.1745  0.7586
 2495TIP3    H229045   3.939   4.174   7.175  0.4264 -0.2527  0.8170
 2496TIP3   OH229046   0.986   0.153   8.021  0.8217  0.1840  0.0040
 2496TIP3    H129047   1.011   0.121   7.934  1.8166 -1.7569  0.9418
 2496TIP3    H229048   1.065   0.195   8.055  0.3256  1.2698 -0.1402
 2497TIP3   OH229049   0.703   0.829   2.874 -0.0787 -0.7692 -0.1939
 2497TIP3    H129050   0.701   0.789   2.961 -1.6714 -0.5504 -0.0912
 2497TIP3    H229051   0.661   0.914   2.886 -0.7227 -0.9156 -1.2495
 2498TIP3   OH229052   2.152   2.135   0.889  1.0934  0.1658  0.2977
 2498TIP3    H129053   2.237   2.149   0.847  2.0132 -1.6321  1.3857
 2498TIP3    H229054   2.115   2.059   0.843  0.6786  0.1393  0.6680
 2499TIP3   OH229055   1.140   4.881   0.230  0.1551 -0.6902  0.2959
 2499TIP3    H129056   1.129   4.840   0.145 -0.2195  0.8589 -0.4491
 2499TIP3    H229057   1.051   4.889   0.265  0.4080 -2.5926  1.5120
 2500TIP3   OH229058   0.945   2.537   2.450 -0.0684 -0.0905 -0.4117
 2500TIP3    H129059   0.862   2.503   2.482  0.4807 -1.0602  0.0007
 2500TIP3    H229060   0.962   2.613   2.506  0.0809 -0.8072  0.5379
 2501TIP3   OH229061   4.591   3.132   0.351  0.4774  0.3169 -0.4833
 2501TIP3    H129062   4.525   3.122   0.282  0.1771 -2.2301  0.0792
 2501TIP3    H229063   4.670   3.160   0.305 -0.5100  1.6991 -1.3995
 2502TIP3   OH229064   3.003   2.163   8.521  0.5195  0.0448 -0.1482
 2502TIP3    H129065   2.936   2.204   8.465 -0.9163 -1.4875  0.3503
 2502TIP3    H229066   3.076   2.145   8.462 -0.7017 -0.9383 -1.4318
 2503TIP3   OH229067   2.515   5.581   1.435  0.0464  0.1310 -0.1198
 2503TIP3    H129068   2.444   5.624   1.484 -1.4642 -0.5804 -1.5703
 2503TIP3    H229069   2.578   5.650   1.418  0.5243  0.4763  2.5335
 2504TIP3   OH229070   1.355   5.777   1.089  1.3494 -0.6231  0.3853
 2504TIP3    H129071   1.266   5.753   1.112  0.6524 -0.2103 -1.6111
 2504TIP3    H229072   1.405   5.769   1.170 -0.7100  0.1715  1.8156
 2505TIP3   OH229073   1.327   2.282   1.916  0.6295 -0.1197 -0.7860
 2505TIP3    H129074   1.285   2.337   1.849 -0.2506  0.0607 -0.0965
 2505TIP3    H229075   1.333   2.196   1.875  2.3088  0.5233 -1.9990
 2506TIP3   OH229076   0.567   5.128   1.525  0.0049  0.3660 -0.2280
 2506TIP3    H129077   0.632   5.118   1.455 -0.8001  0.5511 -1.0157
 2506TIP3    H229078   0.508   5.196   1.493 -0.9888 -0.2993  0.1474
 2507TIP3   OH229079   6.604   2.422   7.470 -0.4159 -0.0795  0.3888
 2507TIP3    H129080   6.607   2.331   7.440  0.0208  0.1213 -0.1860
 2507TIP3    H229081   6.526   2.426   7.525  0.3599 -1.1757  1.6336
 2508TIP3   OH229082   5.282   3.117   0.586 -0.1203 -0.3738 -0.2616
 2508TIP3    H129083   5.278   3.048   0.520  0.2057  0.1283 -0.8183
 2508TIP3    H229084   5.198   3.110   0.633 -0.0829 -1.1474 -0.2930
 2509TIP3   OH229085   3.684   1.290   7.701  0.1026  0.1678 -0.4979
 2509TIP3    H129086   3.766   1.243   7.691  0.9840  1.7860 -1.2751
 2509TIP3    H229087   3.706   1.365   7.757 -0.5790  1.1781 -1.5334
 2510TIP3   OH229088   4.931   1.171   0.138 -0.5826  0.1867 -0.1621
 2510TIP3    H129089   4.918   1.169   0.233 -2.1591 -0.6374 -0.3630
 2510TIP3    H229090   5.019   1.135   0.125 -0.6647 -0.4584  0.9419
 2511TIP3   OH229091   2.334   4.813   6.590 -0.0558  0.5281 -0.7949
 2511TIP3    H129092   2.373   4.898   6.568  0.8253  0.4737  0.5181
 2511TIP3    H229093   2.279   4.830   6.666 -0.4676  0.0524 -0.9748
 2512TIP3   OH229094   4.747   3.535   2.403  0.2445  0.1835 -0.1990
 2512TIP3    H129095   4.722   3.454   2.447 -0.3054  0.3716 -0.1580
 2512TIP3    H229096   4.708   3.604   2.456 -0.2943  0.4175 -0.8877
 2513TIP3   OH229097   0.933   6.233   1.086  0.8900 -0.0515 -0.9130
 2513TIP3    H129098   0.904   6.232   1.177 -2.4437  2.5790 -1.7471
 2513TIP3    H229099   0.909   6.147   1.052  2.5861 -1.2399  0.6737
 2514TIP3   OH229100   0.371   2.642   0.470  0.0121 -0.5779  0.2364
 2514TIP3    H129101   0.365   2.562   0.416 -1.3166  0.4429 -1.2082
 2514TIP3    H229102   0.313   2.704   0.427 -0.0250  0.7592  2.1161
 2515TIP3   OH229103   3.458   6.354   0.687  0.0419 -0.1111 -0.4582
 2515TIP3    H129104   3.428   6.281   0.632  1.9696 -1.0619 -0.3291
 2515TIP3    H229105   3.386   6.416   0.685 -1.2167 -1.5217 -1.4979
 2516TIP3   OH229106   1.716   1.673   7.438  0.6685  0.0921 -0.4067
 2516TIP3    H129107   1.771   1.594   7.442  0.3942 -0.1273 -0.8125
 2516TIP3    H229108   1.759   1.729   7.374 -0.3649 -0.7234 -1.8880
 2517TIP3   OH229109   1.757   4.672   7.938  0.2445  0.3534  0.4509
 2517TIP3    H129110   1.805   4.671   8.022  0.4428  0.5913  0.3417
 2517TIP3    H229111   1.826   4.668   7.872  0.0645 -0.3747  0.3025
 2518TIP3   OH229112   6.005   2.955   7.067 -0.6625  0.0442 -0.2159
 2518TIP3    H129113   6.088   2.992   7.096 -0.0697 -0.2949 -1.4139
 2518TIP3    H229114   5.940   3.019   7.093 -0.0860  0.1579  1.0545
 2519TIP3   OH229115   3.042   0.663   7.529 -0.4891 -0.1863 -0.4839
 2519TIP3    H129116   3.110   0.643   7.464  0.9695 -1.7283  1.3646
 2519TIP3    H229117   2.962   0.624   7.493  0.2676 -0.9527 -1.3927
 2520TIP3   OH229118   2.428   6.640   0.272 -0.2208 -0.0019  0.5015
 2520TIP3    H129119   2.437   6.717   0.327  1.3825  0.8451 -0.8639
 2520TIP3    H229120   2.504   6.586   0.293 -1.0187 -0.9650  1.0136
 2521TIP3   OH229121   4.364   0.153   0.351  0.0103  0.3595  0.0643
 2521TIP3    H129122   4.304   0.081   0.370  1.6270 -0.7343  1.3643
 2521TIP3    H229123   4.359   0.210   0.428 -0.9963  1.4853 -0.8034
 2522TIP3   OH229124   2.778   4.071   0.802  0.4173  0.2128  0.9016
 2522TIP3    H129125   2.688   4.087   0.774  0.1077 -0.7314  1.3102
 2522TIP3    H229126   2.771   4.042   0.893  1.2061  0.8766  1.1926
 2523TIP3   OH229127   3.588   4.467   1.804 -0.1796 -0.1435 -0.2996
 2523TIP3    H129128   3.610   4.426   1.887  1.4335  0.4386 -0.4168
 2523TIP3    H229129   3.530   4.540   1.828  1.2097  0.7448  0.4763
 2524TIP3   OH229130   4.770   1.732   1.476 -0.1630  0.0408  0.2115
 2524TIP3    H129131   4.848   1.782   1.498 -1.3442  0.3622  4.6839
 2524TIP3    H229132   4.797   1.640   1.483  0.1264  0.1410  0.3930
 2525TIP3   OH229133   2.767   5.148   3.027 -0.3259 -0.4508  0.1125
 2525TIP3    H129134   2.823   5.165   3.103  0.1604  0.4427 -0.4223
 2525TIP3    H229135   2.678   5.144   3.063  0.0499 -1.7845  0.9524
 2526TIP3   OH229136   6.708   1.412   2.440  0.3855  0.3769 -0.3511
 2526TIP3    H129137   6.753   1.354   2.502 -1.5079 -0.9175 -0.0854
 2526TIP3    H229138   6.687   1.355   2.366 -2.5910  0.2795  0.4267
 2527TIP3   OH229139   6.654   2.578   0.468  0.1744 -0.4468  0.0015
 2527TIP3    H129140   6.574   2.538   0.434 -0.2510  0.0737  0.3773
 2527TIP3    H229141   6.703   2.504   0.505 -1.5404 -0.4406  2.5591
 2528TIP3   OH229142   2.657   5.144   7.455  0.2538  0.0255  0.1301
 2528TIP3    H129143   2.622   5.231   7.473 -0.4191 -0.4469  1.1689
 2528TIP3    H229144   2.622   5.088   7.525  3.0960 -0.4804  1.2793
 2529TIP3   OH229145   2.872   4.809   7.927 -0.9182  0.4872 -0.0497
 2529TIP3    H129146   2.965   4.789   7.940 -1.1028 -0.5856 -0.3088
 2529TIP3    H229147   2.855   4.884   7.984 -0.4628 -0.8034  1.8365
 2530TIP3   OH229148   4.213   5.449   1.771 -0.2994 -0.0652  0.8339
 2530TIP3    H129149   4.167   5.479   1.692  0.4351  1.5349  0.9552
 2530TIP3    H229150   4.175   5.502   1.842  1.1842  0.7889  1.0378
 2531TIP3   OH229151   3.694   3.071   7.151 -0.5497  0.6222  0.2520
 2531TIP3    H129152   3.671   3.146   7.097 -0.6482  0.4210  0.0089
 2531TIP3    H229153   3.771   3.099   7.201  0.5376  0.2837 -1.1627
 2532TIP3   OH229154   4.584   2.657   0.481  0.4742 -0.1704 -0.2726
 2532TIP3    H129155   4.612   2.716   0.411  1.4392  1.5010  1.4666
 2532TIP3    H229156   4.555   2.578   0.434  1.5444  0.6746 -2.5224
 2533TIP3   OH229157   4.751   3.771   1.989  0.3588  0.1167 -0.1205
 2533TIP3    H129158   4.838   3.734   2.006 -0.1401 -0.9363  0.2151
 2533TIP3    H229159   4.691   3.714   2.038 -0.7070 -0.3716 -1.9096
 2534TIP3   OH229160   5.312   3.904   8.306 -0.4413 -0.0728  0.8510
 2534TIP3    H129161   5.387   3.856   8.340  1.1065 -0.2011 -2.3628
 2534TIP3    H229162   5.277   3.849   8.236 -2.4824  0.7749  1.1279
 2535TIP3   OH229163   6.752   5.627   1.344 -0.3385 -0.6969  0.3768
 2535TIP3    H129164   6.783   5.714   1.320 -0.1331 -0.7802  0.3433
 2535TIP3    H229165   6.657   5.638   1.353 -0.9640 -1.3411 -3.5978
 2536TIP3   OH229166   1.011   1.056   2.950 -0.3001  0.0174  0.1654
 2536TIP3    H129167   1.089   1.023   2.994  0.5410  0.7240 -0.7481
 2536TIP3    H229168   0.939   1.034   3.010  0.8396  1.5403  2.2456
 2537TIP3   OH229169   6.252   2.394   8.761  0.0564 -0.5523 -0.2971
 2537TIP3    H129170   6.202   2.368   8.839 -1.1024 -0.6010 -1.0325
 2537TIP3    H229171   6.343   2.382   8.786 -0.3346 -1.7774  0.6251
 2538TIP3   OH229172   5.867   5.597   1.731  0.4888 -0.1440 -0.3115
 2538TIP3    H129173   5.886   5.530   1.665  1.1778 -0.6875  0.4241
 2538TIP3    H229174   5.820   5.665   1.682  0.6499 -0.7021 -1.2821
 2539TIP3   OH229175   3.450   2.322   2.986  0.2533 -0.2827 -0.5627
 2539TIP3    H129176   3.535   2.321   3.031 -0.9819 -0.8893  1.9952
 2539TIP3    H229177   3.426   2.229   2.980 -1.1987 -0.0545  0.9063
 2540TIP3   OH229178   5.783   6.018   2.530 -0.3079 -0.3439  0.3584
 2540TIP3    H129179   5.748   6.000   2.617  2.2984 -3.0222  1.0066
 2540TIP3    H229180   5.847   6.088   2.544 -0.3044 -0.3667  0.4584
 2541TIP3   OH229181   6.586   1.271   7.845 -0.1507  0.3043  0.1849
 2541TIP3    H129182   6.499   1.235   7.827 -0.3096  0.0834  1.3300
 2541TIP3    H229183   6.647   1.199   7.828 -0.1583  0.5083 -0.7835
 2542TIP3   OH229184   2.848   5.488   7.379  0.3901 -0.1609  0.1884
 2542TIP3    H129185   2.816   5.437   7.305  0.2407 -0.9447  0.7720
 2542TIP3    H229186   2.906   5.554   7.341 -0.8788  0.4439 -0.7564
 2543TIP3   OH229187   6.465   1.282   8.383  0.0534  0.7754 -0.5312
 2543TIP3    H129188   6.395   1.254   8.443  0.3307  0.4435 -0.3637
 2543TIP3    H229189   6.466   1.377   8.392 -0.2918  0.7729 -0.4344
 2544TIP3   OH229190   2.659   2.082   1.095 -0.5111  0.0254  0.2621
 2544TIP3    H129191   2.743   2.063   1.053 -0.1963  1.4738  0.1617
 2544TIP3    H229192   2.603   2.008   1.073 -0.1082  0.3246 -2.0244
 2545TIP3   OH229193   0.051   2.950   2.667  0.0749 -0.0791 -0.1151
 2545TIP3    H129194   0.120   2.883   2.670 -1.4584 -1.7345  0.3976
 2545TIP3    H229195  -0.028   2.903   2.692 -1.2903  1.7141 -0.8569
 2546TIP3   OH229196   2.780   2.378   1.179  0.2190 -0.0393 -0.1811
 2546TIP3    H129197   2.718   2.446   1.153 -0.0143 -0.5719 -1.0349
 2546TIP3    H229198   2.729   2.320   1.236  0.7842  1.2404  1.7652
 2547TIP3   OH229199   3.619   1.107   2.699  0.1042  0.1422 -0.1729
 2547TIP3    H129200   3.700   1.120   2.749 -0.6051  0.5149  0.9110
 2547TIP3    H229201   3.586   1.023   2.729  0.0575  0.0130 -0.5831
 2548TIP3   OH229202   3.722   2.744   0.736  0.3318  0.3443 -0.7609
 2548TIP3    H129203   3.682   2.760   0.822  0.4393  2.6937 -1.0585
 2548TIP3    H229204   3.780   2.670   0.750 -0.4528 -0.0223  0.9231
 2549TIP3   OH229205   6.372   2.249   2.242  0.1216 -0.0984  0.2279
 2549TIP3    H129206   6.410   2.331   2.272 -1.0136  0.4319  0.2784
 2549TIP3    H229207   6.282   2.272   2.218 -0.5335 -1.5200  1.2103
 2550TIP3   OH229208   4.371   1.744   1.748  0.6368 -0.3955  0.6421
 2550TIP3    H129209   4.417   1.741   1.664 -1.6924  0.2555 -0.7878
 2550TIP3    H229210   4.355   1.653   1.771  0.0608 -0.5805 -0.4171
 2551TIP3   OH229211   3.312   4.331   1.113 -0.6408 -0.4655 -0.0082
 2551TIP3    H129212   3.217   4.343   1.117 -0.6211 -0.3642  0.1920
 2551TIP3    H229213   3.327   4.284   1.032 -0.9150 -0.9899  0.2402
 2552TIP3   OH229214   1.321   6.119   7.297 -0.4057  0.1385 -0.0804
 2552TIP3    H129215   1.389   6.155   7.239  0.2797  0.2303  0.7630
 2552TIP3    H229216   1.256   6.083   7.237  0.1316  0.5142 -0.9169
 2553TIP3   OH229217   0.570   0.964   8.774  0.3061 -0.1505 -0.5013
 2553TIP3    H129218   0.581   1.058   8.784 -2.7383  0.2022  0.4579
 2553TIP3    H229219   0.542   0.933   8.860  2.0388 -2.1481 -0.5486
 2554TIP3   OH229220   5.887   2.871   0.998 -0.4259 -0.5209  0.5361
 2554TIP3    H129221   5.816   2.813   0.972  0.4069 -1.2583 -0.1751
 2554TIP3    H229222   5.885   2.942   0.934  0.9096 -1.7496 -0.9453
 2555TIP3   OH229223   3.533   0.988   7.201  0.6918  0.3377 -0.3075
 2555TIP3    H129224   3.516   1.079   7.176  1.3187  0.4108 -0.4885
 2555TIP3    H229225   3.596   0.994   7.273  0.4227  0.0598 -0.0476
 2556TIP3   OH229226   1.779   2.952   7.643  0.2563  0.3606  0.2032
 2556TIP3    H129227   1.818   2.866   7.657  0.6447  0.2434 -1.3608
 2556TIP3    H229228   1.772   2.960   7.547 -1.1733  1.4430  0.3569
 2557TIP3   OH229229   2.948   3.721   1.691  0.2686  0.0380 -0.0866
 2557TIP3    H129230   2.984   3.808   1.712  0.0940  0.4424 -1.3640
 2557TIP3    H229231   2.853   3.733   1.697  0.2606 -0.2909  0.5305
 2558TIP3   OH229232   1.837   6.615   0.775  0.6889 -0.4271 -0.1492
 2558TIP3    H129233   1.850   6.695   0.825  0.5109 -0.3424 -0.2362
 2558TIP3    H229234   1.769   6.568   0.823 -0.0088 -0.0051 -0.7086
 2559TIP3   OH229235   4.572   6.742   1.634 -0.2241 -0.2102  0.2492
 2559TIP3    H129236   4.566   6.647   1.649  1.9010 -0.3157  0.6942
 2559TIP3    H229237   4.663   6.763   1.652 -0.4986  1.8232 -0.5543
 2560TIP3   OH229238   6.038   3.210   8.735 -0.7125  0.1765 -0.0174
 2560TIP3    H129239   6.106   3.144   8.746  0.9613  1.9648  0.9258
 2560TIP3    H229240   6.033   3.223   8.640  0.0250 -0.2213 -0.1178
 2561TIP3   OH229241   1.773   5.680   6.860 -0.2358  0.3689 -0.3888
 2561TIP3    H129242   1.768   5.745   6.930  1.4969  0.0769  0.0469
 2561TIP3    H229243   1.749   5.597   6.901  0.1561  0.3028 -0.2899
 2562TIP3   OH229244   4.084   4.730   0.300  0.2971  0.9800  0.4782
 2562TIP3    H129245   4.145   4.735   0.226  1.9665 -2.2806  1.4184
 2562TIP3    H229246   4.008   4.683   0.265  1.4972 -1.4554  0.9046
 2563TIP3   OH229247   2.168   5.580   2.796  0.7436  0.2581 -0.2119
 2563TIP3    H129248   2.149   5.646   2.863  2.2150 -0.7560  1.2890
 2563TIP3    H229249   2.228   5.624   2.736  2.4480  0.0831  1.2828
 2564TIP3   OH229250   1.322   2.601   8.009 -0.1373 -0.4971  0.3444
 2564TIP3    H129251   1.406   2.586   7.966 -0.2857 -0.2440 -0.0400
 2564TIP3    H229252   1.300   2.692   7.988  0.3951  0.0626  2.0090
 2565TIP3   OH229253   6.718   0.741   7.982 -0.0913  0.5434 -0.0674
 2565TIP3    H129254   6.673   0.673   8.032  0.7610  0.2892  0.3640
 2565TIP3    H229255   6.762   0.795   8.048  0.3488  0.7084 -0.4897
 2566TIP3   OH229256   5.962   0.467   7.205 -0.1030 -0.1510  0.1755
 2566TIP3    H129257   5.901   0.463   7.131 -0.0095 -0.5440  0.1133
 2566TIP3    H229258   6.019   0.542   7.186 -0.5957  0.2448  0.2593
 2567TIP3   OH229259   1.032   1.986   2.544  0.0933 -0.7708 -0.1469
 2567TIP3    H129260   1.116   2.009   2.506  0.1519 -0.7558 -0.0086
 2567TIP3    H229261   1.010   2.059   2.601  0.2859 -1.0576  0.3014
 2568TIP3   OH229262   0.677   1.873   1.482 -0.2216  0.2651 -0.7222
 2568TIP3    H129263   0.746   1.842   1.424 -0.5123  0.5857 -1.2392
 2568TIP3    H229264   0.723   1.902   1.561  0.2006  0.1722 -0.9321
 2569TIP3   OH229265   3.818   1.293   2.520 -0.0979 -0.8797 -0.4714
 2569TIP3    H129266   3.910   1.316   2.531 -0.0295 -0.1784 -2.1447
 2569TIP3    H229267   3.800   1.231   2.590  1.6609 -1.0921 -0.1620
 2570TIP3   OH229268   0.535   5.890   7.728 -0.1466 -0.1667  0.3119
 2570TIP3    H129269   0.508   5.880   7.819  1.2804  0.2445  0.8046
 2570TIP3    H229270   0.568   5.803   7.704 -0.7403 -0.3394  0.0939
 2571TIP3   OH229271   3.069   0.764   8.068 -0.1655  0.0669  0.4423
 2571TIP3    H129272   2.988   0.800   8.105 -0.4211 -0.6337  0.5678
 2571TIP3    H229273   3.051   0.757   7.974  0.1733  1.0182  0.2956
 2572TIP3   OH229274   6.292   4.276   7.492  0.0318  0.4043 -0.6218
 2572TIP3    H129275   6.263   4.264   7.401  2.6291  1.2183 -1.6654
 2572TIP3    H229276   6.345   4.356   7.490  1.8703 -0.6619  1.1349
 2573TIP3   OH229277   1.581   4.089   2.384  0.7503 -0.3590  0.2726
 2573TIP3    H129278   1.657   4.128   2.341 -0.2193  2.3604  0.7954
 2573TIP3    H229279   1.553   4.155   2.448 -2.3550 -0.9620 -0.2769
 2574TIP3   OH229280   3.912   2.202   0.059  0.2265  0.2563 -0.1622
 2574TIP3    H129281   3.981   2.145   0.092  0.5949 -0.3689 -1.8887
 2574TIP3    H229282   3.935   2.216  -0.033 -1.6670  0.4524 -0.6455
 2575TIP3   OH229283   2.698   1.837   2.435 -0.0374  0.3925  0.0177
 2575TIP3    H129284   2.719   1.930   2.421 -1.6860  0.6714 -0.9969
 2575TIP3    H229285   2.617   1.839   2.486  0.1948 -0.4977  0.4220
 2576TIP3   OH229286   2.700   1.123   7.646 -0.2548  0.4371  0.3596
 2576TIP3    H129287   2.604   1.118   7.644 -0.3212  1.5221 -0.3095
 2576TIP3    H229288   2.725   1.133   7.554  0.4992  0.1981  0.5357
 2577TIP3   OH229289   3.284   0.065   8.608 -0.1936  0.0924 -0.4911
 2577TIP3    H129290   3.280   0.157   8.582  0.0039  0.2754  0.1039
 2577TIP3    H229291   3.362   0.031   8.565 -0.5222  0.0773 -1.0866
 2578TIP3   OH229292   4.400   0.289   7.685  0.4767  0.2818 -0.2344
 2578TIP3    H129293   4.445   0.373   7.676 -0.1312  0.4551 -1.9793
 2578TIP3    H229294   4.337   0.303   7.756 -0.2301  1.5947 -1.0770
 2579TIP3   OH229295   2.923   3.144   1.146 -0.5460  0.3339 -0.5605
 2579TIP3    H129296   2.864   3.137   1.071  0.1391 -0.3776 -1.0529
 2579TIP3    H229297   2.932   3.238   1.161 -2.1672  0.4649 -0.1578
 2580TIP3   OH229298   2.775   4.089   2.146 -0.1320  0.3021  0.0962
 2580TIP3    H129299   2.861   4.092   2.188 -0.6113 -1.7586  1.3587
 2580TIP3    H229300   2.794   4.093   2.052  1.5560 -2.0032  0.2403
 2581TIP3   OH229301   1.438   5.001   0.016  1.1458 -0.4274  0.2797
 2581TIP3    H129302   1.402   5.022   0.103 -1.7402 -0.9879 -0.6714
 2581TIP3    H229303   1.457   4.908   0.019  0.2456 -0.6251  0.0780
 2582TIP3   OH229304   3.788   0.251   0.392 -0.0921  0.5397 -0.6133
 2582TIP3    H129305   3.874   0.216   0.414  0.9424  2.6921 -1.0494
 2582TIP3    H229306   3.766   0.210   0.309  1.2531  1.1547 -1.3019
 2583TIP3   OH229307   3.922   4.911   8.158 -0.3056 -0.0132  0.7011
 2583TIP3    H129308   3.903   5.005   8.162 -0.4884 -0.0945  2.2995
 2583TIP3    H229309   4.009   4.902   8.197  0.0139 -0.4460 -0.0877
 2584TIP3   OH229310   1.232   0.389   0.748  0.2544 -0.0579 -0.0844
 2584TIP3    H129311   1.232   0.370   0.654  0.1506  0.7867 -0.2586
 2584TIP3    H229312   1.304   0.451   0.760 -0.1535  0.3433  0.2894
 2585TIP3   OH229313   3.985   1.108   0.313  0.1299  0.1272  0.4100
 2585TIP3    H129314   3.916   1.162   0.276  0.2472  0.0489  0.0653
 2585TIP3    H229315   3.968   1.020   0.277  2.1994  0.6931 -2.2905
 2586TIP3   OH229316   2.636   3.091   8.504 -0.3040 -0.2595  0.0065
 2586TIP3    H129317   2.635   3.186   8.491  0.3194  0.2912  3.1649
 2586TIP3    H229318   2.728   3.068   8.512 -0.4787 -0.9741  0.0319
 2587TIP3   OH229319   3.744   5.524   2.261  0.5192 -0.7591  0.5297
 2587TIP3    H129320   3.815   5.490   2.207  0.8070 -0.1019  0.4902
 2587TIP3    H229321   3.711   5.600   2.214 -0.8649 -1.6111  0.0645
 2588TIP3   OH229322   3.223   2.108   7.090  0.1832  0.2820 -0.2012
 2588TIP3    H129323   3.239   2.112   7.184  3.3421 -0.2399 -0.5996
 2588TIP3    H229324   3.148   2.049   7.081  0.3117 -0.3015  1.9643
 2589TIP3   OH229325   2.886   2.476   2.241 -0.7297 -0.9533 -0.5586
 2589TIP3    H129326   2.973   2.517   2.238 -1.1856  0.5950  2.7920
 2589TIP3    H229327   2.902   2.384   2.216  1.5062 -0.3101 -1.7729
 2590TIP3   OH229328   1.857   6.563   1.320 -0.3732  0.3952 -0.2937
 2590TIP3    H129329   1.875   6.519   1.404 -0.0368 -0.8208 -0.9732
 2590TIP3    H229330   1.921   6.525   1.260  0.0726  2.0185 -0.8788
 2591TIP3   OH229331   0.241   4.613   8.139  0.1027  0.7225  0.2137
 2591TIP3    H129332   0.202   4.646   8.058  0.8525  1.8201  0.2873
 2591TIP3    H229333   0.332   4.642   8.136  0.5073 -0.4113  0.8138
 2592TIP3   OH229334   4.484   6.642   6.864  0.4115  0.2970 -0.4868
 2592TIP3    H129335   4.423   6.714   6.881  0.2331  0.0907 -0.2461
 2592TIP3    H229336   4.442   6.565   6.902  0.1915 -0.1059 -1.5172
 2593TIP3   OH229337   4.803   3.752   7.782 -0.1213  0.3277  0.6457
 2593TIP3    H129338   4.839   3.806   7.852  2.5140  0.5512 -0.7280
 2593TIP3    H229339   4.845   3.785   7.702 -1.2576 -1.3639 -0.7451
 2594TIP3   OH229340   3.956   4.959   8.673  0.3163  0.0141  0.1680
 2594TIP3    H129341   4.019   5.022   8.638  0.3340 -0.5209 -0.7997
 2594TIP3    H229342   3.881   5.012   8.699  1.3718  0.7470  1.9456
 2595TIP3   OH229343   0.870   3.007   0.364  0.0055 -0.1611 -0.0834
 2595TIP3    H129344   0.870   3.037   0.273  0.1968  1.6831  0.4896
 2595TIP3    H229345   0.798   3.055   0.404 -0.2453 -1.1616  0.6897
 2596TIP3   OH229346   2.400   4.447   1.533 -0.1077 -0.5787 -0.2152
 2596TIP3    H129347   2.488   4.477   1.554  0.0415 -0.9149 -0.3469
 2596TIP3    H229348   2.346   4.478   1.605  0.0978 -0.2698 -0.1935
 2597TIP3   OH229349   3.423   2.099   8.475 -0.1371 -0.3375  0.5313
 2597TIP3    H129350   3.369   2.118   8.399  0.1050 -1.2451  0.1170
 2597TIP3    H229351   3.361   2.068   8.541 -0.2899 -0.0029  0.5479
 2598TIP3   OH229352   2.813   0.317   0.001  0.3005 -0.4196 -0.0777
 2598TIP3    H129353   2.901   0.281   0.014  0.0439 -0.7057  0.9594
 2598TIP3    H229354   2.802   0.318  -0.094  0.7093 -2.1537 -0.1768
 2599TIP3   OH229355   1.811   0.013   1.194  0.3676  0.3925  0.0167
 2599TIP3    H129356   1.817  -0.081   1.211  1.0425  0.6554  1.3718
 2599TIP3    H229357   1.720   0.036   1.214  0.4047  0.1603  0.4713
 2600TIP3   OH229358   6.629   4.097   6.993  0.0683 -0.0438  0.8289
 2600TIP3    H129359   6.547   4.138   6.965  0.3678 -0.1548 -0.2441
 2600TIP3    H229360   6.602   4.022   7.045 -0.5244 -0.3580  0.0841
 2601TIP3   OH229361   5.487   2.828   7.321  0.0198  0.0758  0.2474
 2601TIP3    H129362   5.538   2.826   7.240 -1.4547  2.1198 -0.8235
 2601TIP3    H229363   5.396   2.815   7.292 -0.3711 -1.1045  1.8273
 2602TIP3   OH229364   0.702   3.936   7.523  1.1552 -0.0422  0.5901
 2602TIP3    H129365   0.663   4.022   7.540 -0.2631 -1.0764  3.2440
 2602TIP3    H229366   0.633   3.886   7.478  1.2018 -0.3811  0.8852
 2603TIP3   OH229367   4.264   0.414   7.430  0.5211  0.0329 -0.1346
 2603TIP3    H129368   4.333   0.452   7.485 -1.3374  1.0080  1.6667
 2603TIP3    H229369   4.246   0.480   7.364  0.8757  0.0448 -0.2200
 2604TIP3   OH229370   3.707   5.914   8.153 -0.1943 -0.4461 -0.0352
 2604TIP3    H129371   3.713   5.953   8.066 -1.8822  0.3276  0.1492
 2604TIP3    H229372   3.792   5.874   8.167  0.9847  1.5791 -1.0094
 2605TIP3   OH229373   6.270   6.082   1.591  0.1823 -0.4541 -0.0826
 2605TIP3    H129374   6.358   6.078   1.627 -0.2485  1.2755  1.2850
 2605TIP3    H229375   6.214   6.045   1.659 -0.1949 -1.5043 -0.9262
 2606TIP3   OH229376   4.243   0.148   1.588  0.5036  0.2763 -0.0519
 2606TIP3    H129377   4.187   0.220   1.559  0.9169  1.0059  0.9314
 2606TIP3    H229378   4.322   0.190   1.620  1.9081 -0.7759 -1.9570
 2607TIP3   OH229379   3.793   3.186   7.922 -0.4505 -0.1624 -0.3830
 2607TIP3    H129380   3.860   3.225   7.866 -1.6875 -2.1645 -3.5390
 2607TIP3    H229381   3.740   3.261   7.952  0.1636  1.0305 -2.1085
 2608TIP3   OH229382   6.014   5.394   1.401  0.1364 -0.1285 -0.5832
 2608TIP3    H129383   5.972   5.355   1.478  0.5872 -0.0278 -0.2867
 2608TIP3    H229384   6.036   5.319   1.345  0.0649 -0.2199 -0.4894
 2609TIP3   OH229385   3.429   0.756   8.622 -0.1022 -0.0780  0.0114
 2609TIP3    H129386   3.364   0.715   8.564 -2.5854 -0.1394  2.6102
 2609TIP3    H229387   3.391   0.840   8.645  2.2074  1.2275 -0.6486
 2610TIP3   OH229388   0.810   5.333   0.046  0.0954  0.6245 -0.0655
 2610TIP3    H129389   0.857   5.285   0.115  0.8030 -0.0955 -1.0301
 2610TIP3    H229390   0.718   5.311   0.061  0.2848  0.0715  0.3496
 2611TIP3   OH229391   5.657   3.935   0.928 -0.3294  0.2419 -0.0809
 2611TIP3    H129392   5.724   4.004   0.931 -0.2484  0.2176 -1.0922
 2611TIP3    H229393   5.574   3.983   0.926 -0.4209  0.2696  2.0219
 2612TIP3   OH229394   3.038   0.977   0.035  0.5628 -0.2286  0.4334
 2612TIP3    H129395   2.956   1.003  -0.007  0.7875 -0.9667 -0.5008
 2612TIP3    H229396   3.038   0.881   0.029  2.9362 -0.2096 -2.5082
 2613TIP3   OH229397   0.434   3.255   2.258 -0.3566 -0.2762 -0.0488
 2613TIP3    H129398   0.513   3.278   2.207 -0.3246 -0.1918  0.0399
 2613TIP3    H229399   0.449   3.164   2.285  1.1453  0.6481  2.6132
 2614TIP3   OH229400   0.806   3.089   1.536  0.1009  0.2687  0.4212
 2614TIP3    H129401   0.783   3.120   1.449 -0.2208 -2.4915 -0.5716
 2614TIP3    H229402   0.901   3.077   1.534  0.2793  1.5203  0.9370
 2615TIP3   OH229403   6.245   3.667   1.263 -0.1909  0.0365 -0.1751
 2615TIP3    H129404   6.198   3.584   1.266 -0.2847  0.1002  2.3326
 2615TIP3    H229405   6.175   3.733   1.263 -0.1047  0.1415 -1.1127
 2616TIP3   OH229406   3.075   5.267   2.677 -0.8630 -0.0947  0.0835
 2616TIP3    H129407   3.031   5.310   2.751 -1.0172  0.6851 -0.4381
 2616TIP3    H229408   3.167   5.267   2.701 -0.5734  2.3077 -0.6808
 2617TIP3   OH229409   5.143   3.373   0.786  0.2088 -0.2465  0.0792
 2617TIP3    H129410   5.127   3.452   0.839  2.2342 -0.6049  1.3096
 2617TIP3    H229411   5.184   3.311   0.847 -0.9550 -2.1468 -0.9577
 2618TIP3   OH229412   3.432   2.578   0.759 -0.3599 -0.7059  0.5560
 2618TIP3    H129413   3.457   2.506   0.817 -0.1268 -1.1966 -0.1521
 2618TIP3    H229414   3.380   2.636   0.815 -1.9301 -2.2224  0.7435
 2619TIP3   OH229415   4.716   5.497   2.127  0.6877 -0.2914  0.1660
 2619TIP3    H129416   4.797   5.464   2.166  0.3761 -1.2983  0.0020
 2619TIP3    H229417   4.651   5.430   2.146  0.6866 -1.2724 -2.7326
 2620TIP3   OH229418   4.438   6.182   6.887  0.2771 -0.0583  0.1836
 2620TIP3    H129419   4.403   6.269   6.906  2.6704  0.8558  0.7699
 2620TIP3    H229420   4.426   6.172   6.792 -0.1792  0.8274  0.1303
 2621TIP3   OH229421   6.461   0.134   1.786 -0.1679  0.8066 -0.2829
 2621TIP3    H129422   6.378   0.178   1.766 -0.1166 -0.2135 -3.2533
 2621TIP3    H229423   6.525   0.177   1.730  0.9467  0.3180  0.5825
 2622TIP3   OH229424   0.833   5.218   8.562 -0.1519 -0.2488  0.1051
 2622TIP3    H129425   0.832   5.138   8.509  1.7428 -0.1489 -0.1559
 2622TIP3    H229426   0.749   5.217   8.608 -0.5881 -1.8753 -0.6400
 2623TIP3   OH229427   0.302   0.933   2.002 -0.7910  0.1830  0.5663
 2623TIP3    H129428   0.361   0.928   2.078 -1.4525  0.3890  1.1016
 2623TIP3    H229429   0.360   0.954   1.929 -0.0645 -0.4917  0.9154
 2624TIP3   OH229430   1.327   5.775   1.902 -0.3544 -0.4173  0.1443
 2624TIP3    H129431   1.414   5.783   1.940 -0.3777  2.8201 -0.2280
 2624TIP3    H229432   1.268   5.803   1.971 -0.7431  1.1307 -0.7697
 2625TIP3   OH229433   0.242   0.317   2.523 -1.0564 -0.4964 -0.5425
 2625TIP3    H129434   0.158   0.356   2.499 -1.6930 -1.1210  0.5928
 2625TIP3    H229435   0.246   0.324   2.619  1.0494  1.2323 -0.6711
 2626TIP3   OH229436   5.116   6.516   7.986 -0.2886 -0.6900 -0.6917
 2626TIP3    H129437   5.110   6.608   8.009  1.8483 -0.8257  0.7337
 2626TIP3    H229438   5.079   6.510   7.898  0.9911  1.8112 -1.4989
 2627TIP3   OH229439   3.273   3.830   0.305  0.3236 -0.4944  0.3065
 2627TIP3    H129440   3.288   3.752   0.358  1.0464  0.3149  1.3368
 2627TIP3    H229441   3.184   3.858   0.328  0.3192 -0.6294  0.4589
 2628TIP3   OH229442   5.413   2.514   7.303 -0.1849 -0.3121 -0.4560
 2628TIP3    H129443   5.415   2.452   7.230  0.1958 -0.1873 -0.5536
 2628TIP3    H229444   5.342   2.575   7.280  0.9928  0.7068 -1.5487
 2629TIP3   OH229445   2.443   4.073   0.973  0.1456  0.1756  0.2149
 2629TIP3    H129446   2.424   3.990   0.930  2.1202  0.3320 -1.1307
 2629TIP3    H229447   2.517   4.054   1.031  0.1190  0.8238  0.4682
 2630TIP3   OH229448   5.142   2.118   1.445  0.4644  0.2759 -0.1602
 2630TIP3    H129449   5.228   2.092   1.475  0.4814  0.9646  0.4002
 2630TIP3    H229450   5.081   2.068   1.500  0.4949  1.4964  1.0385
 2631TIP3   OH229451   5.916   3.554   7.821 -0.2110 -0.2814 -0.0698
 2631TIP3    H129452   5.930   3.531   7.913  0.3193  0.1820 -0.0312
 2631TIP3    H229453   5.822   3.572   7.815  0.1057  2.1157  0.9616
 2632TIP3   OH229454   0.987   6.491   7.649  0.0517 -0.2658  0.2795
 2632TIP3    H129455   0.923   6.561   7.645  1.1419  0.7461 -0.0620
 2632TIP3    H229456   1.051   6.512   7.582 -0.6681 -2.7475 -1.3315
 2633TIP3   OH229457   4.082   0.571   0.419 -0.5203  0.1234 -0.4059
 2633TIP3    H129458   4.035   0.553   0.501  1.0698 -1.0926  0.2872
 2633TIP3    H229459   4.016   0.610   0.362 -1.6801  1.0308  1.4505
 2634TIP3   OH229460   0.588   5.516   0.462 -0.0704 -0.5198 -0.1464
 2634TIP3    H129461   0.516   5.518   0.525  0.5281 -1.8950  0.6404
 2634TIP3    H229462   0.649   5.583   0.494 -0.9039  0.5514 -0.7371
 2635TIP3   OH229463   6.443   3.778   0.846  0.2664  0.7945  0.5114
 2635TIP3    H129464   6.433   3.756   0.754  4.2006  0.1434  0.0798
 2635TIP3    H229465   6.389   3.713   0.892 -0.6510  0.2346 -1.2607
 2636TIP3   OH229466   3.813   5.016   7.109  0.1669 -0.8202 -0.0963
 2636TIP3    H129467   3.778   4.954   7.046  0.7578  1.3999 -2.7802
 2636TIP3    H229468   3.739   5.074   7.129  1.2106  1.8630 -3.2325
 2637TIP3   OH229469   2.472   2.649   2.345  0.4213 -0.3875  0.3723
 2637TIP3    H129470   2.468   2.620   2.436  0.0720  1.6746  1.0656
 2637TIP3    H229471   2.386   2.626   2.310 -0.9968  2.2293  1.7691
 2638TIP3   OH229472   2.355   1.005   8.810 -0.1289  0.0366  0.5056
 2638TIP3    H129473   2.388   1.078   8.757 -1.6511  0.2213 -0.2245
 2638TIP3    H229474   2.378   0.927   8.759 -1.3196  0.1978 -0.3180
 2639TIP3   OH229475   1.390   1.042   1.549  0.2074  0.5952 -0.0397
 2639TIP3    H129476   1.321   1.097   1.585 -1.3283 -2.0781  1.4182
 2639TIP3    H229477   1.348   0.993   1.478  1.1536  0.3563 -0.4614
 2640TIP3   OH229478   3.042   2.995   0.862 -0.0351  0.3863 -0.2505
 2640TIP3    H129479   3.027   2.901   0.875 -0.0366  0.4080 -0.0836
 2640TIP3    H229480   3.038   3.032   0.951  0.3660  0.4855 -0.2712
 2641TIP3   OH229481   4.028   0.018   2.710  0.1381  0.0040  0.5791
 2641TIP3    H129482   4.024   0.081   2.782 -1.0341  0.0422  0.5135
 2641TIP3    H229483   3.988  -0.061   2.745  0.9816 -0.4860  0.4468
 2642TIP3   OH229484   0.176   1.311   8.091 -0.2083 -0.3096 -0.2570
 2642TIP3    H129485   0.164   1.406   8.100 -0.6854 -0.3467 -0.4615
 2642TIP3    H229486   0.095   1.273   8.122  0.1718 -0.6830  0.2901
 2643TIP3   OH229487   0.914   2.795   7.186  0.0017  0.2044 -0.4693
 2643TIP3    H129488   0.891   2.720   7.130 -0.1616  1.0152 -1.5208
 2643TIP3    H229489   0.960   2.756   7.260 -0.5203 -0.9839 -0.7458
 2644TIP3   OH229490   0.122   0.440   2.891  0.4202 -0.1866 -0.1301
 2644TIP3    H129491   0.207   0.479   2.873  1.1018 -1.8208 -0.5797
 2644TIP3    H229492   0.132   0.347   2.871 -1.5363 -0.3906 -0.4388
 2645TIP3   OH229493   6.353   4.590   2.317 -0.3320 -0.2158 -0.5933
 2645TIP3    H129494   6.368   4.502   2.281 -1.1277 -0.6993  0.2291
 2645TIP3    H229495   6.407   4.647   2.262  0.3281 -1.2328 -1.0369
 2646TIP3   OH229496   5.649   0.263   2.181 -0.5709 -0.1389 -0.4452
 2646TIP3    H129497   5.554   0.256   2.189 -0.7094 -0.7251 -2.2208
 2646TIP3    H229498   5.670   0.350   2.217 -2.2426  1.5465 -3.1836
 2647TIP3   OH229499   3.404   1.887   8.016  0.4675 -0.1978  0.3531
 2647TIP3    H129500   3.342   1.958   8.036 -0.2661 -0.9138  0.6725
 2647TIP3    H229501   3.357   1.830   7.956  0.6006 -1.0397  1.0281
 2648TIP3   OH229502   2.179   2.541   0.553  0.5386  0.2985  0.5555
 2648TIP3    H129503   2.113   2.571   0.490 -1.1066  0.7166  2.3942
 2648TIP3    H229504   2.206   2.620   0.600  0.6670 -0.2066  1.3525
 2649TIP3   OH229505   2.269   4.215   8.454  1.0776  0.2445  0.0673
 2649TIP3    H129506   2.222   4.135   8.434 -1.1256  1.1776  1.2607
 2649TIP3    H229507   2.250   4.273   8.380  0.2144  0.6643  0.6081
 2650TIP3   OH229508   4.902   4.440   8.458 -0.1338  0.1096  0.2917
 2650TIP3    H129509   4.856   4.520   8.483 -1.0028 -0.0827 -0.6382
 2650TIP3    H229510   4.978   4.472   8.408  0.2200  0.3835  0.9817
 2651TIP3   OH229511   5.538   5.998   8.468  0.3990 -0.0218  0.0126
 2651TIP3    H129512   5.553   6.057   8.542  1.8509  0.4815 -0.6470
 2651TIP3    H229513   5.529   5.912   8.507 -0.2791  0.4287  0.8769
 2652TIP3   OH229514   4.158   4.685   8.509  0.6886 -0.4961  0.0807
 2652TIP3    H129515   4.163   4.665   8.416 -0.1952 -0.2720 -0.0163
 2652TIP3    H229516   4.207   4.614   8.551 -0.0947 -1.3658 -0.4575
 2653TIP3   OH229517   2.205   4.255   7.656 -0.1855  0.3396  0.3008
 2653TIP3    H129518   2.248   4.176   7.689 -2.1804 -0.7968  0.3832
 2653TIP3    H229519   2.214   4.249   7.561 -1.1503 -0.5589  0.2368
 2654TIP3   OH229520   5.458   4.150   0.163  0.0440 -0.6602  0.1581
 2654TIP3    H129521   5.379   4.204   0.151 -0.6633 -1.8172 -0.5882
 2654TIP3    H229522   5.497   4.184   0.244 -1.0256  0.1778  0.3582
 2655TIP3   OH229523   2.598   2.984   1.583 -0.1141  0.0343  0.0508
 2655TIP3    H129524   2.592   3.079   1.577 -0.4165 -0.0713 -3.1213
 2655TIP3    H229525   2.691   2.965   1.573  0.3198 -0.0124  3.2087
 2656TIP3   OH229526   6.018   3.174   0.246 -0.2269  0.1042  0.3187
 2656TIP3    H129527   6.102   3.188   0.202  0.9164 -1.2893  1.9093
 2656TIP3    H229528   5.962   3.135   0.179  0.4878  0.7662 -0.6868
 2657TIP3   OH229529   5.599   3.904   8.431 -0.1048 -0.2875 -0.0444
 2657TIP3    H129530   5.663   3.925   8.363 -0.1141  0.6034  0.2133
 2657TIP3    H229531   5.644   3.841   8.487  0.1410 -0.5236 -0.4925
 2658TIP3   OH229532   3.106   5.706   8.596  0.1817  0.2214 -0.4348
 2658TIP3    H129533   3.092   5.737   8.685 -0.8343  1.3209 -0.9580
 2658TIP3    H229534   3.077   5.778   8.540 -0.5855 -0.9948 -1.6711
 2659TIP3   OH229535   6.234   3.595   1.913  0.5771  0.6756 -0.0556
 2659TIP3    H129536   6.293   3.560   1.846 -0.8802 -0.0925 -0.9779
 2659TIP3    H229537   6.146   3.584   1.877 -0.2104  0.9229  1.6718
 2660TIP3   OH229538   4.152   3.639   2.515  0.6826  0.2802  0.7406
 2660TIP3    H129539   4.169   3.686   2.597  0.7848  2.2626 -0.3649
 2660TIP3    H229540   4.146   3.707   2.449  0.9111 -1.3031 -0.9867
 2661TIP3   OH229541   4.489   0.748   2.085 -0.1336 -0.1068  0.2447
 2661TIP3    H129542   4.450   0.693   2.153 -0.6738  0.8886  0.7682
 2661TIP3    H229543   4.583   0.737   2.097 -0.2055  0.5165  1.5812
 2662TIP3   OH229544   6.142   2.118   8.241  0.2094  0.5108  0.3928
 2662TIP3    H129545   6.204   2.074   8.299 -0.9118  0.2528  1.4222
 2662TIP3    H229546   6.180   2.106   8.153  0.6087 -1.3959  0.7760
 2663TIP3   OH229547   2.503   5.332   2.442 -0.6333  0.1842 -0.4226
 2663TIP3    H129548   2.425   5.388   2.445 -1.0665 -0.3790 -1.0972
 2663TIP3    H229549   2.469   5.243   2.446 -0.0041 -0.0611 -0.4167
 2664TIP3   OH229550   0.836   5.545   1.270 -0.3503 -0.4397  0.5017
 2664TIP3    H129551   0.878   5.618   1.315  1.2826 -0.1159 -1.4317
 2664TIP3    H229552   0.807   5.487   1.341 -0.3026  1.2982  2.0222
 2665TIP3   OH229553   1.000   3.578   0.466  0.2305  0.0070 -0.2606
 2665TIP3    H129554   0.955   3.544   0.544  0.6445 -1.4678 -0.6343
 2665TIP3    H229555   0.959   3.663   0.450 -0.4969 -0.0792  1.0265
 2666TIP3   OH229556   5.890   1.213   7.679  0.0802 -0.1189 -0.1827
 2666TIP3    H129557   5.859   1.123   7.690 -0.1921  0.0320  0.3224
 2666TIP3    H229558   5.960   1.223   7.743 -2.5888  1.2631  2.8080
 2667TIP3   OH229559   1.743   2.204   7.482  0.0332 -0.5531 -0.4782
 2667TIP3    H129560   1.723   2.207   7.576  1.4991 -0.0033 -0.1626
 2667TIP3    H229561   1.726   2.293   7.451  0.9533 -0.3393 -0.4061
 2668TIP3   OH229562   5.220   1.648   0.899 -0.2081  0.2559  0.1112
 2668TIP3    H129563   5.237   1.723   0.956 -0.5993  1.7400 -1.6514
 2668TIP3    H229564   5.300   1.595   0.907  0.8141  1.7141  0.1213
 2669TIP3   OH229565   1.809   4.208   8.764 -0.5006  0.2947 -0.5539
 2669TIP3    H129566   1.845   4.121   8.746  2.0267  1.5297 -1.9051
 2669TIP3    H229567   1.810   4.252   8.679 -3.9982  0.9695 -0.3951
 2670TIP3   OH229568   4.929   4.912   1.109  0.0400 -0.6264  0.2214
 2670TIP3    H129569   4.860   4.932   1.045  0.7129  0.6337 -0.1388
 2670TIP3    H229570   4.992   4.984   1.099  1.4804 -1.8200  0.4505
 2671TIP3   OH229571   5.632   0.347   8.657  0.0945 -0.0266  0.1725
 2671TIP3    H129572   5.558   0.292   8.684  0.2366 -0.5730 -0.5429
 2671TIP3    H229573   5.704   0.285   8.644  1.1461  0.6185  2.3196
 2672TIP3   OH229574   6.130   5.185   0.168 -0.0320 -0.6026 -0.3174
 2672TIP3    H129575   6.062   5.146   0.223 -2.2877  1.6299 -1.2918
 2672TIP3    H229576   6.115   5.146   0.082  1.1787 -1.4588 -0.1586
 2673TIP3   OH229577   1.410   1.922   8.662  0.9672 -0.6003  0.5013
 2673TIP3    H129578   1.468   1.988   8.623  1.1579  0.2258  2.1273
 2673TIP3    H229579   1.353   1.895   8.589  0.4201  1.8498 -0.0865
 2674TIP3   OH229580   3.302   4.046   0.042  1.0351 -0.6258  0.3160
 2674TIP3    H129581   3.209   4.068   0.048  1.0465 -0.8023  1.1702
 2674TIP3    H229582   3.303   3.964  -0.007  0.8962  0.4188 -1.5621
 2675TIP3   OH229583   0.391   3.834   2.369  0.3515 -0.4317  0.1193
 2675TIP3    H129584   0.447   3.869   2.299  1.5998 -0.7841  0.9121
 2675TIP3    H229585   0.386   3.740   2.350  1.3632 -0.6638  0.9331
 2676TIP3   OH229586   6.391   4.169   8.597 -0.0858  0.2614 -0.3812
 2676TIP3    H129587   6.382   4.147   8.689  0.8066  0.3318 -0.2647
 2676TIP3    H229588   6.306   4.207   8.573 -0.2644  0.4209  0.4578
 2677TIP3   OH229589   5.011   0.994   2.166  0.8962 -0.0622  0.9947
 2677TIP3    H129590   5.083   1.033   2.117  0.6160 -0.1547  0.4992
 2677TIP3    H229591   5.053   0.945   2.236  1.3277 -0.2872  0.5807
 2678TIP3   OH229592   4.696   2.578   0.738  0.0970  0.4435  0.1253
 2678TIP3    H129593   4.643   2.604   0.662  0.0671 -0.3575 -0.1402
 2678TIP3    H229594   4.635   2.579   0.812 -1.3261 -3.7477 -0.6775
 2679TIP3   OH229595   3.450   0.116   1.014 -0.6475  0.4878  0.2138
 2679TIP3    H129596   3.424   0.080   0.929  0.5952 -1.9317  0.7581
 2679TIP3    H229597   3.518   0.181   0.993 -0.5234  0.0817 -0.6659
 2680TIP3   OH229598   6.223   6.496   8.403  0.2175  0.0643  0.4358
 2680TIP3    H129599   6.284   6.427   8.430  1.0374  0.4481 -0.3692
 2680TIP3    H229600   6.173   6.457   8.331 -0.9715 -0.4731  1.5223
 2681TIP3   OH229601   4.105   1.192   2.877 -0.3393 -0.4485  0.1521
 2681TIP3    H129602   4.137   1.236   2.955  0.7810 -0.9176 -0.0254
 2681TIP3    H229603   4.179   1.140   2.846 -0.8917 -0.5890 -0.9959
 2682TIP3   OH229604   0.066   2.250   8.420  0.4394 -0.4283 -0.0833
 2682TIP3    H129605   0.120   2.292   8.354 -1.5532  0.7031 -1.0779
 2682TIP3    H229606   0.004   2.318   8.448  0.8621 -1.0311  2.5842
 2683TIP3   OH229607   0.690   2.964   0.023  0.4700  0.1822  0.0379
 2683TIP3    H129608   0.745   2.899  -0.020 -2.5946 -1.7568 -1.2622
 2683TIP3    H229609   0.653   2.918   0.098  1.2607  1.7580  1.4879
 2684TIP3   OH229610   6.096   1.028   0.755 -0.0947 -0.0729  0.0792
 2684TIP3    H129611   6.018   1.058   0.710 -0.3587 -1.5089 -0.4838
 2684TIP3    H229612   6.089   0.932   0.755  1.8481 -0.2692 -0.3550
 2685TIP3   OH229613   1.920   1.207   2.983  0.0831  0.1396  0.1830
 2685TIP3    H129614   1.856   1.277   2.969 -2.3818 -1.8590  0.6814
 2685TIP3    H229615   1.917   1.190   3.077 -2.0197 -2.8046 -0.2673
 2686TIP3   OH229616   6.532   4.442   7.905 -0.1099  0.4592  0.2256
 2686TIP3    H129617   6.521   4.352   7.876  3.0379 -0.2679  0.8854
 2686TIP3    H229618   6.622   4.464   7.881 -0.5211  3.1801  0.7942
 2687TIP3   OH229619   0.828   4.831   7.696  0.1222 -0.1373  0.5093
 2687TIP3    H129620   0.849   4.896   7.629  2.9598 -1.9855 -0.5590
 2687TIP3    H229621   0.899   4.838   7.760  1.1533 -2.8324 -0.2188
 2688TIP3   OH229622   3.812   0.199   8.729  0.1657 -0.2257  0.9242
 2688TIP3    H129623   3.825   0.282   8.685  0.0311  0.4649  2.1443
 2688TIP3    H229624   3.899   0.159   8.732  0.2345 -0.1198  0.3743
 2689TIP3   OH229625   4.474   6.213   6.566  0.0207 -0.0006  0.1542
 2689TIP3    H129626   4.539   6.262   6.516 -0.3997  1.6723  1.1496
 2689TIP3    H229627   4.436   6.278   6.625 -0.2920 -1.6414  1.8552
 2690TIP3   OH229628   4.411   5.517   1.406 -0.3646  0.6284 -0.8060
 2690TIP3    H129629   4.421   5.552   1.495 -0.1278 -0.4642 -0.3861
 2690TIP3    H229630   4.320   5.491   1.400  0.1020 -1.3079 -0.0931
 2691TIP3   OH229631   5.683   6.030   3.146  0.1632  0.3107  0.4582
 2691TIP3    H129632   5.750   6.095   3.169 -0.9963  0.9240  2.2800
 2691TIP3    H229633   5.733   5.954   3.117  1.5780  1.5972 -0.6346
 2692TIP3   OH229634   5.396   1.413   7.607  0.0992 -0.1948 -0.5997
 2692TIP3    H129635   5.432   1.495   7.575  0.5380 -1.6338 -4.3250
 2692TIP3    H229636   5.469   1.351   7.601 -0.1201 -0.9184  2.4338
 2693TIP3   OH229637   2.973   0.434   1.255 -0.3437 -0.3203 -0.7659
 2693TIP3    H129638   2.979   0.529   1.267 -1.5718 -0.2624 -0.4386
 2693TIP3    H229639   3.055   0.400   1.290 -0.9436  0.4217  1.5699
 2694TIP3   OH229640   1.225   4.369   0.293 -0.1453  0.5564  0.6663
 2694TIP3    H129641   1.221   4.349   0.387  0.8912 -1.2036  0.3893
 2694TIP3    H229642   1.137   4.352   0.261 -0.4589  0.9855  1.2877
 2695TIP3   OH229643   1.802   4.374   0.941 -0.3393 -0.1389 -0.1603
 2695TIP3    H129644   1.709   4.373   0.921  0.0720 -0.6718 -2.2689
 2695TIP3    H229645   1.823   4.466   0.954 -0.4340  0.5234 -3.7741
 2696TIP3   OH229646   6.745   3.083   7.710 -0.5876 -0.1992  0.0081
 2696TIP3    H129647   6.731   3.003   7.761  1.4786 -0.6560 -0.0526
 2696TIP3    H229648   6.807   3.134   7.761  1.8595 -0.8428 -2.1009
 2697TIP3   OH229649   5.977   4.520   2.002 -0.0424  0.2783 -0.2728
 2697TIP3    H129650   5.930   4.604   2.001 -0.2759  0.1454 -0.6040
 2697TIP3    H229651   6.069   4.545   2.016 -0.4238  0.4135  2.6094
 2698TIP3   OH229652   4.045   5.429   8.871 -0.2856  0.0785  0.1745
 2698TIP3    H129653   4.020   5.467   8.786  1.3595  0.9807  0.0611
 2698TIP3    H229654   4.139   5.418   8.865  0.0479  1.2819  2.3268
 2699TIP3   OH229655   2.700   4.433   2.205  0.3958  0.3837  0.0091
 2699TIP3    H129656   2.648   4.354   2.218  0.5856  0.2618  0.0266
 2699TIP3    H229657   2.718   4.465   2.293 -0.2829  0.8433 -0.0111
 2700TIP3   OH229658   6.559   1.894   8.082 -0.4528 -0.2347 -0.4766
 2700TIP3    H129659   6.646   1.879   8.119  0.2178  2.0816 -0.9503
 2700TIP3    H229660   6.563   1.983   8.046 -2.7735 -0.3681 -1.2408
 2701TIP3   OH229661   5.566   0.561   7.442 -0.6321 -0.0622  0.0686
 2701TIP3    H129662   5.496   0.592   7.500 -1.2091 -0.5450 -0.3584
 2701TIP3    H229663   5.572   0.467   7.460 -3.3637 -1.0590 -3.1818
 2702TIP3   OH229664   4.960   5.504   0.935  0.5536 -0.1243  0.2367
 2702TIP3    H129665   4.916   5.519   1.019 -1.1744 -2.4097 -0.1735
 2702TIP3    H229666   4.969   5.409   0.929  3.9985  0.1397 -0.5837
 2703TIP3   OH229667   2.767   1.151   8.479  0.7394  0.0655  0.1013
 2703TIP3    H129668   2.813   1.213   8.423  0.6047  0.9364  0.9254
 2703TIP3    H229669   2.831   1.081   8.496  0.4469 -0.7604 -1.9434
 2704TIP3   OH229670   0.621   0.631   1.110 -0.5874 -0.7295  0.3599
 2704TIP3    H129671   0.669   0.674   1.181  1.4525  0.2494 -1.4984
 2704TIP3    H229672   0.621   0.539   1.133 -0.4245 -0.3763  1.8619
 2705TIP3   OH229673   5.114   4.160   7.340  0.4045 -1.4999 -0.2462
 2705TIP3    H129674   5.144   4.160   7.249  2.1607  1.4455  0.1960
 2705TIP3    H229675   5.071   4.244   7.351  1.1768 -1.3155  1.8800
 2706TIP3   OH229676   0.618   0.741   1.769  0.3133 -0.0358  0.6144
 2706TIP3    H129677   0.692   0.793   1.738 -0.5457 -0.4300 -2.4514
 2706TIP3    H229678   0.543   0.802   1.767 -0.0358 -0.4613  0.4511
 2707TIP3   OH229679   3.364   2.410   8.349 -0.4564 -0.0943  0.4598
 2707TIP3    H129680   3.436   2.472   8.342 -1.1882  0.8171  0.8202
 2707TIP3    H229681   3.309   2.445   8.419 -1.5698 -0.4163 -0.2331
 2708TIP3   OH229682   4.273   0.324   8.147 -0.4927  0.0243  0.0863
 2708TIP3    H129683   4.340   0.361   8.204  0.1321  0.3209 -0.8232
 2708TIP3    H229684   4.269   0.232   8.171  1.2045 -0.3004 -0.7510
 2709TIP3   OH229685   5.480   3.760   1.755 -0.1376 -0.4088  0.0837
 2709TIP3    H129686   5.575   3.748   1.763 -0.2867 -1.8783 -0.1683
 2709TIP3    H229687   5.442   3.694   1.813 -1.0269  1.2413  1.4921
 2710TIP3   OH229688   0.143   4.526   1.646 -0.2509 -0.0964  0.1533
 2710TIP3    H129689   0.167   4.548   1.556 -2.0757 -1.2792 -0.6807
 2710TIP3    H229690   0.227   4.512   1.691  0.6846 -0.2827 -1.5783
 2711TIP3   OH229691   5.555   1.770   0.315  0.9028 -0.0539  0.4555
 2711TIP3    H129692   5.556   1.865   0.318 -0.0094  0.0022 -0.6539
 2711TIP3    H229693   5.644   1.746   0.288  1.1195  0.4693  0.6879
 2712TIP3   OH229694   1.591   4.746   7.315 -0.3174 -0.2227  0.1022
 2712TIP3    H129695   1.638   4.804   7.255  0.1506  0.7066  1.3183
 2712TIP3    H229696   1.499   4.756   7.291 -0.0215 -1.4167 -1.7540
 2713TIP3   OH229697   2.834   6.323   8.695 -0.0904  0.1567 -0.1013
 2713TIP3    H129698   2.835   6.240   8.649  0.4869 -0.1130  0.3790
 2713TIP3    H229699   2.795   6.385   8.634 -1.3732 -0.6552 -0.1345
 2714TIP3   OH229700   0.562   5.998   8.238 -0.4362 -0.1858 -0.2267
 2714TIP3    H129701   0.651   5.968   8.259 -0.6506 -2.2451 -1.9152
 2714TIP3    H229702   0.506   5.940   8.289 -0.8235  0.2632 -0.1464
 2715TIP3   OH229703   3.537   0.275   8.792 -0.1825  0.2379  0.4881
 2715TIP3    H129704   3.468   0.277   8.725  0.6782 -1.1982 -0.4944
 2715TIP3    H229705   3.617   0.261   8.743  0.6008  0.1300  1.7668
 2716TIP3   OH229706   6.653   0.072   0.780 -0.4398  0.2782 -0.3466
 2716TIP3    H129707   6.713   0.066   0.706 -1.6324 -0.7222 -1.2882
 2716TIP3    H229708   6.603   0.152   0.765 -0.5608  0.1677 -0.5421
 2717TIP3   OH229709   1.317   4.777   1.772 -0.0638 -0.3822  0.4787
 2717TIP3    H129710   1.397   4.728   1.792  0.0773 -1.0010 -1.3888
 2717TIP3    H229711   1.348   4.865   1.748  0.2485 -0.9848 -1.5316
 2718TIP3   OH229712   4.660   1.041   0.098 -0.2607  0.6114 -0.2276
 2718TIP3    H129713   4.690   0.962   0.142  0.3741  0.2241 -1.3161
 2718TIP3    H229714   4.737   1.099   0.098  0.0656  0.2231 -1.6560
 2719TIP3   OH229715   5.301   3.641   8.158 -0.3067  0.0583  0.0635
 2719TIP3    H129716   5.235   3.624   8.090  3.0557 -0.2521 -3.5092
 2719TIP3    H229717   5.302   3.561   8.210 -1.8191 -0.4118 -0.5535
 2720TIP3   OH229718   0.315   0.502   8.312 -0.0323  0.5264 -0.2351
 2720TIP3    H129719   0.220   0.506   8.296 -0.5113  0.1901  2.0491
 2720TIP3    H229720   0.353   0.482   8.227 -2.0717  0.0705 -1.1155
 2721TIP3   OH229721   6.473   0.691   6.619 -0.5963  0.0376 -0.0224
 2721TIP3    H129722   6.388   0.689   6.575 -0.1122 -1.2828 -0.9337
 2721TIP3    H229723   6.493   0.784   6.627 -1.0276  0.3436 -1.9690
 2722TIP3   OH229724   3.033   1.953   2.911  0.7582  0.1579 -0.2457
 2722TIP3    H129725   3.071   1.918   2.991 -2.3997 -0.0135  1.2989
 2722TIP3    H229726   3.021   1.877   2.855  2.6761  0.2406 -0.8786
 2723TIP3   OH229727   2.330   2.315   1.221 -0.0355 -0.5737 -0.0742
 2723TIP3    H129728   2.342   2.226   1.190  0.3705 -0.4435 -0.2955
 2723TIP3    H229729   2.401   2.329   1.284 -1.0839 -0.9740  1.2527
 2724TIP3   OH229730   4.649   6.023   2.585  0.6385  0.1452  0.1329
 2724TIP3    H129731   4.562   5.983   2.575 -0.0443  1.4906  0.4221
 2724TIP3    H229732   4.631   6.115   2.601  2.1142  0.3287  0.9303
 2725TIP3   OH229733   1.041   1.802   0.683 -0.9055 -0.0359 -0.0115
 2725TIP3    H129734   1.091   1.731   0.723 -1.6859  0.4922  2.0189
 2725TIP3    H229735   1.094   1.829   0.608  0.7290 -0.9889  0.7412
 2726TIP3   OH229736   6.081   0.498   0.918 -0.1175  0.5379  0.5071
 2726TIP3    H129737   6.106   0.417   0.963  1.5170  0.1028 -1.0770
 2726TIP3    H229738   6.163   0.547   0.910 -1.0563  2.3361  1.3207
 2727TIP3   OH229739   3.695   3.119   0.526 -0.3582 -0.1110  0.0724
 2727TIP3    H129740   3.781   3.114   0.566 -0.5569 -0.5858  0.4539
 2727TIP3    H229741   3.702   3.067   0.447 -0.6158 -1.1438  0.7122
 2728TIP3   OH229742   1.829   5.970   0.752  0.0266  0.5645  0.4843
 2728TIP3    H129743   1.791   5.967   0.665  0.7209 -2.0913  0.1962
 2728TIP3    H229744   1.754   5.986   0.810 -0.5574  1.5362 -0.5064
 2729TIP3   OH229745   1.325   0.711   8.449 -0.0645  0.2876 -0.6632
 2729TIP3    H129746   1.291   0.776   8.511 -0.5415  1.5222 -2.1556
 2729TIP3    H229747   1.332   0.631   8.501 -0.1263  1.3393  1.0646
 2730TIP3   OH229748   3.977   1.567   2.444 -0.2356 -0.4976 -0.2432
 2730TIP3    H129749   3.946   1.606   2.363  1.0783 -0.5532 -0.8056
 2730TIP3    H229750   3.912   1.591   2.509 -0.5609  0.8043 -1.0136
 2731TIP3   OH229751   0.984   2.946   7.775  0.1646  0.0530  0.1820
 2731TIP3    H129752   0.909   3.003   7.794  1.2666  0.9349  2.2792
 2731TIP3    H229753   1.047   3.003   7.732 -0.4989 -0.8181 -2.0783
 2732TIP3   OH229754   6.296   5.322   7.791 -0.1226 -0.7039  0.7369
 2732TIP3    H129755   6.275   5.412   7.815 -0.9730 -1.3765  2.7527
 2732TIP3    H229756   6.391   5.315   7.802  0.5408  0.7514 -2.6567
 2733TIP3   OH229757   1.067   1.799   1.540  0.1791 -0.5655 -0.6844
 2733TIP3    H129758   1.004   1.833   1.603 -0.7445  0.3248 -2.0454
 2733TIP3    H229759   1.131   1.869   1.529  0.8324 -1.0484 -0.1412
 2734TIP3   OH229760   3.289   1.160   8.268  0.2566  0.1046 -0.4442
 2734TIP3    H129761   3.316   1.071   8.249  2.2587  0.8972 -1.6946
 2734TIP3    H229762   3.283   1.164   8.363 -2.7250 -2.0661 -0.4335
 2735TIP3   OH229763   5.066   0.381   2.796 -0.1030 -0.2376 -0.7316
 2735TIP3    H129764   5.082   0.402   2.888 -0.1149 -2.3554 -0.1887
 2735TIP3    H229765   4.994   0.318   2.798  0.1437 -0.5980 -2.1460
 2736TIP3   OH229766   3.513   0.883   8.344  0.4184  0.2333  0.3147
 2736TIP3    H129767   3.516   0.977   8.329 -0.2622  0.5087  1.7562
 2736TIP3    H229768   3.532   0.873   8.437  0.0754 -1.0250  0.2677
 2737TIP3   OH229769   2.755   4.777   1.575  0.0182 -0.0580 -0.4186
 2737TIP3    H129770   2.843   4.761   1.540  0.4643 -0.4475  0.8310
 2737TIP3    H229771   2.720   4.689   1.592  0.2468  0.1120  1.0980
 2738TIP3   OH229772   1.257   6.645   8.140 -0.7241  0.2809 -0.3910
 2738TIP3    H129773   1.186   6.645   8.076 -0.4560  1.7482 -0.7131
 2738TIP3    H229774   1.332   6.682   8.094 -0.9793  3.0414  1.1877
 2739TIP3   OH229775   5.800   0.733   7.415  0.1535 -0.3735  0.4931
 2739TIP3    H129776   5.738   0.666   7.443  1.2216 -1.6912 -0.1832
 2739TIP3    H229777   5.786   0.741   7.320  2.0433 -1.8629  0.0239
 2740TIP3   OH229778   1.123   1.080   8.058 -0.1941 -0.6838 -0.5122
 2740TIP3    H129779   1.185   1.085   7.986 -0.5617 -0.1508 -0.7989
 2740TIP3    H229780   1.175   1.052   8.133  1.4012  3.6582  0.3219
 2741TIP3   OH229781   0.832   1.969   1.685  0.3248  0.0526 -0.0660
 2741TIP3    H129782   0.791   2.002   1.765 -0.3795 -0.2494 -0.2887
 2741TIP3    H229783   0.902   2.031   1.666 -0.4525  0.9510 -0.0337
 2742TIP3   OH229784   2.177   3.534   1.000  0.0863 -0.3178  0.3489
 2742TIP3    H129785   2.232   3.613   1.003 -1.5225  0.9016 -1.0555
 2742TIP3    H229786   2.228   3.469   1.049  2.1891  1.1112  0.2105
 2743TIP3   OH229787   4.741   4.750   0.027  0.5880  0.1344 -0.5510
 2743TIP3    H129788   4.748   4.656   0.010  1.0955 -0.0012  0.3647
 2743TIP3    H229789   4.820   4.788  -0.014  2.2290 -0.2877  2.0229
 2744TIP3   OH229790   3.131   5.496   1.052 -0.2904 -0.8615  0.1119
 2744TIP3    H129791   3.113   5.450   0.970 -1.0117  0.1172 -0.3041
 2744TIP3    H229792   3.045   5.503   1.094  0.0348 -1.1041  0.8189
 2745TIP3   OH229793   3.863   1.105   2.823 -0.0292  0.1677 -0.2411
 2745TIP3    H129794   3.875   1.032   2.884 -0.3303 -0.4544 -0.9150
 2745TIP3    H229795   3.942   1.158   2.834 -0.3364  0.3980  1.1119
 2746TIP3   OH229796   0.270   0.722   0.218  0.1982  0.1475 -0.2628
 2746TIP3    H129797   0.251   0.805   0.175 -1.4120  0.8847  1.7356
 2746TIP3    H229798   0.292   0.662   0.146 -1.3608  1.5563 -2.0103
 2747TIP3   OH229799   1.196   1.849   1.172 -0.6343 -0.2564 -0.2028
 2747TIP3    H129800   1.266   1.895   1.127 -1.2715 -0.6639 -1.6458
 2747TIP3    H229801   1.241   1.781   1.223  0.0395 -0.2380 -0.7657
 2748TIP3   OH229802   3.682   3.292   7.601  0.1895  0.1348  0.2450
 2748TIP3    H129803   3.631   3.230   7.653  1.2686 -1.3105 -0.3310
 2748TIP3    H229804   3.721   3.351   7.665  0.3014 -0.6833  0.9453
 2749TIP3   OH229805   0.824   6.246   1.339  0.3414  0.2695 -0.2143
 2749TIP3    H129806   0.886   6.319   1.343 -0.4236  1.0101 -1.1857
 2749TIP3    H229807   0.839   6.197   1.420  1.3153  1.1421  0.1583
 2750TIP3   OH229808   2.050   6.144   1.224 -0.5573 -0.4682  0.4809
 2750TIP3    H129809   2.017   6.178   1.141  1.4449 -0.9647 -0.6065
 2750TIP3    H229810   2.000   6.064   1.239 -1.2304 -0.1501 -0.0443
 2751TIP3   OH229811   1.197   6.015   7.084 -0.0629 -0.7489 -0.1508
 2751TIP3    H129812   1.151   5.934   7.061 -2.0777  0.2887 -0.0030
 2751TIP3    H229813   1.203   6.063   7.002 -0.4142 -0.3344  0.0584
 2752TIP3   OH229814   2.582   2.772   0.767 -0.0494  0.4835  0.3826
 2752TIP3    H129815   2.522   2.782   0.693  0.5671 -0.1836 -0.2239
 2752TIP3    H229816   2.668   2.755   0.727 -0.0474 -1.8799  1.2146
 2753TIP3   OH229817   1.435   6.215   8.007 -0.6464 -0.2078 -0.5957
 2753TIP3    H129818   1.380   6.151   8.052 -1.0439 -0.0098 -0.7954
 2753TIP3    H229819   1.374   6.264   7.952  0.0278 -1.4840 -2.5959
 2754TIP3   OH229820   6.475   1.712   7.182 -0.2273 -0.2814  0.1707
 2754TIP3    H129821   6.515   1.625   7.176  2.3065  0.7961  0.2636
 2754TIP3    H229822   6.382   1.694   7.191  0.4393 -3.1472  4.0899
 2755TIP3   OH229823   4.160   5.423   2.360  0.1734 -0.9196 -0.0089
 2755TIP3    H129824   4.122   5.437   2.447 -1.7336 -0.8459 -0.8066
 2755TIP3    H229825   4.247   5.388   2.377  0.1722 -0.0928  1.9340
 2756TIP3   OH229826   1.116   1.179   7.038 -0.2032  0.1337 -0.0481
 2756TIP3    H129827   1.107   1.274   7.030 -1.4549  0.0212 -0.0576
 2756TIP3    H229828   1.027   1.146   7.048  0.2328 -1.0231  0.2528
 2757TIP3   OH229829   3.323   0.754   2.416  0.1491 -0.4188  0.1766
 2757TIP3    H129830   3.383   0.698   2.465  2.7764  2.9105  1.1817
 2757TIP3    H229831   3.376   0.786   2.342 -1.4136  0.2552 -0.7006
 2758TIP3   OH229832   6.556   6.060   2.446 -0.0400  0.3366 -0.2094
 2758TIP3    H129833   6.465   6.077   2.422  0.2788 -0.7168 -2.5361
 2758TIP3    H229834   6.605   6.132   2.408  0.1780  0.4242  0.2385
 2759TIP3   OH229835   5.081   2.664   1.463  0.8812 -0.7010  0.1116
 2759TIP3    H129836   5.140   2.601   1.506  0.3608 -0.9439  0.4759
 2759TIP3    H229837   5.025   2.610   1.407  0.9640 -0.4744 -0.1954
 2760TIP3   OH229838   6.460   1.473   6.708  0.0563  0.2805  0.2110
 2760TIP3    H129839   6.529   1.538   6.718  0.1686  0.1886  0.0386
 2760TIP3    H229840   6.440   1.445   6.797 -0.2380  0.8034  0.3155
 2761TIP3   OH229841   1.591   5.833   0.001 -0.2011  0.0434 -0.5757
 2761TIP3    H129842   1.625   5.747  -0.025  0.9427  0.1129  0.5842
 2761TIP3    H229843   1.503   5.815   0.035  1.0408 -1.1638  2.2972
 2762TIP3   OH229844   4.352   2.361   1.904 -0.0181  0.1805  0.3328
 2762TIP3    H129845   4.394   2.281   1.874  0.6591  1.3855 -2.2466
 2762TIP3    H229846   4.297   2.389   1.831 -1.0028  1.5625  1.5295
 2763TIP3   OH229847   3.839   6.092   0.597 -0.1156  0.4282  0.1364
 2763TIP3    H129848   3.776   6.022   0.614 -0.6590  1.0731  0.7946
 2763TIP3    H229849   3.890   6.060   0.522  1.6392 -2.0019  2.1881
 2764TIP3   OH229850   0.912   3.751   8.788  0.5135 -0.4620 -0.6583
 2764TIP3    H129851   0.899   3.717   8.700 -1.1998  0.6931 -0.8860
 2764TIP3    H229852   0.824   3.768   8.821  1.0810 -1.3950  1.5128
 2765TIP3   OH229853   2.275   3.580   1.296  0.4022 -0.6215 -0.4176
 2765TIP3    H129854   2.344   3.635   1.333  0.1215  0.0091 -0.8140
 2765TIP3    H229855   2.316   3.538   1.220  0.3899 -0.3256 -0.5922
 2766TIP3   OH229856   4.452   4.339   1.161 -0.0529 -0.2160 -0.5031
 2766TIP3    H129857   4.440   4.417   1.216 -1.1133 -0.3450 -0.5246
 2766TIP3    H229858   4.363   4.306   1.148  0.3562 -1.2410 -0.7714
 2767TIP3   OH229859   1.095   6.596   0.625  0.2533 -0.1312 -0.0295
 2767TIP3    H129860   1.078   6.601   0.719 -0.1740  1.7716 -0.1667
 2767TIP3    H229861   1.190   6.590   0.617  0.3523  0.6062  0.5197
 2768TIP3   OH229862   4.152   5.341   0.859 -0.3704  0.2589  0.0973
 2768TIP3    H129863   4.130   5.273   0.922  0.6301  0.5006  0.7357
 2768TIP3    H229864   4.239   5.317   0.828 -0.3935  0.7536 -0.3610
 2769TIP3   OH229865   1.776   5.813   7.094 -0.0423 -0.3108 -0.3415
 2769TIP3    H129866   1.791   5.769   7.178 -1.2505 -1.8545 -0.8589
 2769TIP3    H229867   1.780   5.906   7.114  0.0977 -0.6462  1.3573
 2770TIP3   OH229868   3.692   3.607   7.392 -0.0829  0.4158  0.2909
 2770TIP3    H129869   3.663   3.666   7.322  1.2254  0.0109 -0.6320
 2770TIP3    H229870   3.772   3.646   7.426 -0.3531  0.2591  1.1324
 2771TIP3   OH229871   0.751   3.656   8.142 -0.0559  0.0984 -0.5200
 2771TIP3    H129872   0.785   3.688   8.059  1.6560  1.6651  0.7183
 2771TIP3    H229873   0.802   3.702   8.209 -2.3094 -0.0341  1.4324
 2772TIP3   OH229874   2.131   3.617   0.287  0.4703 -0.2064 -0.0947
 2772TIP3    H129875   2.183   3.657   0.356 -0.8976 -0.5161  1.1747
 2772TIP3    H229876   2.193   3.598   0.217  1.3904  3.0005 -0.3012
 2773TIP3   OH229877   2.280   4.684   1.215 -0.3923  0.5548 -0.2578
 2773TIP3    H129878   2.207   4.719   1.163 -1.9959  0.3421  1.7073
 2773TIP3    H229879   2.343   4.756   1.218 -0.4438  0.7165 -2.0870
 2774TIP3   OH229880   4.259   4.023   1.313 -0.1299  0.0216 -0.0985
 2774TIP3    H129881   4.239   4.107   1.271  0.0962  1.5006  2.4814
 2774TIP3    H229882   4.246   4.040   1.407  4.2534 -1.4741  1.0192
 2775TIP3   OH229883   6.788   3.161   1.703  0.2144 -0.2093 -0.4009
 2775TIP3    H129884   6.776   3.183   1.796 -1.4589  0.5659 -0.7690
 2775TIP3    H229885   6.881   3.176   1.687  0.9195 -2.0168  1.5527
 2776TIP3   OH229886   0.837   3.240   1.767  0.1578 -0.0815  0.1600
 2776TIP3    H129887   0.775   3.301   1.726 -1.5035 -0.7082  1.5829
 2776TIP3    H229888   0.828   3.159   1.717 -0.6360 -0.3378  0.6868
 2777TIP3   OH229889   4.498   2.833   7.832 -0.4620 -0.3231  0.2341
 2777TIP3    H129890   4.493   2.750   7.880 -0.3391 -0.7652 -0.5105
 2777TIP3    H229891   4.458   2.814   7.747 -0.4327  0.3819  0.0580
 2778TIP3   OH229892   2.621   4.726   0.743  0.6618 -0.1344 -0.4362
 2778TIP3    H129893   2.676   4.654   0.776  0.0383 -0.3596  0.1417
 2778TIP3    H229894   2.540   4.719   0.795  0.8616  1.4028  0.1134
 2779TIP3   OH229895   1.871   5.401   8.841  0.1718  0.1570  1.1918
 2779TIP3    H129896   1.904   5.456   8.912 -0.1445 -0.5861  1.9354
 2779TIP3    H229897   1.827   5.329   8.886 -0.5542 -0.0137  0.2300
 2780TIP3   OH229898   1.853   2.558   8.833 -0.2175  0.4484  0.0718
 2780TIP3    H129899   1.828   2.641   8.793  0.6543  0.4352 -0.5127
 2780TIP3    H229900   1.938   2.575   8.873 -0.0350 -0.1614 -0.0485
 2781TIP3   OH229901   5.449   1.019   6.877  0.0086 -0.1733 -0.4758
 2781TIP3    H129902   5.392   1.023   6.800 -0.6491 -0.1388 -0.0011
 2781TIP3    H229903   5.399   1.064   6.945 -0.0035 -1.3748  0.3365
 2782TIP3   OH229904   2.508   0.756   1.681  0.0225 -0.1948 -0.3057
 2782TIP3    H129905   2.452   0.827   1.648 -0.7465  0.1172  1.5211
 2782TIP3    H229906   2.568   0.736   1.609 -1.0938  0.9019 -1.5820
 2783TIP3   OH229907   5.630   5.977   7.852  0.4607 -0.5885 -0.1746
 2783TIP3    H129908   5.699   5.977   7.919  1.1972  0.3109 -0.9036
 2783TIP3    H229909   5.556   6.022   7.894  1.0512  0.3218 -0.0883
 2784TIP3   OH229910   4.634   5.297   8.201  0.2952  0.5517 -1.0071
 2784TIP3    H129911   4.602   5.322   8.115  0.5269 -3.2963 -2.4108
 2784TIP3    H229912   4.720   5.339   8.208  0.2348  1.0013 -2.6521
 2785TIP3   OH229913   3.632   3.428   8.466 -0.5937 -0.5181  0.0438
 2785TIP3    H129914   3.538   3.438   8.450 -0.5242  0.3350  0.1168
 2785TIP3    H229915   3.671   3.428   8.379 -0.4301  1.8430  0.0465
 2786TIP3   OH229916   1.025   5.245   2.787  0.1138 -0.5941  0.7823
 2786TIP3    H129917   1.015   5.206   2.700 -2.3634  0.5361  0.4669
 2786TIP3    H229918   1.098   5.307   2.777  0.3270 -1.0022 -0.2868
 2787TIP3   OH229919   3.697   4.128   1.110  0.1773 -0.3201 -0.1880
 2787TIP3    H129920   3.616   4.116   1.061 -0.2354 -0.7269  0.5789
 2787TIP3    H229921   3.766   4.105   1.047 -0.3777 -1.6666 -0.3464
 2788TIP3   OH229922   3.883   2.531   0.760 -1.0143 -0.4346  0.3672
 2788TIP3    H129923   3.848   2.446   0.789  0.9159 -0.7839  1.8383
 2788TIP3    H229924   3.928   2.511   0.677 -0.8405 -0.7878  0.5433
 2789TIP3   OH229925   1.831   4.784   1.327  0.1873 -0.1287 -0.0066
 2789TIP3    H129926   1.848   4.697   1.363 -3.4448 -2.0130 -2.2391
 2789TIP3    H229927   1.766   4.822   1.386  1.0146  0.6833  0.4013
 2790TIP3   OH229928   2.592   0.856   8.096 -0.6023 -0.0413 -0.4163
 2790TIP3    H129929   2.592   0.952   8.090  1.4404 -0.0407 -1.2913
 2790TIP3    H229930   2.612   0.827   8.007 -0.0331 -1.2440  0.0869
 2791TIP3   OH229931   3.237   1.516   1.645 -0.2014 -0.1751 -0.2034
 2791TIP3    H129932   3.249   1.559   1.561  0.4736  0.3686  0.1648
 2791TIP3    H229933   3.174   1.446   1.627 -0.2764  0.1092 -1.0951
 2792TIP3   OH229934   3.005   6.649   7.817  0.3548 -0.3894  0.6923
 2792TIP3    H129935   2.946   6.695   7.876  0.1533 -0.4577  0.5430
 2792TIP3    H229936   3.075   6.712   7.799  0.3461 -0.3216  0.8956
 2793TIP3   OH229937   5.720   5.086   1.183  0.6489 -0.5514 -0.4654
 2793TIP3    H129938   5.713   5.134   1.101 -2.0029 -0.7991 -0.4643
 2793TIP3    H229939   5.690   5.147   1.250 -0.3210 -1.3607 -0.1327
 2794TIP3   OH229940   1.968   5.577   2.140 -0.4845  0.0923 -0.5129
 2794TIP3    H129941   1.949   5.588   2.233 -0.6710 -0.5175 -0.4733
 2794TIP3    H229942   2.001   5.487   2.133 -0.3970  0.1615 -1.0246
 2795TIP3   OH229943   3.012   1.720   2.066 -0.6935  0.3285 -0.5379
 2795TIP3    H129944   2.995   1.812   2.049  1.6413  0.4827 -2.5007
 2795TIP3    H229945   3.052   1.687   1.986  1.3305 -1.6219  1.1321
 2796TIP3   OH229946   0.574   0.954   0.678  0.1254 -0.3803  0.0127
 2796TIP3    H129947   0.563   0.889   0.608  3.4504  2.2299 -3.3281
 2796TIP3    H229948   0.655   0.928   0.722  0.1291  0.1776  0.3381
 2797TIP3   OH229949   1.111   2.416   8.042  0.1094 -0.0840 -0.4876
 2797TIP3    H129950   1.054   2.491   8.055  0.5259 -0.1646  2.3431
 2797TIP3    H229951   1.200   2.451   8.051  0.2885 -1.0094  2.1489
 2798TIP3   OH229952   1.844   0.410   2.580 -0.1568  0.4907 -0.0363
 2798TIP3    H129953   1.905   0.359   2.633  0.8986  0.6957 -1.0228
 2798TIP3    H229954   1.758   0.374   2.602  0.3172  0.0746  1.2401
 2799TIP3   OH229955   2.913   3.072   2.470  0.5871  0.1815  0.4413
 2799TIP3    H129956   2.909   3.163   2.500  2.9066  0.0393  1.3983
 2799TIP3    H229957   2.942   3.023   2.547 -1.0322 -1.4834  0.0630
 2800TIP3   OH229958   1.748   4.463   0.348  0.0746  0.1052 -0.0092
 2800TIP3    H129959   1.756   4.390   0.286 -1.2134 -0.2196  0.1741
 2800TIP3    H229960   1.831   4.510   0.341 -0.2252  0.4376 -2.4600
 2801TIP3   OH229961   1.995   5.579   2.479  0.4370 -0.0014  0.0790
 2801TIP3    H129962   2.042   5.602   2.559  1.3687  2.4035 -1.0578
 2801TIP3    H229963   1.925   5.643   2.474 -1.0103 -1.5222  0.0520
 2802TIP3   OH229964   3.968   6.709   7.517  0.5417 -0.0205 -0.2008
 2802TIP3    H129965   3.937   6.701   7.607 -3.1128 -1.4171 -1.4092
 2802TIP3    H229966   3.908   6.772   7.477  0.8981 -0.8363 -2.1037
 2803TIP3   OH229967   4.941   6.717   2.098 -0.2633  0.4977 -0.4130
 2803TIP3    H129968   4.855   6.680   2.119  1.4019 -2.5077  1.8712
 2803TIP3    H229969   4.983   6.729   2.184  2.1443  0.4278 -1.5147
 2804TIP3   OH229970   6.071   5.970   7.467 -0.4061 -0.7173  0.0399
 2804TIP3    H129971   6.122   6.032   7.415 -0.8800  0.3368  0.7954
 2804TIP3    H229972   6.059   5.895   7.409  1.2886 -0.6680 -0.4427
 2805TIP3   OH229973   5.891   4.097   6.992  0.8567  0.4680 -0.3368
 2805TIP3    H129974   5.977   4.139   6.991  1.0433  0.0976 -0.8445
 2805TIP3    H229975   5.902   4.020   6.936  0.9605 -1.1006  1.7053
 2806TIP3   OH229976   1.000   2.188   7.667 -0.2429  0.2304  0.3515
 2806TIP3    H129977   0.937   2.243   7.621 -0.6072  0.4368  1.0864
 2806TIP3    H229978   0.950   2.145   7.736  0.4896  0.6830  1.1831
 2807TIP3   OH229979   2.960   2.401   2.512  0.4523 -0.5533  0.0299
 2807TIP3    H129980   2.957   2.430   2.603  0.0758 -0.4875 -0.0045
 2807TIP3    H229981   2.870   2.378   2.490  0.3849  0.2457 -0.5857
 2808TIP3   OH229982   0.627   3.491   3.192 -0.1549  0.0797 -0.0195
 2808TIP3    H129983   0.555   3.550   3.213  1.0746  1.7585 -0.3456
 2808TIP3    H229984   0.585   3.406   3.180 -2.2186  1.2039 -1.2467
 2809TIP3   OH229985   1.011   4.786   0.009 -0.4259  0.4672  0.4035
 2809TIP3    H129986   0.964   4.858  -0.033 -0.0075  0.7805  0.4755
 2809TIP3    H229987   1.071   4.754  -0.059  0.7229  1.3971  0.9508
 2810TIP3   OH229988   3.483   0.528   8.322 -0.1025  0.2604  0.5123
 2810TIP3    H129989   3.467   0.477   8.243  2.2323 -0.8153  0.6650
 2810TIP3    H229990   3.456   0.470   8.394 -1.9432  1.1270  0.5974
 2811TIP3   OH229991   6.381   1.090   7.791 -0.1905  0.3749  0.3887
 2811TIP3    H129992   6.368   1.127   7.704 -0.1144 -0.4093  0.0372
 2811TIP3    H229993   6.321   1.015   7.794  0.2007  0.0754  0.8149
 2812TIP3   OH229994   2.863   3.411   1.872  0.3865 -0.2669 -0.3062
 2812TIP3    H129995   2.873   3.485   1.932  0.0531 -0.8548  0.4918
 2812TIP3    H229996   2.817   3.447   1.797 -2.4515 -0.2630  1.3100
 2813TIP3   OH229997   1.129   3.424   1.635  0.8065  0.5028  0.4148
 2813TIP3    H129998   1.213   3.378   1.630  0.1446 -0.7043 -0.0262
 2813TIP3    H229999   1.136   3.495   1.571  0.5751 -1.1821 -1.5869
 2814TIP3   OH230000   3.210   3.673   2.177 -0.3759  0.7685  1.1441
 2814TIP3    H130001   3.167   3.758   2.161  1.9911  1.6419 -1.2169
 2814TIP3    H230002   3.291   3.695   2.223 -0.3496 -0.3970  1.7009
 2815TIP3   OH230003   3.620   4.794   7.308  0.6543 -0.0401 -0.0562
 2815TIP3    H130004   3.564   4.717   7.308 -0.1078  0.5099 -0.3703
 2815TIP3    H230005   3.693   4.770   7.250 -1.0258  0.4761 -2.5650
 2816TIP3   OH230006   3.057   0.566   2.301  0.1524 -0.1542 -0.2099
 2816TIP3    H130007   3.081   0.493   2.357 -0.0239  0.7679  1.1024
 2816TIP3    H230008   2.986   0.610   2.347 -1.3658 -0.4784 -2.0930
 2817TIP3   OH230009   6.121   5.125   7.816  0.5929 -0.3505  0.4112
 2817TIP3    H130010   6.194   5.187   7.809  0.6733 -0.3863  0.9166
 2817TIP3    H230011   6.058   5.156   7.751  0.7673  0.0799  0.4416
 2818TIP3   OH230012   3.420   2.627   7.856  0.3851 -0.0958 -0.3210
 2818TIP3    H130013   3.435   2.712   7.899  0.4178  0.6212 -1.6815
 2818TIP3    H230014   3.326   2.612   7.863  0.3303  0.2232 -0.3559
 2819TIP3   OH230015   2.260   1.762   2.705  0.5057 -0.1335  0.0861
 2819TIP3    H130016   2.276   1.726   2.792 -2.6721 -1.9506  0.0713
 2819TIP3    H230017   2.249   1.685   2.649 -2.6009  0.8096 -0.7921
 2820TIP3   OH230018   5.797   5.018   0.673  0.0222 -0.6234  0.1042
 2820TIP3    H130019   5.708   5.031   0.642  0.4651 -1.4938 -1.6203
 2820TIP3    H230020   5.790   5.026   0.769 -1.3456  2.2975 -0.1260
 2821TIP3   OH230021   0.181   3.870   1.695  0.2173  0.3238  0.3563
 2821TIP3    H130022   0.181   3.862   1.600  1.6870 -0.5673  0.4095
 2821TIP3    H230023   0.249   3.935   1.714 -0.7065  1.2021  0.7752
 2822TIP3   OH230024   5.314   3.779   0.876 -0.1765  0.1470 -0.2448
 2822TIP3    H130025   5.385   3.717   0.892  0.0666 -0.6947 -3.7330
 2822TIP3    H230026   5.347   3.863   0.909  0.9780 -0.8520  1.2932
 2823TIP3   OH230027   4.170   6.033   3.052  0.1723  1.2413  0.4573
 2823TIP3    H130028   4.241   5.985   3.010 -0.0913  2.2058 -1.1697
 2823TIP3    H230029   4.212   6.088   3.117  1.0171  2.2442 -0.8904
 2824TIP3   OH230030   2.765   2.766   1.217  0.2911 -0.1097 -0.6296
 2824TIP3    H130031   2.812   2.803   1.142  0.1846  1.9570  0.2359
 2824TIP3    H230032   2.681   2.812   1.217  0.2549 -0.1401  0.6885
 2825TIP3   OH230033   4.739   5.959   7.739 -0.2872 -0.2949 -0.2461
 2825TIP3    H130034   4.708   5.961   7.829  0.3670 -0.4098 -0.0199
 2825TIP3    H230035   4.660   5.942   7.687 -0.8987  1.1108  0.1812
 2826TIP3   OH230036   4.987   6.366   1.610  0.3179 -0.6673 -0.1810
 2826TIP3    H130037   5.072   6.408   1.591  2.0848 -3.8400  0.0986
 2826TIP3    H230038   4.990   6.348   1.704 -1.0435 -0.1671 -0.0211
 2827TIP3   OH230039   3.196   0.074   0.393 -0.0169  0.7902  0.6330
 2827TIP3    H130040   3.239   0.128   0.460  2.2221  0.7273 -0.6544
 2827TIP3    H230041   3.242   0.096   0.312 -0.7850 -1.1816 -0.3841
 2828TIP3   OH230042   1.857   3.365   0.665 -0.1132  0.0202  0.3945
 2828TIP3    H130043   1.783   3.408   0.622 -0.6301  0.0674  1.3137
 2828TIP3    H230044   1.924   3.433   0.671 -0.1291  0.0848 -0.0912
 2829TIP3   OH230045   2.386   1.398   0.341  0.3607  0.4257  0.4199
 2829TIP3    H130046   2.365   1.471   0.400  0.4984  0.3899  0.5161
 2829TIP3    H230047   2.460   1.355   0.384  0.0373 -0.0004  0.5624
 2830TIP3   OH230048   2.869   3.459   7.498  0.1156 -0.5333 -0.0800
 2830TIP3    H130049   2.869   3.378   7.448 -0.5850 -1.1392  0.8872
 2830TIP3    H230050   2.937   3.512   7.456  0.7880 -1.7189 -0.5427
 2831TIP3   OH230051   2.124   2.614   0.078 -0.5309  0.2049 -0.5848
 2831TIP3    H130052   2.153   2.526   0.052 -2.1452 -0.2216 -1.0890
 2831TIP3    H230053   2.172   2.673   0.020 -0.3122 -0.4332 -1.0661
 2832TIP3   OH230054   2.426   0.616   7.547  0.2903 -0.4397  0.3734
 2832TIP3    H130055   2.435   0.665   7.466 -0.2766  0.3886  0.7940
 2832TIP3    H230056   2.436   0.682   7.616  1.3530 -1.2175  1.0076
 2833TIP3   OH230057   4.320   3.444   0.768  0.1474  0.2759 -0.6260
 2833TIP3    H130058   4.348   3.410   0.853 -0.2749  1.9025  0.2147
 2833TIP3    H230059   4.400   3.480   0.729  0.1559  0.4258 -0.4708
 2834TIP3   OH230060   5.537   3.113   1.318 -0.3948  0.6783 -0.1504
 2834TIP3    H130061   5.528   3.022   1.346 -0.5144  0.6050 -0.4214
 2834TIP3    H230062   5.452   3.134   1.278  0.0254  0.5320 -1.1569
 2835TIP3   OH230063   4.684   2.313   0.072  0.2251  0.3627  1.1652
 2835TIP3    H130064   4.723   2.234   0.109  3.1156  1.4981  0.8342
 2835TIP3    H230065   4.693   2.378   0.142 -0.1767  0.9242  0.6974
 2836TIP3   OH230066   3.208   2.338   2.410  0.0717 -0.4114 -0.3051
 2836TIP3    H130067   3.137   2.368   2.467 -1.0107 -0.9658 -1.3171
 2836TIP3    H230068   3.215   2.405   2.342  1.3437  0.2364  0.4284
 2837TIP3   OH230069   2.271   2.479   2.121  0.2228 -1.0009 -0.2778
 2837TIP3    H130070   2.296   2.567   2.150  1.4977 -1.4136 -0.0400
 2837TIP3    H230071   2.227   2.493   2.037 -2.0372  0.0759  1.0066
 2838TIP3   OH230072   3.990   0.762   7.941  0.4663  0.1156  0.0711
 2838TIP3    H130073   3.961   0.817   7.868  0.4845  0.0098 -0.0152
 2838TIP3    H230074   3.941   0.795   8.017  0.2928  0.0880 -0.0300
 2839TIP3   OH230075   5.255   3.228   0.995  0.0401 -0.1067  0.0720
 2839TIP3    H130076   5.231   3.304   1.047 -0.3149 -0.4034  0.3498
 2839TIP3    H230077   5.350   3.221   1.003  0.1763  0.7962 -0.6372
 2840TIP3   OH230078   2.303   0.576   1.732  0.4008  0.2731  0.8445
 2840TIP3    H130079   2.373   0.641   1.735 -0.8296  1.6690  0.3362
 2840TIP3    H230080   2.259   0.591   1.648  0.1577 -1.3156  0.6479
 2841TIP3   OH230081   4.206   3.417   8.587 -0.4490 -0.0814  0.3811
 2841TIP3    H130082   4.164   3.427   8.672 -1.7570  2.9666 -0.4899
 2841TIP3    H230083   4.139   3.376   8.532 -0.6404  0.5785  0.1202
 2842TIP3   OH230084   2.430   5.181   0.646 -0.0360  0.1127 -0.2610
 2842TIP3    H130085   2.344   5.161   0.682  0.9695 -1.6707  1.3157
 2842TIP3    H230086   2.446   5.114   0.580  0.3490  0.1300 -0.1909
 2843TIP3   OH230087   0.428   6.623   1.862  0.9801 -0.3135  0.0825
 2843TIP3    H130088   0.431   6.617   1.958  1.0133 -1.7160  0.0224
 2843TIP3    H230089   0.335   6.627   1.841  0.8620 -1.9220  0.1290
 2844TIP3   OH230090   3.197   2.820   6.686  0.1830  0.2608 -0.5645
 2844TIP3    H130091   3.278   2.773   6.707 -0.6953 -1.1406 -0.2072
 2844TIP3    H230092   3.209   2.849   6.596  0.7935 -0.5735 -0.7634
 2845TIP3   OH230093   0.110   5.477   2.057 -0.1297  0.1279  0.1356
 2845TIP3    H130094   0.065   5.562   2.064  0.4711  0.5693 -1.0371
 2845TIP3    H230095   0.045   5.420   2.016 -0.0176  0.4594 -0.5187
 2846TIP3   OH230096   6.228   1.460   7.668 -0.0039 -0.0286 -0.6887
 2846TIP3    H130097   6.239   1.554   7.654 -1.1099  0.2742  0.3276
 2846TIP3    H230098   6.158   1.453   7.733  1.6772 -1.4772  1.0802
 2847TIP3   OH230099   0.340   4.853   0.046  0.3007 -0.3277 -0.2243
 2847TIP3    H130100   0.309   4.763   0.037 -0.3438 -0.4526  2.2975
 2847TIP3    H230101   0.432   4.844   0.070  0.9933 -0.1463 -2.5588
 2848TIP3   OH230102   5.682   6.722   7.812 -0.4075  0.1271  0.4752
 2848TIP3    H130103   5.682   6.627   7.827  3.8943  0.1526  2.0469
 2848TIP3    H230104   5.637   6.733   7.729 -0.7371 -3.3407  0.0382
 2849TIP3   OH230105   0.665   6.523   1.465  0.1120 -0.3346  0.0928
 2849TIP3    H130106   0.641   6.578   1.391 -0.3165  0.2118  0.6316
 2849TIP3    H230107   0.586   6.519   1.519  0.3635 -0.8818  0.4303
 2850TIP3   OH230108   2.973   5.120   0.247 -0.0528 -0.0779 -0.2214
 2850TIP3    H130109   2.897   5.064   0.261 -0.4121  0.2956 -0.6478
 2850TIP3    H230110   2.937   5.208   0.243  0.4612  0.1451  0.0364
 2851TIP3   OH230111   1.055   2.807   0.427 -0.1847 -0.0238 -0.4832
 2851TIP3    H130112   1.038   2.824   0.519  4.4924 -1.7650  0.9851
 2851TIP3    H230113   1.007   2.875   0.380 -0.0694  3.0957  3.4535
 2852TIP3   OH230114   3.611   5.136   0.959  0.2954  0.1427 -0.7667
 2852TIP3    H130115   3.647   5.051   0.982 -0.6659  0.1889  1.0445
 2852TIP3    H230116   3.523   5.117   0.926  0.8473  0.2828 -2.4211
 2853TIP3   OH230117   4.121   4.706   8.225 -0.6201 -0.4663  0.0958
 2853TIP3    H130118   4.026   4.716   8.221 -0.4740  0.8126 -0.8261
 2853TIP3    H230119   4.141   4.638   8.161 -0.6461  1.8719 -2.6288
 2854TIP3   OH230120   3.200   3.219   7.927  0.3401 -0.2221 -0.1723
 2854TIP3    H130121   3.274   3.255   7.977 -0.0592  0.8356 -0.3223
 2854TIP3    H230122   3.127   3.220   7.989 -0.8389  3.4806 -1.3484
 2855TIP3   OH230123   2.183   2.481   0.827  0.4202 -0.3818  0.0632
 2855TIP3    H130124   2.131   2.416   0.875 -1.6556  1.7928  0.9606
 2855TIP3    H230125   2.140   2.488   0.742  0.1069  0.3801  0.2760
 2856TIP3   OH230126   0.883   1.743   2.207  0.0739 -0.3362 -0.2147
 2856TIP3    H130127   0.921   1.677   2.266  1.3063  1.2325  0.8594
 2856TIP3    H230128   0.804   1.772   2.251  0.2624 -0.1422  0.0010
 2857TIP3   OH230129   4.858   3.943   0.331 -0.1974 -0.5879 -0.6187
 2857TIP3    H130130   4.800   3.941   0.255 -0.2764  1.9269 -0.7224
 2857TIP3    H230131   4.857   4.035   0.360  1.0776 -1.1442  1.4563
 2858TIP3   OH230132   5.860   3.063   0.047 -0.3000 -0.0061 -0.7359
 2858TIP3    H130133   5.880   3.113  -0.032 -0.7373  1.1905 -0.1250
 2858TIP3    H230134   5.813   2.986   0.016 -0.4539  0.4383 -1.6417
 2859TIP3   OH230135   3.305   0.932   0.839  0.0002 -0.7263  0.2078
 2859TIP3    H130136   3.225   0.981   0.859 -0.2087 -1.2091  0.5798
 2859TIP3    H230137   3.298   0.911   0.746  0.6714  0.9857 -0.2639
 2860TIP3   OH230138   6.650   3.622   7.697  0.7360  0.0050 -0.2043
 2860TIP3    H130139   6.729   3.592   7.740  1.3688  0.1867 -1.2034
 2860TIP3    H230140   6.578   3.591   7.753  1.5149  0.2701  0.9707
 2861TIP3   OH230141   0.485   5.428   1.668  0.3379 -0.3168 -0.1803
 2861TIP3    H130142   0.425   5.377   1.614 -1.5981  1.4682  0.1472
 2861TIP3    H230143   0.440   5.439   1.752  1.0886  1.0548  0.0863
 2862TIP3   OH230144   4.368   4.891   8.615 -0.2094 -0.0305  0.0727
 2862TIP3    H130145   4.287   4.856   8.652 -0.4661  0.1467 -0.3184
 2862TIP3    H230146   4.362   4.985   8.628 -0.1399 -0.0018 -0.0991
 2863TIP3   OH230147   1.137   1.173   1.854  0.4467  0.4555  0.1504
 2863TIP3    H130148   1.153   1.219   1.936  1.3733  0.8686 -0.2549
 2863TIP3    H230149   1.066   1.112   1.875  0.2762  0.9601  1.1004
 2864TIP3   OH230150   5.342   5.045   0.412  0.2146  0.2195  0.4223
 2864TIP3    H130151   5.267   5.087   0.454 -0.7308 -0.3091 -0.6769
 2864TIP3    H230152   5.331   5.066   0.319 -0.2475 -2.3668 -0.1644
 2865TIP3   OH230153   6.353   5.635   8.865 -0.2559  0.0199 -0.2184
 2865TIP3    H130154   6.346   5.582   8.944 -1.5050  0.4656 -0.0094
 2865TIP3    H230155   6.396   5.578   8.802  1.7383  0.0095  1.0609
 2866TIP3   OH230156   4.988   4.380   0.871  0.7008  0.2483  0.0258
 2866TIP3    H130157   4.963   4.289   0.884 -0.3147  0.3326 -1.1444
 2866TIP3    H230158   4.992   4.417   0.960 -1.5118 -0.2806  0.4001
 2867TIP3   OH230159   0.539   4.786   7.632  0.5295 -0.0862  0.4914
 2867TIP3    H130160   0.525   4.710   7.575 -0.2333 -0.5687  1.2836
 2867TIP3    H230161   0.630   4.809   7.619  0.4672 -0.3955 -0.6607
 2868TIP3   OH230162   1.422   4.636   7.817  0.2870  0.2322 -0.3208
 2868TIP3    H130163   1.336   4.623   7.775 -0.5495  2.6298  0.4397
 2868TIP3    H230164   1.485   4.627   7.746 -0.7890  0.5066 -1.3445
 2869TIP3   OH230165   0.073   5.043   0.554 -0.0575  0.2783 -0.7461
 2869TIP3    H130166   0.131   4.994   0.613 -2.1216  0.8012  1.9531
 2869TIP3    H230167   0.094   5.135   0.571 -2.1355  0.5197  1.0046
 2870TIP3   OH230168   5.195   3.643   2.249 -0.8787  0.6958 -0.2352
 2870TIP3    H130169   5.213   3.649   2.343 -1.3751  1.4484 -0.1837
 2870TIP3    H230170   5.180   3.550   2.234 -0.5305  0.5293  0.3796
 2871TIP3   OH230171   4.688   2.808   1.584  0.1852 -0.3077 -0.1061
 2871TIP3    H130172   4.613   2.748   1.583  0.6095 -0.8792  1.0326
 2871TIP3    H230173   4.722   2.803   1.673 -1.5613  3.9677  1.0421
 2872TIP3   OH230174   5.061   1.457   0.721 -0.1481 -0.1174 -0.7151
 2872TIP3    H130175   5.061   1.552   0.706 -0.8111  0.0297  0.1145
 2872TIP3    H230176   5.150   1.438   0.751  0.3615  0.0244 -2.0451
 2873TIP3   OH230177   6.728   2.833   2.275  0.4232 -0.6742  0.2412
 2873TIP3    H130178   6.778   2.775   2.333 -0.3146 -1.9014 -0.3124
 2873TIP3    H230179   6.741   2.920   2.312  2.3407 -1.0492  0.5381
 2874TIP3   OH230180   3.325   5.275   2.754  0.5158 -0.2029 -0.7167
 2874TIP3    H130181   3.395   5.275   2.690  0.4087 -5.3460 -1.2975
 2874TIP3    H230182   3.370   5.274   2.839  0.7668  2.8585 -0.7204
 2875TIP3   OH230183   2.710   0.414   0.254  0.0235  0.1256  0.9304
 2875TIP3    H130184   2.698   0.509   0.250  2.0629  0.5116  2.5476
 2875TIP3    H230185   2.752   0.392   0.171  0.5976  0.8222  1.0334
 2876TIP3   OH230186   2.477   3.950   8.270 -0.1191 -0.0527 -0.8899
 2876TIP3    H130187   2.533   3.875   8.290  0.7039  0.0626 -2.5734
 2876TIP3    H230188   2.416   3.917   8.204 -1.8507 -0.0625  0.6368
 2877TIP3   OH230189   1.048   2.092   1.577 -1.1029  0.0318  0.2657
 2877TIP3    H130190   1.138   2.073   1.550 -1.1972 -0.9090  0.5710
 2877TIP3    H230191   1.031   2.179   1.543  0.2163  0.5910  0.9258
 2878TIP3   OH230192   0.506   4.109   8.126  0.1249 -0.3907  0.1631
 2878TIP3    H130193   0.433   4.132   8.182  1.3122 -0.1515  1.6721
 2878TIP3    H230194   0.481   4.143   8.040 -1.2375  0.2568  0.7794
 2879TIP3   OH230195   4.475   0.113   7.106  0.1895 -0.0777  0.2147
 2879TIP3    H130196   4.423   0.166   7.045 -0.8185 -0.0120  1.0860
 2879TIP3    H230197   4.555   0.092   7.058 -0.0256  1.0091 -0.6737
 2880TIP3   OH230198   4.838   2.540   7.816  0.4071 -0.0322  0.2898
 2880TIP3    H130199   4.862   2.519   7.726  1.4428 -0.1143  0.5696
 2880TIP3    H230200   4.880   2.471   7.868  1.0801  0.8540  0.9513
 2881TIP3   OH230201   0.490   4.717   8.126  0.6425 -0.3605 -0.0465
 2881TIP3    H130202   0.515   4.674   8.208  0.7851 -0.7328 -0.2794
 2881TIP3    H230203   0.481   4.809   8.149 -0.4327 -0.6185  0.6376
 2882TIP3   OH230204   4.407   6.178   8.257  0.1152 -0.1147  0.1626
 2882TIP3    H130205   4.367   6.091   8.266 -0.7695 -0.0187 -2.0709
 2882TIP3    H230206   4.499   6.160   8.238  0.0145 -0.5639  0.0776
 2883TIP3   OH230207   0.982   1.309   8.547 -0.6726 -0.3876  0.5546
 2883TIP3    H130208   1.008   1.339   8.460  1.8906 -0.0125  1.3661
 2883TIP3    H230209   1.047   1.242   8.569 -1.4845 -0.7164  2.0501
 2884TIP3   OH230210   4.818   0.118   1.713 -0.3069  0.3389  0.3467
 2884TIP3    H130211   4.820   0.159   1.626  0.2598  1.3669  0.8260
 2884TIP3    H230212   4.908   0.088   1.726  0.0541  1.7605  1.2923
 2885TIP3   OH230213   0.896   1.984   8.181 -0.3212 -0.6216 -0.1562
 2885TIP3    H130214   0.911   2.076   8.159 -1.8386 -0.2606  0.1731
 2885TIP3    H230215   0.894   1.939   8.096 -0.0934 -0.2619 -0.3524
 2886TIP3   OH230216   1.733   3.638   2.468 -0.6088  0.0673 -0.5206
 2886TIP3    H130217   1.699   3.727   2.476 -1.4502 -0.2889 -0.0844
 2886TIP3    H230218   1.657   3.584   2.447  0.1616 -0.3079 -2.6974
 2887TIP3   OH230219   1.038   4.102   8.202 -0.0267 -0.2582  0.0666
 2887TIP3    H130220   1.090   4.090   8.281  0.3304  0.0800 -0.1163
 2887TIP3    H230221   0.965   4.158   8.229  0.3377  0.2244  0.0528
 2888TIP3   OH230222   4.438   4.789   1.075 -0.0511  0.3121 -0.6580
 2888TIP3    H130223   4.503   4.833   1.129 -1.2654  0.0822  1.0753
 2888TIP3    H230224   4.356   4.837   1.090 -1.1707 -1.7646  0.4464
 2889TIP3   OH230225   3.697   6.733   2.625 -0.4740  0.2971  0.3884
 2889TIP3    H130226   3.748   6.653   2.633  0.9131  1.3329  2.7119
 2889TIP3    H230227   3.695   6.770   2.713 -1.2108  2.7470 -0.5644
 2890TIP3   OH230228   3.375   3.714   1.165 -0.1147  0.0394  0.1159
 2890TIP3    H130229   3.467   3.694   1.155  0.1792  1.0173  0.6700
 2890TIP3    H230230   3.368   3.808   1.146 -1.4875 -0.5479 -2.8500
 2891TIP3   OH230231   0.705   1.157   0.029 -0.3351 -0.3538 -0.1189
 2891TIP3    H130232   0.746   1.186   0.111  0.2049  0.4423 -0.6544
 2891TIP3    H230233   0.621   1.203   0.027  0.6128  1.4512 -1.0717
 2892TIP3   OH230234   3.590   6.126   1.250 -0.3130  0.1664  0.9233
 2892TIP3    H130235   3.495   6.131   1.266 -0.6414  1.1441 -0.9900
 2892TIP3    H230236   3.604   6.037   1.218 -0.3548 -0.3791  2.3567
 2893TIP3   OH230237   5.483   0.729   7.741 -0.1366  0.5256 -0.1324
 2893TIP3    H130238   5.556   0.680   7.779 -0.3559  0.7903  0.6498
 2893TIP3    H230239   5.405   0.685   7.775 -0.3424  1.6412  0.9075
 2894TIP3   OH230240   5.646   3.043   7.427 -0.6768  0.2538 -0.5967
 2894TIP3    H130241   5.596   2.988   7.367 -0.8482 -0.3207  0.0604
 2894TIP3    H230242   5.716   3.080   7.372 -0.0206 -1.3146 -0.8854
 2895TIP3   OH230243   6.551   2.022   0.793 -0.3115 -0.5797 -0.1534
 2895TIP3    H130244   6.460   2.028   0.822  0.2225  0.6281  1.3945
 2895TIP3    H230245   6.546   1.982   0.706 -2.4997  1.3786 -1.0206
 2896TIP3   OH230246   5.242   4.253   1.739  0.6496  0.1561  0.0618
 2896TIP3    H130247   5.169   4.216   1.790  0.2286  0.5524 -0.2462
 2896TIP3    H230248   5.295   4.177   1.715 -0.3465 -0.2999 -0.7895
 2897TIP3   OH230249   6.051   0.375   8.726  0.4724  0.0111  0.2678
 2897TIP3    H130250   6.002   0.376   8.808 -1.0744 -1.9490 -0.5473
 2897TIP3    H230251   6.013   0.303   8.676  2.6386 -0.0840 -1.4141
 2898TIP3   OH230252   5.380   0.576   0.116 -0.0884 -0.0353 -0.7315
 2898TIP3    H130253   5.285   0.566   0.118 -0.2472  1.4700 -0.1271
 2898TIP3    H230254   5.410   0.529   0.194 -0.4745  0.7652 -0.0892
 2899TIP3   OH230255   6.193   2.698   8.454  0.1920  0.0292  0.1151
 2899TIP3    H130256   6.232   2.689   8.541  0.4166  1.1617  0.1437
 2899TIP3    H230257   6.232   2.626   8.404  1.0598  0.1345  0.6055
 2900TIP3   OH230258   1.190   5.892   7.420 -0.4184  0.4376  0.2068
 2900TIP3    H130259   1.174   5.855   7.507 -0.6399 -0.3663 -0.1689
 2900TIP3    H230260   1.252   5.963   7.435  1.4392 -1.2185  0.7306
 2901TIP3   OH230261   5.435   4.596   2.513 -0.0770 -0.4932 -1.0663
 2901TIP3    H130262   5.514   4.643   2.483  1.2205 -1.5320  0.5697
 2901TIP3    H230263   5.459   4.560   2.598 -2.9730  0.7290  0.3988
 2902TIP3   OH230264   3.953   0.060   8.338  0.0707 -0.1226 -0.2258
 2902TIP3    H130265   3.890   0.017   8.396  0.8861 -1.4937 -0.3255
 2902TIP3    H230266   3.963   0.148   8.375 -0.9749 -0.2846  0.4930
 2903TIP3   OH230267   0.554   1.437   1.860 -0.0954 -0.7982  0.4764
 2903TIP3    H130268   0.628   1.430   1.799 -0.4198 -1.3299  0.1414
 2903TIP3    H230269   0.577   1.378   1.932 -0.4267 -1.3661  0.1247
 2904TIP3   OH230270   2.606   1.853   0.245  0.0027  0.0904  1.0401
 2904TIP3    H130271   2.614   1.783   0.309  0.9769 -1.0873 -0.3225
 2904TIP3    H230272   2.621   1.811   0.160 -0.7861  1.6808  0.0538
 2905TIP3   OH230273   4.820   3.376   2.133 -0.5296  0.7632 -0.0179
 2905TIP3    H130274   4.765   3.310   2.175  0.1348  0.1922 -0.0195
 2905TIP3    H230275   4.770   3.457   2.140 -1.5867  0.1698 -0.4600
 2906TIP3   OH230276   0.496   1.335   1.049  0.4400 -0.8741 -0.1760
 2906TIP3    H130277   0.429   1.317   1.115 -0.6559  2.1767 -0.3075
 2906TIP3    H230278   0.558   1.263   1.058 -1.7335 -2.6948  1.4134
 2907TIP3   OH230279   1.298   3.896   7.737  0.0349 -0.3009  0.4242
 2907TIP3    H130280   1.353   3.966   7.703  2.9103 -1.5885  2.0534
 2907TIP3    H230281   1.218   3.940   7.766  0.6307  1.8481 -0.9898
 2908TIP3   OH230282   6.558   0.285   7.239 -0.0576 -0.7475  0.1308
 2908TIP3    H130283   6.586   0.328   7.158  0.7862 -1.3489  0.0834
 2908TIP3    H230284   6.640   0.254   7.278 -0.5378 -1.2191  0.7753
 2909TIP3   OH230285   5.472   1.516   8.016  0.5731  0.0255 -0.1388
 2909TIP3    H130286   5.514   1.527   7.931 -1.2686 -0.0513 -1.1093
 2909TIP3    H230287   5.472   1.421   8.031  1.0834  0.0542  0.0498
 2910TIP3   OH230288   6.682   0.979   0.297  0.5561 -0.0044 -0.2037
 2910TIP3    H130289   6.707   0.894   0.333  0.6777  0.0309 -0.2040
 2910TIP3    H230290   6.597   0.997   0.336  1.4910  0.8935  1.5363
 2911TIP3   OH230291   1.363   5.950   1.419  0.6147 -0.3178  0.3493
 2911TIP3    H130292   1.449   5.991   1.425  0.3813  0.2598 -0.1840
 2911TIP3    H230293   1.382   5.856   1.411  1.2914 -0.0555 -1.8173
 2912TIP3   OH230294   1.039   3.610   7.373 -0.0721 -0.0201 -0.2267
 2912TIP3    H130295   1.105   3.569   7.428 -0.7668 -1.4047 -0.3850
 2912TIP3    H230296   0.980   3.654   7.435 -0.7434 -1.4095  0.1587
 2913TIP3   OH230297   2.887   6.052   0.068  0.2205  0.1349  0.1961
 2913TIP3    H130298   2.796   6.081   0.071  0.5239  1.0560  1.7397
 2913TIP3    H230299   2.931   6.117   0.014 -0.3846 -1.5204 -2.4339
 2914TIP3   OH230300   6.136   6.539   8.107 -0.3125 -0.4367  0.1977
 2914TIP3    H130301   6.155   6.485   8.031  3.4025  1.3065 -0.3453
 2914TIP3    H230302   6.045   6.566   8.095 -0.6299 -2.2353 -2.2504
 2915TIP3   OH230303   4.237   4.956   1.154  0.0519 -0.3212 -0.2912
 2915TIP3    H130304   4.208   5.043   1.126 -1.6099 -1.2834 -1.8412
 2915TIP3    H230305   4.194   4.942   1.238  2.4416  1.3177  1.3197
 2916TIP3   OH230306   0.831   2.941   7.436  0.1954  0.3971  0.3786
 2916TIP3    H130307   0.835   3.035   7.458 -0.3230  0.5967 -0.3453
 2916TIP3    H230308   0.788   2.939   7.351  1.6008 -0.4011 -0.3364
 2917TIP3   OH230309   0.621   6.043   3.289 -0.0673  0.3691  0.4514
 2917TIP3    H130310   0.591   5.953   3.305  0.9429 -0.1025 -0.2641
 2917TIP3    H230311   0.698   6.053   3.344 -0.1186  0.7802  0.4532
 2918TIP3   OH230312   5.425   5.590   1.251  0.0115  0.5217 -0.0842
 2918TIP3    H130313   5.456   5.508   1.290  1.7394  0.7846 -0.8504
 2918TIP3    H230314   5.470   5.658   1.300 -0.2651  0.9626 -0.4422
 2919TIP3   OH230315   3.372   3.403   8.365 -0.3534 -0.0909  0.1923
 2919TIP3    H130316   3.330   3.486   8.341 -1.3488 -0.3074  1.1276
 2919TIP3    H230317   3.308   3.359   8.421  0.8315 -0.7717  1.0479
 2920TIP3   OH230318   2.402   4.017   6.850  0.6517  0.4538 -0.0439
 2920TIP3    H130319   2.460   4.024   6.926  1.2473 -1.1954 -0.3013
 2920TIP3    H230320   2.315   4.038   6.884  0.6806 -1.5090  1.4498
 2921TIP3   OH230321   1.552   2.652   8.537  0.2560 -0.3513 -0.0839
 2921TIP3    H130322   1.559   2.673   8.630  0.4952  0.3067 -0.2434
 2921TIP3    H230323   1.622   2.590   8.521 -0.7455 -1.6837  0.4947
 2922TIP3   OH230324   5.694   2.388   8.536 -0.1585 -0.1995 -0.2583
 2922TIP3    H130325   5.768   2.446   8.516  0.5768 -1.2376 -0.6436
 2922TIP3    H230326   5.734   2.302   8.550 -1.3644 -1.0138 -1.5001
 2923TIP3   OH230327   0.165   5.619   7.061  0.0431 -0.5638  0.2868
 2923TIP3    H130328   0.121   5.542   7.096  0.6700 -1.0774 -0.0454
 2923TIP3    H230329   0.105   5.692   7.081  0.1612 -0.8964  1.9913
 2924TIP3   OH230330   1.471   1.696   8.834  0.0526  0.2865  0.8988
 2924TIP3    H130331   1.542   1.754   8.862  0.1702 -0.1658  1.5807
 2924TIP3    H230332   1.433   1.739   8.758  0.4253  1.0258  1.1207
 2925TIP3   OH230333   3.468   5.755   6.794 -0.7850  0.1650  0.3836
 2925TIP3    H130334   3.555   5.767   6.755 -1.0787 -0.3380 -0.4566
 2925TIP3    H230335   3.418   5.708   6.726 -1.5930  0.1120  1.0077
 2926TIP3   OH230336   1.864   4.276   7.939  0.0308 -0.0102  0.2180
 2926TIP3    H130337   1.777   4.291   7.903  0.1614 -0.2644 -0.2116
 2926TIP3    H230338   1.918   4.346   7.901  0.2630 -0.5309 -0.4335
 2927TIP3   OH230339   6.267   2.981   8.695 -0.4531 -0.1870  0.0642
 2927TIP3    H130340   6.354   2.995   8.657  0.0121 -2.1540  0.3157
 2927TIP3    H230341   6.284   2.952   8.784 -1.3717 -0.4838  0.1503
 2928TIP3   OH230342   2.184   3.384   1.899  0.8733  0.0408  0.1431
 2928TIP3    H130343   2.237   3.304   1.897  1.1227  0.1989  0.3223
 2928TIP3    H230344   2.242   3.451   1.862  0.1663 -0.1493 -1.3976
 2929TIP3   OH230345   5.167   4.415   2.708 -0.0803  0.3380  0.0126
 2929TIP3    H130346   5.161   4.371   2.792 -0.7698 -1.7829 -1.0654
 2929TIP3    H230347   5.240   4.371   2.663 -1.8414 -1.0062 -1.7374
 2930TIP3   OH230348   2.554   6.230   7.051  1.0001 -0.4247  0.2243
 2930TIP3    H130349   2.610   6.307   7.059 -0.9516  0.9020  1.8749
 2930TIP3    H230350   2.560   6.187   7.136 -1.5362  0.5671  0.9855
 2931TIP3   OH230351   5.410   2.022   8.098  0.6835  0.4120 -0.0553
 2931TIP3    H130352   5.467   2.029   8.174  0.5877 -0.4659  0.1067
 2931TIP3    H230353   5.385   1.930   8.095 -1.7739  0.9784  0.6388
 2932TIP3   OH230354   3.463   4.103   1.575 -0.0080 -0.5113  0.2965
 2932TIP3    H130355   3.543   4.056   1.598 -1.0605 -1.8465  1.3802
 2932TIP3    H230356   3.480   4.139   1.488  1.7072 -0.8694  0.4508
 2933TIP3   OH230357   4.841   5.142   8.757 -0.5869 -0.3490  0.7648
 2933TIP3    H130358   4.884   5.200   8.694 -0.5170 -0.6144  0.5681
 2933TIP3    H230359   4.898   5.145   8.834  1.7437 -3.3465 -0.6321
 2934TIP3   OH230360   4.370   5.831   0.443 -0.0880 -0.1526  0.6307
 2934TIP3    H130361   4.410   5.746   0.424  1.6064  0.3819  1.5986
 2934TIP3    H230362   4.443   5.885   0.475 -1.1068  1.6795 -0.0002
 2935TIP3   OH230363   4.558   2.550   1.955 -0.2820 -0.0299  0.1506
 2935TIP3    H130364   4.628   2.501   1.912  0.7756  0.7745  0.8954
 2935TIP3    H230365   4.483   2.491   1.953  0.3451 -0.8443 -0.8478
 2936TIP3   OH230366   6.481   0.854   0.657  0.3935 -0.0777  0.5793
 2936TIP3    H130367   6.430   0.793   0.711 -0.6114 -2.1265 -2.3977
 2936TIP3    H230368   6.569   0.817   0.655  0.2046 -0.5330  0.1747
 2937TIP3   OH230369   3.203   6.068   7.563 -0.3045 -0.1665  0.1510
 2937TIP3    H130370   3.240   6.008   7.500 -2.3002 -0.1097 -1.1687
 2937TIP3    H230371   3.202   6.153   7.518 -2.1757 -0.2204  0.0108
 2938TIP3   OH230372   1.018   6.265   7.814  0.2281 -0.0966 -0.1015
 2938TIP3    H130373   1.105   6.293   7.844  0.9562 -1.2221 -1.0649
 2938TIP3    H230374   0.990   6.335   7.754 -0.9803  1.8619  2.5588
 2939TIP3   OH230375   5.792   4.704   1.344 -0.1079 -0.0056 -0.0291
 2939TIP3    H130376   5.826   4.747   1.423 -0.2055 -0.7859  0.4458
 2939TIP3    H230377   5.701   4.684   1.365 -0.0967 -0.3335 -0.2901
 2940TIP3   OH230378   3.342   2.913   2.092  0.2650 -0.0474 -0.2874
 2940TIP3    H130379   3.299   2.998   2.094 -1.2151 -0.7438 -0.8730
 2940TIP3    H230380   3.435   2.933   2.081  0.0667  1.4991  0.5560
 2941TIP3   OH230381   4.211   4.718   6.835 -0.7477  0.0425  0.2290
 2941TIP3    H130382   4.132   4.664   6.840  0.4329 -1.9444 -1.0470
 2941TIP3    H230383   4.282   4.655   6.824  0.7724  1.8581 -0.9572
 2942TIP3   OH230384   5.142   4.224   2.968  0.6639 -0.0471  0.0745
 2942TIP3    H130385   5.067   4.192   3.018  0.1533 -0.2887 -0.8152
 2942TIP3    H230386   5.165   4.152   2.910  0.6020  0.5654 -0.7364
 2943TIP3   OH230387   3.495   0.860   2.207 -0.3583  0.6350 -0.3036
 2943TIP3    H130388   3.413   0.908   2.211 -1.0417 -0.2980 -2.1503
 2943TIP3    H230389   3.501   0.829   2.117  1.5410 -0.1608  0.0433
 2944TIP3   OH230390   5.425   2.620   1.328 -0.3004 -0.2006  0.4178
 2944TIP3    H130391   5.365   2.635   1.255 -1.3684 -2.5159  0.7384
 2944TIP3    H230392   5.413   2.528   1.350  3.6304 -0.8715  0.3342
 2945TIP3   OH230393   3.131   2.014   7.674 -0.0233 -0.0914  0.1574
 2945TIP3    H130394   3.061   1.948   7.668  0.5588 -0.9844  2.2365
 2945TIP3    H230395   3.097   2.079   7.736  1.2801 -1.0040  1.9035
 2946TIP3   OH230396   4.545   3.397   8.289 -0.1499  0.0661 -0.7119
 2946TIP3    H130397   4.479   3.429   8.350  0.4073 -3.2805  1.9999
 2946TIP3    H230398   4.495   3.352   8.221 -0.8347 -1.5288  0.7520
 2947TIP3   OH230399   4.368   1.438   0.185  0.7980 -0.2804  0.0712
 2947TIP3    H130400   4.376   1.532   0.165  0.2788 -0.2264  0.0960
 2947TIP3    H230401   4.291   1.433   0.242  0.5212 -0.7811 -0.3458
 2948TIP3   OH230402   0.880   2.479   7.670 -0.1530  0.2329 -0.0319
 2948TIP3    H130403   0.861   2.540   7.740  0.0679  0.5270 -0.2294
 2948TIP3    H230404   0.924   2.531   7.603  2.1748 -0.5875  0.7503
 2949TIP3   OH230405   1.748   2.484   8.500 -0.5630  0.2760  0.4837
 2949TIP3    H130406   1.744   2.426   8.424 -0.6349 -0.5945  1.1347
 2949TIP3    H230407   1.834   2.526   8.494  1.2108 -2.7896  2.0359
 2950TIP3   OH230408   1.214   3.836   7.267 -0.3591 -0.1805 -0.5139
 2950TIP3    H130409   1.211   3.781   7.344  0.3692  0.7611  0.2166
 2950TIP3    H230410   1.308   3.850   7.251 -0.5259  1.1761 -0.4123
 2951TIP3   OH230411   3.908   6.645   8.125  0.0309 -0.5164  0.1850
 2951TIP3    H130412   3.928   6.731   8.087  0.0955  0.3600  2.0936
 2951TIP3    H230413   3.830   6.660   8.178  0.2912 -1.5302  0.8819
 2952TIP3   OH230414   2.242   5.670   8.215 -0.1358  0.6070 -0.0427
 2952TIP3    H130415   2.325   5.645   8.254  0.0782  0.1316 -0.7781
 2952TIP3    H230416   2.227   5.606   8.146 -1.0181  0.8018 -0.0547
 2953TIP3   OH230417   4.000   4.425   1.738  0.1607  0.2614 -0.5118
 2953TIP3    H130418   3.967   4.497   1.793  1.8029  0.1828  0.6647
 2953TIP3    H230419   4.032   4.360   1.801 -0.8482 -1.3224 -1.5539
 2954TIP3   OH230420   2.617   5.991   3.151  0.1903  0.0423  0.6887
 2954TIP3    H130421   2.583   6.075   3.184 -0.1164 -0.2226  1.0576
 2954TIP3    H230422   2.712   6.001   3.153  0.1606  0.2856  0.9817
 2955TIP3   OH230423   2.393   5.066   2.471  0.1590 -0.2883  0.4564
 2955TIP3    H130424   2.356   5.039   2.555  1.0956 -2.4013  0.2563
 2955TIP3    H230425   2.381   4.990   2.414 -2.0601  1.6602 -1.9300
 2956TIP3   OH230426   3.390   0.658   0.459 -0.0675 -0.0749  0.1600
 2956TIP3    H130427   3.348   0.655   0.545 -1.4657 -1.5163 -0.5233
 2956TIP3    H230428   3.320   0.685   0.399  1.0230  1.4807 -0.4966
 2957TIP3   OH230429   2.337   1.166   7.870  1.0993  0.6308  0.5551
 2957TIP3    H130430   2.242   1.174   7.875  0.9717 -0.8324  1.2015
 2957TIP3    H230431   2.364   1.148   7.960  2.0267  1.2528  0.4183
 2958TIP3   OH230432   0.728   4.878   0.951  0.0901 -0.2698  0.4884
 2958TIP3    H130433   0.669   4.819   0.903 -0.2760 -1.0838  1.8637
 2958TIP3    H230434   0.681   4.896   1.033 -0.1982  2.6579 -0.2074
 2959TIP3   OH230435   4.588   2.230   0.326  0.1444 -0.0895  0.3851
 2959TIP3    H130436   4.667   2.190   0.289 -0.5506 -0.2569 -0.9852
 2959TIP3    H230437   4.602   2.227   0.421  1.5624 -0.5551  0.1896
 2960TIP3   OH230438   0.712   3.099   8.065  0.2550 -0.7254 -0.0179
 2960TIP3    H130439   0.770   3.119   7.992  0.6502  2.2997  0.9884
 2960TIP3    H230440   0.626   3.129   8.036  0.1339 -0.8106  0.2536
 2961TIP3   OH230441   1.143   1.979   7.925 -0.3918  0.2033  0.0203
 2961TIP3    H130442   1.070   1.956   7.982 -0.9434 -0.8222 -1.0524
 2961TIP3    H230443   1.102   2.001   7.841  0.5461 -1.4010 -0.9208
 2962TIP3   OH230444   3.895   2.964   0.717  0.2367 -0.8635 -0.2498
 2962TIP3    H130445   3.896   2.942   0.810  1.0028 -0.2590 -0.1044
 2962TIP3    H230446   3.839   2.897   0.677 -1.2151 -0.3478  0.8273
 2963TIP3   OH230447   6.034   3.137   1.587  0.3552 -0.5248  0.2332
 2963TIP3    H130448   5.994   3.160   1.671 -0.3499  0.8259 -0.4464
 2963TIP3    H230449   6.120   3.179   1.588  0.5241 -0.8692  0.4426
 2964TIP3   OH230450   2.649   1.590   1.525  0.3571 -0.0371  0.6957
 2964TIP3    H130451   2.648   1.636   1.441  1.5448  0.1223  0.7546
 2964TIP3    H230452   2.577   1.630   1.575 -1.2418 -1.0278 -0.6722
 2965TIP3   OH230453   5.891   1.477   0.114 -0.3955 -0.4521 -0.4650
 2965TIP3    H130454   5.861   1.423   0.187 -2.6065  0.7314 -0.4230
 2965TIP3    H230455   5.837   1.449   0.040 -2.2323  2.2013 -0.2403
 2966TIP3   OH230456   5.705   1.215   2.558  0.6737 -0.1879 -0.4775
 2966TIP3    H130457   5.745   1.224   2.472  0.6852 -2.7682 -0.8126
 2966TIP3    H230458   5.777   1.193   2.616  0.6478  1.4210  0.2124
 2967TIP3   OH230459   1.426   0.554   2.232 -0.1468  0.3883  0.2088
 2967TIP3    H130460   1.424   0.649   2.220  1.7682  0.3111 -1.5239
 2967TIP3    H230461   1.494   0.540   2.298  0.9357  0.2156 -0.8910
 2968TIP3   OH230462   3.059   2.971   7.851 -0.5322 -0.5232  0.1774
 2968TIP3    H130463   3.107   2.969   7.934  1.1674 -0.1157 -0.7389
 2968TIP3    H230464   3.080   3.057   7.813 -1.5280 -0.5778 -0.5437
 2969TIP3   OH230465   3.705   6.407   1.783 -0.1494 -0.0972  0.5969
 2969TIP3    H130466   3.769   6.429   1.715 -0.8785  0.5372  0.1064
 2969TIP3    H230467   3.734   6.322   1.817  1.4914  0.5871  1.0214
 2970TIP3   OH230468   3.958   0.466   7.828 -0.4526  0.2581 -0.0475
 2970TIP3    H130469   3.912   0.506   7.755 -1.6393  1.1819  1.1476
 2970TIP3    H230470   3.959   0.533   7.896 -2.7811 -1.7435  2.1603
 2971TIP3   OH230471   3.928   3.472   0.981 -0.3325 -0.8356 -0.3121
 2971TIP3    H130472   4.018   3.498   0.964 -0.4538 -0.5602 -0.5341
 2971TIP3    H230473   3.878   3.510   0.909 -0.9744  1.0185  1.0429
 2972TIP3   OH230474   1.419   4.226   0.909 -0.6280 -0.1805 -0.0123
 2972TIP3    H130475   1.450   4.186   0.990 -1.8861  0.6552  0.9211
 2972TIP3    H230476   1.330   4.257   0.930 -0.1143  2.1814 -0.9569
 2973TIP3   OH230477   6.560   3.365   1.394 -0.3169 -0.2850 -0.2178
 2973TIP3    H130478   6.625   3.435   1.385 -0.9944  0.5886  1.3031
 2973TIP3    H230479   6.481   3.401   1.354  0.0548 -1.3071 -1.9715
 2974TIP3   OH230480   5.967   4.875   1.811 -0.0668  0.1742  0.1689
 2974TIP3    H130481   5.902   4.854   1.744 -0.1812 -0.9392  0.6008
 2974TIP3    H230482   5.926   4.846   1.893  1.3107 -1.4111  0.3501
 2975TIP3   OH230483   3.903   6.161   8.568 -0.2197  0.5971 -0.4528
 2975TIP3    H130484   3.828   6.144   8.626  1.1599  2.3288  2.0251
 2975TIP3    H230485   3.876   6.236   8.516 -0.0576  1.5559  0.8084
 2976TIP3   OH230486   5.718   5.973   1.974  0.5105  0.1443  0.1291
 2976TIP3    H130487   5.732   6.066   1.954 -1.3305  0.2100 -1.1211
 2976TIP3    H230488   5.739   5.965   2.067 -0.8292  2.1950  0.6752
 2977TIP3   OH230489   1.123   5.161   8.753 -1.0639 -0.1806 -0.2574
 2977TIP3    H130490   1.120   5.186   8.660 -0.5964 -0.7408 -0.4320
 2977TIP3    H230491   1.213   5.132   8.766 -1.2246 -0.4381  0.2839
 2978TIP3   OH230492   5.863   0.928   7.879 -0.6256 -0.0034  0.2417
 2978TIP3    H130493   5.774   0.958   7.862 -0.6353 -1.0592 -1.9517
 2978TIP3    H230494   5.873   0.935   7.974 -2.4613  1.6627  0.3786
 2979TIP3   OH230495   2.366   6.243   7.850  0.0249 -0.2790  0.2400
 2979TIP3    H130496   2.322   6.272   7.930 -0.7913  2.3676 -1.0469
 2979TIP3    H230497   2.459   6.249   7.869 -0.1626 -0.4379  1.2311
 2980TIP3   OH230498   6.346   4.312   2.925  0.2603  0.6049  0.3751
 2980TIP3    H130499   6.393   4.367   2.862  0.0247 -0.1037 -0.4317
 2980TIP3    H230500   6.353   4.360   3.007  0.6510  1.5050 -0.1630
 2981TIP3   OH230501   6.047   5.891   0.459  0.0473 -0.2883 -0.5528
 2981TIP3    H130502   6.006   5.977   0.461 -0.8635 -0.7112 -0.5106
 2981TIP3    H230503   6.009   5.845   0.534 -0.2696 -1.0716 -1.1792
 2982TIP3   OH230504   4.811   4.918   1.937 -0.0610 -0.7722  0.2672
 2982TIP3    H130505   4.819   4.987   2.002  0.1707 -0.9028  0.3771
 2982TIP3    H230506   4.857   4.951   1.860 -2.4706  0.4884 -0.7539
 2983TIP3   OH230507   3.162   1.218   1.695 -0.1949  0.4646 -0.0498
 2983TIP3    H130508   3.129   1.214   1.785  0.4211  1.4517  0.2254
 2983TIP3    H230509   3.128   1.137   1.655  1.4008 -1.1768  1.6828
 2984TIP3   OH230510   3.695   4.747   7.036  0.0708 -0.3592 -0.1485
 2984TIP3    H130511   3.716   4.657   7.061 -0.3662 -0.5101 -0.3095
 2984TIP3    H230512   3.695   4.746   6.940 -0.1068 -0.2308 -0.1509
 2985TIP3   OH230513   1.308   6.778   1.065  0.4415  0.5050  0.1123
 2985TIP3    H130514   1.297   6.817   1.151 -0.7663  2.3687 -0.8102
 2985TIP3    H230515   1.331   6.852   1.008 -1.5800 -0.1088 -1.6569
 2986TIP3   OH230516   2.231   2.747   8.523 -0.0057  0.3414 -0.1430
 2986TIP3    H130517   2.288   2.676   8.494 -0.7654 -1.0088  1.5108
 2986TIP3    H230518   2.290   2.809   8.566  0.4485 -0.1556 -0.0369
 2987TIP3   OH230519   0.521   5.803   8.574  0.1070  0.2616  0.2511
 2987TIP3    H130520   0.536   5.765   8.660 -0.3170 -0.8799 -0.1700
 2987TIP3    H230521   0.583   5.759   8.516 -0.7338 -0.1639 -0.3362
 2988TIP3   OH230522   0.053   4.533   7.543  0.2248 -0.1722  0.5741
 2988TIP3    H130523   0.109   4.609   7.523  0.7644 -0.3747  1.2803
 2988TIP3    H230524   0.115   4.459   7.547  0.0784 -0.2222  2.4840
 2989TIP3   OH230525   6.371   6.231   2.653 -0.3305 -0.0333  0.0078
 2989TIP3    H130526   6.404   6.239   2.743  0.5511 -1.3036 -0.1772
 2989TIP3    H230527   6.338   6.318   2.632 -1.3794  0.0638  1.8645
 2990TIP3   OH230528   6.324   3.925   8.237  0.1248 -0.3283  0.5144
 2990TIP3    H130529   6.378   3.913   8.315  2.5773 -1.2280 -1.2163
 2990TIP3    H230530   6.374   3.985   8.182 -0.6733 -1.1329 -1.1482
 2991TIP3   OH230531   5.844   5.425   8.065 -0.3461 -0.3658 -0.2377
 2991TIP3    H130532   5.839   5.520   8.055 -0.2691 -0.2932  0.3458
 2991TIP3    H230533   5.917   5.411   8.125 -1.5069 -0.6693  1.1580
 2992TIP3   OH230534   0.022   3.489   1.065  0.5188 -0.0442  0.3976
 2992TIP3    H130535   0.021   3.519   1.155  0.5888  0.0296  0.3744
 2992TIP3    H230536   0.019   3.394   1.071 -2.4262 -0.0205  0.4145
 2993TIP3   OH230537   3.609   2.097   1.533  0.1732 -0.0490 -0.3372
 2993TIP3    H130538   3.530   2.087   1.480  0.3775  1.8837 -1.1137
 2993TIP3    H230539   3.577   2.112   1.622 -0.3669  0.7888 -0.6580
 2994TIP3   OH230540   0.538   4.000   8.635 -0.4765  0.4723  0.3223
 2994TIP3    H130541   0.589   4.040   8.706 -0.4082  0.4943  0.2603
 2994TIP3    H230542   0.447   4.018   8.659 -0.4469  0.6616  0.2972
 2995TIP3   OH230543   1.640   3.445   1.477 -0.2971 -0.1958  0.0273
 2995TIP3    H130544   1.604   3.429   1.564 -0.1941  0.3197  0.1725
 2995TIP3    H230545   1.698   3.521   1.489 -0.3402 -0.0743 -0.5038
 2996TIP3   OH230546   5.602   2.081   8.324 -0.0979 -0.0388  0.0811
 2996TIP3    H130547   5.693   2.108   8.339 -0.5354  1.1884  0.6805
 2996TIP3    H230548   5.600   1.989   8.348  0.8757  0.0609  0.5870
 2997TIP3   OH230549   2.315   1.093   0.931 -0.2999 -0.3944  0.2733
 2997TIP3    H130550   2.309   1.123   1.022  0.8294  1.1431 -0.1187
 2997TIP3    H230551   2.383   1.148   0.892 -1.1203 -0.6595 -1.6483
 2998TIP3   OH230552   1.855   5.539   8.357 -0.1389  0.0480 -0.2057
 2998TIP3    H130553   1.830   5.630   8.375 -0.2645 -0.0830  0.2892
 2998TIP3    H230554   1.931   5.523   8.413 -0.6216 -0.4065  0.3303
 2999TIP3   OH230555   2.099   3.641   6.847  0.1518  0.4017  0.8028
 2999TIP3    H130556   2.112   3.719   6.901 -0.2006  2.0754 -1.3804
 2999TIP3    H230557   2.169   3.646   6.782 -0.7538 -0.2762 -0.2558
 3000TIP3   OH230558   6.064   3.456   1.749 -0.2708 -0.2978  0.3142
 3000TIP3    H130559   6.151   3.415   1.755 -0.9273 -1.4756  2.8324
 3000TIP3    H230560   6.040   3.447   1.656  0.8798 -3.0338  0.1879
 3001TIP3   OH230561   4.106   3.628   1.404  0.4414 -0.3260  0.1425
 3001TIP3    H130562   4.041   3.673   1.349  1.1250 -0.3863 -0.7340
 3001TIP3    H230563   4.090   3.662   1.492 -2.0069 -1.6932  0.3244
 3002TIP3   OH230564   0.716   5.616   8.605 -0.0364  0.0286 -0.6639
 3002TIP3    H130565   0.777   5.632   8.677  0.4775 -0.6477 -0.9353
 3002TIP3    H230566   0.749   5.536   8.563 -2.1281 -1.4227  0.2825
 3003TIP3   OH230567   2.108   3.487   2.257  0.2586  0.1920 -0.3414
 3003TIP3    H130568   2.029   3.463   2.305  0.3377 -2.3585 -1.3698
 3003TIP3    H230569   2.180   3.454   2.311  0.5037  0.2862 -0.6054
 3004TIP3   OH230570   1.717   6.565   7.038  0.9258 -0.5914  0.3871
 3004TIP3    H130571   1.630   6.535   7.011  1.3017 -0.9521 -0.4653
 3004TIP3    H230572   1.741   6.506   7.109  0.0366  0.1942  1.3856
 3005TIP3   OH230573   3.379   6.513   7.331 -0.3171  0.6409  0.1457
 3005TIP3    H130574   3.449   6.448   7.339  0.1994  0.7955 -2.3351
 3005TIP3    H230575   3.425   6.595   7.315 -1.0448  1.1179  0.4841
 3006TIP3   OH230576   1.032   4.769   1.825 -0.7698 -0.4565 -0.6168
 3006TIP3    H130577   1.128   4.770   1.822 -0.7398 -1.0373 -0.0039
 3006TIP3    H230578   1.010   4.687   1.870 -1.5123  0.3088  0.4699
 3007TIP3   OH230579   2.008   1.941   0.766 -0.2159 -0.4806  0.3191
 3007TIP3    H130580   1.929   1.995   0.771  1.7152  2.6068 -0.1482
 3007TIP3    H230581   2.016   1.918   0.673 -0.1043 -0.0389  0.2185
 3008TIP3   OH230582   6.582   2.847   0.355  0.1686  0.7574 -0.1044
 3008TIP3    H130583   6.628   2.774   0.396  1.3124  1.1961 -0.5615
 3008TIP3    H230584   6.489   2.824   0.360  0.4128 -0.0177  1.0998
 3009TIP3   OH230585   5.413   1.232   2.496 -0.0821  0.6332  0.3960
 3009TIP3    H130586   5.499   1.258   2.465  0.7268  0.4283  2.3477
 3009TIP3    H230587   5.421   1.231   2.591 -1.6101 -1.5405  0.5719
 3010TIP3   OH230588   6.155   2.569   7.812  0.1522  0.0772 -0.1350
 3010TIP3    H130589   6.153   2.563   7.717 -0.6015  3.7247 -0.5176
 3010TIP3    H230590   6.223   2.635   7.831  0.3098 -0.5767  1.8623
 3011TIP3   OH230591   3.862   4.696   2.184  0.1131 -0.1520 -0.3086
 3011TIP3    H130592   3.839   4.744   2.264 -0.5491  0.9597 -1.1411
 3011TIP3    H230593   3.865   4.605   2.212  0.1353  0.2317  1.0420
 3012TIP3   OH230594   2.389   0.092   2.109 -0.1297  0.1959  0.0631
 3012TIP3    H130595   2.474   0.052   2.129 -0.2065  0.4200  0.8630
 3012TIP3    H230596   2.375   0.156   2.179 -0.9896  0.1184 -0.0263
 3013TIP3   OH230597   2.860   6.203   2.500  0.5991  0.2294 -0.2048
 3013TIP3    H130598   2.897   6.116   2.491  1.1985  0.4159  0.3941
 3013TIP3    H230599   2.863   6.222   2.594 -0.7326  0.3794 -0.1649
 3014TIP3   OH230600   4.612   4.513   1.744  0.1536  0.3506 -0.0615
 3014TIP3    H130601   4.651   4.485   1.827  1.9883  1.8099 -0.3709
 3014TIP3    H230602   4.619   4.608   1.745 -1.6489  0.5456 -1.0464
 3015TIP3   OH230603   0.465   3.826   7.478 -0.1325  0.5492  0.4273
 3015TIP3    H130604   0.449   3.759   7.545 -0.6082  1.5461  1.3416
 3015TIP3    H230605   0.379   3.841   7.439 -0.1666  1.1392  0.7251
 3016TIP3   OH230606   3.013   0.989   1.618 -0.2564  0.6398 -0.2610
 3016TIP3    H130607   2.921   0.964   1.621  0.2492 -1.2821  0.0057
 3016TIP3    H230608   3.058   0.914   1.581  1.6157  0.2488  2.4739
 3017TIP3   OH230609   1.388   1.638   2.768  0.8980 -0.3393 -0.1529
 3017TIP3    H130610   1.299   1.602   2.767  1.2209 -1.4004 -3.5759
 3017TIP3    H230611   1.445   1.562   2.776  1.4963 -0.0098 -1.1062
 3018TIP3   OH230612   3.277   4.525   1.848  0.7314 -0.2328  0.0841
 3018TIP3    H130613   3.296   4.604   1.798  1.3792 -0.6356 -0.3189
 3018TIP3    H230614   3.214   4.476   1.794  1.4803 -0.6987 -0.3911
 3019TIP3   OH230615   5.163   5.030   1.463 -1.0261  0.5865  0.0164
 3019TIP3    H130616   5.116   5.110   1.487  0.5525  1.3328  0.7739
 3019TIP3    H230617   5.117   4.998   1.386 -1.9526  2.0059 -0.0638
 3020TIP3   OH230618   0.095   4.318   2.079  0.3452  0.4384 -0.0278
 3020TIP3    H130619   0.162   4.338   2.144  0.0813  0.5727  0.1999
 3020TIP3    H230620   0.058   4.234   2.108  0.5935  0.2309 -0.2989
 3021TIP3   OH230621   2.824   2.362   1.864  0.2297 -0.4888 -0.1198
 3021TIP3    H130622   2.900   2.305   1.847  0.9479  0.5856 -0.5861
 3021TIP3    H230623   2.852   2.418   1.936  0.3547  0.7218 -1.0686
 3022TIP3   OH230624   5.291   5.094   8.224 -0.5067 -0.2911 -0.1071
 3022TIP3    H130625   5.319   5.100   8.133  0.7393  0.3965  0.3018
 3022TIP3    H230626   5.372   5.092   8.275 -1.1786 -0.7853  0.9847
 3023TIP3   OH230627   1.414   3.866   0.462 -0.3718  1.0923 -0.2629
 3023TIP3    H130628   1.360   3.811   0.404  0.0766  0.3869 -0.0205
 3023TIP3    H230629   1.453   3.931   0.404  0.1680  0.3209 -0.7783
 3024TIP3   OH230630   0.519   2.534   1.755  0.0209 -0.0287 -0.0228
 3024TIP3    H130631   0.454   2.556   1.822 -0.7866 -0.9900 -0.4657
 3024TIP3    H230632   0.604   2.550   1.798 -0.4930  0.7387  0.7365
 3025TIP3   OH230633   2.046   6.490   1.131  0.2447 -0.0987 -0.5589
 3025TIP3    H130634   2.061   6.572   1.084  1.4459 -1.3754 -2.5393
 3025TIP3    H230635   2.008   6.432   1.065  0.0753 -1.3684  0.6212
 3026TIP3   OH230636   3.927   2.245   2.044  0.0614  0.0717  0.0485
 3026TIP3    H130637   3.952   2.232   2.136  0.9405  2.9436  0.3222
 3026TIP3    H230638   3.997   2.203   1.994 -1.0972 -2.7236  0.5410
 3027TIP3   OH230639   1.638   4.758   6.745  0.6001 -0.2872  0.3205
 3027TIP3    H130640   1.681   4.741   6.829  1.3697 -1.2862 -0.2482
 3027TIP3    H230641   1.707   4.797   6.691  0.2932 -0.2471 -0.0411
 3028TIP3   OH230642   6.227   2.648   7.530  0.5265  0.3451  0.3487
 3028TIP3    H130643   6.286   2.720   7.512  1.3013  0.0796  1.6613
 3028TIP3    H230644   6.143   2.675   7.493  0.9174  1.7035  0.4146
 3029TIP3   OH230645   6.691   3.922   0.713  0.0640  0.8496  0.1384
 3029TIP3    H130646   6.677   3.895   0.622  0.3323  0.0560  0.3256
 3029TIP3    H230647   6.672   3.844   0.765 -1.2000  1.5976  0.8661
 3030TIP3   OH230648   2.905   5.554   1.208  0.2024  0.1272 -0.5155
 3030TIP3    H130649   2.833   5.497   1.232 -1.5433  1.0672 -3.0746
 3030TIP3    H230650   2.919   5.610   1.285 -2.1311  0.2174 -0.1002
 3031TIP3   OH230651   4.759   0.192   2.630 -0.0275  0.2891  0.3164
 3031TIP3    H130652   4.800   0.221   2.711  0.7414 -0.0226  0.0415
 3031TIP3    H230653   4.782   0.259   2.566  0.6253 -0.2332  0.0006
 3032TIP3   OH230654   1.114   2.096   0.978 -0.1538 -0.5961 -0.4226
 3032TIP3    H130655   1.091   2.010   0.943  0.8828 -0.5364 -1.3221
 3032TIP3    H230656   1.081   2.096   1.068  0.2842 -2.1165 -0.2461
 3033TIP3   OH230657   2.716   6.011   7.618 -0.7186  0.0562  0.3060
 3033TIP3    H130658   2.746   6.101   7.608  0.6501 -0.4894 -0.7003
 3033TIP3    H230659   2.633   6.008   7.570 -0.3187  0.5752 -0.4395
 3034TIP3   OH230660   4.365   3.733   0.612 -0.1527  0.6074  0.3570
 3034TIP3    H130661   4.431   3.673   0.646 -1.0851 -1.2769 -0.9739
 3034TIP3    H230662   4.405   3.772   0.534 -0.1189  0.5047  0.3237
 3035TIP3   OH230663   3.089   6.252   8.807 -0.4473 -0.5051 -0.1068
 3035TIP3    H130664   3.017   6.291   8.757  1.3959  1.6010 -1.3155
 3035TIP3    H230665   3.076   6.284   8.897  0.3842  2.2080 -0.8480
 3036TIP3   OH230666   6.683   4.361   1.510 -0.5678 -0.3517  0.0733
 3036TIP3    H130667   6.683   4.327   1.599 -0.1670  0.2583  0.3178
 3036TIP3    H230668   6.759   4.321   1.468 -1.4417 -1.5957 -0.3948
 3037TIP3   OH230669   6.600   5.737   8.619  0.1599 -0.1996  0.1674
 3037TIP3    H130670   6.620   5.645   8.634  1.4316 -0.1877 -1.2146
 3037TIP3    H230671   6.679   5.784   8.647 -0.0635  0.3744 -0.1399
 3038TIP3   OH230672   5.432   1.933   0.800  0.3080  0.7021 -0.6640
 3038TIP3    H130673   5.472   2.007   0.755  0.9487  1.2308  0.6871
 3038TIP3    H230674   5.491   1.859   0.783 -0.7719  0.2553 -2.7039
 3039TIP3   OH230675   3.697   0.772   0.603 -0.0479  0.0785  0.4219
 3039TIP3    H130676   3.681   0.678   0.598 -1.9096  0.4105 -1.9498
 3039TIP3    H230677   3.766   0.788   0.538 -0.6872  0.4690 -0.1820
 3040TIP3   OH230678   1.835   4.216   7.550 -0.3095  0.2903 -0.1821
 3040TIP3    H130679   1.906   4.170   7.594  0.4993  1.0605 -0.6528
 3040TIP3    H230680   1.809   4.157   7.479 -0.3459 -0.1212  0.1690
 3041TIP3   OH230681   0.150   5.773   0.938  0.2106 -0.1894 -0.0956
 3041TIP3    H130682   0.190   5.695   0.977  0.6516 -0.1683 -0.4925
 3041TIP3    H230683   0.223   5.819   0.896  0.0475  0.6877  0.5373
 3042TIP3   OH230684   4.019   4.798   7.151 -0.1958  0.2345 -0.3408
 3042TIP3    H130685   3.955   4.728   7.163 -2.0214  1.9632  0.5873
 3042TIP3    H230686   3.969   4.879   7.167  1.5068  1.8342 -2.6023
 3043TIP3   OH230687   6.502   0.584   6.327 -0.3194  0.3425  0.0904
 3043TIP3    H130688   6.572   0.527   6.359 -1.3699  0.3740  2.7438
 3043TIP3    H230689   6.486   0.645   6.399 -2.1016  1.2754 -1.0073
 3044TIP3   OH230690   5.327   2.897   0.914  0.6351  0.4534  0.2295
 3044TIP3    H130691   5.313   2.991   0.906  0.3632  0.3991  0.0805
 3044TIP3    H230692   5.328   2.881   1.009  1.6320  0.7478  0.2816
 3045TIP3   OH230693   3.070   0.192   2.070 -0.3021  0.1254 -0.4787
 3045TIP3    H130694   3.003   0.178   2.137  0.4346  0.3949  0.3297
 3045TIP3    H230695   3.094   0.103   2.042 -0.8945  0.0221 -0.6873
 3046TIP3   OH230696   3.009   3.316   8.703 -0.2708  0.0643  0.4619
 3046TIP3    H130697   3.028   3.328   8.796 -0.4317 -0.0855  0.5126
 3046TIP3    H230698   2.929   3.367   8.688 -0.6831 -0.5398  0.5732
 3047TIP3   OH230699   2.116   1.837   0.527 -0.3133  0.4869 -0.3881
 3047TIP3    H130700   2.076   1.760   0.487  1.0965 -0.2279 -0.4780
 3047TIP3    H230701   2.177   1.869   0.461  0.4143  0.6190  0.3360
 3048TIP3   OH230702   3.791   2.217   7.642  0.6064 -0.2112 -0.6107
 3048TIP3    H130703   3.730   2.143   7.646  0.6433 -0.2628 -0.9311
 3048TIP3    H230704   3.742   2.290   7.680  1.3565 -0.8984  1.8256
 3049TIP3   OH230705   2.380   3.944   0.615 -0.6037  0.4573  0.5382
 3049TIP3    H130706   2.395   4.038   0.610 -2.1482  0.7171  0.0412
 3049TIP3    H230707   2.456   3.909   0.661 -0.4801  2.0708  1.6307
 3050TIP3   OH230708   0.628   5.376   2.471 -0.0709  0.6027  0.4687
 3050TIP3    H130709   0.551   5.343   2.425 -0.2391  0.2474  0.9942
 3050TIP3    H230710   0.617   5.471   2.471  1.1300  0.8649 -2.3309
 3051TIP3   OH230711   1.122   2.808   8.273 -0.0780  0.0648  0.0473
 3051TIP3    H130712   1.177   2.854   8.210 -0.5020  1.2336  0.5183
 3051TIP3    H230713   1.184   2.774   8.339  0.1217  1.1556  0.4417
 3052TIP3   OH230714   1.705   5.953   2.961  0.2968  0.6576 -0.5347
 3052TIP3    H130715   1.755   5.908   3.029  0.5524  1.5239 -0.1306
 3052TIP3    H230716   1.631   5.895   2.943  0.6432  0.0581 -0.0731
 3053TIP3   OH230717   1.875   0.449   8.619 -0.0806  0.8233  0.1126
 3053TIP3    H130718   1.916   0.404   8.692 -0.2093 -0.9368 -0.8487
 3053TIP3    H230719   1.788   0.472   8.651 -0.1968 -0.0887  0.4797
 3054TIP3   OH230720   4.160   6.261   0.065 -0.2376 -0.2520  0.2867
 3054TIP3    H130721   4.183   6.174   0.033  0.2659 -0.2323  0.5824
 3054TIP3    H230722   4.089   6.247   0.127  0.7797 -0.6074  1.3974
 3055TIP3   OH230723   3.143   0.355   2.445  0.2215  0.4631  0.3791
 3055TIP3    H130724   3.109   0.272   2.478 -0.7931  1.1875  1.2314
 3055TIP3    H230725   3.238   0.347   2.454  0.2087 -0.9841 -0.5198
 3056TIP3   OH230726   4.133   2.097   1.944  0.1513  0.2885  0.4391
 3056TIP3    H130727   4.103   2.016   1.904 -0.2563  0.1974  0.9214
 3056TIP3    H230728   4.179   2.143   1.873 -0.1496 -0.0804 -0.0054
 3057TIP3   OH230729   2.449   1.045   1.324  0.3154  0.2324  0.3495
 3057TIP3    H130730   2.511   1.117   1.335  1.0499 -0.1491 -1.1052
 3057TIP3    H230731   2.377   1.083   1.273  0.0265  0.3052  0.8099
 3058TIP3   OH230732   6.782   6.536   8.214 -0.2293 -0.3231 -0.3791
 3058TIP3    H130733   6.767   6.511   8.123 -0.0502 -0.3073 -0.4125
 3058TIP3    H230734   6.787   6.631   8.212  1.7699 -0.3887 -0.6648
 3059TIP3   OH230735   4.145   3.387   8.260  0.3993 -0.1574  0.1379
 3059TIP3    H130736   4.050   3.398   8.255  0.2778 -1.1065  0.2828
 3059TIP3    H230737   4.175   3.392   8.170  0.1159 -0.6314  0.0134
 3060TIP3   OH230738   2.053   1.193   8.199 -0.1268  0.0424  0.1726
 3060TIP3    H130739   2.025   1.251   8.270 -0.2362  0.9678 -0.6092
 3060TIP3    H230740   2.148   1.188   8.209  0.0803  1.6246 -0.6628
 3061TIP3   OH230741   4.312   0.544   2.212  0.2122 -0.0274  0.0673
 3061TIP3    H130742   4.279   0.532   2.301  0.0177 -0.7557 -0.0977
 3061TIP3    H230743   4.291   0.462   2.168  1.1368 -0.0229 -0.3907
 3062TIP3   OH230744   4.128   4.167   0.843  0.0599 -0.7324 -0.1634
 3062TIP3    H130745   4.177   4.181   0.762 -1.6728 -0.6886 -1.2639
 3062TIP3    H230746   4.195   4.155   0.910  1.6956  3.4150 -0.7327
 3063TIP3   OH230747   4.412   3.776   1.975  0.3023  0.4291  0.7594
 3063TIP3    H130748   4.450   3.703   1.927  0.4404  0.1648  1.2580
 3063TIP3    H230749   4.387   3.738   2.059 -0.8153  0.6579  0.5437
 3064TIP3   OH230750   5.082   4.444   7.225  0.4070  0.1952  0.2159
 3064TIP3    H130751   5.041   4.528   7.246 -1.7104 -1.1363  1.6666
 3064TIP3    H230752   5.023   4.404   7.161  0.0100 -1.2544  1.4541
 3065TIP3   OH230753   2.312   4.015   0.049  0.0784 -0.2401  0.2363
 3065TIP3    H130754   2.333   4.062   0.130  0.8774  0.9416 -0.6042
 3065TIP3    H230755   2.224   4.045   0.026 -0.0267 -0.3408  0.5040
 3066TIP3   OH230756   0.466   4.155   7.867 -0.7510  0.0723  0.0508
 3066TIP3    H130757   0.433   4.121   7.784  0.5327 -0.7801 -0.1317
 3066TIP3    H230758   0.559   4.172   7.850  0.6025 -3.8020  2.3124
 3067TIP3   OH230759   0.832   4.052   8.596 -0.2823  0.0339  0.5303
 3067TIP3    H130760   0.768   4.011   8.539  0.6079 -0.1288 -0.3787
 3067TIP3    H230761   0.825   4.146   8.576 -0.1428  0.0020  0.3274
 3068TIP3   OH230762   5.693   6.173   8.330 -0.5922  0.7464 -0.4657
 3068TIP3    H130763   5.635   6.111   8.374 -0.1377 -0.7142 -1.8043
 3068TIP3    H230764   5.654   6.259   8.347 -2.2573 -0.0448 -0.0284
 3069TIP3   OH230765   5.685   5.773   1.588 -0.7553  0.6914 -0.4136
 3069TIP3    H130766   5.604   5.742   1.628 -0.0532  0.5186  0.9266
 3069TIP3    H230767   5.667   5.865   1.567 -1.5094  0.4754 -0.7435
 3070TIP3   OH230768   2.203   5.729   0.662  0.9293  0.4820  0.1618
 3070TIP3    H130769   2.149   5.765   0.592  0.6385  1.2820  0.7925
 3070TIP3    H230770   2.240   5.649   0.624  1.9052  1.6118 -1.4062
 3071TIP3   OH230771   2.707   3.533   1.677 -0.2473  0.2717  0.0567
 3071TIP3    H130772   2.695   3.627   1.663  0.1652  0.2080 -0.7979
 3071TIP3    H230773   2.712   3.497   1.589 -0.0122 -0.5016  0.3846
 3072TIP3   OH230774   2.098   2.369   0.329  0.4642 -0.0134  0.2550
 3072TIP3    H130775   2.113   2.437   0.264  0.2271 -0.1582  0.0466
 3072TIP3    H230776   2.142   2.291   0.293  3.3956  0.7293  1.8738
 3073TIP3   OH230777   0.203   6.421   1.064 -0.1506 -0.4566  0.0867
 3073TIP3    H130778   0.128   6.468   1.100  0.7568  0.2965  1.0742
 3073TIP3    H230779   0.271   6.431   1.131  1.1271 -0.2995 -1.2024
 3074TIP3   OH230780   0.348   5.612   1.108 -0.0961  0.5510 -0.0217
 3074TIP3    H130781   0.402   5.544   1.149  0.4988 -0.6524 -2.5694
 3074TIP3    H230782   0.367   5.691   1.157  0.9680 -0.6453  1.6146
 3075TIP3   OH230783   3.697   1.894   6.929  0.0133 -0.5002 -0.2432
 3075TIP3    H130784   3.722   1.814   6.883 -2.1076 -0.4449 -1.6134
 3075TIP3    H230785   3.605   1.881   6.950 -0.4743  1.7384 -0.8219
 3076TIP3   OH230786   5.748   4.060   7.779 -0.4506  0.3993 -1.2852
 3076TIP3    H130787   5.768   4.076   7.871 -2.5000 -1.1761 -0.5013
 3076TIP3    H230788   5.654   4.046   7.777 -0.7582  2.1423 -3.9248
 3077TIP3   OH230789   2.377   5.413   8.029  0.5282  0.2385  0.2378
 3077TIP3    H130790   2.292   5.455   8.013 -0.2824 -0.3020  2.5909
 3077TIP3    H230791   2.418   5.407   7.943 -1.6516  0.8664 -0.9233
 3078TIP3   OH230792   0.570   5.823   0.832 -0.5393 -0.1843  0.0831
 3078TIP3    H130793   0.598   5.785   0.915  1.7409  3.4232  1.2514
 3078TIP3    H230794   0.624   5.779   0.766  1.1439  0.0964  1.1975
 3079TIP3   OH230795   5.367   2.296   6.643 -0.0737 -0.2342  0.0940
 3079TIP3    H130796   5.284   2.264   6.677 -0.3137  0.8734  0.6062
 3079TIP3    H230797   5.352   2.309   6.550 -0.5220  0.0804  0.2093
 3080TIP3   OH230798   3.601   0.993   1.779  0.1376 -0.6814  0.2588
 3080TIP3    H130799   3.551   1.026   1.704 -0.9198 -1.8996  0.3823
 3080TIP3    H230800   3.548   1.015   1.855  1.6810  1.4422  0.8153
 3081TIP3   OH230801   0.278   2.347   7.178 -0.0527 -0.5322 -0.2339
 3081TIP3    H130802   0.190   2.320   7.204 -1.2962 -0.1119 -3.6100
 3081TIP3    H230803   0.326   2.265   7.166 -0.4282 -0.8073  0.1056
 3082TIP3   OH230804   2.031   6.274   2.275 -0.1161  0.2460 -0.0563
 3082TIP3    H130805   2.068   6.251   2.190 -2.4036 -1.6154 -0.6757
 3082TIP3    H230806   2.003   6.365   2.266 -0.3307  0.0658 -1.3136
 3083TIP3   OH230807   0.580   1.500   2.152 -0.2023  0.1482 -0.1240
 3083TIP3    H130808   0.567   1.584   2.195 -0.4074  0.3244 -0.5212
 3083TIP3    H230809   0.614   1.442   2.220  0.2354  0.6387  0.0801
 3084TIP3   OH230810   4.966   5.028   2.338 -0.3322 -0.7003  0.7637
 3084TIP3    H130811   4.965   5.046   2.432  0.5283  2.0331  0.3315
 3084TIP3    H230812   4.874   5.033   2.311 -0.4853 -0.5792  1.3026
 3085TIP3   OH230813   1.197   3.357   1.089 -0.3599  0.7167  0.3067
 3085TIP3    H130814   1.136   3.430   1.083  0.7545  1.5903 -1.3382
 3085TIP3    H230815   1.171   3.309   1.168 -1.3612  2.6593  1.2106
 3086TIP3   OH230816   5.060   1.717   6.974 -0.5155  0.0040 -0.1355
 3086TIP3    H130817   5.002   1.701   6.900 -0.4932  1.0778 -0.3970
 3086TIP3    H230818   5.142   1.747   6.934  0.1202 -1.1658  0.2436
 3087TIP3   OH230819   3.396   4.997   0.613 -0.2632 -0.6119 -0.0037
 3087TIP3    H130820   3.438   4.921   0.572  1.2474 -1.3359  2.6497
 3087TIP3    H230821   3.465   5.062   0.621 -0.6910 -0.2311  0.7600
 3088TIP3   OH230822   3.864   4.446   2.275 -0.3232 -0.8002 -0.0841
 3088TIP3    H130823   3.954   4.423   2.298 -0.1641 -1.1271 -1.0280
 3088TIP3    H230824   3.812   4.419   2.351  0.5228  0.6022  1.0399
 3089TIP3   OH230825   3.873   1.784   2.286  0.4439  0.7903 -0.2281
 3089TIP3    H130826   3.932   1.852   2.319  0.2464  1.4910 -1.2660
 3089TIP3    H230827   3.827   1.826   2.213 -0.2389 -0.2253 -0.3953
 3090TIP3   OH230828   0.018   0.052   0.133 -0.2077  0.3849  0.0726
 3090TIP3    H130829   0.006   0.119   0.201 -0.9762 -0.1150  0.4488
 3090TIP3    H230830  -0.018  -0.028   0.171 -1.6293  0.3166 -1.2996
 3091TIP3   OH230831   5.213   4.204   0.828 -0.3706  0.0637  0.0692
 3091TIP3    H130832   5.136   4.260   0.836  0.4821  1.1595  0.9170
 3091TIP3    H230833   5.270   4.250   0.766 -0.3046 -0.6422 -0.4078
 3092TIP3   OH230834   4.930   5.438   8.330 -0.4308 -0.0637  0.0910
 3092TIP3    H130835   4.918   5.469   8.241 -0.1186  2.1052  0.7304
 3092TIP3    H230836   4.965   5.350   8.321 -1.9431 -0.5149 -1.8756
 3093TIP3   OH230837   2.130   5.027   2.310 -0.5213 -0.4195  0.3948
 3093TIP3    H130838   2.219   5.045   2.340 -0.0603 -0.9743 -0.5697
 3093TIP3    H230839   2.078   5.100   2.342  0.8353  1.5033 -1.4623
 3094TIP3   OH230840   4.563   3.974   1.874  0.2494 -0.6252 -0.2165
 3094TIP3    H130841   4.618   3.900   1.849  0.1346 -0.8280  0.1121
 3094TIP3    H230842   4.483   3.933   1.908  0.3119 -0.3598  0.2641
 3095TIP3   OH230843   6.085   0.221   7.274  0.1652  0.1147 -0.1154
 3095TIP3    H130844   6.013   0.202   7.334  0.1691  0.6853  0.0781
 3095TIP3    H230845   6.060   0.305   7.233  0.1684 -0.2556 -0.8991
 3096TIP3   OH230846   4.373   2.312   8.710 -0.2885  0.3840  0.7717
 3096TIP3    H130847   4.383   2.217   8.713 -0.1641  0.3455 -0.4354
 3096TIP3    H230848   4.305   2.327   8.645  1.5294  1.2129 -1.0229
 3097TIP3   OH230849   0.337   0.290   1.309  0.2880 -0.7388 -0.6048
 3097TIP3    H130850   0.376   0.203   1.300 -0.2867 -1.1187  0.4233
 3097TIP3    H230851   0.247   0.279   1.279  0.2681 -0.4428 -0.6580
 3098TIP3   OH230852   1.960   5.128   3.150  0.1826 -0.0795  0.4873
 3098TIP3    H130853   1.973   5.034   3.140 -0.5156 -0.0566 -1.0023
 3098TIP3    H230854   1.871   5.137   3.183  0.1769  0.0646  0.4354
 3099TIP3   OH230855   1.866   5.834   2.466  0.3374 -0.3024 -0.1368
 3099TIP3    H130856   1.815   5.878   2.534 -0.1001 -0.3504 -0.4281
 3099TIP3    H230857   1.903   5.905   2.414  2.0873 -0.2120  1.1446
 3100TIP3   OH230858   2.950   1.229   2.282 -0.1388 -0.2729  0.3475
 3100TIP3    H130859   2.972   1.257   2.371  1.2155  0.8469 -0.3032
 3100TIP3    H230860   2.965   1.134   2.283  2.1737  0.0378  0.7340
 3101TIP3   OH230861   3.331   6.508   8.625 -0.1429 -0.4273 -0.8595
 3101TIP3    H130862   3.358   6.573   8.560 -0.2766  0.3485 -0.1566
 3101TIP3    H230863   3.290   6.439   8.574 -1.6925  0.8947 -1.5226
 3102TIP3   OH230864   4.195   4.545   2.121  0.4319  0.2650 -0.0328
 3102TIP3    H130865   4.188   4.506   2.208 -1.0962 -1.6597 -0.9266
 3102TIP3    H230866   4.273   4.505   2.083  1.1650  1.1924  0.4533
 3103TIP3   OH230867   5.058   4.006   0.657  0.4042 -0.7310 -0.1959
 3103TIP3    H130868   5.039   4.015   0.563  2.4444 -0.6282 -0.6601
 3103TIP3    H230869   5.087   4.093   0.684 -0.7962 -0.6006  0.7086
 3104TIP3   OH230870   2.352   4.270   0.490  0.0836  0.0825  0.3014
 3104TIP3    H130871   2.296   4.302   0.560  1.0794  1.2501  0.5968
 3104TIP3    H230872   2.417   4.339   0.477 -0.4091  0.1919 -2.1985
 3105TIP3   OH230873   3.262   4.122   0.924  0.0621 -0.0167 -0.3099
 3105TIP3    H130874   3.254   4.195   0.864  1.7771  0.6567  0.2024
 3105TIP3    H230875   3.181   4.123   0.975  0.1712  1.7219 -0.1208
 3106TIP3   OH230876   3.917   1.686   8.188 -0.6108 -0.6220  0.0360
 3106TIP3    H130877   3.898   1.608   8.136 -0.0456 -1.6309  1.2964
 3106TIP3    H230878   3.851   1.685   8.257 -0.9958  0.3875 -0.2982
 3107TIP3   OH230879   5.503   3.588   0.972 -1.0593 -0.3706 -0.4436
 3107TIP3    H130880   5.495   3.540   1.055 -1.0006  0.6081  0.1482
 3107TIP3    H230881   5.597   3.602   0.963 -1.1328  0.2364 -0.2575
 3108TIP3   OH230882   4.642   6.033   8.459  0.1912 -0.5887 -0.1738
 3108TIP3    H130883   4.686   6.085   8.526 -1.4813  2.4390 -1.2065
 3108TIP3    H230884   4.682   6.061   8.377 -1.7090  0.2315 -0.8839
 3109TIP3   OH230885   5.045   0.955   8.336 -0.0306  0.0879 -0.2229
 3109TIP3    H130886   5.127   0.932   8.381 -1.2187 -2.5344  0.8046
 3109TIP3    H230887   5.038   0.892   8.265 -0.2723  1.5422 -1.5498
 3110TIP3   OH230888   1.881   0.093   1.683  0.0641 -0.2419  0.3146
 3110TIP3    H130889   1.960   0.120   1.730 -0.6581  3.8415 -0.4414
 3110TIP3    H230890   1.905   0.101   1.590 -0.5694 -1.3957  0.0345
 3111TIP3   OH230891   0.003   2.552   0.764 -0.3975  0.0175  0.0880
 3111TIP3    H130892   0.047   2.606   0.698 -0.0827 -0.7707 -0.3591
 3111TIP3    H230893  -0.037   2.615   0.824  0.8310  0.7562  0.1596
 3112TIP3   OH230894   4.265   0.857   0.088 -0.1578  0.1130  0.3448
 3112TIP3    H130895   4.236   0.945   0.114 -1.6317 -0.2392 -0.0398
 3112TIP3    H230896   4.345   0.844   0.138 -0.3202  1.3765  0.9990
 3113TIP3   OH230897   4.661   2.382   8.685 -0.3484 -0.4824  0.1252
 3113TIP3    H130898   4.676   2.367   8.778 -1.0971  0.2840  0.3898
 3113TIP3    H230899   4.568   2.364   8.672 -0.5844  0.8348 -0.1547
 3114TIP3   OH230900   4.181   5.047   7.704  0.3769  0.0849  0.3986
 3114TIP3    H130901   4.112   5.076   7.764 -0.3965 -2.0570  0.6145
 3114TIP3    H230902   4.255   5.026   7.761 -0.2793 -1.7223  0.6502
 3115TIP3   OH230903   4.309   0.492   8.554  0.2460  0.0148 -0.6825
 3115TIP3    H130904   4.404   0.480   8.550  0.3304  0.9553 -2.5981
 3115TIP3    H230905   4.298   0.581   8.589  0.0326 -0.2665 -0.0091
 3116TIP3   OH230906   2.635   6.484   2.657 -0.0939 -0.6203 -0.2966
 3116TIP3    H130907   2.615   6.539   2.732  0.0298  0.0508 -0.7484
 3116TIP3    H230908   2.699   6.420   2.690  1.2910  0.7411 -0.2377
 3117TIP3   OH230909   0.415   4.506   7.528  0.1996 -0.3749 -0.3347
 3117TIP3    H130910   0.486   4.501   7.464  2.0361  1.2987  1.4090
 3117TIP3    H230911   0.360   4.579   7.499  0.9263  0.2657 -0.1252
 3118TIP3   OH230912   2.117   3.866   0.585 -0.0006 -0.1161  0.0658
 3118TIP3    H130913   2.095   3.933   0.521  1.1582  1.5089  1.2639
 3118TIP3    H230914   2.209   3.883   0.606  0.1637 -1.7644  0.8073
 3119TIP3   OH230915   0.332   0.588   1.100  0.0962 -0.2608 -0.5608
 3119TIP3    H130916   0.417   0.607   1.061 -0.9147  1.2562 -2.1365
 3119TIP3    H230917   0.344   0.607   1.193  0.9891  1.7776 -1.0354
 3120TIP3   OH230918   4.764   2.835   8.640  0.0352 -0.4461 -0.1074
 3120TIP3    H130919   4.757   2.893   8.564  1.5564 -0.8689 -0.5973
 3120TIP3    H230920   4.674   2.828   8.673 -0.0887  3.0848  0.6851
 3121TIP3   OH230921   3.028   5.578   0.300 -0.0076 -0.7268  0.3114
 3121TIP3    H130922   2.983   5.663   0.306 -1.6247 -1.5701  0.5132
 3121TIP3    H230923   3.105   5.588   0.356 -1.4181 -0.1300  2.2395
 3122TIP3   OH230924   5.921   3.888   7.609 -0.2024 -0.2746 -0.3401
 3122TIP3    H130925   5.869   3.944   7.665 -1.2798 -0.7327 -0.8557
 3122TIP3    H230926   5.859   3.824   7.574  0.5586 -0.3936 -1.5433
 3123TIP3   OH230927   5.525   2.710   0.416 -0.3349 -0.3897  0.0485
 3123TIP3    H130928   5.514   2.664   0.333  2.3152 -0.8885 -0.1228
 3123TIP3    H230929   5.505   2.645   0.483 -0.6569 -0.5436 -0.1988
 3124TIP3   OH230930   6.559   0.991   1.702 -0.1374 -0.1744 -0.1697
 3124TIP3    H130931   6.631   1.050   1.723  0.1234 -1.0017  1.3953
 3124TIP3    H230932   6.513   0.979   1.786 -0.2763 -2.0446 -0.4730
 3125TIP3   OH230933   6.784   0.406   2.460  0.2121 -0.3069 -0.6096
 3125TIP3    H130934   6.747   0.325   2.495  0.9574 -0.6954 -0.6914
 3125TIP3    H230935   6.718   0.439   2.400 -1.6475  1.0138  1.9948
 3126TIP3   OH230936   1.075   2.304   1.792 -0.3855 -0.1871  0.3654
 3126TIP3    H130937   1.084   2.211   1.808 -1.0008 -0.2113  0.5994
 3126TIP3    H230938   0.998   2.311   1.736  0.6322  0.0446 -1.0758
 3127TIP3   OH230939   2.270   0.930   8.423  0.4075 -0.1921  0.3074
 3127TIP3    H130940   2.292   0.837   8.414  0.9956 -0.2464  2.0341
 3127TIP3    H230941   2.352   0.972   8.449  0.8645  1.3329 -3.0075
 3128TIP3   OH230942   1.396   1.379   8.426  0.3224 -0.5314  0.1460
 3128TIP3    H130943   1.303   1.401   8.425  0.4463  0.2110 -2.4015
 3128TIP3    H230944   1.400   1.288   8.398  0.3940  0.1566 -2.3612
 3129TIP3   OH230945   1.822   3.328   2.239  0.2161 -0.5683  0.4019
 3129TIP3    H130946   1.731   3.353   2.227  1.1649  2.6805 -1.2054
 3129TIP3    H230947   1.831   3.315   2.333 -1.9051 -1.0372  0.5850
 3130TIP3   OH230948   5.949   0.582   8.440  0.6141 -0.4591 -0.1403
 3130TIP3    H130949   5.881   0.640   8.475  0.6167 -0.6860  0.2397
 3130TIP3    H230950   5.911   0.494   8.446 -0.0135 -0.3758 -2.1310
 3131TIP3   OH230951   0.441   2.669   8.501 -0.1786  0.4774  0.0204
 3131TIP3    H130952   0.434   2.687   8.594  0.4974  0.4849  0.0726
 3131TIP3    H230953   0.484   2.583   8.496 -1.6016 -0.2484 -0.2639
 3132TIP3   OH230954   3.514   4.672   3.046 -1.0127 -0.1232  0.0487
 3132TIP3    H130955   3.498   4.629   2.962 -2.4977  2.4271 -1.1101
 3132TIP3    H230956   3.609   4.678   3.052 -0.8634 -0.8314 -1.2003
 3133TIP3   OH230957   5.779   2.751   8.716 -0.4463  0.7314 -0.5527
 3133TIP3    H130958   5.744   2.840   8.726  0.7241  1.1657 -0.1021
 3133TIP3    H230959   5.849   2.761   8.651 -0.2148  0.1568 -0.3893
 3134TIP3   OH230960   0.519   6.361   1.817  0.0222 -0.0875 -0.1218
 3134TIP3    H130961   0.548   6.341   1.906  0.6241  1.3017  0.0181
 3134TIP3    H230962   0.471   6.443   1.825 -0.1316 -0.0780 -1.0409
 3135TIP3   OH230963   1.251   0.110   2.111  0.0559 -0.1630 -0.4028
 3135TIP3    H130964   1.169   0.068   2.138  0.7469 -1.1573  0.2322
 3135TIP3    H230965   1.265   0.080   2.022 -0.5997  0.5436 -0.7523
 3136TIP3   OH230966   1.784   4.714   8.867 -0.2240  0.3977 -0.1563
 3136TIP3    H130967   1.813   4.805   8.858 -2.2687  1.1692  0.5470
 3136TIP3    H230968   1.864   4.663   8.854  1.4575  2.3619  1.5219
 3137TIP3   OH230969   3.027   3.865   2.079  0.1065  0.1812  0.7123
 3137TIP3    H130970   3.002   3.957   2.078 -0.9392 -0.0943 -0.1468
 3137TIP3    H230971   2.946   3.817   2.060  0.9172 -0.8299 -0.4197
 3138TIP3   OH230972   4.281   1.697   7.373  0.6985  0.9198  0.2972
 3138TIP3    H130973   4.331   1.777   7.356 -0.1831  1.5812  0.7106
 3138TIP3    H230974   4.221   1.689   7.299  0.6201  0.7736  0.3756
 3139TIP3   OH230975   4.013   4.077   7.905  0.7325 -0.8613  0.3006
 3139TIP3    H130976   4.047   4.066   7.994 -0.6636  1.7211  1.2273
 3139TIP3    H230977   4.040   4.165   7.880 -0.5753 -0.8289 -1.0850
 3140TIP3   OH230978   0.300   5.087   1.153  0.3657  0.1633  0.0675
 3140TIP3    H130979   0.214   5.113   1.184 -0.7372 -2.8610 -0.1803
 3140TIP3    H230980   0.348   5.062   1.232  0.5779  0.5427  0.0658
 3141TIP3   OH230981   2.249   3.884   1.435 -0.0119 -0.6327 -0.2829
 3141TIP3    H130982   2.257   3.928   1.520 -0.6604 -1.5701  0.2719
 3141TIP3    H230983   2.328   3.830   1.428  1.7694  1.9199 -1.8003
 3142TIP3   OH230984   6.083   4.266   7.865  0.5122 -0.1274 -0.1569
 3142TIP3    H130985   6.085   4.209   7.942  1.4679 -0.7377 -0.6206
 3142TIP3    H230986   6.158   4.324   7.877  0.3901  0.0835 -0.4041
 3143TIP3   OH230987   3.055   3.583   8.480 -1.0275 -0.1606  0.6331
 3143TIP3    H130988   3.008   3.666   8.490 -0.1133  0.3882  0.4220
 3143TIP3    H230989   3.101   3.591   8.397 -0.0053 -0.4069  1.1602
 3144TIP3   OH230990   0.616   3.005   0.628  0.5752 -0.0801 -0.1272
 3144TIP3    H130991   0.589   3.096   0.617  1.5754  0.1682 -0.5413
 3144TIP3    H230992   0.636   2.997   0.721 -1.3729 -0.4148  0.3227
 3145TIP3   OH230993   3.205   0.658   2.100 -0.5517 -0.4962 -0.4405
 3145TIP3    H130994   3.296   0.645   2.125 -0.3666  1.4276  0.0579
 3145TIP3    H230995   3.156   0.642   2.181 -0.2375  2.4971  0.4528
 3146TIP3   OH230996   0.107   5.500   8.677  0.6962  0.3521  0.0602
 3146TIP3    H130997   0.036   5.475   8.618  0.0128  1.5607  0.3383
 3146TIP3    H230998   0.184   5.506   8.620  0.1719  0.9166 -0.6071
 3147TIP3   OH230999   5.308   6.687   1.336  0.2393  0.2922  0.3354
 3147TIP3    H131000   5.352   6.708   1.419 -0.3558  0.4951  0.6095
 3147TIP3    H231001   5.305   6.771   1.289 -0.7593  0.5157  0.7639
 3148TIP3   OH231002   0.970   1.417   1.599 -0.1070 -0.3032  0.3565
 3148TIP3    H131003   0.905   1.384   1.660 -1.6016  2.3223  0.3326
 3148TIP3    H231004   1.050   1.426   1.651 -1.1780  1.2571  1.8097
 3149TIP3   OH231005   4.186   5.207   8.315 -0.1616 -0.2393 -0.9693
 3149TIP3    H131006   4.213   5.121   8.349 -0.6583  0.3342  1.0035
 3149TIP3    H231007   4.094   5.196   8.292 -0.7035  0.1745  0.8872
 3150TIP3   OH231008   3.248   4.144   7.807 -0.1994 -0.0995  0.3200
 3150TIP3    H131009   3.306   4.133   7.882  0.1964 -0.1939  0.0061
 3150TIP3    H231010   3.218   4.055   7.787  1.3695 -0.3929 -0.9348
 3151TIP3   OH231011   1.592   3.028   0.074  0.1109  0.3635  0.4868
 3151TIP3    H131012   1.617   3.069   0.157  0.9465  0.3230  0.2644
 3151TIP3    H231013   1.666   3.046   0.016  1.2625 -2.7647  0.8051
 3152TIP3   OH231014   2.472   5.022   0.392 -0.1366  0.1369  0.0852
 3152TIP3    H131015   2.493   4.934   0.423 -0.2503  0.2762  0.5662
 3152TIP3    H231016   2.425   5.007   0.309  2.0750 -0.1612 -1.1977
 3153TIP3   OH231017   5.905   4.469   0.557  0.4774  0.6080  0.3772
 3153TIP3    H131018   5.972   4.433   0.615  1.3811 -0.6303 -1.3518
 3153TIP3    H231019   5.922   4.564   0.557  1.2350  0.4888  1.1355
 3154TIP3   OH231020   2.009   1.696   7.786  0.1027 -0.3325 -0.3100
 3154TIP3    H131021   2.030   1.634   7.855  0.6487 -0.7247 -0.8187
 3154TIP3    H231022   1.995   1.641   7.708  0.2816  0.1613 -0.6928
 3155TIP3   OH231023   3.441   5.072   7.991  0.0071 -0.4131 -0.1039
 3155TIP3    H131024   3.482   5.136   8.049  1.3015 -0.0955 -1.3304
 3155TIP3    H231025   3.511   5.014   7.965 -0.8252 -1.3395 -0.3333
 3156TIP3   OH231026   3.378   5.148   7.587 -0.2271  0.1790  0.2890
 3156TIP3    H131027   3.299   5.187   7.549  0.3187  0.2908 -0.7511
 3156TIP3    H231028   3.369   5.054   7.573 -0.7292  0.0650  1.2589
 3157TIP3   OH231029   3.376   3.592   2.622 -0.1743  0.1461  0.1682
 3157TIP3    H131030   3.374   3.497   2.608 -1.6501  0.0071  1.0126
 3157TIP3    H231031   3.388   3.602   2.716  0.7690  0.8274 -0.0129
 3158TIP3   OH231032   0.010   4.318   1.812 -0.3959  0.7216  0.3787
 3158TIP3    H131033   0.056   4.299   1.894 -2.1874  0.4621  1.3739
 3158TIP3    H231034   0.054   4.395   1.777 -0.0367  1.2584  1.9489
 3159TIP3   OH231035   1.561   3.638   2.185 -0.4488 -0.4061  0.1698
 3159TIP3    H131036   1.538   3.619   2.094 -0.2528  0.8834 -0.1674
 3159TIP3    H231037   1.557   3.733   2.192 -2.2363 -0.5227  1.9926
 3160TIP3   OH231038   4.834   4.466   0.670  0.1172  0.0806 -0.7476
 3160TIP3    H131039   4.898   4.464   0.741 -0.6049 -0.8089 -0.0962
 3160TIP3    H231040   4.819   4.373   0.650 -0.5983  0.2948 -1.2285
 3161TIP3   OH231041   1.025   4.016   0.414  0.3255  0.2774  0.2571
 3161TIP3    H131042   1.026   4.067   0.333  1.4010  0.3765  0.3229
 3161TIP3    H231043   0.950   3.957   0.405 -1.1441  2.0478  0.3044
 3162TIP3   OH231044   1.222   1.592   8.300 -0.3926  0.3732  0.1310
 3162TIP3    H131045   1.234   1.633   8.215 -0.8063 -0.6999 -0.4610
 3162TIP3    H231046   1.235   1.663   8.363 -0.5052  1.2657 -0.8342
 3163TIP3   OH231047   5.572   2.414   7.763  0.2462  0.0031  0.0394
 3163TIP3    H131048   5.543   2.370   7.683 -0.5277  2.2022 -0.9428
 3163TIP3    H231049   5.606   2.343   7.818  0.5372 -1.5978 -2.0964
 3164TIP3   OH231050   3.279   2.560   1.614 -0.3137  0.5580 -0.6855
 3164TIP3    H131051   3.190   2.565   1.581 -0.3549 -0.5763 -0.7778
 3164TIP3    H231052   3.281   2.621   1.688 -0.5390  2.2580 -2.0380
 3165TIP3   OH231053   6.102   1.935   1.874  0.3147  0.0427  0.2560
 3165TIP3    H131054   6.077   1.978   1.956 -0.9882 -0.4588  0.1416
 3165TIP3    H231055   6.198   1.937   1.875  0.3138  0.9389  1.3082
 3166TIP3   OH231056   1.677   3.864   0.183 -0.2164  0.3230  0.1348
 3166TIP3    H131057   1.635   3.931   0.237 -0.0224 -1.6317  2.9580
 3166TIP3    H231058   1.761   3.902   0.158 -0.7138  1.6492  0.3972
 3167TIP3   OH231059   0.277   4.055   8.749 -0.1649 -0.3901  0.0120
 3167TIP3    H131060   0.275   4.139   8.795  0.0048 -0.4032  0.0448
 3167TIP3    H231061   0.206   4.060   8.685  0.0021 -0.1255 -0.1528
 3168TIP3   OH231062   1.718   5.592   8.731  0.6424  0.4245  0.3851
 3168TIP3    H131063   1.797   5.644   8.719  0.5274  0.4359 -0.3807
 3168TIP3    H231064   1.749   5.505   8.755  0.8409  0.7855  1.5117
 3169TIP3   OH231065   6.339   0.461   0.171 -0.3057 -0.3860 -0.1977
 3169TIP3    H131066   6.389   0.527   0.123  0.1551 -0.2873  0.4099
 3169TIP3    H231067   6.358   0.378   0.126  1.4723 -0.5659  0.8093
 3170TIP3   OH231068   4.329   5.753   8.088 -0.0784 -0.6659  0.3388
 3170TIP3    H131069   4.393   5.712   8.030 -0.1721 -0.3569  0.0159
 3170TIP3    H231070   4.245   5.740   8.044 -0.2001 -0.7809  0.6023
 3171TIP3   OH231071   4.799   5.202   2.019 -0.2319  0.6260 -0.5463
 3171TIP3    H131072   4.791   5.255   1.940  1.0891  3.2777  0.9458
 3171TIP3    H231073   4.729   5.233   2.076  0.7692  1.0914  0.4864
 3172TIP3   OH231074   3.141   1.347   7.832  0.1061  0.5645  0.3736
 3172TIP3    H131075   3.145   1.435   7.796 -1.8723 -0.2456 -2.1288
 3172TIP3    H231076   3.127   1.361   7.926  0.8414  2.8640  0.2138
 3173TIP3   OH231077   0.542   0.728   8.596 -0.3858  0.2987 -0.2679
 3173TIP3    H131078   0.562   0.770   8.679  0.3136  1.9458 -1.2206
 3173TIP3    H231079   0.614   0.753   8.539 -1.0017 -0.5473 -1.4568
 3174TIP3   OH231080   3.028   3.577   0.278  0.4179  0.3220  0.1552
 3174TIP3    H131081   3.039   3.532   0.362 -0.2660  1.1370  0.7009
 3174TIP3    H231082   2.955   3.638   0.293 -0.1784 -0.0067 -1.2313
 3175TIP3   OH231083   3.540   5.600   0.490 -0.0038  0.2014 -0.3382
 3175TIP3    H131084   3.529   5.641   0.404  0.8115  0.3008 -0.3995
 3175TIP3    H231085   3.632   5.614   0.512  0.3485 -1.6657 -0.4087
 3176TIP3   OH231086   0.624   1.775   2.309 -0.2744 -0.2237  0.2957
 3176TIP3    H131087   0.645   1.716   2.382 -1.2240  0.0208  0.7872
 3176TIP3    H231088   0.528   1.775   2.305 -0.2328 -0.5125 -1.2010
 3177TIP3   OH231089   3.410   2.033   7.643 -0.4557  0.0381  0.4911
 3177TIP3    H131090   3.435   2.028   7.551  1.0719 -1.0232  0.9082
 3177TIP3    H231091   3.319   2.006   7.645 -0.2646 -0.7668 -0.6267
 3178TIP3   OH231092   1.200   3.439   2.734 -0.1547 -0.1881  0.5219
 3178TIP3    H131093   1.283   3.390   2.729  0.2971  0.5572  0.5523
 3178TIP3    H231094   1.227   3.530   2.729 -0.8046  0.1524  2.4934
 3179TIP3   OH231095   4.231   5.943   6.939  0.1092 -0.0340 -0.6637
 3179TIP3    H131096   4.179   5.974   6.864 -0.8507 -0.8993 -0.3853
 3179TIP3    H231097   4.304   6.004   6.944  0.5500 -0.3018 -2.7033
 3180TIP3   OH231098   5.314   4.763   1.781  0.0281 -0.7192 -0.5340
 3180TIP3    H131099   5.394   4.722   1.813  0.2912  0.4865  0.4339
 3180TIP3    H231100   5.338   4.802   1.698  0.4733 -0.3219 -0.2223
 3181TIP3   OH231101   1.067   6.128   1.795  0.3670 -0.5078  0.5202
 3181TIP3    H131102   1.156   6.114   1.762  0.0663 -0.6999 -0.2307
 3181TIP3    H231103   1.080   6.157   1.885  1.2756  1.3875 -0.1636
 3182TIP3   OH231104   3.003   6.227   0.771  0.0514  0.2206  0.0914
 3182TIP3    H131105   2.914   6.196   0.785  0.1347 -0.4864 -0.8336
 3182TIP3    H231106   3.050   6.150   0.737  0.4201  1.1914 -1.7013
 3183TIP3   OH231107   4.980   1.949   8.592  0.0214  0.8070 -0.7139
 3183TIP3    H131108   4.956   1.860   8.567 -0.3919  0.5558  0.5122
 3183TIP3    H231109   4.899   1.999   8.584 -0.1277  0.7142  0.0993
 3184TIP3   OH231110   0.778   2.897   2.209  0.1382  0.4823  0.0933
 3184TIP3    H131111   0.769   2.827   2.274  0.9196 -1.2362 -1.5762
 3184TIP3    H231112   0.856   2.874   2.159 -0.2696  1.9072 -1.2934
 3185TIP3   OH231113   2.789   6.479   8.208 -0.1518  0.0173 -0.0264
 3185TIP3    H131114   2.795   6.573   8.229 -1.7198  0.4747 -1.3882
 3185TIP3    H231115   2.751   6.477   8.120 -1.2469 -1.9062  0.4416
 3186TIP3   OH231116   0.765   1.498   7.995  0.0867 -0.6156  0.3299
 3186TIP3    H131117   0.685   1.518   7.948  1.1074  2.0853 -0.4574
 3186TIP3    H231118   0.803   1.424   7.947 -0.1134  0.5005 -1.6744
 3187TIP3   OH231119   4.019   5.780   1.675  0.3469 -0.2151  0.4902
 3187TIP3    H131120   4.074   5.824   1.739 -0.0883  1.1580 -0.0433
 3187TIP3    H231121   4.006   5.845   1.605  0.6390 -1.5847 -0.8988
 3188TIP3   OH231122   5.886   1.324   8.140 -0.0708 -0.4273 -0.6058
 3188TIP3    H131123   5.981   1.323   8.149 -0.1255  1.1074  0.4344
 3188TIP3    H231124   5.869   1.388   8.071 -0.3752  0.0850 -0.0671
 3189TIP3   OH231125   3.309   2.844   0.205 -0.0188  0.2899  0.5035
 3189TIP3    H131126   3.232   2.897   0.225 -0.8521 -0.5637 -0.3136
 3189TIP3    H231127   3.336   2.872   0.117  0.9028  0.9039  0.9638
 3190TIP3   OH231128   4.484   0.655   8.847  0.3182  0.3711 -0.2012
 3190TIP3    H131129   4.483   0.677   8.940  0.0709 -0.5569  0.0216
 3190TIP3    H231130   4.400   0.689   8.814  0.2955  0.4803 -0.0358
 3191TIP3   OH231131   2.031   4.478   7.866 -0.4871 -0.4982  0.3952
 3191TIP3    H131132   2.078   4.479   7.782 -1.0469 -0.8151  0.0754
 3191TIP3    H231133   2.098   4.500   7.930  0.1770 -1.1959 -0.0265
 3192TIP3   OH231134   0.015   0.088   0.546 -0.2864 -0.2253  0.2398
 3192TIP3    H131135   0.048  -0.002   0.553 -1.9861 -0.9483 -0.5004
 3192TIP3    H231136   0.015   0.106   0.452 -0.1774  0.4770  0.3687
 3193TIP3   OH231137   4.477   0.999   1.570  0.3316 -0.3025  0.1790
 3193TIP3    H131138   4.517   1.053   1.501 -1.3766  1.3189  0.3761
 3193TIP3    H231139   4.551   0.962   1.618  1.5658 -0.9393 -2.0913
 3194TIP3   OH231140   3.443   3.379   2.282 -0.3650  0.4988 -0.3431
 3194TIP3    H131141   3.421   3.342   2.368  2.0596 -2.6846 -0.8777
 3194TIP3    H231142   3.520   3.329   2.254 -0.4143  2.1313 -3.9408
 3195TIP3   OH231143   1.157   2.361   2.358 -0.3403  0.3009 -0.2269
 3195TIP3    H131144   1.164   2.320   2.444 -1.5152  0.2341 -0.1493
 3195TIP3    H231145   1.094   2.432   2.371  0.5149  1.1793 -0.7210
 3196TIP3   OH231146   4.488   1.295   2.188 -0.1135 -0.5672  1.1097
 3196TIP3    H131147   4.539   1.349   2.249  2.7248 -2.2876  0.4802
 3196TIP3    H231148   4.494   1.206   2.225  1.3694 -1.5926 -1.3237
 3197TIP3   OH231149   5.487   1.716   1.489  0.3413 -0.5594 -0.5561
 3197TIP3    H131150   5.463   1.651   1.555  2.1944  0.1911  0.9740
 3197TIP3    H231151   5.580   1.700   1.473  0.7943  1.5107 -0.3200
 3198TIP3   OH231152   6.527   0.123   8.539 -0.6463  0.6573  0.6864
 3198TIP3    H131153   6.477   0.073   8.475 -0.1642  0.4973  0.4313
 3198TIP3    H231154   6.495   0.213   8.530 -0.0788  0.7732 -0.2839
 3199TIP3   OH231155   0.679   0.738   7.731 -0.4112  0.4015 -0.5191
 3199TIP3    H131156   0.685   0.643   7.723  0.3708  0.3485  0.5481
 3199TIP3    H231157   0.658   0.768   7.643 -0.3070 -0.7305 -0.9441
 3200TIP3   OH231158   2.704   0.833   0.661 -0.1563  0.3002  0.0886
 3200TIP3    H131159   2.735   0.754   0.617 -0.0236  0.2501  0.2708
 3200TIP3    H231160   2.744   0.829   0.748 -1.9952 -0.6254  0.9451
 3201TIP3   OH231161   6.423   2.506   8.289  0.5282  0.1207 -0.2556
 3201TIP3    H131162   6.333   2.477   8.273 -0.2937  2.3610 -0.1119
 3201TIP3    H231163   6.448   2.465   8.371 -1.3196  1.3535  0.9824
 3202TIP3   OH231164   2.942   3.315   2.604 -0.4580  0.7129 -0.1155
 3202TIP3    H131165   2.866   3.367   2.578 -0.4299  0.7942 -0.0372
 3202TIP3    H231166   3.015   3.356   2.558 -0.4772  0.5661 -0.2785
 3203TIP3   OH231167   3.838   6.401   8.359  0.2541  0.7440  0.1094
 3203TIP3    H131168   3.861   6.455   8.434  0.0001  0.2162  0.5724
 3203TIP3    H231169   3.915   6.403   8.302  0.9206  0.1444  0.9624
 3204TIP3   OH231170   5.583   2.234   7.966  0.1694  0.5582 -0.1865
 3204TIP3    H131171   5.510   2.173   7.959  1.0456 -0.5403 -0.1926
 3204TIP3    H231172   5.563   2.287   8.043 -0.8636  0.6193 -0.4830
 3205TIP3   OH231173   5.232   0.382   0.834  0.1610 -0.2252  0.4315
 3205TIP3    H131174   5.175   0.454   0.807 -3.0228 -3.4772 -2.6970
 3205TIP3    H231175   5.183   0.338   0.903 -0.2418 -1.8318 -0.8004
 3206TIP3   OH231176   2.414   1.898   2.532 -0.0380 -0.1095  0.3808
 3206TIP3    H131177   2.357   1.872   2.604  0.2247 -1.2005  0.2049
 3206TIP3    H231178   2.396   1.836   2.462  1.5869 -0.6950  0.4392
 3207TIP3   OH231179   3.854   3.078   1.646 -0.3139 -0.0903  0.1242
 3207TIP3    H131180   3.786   3.114   1.589  2.0086 -0.2568 -3.0374
 3207TIP3    H231181   3.897   3.155   1.683  0.6609  0.2961 -1.6583
 3208TIP3   OH231182   5.276   4.187   7.780 -0.1668 -0.1232  0.2739
 3208TIP3    H131183   5.214   4.176   7.852  1.1528 -0.4863  1.4155
 3208TIP3    H231184   5.292   4.281   7.776  0.6829 -0.1990  1.3215
 3209TIP3   OH231185   4.650   1.579   6.788  0.9411 -0.6699 -0.3122
 3209TIP3    H131186   4.701   1.512   6.742 -1.1688 -1.3701 -1.8144
 3209TIP3    H231187   4.604   1.531   6.857 -0.5297 -0.8499 -1.3557
 3210TIP3   OH231188   0.451   3.285   0.325 -0.4588  0.9506  0.1376
 3210TIP3    H131189   0.360   3.267   0.299 -0.5775  0.9192  0.5524
 3210TIP3    H231190   0.503   3.260   0.250 -0.8647  1.9019 -0.4774
 3211TIP3   OH231191   4.484   2.034   7.567  0.3117  0.0300  0.3587
 3211TIP3    H131192   4.410   2.091   7.588 -0.1190 -0.2133 -0.4375
 3211TIP3    H231193   4.560   2.092   7.564 -0.2072  0.6831 -1.0045
 3212TIP3   OH231194   4.017   0.867   2.920  0.1514  0.5588  0.7647
 3212TIP3    H131195   4.084   0.908   2.866  0.7872 -0.5352  0.6947
 3212TIP3    H231196   4.001   0.783   2.879 -1.6751  1.0108  0.4819
 3213TIP3   OH231197   6.244   4.602   1.998 -0.0324 -0.2729 -0.2262
 3213TIP3    H131198   6.306   4.665   2.034 -0.6600  0.4936 -0.4681
 3213TIP3    H231199   6.290   4.518   2.003  0.2830 -0.0510  1.4679
 3214TIP3   OH231200   1.692   3.031   3.039  0.5190  0.5122 -0.2663
 3214TIP3    H131201   1.657   3.082   2.966  0.2315 -0.3005 -0.7159
 3214TIP3    H231202   1.679   2.940   3.012 -1.1771  0.1520  1.5292
 3215TIP3   OH231203   3.539   4.496   7.976 -0.1043  0.3031  0.4937
 3215TIP3    H131204   3.573   4.428   8.034 -1.6338 -1.4310 -0.5198
 3215TIP3    H231205   3.561   4.466   7.887 -1.6212  0.6099 -0.0223
 3216TIP3   OH231206   5.236   6.387   2.452  0.3278 -0.9381  0.1845
 3216TIP3    H131207   5.228   6.445   2.376 -0.1064  0.1228  1.0000
 3216TIP3    H231208   5.146   6.361   2.471  0.2834 -0.2480  1.0130
 3217TIP3   OH231209   6.092   3.884   0.934 -0.0757 -0.3896  0.4035
 3217TIP3    H131210   6.045   3.931   0.866 -1.1534  0.0192  1.4081
 3217TIP3    H231211   6.141   3.816   0.887 -1.2892 -0.5251 -0.7102
 3218TIP3   OH231212   1.647   3.633   8.062  0.7809  0.6547  0.0965
 3218TIP3    H131213   1.699   3.701   8.106  2.5279 -1.1201  0.9251
 3218TIP3    H231214   1.581   3.682   8.013  0.4336  2.8408  2.5399
 3219TIP3   OH231215   3.259   1.826   8.577 -0.3443  0.2898 -0.3106
 3219TIP3    H131216   3.294   1.863   8.497 -1.0002  0.7898 -0.3833
 3219TIP3    H231217   3.240   1.903   8.632  1.7775 -0.0892  1.0746
 3220TIP3   OH231218   5.203   2.442   7.003  0.0533 -0.0672  0.2906
 3220TIP3    H131219   5.151   2.468   6.927 -0.8573  3.7973  1.9754
 3220TIP3    H231220   5.294   2.459   6.976 -0.0019 -1.2316 -0.7227
 3221TIP3   OH231221   4.680   0.340   8.832  0.7181 -0.4875  0.2291
 3221TIP3    H131222   4.729   0.308   8.756  0.5035 -0.8259  0.2264
 3221TIP3    H231223   4.595   0.296   8.825  0.4036  0.1126  0.2135
 3222TIP3   OH231224   1.931   6.436   6.902 -0.0835 -0.4256 -0.3646
 3222TIP3    H131225   1.883   6.385   6.837  0.2799  2.2880 -2.9986
 3222TIP3    H231226   1.865   6.494   6.940  0.1991 -0.1463 -0.2965
 3223TIP3   OH231227   0.044   1.415   1.915 -0.1147 -0.1223  0.0335
 3223TIP3    H131228  -0.022   1.443   1.851  0.1116  0.3711  0.0161
 3223TIP3    H231229   0.128   1.433   1.873  0.0348 -0.1841  0.3031
 3224TIP3   OH231230   5.669   3.194   0.593 -0.5666 -0.0809 -0.6048
 3224TIP3    H131231   5.622   3.268   0.630 -0.7314  0.2019 -1.3739
 3224TIP3    H231232   5.604   3.147   0.542 -0.5060 -0.8563  0.0156
 3225TIP3   OH231233   5.741   3.972   8.803 -0.0444  0.2494  0.6396
 3225TIP3    H131234   5.746   3.879   8.779  0.1730  0.3340  0.3675
 3225TIP3    H231235   5.688   3.972   8.883  2.6875 -0.4704  2.6005
 3226TIP3   OH231236   1.482   2.676   1.315  0.3822  0.0973 -0.1152
 3226TIP3    H131237   1.517   2.587   1.316  0.5093  0.1286  1.3497
 3226TIP3    H231238   1.558   2.731   1.296  1.0667  0.1009  2.2496
 3227TIP3   OH231239   2.150   4.735   0.915  0.4235 -0.1708  0.4094
 3227TIP3    H131240   2.143   4.643   0.889  0.9586  0.0071 -0.3915
 3227TIP3    H231241   2.064   4.756   0.951 -0.4985 -0.3486 -1.5490
 3228TIP3   OH231242   4.654   5.055   0.413 -0.5132 -0.1410 -0.4039
 3228TIP3    H131243   4.605   5.133   0.386 -0.9489 -0.5704 -0.8916
 3228TIP3    H231244   4.618   4.985   0.359 -0.6730 -0.8365  0.5709
 3229TIP3   OH231245   4.310   4.354   1.791  0.5039 -0.2585 -0.0070
 3229TIP3    H131246   4.320   4.449   1.790  2.8642 -0.3911  1.4472
 3229TIP3    H231247   4.358   4.324   1.714  0.5072 -0.2831  0.0045
 3230TIP3   OH231248   6.766   1.839   1.277  0.2938  0.1132  0.2996
 3230TIP3    H131249   6.709   1.808   1.206  0.1586 -1.8650  1.2025
 3230TIP3    H231250   6.855   1.830   1.242  0.1752  0.2742 -0.0413
 3231TIP3   OH231251   6.175   2.872   1.613 -0.2741  0.7451 -0.3293
 3231TIP3    H131252   6.266   2.883   1.585  0.0820  1.9526  1.1358
 3231TIP3    H231253   6.130   2.951   1.582 -0.1721  1.4543  1.2043
 3232TIP3   OH231254   2.415   5.645   8.852 -1.1570 -0.0760  0.0860
 3232TIP3    H131255   2.395   5.567   8.800 -2.0849  0.1377  0.1025
 3232TIP3    H231256   2.510   5.652   8.850 -1.1066 -0.8284 -0.4695
 3233TIP3   OH231257   1.551   3.359   0.202 -0.4334 -0.6327 -0.0441
 3233TIP3    H131258   1.463   3.333   0.227 -0.4971 -0.4711 -0.0995
 3233TIP3    H231259   1.576   3.425   0.268 -0.6169 -0.1742 -0.4319
 3234TIP3   OH231260   4.387   5.191   2.405  0.0683  0.1754  0.0726
 3234TIP3    H131261   4.468   5.178   2.454  0.1008  1.2591  0.3200
 3234TIP3    H231262   4.336   5.111   2.422  0.5765  0.0115  0.8894
 3235TIP3   OH231263   4.238   1.638   2.428  0.2948 -0.0241 -0.2538
 3235TIP3    H131264   4.243   1.652   2.333 -1.4598 -1.9859 -0.7203
 3235TIP3    H231265   4.145   1.620   2.444  0.6356 -0.1666  1.7831
 3236TIP3   OH231266   2.683   6.560   0.274  0.5450  1.0652 -0.0496
 3236TIP3    H131267   2.748   6.512   0.221  1.3166  1.6169  0.3708
 3236TIP3    H231268   2.676   6.645   0.232 -2.1286  0.0923 -1.8398
 3237TIP3   OH231269   2.353   0.757   1.015 -0.3031 -0.2242  0.3373
 3237TIP3    H131270   2.376   0.729   0.927  1.1238 -0.9743  0.9227
 3237TIP3    H231271   2.273   0.810   1.003 -1.4476 -2.1534 -1.1102
 3238TIP3   OH231272   0.853   1.807   7.635 -0.2092 -0.0142 -0.1312
 3238TIP3    H131273   0.795   1.777   7.565  0.9494 -0.1590 -1.0564
 3238TIP3    H231274   0.817   1.891   7.662 -1.1182 -0.3209 -0.3572
 3239TIP3   OH231275   1.013   0.730   1.135 -0.4962  0.0543  0.8580
 3239TIP3    H131276   1.070   0.698   1.064 -4.0603 -2.2303 -1.2855
 3239TIP3    H231277   1.039   0.679   1.212  1.1492  0.0139  0.3131
 3240TIP3   OH231278   1.977   2.752   7.673  0.1394  0.0213 -0.2866
 3240TIP3    H131279   2.019   2.814   7.733 -1.5520  0.1787  0.8033
 3240TIP3    H231280   2.005   2.781   7.586 -1.3103  2.9814  0.0846
 3241TIP3   OH231281   3.194   2.399   1.022  0.2559 -0.2259 -0.0054
 3241TIP3    H131282   3.110   2.353   1.024 -1.1217  2.1557  1.0348
 3241TIP3    H231283   3.180   2.472   0.962  1.4173  0.4817  0.5562
 3242TIP3   OH231284   1.444   1.512   1.905  0.2012 -0.1192  0.6359
 3242TIP3    H131285   1.349   1.511   1.914  0.2841 -1.5077  1.8167
 3242TIP3    H231286   1.473   1.583   1.963 -0.1058  0.4595  0.0962
 3243TIP3   OH231287   2.721   0.808   8.365 -0.3203  0.5525 -0.2259
 3243TIP3    H131288   2.790   0.871   8.347  0.0615  0.2862  0.2743
 3243TIP3    H231289   2.656   0.822   8.296 -0.1285  1.3280 -0.2559
 3244TIP3   OH231290   3.613   0.007   2.904  1.0656 -0.0048  0.0596
 3244TIP3    H131291   3.602  -0.056   2.975  0.1845 -0.5618 -0.5421
 3244TIP3    H231292   3.551   0.077   2.924  0.5442 -0.3399 -0.3237
 3245TIP3   OH231293   0.480   1.273   0.150  0.6675  0.6697 -0.8886
 3245TIP3    H131294   0.385   1.276   0.137  0.1219  3.7865  2.3730
 3245TIP3    H231295   0.513   1.353   0.110  1.4874  0.9799  0.3428
 3246TIP3   OH231296   1.290   1.348   1.671  0.5822  0.6307  0.3960
 3246TIP3    H131297   1.247   1.296   1.739 -2.1199  1.9295 -0.1742
 3246TIP3    H231298   1.366   1.387   1.715  0.9035 -1.2682  1.6498
 3247TIP3   OH231299   3.482   5.100   1.694 -0.2810 -0.2019  0.1428
 3247TIP3    H131300   3.547   5.101   1.624 -0.6626  1.4458 -0.2096
 3247TIP3    H231301   3.527   5.139   1.769 -0.3373 -0.6453  0.4171
 3248TIP3   OH231302   0.041   2.553   7.408  0.8221 -0.2731 -0.6885
 3248TIP3    H131303  -0.049   2.524   7.424  0.7873 -0.7470 -1.6958
 3248TIP3    H231304   0.095   2.480   7.438  0.7923 -0.7307 -1.6980
 3249TIP3   OH231305   3.232   6.136   1.967 -0.0870  0.2531 -0.2097
 3249TIP3    H131306   3.159   6.191   1.996  0.3659  0.4892  0.4991
 3249TIP3    H231307   3.233   6.063   2.029  0.2999  0.2712 -0.1937
 3250TIP3   OH231308   2.402   2.484   7.872 -0.9490  0.2581  0.0508
 3250TIP3    H131309   2.458   2.541   7.819  1.1953 -0.6459  1.2281
 3250TIP3    H231310   2.343   2.543   7.918 -0.3129  1.3305 -0.4783
 3251TIP3   OH231311   1.969   3.450   1.492  0.3253  0.3249  0.6780
 3251TIP3    H131312   1.902   3.427   1.557  2.0385  0.8492  2.7673
 3251TIP3    H231313   1.954   3.543   1.475 -0.0708  0.2098  0.3834
 3252TIP3   OH231314   3.689   2.225   8.201  0.1645  0.1820  0.1414
 3252TIP3    H131315   3.654   2.235   8.289  1.7404 -0.9862  0.9363
 3252TIP3    H231316   3.784   2.224   8.212  0.4188  0.4683 -1.6345
 3253TIP3   OH231317   1.405   0.990   0.703 -0.3099 -0.1563 -0.1175
 3253TIP3    H131318   1.331   1.025   0.753 -1.7743 -0.2680 -2.0973
 3253TIP3    H231319   1.483   1.021   0.750 -1.5658 -0.4960  2.3550
 3254TIP3   OH231320   0.714   0.156   7.218 -0.1856 -0.5100  0.2835
 3254TIP3    H131321   0.723   0.061   7.221  2.2571 -0.3672 -0.6119
 3254TIP3    H231322   0.743   0.180   7.130 -0.3529  1.1049  0.6426
 3255TIP3   OH231323   0.906   3.447   7.589 -0.5344 -0.4258 -0.2860
 3255TIP3    H131324   0.994   3.427   7.556 -0.0713  2.6295 -1.2332
 3255TIP3    H231325   0.914   3.440   7.684  0.0602 -2.4478 -0.4460
 3256TIP3   OH231326   5.785   0.355   7.949 -0.2880 -0.2806  0.3831
 3256TIP3    H131327   5.772   0.313   8.034  0.8781 -0.7967  0.3178
 3256TIP3    H231328   5.836   0.293   7.899  0.1029  0.5529 -0.2746
 3257TIP3   OH231329   5.833   3.260   1.726 -0.2168  1.0546  0.2533
 3257TIP3    H131330   5.838   3.321   1.799  0.0501 -0.1088  1.2540
 3257TIP3    H231331   5.745   3.224   1.731 -0.4971  1.6019 -0.5513
 3258TIP3   OH231332   1.811   6.033   2.254  0.1221 -0.6556 -0.4527
 3258TIP3    H131333   1.792   6.077   2.171  0.9732 -1.2764 -0.9950
 3258TIP3    H231334   1.766   6.086   2.320  1.0047  0.9495 -1.0910
 3259TIP3   OH231335   0.539   4.983   8.229 -1.1248 -0.1709  0.1088
 3259TIP3    H131336   0.494   5.009   8.310 -1.4973  2.7922 -0.9305
 3259TIP3    H231337   0.631   4.984   8.252 -1.2500  0.2855  0.6229
 3260TIP3   OH231338   6.771   2.351   0.566 -0.6550  1.1262  0.2362
 3260TIP3    H131339   6.798   2.353   0.658  1.0377  1.4136 -0.2317
 3260TIP3    H231340   6.840   2.300   0.522 -2.7793 -1.3061 -0.4876
 3261TIP3   OH231341   2.020   5.826   8.267 -0.0646  0.1275  0.5404
 3261TIP3    H131342   2.066   5.818   8.184 -0.0105  1.2191  0.4523
 3261TIP3    H231343   2.079   5.788   8.331 -0.1302 -0.7751  0.0814
 3262TIP3   OH231344   3.192   1.174   1.115 -0.0446  0.5445  0.0819
 3262TIP3    H131345   3.239   1.124   1.048 -1.1245 -1.0340  0.4350
 3262TIP3    H231346   3.169   1.256   1.071 -2.0170 -1.0113 -2.1016
 3263TIP3   OH231347   5.451   0.187   0.925  0.0002  0.2767 -0.0700
 3263TIP3    H131348   5.455   0.212   1.018  1.1436  1.1270 -0.3306
 3263TIP3    H231349   5.365   0.144   0.916 -0.5239  1.0023  1.1670
 3264TIP3   OH231350   5.813   0.828   8.466 -0.3187 -0.2548  0.1798
 3264TIP3    H131351   5.831   0.844   8.559 -0.5894 -0.7561  0.3247
 3264TIP3    H231352   5.855   0.901   8.420 -2.1711  1.3139  0.8571
 3265TIP3   OH231353   0.022   6.601   1.222 -0.5309 -0.1396 -0.4003
 3265TIP3    H131354   0.037   6.656   1.145 -1.4696  1.2682  0.3780
 3265TIP3    H231355  -0.045   6.538   1.193  1.2273 -1.5531 -1.5842
 3266TIP3   OH231356   5.335   2.897   7.053 -0.1998 -0.5872  0.3524
 3266TIP3    H131357   5.383   2.846   6.988  0.2407  2.3944 -1.8198
 3266TIP3    H231358   5.400   2.957   7.090 -0.9657 -0.6494  1.8980
 3267TIP3   OH231359   5.975   1.360   2.540  0.4987  0.5965 -0.9830
 3267TIP3    H131360   5.911   1.345   2.470  0.0633  0.7700 -0.6249
 3267TIP3    H231361   5.965   1.453   2.561  0.2213  0.4203 -0.3002
 3268TIP3   OH231362   0.043   2.519   0.107  0.1960 -0.9925 -0.4238
 3268TIP3    H131363   0.112   2.493   0.047  1.7108 -0.4076  0.9829
 3268TIP3    H231364   0.007   2.437   0.140  1.1665 -1.3239 -0.1553
 3269TIP3   OH231365   4.237   4.959   0.765 -0.2726  0.1149 -0.4008
 3269TIP3    H131366   4.291   4.905   0.708 -0.1667 -0.0040 -0.1897
 3269TIP3    H231367   4.195   4.897   0.824  0.3647  0.3071  0.2724
 3270TIP3   OH231368   1.765   2.445   7.685  0.4667  0.0527 -0.0167
 3270TIP3    H131369   1.758   2.530   7.642 -1.8167  0.6431  1.3387
 3270TIP3    H231370   1.823   2.460   7.760  0.8795  0.1339 -0.3479
 3271TIP3   OH231371   4.318   6.684   2.240 -0.0440  0.0702 -0.1245
 3271TIP3    H131372   4.261   6.691   2.163  0.0071 -0.0903 -0.1761
 3271TIP3    H231373   4.402   6.719   2.210  0.0537 -0.2498 -0.2208
 3272TIP3   OH231374   4.357   5.464   0.599  0.6649 -0.4497  0.8508
 3272TIP3    H131375   4.384   5.528   0.532 -0.3491  1.4876  2.1981
 3272TIP3    H231376   4.390   5.500   0.681  0.8647 -2.1825  1.5787
 3273TIP3   OH231377   0.448   6.501   3.283 -0.2882 -0.0382  0.7119
 3273TIP3    H131378   0.530   6.550   3.295  0.2680 -0.9964  0.9790
 3273TIP3    H231379   0.427   6.468   3.370 -0.2052 -0.9470  0.3951
 3274TIP3   OH231380   0.793   2.612   7.017 -0.0775  0.1547 -0.4152
 3274TIP3    H131381   0.715   2.631   7.071  1.1336 -0.3551  1.6189
 3274TIP3    H231382   0.763   2.544   6.956 -1.3350  0.2459  0.0551
 3275TIP3   OH231383   4.949   3.069   8.686 -0.3935 -0.6299  0.3434
 3275TIP3    H131384   4.940   3.070   8.591  1.1446 -2.3857  0.1454
 3275TIP3    H231385   4.880   3.010   8.716  0.2754 -1.5118  0.1591
 3276TIP3   OH231386   5.900   2.444   8.811 -0.2505 -0.1857  0.3915
 3276TIP3    H131387   5.852   2.521   8.843 -2.5349 -1.1104 -0.6793
 3276TIP3    H231388   5.937   2.472   8.728  0.1061  0.1540  0.6560
 3277TIP3   OH231389   4.409   1.017   0.884  0.2115  0.4432  0.7039
 3277TIP3    H131390   4.320   0.983   0.894  0.4624 -0.6583 -0.4924
 3277TIP3    H231391   4.399   1.112   0.880 -0.9393  0.3221  0.3159
 3278TIP3   OH231392   0.400   4.814   2.064  0.2246 -0.0227 -0.7860
 3278TIP3    H131393   0.396   4.748   2.132  0.2904 -0.6080 -1.3384
 3278TIP3    H231394   0.329   4.875   2.084 -0.1527 -0.5418 -0.5556
 3279TIP3   OH231395   3.687   3.238   2.270 -0.1644 -0.3369 -0.1475
 3279TIP3    H131396   3.725   3.263   2.354  0.6009  0.4907 -0.7172
 3279TIP3    H231397   3.762   3.207   2.218 -0.6562 -1.0378 -0.4636
 3280TIP3   OH231398   5.079   3.647   0.885 -0.2442 -0.2010  0.1971
 3280TIP3    H131399   5.139   3.719   0.902 -0.8053  0.1438  0.7654
 3280TIP3    H231400   5.002   3.688   0.844 -0.5244 -0.4809  0.4318
 3281TIP3   OH231401   4.898   1.489   8.017  0.5595  0.3383 -0.3307
 3281TIP3    H131402   4.968   1.526   8.069  1.3678  0.1452 -1.2450
 3281TIP3    H231403   4.919   1.396   8.011  0.1710  0.2605 -0.5277
 3282TIP3   OH231404   3.694   2.982   0.168 -0.1181 -0.3224  0.4154
 3282TIP3    H131405   3.660   2.968   0.079 -1.0113 -0.6046  0.7932
 3282TIP3    H231406   3.789   2.987   0.157  0.1381 -4.0906 -0.1045
 3283TIP3   OH231407   4.556   6.508   7.940  0.6073  0.5065 -0.0940
 3283TIP3    H131408   4.537   6.415   7.952  2.7832  0.1161  0.9047
 3283TIP3    H231409   4.491   6.553   7.994 -1.3910 -0.2889 -1.7022
 3284TIP3   OH231410   0.527   5.544   0.165 -1.0558  0.2485  0.0378
 3284TIP3    H131411   0.553   5.572   0.253 -0.9038 -0.3627  0.1930
 3284TIP3    H231412   0.535   5.623   0.112  1.4339  0.0594  0.0140
 3285TIP3   OH231413   2.203   4.791   1.720  0.2697 -0.2312 -0.3675
 3285TIP3    H131414   2.182   4.775   1.812  0.4366  0.9514 -0.1052
 3285TIP3    H231415   2.155   4.722   1.672 -0.3538 -0.4583  0.5543
 3286TIP3   OH231416   6.579   2.165   7.375  0.0528  0.7790  0.6666
 3286TIP3    H131417   6.626   2.108   7.314 -1.1023  1.3253 -0.7941
 3286TIP3    H231418   6.489   2.131   7.375 -0.4186  1.9832  0.5341
 3287TIP3   OH231419   3.274   3.436   1.719 -0.3565 -0.1803 -0.5319
 3287TIP3    H131420   3.237   3.479   1.795 -2.1882 -1.1736 -0.8018
 3287TIP3    H231421   3.327   3.365   1.755 -0.8590 -0.3711 -0.1552
 3288TIP3   OH231422   5.254   0.718   1.714 -0.1056 -0.6445 -0.4728
 3288TIP3    H131423   5.329   0.670   1.747 -0.7434 -1.0355  0.4597
 3288TIP3    H231424   5.274   0.734   1.622  1.4593 -0.0519 -0.0592
 3289TIP3   OH231425   0.734   1.872   0.447 -0.4734  0.5293 -0.0949
 3289TIP3    H131426   0.779   1.789   0.462 -1.6168 -0.0411  0.3313
 3289TIP3    H231427   0.792   1.938   0.484 -0.0576 -0.1985  0.5752
 3290TIP3   OH231428   6.715   4.825   2.220  0.0359 -0.0426 -0.4743
 3290TIP3    H131429   6.809   4.840   2.232  0.1309  0.0453 -1.3279
 3290TIP3    H231430   6.698   4.847   2.129 -0.8674  0.1923 -0.2593
 3291TIP3   OH231431   5.875   0.083   7.086  0.4817  0.2199 -0.1000
 3291TIP3    H131432   5.819   0.021   7.039  1.0901  0.8916 -1.8340
 3291TIP3    H231433   5.915   0.136   7.016  3.7476 -0.6277  0.9346
 3292TIP3   OH231434   5.064   6.601   7.474 -0.5006  0.2474 -0.1258
 3292TIP3    H131435   4.987   6.642   7.433 -0.0165 -0.3408 -1.7007
 3292TIP3    H231436   5.126   6.590   7.402  0.6278 -0.3166  0.9019
 3293TIP3   OH231437   3.976   4.865   0.974 -0.0496 -0.4075  0.0814
 3293TIP3    H131438   4.025   4.790   0.940 -0.7583 -1.3031  0.9465
 3293TIP3    H231439   3.913   4.885   0.906  1.9551  1.2840 -1.4113
 3294TIP3   OH231440   0.546   5.393   7.521  0.4800 -0.2289 -0.0545
 3294TIP3    H131441   0.556   5.395   7.616 -0.2992  1.6978  0.0199
 3294TIP3    H231442   0.515   5.481   7.497  0.1364 -0.8258 -2.0339
 3295TIP3   OH231443   3.833   1.780   0.973 -0.5361  0.2819 -0.3790
 3295TIP3    H131444   3.892   1.837   0.923  0.6153  0.7460  1.4025
 3295TIP3    H231445   3.885   1.702   0.991 -0.8882  0.1723  0.1840
 3296TIP3   OH231446   1.787   0.047   8.523  1.2226  0.2484 -0.2315
 3296TIP3    H131447   1.754   0.087   8.603  1.7949  2.3988 -1.0159
 3296TIP3    H231448   1.725   0.074   8.455  1.8142  0.0904 -0.8497
 3297TIP3   OH231449   6.339   0.493   0.763 -0.2512 -0.5284 -0.0331
 3297TIP3    H131450   6.329   0.404   0.729 -0.5667 -0.2975 -0.5536
 3297TIP3    H231451   6.418   0.489   0.817  0.3684 -0.8684 -0.9405
 3298TIP3   OH231452   5.426   1.939   1.841  0.3346 -0.3760  0.2413
 3298TIP3    H131453   5.508   1.955   1.888 -0.6801 -0.0855  1.9571
 3298TIP3    H231454   5.357   1.959   1.904 -1.0752 -1.3736 -0.9196
 3299TIP3   OH231455   4.191   4.258   1.144  0.0382 -0.8075  0.2804
 3299TIP3    H131456   4.125   4.231   1.081  0.8335  0.1197 -0.9797
 3299TIP3    H231457   4.146   4.320   1.202 -0.2327 -0.2586 -0.5068
 3300TIP3   OH231458   3.934   0.516   0.644  0.0082  0.7518 -0.2336
 3300TIP3    H131459   3.967   0.440   0.692  0.0108  0.5269 -0.5871
 3300TIP3    H231460   3.839   0.515   0.659 -0.1328  0.0864 -1.0551
 3301TIP3   OH231461   5.410   5.593   0.965 -0.1079 -0.1976  0.1251
 3301TIP3    H131462   5.408   5.563   1.055  1.9158  1.6188  0.8707
 3301TIP3    H231463   5.408   5.688   0.971 -1.5519 -0.0324 -1.8586
 3302TIP3   OH231464   3.527   3.320   1.275 -0.1630  0.3582 -0.0936
 3302TIP3    H131465   3.511   3.227   1.256 -1.0414  0.6894 -1.0516
 3302TIP3    H231466   3.466   3.367   1.219  0.5054  1.5368  0.1318
 3303TIP3   OH231467   5.341   3.893   7.191  0.4305  0.1563 -0.0290
 3303TIP3    H131468   5.308   3.883   7.102  1.4477 -0.9623 -0.3043
 3303TIP3    H231469   5.415   3.953   7.183  0.1789  0.5003  0.1643
 3304TIP3   OH231470   6.065   3.820   7.245  0.1483 -0.0510  0.9209
 3304TIP3    H131471   6.130   3.810   7.314  0.0493 -0.5055  0.9505
 3304TIP3    H231472   6.101   3.888   7.188  0.7715 -0.4748  0.7954
 3305TIP3   OH231473   0.666   3.559   1.315 -0.8810  0.1483  0.1830
 3305TIP3    H131474   0.669   3.642   1.363  0.5811 -0.1359  0.6395
 3305TIP3    H231475   0.722   3.573   1.239 -1.1421 -0.2224 -0.0794
 3306TIP3   OH231476   6.396   5.332   2.479  0.1523  0.0804 -0.3242
 3306TIP3    H131477   6.321   5.354   2.534 -0.4969  0.7113 -1.4360
 3306TIP3    H231478   6.419   5.413   2.435  0.8274 -0.3493 -0.7908
 3307TIP3   OH231479   3.056   6.733   8.144 -0.0087 -0.5057  0.9801
 3307TIP3    H131480   3.008   6.726   8.227  1.0481 -1.2354  1.5524
 3307TIP3    H231481   2.993   6.773   8.084 -1.0958 -0.7658  1.8927
 3308TIP3   OH231482   0.019   2.896   8.279  0.5952  0.3313 -0.6162
 3308TIP3    H131483   0.109   2.927   8.291 -0.0199  2.0124 -0.0178
 3308TIP3    H231484  -0.035   2.960   8.325 -1.0020 -0.0495 -1.8497
 3309TIP3   OH231485   6.550   1.389   8.101 -0.1163 -0.3611 -0.1841
 3309TIP3    H131486   6.503   1.349   8.027  0.0714  0.0456 -0.5258
 3309TIP3    H231487   6.533   1.330   8.174 -1.1452 -0.2406 -0.3043
 3310TIP3   OH231488   6.318   2.085   2.446 -0.5019 -0.1636  0.1465
 3310TIP3    H131489   6.340   2.135   2.367 -0.1522  1.4308  1.2064
 3310TIP3    H231490   6.280   2.004   2.413  1.1347 -0.2580 -1.6855
 3311TIP3   OH231491   6.730   0.919   7.342  0.0109  0.2675 -0.6291
 3311TIP3    H131492   6.813   0.967   7.346 -0.0960  0.3957  2.2130
 3311TIP3    H231493   6.667   0.983   7.310  0.8175  0.4516 -1.9014
 3312TIP3   OH231494   6.039   1.874   0.443  0.1046  0.2011  0.9562
 3312TIP3    H131495   6.069   1.785   0.423 -1.0131  0.1045 -0.4785
 3312TIP3    H231496   5.994   1.866   0.527 -1.6325 -1.0259 -0.0235
 3313TIP3   OH231497   4.469   3.978   8.106 -0.6133 -0.2781 -0.1416
 3313TIP3    H131498   4.440   3.897   8.064 -1.5368  0.0617 -0.1836
 3313TIP3    H231499   4.430   4.048   8.053  0.4252  0.2058 -0.2887
 3314TIP3   OH231500   0.988   0.799   0.407  0.5791  0.4191  0.2089
 3314TIP3    H131501   1.028   0.731   0.462  1.4854  0.0768 -0.8362
 3314TIP3    H231502   0.998   0.879   0.458 -0.4270 -0.1888  1.4269
 3315TIP3   OH231503   3.592   2.420   7.797 -0.0047 -0.2529 -0.4052
 3315TIP3    H131504   3.562   2.403   7.707  2.4147 -1.7229 -1.0209
 3315TIP3    H231505   3.530   2.485   7.830 -0.4211  1.1092 -3.4633
 3316TIP3   OH231506   0.490   0.519   1.878 -0.3790  0.2073 -0.0378
 3316TIP3    H131507   0.530   0.600   1.846  0.7463 -0.5180 -0.5559
 3316TIP3    H231508   0.398   0.527   1.855 -0.0910  0.8981 -1.0222
 3317TIP3   OH231509   6.305   6.463   1.244 -0.1190  0.3237 -0.5208
 3317TIP3    H131510   6.267   6.478   1.157  0.7577  2.6243 -0.5573
 3317TIP3    H231511   6.266   6.380   1.272 -1.0898 -0.0507 -2.7317
 3318TIP3   OH231512   2.658   6.308   2.285 -0.1130 -0.8418 -0.2228
 3318TIP3    H131513   2.563   6.296   2.284 -0.4271  1.0662 -1.7010
 3318TIP3    H231514   2.694   6.223   2.310 -2.2036 -1.6084  0.3473
 3319TIP3   OH231515   6.416   6.341   8.484  0.1909 -0.0909  0.4915
 3319TIP3    H131516   6.440   6.250   8.465  1.2726  0.8590 -3.6695
 3319TIP3    H231517   6.478   6.368   8.552  0.9429 -2.0072  0.6431
 3320TIP3   OH231518   4.764   0.744   0.746 -0.0708  0.0539 -0.2380
 3320TIP3    H131519   4.741   0.663   0.700 -0.8761  0.2400 -0.1756
 3320TIP3    H231520   4.683   0.795   0.747  0.6223  1.2238 -1.0020
 3321TIP3   OH231521   6.612   5.196   8.130 -0.0560 -0.2304 -0.3223
 3321TIP3    H131522   6.585   5.244   8.052  1.1286  3.2416  1.1840
 3321TIP3    H231523   6.651   5.115   8.097  0.2056  0.9943 -3.3165
 3322TIP3   OH231524   3.608   6.330   8.587  0.3020 -0.0968 -0.2351
 3322TIP3    H131525   3.513   6.326   8.596  0.2575 -0.9379 -0.9033
 3322TIP3    H231526   3.635   6.239   8.575  1.2746  0.0495  0.6569
 3323TIP3   OH231527   1.441   1.888   7.419 -0.3350 -0.9081  0.2602
 3323TIP3    H131528   1.490   1.883   7.501  0.0602 -0.8782  0.0294
 3323TIP3    H231529   1.457   1.977   7.387  1.4256 -1.6069 -1.0012
 3324TIP3   OH231530   2.274   2.860   1.099  0.2532  0.0166  0.0051
 3324TIP3    H131531   2.197   2.877   1.045  0.4857  0.9073 -0.0647
 3324TIP3    H231532   2.307   2.775   1.069  0.5094  0.5952 -1.4286
 3325TIP3   OH231533   5.179   4.950   8.636  0.7964  0.1453  0.2614
 3325TIP3    H131534   5.264   4.922   8.603  1.2233  0.5560  0.9873
 3325TIP3    H231535   5.164   5.034   8.593  0.8343  0.1583  0.2742
 3326TIP3   OH231536   4.665   0.168   1.944  0.2310  0.1105 -0.4913
 3326TIP3    H131537   4.742   0.141   1.893  1.4038  2.6482 -0.2436
 3326TIP3    H231538   4.698   0.180   2.033 -0.8973 -0.4769  0.0275
 3327TIP3   OH231539   6.032   0.635   7.985 -0.2730 -0.0874 -0.1411
 3327TIP3    H131540   5.988   0.691   7.921  1.4048  1.3577 -0.1170
 3327TIP3    H231541   5.963   0.611   8.047 -1.2555  1.2554 -0.6516
 3328TIP3   OH231542   4.216   3.109   1.655  0.7419 -0.4134  0.4536
 3328TIP3    H131543   4.206   3.128   1.562  0.2460 -0.1469  0.5604
 3328TIP3    H231544   4.144   3.154   1.697  0.4277 -1.2838  0.8801
 3329TIP3   OH231545   2.662   3.799   6.980  0.3241 -0.0820 -0.2245
 3329TIP3    H131546   2.710   3.736   7.034  1.9215  1.2046 -0.0393
 3329TIP3    H231547   2.571   3.789   7.006  0.8388 -0.6643  1.5308
 3330TIP3   OH231548   6.586   6.083   0.226 -0.9987  0.0493 -0.0546
 3330TIP3    H131549   6.608   5.990   0.217 -1.5678  0.0171 -1.2595
 3330TIP3    H231550   6.566   6.094   0.319 -0.7259 -0.9838  0.1382
 3331TIP3   OH231551   6.214   5.767   8.675  0.1410 -0.9345  0.0204
 3331TIP3    H131552   6.271   5.723   8.738 -1.0137  0.3575  2.0699
 3331TIP3    H231553   6.254   5.853   8.662  0.2995 -1.1448 -0.9276
 3332TIP3   OH231554   3.312   4.157   2.298  0.1846 -0.4492 -0.0053
 3332TIP3    H131555   3.372   4.099   2.251  0.0422 -0.0752 -0.6629
 3332TIP3    H231556   3.358   4.241   2.301  1.3137 -1.0447  2.7546
 3333TIP3   OH231557   4.576   6.663   8.459 -0.3352  0.2907 -0.2178
 3333TIP3    H131558   4.658   6.654   8.411 -0.7857  2.0076 -1.3950
 3333TIP3    H231559   4.535   6.577   8.452  1.8902 -1.0150  1.5239
 3334TIP3   OH231560   2.681   5.920   8.709 -0.5890 -0.0520  0.2969
 3334TIP3    H131561   2.758   5.975   8.719  0.0908 -1.1898  1.6687
 3334TIP3    H231562   2.654   5.900   8.799 -0.9538 -1.7618 -0.1718
 3335TIP3   OH231563   0.901   0.178   1.849 -0.3047 -0.2322 -0.1757
 3335TIP3    H131564   0.860   0.101   1.810  0.5994  0.0536 -1.7854
 3335TIP3    H231565   0.832   0.244   1.852 -0.9436 -0.9303  0.7244
 3336TIP3   OH231566   0.645   4.019   8.364  0.1081  0.5263  0.5283
 3336TIP3    H131567   0.573   4.030   8.426 -1.2573 -1.9379 -0.4817
 3336TIP3    H231568   0.614   4.060   8.283 -1.1817 -2.3730 -0.5506
 3337TIP3   OH231569   1.046   4.731   7.523 -0.0340  0.2114 -0.1346
 3337TIP3    H131570   1.044   4.668   7.451 -0.2036 -0.8189  0.7574
 3337TIP3    H231571   0.990   4.802   7.493  0.9937  0.4673 -1.6021
 3338TIP3   OH231572   6.667   5.347   0.430  0.1034  0.4593  0.1576
 3338TIP3    H131573   6.634   5.415   0.371  0.9342  0.2833 -0.5257
 3338TIP3    H231574   6.760   5.366   0.439  0.3618 -0.6352 -0.0954
 3339TIP3   OH231575   2.914   1.250   0.301  0.1324 -0.1382  0.5616
 3339TIP3    H131576   2.875   1.267   0.387 -0.6190  0.5176  0.1059
 3339TIP3    H231577   2.945   1.336   0.271 -0.2168 -0.2340 -0.1005
 3340TIP3   OH231578   4.873   5.869   8.637  0.8571 -0.6330  0.1473
 3340TIP3    H131579   4.777   5.865   8.632  0.5475  0.2460  3.2178
 3340TIP3    H231580   4.895   5.955   8.603  0.6188 -0.9565 -0.8640
 3341TIP3   OH231581   1.178   5.751   0.387  0.3459 -0.0953  0.0021
 3341TIP3    H131582   1.125   5.821   0.423  0.2732 -0.3320  0.3592
 3341TIP3    H231583   1.154   5.673   0.438  1.0651 -0.1949  0.2041
 3342TIP3   OH231584   2.217   5.572   7.689 -0.3292  0.1291 -0.6428
 3342TIP3    H131585   2.273   5.622   7.630  1.3229 -0.9549 -0.0678
 3342TIP3    H231586   2.261   5.577   7.774 -0.8412 -1.1370 -0.2709
 3343TIP3   OH231587   5.309   2.859   0.437 -0.2430  0.1330  0.2856
 3343TIP3    H131588   5.393   2.816   0.427  0.3028  1.1475  0.3598
 3343TIP3    H231589   5.245   2.794   0.408  0.6655 -0.0455 -1.4524
 3344TIP3   OH231590   4.577   4.823   1.778 -0.1983 -0.5934 -0.1014
 3344TIP3    H131591   4.502   4.881   1.766 -0.1992 -0.6538 -0.3848
 3344TIP3    H231592   4.641   4.877   1.825 -0.2898 -0.4367 -0.1543
 3345TIP3   OH231593   0.623   0.081   1.499 -0.1405 -0.2208 -0.3211
 3345TIP3    H131594   0.708   0.122   1.488  0.0745 -1.0174 -1.8752
 3345TIP3    H231595   0.579   0.134   1.566  1.9210 -0.4053  1.2601
 3346TIP3   OH231596   3.839   3.591   2.078 -0.1048 -0.4185 -0.0622
 3346TIP3    H131597   3.798   3.580   2.164  1.1877 -0.3639  0.5835
 3346TIP3    H231598   3.771   3.630   2.024 -0.3648  1.4169  1.4852
 3347TIP3   OH231599   5.383   4.655   7.566  0.6533 -0.1023  0.0195
 3347TIP3    H131600   5.328   4.639   7.489 -0.3404  0.5922  0.5625
 3347TIP3    H231601   5.467   4.684   7.530 -0.0075  0.8507 -0.8220
 3348TIP3   OH231602   0.554   0.079   1.943  0.3157 -0.3900 -0.3497
 3348TIP3    H131603   0.473   0.103   1.898  0.3276  1.2121  0.3942
 3348TIP3    H231604   0.592   0.010   1.889 -0.7489 -0.0650 -1.5755
 3349TIP3   OH231605   1.531   2.066   1.277  0.6407  0.3843 -0.0945
 3349TIP3    H131606   1.495   2.150   1.306 -2.2087 -1.1355  1.1532
 3349TIP3    H231607   1.594   2.043   1.346  0.8453  1.1102 -0.0272
 3350TIP3   OH231608   0.085   1.254   2.585 -0.2112 -0.2250 -0.4019
 3350TIP3    H131609   0.132   1.324   2.629 -0.9153  0.3278 -0.5041
 3350TIP3    H231610   0.067   1.190   2.654  0.6677 -0.4433 -0.3630
 3351TIP3   OH231611   0.785   2.712   3.244 -0.3038  0.2467  0.3140
 3351TIP3    H131612   0.743   2.788   3.204  0.5154  0.1212 -0.8440
 3351TIP3    H231613   0.745   2.636   3.201 -1.4873 -0.0567  1.8200
 3352TIP3   OH231614   6.554   2.713   7.684  0.0354 -0.4739 -0.2918
 3352TIP3    H131615   6.509   2.771   7.746 -1.5992 -1.7216 -0.2477
 3352TIP3    H231616   6.504   2.723   7.602  0.8666 -0.4573 -0.8083
 3353TIP3   OH231617   4.650   2.698   2.146  0.0582  0.4402  0.0733
 3353TIP3    H131618   4.630   2.642   2.221  1.2132  0.7669  0.6524
 3353TIP3    H231619   4.595   2.664   2.075 -1.4626  0.4676  1.1943
 3354TIP3   OH231620   1.962   6.013   8.487 -0.5647  0.1818 -0.1662
 3354TIP3    H131621   1.945   6.056   8.571 -3.7828  5.4011 -2.9351
 3354TIP3    H231622   2.052   6.037   8.466 -0.9695  2.2213  0.2216
 3355TIP3   OH231623   4.336   4.509   0.925  0.3323  0.4517  0.6061
 3355TIP3    H131624   4.315   4.418   0.906 -0.8930  0.8552 -0.1212
 3355TIP3    H231625   4.420   4.506   0.970  1.3855 -0.9026 -1.2935
 3356TIP3   OH231626   2.681   0.410   7.635 -0.6482 -0.2747 -0.2392
 3356TIP3    H131627   2.634   0.339   7.592 -0.8897 -0.2389 -0.0371
 3356TIP3    H231628   2.657   0.489   7.587  0.8086 -0.5138 -1.4310
 3357TIP3   OH231629   2.291   4.471   0.697 -0.6848 -0.1277  0.5831
 3357TIP3    H131630   2.303   4.563   0.722 -0.3024 -0.5282  1.9553
 3357TIP3    H231631   2.379   4.433   0.702 -0.9583 -0.7456  0.7871
 3358TIP3   OH231632   6.415   3.323   0.496  0.3842  0.4590 -0.2588
 3358TIP3    H131633   6.347   3.303   0.431  0.4728  1.9784 -0.8688
 3358TIP3    H231634   6.462   3.240   0.507 -0.3613 -0.1317 -1.2760
 3359TIP3   OH231635   6.668   4.783   0.251 -0.4032 -0.0623  0.3443
 3359TIP3    H131636   6.755   4.792   0.210 -0.3611  0.4588  0.5318
 3359TIP3    H231637   6.613   4.745   0.183  0.1902 -1.2558  0.5183
 3360TIP3   OH231638   1.735   0.323   7.104  0.5652 -0.0714  0.5198
 3360TIP3    H131639   1.766   0.391   7.045 -1.8585  0.4058 -0.3263
 3360TIP3    H231640   1.734   0.243   7.051 -1.2210  0.2760 -0.0434
 3361TIP3   OH231641   6.789   0.258   0.319 -0.0244  0.2815 -0.2164
 3361TIP3    H131642   6.821   0.295   0.401  1.1105 -0.0846 -0.4778
 3361TIP3    H231643   6.746   0.331   0.274 -0.5604  0.5062  0.6428
 3362TIP3   OH231644   2.827   0.631   7.130 -0.4218 -0.3631 -0.1145
 3362TIP3    H131645   2.907   0.588   7.100  0.0545  0.6260 -0.3263
 3362TIP3    H231646   2.836   0.722   7.098 -2.6717 -0.7545 -2.1629
 3363TIP3   OH231647   5.382   5.751   1.614 -0.2573  0.1589  0.1897
 3363TIP3    H131648   5.397   5.659   1.594 -3.4544 -0.3407 -0.4204
 3363TIP3    H231649   5.413   5.761   1.704 -0.4886 -1.7210  0.5169
 3364TIP3   OH231650   4.819   3.947   7.989  0.0951  0.3064  0.5500
 3364TIP3    H131651   4.840   3.943   8.082 -1.2877  0.2556  0.8808
 3364TIP3    H231652   4.753   4.016   7.982 -0.7223 -0.5149 -0.1929
 3365TIP3   OH231653   3.959   4.226   2.520 -0.1104 -0.5397  0.1077
 3365TIP3    H131654   3.897   4.158   2.497  1.2335 -1.4592 -0.9660
 3365TIP3    H231655   4.043   4.194   2.486  0.7203  1.2258  0.3988
 3366TIP3   OH231656   0.636   0.383   0.867 -0.2876 -0.9773  0.3306
 3366TIP3    H131657   0.547   0.418   0.866  0.0219 -0.1608 -0.7836
 3366TIP3    H231658   0.670   0.401   0.779  0.1670 -3.4431 -0.0740
 3367TIP3   OH231659   5.500   5.823   1.848  0.0801 -0.3212  0.2156
 3367TIP3    H131660   5.574   5.874   1.878  0.4839 -0.8360  0.1185
 3367TIP3    H231661   5.516   5.735   1.883 -1.4596 -0.0265  1.8403
 3368TIP3   OH231662   0.973   5.696   8.215 -0.4607  0.6828  0.4943
 3368TIP3    H131663   0.973   5.606   8.184  0.6996 -0.1148  2.6349
 3368TIP3    H231664   1.049   5.736   8.171  0.3291 -0.0258  1.1862
 3369TIP3   OH231665   5.199   3.068   1.967 -0.1910 -0.1670 -0.5858
 3369TIP3    H131666   5.167   2.998   2.023  1.1317  0.0443  0.4978
 3369TIP3    H231667   5.128   3.084   1.905 -0.5555 -2.3895 -0.8122
 3370TIP3   OH231668   6.220   0.177   2.799 -0.1221 -0.0696  0.0217
 3370TIP3    H131669   6.155   0.244   2.780  0.8737  0.2362 -2.7587
 3370TIP3    H231670   6.290   0.223   2.844 -0.2844  0.3726 -0.1677
 3371TIP3   OH231671   1.478   2.976   8.478  0.1071  0.1377  0.3431
 3371TIP3    H131672   1.520   2.894   8.507  0.7855  0.6773  0.9201
 3371TIP3    H231673   1.532   3.005   8.405  0.0222  0.2081  0.3091
 3372TIP3   OH231674   6.331   3.492   3.301 -0.6701 -0.0306  0.1413
 3372TIP3    H131675   6.250   3.534   3.272  0.0983  1.0779 -0.4881
 3372TIP3    H231676   6.328   3.404   3.264 -1.1675  0.3108 -0.6411
 3373TIP3   OH231677   4.723   0.023   7.735 -0.0076  0.5029 -0.4410
 3373TIP3    H131678   4.728  -0.072   7.734  0.7614  0.5177 -2.3056
 3373TIP3    H231679   4.708   0.047   7.643  0.6408  2.2018 -0.1419
 3374TIP3   OH231680   6.445   4.727   7.648  0.4718  0.7195 -0.5868
 3374TIP3    H131681   6.376   4.730   7.714  2.1707  2.0119  1.2355
 3374TIP3    H231682   6.431   4.806   7.595 -0.0040  0.4615 -0.8557
 3375TIP3   OH231683   0.788   4.324   2.320  0.1149  0.3270  0.3929
 3375TIP3    H131684   0.818   4.262   2.253  0.4180  0.4989  0.3652
 3375TIP3    H231685   0.815   4.410   2.287  0.0172  0.4387  0.6019
 3376TIP3   OH231686   5.049   5.195   8.318 -0.3831  0.4028  0.1630
 3376TIP3    H131687   5.114   5.167   8.254  0.5995 -0.0643  1.3313
 3376TIP3    H231688   4.988   5.121   8.324 -1.4116  1.0631 -1.3521
 3377TIP3   OH231689   2.433   1.627   6.503  0.1447 -0.2126  0.1619
 3377TIP3    H131690   2.508   1.642   6.445  0.3028 -0.7090  0.2325
 3377TIP3    H231691   2.357   1.655   6.451  0.4484  1.1719  0.4305
 3378TIP3   OH231692   0.254   4.785   7.693 -0.2104  0.0102 -0.0675
 3378TIP3    H131693   0.252   4.784   7.598 -0.8584 -0.7266 -0.0602
 3378TIP3    H231694   0.347   4.790   7.716 -0.1310  2.0837 -0.7226
 3379TIP3   OH231695   1.468   3.926   1.770  0.1703 -0.0163  0.2574
 3379TIP3    H131696   1.511   3.989   1.712  1.7905  1.0937  2.5059
 3379TIP3    H231697   1.522   3.847   1.764  1.1263  0.5437  1.2086
 3380TIP3   OH231698   6.113   4.615   2.927 -0.0393  0.0121 -0.1798
 3380TIP3    H131699   6.162   4.580   3.002  0.6440  0.5924 -0.3433
 3380TIP3    H231700   6.116   4.544   2.862 -0.8201 -0.5781  0.4064
 3381TIP3   OH231701   5.446   2.770   1.750  0.2109  0.5592  0.2141
 3381TIP3    H131702   5.448   2.675   1.756  1.1954  0.3821 -1.8328
 3381TIP3    H231703   5.355   2.791   1.729  0.3633 -0.1560 -1.3328
 3382TIP3   OH231704   4.738   0.591   0.395 -0.0719  0.1549 -0.6310
 3382TIP3    H131705   4.834   0.588   0.394 -0.0271 -1.2061  0.9728
 3382TIP3    H231706   4.712   0.534   0.323  0.3539 -0.2068 -0.5084
 3383TIP3   OH231707   4.503   6.153   7.164 -0.3564 -0.0910  0.0146
 3383TIP3    H131708   4.487   6.143   7.070 -0.1429 -0.0421 -0.0294
 3383TIP3    H231709   4.521   6.064   7.195  1.3432  0.0843 -0.3354
 3384TIP3   OH231710   6.133   4.049   2.659 -0.3888  0.4246  0.1495
 3384TIP3    H131711   6.070   4.016   2.722 -0.3477  1.8788  0.9889
 3384TIP3    H231712   6.115   4.000   2.579 -1.5866 -0.2276  0.7976
 3385TIP3   OH231713   1.088   5.746   1.711  0.5563 -0.5690 -0.5323
 3385TIP3    H131714   1.046   5.694   1.779  1.6322 -1.4172 -0.4790
 3385TIP3    H231715   1.149   5.802   1.758  0.6178 -0.4776 -0.7185
 3386TIP3   OH231716   0.263   6.769   7.050  0.0422  0.1216  0.1831
 3386TIP3    H131717   0.313   6.770   7.131  2.2956 -2.0415 -1.0341
 3386TIP3    H231718   0.193   6.706   7.066 -0.7136  1.1328  1.0118
 3387TIP3   OH231719   0.583   6.655   7.431 -0.2935 -0.1856  0.6500
 3387TIP3    H131720   0.558   6.710   7.506  0.4818 -3.1531  3.3361
 3387TIP3    H231721   0.678   6.647   7.437 -0.3190 -1.2327 -0.0469
 3388TIP3   OH231722   6.018   5.510   8.254  0.2223 -0.4737 -0.3582
 3388TIP3    H131723   5.992   5.600   8.232 -0.2192 -0.9198 -1.7217
 3388TIP3    H231724   6.012   5.507   8.350 -1.1879  0.5265 -0.3756
 3389TIP3   OH231725   4.237   0.903   1.652 -0.6710 -0.0324 -0.2822
 3389TIP3    H131726   4.305   0.942   1.598 -1.5228 -0.6129 -1.8304
 3389TIP3    H231727   4.166   0.967   1.651 -0.3325  0.3958  1.0029
 3390TIP3   OH231728   0.843   5.254   0.311  0.1266  0.1236  0.4965
 3390TIP3    H131729   0.782   5.223   0.379 -2.2735  0.4623 -1.3494
 3390TIP3    H231730   0.917   5.291   0.360 -1.4013  0.2146  2.9163
 3391TIP3   OH231731   4.493   4.602   0.424 -0.5499 -0.1861  0.3631
 3391TIP3    H131732   4.442   4.548   0.364  0.1423 -1.2570  0.6976
 3391TIP3    H231733   4.533   4.539   0.485  0.0057  0.7364  0.9816
 3392TIP3   OH231734   3.691   6.163   0.263 -0.2063  0.5101  0.6331
 3392TIP3    H131735   3.660   6.092   0.319  0.0662 -0.8038 -0.8232
 3392TIP3    H231736   3.638   6.157   0.183  2.3409 -0.5696 -1.1187
 3393TIP3   OH231737   0.940   2.220   0.792 -0.3049 -0.5068  0.3575
 3393TIP3    H131738   1.000   2.185   0.858 -1.4573 -2.5466  0.4137
 3393TIP3    H231739   0.863   2.248   0.841 -0.8673 -1.3604  0.0056
 3394TIP3   OH231740   2.245   5.479   2.434  0.4857 -0.0862 -0.2972
 3394TIP3    H131741   2.152   5.497   2.426  0.2868 -1.1257 -0.4206
 3394TIP3    H231742   2.279   5.550   2.488 -0.8790 -1.1545  2.1000
 3395TIP3   OH231743   1.062   4.196   1.342 -0.5386 -0.0772 -0.4449
 3395TIP3    H131744   1.143   4.206   1.392 -0.9418 -0.3310  0.2797
 3395TIP3    H231745   1.090   4.164   1.257  0.1394 -0.0049 -0.2541
 3396TIP3   OH231746   2.410   1.425   1.363  0.4497 -0.6439  0.4000
 3396TIP3    H131747   2.346   1.391   1.425  0.2768 -1.0934 -0.0150
 3396TIP3    H231748   2.406   1.520   1.374 -1.7059 -0.5088 -0.9666
 3397TIP3   OH231749   6.616   3.400   8.435  0.0449 -0.5940  0.7137
 3397TIP3    H131750   6.567   3.318   8.440  1.1544 -1.2615  1.1828
 3397TIP3    H231751   6.669   3.401   8.515  0.5724  0.2268  0.3655
 3398TIP3   OH231752   2.464   6.655   8.253 -0.3873 -0.1833 -0.1971
 3398TIP3    H131753   2.444   6.747   8.236  0.1722 -0.3474 -1.9498
 3398TIP3    H231754   2.542   6.637   8.201  0.3198 -1.3266  1.1709
 3399TIP3   OH231755   0.133   0.740   1.925  0.5136 -0.1484 -0.3390
 3399TIP3    H131756   0.187   0.661   1.935  0.3158 -0.3958 -1.1954
 3399TIP3    H231757   0.179   0.807   1.976  0.5654 -0.8656  0.5803
 3400TIP3   OH231758   0.020   3.056   2.392 -1.0204  0.8010 -0.4147
 3400TIP3    H131759   0.014   3.042   2.486 -1.6832 -0.8579 -0.6733
 3400TIP3    H231760   0.087   3.123   2.382  1.0347 -0.9030  1.1119
 3401TIP3   OH231761   0.117   5.836   7.732 -0.6482 -0.2100  0.2490
 3401TIP3    H131762   0.158   5.795   7.656  0.4892  0.3256  0.5546
 3401TIP3    H231763   0.059   5.769   7.766  1.5867 -1.8578  1.0717
 3402TIP3   OH231764   1.506   4.353   2.852  0.4790 -0.4798  0.2956
 3402TIP3    H131765   1.578   4.364   2.915 -0.3693 -1.1333  1.4207
 3402TIP3    H231766   1.452   4.283   2.890 -1.5664  1.0120  0.2571
 3403TIP3   OH231767   4.367   3.269   7.775  1.1530  0.0596  0.0950
 3403TIP3    H131768   4.278   3.273   7.739  0.2945  1.1162  2.1753
 3403TIP3    H231769   4.388   3.175   7.776 -0.8049 -0.4177  1.4620
 3404TIP3   OH231770   0.139   3.156   7.213  0.7688  0.2829  0.6990
 3404TIP3    H131771   0.100   3.072   7.190  1.8750 -0.2531  0.7144
 3404TIP3    H231772   0.212   3.134   7.270 -0.0528  1.3985  2.2470
 3405TIP3   OH231773   3.642   4.546   8.602 -0.3988  0.2341  0.2408
 3405TIP3    H131774   3.620   4.564   8.510 -1.3222  0.0589  0.4175
 3405TIP3    H231775   3.721   4.493   8.598 -0.7162 -0.1900 -0.4766
 3406TIP3   OH231776   2.728   2.164   8.661  0.0157  0.4236 -0.1024
 3406TIP3    H131777   2.681   2.239   8.696  0.1639  0.3794  0.1932
 3406TIP3    H231778   2.820   2.192   8.659  0.2123 -0.1071  0.9812
 3407TIP3   OH231779   6.709   6.779   8.762 -0.7881  0.3285 -0.3967
 3407TIP3    H131780   6.772   6.826   8.708  0.9575 -0.9399  0.4190
 3407TIP3    H231781   6.743   6.790   8.852 -1.1089 -1.2554 -0.0558
 3408TIP3   OH231782   2.567   5.812   7.831 -0.3667  0.2867  0.0709
 3408TIP3    H131783   2.591   5.876   7.765 -2.4606  0.4270 -0.6269
 3408TIP3    H231784   2.638   5.815   7.895  0.8265  1.4210 -1.2566
 3409TIP3   OH231785   5.787   1.690   7.512 -0.6415  0.4014  0.5117
 3409TIP3    H131786   5.798   1.634   7.435 -0.0232  0.5009  0.5254
 3409TIP3    H231787   5.695   1.717   7.509 -0.8562 -0.3129  0.3016
 3410TIP3   OH231788   2.550   2.088   0.440 -0.5267 -0.0289  0.1302
 3410TIP3    H131789   2.631   2.038   0.449 -1.2102 -1.4968 -1.1710
 3410TIP3    H231790   2.574   2.178   0.461  1.2402 -0.5612  0.5657
 3411TIP3   OH231791   6.221   4.228   1.557 -0.0424  0.1953 -0.3387
 3411TIP3    H131792   6.187   4.306   1.513 -3.0147 -0.0815  1.1713
 3411TIP3    H231793   6.247   4.260   1.644 -1.2162 -0.4197  0.2623
 3412TIP3   OH231794   3.881   1.324   8.428 -0.2432  0.4350 -0.1406
 3412TIP3    H131795   3.795   1.294   8.399 -0.2436 -0.7440  0.9922
 3412TIP3    H231796   3.866   1.363   8.514  0.2756  0.6485 -0.1414
 3413TIP3   OH231797   3.236   4.949   8.334  0.5559  0.6258 -0.1208
 3413TIP3    H131798   3.154   4.944   8.384  0.1696 -1.1019 -0.8570
 3413TIP3    H231799   3.213   5.000   8.257 -0.0247 -0.3798 -0.6307
 3414TIP3   OH231800   5.494   0.453   0.328 -0.2101  0.1195  0.3752
 3414TIP3    H131801   5.408   0.429   0.363  0.0236  2.5248  2.8805
 3414TIP3    H231802   5.554   0.389   0.366 -0.4632  0.5542  1.5614
 3415TIP3   OH231803   1.401   5.930   2.387 -0.0753 -0.4401 -0.3895
 3415TIP3    H131804   1.483   5.912   2.432  0.4003  1.0501 -0.5936
 3415TIP3    H231805   1.334   5.928   2.456  0.1388 -1.4866 -0.1951
 3416TIP3   OH231806   0.771   6.747   0.100 -0.3402 -0.5365 -0.9225
 3416TIP3    H131807   0.721   6.734   0.180  0.5695  0.1072 -0.2218
 3416TIP3    H231808   0.731   6.824   0.059  0.1050  0.0184 -0.3294
 3417TIP3   OH231809   3.330   0.121   7.053 -0.2812 -0.0728 -0.4102
 3417TIP3    H131810   3.397   0.188   7.038 -0.4856  0.4502  0.8496
 3417TIP3    H231811   3.373   0.057   7.110 -0.6510 -0.0555 -0.1061
 3418TIP3   OH231812   5.409   0.029   0.611  0.2439 -0.1238  0.8817
 3418TIP3    H131813   5.444   0.118   0.615 -1.3585  0.5982  0.0344
 3418TIP3    H231814   5.347   0.024   0.683 -2.2462  0.7274 -1.0223
 3419TIP3   OH231815   4.356   5.970   1.615  0.1278 -0.2361  0.6621
 3419TIP3    H131816   4.263   5.950   1.603 -0.4305  1.5264  1.7381
 3419TIP3    H231817   4.377   6.029   1.543  0.7661 -1.5323 -0.2627
 3420TIP3   OH231818   6.150   2.690   2.496 -0.3804 -0.2743 -0.4987
 3420TIP3    H131819   6.090   2.617   2.515 -0.1242 -0.7394 -1.4382
 3420TIP3    H231820   6.094   2.762   2.471 -0.7217  0.2678  1.6293
 3421TIP3   OH231821   0.329   5.697   8.256 -0.0557 -0.0381 -0.0315
 3421TIP3    H131822   0.419   5.670   8.274 -0.5727 -1.0437  1.2562
 3421TIP3    H231823   0.306   5.649   8.176 -0.1406 -1.5338  0.8557
 3422TIP3   OH231824   1.447   4.091   1.144  0.0898 -0.0514 -0.0664
 3422TIP3    H131825   1.531   4.055   1.114  1.0680 -0.5649  2.8957
 3422TIP3    H231826   1.470   4.174   1.186 -0.7457 -0.4210  1.2013
 3423TIP3   OH231827   4.746   0.380   0.212  0.0445 -0.5386 -0.2521
 3423TIP3    H131828   4.710   0.350   0.129 -1.1705  2.2154 -0.8459
 3423TIP3    H231829   4.840   0.376   0.200 -0.1016 -1.5501 -1.2129
 3424TIP3   OH231830   5.199   3.849   1.166  0.2767  0.0965  0.1236
 3424TIP3    H131831   5.280   3.850   1.114  0.3137  0.0066  0.1781
 3424TIP3    H231832   5.204   3.767   1.215 -0.3138 -0.3874 -0.6045
 3425TIP3   OH231833   0.071   0.339   8.852  0.2484 -0.7042 -0.4307
 3425TIP3    H131834   0.044   0.274   8.788 -1.2469 -0.2335 -0.3046
 3425TIP3    H231835   0.023   0.419   8.828  0.6140 -0.1727  0.5244
 3426TIP3   OH231836   3.461   6.412   1.600 -0.3073 -0.0228 -0.2762
 3426TIP3    H131837   3.434   6.422   1.509 -1.0394 -0.3288 -0.1030
 3426TIP3    H231838   3.418   6.332   1.629  2.0945 -1.4443 -0.4329
 3427TIP3   OH231839   5.351   6.726   8.693 -0.3382 -0.2475  0.6066
 3427TIP3    H131840   5.420   6.676   8.650 -1.5129 -0.6173 -0.9559
 3427TIP3    H231841   5.391   6.811   8.713  0.7347 -0.6670  0.2940
 3428TIP3   OH231842   6.024   5.460   0.204  0.1772 -0.2385 -0.3183
 3428TIP3    H131843   6.031   5.483   0.111 -0.9757 -1.5214 -0.7501
 3428TIP3    H231844   5.984   5.373   0.204  0.0370 -0.1925  1.3884
 3429TIP3   OH231845   4.760   6.335   8.511  0.2337  0.3325 -0.0118
 3429TIP3    H131846   4.673   6.371   8.496 -0.0749 -0.0389  0.7903
 3429TIP3    H231847   4.820   6.398   8.471 -0.4266  0.2667 -1.1350
 3430TIP3   OH231848   2.891   2.749   7.326  0.1530  0.6820  0.5041
 3430TIP3    H131849   2.801   2.725   7.345  0.7525 -1.3501  1.0051
 3430TIP3    H231850   2.909   2.709   7.240  0.5244  1.2447  0.3115
 3431TIP3   OH231851   3.012   2.725   0.486  0.8941  0.1364  0.8499
 3431TIP3    H131852   2.935   2.704   0.539 -1.4891  0.5607 -2.1792
 3431TIP3    H231853   3.021   2.820   0.493 -0.5337  0.4402 -0.7500
 3432TIP3   OH231854   2.778   2.445   7.886  0.6305 -0.9455  0.2132
 3432TIP3    H131855   2.687   2.422   7.905  1.0076 -1.4465  1.5267
 3432TIP3    H231856   2.772   2.507   7.813 -0.8433 -0.0726  1.0127
 3433TIP3   OH231857   3.671   1.884   0.437  0.2944 -0.1828 -0.6177
 3433TIP3    H131858   3.763   1.858   0.441  1.0263  2.2746  0.2623
 3433TIP3    H231859   3.661   1.949   0.507 -1.3603  1.7417 -2.4937
 3434TIP3   OH231860   0.623   0.438   8.276  0.1900  0.1058 -0.2214
 3434TIP3    H131861   0.600   0.515   8.224  1.7031  0.7896  0.0770
 3434TIP3    H231862   0.669   0.381   8.215  1.1937  0.5179  0.1445
 3435TIP3   OH231863   4.325   0.161   6.887  0.6523 -0.6428  0.1788
 3435TIP3    H131864   4.278   0.088   6.927  2.5526 -2.6206 -1.0018
 3435TIP3    H231865   4.267   0.192   6.818 -0.2685 -0.8457  0.8295
 3436TIP3   OH231866   6.493   1.105   7.296 -0.4794  0.4637  0.4281
 3436TIP3    H131867   6.494   1.163   7.220  0.3822  0.6244  0.5543
 3436TIP3    H231868   6.452   1.025   7.265  0.2192  0.3834 -0.3112
 3437TIP3   OH231869   4.418   2.533   0.018  0.6030 -0.2151  0.2372
 3437TIP3    H131870   4.370   2.470  -0.037 -0.1842  0.1852  0.4507
 3437TIP3    H231871   4.496   2.554  -0.033  0.9804 -1.5020  0.2428
 3438TIP3   OH231872   2.957   2.530   1.684  0.2799 -0.0725  0.2421
 3438TIP3    H131873   2.882   2.493   1.731  2.0119 -2.7282  1.1116
 3438TIP3    H231874   2.954   2.490   1.597  0.4195  0.1994  0.1091
 3439TIP3   OH231875   5.914   0.624   1.203 -0.3263  0.0368  0.2276
 3439TIP3    H131876   5.953   0.706   1.233 -1.0542  1.0769 -1.5403
 3439TIP3    H231877   5.843   0.608   1.266 -0.6028  1.1246  0.2114
 3440TIP3   OH231878   5.479   3.371   2.168 -0.5529 -0.2205  0.3127
 3440TIP3    H131879   5.508   3.461   2.154 -1.4749 -0.0294 -0.4227
 3440TIP3    H231880   5.406   3.379   2.230  0.3193 -0.6175  1.4357
 3441TIP3   OH231881   0.811   5.843   7.994 -0.6555  0.1529  0.1775
 3441TIP3    H131882   0.720   5.873   7.988 -1.1870 -0.8941  2.2666
 3441TIP3    H231883   0.817   5.802   8.080  1.7798  0.0718  0.0200
 3442TIP3   OH231884   6.171   5.051   2.014 -0.2712 -0.3091  0.2491
 3442TIP3    H131885   6.215   5.056   2.099  0.3075 -0.4966 -0.0402
 3442TIP3    H231886   6.208   4.974   1.971  1.1460  1.0782 -1.1221
 3443TIP3   OH231887   1.032   0.432   7.519 -0.3974 -0.2091 -0.1135
 3443TIP3    H131888   0.974   0.507   7.508  1.3757  1.1557 -0.5136
 3443TIP3    H231889   1.094   0.438   7.447  0.8187 -1.1026  0.8024
 3444TIP3   OH231890   3.961   3.177   6.774  0.1940 -0.4872 -0.5527
 3444TIP3    H131891   3.889   3.150   6.717 -2.3937  1.0281  1.7614
 3444TIP3    H231892   4.040   3.157   6.724 -1.8312 -0.4225 -4.0881
 3445TIP3   OH231893   4.572   2.571   7.672  0.2266  0.2934  0.0702
 3445TIP3    H131894   4.637   2.612   7.729  0.5776  0.2341 -0.2833
 3445TIP3    H231895   4.596   2.600   7.584  1.1506 -1.5210 -0.3358
 3446TIP3   OH231896   3.598   1.675   1.226 -0.4278 -0.1588  0.1582
 3446TIP3    H131897   3.592   1.612   1.298  0.6961 -1.8548 -1.1360
 3446TIP3    H231898   3.688   1.706   1.229 -0.1725 -0.7418 -0.8624
 3447TIP3   OH231899   1.560   3.695   2.787 -0.5378  0.0058 -0.0170
 3447TIP3    H131900   1.589   3.606   2.805  0.5398 -0.0318 -1.7572
 3447TIP3    H231901   1.464   3.689   2.786 -0.5060 -1.6384 -2.1499
 3448TIP3   OH231902   5.383   6.082   0.848  0.5967 -0.2773 -0.1490
 3448TIP3    H131903   5.467   6.039   0.837  0.6385 -0.5195  1.0060
 3448TIP3    H231904   5.404   6.169   0.883  0.3681 -0.3206  0.1014
 3449TIP3   OH231905   1.399   3.968   8.322 -0.1123  0.3627 -0.3654
 3449TIP3    H131906   1.315   3.995   8.360  0.7310  0.3806  1.5634
 3449TIP3    H231907   1.393   3.873   8.316  0.0985  0.2680  0.7419
 3450TIP3   OH231908   1.035   0.416   2.360 -0.4368  0.2942 -0.0980
 3450TIP3    H131909   1.021   0.325   2.336 -1.3571  0.1223  1.0326
 3450TIP3    H231910   1.013   0.465   2.280  0.7395 -0.4808 -0.9327
 3451TIP3   OH231911   2.086   6.052   2.445  0.0018  0.4180  0.6270
 3451TIP3    H131912   2.174   6.048   2.408 -0.0968  0.1091  0.4236
 3451TIP3    H231913   2.034   6.096   2.378 -0.4973 -1.4237 -0.2527
 3452TIP3   OH231914   5.507   6.204   1.620 -0.1708  0.5198  0.2705
 3452TIP3    H131915   5.416   6.205   1.591 -0.3162 -0.9098  0.5661
 3452TIP3    H231916   5.506   6.245   1.706 -0.3243  1.5979 -0.2339
 3453TIP3   OH231917   0.818   6.720   7.640 -0.4676 -0.4672 -0.6626
 3453TIP3    H131918   0.796   6.811   7.660  0.6321 -0.4196  0.4040
 3453TIP3    H231919   0.850   6.723   7.550  1.4183  0.5725 -0.0247
 3454TIP3   OH231920   1.813   1.757   2.139 -0.0442 -0.0504  0.5641
 3454TIP3    H131921   1.896   1.740   2.183  0.0413  0.0838  0.4575
 3454TIP3    H231922   1.837   1.769   2.047 -0.2799 -0.8412  0.3902
 3455TIP3   OH231923   0.451   2.089   1.083  0.1282  0.5049 -0.0267
 3455TIP3    H131924   0.433   2.171   1.129  0.2340  0.1875  0.5836
 3455TIP3    H231925   0.511   2.042   1.140 -0.7518 -0.4592  0.1200
 3456TIP3   OH231926   6.401   4.631   8.558  0.4259  0.3236  0.0469
 3456TIP3    H131927   6.448   4.696   8.611 -1.1353  2.1072 -0.6430
 3456TIP3    H231928   6.312   4.632   8.592  0.3234 -1.4191 -0.0723
 3457TIP3   OH231929   3.327   4.662   0.664 -0.0247 -0.5427 -0.4081
 3457TIP3    H131930   3.396   4.682   0.727  0.2270 -1.0304 -0.5303
 3457TIP3    H231931   3.328   4.567   0.655 -0.6485 -0.5498 -0.4834
 3458TIP3   OH231932   3.080   0.222   0.007  0.3395 -0.0118 -0.4148
 3458TIP3    H131933   3.094   0.142  -0.043 -0.3544 -1.4528  1.5478
 3458TIP3    H231934   3.157   0.228   0.064  0.5563  0.9351 -0.7924
 3459TIP3   OH231935   6.333   1.752   0.479  0.2109  0.2296  0.3163
 3459TIP3    H131936   6.404   1.717   0.534  1.4145  1.8868 -0.1220
 3459TIP3    H231937   6.258   1.758   0.539  1.1039  0.6953  1.4259
 3460TIP3   OH231938   3.424   4.879   8.864  0.0271  0.0976  0.0920
 3460TIP3    H131939   3.378   4.796   8.854  0.4148 -0.1408  0.2613
 3460TIP3    H231940   3.400   4.909   8.952  0.1312  0.0096  0.1513
 3461TIP3   OH231941   1.463   1.627   2.368  0.2403 -0.0551 -0.2028
 3461TIP3    H131942   1.406   1.551   2.371  0.3005 -0.1423 -0.9595
 3461TIP3    H231943   1.515   1.622   2.448 -0.3212 -0.3618  0.1453
 3462TIP3   OH231944   5.969   1.803   2.257  0.3398 -0.5469 -0.7049
 3462TIP3    H131945   5.897   1.776   2.200 -0.4411  0.0204 -0.0010
 3462TIP3    H231946   5.946   1.768   2.343 -0.1517  1.3690 -0.0068
 3463TIP3   OH231947   3.865   0.361   0.895  0.1964  0.2341 -0.1232
 3463TIP3    H131948   3.908   0.422   0.956 -1.6943  1.3629  0.1628
 3463TIP3    H231949   3.937   0.316   0.852  1.7282  2.6393 -0.3041
 3464TIP3   OH231950   6.640   1.662   2.589 -0.4287  0.2524 -0.2565
 3464TIP3    H131951   6.619   1.755   2.600  0.8372  0.5579 -0.2901
 3464TIP3    H231952   6.661   1.633   2.678 -1.4158 -0.1746 -0.1465
 3465TIP3   OH231953   3.334   0.575   0.003 -0.3494 -0.1142 -0.0904
 3465TIP3    H131954   3.363   0.592  -0.087  1.0967 -2.6634 -0.1823
 3465TIP3    H231955   3.415   0.563   0.052 -1.1663 -0.5666  1.1798
 3466TIP3   OH231956   5.447   1.204   0.543  0.2124  0.7631 -0.2390
 3466TIP3    H131957   5.414   1.293   0.553  1.8643  1.3000  0.9096
 3466TIP3    H231958   5.541   1.211   0.561  0.2948 -1.2991  0.3984
 3467TIP3   OH231959   2.324   0.899   7.130  0.5011  0.9875 -0.0245
 3467TIP3    H131960   2.259   0.935   7.070  1.0860  0.4072 -1.0418
 3467TIP3    H231961   2.357   0.974   7.178 -0.5608  1.3503  0.1535
 3468TIP3   OH231962   0.619   5.632   8.246  0.2456 -0.0832  1.0673
 3468TIP3    H131963   0.675   5.562   8.278  3.2590  1.1171 -1.0310
 3468TIP3    H231964   0.667   5.713   8.267 -0.6954  1.0256 -0.7200
 3469TIP3   OH231965   5.808   2.700   0.186  0.6194  0.5234 -0.3228
 3469TIP3    H131966   5.776   2.758   0.117 -1.0625 -0.5239 -0.4836
 3469TIP3    H231967   5.737   2.697   0.250  0.2129 -2.0525 -0.7823
 3470TIP3   OH231968   1.973   4.030   0.388  0.5267  0.2182  0.3994
 3470TIP3    H131969   1.941   3.941   0.403  1.0521 -0.1289 -0.4739
 3470TIP3    H231970   1.901   4.086   0.417  0.6535 -0.4376  2.1148
 3471TIP3   OH231971   3.347   5.718   1.565 -0.4717 -0.3950  0.1865
 3471TIP3    H131972   3.398   5.685   1.639  0.7822  0.1375 -0.4003
 3471TIP3    H231973   3.288   5.783   1.604  1.4006  1.1993  0.5614
 3472TIP3   OH231974   0.695   5.400   2.795  0.2277 -0.1984  0.1839
 3472TIP3    H131975   0.600   5.397   2.798  0.2087 -2.6608 -0.6684
 3472TIP3    H231976   0.721   5.410   2.887 -0.8217  1.0052  0.3781
 3473TIP3   OH231977   6.402   2.266   7.875 -0.0619  0.6210  0.2231
 3473TIP3    H131978   6.443   2.308   7.799  0.2258  0.7143  0.4270
 3473TIP3    H231979   6.312   2.298   7.874 -0.0418  0.6713 -0.0426
 3474TIP3   OH231980   4.061   5.867   7.959  0.4251  0.6231 -0.4469
 3474TIP3    H131981   4.091   5.956   7.941 -0.2950  0.5961 -1.9888
 3474TIP3    H231982   3.998   5.849   7.889 -3.3471  0.7151  2.6054
 3475TIP3   OH231983   3.767   5.107   1.551 -0.7173  0.0042  0.5542
 3475TIP3    H131984   3.756   5.103   1.456  0.6594  1.5228  0.2598
 3475TIP3    H231985   3.795   5.019   1.576 -1.8749 -0.6342 -0.3071
 3476TIP3   OH231986   4.611   4.499   7.582  0.9035  0.2444  0.0812
 3476TIP3    H131987   4.570   4.505   7.496 -2.6627 -0.8606  1.5430
 3476TIP3    H231988   4.569   4.569   7.633  4.2641  2.1125  0.6114
 3477TIP3   OH231989   4.622   1.461   1.362 -0.1538  0.3932 -0.1819
 3477TIP3    H131990   4.705   1.441   1.405  1.7056 -0.9639 -3.9519
 3477TIP3    H231991   4.582   1.375   1.346 -0.9880  0.8793 -0.7726
 3478TIP3   OH231992   1.495   0.076   8.841 -0.5544 -0.2576 -0.4358
 3478TIP3    H131993   1.569   0.130   8.814 -0.9390 -0.0558 -1.0979
 3478TIP3    H231994   1.423   0.137   8.852 -0.9678 -0.6105 -1.0884
 3479TIP3   OH231995   5.554   5.920   7.603  0.1762 -0.0775  0.5335
 3479TIP3    H131996   5.491   5.991   7.591  0.4525  0.0954  0.0902
 3479TIP3    H231997   5.581   5.928   7.695  0.4019  0.5559  0.4170
 3480TIP3   OH231998   0.734   0.741   1.319 -0.3667  0.3707 -0.1086
 3480TIP3    H131999   0.822   0.722   1.286 -0.6800 -0.0633 -0.7394
 3480TIP3    H232000   0.716   0.671   1.382 -1.3174 -1.2375 -2.0476
 3481TIP3   OH232001   1.956   6.529   2.156  0.3070  0.5708 -0.0069
 3481TIP3    H132002   2.009   6.601   2.191  1.8456 -1.0779  1.2403
 3481TIP3    H232003   1.976   6.528   2.063  2.1444  0.2980  0.3627
 3482TIP3   OH232004   6.453   4.754   2.115 -0.5986 -0.1274  0.1404
 3482TIP3    H132005   6.451   4.849   2.129  1.2413 -0.0356  0.0819
 3482TIP3    H232006   6.545   4.731   2.125 -1.0103 -1.9123  0.0819
 3483TIP3   OH232007   6.732   1.655   1.589 -0.4547  0.3695  0.5418
 3483TIP3    H132008   6.794   1.606   1.534 -2.0168 -1.3448  0.2224
 3483TIP3    H232009   6.672   1.696   1.527 -2.1332 -1.4498  0.8657
 3484TIP3   OH232010   5.978   6.260   7.287  0.1181  0.4445 -0.3023
 3484TIP3    H132011   6.055   6.205   7.301 -0.4156 -0.0675  0.8134
 3484TIP3    H232012   6.004   6.346   7.320  1.1215  1.0517 -2.5051
 3485TIP3   OH232013   5.313   5.532   8.725 -0.1175  0.1039  0.6507
 3485TIP3    H132014   5.287   5.612   8.772  1.3918  0.3819  1.0456
 3485TIP3    H232015   5.258   5.463   8.762  0.3186  0.5068  2.0962
 3486TIP3   OH232016   0.383   2.351   1.213 -0.5191  0.0314 -0.8908
 3486TIP3    H132017   0.339   2.432   1.188 -1.4596 -0.7059 -1.6973
 3486TIP3    H232018   0.324   2.309   1.275 -0.7771 -0.7373 -1.6221
 3487TIP3   OH232019   6.062   6.638   0.285 -0.5307  0.0503 -0.2646
 3487TIP3    H132020   6.008   6.604   0.356  0.6342 -0.6767  0.3117
 3487TIP3    H232021   6.076   6.562   0.228 -0.7789  0.4284 -0.8407
 3488TIP3   OH232022   2.775   1.005   1.474  0.4879  0.2608 -0.0594
 3488TIP3    H132023   2.744   1.081   1.523  0.2667 -0.3476  0.7677
 3488TIP3    H232024   2.854   1.036   1.430 -0.5280  1.4498 -1.1331
 3489TIP3   OH232025   4.370   5.154   8.657 -0.4496 -0.0721 -0.2366
 3489TIP3    H132026   4.416   5.203   8.726 -0.2909 -0.8543  0.2222
 3489TIP3    H232027   4.401   5.193   8.575 -1.0472  1.2320  0.1419
 3490TIP3   OH232028   2.715   6.431   0.527 -0.2312 -0.6081 -0.0003
 3490TIP3    H132029   2.662   6.488   0.471  0.7976  0.0657 -0.3074
 3490TIP3    H232030   2.658   6.412   0.602 -0.8456  0.2467 -0.2338
 3491TIP3   OH232031   1.980   4.876   2.628 -0.1759 -0.0634  0.1769
 3491TIP3    H132032   1.905   4.904   2.681 -1.2800 -0.0112 -1.3311
 3491TIP3    H232033   1.956   4.788   2.599  0.5536 -0.2142  0.0258
 3492TIP3   OH232034   5.635   3.933   6.662 -0.1154  0.0162  0.2283
 3492TIP3    H132035   5.606   4.023   6.645 -0.2654 -0.4593 -2.4122
 3492TIP3    H232036   5.555   3.881   6.664  0.1119 -0.4420 -1.1978
 3493TIP3   OH232037   2.556   6.592   7.454 -0.5486 -0.0252  0.6573
 3493TIP3    H132038   2.527   6.667   7.403 -0.2469  0.7180  1.5351
 3493TIP3    H232039   2.476   6.557   7.494 -0.5831  0.3743  0.9425
 3494TIP3   OH232040   2.540   2.877   1.343  0.4010 -0.0106 -0.6146
 3494TIP3    H132041   2.537   2.885   1.438 -0.1743 -0.8493 -0.5456
 3494TIP3    H232042   2.516   2.963   1.310 -0.2435  0.0553  0.0051
 3495TIP3   OH232043   5.329   0.192   2.071  0.3086  0.4398 -0.3381
 3495TIP3    H132044   5.300   0.145   1.993  0.4255 -0.6847  0.2771
 3495TIP3    H232045   5.284   0.277   2.065  0.6686  0.5610 -1.8396
 3496TIP3   OH232046   4.510   4.141   8.627 -0.3160  0.4740 -0.2249
 3496TIP3    H132047   4.510   4.164   8.720  0.7550  1.5383 -0.4699
 3496TIP3    H232048   4.522   4.224   8.581 -2.1718  0.1584 -1.4010
 3497TIP3   OH232049   2.146   3.761   2.216 -0.3533 -0.0916 -0.0651
 3497TIP3    H132050   2.092   3.690   2.182 -1.2236  0.5375 -0.0330
 3497TIP3    H232051   2.216   3.717   2.264 -1.2775 -0.9272  0.5633
 3498TIP3   OH232052   3.212   2.369   1.915 -0.7632 -0.4483 -0.4421
 3498TIP3    H132053   3.278   2.325   1.970 -0.0440 -1.4656 -2.0236
 3498TIP3    H232054   3.223   2.462   1.934  0.6534 -0.6481 -0.1155
 3499TIP3   OH232055   5.302   4.077   7.518 -0.4842 -0.6907  0.0052
 3499TIP3    H132056   5.249   4.119   7.451  0.2262  0.2730  0.0249
 3499TIP3    H232057   5.241   4.058   7.590 -0.7249  0.8030  0.2117
 3500TIP3   OH232058   6.713   4.512   1.231 -0.0743 -0.3556  0.5502
 3500TIP3    H132059   6.731   4.444   1.297  1.3237  0.2531  0.8445
 3500TIP3    H232060   6.704   4.465   1.149 -0.4257 -1.0117  0.9608
 3501TIP3   OH232061   0.864   3.466   2.784 -0.2455 -0.0729 -0.5595
 3501TIP3    H132062   0.774   3.498   2.780 -0.9217 -1.6717  0.6011
 3501TIP3    H232063   0.893   3.489   2.872 -0.4182 -1.7044 -0.0431
 3502TIP3   OH232064   5.521   5.988   2.632 -0.5888  0.2768 -0.4655
 3502TIP3    H132065   5.533   6.038   2.552  0.6099 -0.1936 -0.6056
 3502TIP3    H232066   5.501   5.899   2.602  1.5263 -0.2993 -0.3041
 3503TIP3   OH232067   6.444   3.456   1.770  0.4641 -0.3645  0.0493
 3503TIP3    H132068   6.510   3.501   1.717 -0.1884 -1.2557 -1.5930
 3503TIP3    H232069   6.495   3.399   1.828  1.2954  2.1299  1.9934
 3504TIP3   OH232070   5.115   6.092   0.806  0.5096  0.1507 -0.1716
 3504TIP3    H132071   5.209   6.084   0.820  0.4101 -1.0043 -0.1263
 3504TIP3    H232072   5.083   6.137   0.884  0.5692 -2.4492  1.4713
 3505TIP3   OH232073   2.538   6.332   1.162 -0.1314  0.4542  0.6990
 3505TIP3    H132074   2.568   6.420   1.140  0.8696  0.2713  1.2690
 3505TIP3    H232075   2.554   6.324   1.256  0.4099 -0.5619  0.5383
 3506TIP3   OH232076   4.701   1.868   7.478  0.6428  0.3147  0.0520
 3506TIP3    H132077   4.788   1.895   7.508  0.8644  2.2677 -2.0609
 3506TIP3    H232078   4.640   1.917   7.533  0.9815  1.6882 -0.7497
 3507TIP3   OH232079   1.597   0.421   8.595  0.3472 -0.1843  0.3471
 3507TIP3    H132080   1.642   0.450   8.515 -1.6864 -0.8868 -1.1388
 3507TIP3    H232081   1.516   0.382   8.563  0.1887 -1.9392  2.6897
 3508TIP3   OH232082   5.729   3.652   0.348 -0.1546  0.1008  0.4639
 3508TIP3    H132083   5.714   3.692   0.433 -0.7722  0.7343  0.0621
 3508TIP3    H232084   5.722   3.558   0.364  2.3718  0.0320  1.6336
 3509TIP3   OH232085   5.135   3.461   0.523 -0.1681  0.3072  0.2244
 3509TIP3    H132086   5.121   3.403   0.599 -0.6026  0.2724  0.1239
 3509TIP3    H232087   5.204   3.521   0.551 -0.1231  0.1105  0.5448
 3510TIP3   OH232088   5.962   4.904   2.245  0.3823  0.1013  0.1458
 3510TIP3    H132089   5.907   4.926   2.170  0.2597 -1.5392 -0.2776
 3510TIP3    H232090   5.907   4.921   2.321 -1.0462 -2.1314 -0.2803
 3511TIP3   OH232091   2.347   3.839   2.019  0.6825  0.4604 -0.2525
 3511TIP3    H132092   2.333   3.829   2.114 -0.3140 -0.0672 -0.4487
 3511TIP3    H232093   2.306   3.923   1.998  1.4215  0.8648 -0.1278
 3512TIP3   OH232094   1.957   6.621   2.767 -0.5676 -0.3585  0.3567
 3512TIP3    H132095   2.017   6.696   2.768 -0.1767 -0.6320 -0.9303
 3512TIP3    H232096   1.942   6.604   2.674 -1.4037 -1.2893  0.6482
 3513TIP3   OH232097   1.869   6.373   0.497 -0.2615  0.4827 -0.3729
 3513TIP3    H132098   1.943   6.324   0.461 -0.8450  0.7004 -1.9281
 3513TIP3    H232099   1.880   6.365   0.592  0.6536 -1.1574 -0.5685
 3514TIP3   OH232100   2.485   0.746   7.305  0.1710 -0.1032 -0.1355
 3514TIP3    H132101   2.574   0.778   7.289  0.5470 -1.4230 -0.7679
 3514TIP3    H232102   2.432   0.790   7.238  0.1789  1.2411  0.6836
 3515TIP3   OH232103   3.174   3.360   2.436  0.8802 -0.6163  0.9151
 3515TIP3    H132104   3.248   3.332   2.490  1.6694 -0.2870  0.0385
 3515TIP3    H232105   3.207   3.436   2.389  0.1373 -0.7595  0.1482
 3516TIP3   OH232106   4.432   5.466   1.110 -0.6905 -0.3982  0.0528
 3516TIP3    H132107   4.421   5.381   1.152 -2.8326 -0.5586 -0.7006
 3516TIP3    H232108   4.396   5.529   1.172 -1.3144 -0.3286 -0.3708
 3517TIP3   OH232109   4.191   0.767   2.148 -0.3603 -0.2160  0.1723
 3517TIP3    H132110   4.245   0.811   2.213 -0.0549 -1.2749  0.6542
 3517TIP3    H232111   4.207   0.674   2.162 -1.3181 -0.5095 -0.5364
 3518TIP3   OH232112   5.154   3.080   8.257  0.6756  0.0902 -0.2764
 3518TIP3    H132113   5.220   3.013   8.238  0.1235 -0.7107  0.5607
 3518TIP3    H232114   5.098   3.040   8.323 -0.0078  1.1754 -0.1843
 3519TIP3   OH232115   0.654   2.044   0.260 -0.2694 -0.3400  0.3046
 3519TIP3    H132116   0.661   1.996   0.342 -0.5745  0.6461  0.9235
 3519TIP3    H232117   0.727   2.106   0.262 -0.4687 -0.0918 -0.0167
 3520TIP3   OH232118   1.774   1.838   1.303 -0.4190 -0.1730 -0.5903
 3520TIP3    H132119   1.801   1.927   1.279  1.1917 -0.2485  0.7500
 3520TIP3    H232120   1.742   1.800   1.221 -1.4242  1.7198 -1.1247
 3521TIP3   OH232121   0.500   5.860   8.015  0.0660  0.4519 -0.3641
 3521TIP3    H132122   0.408   5.836   8.007  0.0417  0.8175 -1.3162
 3521TIP3    H232123   0.504   5.913   8.095 -0.1402 -1.3416  0.9075
 3522TIP3   OH232124   5.011   6.770   2.378 -0.2953  0.1994 -0.0389
 3522TIP3    H132125   4.926   6.742   2.411 -0.3890  0.8104  0.2501
 3522TIP3    H232126   5.020   6.860   2.408 -0.4371  0.8344 -1.7669
 3523TIP3   OH232127   3.531   2.984   6.764 -0.3157  0.0243  0.2743
 3523TIP3    H132128   3.504   2.896   6.790 -0.3185  0.0935  0.5101
 3523TIP3    H232129   3.491   3.042   6.830  0.2003  0.1459  0.4884
 3524TIP3   OH232130   5.646   3.025   8.024 -0.8607  0.5727  0.3355
 3524TIP3    H132131   5.690   3.108   8.044  2.1553 -1.4980  3.3718
 3524TIP3    H232132   5.657   3.014   7.930 -0.2137  3.0088  0.0617
 3525TIP3   OH232133   2.592   4.958   1.454 -0.4443  0.4038  0.8035
 3525TIP3    H132134   2.514   4.962   1.510  0.5068 -0.4082  2.2643
 3525TIP3    H232135   2.639   4.881   1.486  0.7174  0.5956 -0.3869
 3526TIP3   OH232136   2.952   5.938   2.088  0.0015 -0.4957  0.3786
 3526TIP3    H132137   3.003   5.857   2.087  0.8702  0.0331  0.8268
 3526TIP3    H232138   2.865   5.910   2.117  0.3468 -1.2364  0.7484
 3527TIP3   OH232139   1.197   6.356   2.896  0.3020 -0.1134 -0.0286
 3527TIP3    H132140   1.130   6.424   2.907  0.9880  0.7028 -0.7473
 3527TIP3    H232141   1.155   6.276   2.924 -0.1979  0.7718  1.9087
 3528TIP3   OH232142   2.622   2.255   7.625  0.5153 -0.7114  0.2203
 3528TIP3    H132143   2.661   2.168   7.617  0.9183 -0.4818 -0.3933
 3528TIP3    H232144   2.651   2.301   7.547 -1.4935 -0.7343 -0.6233
 3529TIP3   OH232145   0.211   4.834   2.257 -0.3122 -0.5518  0.2515
 3529TIP3    H132146   0.242   4.743   2.264  1.1216 -0.1645 -0.6118
 3529TIP3    H232147   0.282   4.886   2.296 -0.7531  0.2468 -0.0009
 3530TIP3   OH232148   4.814   5.777   1.513 -0.7355 -1.0317 -0.1279
 3530TIP3    H132149   4.730   5.812   1.483 -0.0505  2.5799  1.5720
 3530TIP3    H232150   4.870   5.781   1.436 -1.7279 -2.3084 -0.9639
 3531TIP3   OH232151   6.029   3.800   8.078  0.3808 -0.3156 -0.2047
 3531TIP3    H132152   6.049   3.889   8.049  0.7656 -0.1469  0.5547
 3531TIP3    H232153   6.051   3.744   8.004  0.8849  0.1463 -0.4045
 3532TIP3   OH232154   1.291   6.139   8.258  0.3010  0.3778 -0.2699
 3532TIP3    H132155   1.244   6.109   8.336 -0.3369  0.8403 -0.4704
 3532TIP3    H232156   1.274   6.233   8.255  1.4351  0.6030 -0.2226
 3533TIP3   OH232157   6.337   6.041   7.950  0.1935  0.1496 -0.4115
 3533TIP3    H132158   6.355   6.132   7.925  0.9559  0.1010 -0.0675
 3533TIP3    H232159   6.418   5.994   7.930 -0.2915 -0.5127 -0.8493
 3534TIP3   OH232160   0.860   4.532   2.679  0.0092  0.1152 -0.3335
 3534TIP3    H132161   0.807   4.559   2.604 -0.3944 -1.2287 -0.5522
 3534TIP3    H232162   0.799   4.481   2.734  0.1891  1.3754  1.1084
 3535TIP3   OH232163   6.371   1.659   1.677  0.0439  0.0375 -0.4825
 3535TIP3    H132164   6.433   1.681   1.607 -0.9881 -0.3632 -1.5551
 3535TIP3    H232165   6.353   1.566   1.664  1.4058 -0.5829  1.6208
 3536TIP3   OH232166   4.797   6.309   7.928 -0.1507  0.1360 -0.1334
 3536TIP3    H132167   4.708   6.280   7.907 -0.2877  1.6118 -1.8926
 3536TIP3    H232168   4.846   6.296   7.847  0.9080  0.5438  0.4190
 3537TIP3   OH232169   4.143   4.880   1.420 -0.0106 -0.0144  0.2997
 3537TIP3    H132170   4.239   4.889   1.420  0.2606 -1.9215 -1.8117
 3537TIP3    H232171   4.121   4.858   1.510  1.6171 -0.1094  0.7085
 3538TIP3   OH232172   0.282   0.857   2.800 -0.4658  0.1049 -0.0533
 3538TIP3    H132173   0.283   0.762   2.812 -1.2368  0.0869 -0.1234
 3538TIP3    H232174   0.333   0.891   2.873 -2.0071 -0.2280  1.2201
 3539TIP3   OH232175   4.206   1.104   7.689  0.0017  0.7355  0.0372
 3539TIP3    H132176   4.287   1.129   7.644 -0.3341 -1.4735 -1.9884
 3539TIP3    H232177   4.229   1.106   7.782  2.2567  0.6056 -0.4528
 3540TIP3   OH232178   4.603   0.664   2.329 -0.0204  0.0739  0.3057
 3540TIP3    H132179   4.639   0.744   2.367  0.3096  0.3440 -0.5585
 3540TIP3    H232180   4.545   0.629   2.397 -0.4104  1.2042  0.5731
 3541TIP3   OH232181   4.462   0.791   8.299 -0.0158  0.8591  0.3317
 3541TIP3    H132182   4.480   0.871   8.349 -0.1606 -0.1394  2.0567
 3541TIP3    H232183   4.544   0.742   8.303  0.1630  1.0137 -0.9693
 3542TIP3   OH232184   1.039   2.658   1.231 -0.0106 -0.0961 -0.1151
 3542TIP3    H132185   0.974   2.703   1.284 -0.1926 -0.7232  0.2070
 3542TIP3    H232186   1.000   2.572   1.213  0.3175 -0.1253 -0.7316
 3543TIP3   OH232187   1.370   1.744   1.358  0.4638 -0.3943 -0.4201
 3543TIP3    H132188   1.356   1.649   1.352 -1.0738 -0.1731 -1.1531
 3543TIP3    H232189   1.459   1.754   1.389 -0.3559 -2.1106  2.9886
 3544TIP3   OH232190   4.020   4.733   1.234  0.0179  1.0391 -1.0322
 3544TIP3    H132191   4.032   4.778   1.151  0.0215  0.8753 -1.1205
 3544TIP3    H232192   4.063   4.789   1.299 -0.0623  1.2105 -1.1270
 3545TIP3   OH232193   2.048   0.616   0.703  0.5603 -0.2012  0.2691
 3545TIP3    H132194   1.956   0.612   0.729  0.5855 -2.5003  0.1965
 3545TIP3    H232195   2.052   0.688   0.640 -1.3416 -0.5432 -0.3061
 3546TIP3   OH232196   4.477   4.735   0.791  0.1623  0.4709 -0.5463
 3546TIP3    H132197   4.469   4.761   0.883 -0.3340  0.9063 -0.6994
 3546TIP3    H232198   4.420   4.658   0.783  0.4918  0.2109 -0.4117
 3547TIP3   OH232199   0.260   1.608   6.968  0.1846  0.0788  0.0696
 3547TIP3    H132200   0.220   1.578   6.887 -1.3772  0.8631  0.5028
 3547TIP3    H232201   0.320   1.678   6.941  0.7108 -0.5922 -0.5262
 3548TIP3   OH232202   0.780   4.591   0.206  0.6067 -0.1039  0.0924
 3548TIP3    H132203   0.694   4.558   0.230 -0.0361  1.9645  0.8742
 3548TIP3    H232204   0.828   4.594   0.289  0.7848  0.5011 -0.0310
 3549TIP3   OH232205   5.160   4.737   7.935 -0.1721 -0.1819  0.1909
 3549TIP3    H132206   5.206   4.808   7.889 -0.0620 -0.3848 -0.0139
 3549TIP3    H232207   5.172   4.757   8.028  0.9489 -0.6183  0.1558
 3550TIP3   OH232208   0.722   4.333   8.714 -0.2639  0.3847  0.1544
 3550TIP3    H132209   0.670   4.260   8.748 -0.5066 -0.3115 -1.5962
 3550TIP3    H232210   0.812   4.311   8.738 -0.0935 -1.5125 -1.9553
 3551TIP3   OH232211   0.655   2.370   1.171  0.7319  0.1622  0.5364
 3551TIP3    H132212   0.664   2.465   1.181 -0.3502  0.4161 -0.7200
 3551TIP3    H232213   0.562   2.353   1.184  0.4235 -0.3407 -1.8839
 3552TIP3   OH232214   3.649   1.118   8.430  0.0313  0.0692 -0.0233
 3552TIP3    H132215   3.597   1.165   8.365  0.5139  0.6911  0.0297
 3552TIP3    H232216   3.646   1.175   8.508  0.7140  0.0647  0.0070
 3553TIP3   OH232217   2.428   3.483   1.096 -0.0815  0.5122 -0.0350
 3553TIP3    H132218   2.483   3.405   1.087  0.3418  0.6831  0.9737
 3553TIP3    H232219   2.486   3.556   1.077 -0.1497  0.6492  0.2684
 3554TIP3   OH232220   0.008   5.914   8.720  0.2560 -0.4122  0.3494
 3554TIP3    H132221   0.102   5.893   8.719  0.4716  0.5263  0.0600
 3554TIP3    H232222  -0.010   5.950   8.633 -0.3821 -0.6185  0.3935
 3555TIP3   OH232223   0.296   3.620   1.855 -0.2125  0.1551  0.0094
 3555TIP3    H132224   0.233   3.548   1.863  0.5145 -0.5629 -0.5622
 3555TIP3    H232225   0.264   3.672   1.782 -0.1533 -0.1977 -0.2693
 3556TIP3   OH232226   4.073   2.979   7.127  0.3633 -0.0354 -0.3917
 3556TIP3    H132227   4.118   3.006   7.047  1.4714  0.2757  0.3118
 3556TIP3    H232228   4.048   2.888   7.111 -0.9911  0.5204 -1.7376
 3557TIP3   OH232229   4.635   4.581   7.901 -0.3662  0.3117  0.0800
 3557TIP3    H132230   4.709   4.567   7.843  0.6503  1.2134  1.1052
 3557TIP3    H232231   4.567   4.621   7.846 -0.5032 -1.4669 -1.1044
 3558TIP3   OH232232   3.525   2.089   7.395 -0.2169  1.1128 -0.6981
 3558TIP3    H132233   3.565   2.119   7.313 -0.9191 -0.5726 -1.7171
 3558TIP3    H232234   3.560   2.000   7.408 -2.1673  0.2947 -0.6640
 3559TIP3   OH232235   2.841   1.058   7.867 -0.6633 -0.3149 -1.0514
 3559TIP3    H132236   2.780   1.102   7.808 -1.2968  0.8591  0.4175
 3559TIP3    H232237   2.801   1.066   7.953 -0.1104 -2.5837 -0.5100
 3560TIP3   OH232238   0.368   1.718   8.065  0.1586  0.2603 -0.3117
 3560TIP3    H132239   0.396   1.792   8.118  0.9527 -0.3698  0.1715
 3560TIP3    H232240   0.440   1.703   8.004 -0.0234 -0.0720 -0.4481
 3561TIP3   OH232241   4.289   4.127   8.408 -0.0614 -0.3005 -0.3881
 3561TIP3    H132242   4.297   4.196   8.474 -1.2664 -1.0047  0.5229
 3561TIP3    H232243   4.359   4.065   8.429  1.3361  0.8147 -1.4950
 3562TIP3   OH232244   0.101   6.088   7.834 -0.4135  0.4572 -0.5391
 3562TIP3    H132245   0.097   6.059   7.925 -2.7308 -0.2343 -0.8049
 3562TIP3    H232246   0.120   6.008   7.784  1.2148  0.8918 -0.6845
 3563TIP3   OH232247   5.482   5.191   8.862  0.5889 -0.6546 -0.1277
 3563TIP3    H132248   5.560   5.137   8.874  0.5494 -0.8633 -0.7786
 3563TIP3    H232249   5.502   5.246   8.787  0.6734  0.3264  0.5940
 3564TIP3   OH232250   3.082   1.630   7.666 -0.2268 -0.1595 -0.1603
 3564TIP3    H132251   3.126   1.603   7.585 -0.6982 -1.6600  0.0430
 3564TIP3    H232252   3.020   1.697   7.638  0.0408 -0.2228 -0.9426
 3565TIP3   OH232253   1.948   5.647   0.123  0.4834  0.2515  1.0982
 3565TIP3    H132254   2.027   5.644   0.178 -0.0631  2.6545  2.1637
 3565TIP3    H232255   1.915   5.736   0.135 -0.1594  0.6401 -2.5150
 3566TIP3   OH232256   5.764   5.408   7.278 -0.3265 -0.0822 -0.4947
 3566TIP3    H132257   5.714   5.373   7.352 -0.7068  0.0667 -0.6751
 3566TIP3    H232258   5.713   5.382   7.201 -1.4418  2.1137 -0.5762
 3567TIP3   OH232259   4.582   4.395   0.179 -0.8972  0.2128  0.3916
 3567TIP3    H132260   4.489   4.416   0.190 -0.8098  1.3480 -0.8469
 3567TIP3    H232261   4.626   4.443   0.250 -0.9647  2.3033 -0.9096
 3568TIP3   OH232262   5.123   2.487   0.485  0.3182 -0.4787  0.0744
 3568TIP3    H132263   5.156   2.568   0.446  1.1967 -1.2770 -0.9040
 3568TIP3    H232264   5.064   2.516   0.554  1.0676  0.9988  0.1407
 3569TIP3   OH232265   4.383   5.682   1.638 -0.0489  0.1107 -0.4472
 3569TIP3    H132266   4.385   5.641   1.724 -1.1421 -0.4106 -0.6524
 3569TIP3    H232267   4.370   5.775   1.656 -1.5577 -0.1518 -0.0577
 3570TIP3   OH232268   2.657   1.446   8.800  0.2596 -0.3331 -0.1798
 3570TIP3    H132269   2.626   1.440   8.709 -1.2796  0.8071  0.2429
 3570TIP3    H232270   2.752   1.434   8.793  0.2082  0.0033 -1.9732
 3571TIP3   OH232271   4.542   4.970   8.879 -0.0356  0.3516 -0.1300
 3571TIP3    H132272   4.536   4.970   8.784  0.7795  0.9025 -0.1900
 3571TIP3    H232273   4.599   4.896   8.900  0.3397  0.6459 -0.1105
 3572TIP3   OH232274   0.384   1.612   8.666  0.5566  0.1365  0.2862
 3572TIP3    H132275   0.377   1.636   8.573  0.1509 -1.0237 -0.0061
 3572TIP3    H232276   0.380   1.516   8.666 -1.0142  0.1517  1.6185
 3573TIP3   OH232277   3.165   2.592   2.734 -0.0497 -0.1103 -0.1912
 3573TIP3    H132278   3.100   2.562   2.798 -1.2510 -1.9296 -2.1452
 3573TIP3    H232279   3.237   2.529   2.743  2.0276  2.3941  2.5785
 3574TIP3   OH232280   1.662   1.031   0.828  0.1349  0.0115  0.6731
 3574TIP3    H132281   1.753   1.016   0.805  0.1221  0.8415  0.0560
 3574TIP3    H232282   1.665   1.101   0.894 -0.1474  1.4169 -0.7473
 3575TIP3   OH232283   2.898   2.496   8.664 -0.2147 -0.0648 -0.5236
 3575TIP3    H132284   2.915   2.418   8.716 -1.8666 -0.0268  0.1226
 3575TIP3    H232285   2.928   2.568   8.720 -2.7224  0.0352  0.8143
 3576TIP3   OH232286   0.005   0.470   7.931  0.5848  0.3598  0.8095
 3576TIP3    H132287   0.026   0.559   7.904  1.4930  0.1041  0.6336
 3576TIP3    H232288   0.053   0.414   7.870 -0.8261 -0.2749  0.2343
 3577TIP3   OH232289   4.763   5.229   7.832 -0.1602 -0.2999  0.1954
 3577TIP3    H132290   4.826   5.162   7.857 -2.0790 -2.2712  0.0145
 3577TIP3    H232291   4.693   5.222   7.897  0.4352  2.9570  1.3915
 3578TIP3   OH232292   2.487   3.496   0.581  0.1779  0.2188 -0.4282
 3578TIP3    H132293   2.469   3.464   0.493  0.0934 -0.5433 -0.1500
 3578TIP3    H232294   2.407   3.474   0.630  1.6659 -3.1124  0.8076
 3579TIP3   OH232295   2.108   5.579   1.770  0.3008 -0.1246  0.7402
 3579TIP3    H132296   2.064   5.659   1.739 -0.4675 -1.6989 -2.6860
 3579TIP3    H232297   2.051   5.508   1.742  2.1911 -2.0118  1.4547
 3580TIP3   OH232298   4.179   2.980   7.760  0.1301 -0.0954  0.3333
 3580TIP3    H132299   4.227   2.993   7.842  1.1271  0.6532 -0.3386
 3580TIP3    H232300   4.123   3.058   7.752 -3.5673 -2.2124  2.5505
 3581TIP3   OH232301   0.949   3.470   7.065 -0.0453  0.1195  0.1168
 3581TIP3    H132302   0.920   3.413   7.136 -1.1231  0.3932 -0.0851
 3581TIP3    H232303   0.942   3.415   6.987 -1.6966  0.6698 -0.1696
 3582TIP3   OH232304   6.214   1.824   2.384  0.6118 -0.1948  0.0806
 3582TIP3    H132305   6.181   1.784   2.464 -0.3080 -0.2858 -0.3234
 3582TIP3    H232306   6.146   1.805   2.319 -0.2566  2.6490  0.0263
 3583TIP3   OH232307   3.412   4.378   0.651  0.0821 -0.4957  0.3000
 3583TIP3    H132308   3.431   4.291   0.685  0.9784 -0.3930  0.0878
 3583TIP3    H232309   3.451   4.379   0.563  0.1753  0.1551  0.3419
 3584TIP3   OH232310   1.024   0.674   8.704  0.4434 -0.6899 -0.3066
 3584TIP3    H132311   1.000   0.673   8.611  0.7708 -3.8471 -0.4737
 3584TIP3    H232312   0.943   0.699   8.749  0.3886  1.3087 -1.4012
 3585TIP3   OH232313   4.979   2.736   8.415  0.0230 -0.0134 -0.0669
 3585TIP3    H132314   5.013   2.649   8.437 -0.1598  0.0539  0.5031
 3585TIP3    H232315   4.972   2.736   8.320  0.1885 -0.5615 -0.0821
 3586TIP3   OH232316   1.722   6.685   2.130  0.4304 -0.0248 -0.6900
 3586TIP3    H132317   1.792   6.641   2.177  0.9228  1.0321 -0.4033
 3586TIP3    H232318   1.750   6.683   2.038  1.1292  0.8697 -0.5152
 3587TIP3   OH232319   6.241   2.315   6.793 -0.2191 -0.3185  0.2769
 3587TIP3    H132320   6.296   2.303   6.871  0.0948  0.5729  0.2055
 3587TIP3    H232321   6.188   2.236   6.789 -1.9728  0.6076  2.7639
 3588TIP3   OH232322   2.764   3.217   8.208 -0.1581 -0.1006  0.0350
 3588TIP3    H132323   2.733   3.130   8.181  1.8516 -1.3261  1.3482
 3588TIP3    H232324   2.719   3.233   8.291 -1.2357  0.5737 -0.6609
 3589TIP3   OH232325   5.442   3.446   7.987  0.0507  0.3952 -0.6764
 3589TIP3    H132326   5.360   3.427   8.033 -0.4330 -2.0161 -2.3069
 3589TIP3    H232327   5.421   3.521   7.931 -0.7277  0.4517 -0.3264
 3590TIP3   OH232328   3.012   1.076   1.293  0.0931 -0.2379  0.0671
 3590TIP3    H132329   3.065   1.081   1.372  0.1818  1.1082 -0.0504
 3590TIP3    H232330   3.072   1.098   1.222 -0.4744  0.7168 -0.1342
 3591TIP3   OH232331   0.951   5.398   2.132 -0.2958  0.1124 -0.0447
 3591TIP3    H132332   0.872   5.448   2.152  0.4073  1.5757 -0.7758
 3591TIP3    H232333   0.927   5.307   2.150 -3.1385  0.0987 -3.0123
 3592TIP3   OH232334   0.048   0.477   8.235 -0.2914 -0.3265 -0.0550
 3592TIP3    H132335   0.014   0.474   8.146  0.0935 -1.7902 -0.1848
 3592TIP3    H232336   0.033   0.388   8.269  0.2253  0.0055  1.0751
 3593TIP3   OH232337   2.135   6.697   0.943  0.3026 -0.5301  0.8585
 3593TIP3    H132338   2.169   6.761   1.007  0.2879  0.5277 -0.1545
 3593TIP3    H232339   2.053   6.736   0.912 -0.4730 -1.7632  1.2741
 3594TIP3   OH232340   6.363   6.764   7.464 -0.4377 -1.0225  0.1049
 3594TIP3    H132341   6.391   6.700   7.399  0.3439 -0.9966  0.4046
 3594TIP3    H232342   6.347   6.844   7.414 -1.1896 -1.3730 -0.2385
 3595TIP3   OH232343   1.150   4.439   6.635  0.7380 -0.6019  0.8366
 3595TIP3    H132344   1.186   4.360   6.675  0.3239 -0.4342  1.5621
 3595TIP3    H232345   1.055   4.428   6.641  0.6625  0.4235  1.9452
 3596TIP3   OH232346   0.591   2.003   2.980  0.7679 -0.1004  0.3321
 3596TIP3    H132347   0.539   2.063   2.927 -2.1101 -1.0837  1.8421
 3596TIP3    H232348   0.597   1.924   2.927 -0.0629 -0.2829  0.5028
 3597TIP3   OH232349   5.526   0.216   0.129  0.0666 -0.5847 -0.3188
 3597TIP3    H132350   5.512   0.265   0.210  0.7253 -0.7084 -0.1197
 3597TIP3    H232351   5.621   0.216   0.118  0.0681 -1.7664 -0.3476
 3598TIP3   OH232352   4.581   6.545   1.875 -0.3781  0.3817 -0.3025
 3598TIP3    H132353   4.592   6.460   1.917 -0.8037  0.6494  0.3679
 3598TIP3    H232354   4.658   6.554   1.819 -0.7328 -0.7941 -1.0161
 3599TIP3   OH232355   5.113   3.170   7.723  0.8238 -0.3650 -0.6406
 3599TIP3    H132356   5.054   3.204   7.789 -1.1078 -1.5096 -1.7028
 3599TIP3    H232357   5.171   3.110   7.770  0.2189 -0.3113  0.1740
 3600TIP3   OH232358   0.487   2.253   1.563  0.2235 -0.1289 -0.0979
 3600TIP3    H132359   0.483   2.231   1.657 -0.0905  0.8154  0.1187
 3600TIP3    H232360   0.541   2.332   1.560 -2.1677  1.5837 -0.3733
 3601TIP3   OH232361   6.285   4.822   0.917 -0.2864  0.4188  0.1199
 3601TIP3    H132362   6.286   4.893   0.853 -0.1096 -0.3718 -0.7882
 3601TIP3    H232363   6.194   4.792   0.919 -0.6665  1.5294  1.5311
 3602TIP3   OH232364   1.605   3.306   8.341  0.0674 -0.7403  0.1911
 3602TIP3    H132365   1.609   3.228   8.396 -0.8537 -1.2375 -0.4297
 3602TIP3    H232366   1.512   3.323   8.330  0.2573  0.0833 -0.1935
 3603TIP3   OH232367   6.429   5.025   2.194 -0.0063  0.0596 -0.0715
 3603TIP3    H132368   6.490   5.085   2.151  0.0637  0.9615  1.2439
 3603TIP3    H232369   6.458   5.022   2.285 -0.2236 -1.7099 -0.0125
 3604TIP3   OH232370   1.412   2.319   0.140  0.6082 -0.3176 -0.5109
 3604TIP3    H132371   1.394   2.225   0.138  1.2181 -0.5288  1.5164
 3604TIP3    H232372   1.507   2.325   0.136  0.5539  0.2440 -1.0744
 3605TIP3   OH232373   4.844   3.364   8.238 -0.2185  0.9357 -0.5713
 3605TIP3    H132374   4.756   3.391   8.265 -0.5100 -0.9676  0.5575
 3605TIP3    H232375   4.895   3.365   8.320 -0.3792 -2.2077 -0.3256
 3606TIP3   OH232376   0.611   4.651   0.743  0.6655 -0.0293  0.4156
 3606TIP3    H132377   0.623   4.705   0.664 -2.6226 -1.2780 -1.1366
 3606TIP3    H232378   0.672   4.579   0.732  2.3612  1.3280  0.5704
 3607TIP3   OH232379   1.839   3.348   1.226 -0.1455 -0.1349  0.1726
 3607TIP3    H132380   1.748   3.371   1.247  0.2546  1.5210  0.2375
 3607TIP3    H232381   1.889   3.373   1.303  0.5532  0.3750 -0.4264
 3608TIP3   OH232382   1.377   6.682   2.966  0.3198 -0.1106 -0.0348
 3608TIP3    H132383   1.423   6.762   2.939  0.2747 -0.0027  0.2049
 3608TIP3    H232384   1.356   6.697   3.058  0.3486 -0.4187  0.0227
 3609TIP3   OH232385   3.738   3.298   1.468  0.2850  0.1583  0.0519
 3609TIP3    H132386   3.816   3.288   1.414 -0.1589 -2.8238 -0.2109
 3609TIP3    H232387   3.666   3.306   1.405  0.0570 -0.5544  0.2063
 3610TIP3   OH232388   3.657   3.855   7.785 -0.3614  0.5717  0.5547
 3610TIP3    H132389   3.752   3.842   7.779 -0.6127 -1.9940  1.1290
 3610TIP3    H232390   3.620   3.791   7.725 -1.7538  1.4775  0.4220
 3611TIP3   OH232391   4.191   1.698   1.439  0.1529  0.0921  0.0417
 3611TIP3    H132392   4.182   1.678   1.346  0.0451  1.3253 -0.2321
 3611TIP3    H232393   4.284   1.719   1.449  0.2699 -0.5438  0.3271
 3612TIP3   OH232394   4.801   6.181   0.946 -0.1216  0.2966  0.0916
 3612TIP3    H132395   4.817   6.166   0.853 -1.8860 -0.0942 -0.1827
 3612TIP3    H232396   4.707   6.197   0.952 -0.4154 -1.7109  2.0624
 3613TIP3   OH232397   1.341   6.439   8.742  0.0145  0.1741  0.0438
 3613TIP3    H132398   1.290   6.511   8.778 -0.6102  0.0556 -0.5865
 3613TIP3    H232399   1.307   6.360   8.785 -0.0837  0.1352 -0.1038
 3614TIP3   OH232400   0.577   5.673   1.273  0.6531 -0.0116 -0.3480
 3614TIP3    H132401   0.624   5.734   1.330  0.6167  0.6726 -1.0285
 3614TIP3    H232402   0.614   5.587   1.294  1.9215  0.4613 -0.5659
 3615TIP3   OH232403   1.570   1.842   7.155 -0.4440 -0.1900 -0.2445
 3615TIP3    H132404   1.556   1.911   7.221  1.1988 -1.2007  1.2554
 3615TIP3    H232405   1.663   1.820   7.164  0.2373  0.5840 -3.9256
 3616TIP3   OH232406   2.313   5.240   8.258  0.5170  0.1039 -0.7321
 3616TIP3    H132407   2.378   5.170   8.267  1.2335  0.9614  1.0873
 3616TIP3    H232408   2.346   5.294   8.187  1.0250 -0.2677 -0.7839
 3617TIP3   OH232409   2.617   4.115   8.477 -0.8195  0.1650  0.2406
 3617TIP3    H132410   2.562   4.193   8.478 -0.1504  0.6955 -1.2399
 3617TIP3    H232411   2.562   4.048   8.436 -0.7676  0.3745 -0.1748
 3618TIP3   OH232412   3.243   1.706   7.869 -0.0678  0.0537 -0.1303
 3618TIP3    H132413   3.189   1.724   7.792 -0.5646 -0.8797 -0.0087
 3618TIP3    H232414   3.192   1.740   7.942  0.3176  0.7645 -0.1808
 3619TIP3   OH232415   0.559   6.327   8.769  0.0792  0.1093  0.1113
 3619TIP3    H132416   0.542   6.275   8.690  0.8493  2.0138 -1.3936
 3619TIP3    H232417   0.631   6.281   8.813  0.5452 -0.2697 -1.0066
 3620TIP3   OH232418   3.076   0.773   1.475  0.2595 -0.0031 -0.4650
 3620TIP3    H132419   3.044   0.756   1.386  1.0287  0.7665 -0.9105
 3620TIP3    H232420   3.033   0.706   1.529 -2.9648  1.6208 -0.7873
 3621TIP3   OH232421   5.661   1.619   6.642 -0.1982  0.7808 -0.4819
 3621TIP3    H132422   5.712   1.545   6.610  1.3660  1.6133 -0.0010
 3621TIP3    H232423   5.583   1.579   6.681  0.2285 -0.5486 -0.9386
 3622TIP3   OH232424   6.265   4.848   7.853  0.4702  0.0306  0.2594
 3622TIP3    H132425   6.324   4.886   7.918 -0.9100  1.1530  0.9164
 3622TIP3    H232426   6.211   4.922   7.823 -2.2538 -1.2861  1.4955
 3623TIP3   OH232427   4.120   4.848   7.540 -0.5447  0.3673  0.0000
 3623TIP3    H132428   4.186   4.863   7.473 -1.0397  0.4283 -0.4799
 3623TIP3    H232429   4.138   4.914   7.607 -0.3979  0.6751 -0.3398
 3624TIP3   OH232430   3.830   6.704   0.898  0.0695 -0.1744  0.2022
 3624TIP3    H132431   3.790   6.653   0.968 -0.7147  1.2204  0.8269
 3624TIP3    H232432   3.916   6.728   0.931  0.1146 -0.4140  0.2538
 3625TIP3   OH232433   6.166   1.923   1.081  0.7321  0.0711 -0.3363
 3625TIP3    H132434   6.104   1.864   1.125  0.6980  0.4479  0.1233
 3625TIP3    H232435   6.123   2.008   1.083  1.4939  0.4468  0.4516
 3626TIP3   OH232436   1.657   1.472   8.423 -0.4189 -0.0731 -0.6084
 3626TIP3    H132437   1.635   1.520   8.502 -0.1810 -1.1298  0.1297
 3626TIP3    H232438   1.585   1.411   8.410 -1.0644  0.9126 -1.9332
 3627TIP3   OH232439   4.955   1.391   8.853  0.2898 -0.3021 -0.1546
 3627TIP3    H132440   5.028   1.363   8.798  2.8367  1.9970  1.7494
 3627TIP3    H232441   4.926   1.311   8.897  0.8852 -1.4695 -1.8152
 3628TIP3   OH232442   2.641   0.676   8.588 -0.2081 -0.6156  0.8442
 3628TIP3    H132443   2.721   0.696   8.638 -1.2456 -0.0161  2.3411
 3628TIP3    H232444   2.656   0.715   8.502  1.0361 -0.3515  1.1623
 3629TIP3   OH232445   3.924   5.473   8.612  0.1181 -0.8363 -0.2742
 3629TIP3    H132446   3.914   5.551   8.557 -0.4697 -0.9182 -0.2797
 3629TIP3    H232447   3.840   5.428   8.606 -0.3076 -0.3263  1.5173
 3630TIP3   OH232448   5.003   1.940   1.623  0.4210  0.0121  0.5249
 3630TIP3    H132449   4.973   1.961   1.712  1.3400 -1.4754  1.2138
 3630TIP3    H232450   5.093   1.911   1.634  0.6910  0.1960 -0.9673
 3631TIP3   OH232451   2.234   6.020   8.464  0.5936 -0.2793 -0.2713
 3631TIP3    H132452   2.239   6.000   8.371  1.6558 -0.4221 -0.1940
 3631TIP3    H232453   2.322   6.048   8.488  0.3401 -0.2650  0.6963
 3632TIP3   OH232454   0.403   1.719   1.729 -0.2383  0.2506 -0.0867
 3632TIP3    H132455   0.325   1.769   1.705  0.4631  0.8421 -1.2236
 3632TIP3    H232456   0.413   1.655   1.658 -0.5780 -0.8889  0.8626
 3633TIP3   OH232457   5.701   0.138   0.717  0.0168 -0.0566 -0.0989
 3633TIP3    H132458   5.636   0.188   0.766 -2.5040 -2.9808 -0.2163
 3633TIP3    H232459   5.746   0.085   0.782  0.4395 -0.0347 -0.3649
 3634TIP3   OH232460   3.866   5.021   2.613 -0.1266 -0.1565  0.6216
 3634TIP3    H132461   3.910   5.103   2.590 -1.4332  0.4955  0.3551
 3634TIP3    H232462   3.926   4.953   2.583  0.8363  0.6954  0.5486
 3635TIP3   OH232463   5.086   2.838   0.782  0.0734 -0.2503 -0.0728
 3635TIP3    H132464   5.139   2.870   0.856  0.8393 -0.1956 -0.6366
 3635TIP3    H232465   5.069   2.915   0.729  0.7928 -0.5420 -0.7350
 3636TIP3   OH232466   1.029   4.691   8.117 -0.1153  0.1360 -0.1390
 3636TIP3    H132467   0.960   4.641   8.160 -0.7236  0.4211 -0.7733
 3636TIP3    H232468   1.109   4.670   8.167 -0.6685 -0.1176  0.6545
 3637TIP3   OH232469   0.869   5.970   0.736 -0.5719 -0.2846 -0.2978
 3637TIP3    H132470   0.949   5.954   0.787 -1.9901 -0.5599  1.9811
 3637TIP3    H232471   0.856   6.064   0.740 -1.3407 -0.4197  0.9993
 3638TIP3   OH232472   2.265   0.059   7.221  0.1027 -0.2918 -0.3031
 3638TIP3    H132473   2.286  -0.010   7.159  1.6383 -0.2773  0.1561
 3638TIP3    H232474   2.349   0.081   7.261 -0.7695  0.0931  1.3736
 3639TIP3   OH232475   4.865   0.752   2.086  0.0444 -0.2421  0.5304
 3639TIP3    H132476   4.861   0.773   2.180 -0.6192  2.0189  0.0724
 3639TIP3    H232477   4.879   0.837   2.044 -0.8202 -1.0491 -1.4890
 3640TIP3   OH232478   3.966   6.503   1.642  0.2095 -0.2541  0.5486
 3640TIP3    H132479   4.031   6.444   1.682  1.0107 -0.3670 -0.8597
 3640TIP3    H232480   4.018   6.568   1.597 -0.6823  1.0225  1.3069
 3641TIP3   OH232481   4.850   2.466   8.192  0.1257 -0.2122  0.5198
 3641TIP3    H132482   4.881   2.376   8.187 -1.2070 -0.6256 -1.7669
 3641TIP3    H232483   4.791   2.467   8.267  0.1688 -1.2316  0.5815
 3642TIP3   OH232484   6.027   2.991   8.185 -0.0202 -0.4788 -0.1783
 3642TIP3    H132485   5.971   3.065   8.210 -0.2755 -1.0289  0.9075
 3642TIP3    H232486   5.969   2.933   8.135  0.3534  0.3554 -1.6514
 3643TIP3   OH232487   1.461   5.605   8.667 -0.1528  0.3133  0.3049
 3643TIP3    H132488   1.557   5.604   8.673 -0.2173  0.5337  1.4720
 3643TIP3    H232489   1.435   5.517   8.694 -0.2065 -0.4063 -1.8891
 3644TIP3   OH232490   1.113   0.333   1.188  0.5305 -0.1556  0.3413
 3644TIP3    H132491   1.040   0.370   1.238 -1.2702 -1.8442 -0.9000
 3644TIP3    H232492   1.079   0.325   1.099  1.8756 -1.9743 -0.0552
 3645TIP3   OH232493   6.644   5.388   0.012 -0.2658  0.1379 -0.1138
 3645TIP3    H132494   6.669   5.310   0.060 -1.4252  0.4203  0.9980
 3645TIP3    H232495   6.578   5.358  -0.050 -0.8963  0.2683  0.4871
 3646TIP3   OH232496   5.794   1.764   0.945 -0.0962  0.0992 -0.1648
 3646TIP3    H132497   5.810   1.715   1.025 -1.6773  0.9449  0.7313
 3646TIP3    H232498   5.773   1.853   0.974  0.8479  0.8503 -1.6235
 3647TIP3   OH232499   5.852   6.578   0.461 -0.3623  0.3947  0.5520
 3647TIP3    H132500   5.845   6.495   0.414  1.3670  0.1095  0.7509
 3647TIP3    H232501   5.763   6.613   0.460 -0.9111 -0.9344 -0.4806
 3648TIP3   OH232502   0.473   3.091   7.943 -0.7305  0.3845  0.0977
 3648TIP3    H132503   0.391   3.042   7.940 -0.3685 -0.2345  0.2959
 3648TIP3    H232504   0.532   3.044   7.884 -0.3227  0.4638  0.4332
 3649TIP3   OH232505   2.099   2.437   8.270  0.5806 -0.2634  0.1315
 3649TIP3    H132506   2.140   2.454   8.355  1.4076 -1.8772  0.0908
 3649TIP3    H232507   2.169   2.397   8.218 -0.2386 -0.3388 -0.9326
 3650TIP3   OH232508   4.973   3.552   1.720  0.3443 -0.1564  0.0892
 3650TIP3    H132509   5.050   3.511   1.759 -0.0988 -1.5558 -0.4453
 3650TIP3    H232510   4.900   3.518   1.772  0.0818  1.3042  0.7153
 3651TIP3   OH232511   6.312   5.981   6.507 -0.1465  0.3128  0.0069
 3651TIP3    H132512   6.238   6.039   6.524 -0.7367 -0.1922 -0.7545
 3651TIP3    H232513   6.375   6.000   6.577 -1.2459  0.3346  1.0230
 3652TIP3   OH232514   6.157   4.844   0.495 -0.3663 -0.0860  0.4419
 3652TIP3    H132515   6.209   4.876   0.421 -0.4214 -1.8826 -0.4325
 3652TIP3    H232516   6.187   4.896   0.570  0.3485  1.1492 -0.6512
 3653TIP3   OH232517   2.055   0.824   8.269  0.9766  0.6216  0.5581
 3653TIP3    H132518   2.044   0.909   8.311 -0.6719  0.2184  1.0061
 3653TIP3    H232519   2.002   0.764   8.322  2.1411 -0.7070  0.2879
 3654TIP3   OH232520   3.190   1.034   2.742  0.3185 -0.3770 -0.1327
 3654TIP3    H132521   3.280   1.020   2.772  0.7534 -1.1771 -1.6842
 3654TIP3    H232522   3.172   1.126   2.759  1.4039 -0.2315  0.2759
 3655TIP3   OH232523   0.664   1.713   8.629 -0.4080 -0.6337 -0.2634
 3655TIP3    H132524   0.678   1.636   8.574 -0.2937 -1.1401  0.4598
 3655TIP3    H232525   0.738   1.714   8.689 -1.3181 -0.9877  0.9113
 3656TIP3   OH232526   6.452   4.933   2.920 -0.2007  0.3297 -0.7193
 3656TIP3    H132527   6.358   4.917   2.932  0.0048 -1.5128 -1.2498
 3656TIP3    H232528   6.495   4.864   2.971  0.8706  0.8962 -0.8202
 3657TIP3   OH232529   4.315   1.061   8.480 -0.2112  0.1032  0.1085
 3657TIP3    H132530   4.225   1.087   8.502 -0.6453  0.1523 -1.5420
 3657TIP3    H232531   4.350   1.025   8.561 -2.4920 -2.0585  0.2779
 3658TIP3   OH232532   1.995   2.982   1.758 -0.0454  0.3376 -0.0679
 3658TIP3    H132533   2.066   2.918   1.765 -0.3837  0.0308  0.7134
 3658TIP3    H232534   1.951   2.977   1.843 -2.4069 -1.1082 -1.2651
 3659TIP3   OH232535   0.806   4.593   8.208 -0.0220  0.0491  0.6646
 3659TIP3    H132536   0.745   4.624   8.274 -1.3996  0.2438 -0.6350
 3659TIP3    H232537   0.753   4.536   8.152  0.4146  1.7705 -1.6667
 3660TIP3   OH232538   0.062   1.062   0.771 -0.0245  0.1202  0.2259
 3660TIP3    H132539   0.151   1.025   0.775  0.1024  0.3764 -0.2269
 3660TIP3    H232540   0.070   1.137   0.713  0.2003  2.1722  2.7069
 3661TIP3   OH232541   0.483   3.907   2.998 -0.6421  0.3721  0.6412
 3661TIP3    H132542   0.389   3.898   2.982 -0.4500  2.3333 -2.3264
 3661TIP3    H232543   0.523   3.843   2.940 -0.1079  1.5955 -0.3800
 3662TIP3   OH232544   0.245   1.438   7.428  0.0983  0.4452  0.2050
 3662TIP3    H132545   0.229   1.524   7.465  0.0097  0.0272  1.1761
 3662TIP3    H232546   0.277   1.455   7.340  1.8475  1.5467  0.9969
 3663TIP3   OH232547   6.280   3.040   7.666  0.2599 -0.4816  0.1529
 3663TIP3    H132548   6.214   3.108   7.678 -0.6726 -1.3970  0.3892
 3663TIP3    H232549   6.339   3.050   7.741  1.5235  1.5355 -1.0319
 3664TIP3   OH232550   3.117   1.597   8.716 -0.2738  0.2759  0.0222
 3664TIP3    H132551   3.172   1.640   8.651 -0.5329  0.1035 -0.3171
 3664TIP3    H232552   3.103   1.662   8.784  1.2844 -0.0272  0.6805
 3665TIP3   OH232553   2.215   3.425   8.460 -0.2315  0.1390  0.3450
 3665TIP3    H132554   2.240   3.418   8.552  0.0229 -0.3721  0.2400
 3665TIP3    H232555   2.131   3.471   8.462  0.3564  1.2305  0.7468
 3666TIP3   OH232556   3.474   3.659   2.307  0.4264  0.4714 -0.0781
 3666TIP3    H132557   3.454   3.566   2.298 -0.3759  0.6168  0.1513
 3666TIP3    H232558   3.570   3.664   2.299  0.4963 -0.4005  0.1561
 3667TIP3   OH232559   6.251   3.353   7.725 -0.4159  0.4264  0.1628
 3667TIP3    H132560   6.292   3.440   7.723  0.1561  0.1541 -0.0566
 3667TIP3    H232561   6.251   3.329   7.818 -0.1650  0.4669  0.1727
 3668TIP3   OH232562   6.006   2.337   1.829  0.1076  0.2910 -0.1149
 3668TIP3    H132563   5.922   2.381   1.814 -0.4184  0.0715  1.8602
 3668TIP3    H232564   5.989   2.245   1.807 -0.0441  0.3259 -0.1431
 3669TIP3   OH232565   4.731   1.830   0.137  0.3363  0.5176  0.7972
 3669TIP3    H132566   4.820   1.865   0.137 -0.0171  1.5197 -0.7896
 3669TIP3    H232567   4.738   1.746   0.093  0.3916  0.9770 -0.0970
 3670TIP3   OH232568   5.591   3.628   0.680  0.5128 -0.1792  0.1858
 3670TIP3    H132569   5.569   3.648   0.771 -1.4284 -0.1620 -0.2412
 3670TIP3    H232570   5.516   3.577   0.648  1.8315 -1.4813 -0.9808
 3671TIP3   OH232571   3.584   4.033   8.273  0.1606 -0.3764  0.1252
 3671TIP3    H132572   3.671   3.993   8.284  0.1434 -0.7780 -1.0282
 3671TIP3    H232573   3.530   3.991   8.339  0.8842  0.0116  0.9862
 3672TIP3   OH232574   3.304   6.736   1.183  0.0985  0.5267  0.0101
 3672TIP3    H132575   3.240   6.737   1.112  0.2329 -3.6596 -0.4063
 3672TIP3    H232576   3.381   6.778   1.146  0.4888 -2.3493 -2.8883
 3673TIP3   OH232577   5.764   3.692   0.967  0.1965 -0.6740 -0.3328
 3673TIP3    H132578   5.822   3.716   1.040  0.0392  1.0389 -0.7190
 3673TIP3    H232579   5.744   3.776   0.924 -0.5770 -1.5216 -1.6991
 3674TIP3   OH232580   5.637   4.497   0.480 -0.1023 -0.3333 -0.2561
 3674TIP3    H132581   5.729   4.509   0.456 -0.1460  0.4554 -0.0700
 3674TIP3    H232582   5.614   4.411   0.445  1.4029 -1.7032  1.9005
 3675TIP3   OH232583   2.496   5.382   7.471 -0.1270  0.0383 -0.3739
 3675TIP3    H132584   2.413   5.335   7.477 -1.5297  2.4925  0.9825
 3675TIP3    H232585   2.492   5.428   7.388  0.3608 -0.6031 -0.7677
 3676TIP3   OH232586   1.100   1.343   0.798  0.2953 -0.3896 -0.0627
 3676TIP3    H132587   1.007   1.345   0.772 -0.1455 -0.6900  1.4239
 3676TIP3    H232588   1.125   1.251   0.789  1.0019 -0.0409 -2.2102
 3677TIP3   OH232589   4.703   2.992   7.769 -0.4093 -0.4432  0.3863
 3677TIP3    H132590   4.621   2.959   7.804 -1.8247  2.0422 -0.3206
 3677TIP3    H232591   4.730   2.928   7.703 -2.0171 -1.0866  0.3245
 3678TIP3   OH232592   5.594   5.308   7.475 -0.0513 -0.3358  0.5054
 3678TIP3    H132593   5.518   5.269   7.433  0.1647 -1.4243  1.0805
 3678TIP3    H232594   5.562   5.337   7.560 -0.3759  1.4323 -0.1716
 3679TIP3   OH232595   6.390   3.608   2.258 -0.0921 -0.1914 -0.3178
 3679TIP3    H132596   6.323   3.626   2.324  2.0446  0.3238  1.8354
 3679TIP3    H232597   6.365   3.523   2.222 -0.0979 -1.7228  2.9104
 3680TIP3   OH232598   6.518   4.776   1.270  0.4875  0.6693  0.2302
 3680TIP3    H132599   6.457   4.847   1.293  0.1849  0.7719 -0.8296
 3680TIP3    H232600   6.555   4.803   1.185 -0.0345 -0.6833 -0.4638
 3681TIP3   OH232601   2.594   6.093   0.488  0.0868  0.1233 -0.1485
 3681TIP3    H132602   2.518   6.053   0.531  1.1354 -2.3533 -0.4027
 3681TIP3    H232603   2.570   6.097   0.395  0.4452 -1.2497 -0.3245
 3682TIP3   OH232604   6.163   4.588   8.680 -0.4240 -0.3429 -0.0607
 3682TIP3    H132605   6.137   4.497   8.661 -1.0386 -0.4422  1.1045
 3682TIP3    H232606   6.096   4.641   8.638  0.0253 -0.4138 -0.8822
 3683TIP3   OH232607   6.264   4.710   1.553 -0.0867 -0.7521 -0.3051
 3683TIP3    H132608   6.333   4.645   1.567 -0.2027 -0.9433 -0.6327
 3683TIP3    H232609   6.306   4.779   1.501  1.6906  2.1001  4.2443
 3684TIP3   OH232610   6.040   6.330   7.878  0.3156  0.3046  0.2907
 3684TIP3    H132611   5.994   6.306   7.798  0.6477  2.7556 -0.7389
 3684TIP3    H232612   6.055   6.424   7.869  1.7469  0.3629  2.5457
 3685TIP3   OH232613   4.708   0.672   8.272  0.2536  0.3067 -0.2547
 3685TIP3    H132614   4.741   0.625   8.349  0.1270  1.5832  0.6096
 3685TIP3    H232615   4.776   0.661   8.206  0.6580 -0.2788  0.2516
 3686TIP3   OH232616   0.059   5.267   7.205  0.0186 -0.3010  0.5622
 3686TIP3    H132617  -0.021   5.317   7.189 -0.9630 -1.0256  2.8218
 3686TIP3    H232618   0.097   5.254   7.118 -1.5866  1.2419 -0.4295
 3687TIP3   OH232619   3.688   5.142   2.056  0.4297 -0.9325  0.3441
 3687TIP3    H132620   3.654   5.052   2.050 -0.9876 -0.4077  0.2876
 3687TIP3    H232621   3.631   5.185   2.118  0.3596  0.2662 -0.5222
 3688TIP3   OH232622   6.352   3.156   0.943  0.0693  0.2434 -0.8301
 3688TIP3    H132623   6.396   3.076   0.974  0.0942 -0.0826 -1.6861
 3688TIP3    H232624   6.258   3.136   0.951  0.0762  0.2863 -0.6448
 3689TIP3   OH232625   2.197   3.310   1.382  0.0293  0.0555 -0.2395
 3689TIP3    H132626   2.241   3.393   1.366  0.7586  0.1079  1.7362
 3689TIP3    H232627   2.113   3.334   1.421  0.3177 -0.1250  0.5051
 3690TIP3   OH232628   5.350   2.179   8.473  0.1698  0.1516 -0.7945
 3690TIP3    H132629   5.361   2.272   8.455 -0.2751 -0.1278 -2.7614
 3690TIP3    H232630   5.431   2.139   8.440  0.2423 -0.1809 -0.2163
 3691TIP3   OH232631   6.463   4.690   2.567 -0.2622 -0.2960 -0.2412
 3691TIP3    H132632   6.474   4.645   2.651 -0.0028 -0.4644 -0.3647
 3691TIP3    H232633   6.416   4.627   2.512 -0.8317 -0.0169 -0.0840
 3692TIP3   OH232634   2.544   1.437   7.497 -0.5708 -0.1195 -0.2271
 3692TIP3    H132635   2.634   1.426   7.468 -0.2539  2.1724 -0.3084
 3692TIP3    H232636   2.551   1.484   7.580 -1.6855  1.0011 -0.7307
 3693TIP3   OH232637   5.616   5.304   8.172  0.1948 -0.1614 -0.0728
 3693TIP3    H132638   5.650   5.350   8.248  0.3669 -1.0627  0.4026
 3693TIP3    H232639   5.686   5.311   8.107  1.5682 -2.3811  1.0388
 3694TIP3   OH232640   4.984   4.942   1.727 -0.6880  0.4766 -0.0739
 3694TIP3    H132641   5.062   4.996   1.727 -0.9168  0.8090  0.3316
 3694TIP3    H232642   5.017   4.852   1.736 -0.4120  0.7055  1.3741
 3695TIP3   OH232643   4.098   5.925   8.812 -0.4637 -0.8862 -0.2096
 3695TIP3    H132644   4.135   5.945   8.726 -0.4035 -0.6591 -0.1319
 3695TIP3    H232645   4.161   5.867   8.853 -0.3427 -0.7478 -0.1995
 3696TIP3   OH232646   1.308   3.479   8.414  0.2379  0.1901  0.5784
 3696TIP3    H132647   1.331   3.429   8.493 -2.8480 -0.6060  1.1159
 3696TIP3    H232648   1.213   3.478   8.413  0.1292  2.9877 -1.4580
 3697TIP3   OH232649   6.134   4.277   8.636 -0.0423  0.5148  0.1587
 3697TIP3    H132650   6.089   4.280   8.552 -1.0763 -0.3759  0.6590
 3697TIP3    H232651   6.069   4.242   8.697  0.5939  1.4082  1.3951
 3698TIP3   OH232652   5.908   1.262   7.221 -0.0138 -0.1934 -0.6371
 3698TIP3    H132653   5.869   1.191   7.171 -1.2914  0.6179 -0.8486
 3698TIP3    H232654   5.862   1.261   7.305  0.0569  0.2647 -0.5859
 3699TIP3   OH232655   4.202   1.453   0.760 -0.1998  0.1202  0.1694
 3699TIP3    H132656   4.188   1.440   0.854 -0.7799  0.6096  0.1548
 3699TIP3    H232657   4.169   1.373   0.720 -1.5001  0.5871  0.2638
 3700TIP3   OH232658   2.438   3.406   1.809  0.3392 -0.2369 -0.1383
 3700TIP3    H132659   2.461   3.438   1.896 -1.2958  1.1872 -0.1609
 3700TIP3    H232660   2.506   3.443   1.752  1.7779 -1.6880  0.5493
 3701TIP3   OH232661   3.127   3.582   1.898  0.2299  0.4873 -0.5853
 3701TIP3    H132662   3.132   3.651   1.965 -1.9105  0.7863 -0.6779
 3701TIP3    H232663   3.053   3.607   1.843  0.8133 -0.7347 -1.9792
 3702TIP3   OH232664   3.613   2.043   0.229  0.1026  0.0001 -0.4857
 3702TIP3    H132665   3.593   2.128   0.267 -1.5133 -0.8160  0.6018
 3702TIP3    H232666   3.623   1.985   0.305  1.0602 -0.8236 -1.2123
 3703TIP3   OH232667   6.021   5.217   8.306  0.4359 -0.8724  0.5921
 3703TIP3    H132668   6.069   5.176   8.234  1.8003  0.6038  0.6223
 3703TIP3    H232669   6.087   5.232   8.373 -0.1473  0.7743  0.8287
 3704TIP3   OH232670   5.676   4.566   8.143 -0.1893 -0.2851  0.3536
 3704TIP3    H132671   5.628   4.496   8.098 -1.0471 -1.0230  2.2923
 3704TIP3    H232672   5.711   4.525   8.221  0.3585  1.1836  0.9168
 3705TIP3   OH232673   5.808   2.812   8.170 -0.7278 -0.1875  0.3033
 3705TIP3    H132674   5.799   2.746   8.102 -1.6241  0.1999  0.0235
 3705TIP3    H232675   5.748   2.882   8.143 -0.3348  0.4172  0.9622
 3706TIP3   OH232676   3.364   2.393   2.726  0.0735  0.2365 -0.0955
 3706TIP3    H132677   3.436   2.454   2.708  1.6139 -1.1254  1.1847
 3706TIP3    H232678   3.389   2.349   2.807 -1.3408 -1.5807 -0.5768
 3707TIP3   OH232679   4.755   4.043   7.343 -0.2356 -0.0302 -0.3778
 3707TIP3    H132680   4.781   4.134   7.335  1.8441 -0.6515 -1.3593
 3707TIP3    H232681   4.775   4.020   7.434 -1.3805  0.6391  0.0565
 3708TIP3   OH232682   2.944   0.114   0.296 -0.5059 -0.1258 -0.1759
 3708TIP3    H132683   3.035   0.107   0.325 -0.5733  0.1566  0.0981
 3708TIP3    H232684   2.926   0.208   0.294 -1.1963 -0.2164  1.0165
 3709TIP3   OH232685   2.698   0.327   0.712 -0.1665  0.2676 -0.0965
 3709TIP3    H132686   2.613   0.289   0.731 -0.1056 -0.7614 -1.6702
 3709TIP3    H232687   2.752   0.305   0.788 -0.6017 -1.3816 -0.2219
 3710TIP3   OH232688   1.385   1.197   0.970  0.0963  0.1865  0.4693
 3710TIP3    H132689   1.405   1.246   0.890 -0.7275  1.3520  0.9453
 3710TIP3    H232690   1.423   1.249   1.040 -0.5782  0.0286  0.9682
 3711TIP3   OH232691   1.076   3.899   0.864  0.1289 -0.5034 -0.2316
 3711TIP3    H132692   1.118   3.927   0.783 -1.9482 -0.2299 -1.2783
 3711TIP3    H232693   1.007   3.839   0.836 -0.2634 -0.8567  1.3913
 3712TIP3   OH232694   6.678   0.684   1.197 -0.0351  0.0391  0.7504
 3712TIP3    H132695   6.611   0.675   1.264  0.7835  2.5352  2.0425
 3712TIP3    H232696   6.632   0.723   1.122 -0.8028 -2.1078  0.0232
 3713TIP3   OH232697   4.297   3.518   0.428  0.1590 -0.0132 -0.1092
 3713TIP3    H132698   4.330   3.432   0.455 -1.9608 -0.8510  0.0536
 3713TIP3    H232699   4.322   3.577   0.499  2.0878 -0.3354 -0.4579
 3714TIP3   OH232700   4.678   6.187   0.352  0.0671  0.3665  0.2061
 3714TIP3    H132701   4.646   6.277   0.356  0.2013  0.4177  0.1081
 3714TIP3    H232702   4.740   6.186   0.279 -0.6398 -0.0290 -0.4064
 3715TIP3   OH232703   5.217   3.104   1.547 -0.4688 -0.0105 -0.1869
 3715TIP3    H132704   5.198   3.010   1.547 -2.5647  0.3191  1.5082
 3715TIP3    H232705   5.170   3.137   1.624  1.1560  2.2616 -0.0771
 3716TIP3   OH232706   5.746   5.085   8.846 -0.1022  0.1630  0.0594
 3716TIP3    H132707   5.828   5.119   8.809  0.1744 -0.3943  0.1446
 3716TIP3    H232708   5.749   5.111   8.938  0.7837 -1.2676  0.4734
 3717TIP3   OH232709   0.287   0.026   2.514  0.3523 -0.0259  0.4026
 3717TIP3    H132710   0.251   0.115   2.515  0.5478  0.0512  1.3898
 3717TIP3    H232711   0.214  -0.028   2.484  0.1147  0.4139  0.1716
 3718TIP3   OH232712   2.568   4.812   0.108  0.4127  0.2297  0.5154
 3718TIP3    H132713   2.662   4.824   0.123  0.7654 -0.4111 -0.9842
 3718TIP3    H232714   2.551   4.723   0.137  0.0271  0.7018  1.7804
 3719TIP3   OH232715   1.673   3.912   2.880  0.0467 -0.3519 -0.2180
 3719TIP3    H132716   1.613   3.844   2.848  1.8841 -0.2913 -4.4735
 3719TIP3    H232717   1.666   3.982   2.815 -0.3787  2.9117  2.9896
 3720TIP3   OH232718   6.131   0.946   7.187 -0.2937  0.6417  0.7823
 3720TIP3    H132719   6.221   0.916   7.203 -1.1487 -1.6829  1.7193
 3720TIP3    H232720   6.132   0.978   7.097  1.3740  0.2096  0.6091
 3721TIP3   OH232721   6.638   5.085   0.982 -0.3146  0.2744  0.1205
 3721TIP3    H132722   6.682   5.038   1.053  0.5528 -0.5610 -0.9319
 3721TIP3    H232723   6.635   5.022   0.910 -1.1835  1.1013 -0.5877
 3722TIP3   OH232724   6.584   1.009   1.427  0.7176 -0.6221  1.1382
 3722TIP3    H132725   6.555   0.999   1.517 -2.9747  0.5108  0.2467
 3722TIP3    H232726   6.537   0.940   1.379 -0.4351  1.1251 -0.3946
 3723TIP3   OH232727   1.350   4.217   8.170 -0.2722  0.4438  0.9747
 3723TIP3    H132728   1.440   4.245   8.184  1.0698 -1.5984 -2.2793
 3723TIP3    H232729   1.342   4.134   8.217  1.2873 -1.7906 -2.2759
 3724TIP3   OH232730   3.947   5.878   7.706 -0.1375  0.0098 -0.4421
 3724TIP3    H132731   3.962   5.925   7.625 -1.6208 -0.7172 -1.1799
 3724TIP3    H232732   3.974   5.788   7.688 -1.3192 -0.3639 -0.4572
 3725TIP3   OH232733   2.385   0.754   8.718 -0.3565 -0.0468  0.2471
 3725TIP3    H132734   2.456   0.697   8.691  0.2662  0.9852 -0.3735
 3725TIP3    H232735   2.311   0.728   8.663 -0.0744 -0.2284 -0.0471
 3726TIP3   OH232736   0.636   5.643   3.058 -0.5208 -0.5107 -0.2013
 3726TIP3    H132737   0.581   5.678   3.127 -0.6517  0.7001 -0.8875
 3726TIP3    H232738   0.650   5.552   3.081  0.4134  0.1429  2.0538
 3727TIP3   OH232739   2.351   5.126   1.405 -0.1038  0.0598  0.3380
 3727TIP3    H132740   2.291   5.199   1.416 -0.6763 -0.3081 -0.2953
 3727TIP3    H232741   2.369   5.096   1.494 -0.4407  0.5023  0.5576
 3728TIP3   OH232742   5.766   6.333   0.383 -0.0727 -0.7820  0.2289
 3728TIP3    H132743   5.689   6.345   0.437  0.0092 -1.0790  0.4133
 3728TIP3    H232744   5.749   6.252   0.334  0.7275 -1.6372  1.3194
 3729TIP3   OH232745   1.973   2.052   7.534  0.3721  0.8883  0.1765
 3729TIP3    H132746   1.882   2.071   7.558 -0.5649 -2.4630 -0.1896
 3729TIP3    H232747   1.976   2.069   7.440  0.2618  1.3742  0.2548
 3730TIP3   OH232748   1.470   1.833   2.603  0.0360  0.4579 -0.4344
 3730TIP3    H132749   1.424   1.765   2.652 -0.2979  0.7359 -0.3550
 3730TIP3    H232750   1.559   1.800   2.593  0.3216  0.7028  0.9955
 3731TIP3   OH232751   0.985   1.412   8.292 -0.3777 -0.4799  0.0232
 3731TIP3    H132752   1.018   1.398   8.203 -1.4012  1.5132 -0.7337
 3731TIP3    H232753   0.993   1.506   8.307  0.4263 -0.8534  2.3503
 3732TIP3   OH232754   5.371   1.053   0.300  0.1792 -0.1398  0.1512
 3732TIP3    H132755   5.415   1.112   0.239  1.2482 -1.8659 -0.8433
 3732TIP3    H232756   5.404   1.078   0.387  2.2120 -0.5676 -0.4493
 3733TIP3   OH232757   4.234   6.564   7.774  0.6758  0.4633 -0.0658
 3733TIP3    H132758   4.186   6.509   7.836  0.8468  0.4247  0.0348
 3733TIP3    H232759   4.206   6.653   7.795  0.3526  0.4120 -0.2691
 3734TIP3   OH232760   5.388   5.453   0.496 -0.1618  0.0948 -0.5540
 3734TIP3    H132761   5.472   5.459   0.452  0.9545 -0.3457  1.4182
 3734TIP3    H232762   5.331   5.409   0.433  1.3919 -0.6450 -1.5021
 3735TIP3   OH232763   4.071   2.575   7.652  0.1712  0.4741 -0.2657
 3735TIP3    H132764   4.156   2.585   7.610  0.1366  0.9443 -0.2263
 3735TIP3    H232765   4.089   2.525   7.732  0.5315  1.2753  0.1541
 3736TIP3   OH232766   5.009   3.157   2.257  0.0180 -0.5669 -0.5310
 3736TIP3    H132767   4.986   3.249   2.272 -1.3093 -1.1936  1.7145
 3736TIP3    H232768   5.093   3.146   2.302  0.1253 -0.4824 -0.7100
 3737TIP3   OH232769   2.176   4.883   8.382  0.5681  0.0067 -0.5879
 3737TIP3    H132770   2.188   4.940   8.306  2.0176  1.2230  0.4853
 3737TIP3    H232771   2.261   4.841   8.394  0.0570 -0.9383 -0.2328
 3738TIP3   OH232772   2.961   1.878   0.923 -0.1932 -0.1470 -0.3033
 3738TIP3    H132773   3.028   1.820   0.887  0.2748  0.9412 -1.2347
 3738TIP3    H232774   3.005   1.962   0.936 -1.0448  0.2240  0.3213
 3739TIP3   OH232775   4.196   4.342   8.613  0.1875  0.3151 -0.0155
 3739TIP3    H132776   4.118   4.296   8.643 -0.2140 -0.0946 -1.5841
 3739TIP3    H232777   4.211   4.410   8.678 -1.4434  0.3484  0.3531
 3740TIP3   OH232778   5.240   5.943   1.915  0.0509 -0.2215 -0.0938
 3740TIP3    H132779   5.326   5.904   1.899  0.0881 -0.9266  1.6221
 3740TIP3    H232780   5.205   5.961   1.828  1.0794 -1.8120 -0.8692
 3741TIP3   OH232781   4.224   5.639   2.170 -0.1051  0.2918  0.1441
 3741TIP3    H132782   4.227   5.721   2.219 -0.2425  0.0967  0.4837
 3741TIP3    H232783   4.248   5.572   2.234  2.0714  0.2573 -0.6018
 3742TIP3   OH232784   6.021   3.911   1.206  0.1144  0.1090 -0.3548
 3742TIP3    H132785   6.057   3.913   1.117  2.5688  3.1159  0.5144
 3742TIP3    H232786   5.961   3.836   1.206  1.3343 -1.1013 -3.9848
 3743TIP3   OH232787   3.067   2.654   8.452  0.7117  0.5601 -0.4457
 3743TIP3    H132788   2.985   2.660   8.403  1.0850  2.3259 -0.9288
 3743TIP3    H232789   3.064   2.728   8.513  1.3180 -0.2186  0.5636
 3744TIP3   OH232790   1.234   2.220   8.313 -0.3475  0.2860 -0.0445
 3744TIP3    H132791   1.210   2.285   8.379 -0.6461  0.8371 -0.6785
 3744TIP3    H232792   1.278   2.271   8.245  0.3255 -0.3360 -0.0824
 3745TIP3   OH232793   5.030   3.111   0.334 -0.8034  0.3513  0.0750
 3745TIP3    H132794   5.051   3.098   0.427  0.4501 -1.0616 -0.3717
 3745TIP3    H232795   5.114   3.106   0.289 -1.3357  1.5233 -1.1146
 3746TIP3   OH232796   4.868   6.784   1.139 -0.1344  0.1966 -0.0653
 3746TIP3    H132797   4.940   6.782   1.202  0.6340 -0.9876 -0.9400
 3746TIP3    H232798   4.806   6.719   1.173  1.0939 -1.7574 -1.4055
 3747TIP3   OH232799   4.930   2.792   8.144  0.6798 -1.2446 -0.0968
 3747TIP3    H132800   4.987   2.855   8.099 -0.2368  0.3477  0.8909
 3747TIP3    H232801   4.919   2.721   8.080  0.4647  0.3252 -1.9070
 3748TIP3   OH232802   4.645   0.104   0.654  0.2328 -0.4859 -0.0758
 3748TIP3    H132803   4.688   0.110   0.569 -0.8089 -0.7869 -0.6492
 3748TIP3    H232804   4.664   0.188   0.697 -1.3610  0.7739 -1.6787
 3749TIP3   OH232805   4.887   4.461   1.440 -0.3249 -0.9240  0.2336
 3749TIP3    H132806   4.915   4.479   1.530 -0.5908 -0.2320  0.1833
 3749TIP3    H232807   4.794   4.483   1.439 -0.1472 -0.1909 -0.4064
 3750TIP3   OH232808   4.821   0.598   1.242  0.0668  0.1155 -0.1994
 3750TIP3    H132809   4.829   0.682   1.196  1.9955 -0.8775 -1.8917
 3750TIP3    H232810   4.887   0.603   1.312  0.1018  0.0722 -0.2290
 3751TIP3   OH232811   3.128   1.549   7.382 -0.1713 -0.0729  0.0333
 3751TIP3    H132812   3.131   1.454   7.379  0.7020 -0.0623  0.4725
 3751TIP3    H232813   3.049   1.572   7.332  0.7184 -0.9398 -1.8568
 3752TIP3   OH232814   1.169   4.686   1.253 -0.2459 -0.1931 -0.4301
 3752TIP3    H132815   1.119   4.732   1.185  0.9081  0.4387 -0.8912
 3752TIP3    H232816   1.133   4.597   1.254 -0.0461 -0.3317 -2.1551
 3753TIP3   OH232817   5.804   0.396   6.999  0.0035 -0.1433  0.4974
 3753TIP3    H132818   5.837   0.320   6.951  2.6656 -0.1162  2.0584
 3753TIP3    H232819   5.807   0.467   6.935 -0.0863 -0.8455 -0.2996
 3754TIP3   OH232820   1.225   1.489   7.461  0.1494 -0.0582 -0.0715
 3754TIP3    H132821   1.320   1.490   7.455  0.2418  0.1517  1.1484
 3754TIP3    H232822   1.207   1.478   7.554 -1.0268 -1.5604 -0.4496
 3755TIP3   OH232823   0.257   1.340   8.698 -0.4137  0.4099  0.7934
 3755TIP3    H132824   0.329   1.294   8.655 -0.7979 -1.3237  1.8783
 3755TIP3    H232825   0.192   1.352   8.629 -0.8230 -1.9088  0.6817
 3756TIP3   OH232826   3.046   5.418   0.561  0.0851 -0.1772  0.3127
 3756TIP3    H132827   3.023   5.325   0.567 -0.8518 -0.1215 -1.6337
 3756TIP3    H232828   3.026   5.442   0.470 -0.4825  2.1432  0.9894
 3757TIP3   OH232829   6.176   4.698   0.065  0.2222 -0.2542  0.1230
 3757TIP3    H132830   6.167   4.648  -0.016  0.0475  0.6910 -0.4525
 3757TIP3    H232831   6.138   4.642   0.132  1.6941 -1.6952 -0.1845
 3758TIP3   OH232832   2.454   4.493   7.665 -0.6524 -0.5686  0.2273
 3758TIP3    H132833   2.540   4.453   7.652  0.4411  1.1510  1.5964
 3758TIP3    H232834   2.421   4.508   7.576  1.8996  1.5166 -0.5360
 3759TIP3   OH232835   1.083   1.003   0.541 -0.2860 -0.3753 -0.7145
 3759TIP3    H132836   1.047   1.091   0.535 -0.2725 -0.3423 -0.3410
 3759TIP3    H232837   1.092   0.987   0.635  2.4568  0.3521 -0.7829
 3760TIP3   OH232838   6.281   6.162   8.247  0.1290  0.6432 -0.7843
 3760TIP3    H132839   6.337   6.224   8.200 -0.8049  2.4872  0.4189
 3760TIP3    H232840   6.197   6.167   8.203  0.3232 -0.5762 -1.3177
 3761TIP3   OH232841   2.974   1.868   8.233 -0.0784  0.2276 -0.0784
 3761TIP3    H132842   3.021   1.824   8.162  0.4779 -2.3166  1.7442
 3761TIP3    H232843   3.036   1.935   8.263  0.2923  0.3120 -0.9795
 3762TIP3   OH232844   0.007   6.253   0.144 -0.8616 -0.0777  0.2063
 3762TIP3    H132845  -0.057   6.182   0.143 -0.7429 -0.2149  1.3624
 3762TIP3    H232846   0.007   6.284   0.234  2.5198 -1.7422  0.9156
 3763TIP3   OH232847   2.585   6.002   7.209  0.1639  0.4111  0.5167
 3763TIP3    H132848   2.664   5.951   7.227 -0.4460  0.2885  3.3011
 3763TIP3    H232849   2.520   5.937   7.186 -0.1830 -0.0091  2.4688
 3764TIP3   OH232850   1.645   0.527   2.397 -0.6095  0.0260  0.0919
 3764TIP3    H132851   1.639   0.441   2.437 -0.1263  0.0094  0.1363
 3764TIP3    H232852   1.676   0.585   2.467 -0.8593  0.2209  0.0430
 3765TIP3   OH232853   2.156   0.304   8.340  0.5657 -0.4349 -0.0984
 3765TIP3    H132854   2.079   0.353   8.310  0.3432 -0.4673  0.4254
 3765TIP3    H232855   2.123   0.247   8.409  0.7085 -1.7337 -1.0661
 3766TIP3   OH232856   3.859   4.472   1.478  0.6172 -0.2513 -0.0654
 3766TIP3    H132857   3.837   4.379   1.470 -1.4735  0.1022  0.8807
 3766TIP3    H232858   3.903   4.479   1.563 -2.2606  0.0343  1.5213
 3767TIP3   OH232859   1.633   1.467   1.287 -0.3757  0.1813  0.7490
 3767TIP3    H132860   1.643   1.380   1.325  0.4316 -0.2110 -0.3070
 3767TIP3    H232861   1.601   1.521   1.359  0.1966 -0.7395  1.7287
 3768TIP3   OH232862   0.469   0.979   7.062  0.3734  0.8867 -0.1497
 3768TIP3    H132863   0.554   0.985   7.106  1.0919  0.4391 -1.4261
 3768TIP3    H232864   0.476   1.041   6.989 -0.6528  1.3385  0.1169
 3769TIP3   OH232865   6.463   5.857   2.777  0.6929  0.2075 -0.2979
 3769TIP3    H132866   6.554   5.837   2.755  0.7907 -0.9124  0.9787
 3769TIP3    H232867   6.437   5.786   2.836 -0.9710  0.5828 -0.5462
 3770TIP3   OH232868   5.004   5.838   1.712  0.0498 -0.0695 -0.1146
 3770TIP3    H132869   5.062   5.890   1.657  0.5449 -1.4303 -0.9491
 3770TIP3    H232870   4.929   5.819   1.656 -0.0393 -0.3886  0.1086
 3771TIP3   OH232871   4.778   4.350   0.001  0.3899  0.5524 -0.1371
 3771TIP3    H132872   4.852   4.385   0.051  0.1547  0.9363 -0.0551
 3771TIP3    H232873   4.701   4.375   0.052  0.2584 -0.9353  0.4489
 3772TIP3   OH232874   3.228   2.598   8.866  0.1065 -0.1456 -0.1777
 3772TIP3    H132875   3.215   2.693   8.862  0.0271 -0.1988 -2.4444
 3772TIP3    H232876   3.317   2.588   8.901 -0.0883  0.7215  0.6157
 3773TIP3   OH232877   2.647   5.798   1.398 -0.2658  0.6290 -0.2199
 3773TIP3    H132878   2.739   5.780   1.377 -0.5230  0.5899 -1.4071
 3773TIP3    H232879   2.624   5.871   1.341 -0.8937  0.8476  0.3070
 3774TIP3   OH232880   3.881   1.472   8.650 -0.2967  0.1221 -0.1358
 3774TIP3    H132881   3.934   1.551   8.654  0.4619 -0.4025  0.3683
 3774TIP3    H232882   3.819   1.480   8.722  0.1281  0.0210  0.2472
 3775TIP3   OH232883   2.821   3.312   1.534 -0.1472  0.3478 -0.0381
 3775TIP3    H132884   2.898   3.271   1.494 -0.0440  0.8552 -0.3627
 3775TIP3    H232885   2.747   3.276   1.485 -0.3243 -1.8944  1.7232
 3776TIP3   OH232886   3.214   6.466   8.061 -0.7011 -0.1271  0.0469
 3776TIP3    H132887   3.218   6.545   8.008 -1.8596 -1.0539 -1.4888
 3776TIP3    H232888   3.160   6.490   8.137 -0.0270  0.8711  0.2204
 3777TIP3   OH232889   5.277   5.730   2.551  0.5616  0.0473 -0.1554
 3777TIP3    H132890   5.357   5.710   2.601  0.0467  0.2460  0.7735
 3777TIP3    H232891   5.241   5.644   2.529  0.6390 -0.0442  0.0697
 3778TIP3   OH232892   3.106   0.204   1.117  0.7992 -0.3537  0.6493
 3778TIP3    H132893   3.167   0.261   1.070 -0.7893  0.3585 -0.6243
 3778TIP3    H232894   3.034   0.262   1.142  0.2236 -1.3542  1.3505
 3779TIP3   OH232895   0.917   5.049   8.365 -0.0121 -0.0485  0.3309
 3779TIP3    H132896   0.989   5.010   8.414  0.2288 -0.7002 -0.5255
 3779TIP3    H232897   0.959   5.106   8.301 -0.0945 -1.9146 -1.4999
 3780TIP3   OH232898   0.862   3.395   8.675  0.3215  0.4528  0.1816
 3780TIP3    H132899   0.832   3.471   8.725  0.8205  0.6554  0.1810
 3780TIP3    H232900   0.812   3.322   8.711 -1.7408  1.0724 -1.2534
 3781TIP3   OH232901   1.278   2.485   1.432 -0.6949  0.3280 -0.6102
 3781TIP3    H132902   1.240   2.555   1.485 -0.2715  0.7166 -0.8103
 3781TIP3    H232903   1.325   2.531   1.363  0.9107 -0.1087  0.1536
 3782TIP3   OH232904   1.591   4.819   0.965 -0.9737  0.4430 -1.0783
 3782TIP3    H132905   1.524   4.831   1.032 -1.1144 -0.7253 -0.9947
 3782TIP3    H232906   1.559   4.747   0.911  1.5978 -2.3664  0.8077
 3783TIP3   OH232907   5.119   2.378   7.236 -0.3259  0.6787 -0.2608
 3783TIP3    H132908   5.129   2.405   7.145  1.4854  0.4929 -0.1507
 3783TIP3    H232909   5.096   2.458   7.282  0.0498  1.0449 -0.6961
 3784TIP3   OH232910   3.923   5.675   7.190  0.3137  0.3190  0.6211
 3784TIP3    H132911   3.853   5.657   7.252  1.3579 -2.5139  1.1463
 3784TIP3    H232912   4.003   5.647   7.236  1.4153  0.5854 -1.0469
 3785TIP3   OH232913   0.558   2.579   7.657  0.4844 -0.0066 -0.7776
 3785TIP3    H132914   0.628   2.635   7.625  0.3863  0.6998  0.1892
 3785TIP3    H232915   0.573   2.574   7.752 -0.7678  0.1804 -0.5535
 3786TIP3   OH232916   5.147   3.443   6.748 -0.0496  0.5733  0.0455
 3786TIP3    H132917   5.230   3.432   6.794  0.5966  2.4959 -0.5376
 3786TIP3    H232918   5.080   3.425   6.813  0.8430  0.4968  0.9634
 3787TIP3   OH232919   2.599   5.969   2.431 -0.1988 -0.2372 -0.2245
 3787TIP3    H132920   2.590   5.883   2.474 -0.3194  0.6653  1.6657
 3787TIP3    H232921   2.693   5.985   2.431 -0.3174  1.1673  2.8287
 3788TIP3   OH232922   1.919   2.461   1.471 -0.0147  0.7742 -0.1446
 3788TIP3    H132923   1.830   2.466   1.437 -0.3621 -2.1498  0.0450
 3788TIP3    H232924   1.975   2.492   1.400 -1.0061 -1.1048 -1.8458
 3789TIP3   OH232925   2.381   0.671   7.885 -0.0530 -0.3248 -0.1775
 3789TIP3    H132926   2.474   0.676   7.909 -0.4110 -0.3133  1.2942
 3789TIP3    H232927   2.338   0.636   7.962 -1.2742 -0.4255 -0.8794
 3790TIP3   OH232928   0.414   4.941   2.394 -0.2727 -0.7360 -0.0696
 3790TIP3    H132929   0.446   5.031   2.401 -0.9649 -0.5484  0.9403
 3790TIP3    H232930   0.492   4.887   2.412 -0.3341 -0.2943  1.7122
 3791TIP3   OH232931   4.894   3.291   1.023  0.4066 -0.1323  0.4215
 3791TIP3    H132932   4.956   3.248   1.081 -2.3521 -2.3038  1.9676
 3791TIP3    H232933   4.848   3.220   0.979 -0.9222  1.3722 -0.7555
 3792TIP3   OH232934   2.439   6.585   0.587  0.6007 -0.1275 -0.0432
 3792TIP3    H132935   2.416   6.499   0.621  1.2969 -0.1572  0.3729
 3792TIP3    H232936   2.384   6.596   0.509  1.7754 -1.6977 -1.1317
 3793TIP3   OH232937   2.392   1.849   2.238 -0.6377  0.6765 -0.7944
 3793TIP3    H132938   2.454   1.776   2.232 -0.2552  0.7411  1.4531
 3793TIP3    H232939   2.424   1.913   2.174  0.1568 -0.3132 -1.4185
 3794TIP3   OH232940   2.443   0.371   1.040  0.0170  0.3697 -0.2489
 3794TIP3    H132941   2.441   0.394   1.133 -0.2542  0.5606 -0.3003
 3794TIP3    H232942   2.382   0.432   0.999 -1.0926 -0.7359 -0.3230
 3795TIP3   OH232943   0.576   4.850   0.476  0.1093  0.5751 -0.3816
 3795TIP3    H132944   0.670   4.832   0.468 -0.2073 -1.1695 -0.5875
 3795TIP3    H232945   0.534   4.777   0.432 -1.3676  1.2846 -0.2020
 3796TIP3   OH232946   0.457   1.832   0.457 -0.0647  0.0763 -0.2611
 3796TIP3    H132947   0.547   1.862   0.470  0.1604  0.2361 -2.0434
 3796TIP3    H232948   0.464   1.762   0.393 -1.2181  0.1469 -0.4738
 3797TIP3   OH232949   0.753   2.723   1.670 -0.0404 -0.3581 -0.0599
 3797TIP3    H132950   0.695   2.793   1.700 -0.2556 -1.1665  1.4775
 3797TIP3    H232951   0.746   2.655   1.737  0.4765 -1.6963 -1.3149
 3798TIP3   OH232952   4.425   3.836   8.823  0.5981  0.1089  0.3276
 3798TIP3    H132953   4.475   3.916   8.837  2.0172  0.0175 -3.0279
 3798TIP3    H232954   4.359   3.860   8.758  0.3224 -1.1459  0.1120
 3799TIP3   OH232955   3.392   6.121   0.564  0.0610  0.1540  0.0694
 3799TIP3    H132956   3.351   6.089   0.483 -0.8148  1.3865 -0.0082
 3799TIP3    H232957   3.438   6.045   0.599  1.0550 -0.2456 -1.9523
 3800TIP3   OH232958   5.667   3.182   2.184 -0.0408 -0.4197  0.4697
 3800TIP3    H132959   5.602   3.249   2.161 -0.5254 -0.8358  0.5975
 3800TIP3    H232960   5.654   3.168   2.278  0.7871  0.0698  0.6643
 3801TIP3   OH232961   3.617   3.040   7.724  0.1247 -0.0714 -1.0786
 3801TIP3    H132962   3.576   3.009   7.805  1.8609  0.4392  0.0657
 3801TIP3    H232963   3.632   2.961   7.673 -0.1636 -0.5153 -0.4911
 3802TIP3   OH232964   0.467   5.696   1.629 -0.0653  0.2044 -0.5025
 3802TIP3    H132965   0.545   5.721   1.679 -0.1972 -0.9661  0.3347
 3802TIP3    H232966   0.471   5.601   1.625 -1.7672  0.0898  0.0520
 3803TIP3   OH232967   1.227   1.697   8.045  0.0758 -0.0531 -0.0673
 3803TIP3    H132968   1.197   1.783   8.016  1.3037  0.2396 -0.5611
 3803TIP3    H232969   1.282   1.666   7.973  0.0609 -1.0270  0.3247
 3804TIP3   OH232970   2.672   1.811   1.954 -0.5670 -0.6387  0.3252
 3804TIP3    H132971   2.718   1.765   1.883 -1.7898 -0.4525 -0.6392
 3804TIP3    H232972   2.634   1.740   2.007  1.1636 -0.8024  1.3994
 3805TIP3   OH232973   0.913   5.055   0.004  0.0683  0.1292 -0.4512
 3805TIP3    H132974   0.987   5.087  -0.048 -0.5406  2.5717  0.0424
 3805TIP3    H232975   0.844   5.119  -0.010 -1.4889 -1.3126  0.2464
 3806TIP3   OH232976   3.791   1.698   2.593  0.0063 -0.6086 -0.6556
 3806TIP3    H132977   3.727   1.768   2.584  0.7460  0.1101 -0.4348
 3806TIP3    H232978   3.817   1.700   2.685 -0.0553 -1.2543 -0.6185
 3807TIP3   OH232979   6.265   6.390   0.229  1.1154 -0.3806  0.3600
 3807TIP3    H132980   6.260   6.296   0.214 -0.3386 -0.2433 -0.1601
 3807TIP3    H232981   6.249   6.400   0.323 -2.1998 -0.4947 -0.0734
 3808TIP3   OH232982   4.013   0.553   1.039 -0.2419  0.0076  0.0081
 3808TIP3    H132983   4.002   0.640   1.001  2.2181  0.2818 -0.2419
 3808TIP3    H232984   4.005   0.567   1.133  0.5781  0.6148 -0.0029
 3809TIP3   OH232985   3.392   5.793   1.293  0.2282  0.5850 -0.0998
 3809TIP3    H132986   3.351   5.879   1.285  0.5880  0.7365 -0.3454
 3809TIP3    H232987   3.375   5.766   1.383  0.0898  0.9031 -0.0314
 3810TIP3   OH232988   5.193   1.679   7.749 -0.0864 -0.2861 -0.5100
 3810TIP3    H132989   5.212   1.592   7.714 -1.8522 -0.4811 -1.0517
 3810TIP3    H232990   5.169   1.731   7.673  0.9295  0.7064 -0.1839
 3811TIP3   OH232991   0.283   6.100   1.299 -0.7926  0.4303 -0.1320
 3811TIP3    H132992   0.217   6.114   1.367  0.7543 -1.5428  1.9301
 3811TIP3    H232993   0.364   6.135   1.337 -0.4247  2.3262 -2.3804
 3812TIP3   OH232994   4.774   5.936   0.084  0.2790 -0.3137  0.2262
 3812TIP3    H132995   4.814   5.963   0.001  1.2082 -0.3877  0.6330
 3812TIP3    H232996   4.690   5.981   0.086  1.1300  1.3887  0.1726
 3813TIP3   OH232997   1.293   4.321   7.892 -0.3948 -0.3147 -0.0829
 3813TIP3    H132998   1.381   4.356   7.907 -1.4657  1.6234  2.2663
 3813TIP3    H232999   1.283   4.252   7.958 -0.4298 -0.9846 -0.7756
 3814TIP3   OH233000   5.613   5.785   1.102 -0.5532 -0.3835  0.5957
 3814TIP3    H133001   5.559   5.848   1.148  2.5310  2.6156  0.4858
 3814TIP3    H233002   5.643   5.831   1.024  0.0585 -2.8142 -0.7057
 3815TIP3   OH233003   3.421   4.743   1.443 -0.1668  0.1052 -0.1879
 3815TIP3    H133004   3.503   4.714   1.482 -0.6728 -1.3166 -0.1327
 3815TIP3    H233005   3.441   4.830   1.407  1.5118 -0.4566 -0.6978
 3816TIP3   OH233006   2.373   5.428   8.705  0.1431 -0.2323 -0.2893
 3816TIP3    H133007   2.460   5.435   8.667  1.9255 -1.6642  3.1278
 3816TIP3    H233008   2.325   5.370   8.645  2.0728 -0.8037 -1.3624
 3817TIP3   OH233009   6.488   5.292   1.092  0.0768  0.2499  0.0460
 3817TIP3    H133010   6.543   5.332   1.025  0.2035  1.1343  0.6431
 3817TIP3    H233011   6.510   5.199   1.090  0.4985  0.3616 -0.7371
 3818TIP3   OH233012   1.014   6.118   0.240  0.2056  0.3127 -0.1208
 3818TIP3    H133013   1.062   6.128   0.322  1.3932 -0.6864 -0.6604
 3818TIP3    H233014   0.922   6.115   0.266  0.6095 -1.0387  1.3079
 3819TIP3   OH233015   6.292   0.591   7.326  0.5935 -0.4737  0.2023
 3819TIP3    H133016   6.323   0.518   7.379 -0.8446 -1.0331  0.3065
 3819TIP3    H233017   6.269   0.552   7.242 -0.2169 -0.1578  0.2684
 3820TIP3   OH233018   3.219   6.051   2.748  0.0508 -0.5784 -0.0611
 3820TIP3    H133019   3.127   6.033   2.766 -0.5249  1.1911 -1.0101
 3820TIP3    H233020   3.253   6.089   2.829 -0.3527 -0.2380 -0.0472
 3821TIP3   OH233021   4.995   1.911   0.208  0.2961  0.1190 -0.2789
 3821TIP3    H133022   5.057   1.923   0.279  0.5017 -2.3278  0.0378
 3821TIP3    H233023   5.049   1.904   0.129  0.2319  0.3620 -0.3476
 3822TIP3   OH233024   6.549   5.536   0.253  0.6284  0.2629  0.0364
 3822TIP3    H133025   6.579   5.516   0.165  1.7333 -2.2143  0.8977
 3822TIP3    H233026   6.457   5.509   0.254  1.1279 -1.5539  0.1329
 3823TIP3   OH233027   4.200   0.863   0.570 -0.2211 -0.2334 -0.1112
 3823TIP3    H133028   4.154   0.830   0.648 -0.9004 -0.6946 -0.6969
 3823TIP3    H233029   4.206   0.957   0.584 -1.1914 -0.1881  0.0655
 3824TIP3   OH233030   6.277   5.219   1.381 -0.1000 -0.0205 -0.3339
 3824TIP3    H133031   6.344   5.285   1.395  0.3735 -0.4051 -0.7641
 3824TIP3    H233032   6.249   5.232   1.290 -0.2489 -0.1899 -0.3124
 3825TIP3   OH233033   3.599   0.292   0.866 -0.3719  0.2145  0.8933
 3825TIP3    H133034   3.607   0.248   0.781 -2.0472  1.3722  0.0690
 3825TIP3    H233035   3.687   0.323   0.885  0.2742 -1.0486  0.1543
 3826TIP3   OH233036   4.582   3.258   8.838 -0.2283 -0.1168 -0.1902
 3826TIP3    H133037   4.548   3.340   8.873  0.6151  0.6117 -1.0168
 3826TIP3    H233038   4.541   3.190   8.891 -2.7044  0.6977 -0.8959
 3827TIP3   OH233039   4.415   3.753   1.652  0.2451 -0.4470 -0.3028
 3827TIP3    H133040   4.510   3.755   1.663  0.0152  0.9200  2.1609
 3827TIP3    H233041   4.388   3.671   1.693  0.4185 -1.6078 -2.3719
 3828TIP3   OH233042   2.078   0.972   2.210  0.3336  0.0340 -0.7124
 3828TIP3    H133043   2.129   1.035   2.159  0.2275 -0.8852 -1.9805
 3828TIP3    H233044   2.096   0.996   2.301  0.4806  1.7444 -1.1505
 3829TIP3   OH233045   1.877   3.696   8.565  0.6209 -0.1709  0.1727
 3829TIP3    H133046   1.863   3.602   8.553 -1.4349  0.2933 -1.6325
 3829TIP3    H233047   1.906   3.727   8.479 -1.8794  1.2984 -0.2309
 3830TIP3   OH233048   3.734   2.083   7.142 -0.0902 -0.4604 -0.1039
 3830TIP3    H133049   3.763   2.019   7.076 -0.2355 -1.1069  0.4459
 3830TIP3    H233050   3.697   2.155   7.091 -1.6619 -1.6476 -0.7166
 3831TIP3   OH233051   0.916   5.961   1.051  0.5495 -0.1278 -0.0153
 3831TIP3    H133052   0.857   5.919   0.988  1.1803 -0.1390 -0.6136
 3831TIP3    H233053   0.971   5.889   1.084  0.8845  0.0434 -0.2013
 3832TIP3   OH233054   5.820   2.458   8.143 -0.3519 -1.1042 -0.5601
 3832TIP3    H133055   5.889   2.393   8.131  0.3512 -0.4431 -0.1772
 3832TIP3    H233056   5.848   2.534   8.093 -0.7167 -0.7665 -0.2665
 3833TIP3   OH233057   1.330   3.724   7.496  0.1286  0.3342  0.3836
 3833TIP3    H133058   1.311   3.763   7.580 -1.7821 -0.1635  0.2310
 3833TIP3    H233059   1.350   3.632   7.516 -0.1716  0.2527  0.3146
 3834TIP3   OH233060   0.925   4.078   0.133  0.5776  0.1857 -0.0413
 3834TIP3    H133061   0.978   4.115   0.063  0.9989  0.0597  0.2109
 3834TIP3    H233062   0.867   4.150   0.159  0.7122  0.3647 -0.2284
 3835TIP3   OH233063   3.805   0.882   8.659  0.4527  0.4957 -0.1484
 3835TIP3    H133064   3.881   0.908   8.710  0.4902 -0.9711  0.6157
 3835TIP3    H233065   3.816   0.787   8.647  0.5399  0.7938 -3.0855
 3836TIP3   OH233066   3.636   4.921   7.605 -0.1442 -0.2290  0.0295
 3836TIP3    H133067   3.542   4.909   7.591 -0.1120 -1.3441  0.6574
 3836TIP3    H233068   3.669   4.954   7.521 -1.2264  1.0553  0.0751
 3837TIP3   OH233069   1.652   0.661   2.618  0.2875  0.3596  0.2224
 3837TIP3    H133070   1.563   0.676   2.586  0.3544 -2.1947 -1.5368
 3837TIP3    H233071   1.642   0.642   2.711 -0.7925  1.6323  0.3870
 3838TIP3   OH233072   1.067   4.731   2.659 -0.8687  0.3531  0.3571
 3838TIP3    H133073   1.051   4.757   2.568 -0.8108 -2.0355 -0.4065
 3838TIP3    H233074   1.017   4.651   2.670  0.3180 -0.2159  1.9528
 3839TIP3   OH233075   1.009   1.944   6.903  0.0741 -0.5393 -0.2835
 3839TIP3    H133076   0.994   2.017   6.842 -1.8443 -1.5352 -1.1081
 3839TIP3    H233077   1.098   1.956   6.934  0.5383  0.9524 -2.0287
 3840TIP3   OH233078   0.781   2.425   0.061 -0.7649  0.8327  0.3078
 3840TIP3    H133079   0.847   2.426  -0.008  0.1641 -0.1848  1.1540
 3840TIP3    H233080   0.701   2.456   0.018  0.3205  2.4590 -0.6477
 3841TIP3   OH233081   0.567   3.713   0.957  0.2215  0.4396 -0.0459
 3841TIP3    H133082   0.582   3.661   0.878  0.7841  0.2013  0.2122
 3841TIP3    H233083   0.497   3.667   1.003  0.0536  0.4485 -0.2905
 3842TIP3   OH233084   6.519   5.005   1.761  0.1242  0.0903  0.2341
 3842TIP3    H133085   6.424   5.019   1.767  0.3207  3.2442 -1.7388
 3842TIP3    H233086   6.529   4.949   1.684 -0.1225  0.1002  0.1917
 3843TIP3   OH233087   2.546   3.737   0.730 -0.1280  0.0401 -0.1300
 3843TIP3    H133088   2.528   3.652   0.689  0.6670 -0.5384  0.6939
 3843TIP3    H233089   2.640   3.750   0.720 -0.4939  1.7311 -1.9089
 3844TIP3   OH233090   6.597   4.117   0.439  0.1649 -0.1064 -0.2018
 3844TIP3    H133091   6.625   4.208   0.449 -1.2340  0.3270 -0.0233
 3844TIP3    H233092   6.539   4.101   0.514 -0.4787 -0.7987 -0.8359
 3845TIP3   OH233093   1.372   5.343   8.720  0.0255 -1.0106 -0.1804
 3845TIP3    H133094   1.375   5.251   8.691  0.5744 -1.0639  0.0443
 3845TIP3    H233095   1.358   5.338   8.814 -0.7731 -0.8431 -0.2744
 3846TIP3   OH233096   6.350   0.249   7.396  0.5124 -0.8542  0.3662
 3846TIP3    H133097   6.416   0.274   7.332  1.7195 -2.2883  1.0022
 3846TIP3    H233098   6.267   0.253   7.347  1.1797 -0.1504 -0.7597
 3847TIP3   OH233099   0.555   2.044   6.787  0.0632  0.0140  0.0873
 3847TIP3    H133100   0.633   1.988   6.783 -0.5779 -0.9107  0.2423
 3847TIP3    H233101   0.570   2.100   6.863  1.0848  0.6297 -0.5470
 3848TIP3   OH233102   5.842   0.310   8.383  0.3788  0.0628  0.3122
 3848TIP3    H133103   5.778   0.263   8.436  0.5820 -0.1023  0.4096
 3848TIP3    H233104   5.793   0.336   8.305  0.3345 -0.5445  0.1320
 3849TIP3   OH233105   6.200   0.547   7.642 -0.1828 -0.3678  0.0060
 3849TIP3    H133106   6.144   0.511   7.573  0.7031  0.2525 -1.0906
 3849TIP3    H233107   6.232   0.471   7.689 -4.0241 -0.7028  2.5036
 3850TIP3   OH233108   0.459   2.791   2.014  0.7611 -0.3506  0.3162
 3850TIP3    H133109   0.394   2.738   2.061  0.5168  0.3980  0.8467
 3850TIP3    H233110   0.491   2.853   2.079  0.6944  0.4668 -0.4108
 3851TIP3   OH233111   1.971   0.075   1.416 -0.5922 -0.0814  0.0107
 3851TIP3    H133112   1.904   0.060   1.349 -0.8590  1.5655 -0.1270
 3851TIP3    H233113   2.028   0.142   1.378 -0.5002  0.5680  1.2501
 3852TIP3   OH233114   1.427   5.060   7.354 -0.2203  0.7699 -0.0313
 3852TIP3    H133115   1.366   5.126   7.319 -0.7383  0.2237 -0.1660
 3852TIP3    H233116   1.382   4.977   7.343  0.3194  0.4129  0.3907
 3853TIP3   OH233117   3.326   6.372   1.891  0.0784 -0.9129  0.5282
 3853TIP3    H133118   3.297   6.283   1.911  0.8050 -1.3893 -0.4668
 3853TIP3    H233119   3.266   6.402   1.823  0.0647 -0.7769  0.5999
 3854TIP3   OH233120   0.291   3.528   7.293 -0.7720  0.2934 -0.4030
 3854TIP3    H133121   0.265   3.477   7.215 -0.6240 -0.5545  0.0843
 3854TIP3    H233122   0.326   3.462   7.353 -1.3693  0.8590  0.5964
 3855TIP3   OH233123   3.214   0.739   6.891 -0.3152  0.3538  0.3163
 3855TIP3    H133124   3.292   0.740   6.947  0.8965 -0.4137 -1.3108
 3855TIP3    H233125   3.173   0.824   6.908 -0.2702 -0.0112  2.6938
 3856TIP3   OH233126   4.397   0.359   3.090 -0.1347 -0.3074  0.4374
 3856TIP3    H133127   4.406   0.448   3.055 -0.8665 -0.1068  0.7510
 3856TIP3    H233128   4.473   0.312   3.055 -0.1466  0.2366 -0.3510
 3857TIP3   OH233129   6.772   4.163   0.838  0.4908 -0.2264  0.1949
 3857TIP3    H133130   6.759   4.077   0.796  1.0768 -0.4435  0.4463
 3857TIP3    H233131   6.695   4.174   0.894 -0.7759  0.4768 -1.5958
 3858TIP3   OH233132   1.496   0.354   3.044 -0.8752  0.1034 -0.0579
 3858TIP3    H133133   1.463   0.321   3.128  0.0974 -1.2719 -0.1870
 3858TIP3    H233134   1.591   0.361   3.057 -0.9907  2.5944 -0.1538
 3859TIP3   OH233135   4.411   4.597   1.279 -0.5959  0.3118  0.3111
 3859TIP3    H133136   4.406   4.657   1.205  0.0810 -0.0358 -0.0289
 3859TIP3    H233137   4.362   4.640   1.349 -0.6395  0.9719 -0.1182
 3860TIP3   OH233138   3.794   4.864   0.301  0.7782  0.3829  0.0305
 3860TIP3    H133139   3.852   4.825   0.235  1.3215  0.4111  0.4810
 3860TIP3    H233140   3.853   4.891   0.371 -0.0037 -2.0419  1.7568
 3861TIP3   OH233141   3.614   3.222   8.215  0.3510  0.2018  0.1630
 3861TIP3    H133142   3.646   3.132   8.223  0.1569  0.2146  1.3733
 3861TIP3    H233143   3.578   3.242   8.302 -0.9808  0.9214 -0.5204
 3862TIP3   OH233144   6.093   2.343   7.147 -0.1056 -0.0721  0.4979
 3862TIP3    H133145   6.087   2.248   7.144  0.3527 -0.0999  0.5186
 3862TIP3    H233146   6.108   2.369   7.056  0.6384 -0.0778  0.6143
 3863TIP3   OH233147   0.848   1.134   1.537 -0.4381 -0.2336  0.3126
 3863TIP3    H133148   0.790   1.199   1.497  0.5692  1.9319  2.1728
 3863TIP3    H233149   0.927   1.137   1.483 -0.1095  0.6899  0.8213
 3864TIP3   OH233150   4.126   5.493   8.346 -0.0947  0.0836 -0.3083
 3864TIP3    H133151   4.106   5.413   8.298  0.1021 -1.3451  1.8204
 3864TIP3    H233152   4.060   5.497   8.415 -0.1251  1.8069 -0.3992
 3865TIP3   OH233153   6.563   6.333   7.234  0.1448 -0.8461 -0.1203
 3865TIP3    H133154   6.471   6.359   7.239  0.5601  1.7599 -3.0448
 3865TIP3    H233155   6.561   6.238   7.224 -2.3152 -0.7622 -1.0550
 3866TIP3   OH233156   5.771   0.130   1.652  0.3334 -0.0805  0.1119
 3866TIP3    H133157   5.823   0.207   1.633  0.1372  0.2741  0.9565
 3866TIP3    H233158   5.817   0.058   1.609  1.6120  0.2016  0.9530
 3867TIP3   OH233159   6.518   3.862   2.203  0.3291  0.5296  0.6291
 3867TIP3    H133160   6.476   3.786   2.244  0.5382 -0.0800 -0.2660
 3867TIP3    H233161   6.445   3.916   2.174  0.1606 -0.0334 -0.0149
 3868TIP3   OH233162   2.395   2.637   8.189  0.7218 -0.4080 -0.3840
 3868TIP3    H133163   2.351   2.680   8.116 -0.6312 -0.1966  0.5139
 3868TIP3    H233164   2.414   2.708   8.251 -0.0877 -0.8567  0.4056
 3869TIP3   OH233165   6.156   3.443   0.626  0.1983 -0.0451 -0.1375
 3869TIP3    H133166   6.116   3.360   0.603 -1.7968 -0.1172  2.9928
 3869TIP3    H233167   6.248   3.422   0.641 -0.0681 -1.4747 -0.3530
 3870TIP3   OH233168   5.529   6.650   1.000 -0.0216  0.8162 -1.2991
 3870TIP3    H133169   5.574   6.568   1.020 -0.3685  0.7695 -0.6708
 3870TIP3    H233170   5.472   6.665   1.076 -0.3793  1.3465 -1.6654
 3871TIP3   OH233171   0.574   4.216   0.807  0.5378 -0.1979  0.0627
 3871TIP3    H133172   0.509   4.252   0.746  0.3141 -1.5998 -0.5747
 3871TIP3    H233173   0.526   4.147   0.853  1.2298 -0.3789  0.5148
 3872TIP3   OH233174   5.973   4.579   8.148 -0.9008 -0.0365  0.3493
 3872TIP3    H133175   5.884   4.572   8.182 -1.4412  1.3130 -0.6791
 3872TIP3    H233176   5.962   4.616   8.060  0.5331 -2.1054 -0.7831
 3873TIP3   OH233177   2.587   6.750   7.695 -0.8391 -0.7316  0.0026
 3873TIP3    H133178   2.608   6.678   7.636 -0.1609  0.3398 -1.1133
 3873TIP3    H233179   2.574   6.825   7.638  2.1514  0.9331  1.2751
 3874TIP3   OH233180   3.666   2.428   1.367  0.5230 -0.3980  0.0172
 3874TIP3    H133181   3.644   2.343   1.330  0.5247 -0.1283 -0.6346
 3874TIP3    H233182   3.760   2.424   1.384  0.5190 -0.5337  0.0077
 3875TIP3   OH233183   2.022   0.493   2.063  0.5644 -0.2119  0.4900
 3875TIP3    H133184   2.062   0.422   2.012  0.1982 -0.0431 -0.0444
 3875TIP3    H233185   2.006   0.454   2.149 -0.7132 -1.1675 -0.1452
 3876TIP3   OH233186   6.229   2.362   0.396 -0.4927 -0.2155 -0.1942
 3876TIP3    H133187   6.240   2.267   0.391  0.5090 -0.2534  1.8059
 3876TIP3    H233188   6.141   2.374   0.433 -0.5302 -0.3643 -0.2335
 3877TIP3   OH233189   2.778   1.079   1.077  0.2833  0.2002 -0.2614
 3877TIP3    H133190   2.774   1.054   1.169  0.0987 -0.7711 -0.5193
 3877TIP3    H233191   2.720   1.155   1.070  0.3745  0.3420  0.4371
 3878TIP3   OH233192   0.397   2.737   6.987  0.1310 -0.4453 -0.4998
 3878TIP3    H133193   0.350   2.718   7.068 -0.4592  0.3711 -0.6353
 3878TIP3    H233194   0.431   2.652   6.957  0.3299 -0.7546  0.5762
 3879TIP3   OH233195   0.883   2.503   1.545  0.0763  0.2213 -0.1446
 3879TIP3    H133196   0.809   2.563   1.554  0.5447  0.5148  2.4632
 3879TIP3    H233197   0.867   2.436   1.611  1.6907 -0.1931 -0.1414
 3880TIP3   OH233198   5.483   4.224   6.946  0.7226  0.0118 -0.0818
 3880TIP3    H133199   5.509   4.292   6.883 -0.0601 -1.0585 -1.6436
 3880TIP3    H233200   5.417   4.173   6.899  0.8244 -1.4374  1.2863
 3881TIP3   OH233201   5.532   0.045   1.780  0.1749 -0.0562  0.2625
 3881TIP3    H133202   5.600   0.073   1.718  0.5134 -0.8432  0.2623
 3881TIP3    H233203   5.574   0.053   1.866  0.0951 -0.0596  0.3011
 3882TIP3   OH233204   1.991   2.608   2.083 -0.0002  0.0936 -0.3124
 3882TIP3    H133205   2.066   2.595   2.141  0.6232  0.4177 -1.0262
 3882TIP3    H233206   2.020   2.573   1.998 -1.1901 -1.1380 -0.2440
 3883TIP3   OH233207   3.132   5.318   2.193  0.0916 -0.1700 -0.3279
 3883TIP3    H133208   3.165   5.340   2.280  0.7606  1.8546 -1.0353
 3883TIP3    H233209   3.045   5.280   2.209 -1.0551  2.7582  1.1456
 3884TIP3   OH233210   5.257   1.878   1.618 -0.2805  0.0013 -0.4834
 3884TIP3    H133211   5.311   1.838   1.550 -1.7226 -0.5758 -1.3208
 3884TIP3    H233212   5.318   1.895   1.690  0.6030 -2.8042 -0.4611
 3885TIP3   OH233213   5.732   3.655   8.433 -0.8388  0.5645  0.1646
 3885TIP3    H133214   5.692   3.577   8.395 -0.0384 -0.6045  1.6012
 3885TIP3    H233215   5.797   3.682   8.368 -1.5992  0.4681 -0.6574
 3886TIP3   OH233216   3.710   2.671   1.792  0.3383 -0.2217  0.1481
 3886TIP3    H133217   3.730   2.681   1.885 -0.0067  1.8975  0.0352
 3886TIP3    H233218   3.779   2.721   1.747  1.1077 -2.0567 -0.8283
 3887TIP3   OH233219   5.568   5.004   1.899 -0.1633  0.0107  0.1630
 3887TIP3    H133220   5.610   4.937   1.845 -0.1892  0.8880 -0.9836
 3887TIP3    H233221   5.497   4.957   1.944 -0.2033 -0.7251 -0.6377
 3888TIP3   OH233222   4.355   1.296   1.554  0.2663 -0.1734  0.0317
 3888TIP3    H133223   4.360   1.363   1.623 -0.4971  1.4063 -1.3818
 3888TIP3    H233224   4.405   1.222   1.589  0.3520  0.7650  2.0472
 3889TIP3   OH233225   4.596   5.892   7.950  0.3555  0.2871  0.5126
 3889TIP3    H133226   4.565   5.806   7.922  0.3542  1.0889 -2.2325
 3889TIP3    H233227   4.654   5.874   8.024 -0.1525 -1.9807  0.4282
 3890TIP3   OH233228   0.372   5.552   8.497 -0.0811 -0.0236 -0.0823
 3890TIP3    H133229   0.322   5.590   8.425 -1.1440  0.4635  0.8842
 3890TIP3    H233230   0.445   5.506   8.454 -1.2310 -0.5871 -1.5308
 3891TIP3   OH233231   0.071   3.569   0.608  0.1071 -0.3038 -0.1673
 3891TIP3    H133232   0.058   3.495   0.666  1.8663  0.5647  1.4413
 3891TIP3    H233233   0.017   3.639   0.646 -1.3873 -0.6472 -1.5596
 3892TIP3   OH233234   0.855   0.699   2.014 -0.4113 -0.4467  0.2223
 3892TIP3    H133235   0.897   0.644   1.948  0.0285 -0.1959  0.2941
 3892TIP3    H233236   0.768   0.717   1.979 -0.2167 -0.4055 -0.2366
 3893TIP3   OH233237   1.273   0.922   7.273 -0.6711  0.1516  0.2469
 3893TIP3    H133238   1.197   0.870   7.300 -0.1276 -1.1701 -0.6576
 3893TIP3    H233239   1.346   0.886   7.323 -0.1055 -0.6995 -1.1241
 3894TIP3   OH233240   5.199   4.463   7.782  0.2192  0.5430  0.1290
 3894TIP3    H133241   5.264   4.502   7.724  2.3139  0.1888  2.1231
 3894TIP3    H233242   5.184   4.528   7.850 -0.0818 -0.1489  0.7392
 3895TIP3   OH233243   5.229   1.234   7.821  0.3925  0.0533 -0.6475
 3895TIP3    H133244   5.145   1.189   7.810  1.1755 -1.5945 -0.1603
 3895TIP3    H233245   5.226   1.304   7.755 -0.5520 -1.1997 -2.0275
 3896TIP3   OH233246   1.335   3.295   2.449 -0.1219  0.2560 -0.5114
 3896TIP3    H133247   1.382   3.318   2.530  0.1327 -0.4561 -0.4484
 3896TIP3    H233248   1.243   3.312   2.470 -0.2028 -1.0984  0.3784
 3897TIP3   OH233249   2.044   0.822   0.522 -0.0893 -0.3952  0.3424
 3897TIP3    H133250   2.039   0.774   0.439  0.2258  1.6078 -0.8887
 3897TIP3    H233251   2.122   0.877   0.514 -0.6204  0.5801  1.5504
 3898TIP3   OH233252   5.228   4.589   8.594  0.3914  0.0311  0.6704
 3898TIP3    H133253   5.299   4.528   8.571 -0.3885 -1.5274  2.1134
 3898TIP3    H233254   5.228   4.654   8.524  4.6280  1.4030  1.6524
 3899TIP3   OH233255   3.208   6.317   8.502 -0.7217 -0.3150  0.2707
 3899TIP3    H133256   3.214   6.248   8.569  0.1509 -0.7882 -0.2739
 3899TIP3    H233257   3.124   6.303   8.459 -0.4589 -1.1749  0.0294
 3900TIP3   OH233258   2.533   3.541   8.209  0.0698  0.1260 -0.2191
 3900TIP3    H133259   2.548   3.542   8.303 -0.4940  4.3848 -0.0034
 3900TIP3    H233260   2.618   3.514   8.172  0.0271 -2.6114  1.3696
 3901TIP3   OH233261   1.785   4.782   0.616  0.2784 -0.3228 -0.2760
 3901TIP3    H133262   1.711   4.785   0.555  0.0960 -1.1179 -0.1088
 3901TIP3    H233263   1.767   4.853   0.678 -0.5452 -0.7170 -0.0344
 3902TIP3   OH233264   0.613   5.906   1.954  0.0126 -0.2892 -0.5350
 3902TIP3    H133265   0.708   5.890   1.952 -0.0447 -1.7240  2.3073
 3902TIP3    H233266   0.600   5.983   1.900  2.5173 -1.2291 -2.6827
 3903TIP3   OH233267   2.868   2.550   7.565 -0.2473 -0.2012  0.7782
 3903TIP3    H133268   2.839   2.576   7.477 -1.7749  2.1841  1.8609
 3903TIP3    H233269   2.902   2.631   7.603  0.6269 -1.2483  2.2999
 3904TIP3   OH233270   0.564   3.866   0.724 -0.3401 -0.5131  0.3067
 3904TIP3    H133271   0.507   3.869   0.801 -1.5842 -0.7544 -0.5731
 3904TIP3    H233272   0.651   3.891   0.757 -1.2510  1.4118  1.3920
 3905TIP3   OH233273   1.828   5.644   7.326 -0.5589  0.2683 -1.0254
 3905TIP3    H133274   1.875   5.687   7.397 -1.7909  1.3023 -0.7914
 3905TIP3    H233275   1.872   5.559   7.316  0.9434  0.9431 -0.4443
 3906TIP3   OH233276   0.057   3.542   7.887  0.1921  0.0247 -0.2508
 3906TIP3    H133277   0.089   3.461   7.848 -1.1261 -1.0220  0.7251
 3906TIP3    H233278   0.079   3.534   7.980 -2.0790 -0.4164  0.3257
 3907TIP3   OH233279   4.643   6.311   2.622 -0.1064 -0.0996  0.0066
 3907TIP3    H133280   4.662   6.370   2.549 -2.1527 -0.9669 -1.3196
 3907TIP3    H233281   4.660   6.363   2.701 -1.6946  2.2107 -1.0793
 3908TIP3   OH233282   0.789   5.686   7.757 -0.2626  0.3677  0.1093
 3908TIP3    H133283   0.736   5.617   7.797  3.5880 -2.0043  1.8084
 3908TIP3    H233284   0.822   5.737   7.831  1.0505  0.7100 -0.6782
 3909TIP3   OH233285   4.091   2.045   1.130 -0.5355 -0.3389 -0.6936
 3909TIP3    H133286   4.133   2.078   1.051  1.9107 -1.3517  0.0925
 3909TIP3    H233287   4.134   2.092   1.202 -0.8221 -1.3287  0.1531
 3910TIP3   OH233288   2.482   2.157   2.422 -0.8416  0.6458  0.5090
 3910TIP3    H133289   2.409   2.166   2.360 -0.9293  1.8107  0.7627
 3910TIP3    H233290   2.474   2.067   2.455 -0.5978 -0.1219 -1.3965
 3911TIP3   OH233291   1.105   2.380   2.833  0.3838  0.4960  0.5346
 3911TIP3    H133292   1.172   2.389   2.901  3.0750  0.8083 -1.9512
 3911TIP3    H233293   1.081   2.469   2.811 -0.3401  0.3984  0.9019
 3912TIP3   OH233294   4.115   1.420   1.971  0.3925  0.2693  0.0239
 3912TIP3    H133295   4.097   1.329   1.947  0.3920  0.8393 -2.3390
 3912TIP3    H233296   4.032   1.453   2.005 -0.1117 -0.1218 -0.8009
 3913TIP3   OH233297   0.551   1.346   7.324  0.8464 -0.0969 -0.1755
 3913TIP3    H133298   0.474   1.364   7.270  1.4053 -0.0956 -0.9791
 3913TIP3    H233299   0.591   1.432   7.337  0.2941  0.0165  0.9067
 3914TIP3   OH233300   2.782   0.099   1.450 -0.0124  0.1174 -0.3225
 3914TIP3    H133301   2.863   0.054   1.472 -0.2432  0.3681  1.1524
 3914TIP3    H233302   2.796   0.189   1.481 -1.3607 -0.1929  1.3436
 3915TIP3   OH233303   4.779   5.386   0.292  0.5744  0.5703  0.1969
 3915TIP3    H133304   4.795   5.417   0.203  0.6829 -1.3658 -0.5005
 3915TIP3    H233305   4.833   5.307   0.300  1.0459  1.0369  2.2124
 3916TIP3   OH233306   4.305   0.380   0.553  0.0108  0.2248 -0.1233
 3916TIP3    H133307   4.300   0.446   0.622 -0.6638 -1.4754  1.5440
 3916TIP3    H233308   4.307   0.431   0.472  0.8536  2.3014  1.1125
 3917TIP3   OH233309   5.306   6.071   7.822  0.8838  0.8824 -0.0711
 3917TIP3    H133310   5.308   6.070   7.727 -2.1280  2.0974 -0.2747
 3917TIP3    H233311   5.281   5.982   7.847  0.9133  0.7603 -0.4764
 3918TIP3   OH233312   5.160   5.982   8.615 -0.3120 -0.3860  0.1530
 3918TIP3    H133313   5.206   5.930   8.681 -1.6453 -0.5879  0.9721
 3918TIP3    H233314   5.176   5.936   8.532  0.1242 -1.0061  0.5735
 3919TIP3   OH233315   6.633   4.680   8.020  0.4004 -0.1984  0.2416
 3919TIP3    H133316   6.641   4.686   7.925 -0.4807  0.0893  0.1775
 3919TIP3    H233317   6.609   4.589   8.037  1.7504 -0.5692  0.2950
 3920TIP3   OH233318   2.934   0.555   0.290 -0.0538 -0.2669 -0.0367
 3920TIP3    H133319   2.858   0.497   0.293 -0.6116  0.4161 -0.6318
 3920TIP3    H233320   2.994   0.519   0.355 -0.4522 -1.4173 -0.2888
 3921TIP3   OH233321   3.155   5.150   0.020 -0.1150 -0.3438 -0.3335
 3921TIP3    H133322   3.122   5.235   0.051 -2.5848 -1.1305 -0.6185
 3921TIP3    H233323   3.115   5.086   0.079  2.2548 -1.3354  0.2977
 3922TIP3   OH233324   1.483   1.559   0.809  0.2234  0.2422 -0.2396
 3922TIP3    H133325   1.510   1.533   0.897 -0.5980  0.9674  0.2345
 3922TIP3    H233326   1.465   1.476   0.764  3.5822 -0.3645 -0.7397
 3923TIP3   OH233327   0.308   4.286   8.303 -0.6422  0.1686 -0.2756
 3923TIP3    H133328   0.307   4.377   8.334 -2.2620 -0.4171  1.5788
 3923TIP3    H233329   0.222   4.274   8.263 -0.6148 -0.6662 -0.0999
 3924TIP3   OH233330   5.781   4.710   1.959  0.2601  0.1384 -0.2874
 3924TIP3    H133331   5.758   4.717   2.051  1.7828 -0.1515  0.1469
 3924TIP3    H233332   5.719   4.647   1.923 -1.0865  1.1098  0.2513
 3925TIP3   OH233333   5.533   0.296   7.399  0.0750  0.6323  0.4789
 3925TIP3    H133334   5.600   0.267   7.337 -0.3160  1.8092 -0.5270
 3925TIP3    H233335   5.523   0.222   7.460  1.2529 -0.1149 -0.1940
 3926TIP3   OH233336   0.346   1.040   8.530 -0.5307  0.1254  0.8454
 3926TIP3    H133337   0.396   1.100   8.585  0.5771  0.4770 -0.4745
 3926TIP3    H233338   0.353   0.955   8.574 -0.0582  0.4790  1.4666
 3927TIP3   OH233339   1.424   5.269   2.096  0.2794  0.3990  0.1298
 3927TIP3    H133340   1.349   5.280   2.038 -0.2291 -0.5825  0.5753
 3927TIP3    H233341   1.391   5.216   2.168  1.6845 -1.0671 -0.2515
 3928TIP3   OH233342   0.697   0.477   7.662 -0.0921  0.1966 -0.6089
 3928TIP3    H133343   0.751   0.449   7.736 -2.0076  1.8159  1.5346
 3928TIP3    H233344   0.711   0.409   7.596  1.1881 -1.7021  1.4619
 3929TIP3   OH233345   2.491   6.330   8.456  0.0972  0.0300  0.1967
 3929TIP3    H133346   2.574   6.285   8.442  1.5601  2.8318 -0.9674
 3929TIP3    H233347   2.425   6.274   8.414  1.8140 -0.8965 -1.4099
 3930TIP3   OH233348   0.492   6.008   8.794  0.7608 -0.2852 -0.6698
 3930TIP3    H133349   0.472   6.044   8.708  1.3392 -4.7114 -2.9611
 3930TIP3    H233350   0.564   6.062   8.827  1.1538  1.0078 -3.4002
 3931TIP3   OH233351   2.627   0.869   7.570 -0.3724  0.5992  0.3846
 3931TIP3    H133352   2.700   0.931   7.567 -0.1824  0.3600 -0.0315
 3931TIP3    H233353   2.548   0.924   7.572 -0.1683  0.9055  2.6309
 3932TIP3   OH233354   0.414   4.366   8.639 -0.5259  0.0525 -0.5213
 3932TIP3    H133355   0.493   4.411   8.667 -1.7343  2.8081 -1.1747
 3932TIP3    H233356   0.371   4.339   8.720  0.3843 -0.1935 -0.1143
 3933TIP3   OH233357   0.717   2.211   1.444  0.1833 -0.4849 -0.1921
 3933TIP3    H133358   0.753   2.192   1.358  0.5134 -2.9373  0.4028
 3933TIP3    H233359   0.624   2.189   1.437  0.0276  0.1680 -0.1659
 3934TIP3   OH233360   6.243   3.632   0.156  0.3916  0.3595 -0.3006
 3934TIP3    H133361   6.209   3.710   0.113 -0.4938 -0.7914 -1.8233
 3934TIP3    H233362   6.234   3.649   0.249 -0.2069  1.8819 -0.6104
 3935TIP3   OH233363   0.674   0.517   2.255  0.1704 -0.1576 -0.2210
 3935TIP3    H133364   0.750   0.573   2.272  0.5581 -1.0689  1.2255
 3935TIP3    H233365   0.600   0.578   2.256  0.7695  0.6085 -0.6936
 3936TIP3   OH233366   3.849   0.345   8.092  0.0809 -0.4222  0.0507
 3936TIP3    H133367   3.805   0.430   8.080  0.3553 -0.3851 -0.7927
 3936TIP3    H233368   3.879   0.346   8.183 -1.1905 -0.2297  0.4849
 3937TIP3   OH233369   0.120   2.637   2.456 -0.2658 -0.0331 -0.4129
 3937TIP3    H133370   0.119   2.562   2.516  1.0832  0.5280  0.3412
 3937TIP3    H233371   0.170   2.704   2.502  0.7233  0.4477 -2.1254
 3938TIP3   OH233372   3.216   0.024   7.717  0.4997 -0.1972  0.1210
 3938TIP3    H133373   3.252   0.041   7.629  0.3851  1.1344  0.3019
 3938TIP3    H233374   3.282   0.060   7.776  0.5365 -1.0197  0.5933
 3939TIP3   OH233375   1.519   0.189   0.259  0.3766 -0.6711 -0.1832
 3939TIP3    H133376   1.435   0.189   0.213  0.4638 -1.0638 -0.3510
 3939TIP3    H233377   1.531   0.097   0.285  1.4782 -0.9430 -1.5256
 3940TIP3   OH233378   2.659   4.929   7.028  0.4292 -0.9192  0.4335
 3940TIP3    H133379   2.689   5.004   7.080 -1.0321 -0.1189  0.1791
 3940TIP3    H233380   2.734   4.871   7.025  1.5677  0.4741  0.7589
 3941TIP3   OH233381   0.813   6.585   1.037 -0.0271 -0.4051 -0.2521
 3941TIP3    H133382   0.898   6.543   1.022  0.0688 -0.9206  1.5279
 3941TIP3    H233383   0.833   6.678   1.047  0.4466 -0.6235  0.9300
 3942TIP3   OH233384   5.946   2.935   7.839  0.3167 -0.1160 -0.8644
 3942TIP3    H133385   5.974   2.849   7.872 -0.3252 -0.4843 -1.2578
 3942TIP3    H233386   6.020   2.993   7.859  0.8698 -0.8099 -0.8313
 3943TIP3   OH233387   4.998   5.087   7.592 -0.1943 -0.0852  0.3162
 3943TIP3    H133388   4.921   5.046   7.633 -0.4162 -0.2417 -0.2486
 3943TIP3    H233389   5.025   5.025   7.525  0.2828  0.0838  0.3526
 3944TIP3   OH233390   1.090   2.156   8.649  0.1625  0.1712  0.2307
 3944TIP3    H133391   1.122   2.236   8.607 -1.4867  0.6121 -0.2831
 3944TIP3    H233392   1.069   2.098   8.575  1.7314 -0.9229  0.6058
 3945TIP3   OH233393   1.052   2.024   1.872 -0.3737  0.0103  0.1833
 3945TIP3    H133394   1.126   1.975   1.908  0.4290  1.9935  1.3785
 3945TIP3    H233395   0.976   1.969   1.888  0.3914 -0.5404  2.1159
 3946TIP3   OH233396   1.780   1.039   0.424 -0.6222  0.1199 -1.0940
 3946TIP3    H133397   1.839   1.046   0.498 -0.0081 -2.7139 -1.2191
 3946TIP3    H233398   1.707   1.098   0.445 -0.4859 -0.6299  1.7718
 3947TIP3   OH233399   5.491   6.447   0.251  0.3204  0.0823  0.2192
 3947TIP3    H133400   5.415   6.402   0.213 -0.7304  0.6902  1.5072
 3947TIP3    H233401   5.454   6.523   0.295  2.0937  2.7632 -2.5137
 3948TIP3   OH233402   6.110   5.277   1.166 -0.5825  0.3796 -0.5306
 3948TIP3    H133403   6.154   5.319   1.092 -0.2182  1.6907  0.4008
 3948TIP3    H233404   6.069   5.199   1.128  0.2764  0.5797 -1.9467
 3949TIP3   OH233405   3.027   1.920   7.097  0.1236 -0.1853 -0.1737
 3949TIP3    H133406   3.084   1.861   7.147  0.7442 -0.2727 -0.9674
 3949TIP3    H233407   2.981   1.863   7.036  0.7630  0.1481 -0.9777
 3950TIP3   OH233408   6.098   1.671   2.057  0.0155 -0.4438  0.0089
 3950TIP3    H133409   6.015   1.718   2.070  0.6715  0.7270  0.0884
 3950TIP3    H233410   6.166   1.737   2.070  0.9821 -1.4311  0.1408
 3951TIP3   OH233411   6.468   4.112   8.097  0.1578  0.2644  0.4865
 3951TIP3    H133412   6.518   4.168   8.157 -0.6694  0.5748  0.8921
 3951TIP3    H233413   6.500   4.136   8.010  2.9084 -1.6664  0.8424
 3952TIP3   OH233414   2.545   1.472   6.720  0.4147 -0.2709 -1.0249
 3952TIP3    H133415   2.508   1.508   6.639  0.0861 -0.7618 -1.1000
 3952TIP3    H233416   2.618   1.417   6.690 -0.1364 -1.0079 -1.0564
 3953TIP3   OH233417   5.290   0.418   7.342  0.0022  0.6985  0.0094
 3953TIP3    H133418   5.381   0.407   7.368 -0.0008 -1.1156 -0.5525
 3953TIP3    H233419   5.290   0.399   7.248 -1.1861 -1.1578  0.3263
 3954TIP3   OH233420   6.096   3.548   8.274 -0.1922 -0.1969 -0.1710
 3954TIP3    H133421   6.076   3.634   8.311  0.7477 -0.3971  0.8759
 3954TIP3    H233422   6.150   3.506   8.341  0.8438 -0.9278 -1.4226
 3955TIP3   OH233423   0.612   6.481   0.237 -0.5103 -0.0907  0.4370
 3955TIP3    H133424   0.563   6.563   0.225 -0.2914 -0.1357 -0.9629
 3955TIP3    H233425   0.557   6.427   0.293 -1.1746  0.5882  0.4438
 3956TIP3   OH233426   0.304   6.408   0.003  0.5238  0.1222  0.8613
 3956TIP3    H133427   0.326   6.345   0.072  0.4775  0.3036  1.0433
 3956TIP3    H233428   0.374   6.398  -0.061 -0.7726 -1.8788 -0.3434
 3957TIP3   OH233429   5.425   0.326   2.942  1.2036 -0.0105  0.5216
 3957TIP3    H133430   5.352   0.352   2.998 -0.4249 -1.7755 -0.6214
 3957TIP3    H233431   5.456   0.243   2.979  0.5100 -0.8820 -0.7662
 3958TIP3   OH233432   6.027   5.609   1.176  0.3449  0.4354 -0.0689
 3958TIP3    H133433   6.016   5.634   1.267  1.1426 -1.0253  0.4625
 3958TIP3    H233434   6.012   5.514   1.175 -0.2572  0.5103 -1.5642
 3959TIP3   OH233435   4.620   2.401   6.794 -0.0364  0.2947 -0.4101
 3959TIP3    H133436   4.547   2.367   6.846  0.7590  0.5547  0.9409
 3959TIP3    H233437   4.659   2.468   6.851  1.2449  0.1600 -1.1180
 3960TIP3   OH233438   3.002   6.737   1.587  0.0190  0.0737  0.1280
 3960TIP3    H133439   3.041   6.747   1.674 -1.9166 -0.1938  1.0732
 3960TIP3    H233440   3.061   6.785   1.529  2.4318 -1.3696  1.2247
 3961TIP3   OH233441   5.436   1.285   0.966  0.1950 -0.0925  0.3409
 3961TIP3    H133442   5.453   1.378   0.985 -0.6153  0.2863 -0.6862
 3961TIP3    H233443   5.452   1.240   1.049  1.6577  0.8138  0.5886
 3962TIP3   OH233444   0.905   5.137   2.190 -0.0347  0.6481  0.4224
 3962TIP3    H133445   0.908   5.067   2.124  0.8330  0.2392  0.8803
 3962TIP3    H233446   0.866   5.095   2.267  1.3350  0.3964  0.9994
 3963TIP3   OH233447   5.817   1.373   1.680 -0.1799  0.0053 -0.3382
 3963TIP3    H133448   5.809   1.410   1.768  1.4181 -0.3249 -0.0229
 3963TIP3    H233449   5.859   1.442   1.629 -0.9171  0.1165 -0.8189
 3964TIP3   OH233450   5.481   3.217   8.316 -0.3201  0.2870 -0.4527
 3964TIP3    H133451   5.569   3.227   8.281  0.5302 -1.6534  0.9465
 3964TIP3    H233452   5.455   3.128   8.292 -1.5087  0.4933 -0.0151
 3965TIP3   OH233453   3.191   0.159   1.723  0.1392 -0.0687 -0.1667
 3965TIP3    H133454   3.183   0.151   1.818 -0.8631  0.2598 -0.2135
 3965TIP3    H233455   3.285   0.150   1.706  0.4649  0.9595  0.9629
 3966TIP3   OH233456   4.663   6.114   2.904  0.0355  0.5259 -0.3005
 3966TIP3    H133457   4.661   6.120   2.999 -2.2132 -1.5403 -0.1252
 3966TIP3    H233458   4.742   6.162   2.878 -0.1924  2.5934  2.4409
 3967TIP3   OH233459   0.914   2.966   1.838 -0.3524  0.6015 -0.0959
 3967TIP3    H133460   0.826   2.934   1.818 -0.2414  0.9755 -1.3051
 3967TIP3    H233461   0.906   3.007   1.924 -0.9347 -0.9497  0.6360
 3968TIP3   OH233462   6.418   6.278   7.842 -0.3880 -1.6127 -0.0706
 3968TIP3    H133463   6.494   6.251   7.791  0.3197 -0.5032  0.3543
 3968TIP3    H233464   6.386   6.357   7.799 -0.9040 -1.7046  0.1320
 3969TIP3   OH233465   0.088   5.869   2.239  0.2474  0.2179  1.0828
 3969TIP3    H133466   0.120   5.803   2.300  2.7128  2.2529  2.2289
 3969TIP3    H233467  -0.004   5.881   2.261  0.2079 -1.5285  2.0107
 3970TIP3   OH233468   6.616   2.252   8.064 -0.6735 -0.0664 -0.2899
 3970TIP3    H133469   6.582   2.249   8.153 -0.6943 -0.8015 -0.3121
 3970TIP3    H233470   6.538   2.243   8.009 -0.5523 -0.8111 -0.3539
 3971TIP3   OH233471   6.227   0.019   2.194 -0.2586 -0.1369  0.7745
 3971TIP3    H133472   6.240  -0.037   2.271  1.4862 -1.1000 -0.1736
 3971TIP3    H233473   6.293   0.087   2.202 -0.9162  0.5252  0.7540
 3972TIP3   OH233474   6.467   3.052   8.509  0.3863 -0.8425  0.2317
 3972TIP3    H133475   6.557   3.062   8.476  0.5853  0.3235  1.0724
 3972TIP3    H233476   6.419   3.013   8.436  0.8136  1.5685 -1.4744
 3973TIP3   OH233477   5.870   2.645   1.682 -0.6807 -0.0345 -0.4379
 3973TIP3    H133478   5.890   2.638   1.776 -0.4418  0.8869 -0.4154
 3973TIP3    H233479   5.825   2.729   1.673 -2.6075 -1.0669 -0.8426
 3974TIP3   OH233480   6.174   3.866   0.011  0.2738  0.2857  0.8562
 3974TIP3    H133481   6.132   3.841  -0.071 -0.0960  0.0358  1.1175
 3974TIP3    H233482   6.254   3.912  -0.015 -0.7639  1.8634  0.3203
 3975TIP3   OH233483   1.277   3.490   0.715 -0.0113 -0.1320  0.3175
 3975TIP3    H133484   1.281   3.454   0.626 -0.9650  0.7361 -0.1058
 3975TIP3    H233485   1.346   3.557   0.716  0.2595 -0.4124  0.3558
 3976TIP3   OH233486   3.112   0.470   8.747 -0.4427  0.4607  0.1676
 3976TIP3    H133487   3.188   0.458   8.691  1.0947  0.7516  2.0940
 3976TIP3    H233488   3.072   0.383   8.752  0.4670  0.0269  0.0927
 3977TIP3   OH233489   3.930   4.147   7.533 -0.2156 -0.0443  0.0604
 3977TIP3    H133490   3.936   4.157   7.628 -0.9463 -1.0898  0.2436
 3977TIP3    H233491   4.001   4.086   7.511 -0.0121  0.2405 -0.0680
 3978TIP3   OH233492   3.260   0.436   0.223 -0.2669  0.1387 -0.5839
 3978TIP3    H133493   3.257   0.515   0.169 -0.7269  1.5407  1.4073
 3978TIP3    H233494   3.204   0.455   0.298 -2.4808 -3.0438 -1.2285
 3979TIP3   OH233495   0.375   1.835   7.229  0.0793 -0.2188 -0.1695
 3979TIP3    H133496   0.433   1.876   7.165 -0.6701  1.8592  0.4035
 3979TIP3    H233497   0.293   1.821   7.182 -0.5710  1.5855  0.3344
 3980TIP3   OH233498   0.783   3.165   2.414 -0.0936  0.4495 -0.5854
 3980TIP3    H133499   0.729   3.103   2.365 -0.7839 -0.2496  1.0189
 3980TIP3    H233500   0.846   3.111   2.461 -0.5270  0.9604  0.6186
 3981TIP3   OH233501   5.294   2.117   0.289 -0.2549  0.4348 -0.1244
 3981TIP3    H133502   5.320   2.049   0.227  0.0885  1.8031 -1.5537
 3981TIP3    H233503   5.368   2.123   0.351  0.0776  0.0872 -0.4859
 3982TIP3   OH233504   6.464   6.221   0.728 -0.7095 -0.4358  0.7421
 3982TIP3    H133505   6.425   6.157   0.788 -1.3017  1.3840  2.3967
 3982TIP3    H233506   6.389   6.266   0.689 -0.2967 -0.7345 -0.4696
 3983TIP3   OH233507   6.109   2.496   2.193  0.6509 -0.0906  0.0842
 3983TIP3    H133508   6.190   2.529   2.231  1.0894 -0.9936 -0.0373
 3983TIP3    H233509   6.040   2.551   2.231  1.2595  0.3034  0.6377
 3984TIP3   OH233510   2.660   0.035   2.480 -0.3099  0.4827 -0.2538
 3984TIP3    H133511   2.594  -0.033   2.464  1.9392 -2.3495  1.4200
 3984TIP3    H233512   2.632   0.078   2.560 -0.8832  0.3195 -0.3621
 3985TIP3   OH233513   6.301   5.577   7.985 -0.0191 -0.0865  0.7366
 3985TIP3    H133514   6.276   5.518   8.055 -0.4798  0.2392  0.8514
 3985TIP3    H233515   6.264   5.662   8.010 -3.0821 -0.5949 -1.4278
 3986TIP3   OH233516   1.349   3.852   8.607  0.0845 -0.1084  0.4167
 3986TIP3    H133517   1.375   3.854   8.699 -1.7588  1.8113  0.9856
 3986TIP3    H233518   1.422   3.893   8.560  0.2037  0.7527  1.3189
 3987TIP3   OH233519   3.387   1.309   0.019  0.9685 -0.0140  0.0196
 3987TIP3    H133520   3.315   1.290  -0.042 -0.0199  2.1425  0.4016
 3987TIP3    H233521   3.394   1.231   0.073 -0.1969 -0.7933 -0.8973
 3988TIP3   OH233522   4.267   5.709   8.421  0.8594 -0.1503 -0.6090
 3988TIP3    H133523   4.318   5.682   8.497  1.2541  2.0394 -0.0374
 3988TIP3    H233524   4.236   5.626   8.382  3.2383 -1.4549  0.0929
 3989TIP3   OH233525   0.961   0.055   0.958  0.5335  0.3781  0.9252
 3989TIP3    H133526   0.974   0.149   0.944  0.2893  0.3752  0.6846
 3989TIP3    H233527   0.963   0.045   1.053 -0.0655  0.7130  0.9778
 3990TIP3   OH233528   3.162   3.605   0.047  0.4630  0.3019  0.5214
 3990TIP3    H133529   3.102   3.661  -0.001 -0.5687 -1.6252 -0.5725
 3990TIP3    H233530   3.119   3.590   0.131  0.6189  0.9183  0.7147
 3991TIP3   OH233531   3.373   0.946   1.252  0.5768 -0.2252 -0.2119
 3991TIP3    H133532   3.411   1.019   1.202 -2.8134  0.4890 -2.0174
 3991TIP3    H233533   3.345   0.986   1.334 -0.9230  0.4989 -1.0386
 3992TIP3   OH233534   3.469   0.728   8.138 -0.8684  0.7107 -0.0036
 3992TIP3    H133535   3.433   0.660   8.195  1.1936  0.2620  0.8741
 3992TIP3    H233536   3.519   0.784   8.197 -1.2169  2.0784 -0.9598
 3993TIP3   OH233537   2.413   1.242   8.674  0.5191  0.3943 -0.2437
 3993TIP3    H133538   2.419   1.291   8.756 -0.0690  1.2865 -0.7222
 3993TIP3    H233539   2.334   1.274   8.632  1.6246  1.1217 -1.9051
 3994TIP3   OH233540   3.189   1.388   0.515 -0.8318 -0.1992  0.0787
 3994TIP3    H133541   3.258   1.352   0.459 -2.6070 -3.4386 -0.2595
 3994TIP3    H233542   3.225   1.384   0.603  0.7220  1.7903 -0.3680
 3995TIP3   OH233543   5.928   5.997   1.199 -0.1460  0.1446 -0.0273
 3995TIP3    H133544   5.964   5.976   1.285  1.3210  0.8426 -0.4412
 3995TIP3    H233545   5.944   5.918   1.147 -1.7517 -0.5792  0.5226
 3996TIP3   OH233546   2.428   1.939   7.671 -0.1645 -0.6453  0.3944
 3996TIP3    H133547   2.494   1.987   7.721 -0.2153 -0.5832  0.4018
 3996TIP3    H233548   2.435   1.975   7.582 -0.3961 -0.4261  0.4643
 3997TIP3   OH233549   1.516   0.675   1.917 -0.0064 -0.1522 -0.0998
 3997TIP3    H133550   1.598   0.670   1.966  0.1917 -0.7342 -0.4688
 3997TIP3    H233551   1.478   0.759   1.941  0.4758 -0.0788  0.4295
 3998TIP3   OH233552   1.676   5.118   8.647 -0.3872  0.6433 -0.7480
 3998TIP3    H133553   1.656   5.210   8.628 -2.2721  0.6970  1.1490
 3998TIP3    H233554   1.622   5.069   8.586 -0.7858  0.7924 -0.5154
 3999TIP3   OH233555   0.366   1.990   8.649  0.4223  0.2447 -0.3703
 3999TIP3    H133556   0.444   1.997   8.704 -0.8410  0.1785  1.5338
 3999TIP3    H233557   0.377   1.908   8.602  2.3671  1.1478 -1.6276
 4000TIP3   OH233558   6.396   3.969   2.570  0.3021  0.2570  0.3946
 4000TIP3    H133559   6.374   4.009   2.653  1.9315 -1.0584  1.5354
 4000TIP3    H233560   6.314   3.971   2.520 -0.4197  2.1211  1.5411
 4001TIP3   OH233561   2.614   2.805   8.427  0.7652 -0.4072  0.2536
 4001TIP3    H133562   2.625   2.887   8.475  0.6295  0.7885 -1.6609
 4001TIP3    H233563   2.573   2.831   8.344  0.9498 -2.3814 -0.5011
 4002TIP3   OH233564   2.243   4.305   7.378  0.4692  0.2180 -0.1250
 4002TIP3    H133565   2.267   4.266   7.295 -2.5216 -1.2714 -0.4253
 4002TIP3    H233566   2.272   4.396   7.371  0.9254 -0.0458 -2.4873
 4003TIP3   OH233567   0.427   5.067   0.552  0.3489 -0.3119  0.5155
 4003TIP3    H133568   0.472   4.987   0.523 -0.7786 -0.2159 -1.6896
 4003TIP3    H233569   0.334   5.049   0.538 -0.0007  1.0396  0.9508
 4004TIP3   OH233570   5.893   3.424   6.621  0.2910  0.0787 -0.8712
 4004TIP3    H133571   5.823   3.398   6.561 -1.9271  1.0236  1.1644
 4004TIP3    H233572   5.878   3.372   6.699  1.3816  0.9204 -0.0662
 4005TIP3   OH233573   2.143   0.254   1.315  0.4451 -0.1730 -0.1239
 4005TIP3    H133574   2.217   0.292   1.362  0.9750  0.9582 -1.8027
 4005TIP3    H233575   2.077   0.324   1.315  0.5073 -0.1056 -1.1707
 4006TIP3   OH233576   6.031   3.455   0.267  0.6289  0.6189 -0.1328
 4006TIP3    H133577   6.100   3.474   0.203  0.5312  0.8861 -0.1621
 4006TIP3    H233578   6.015   3.361   0.258  2.6943  0.0402  1.5774
 4007TIP3   OH233579   5.355   4.392   7.273 -0.4619 -0.2199  0.3681
 4007TIP3    H133580   5.402   4.461   7.227  2.9290 -0.7606  2.6199
 4007TIP3    H233581   5.264   4.423   7.276  0.3597  2.7546 -1.1029
 4008TIP3   OH233582   4.522   0.118   2.275  0.5407  0.4752  0.2067
 4008TIP3    H133583   4.507   0.113   2.369  0.2483 -0.8100  0.1097
 4008TIP3    H233584   4.556   0.206   2.261  0.9785  0.5489  1.5697
 4009TIP3   OH233585   4.401   1.747   8.713 -0.2178 -0.4741 -0.2668
 4009TIP3    H133586   4.365   1.833   8.690  0.7617  0.3726  1.1764
 4009TIP3    H233587   4.494   1.753   8.688  0.2077 -0.5368  1.2136
 4010TIP3   OH233588   2.143   4.749   2.290 -0.1970  0.2955 -0.2966
 4010TIP3    H133589   2.147   4.708   2.377  0.7563  0.9206 -0.0338
 4010TIP3    H233590   2.148   4.843   2.308  1.7940  0.3833 -1.1187
 4011TIP3   OH233591   5.309   2.526   8.175 -0.4056  0.2598 -0.0087
 4011TIP3    H133592   5.288   2.599   8.233 -2.0599 -0.3572  0.2112
 4011TIP3    H233593   5.396   2.497   8.204  0.9757  2.9901 -1.0406
 4012TIP3   OH233594   1.278   5.359   1.671  0.2316 -0.2423  0.2261
 4012TIP3    H133595   1.211   5.336   1.607  0.1060 -0.3641  0.4014
 4012TIP3    H233596   1.346   5.294   1.659 -0.0424 -0.5987  0.5986
 4013TIP3   OH233597   5.949   2.017   1.341 -0.3650 -0.3461  0.0666
 4013TIP3    H133598   5.970   2.011   1.248 -0.9360  3.4538 -0.4619
 4013TIP3    H233599   5.861   1.979   1.348  0.2631 -2.0225 -0.5926
 4014TIP3   OH233600   2.169   5.197   0.769  0.7275 -0.0848 -0.2578
 4014TIP3    H133601   2.146   5.204   0.677  0.6192 -0.1733 -0.2365
 4014TIP3    H233602   2.086   5.187   0.815  0.8877 -2.0843 -0.3304
 4015TIP3   OH233603   4.975   0.751   0.951  0.0963 -0.4046  0.4318
 4015TIP3    H133604   4.912   0.755   1.022  0.1921  0.8982  0.4756
 4015TIP3    H233605   4.922   0.738   0.872 -0.1550 -0.0962  0.5493
 4016TIP3   OH233606   1.200   5.068   8.263  0.1942  0.2902  0.3575
 4016TIP3    H133607   1.201   5.074   8.167 -1.5235  4.3608  0.4227
 4016TIP3    H233608   1.276   5.120   8.291 -1.3636  2.2314  1.1560
 4017TIP3   OH233609   3.650   4.850   8.486 -0.7602  0.1456  0.1632
 4017TIP3    H133610   3.703   4.858   8.565 -1.1890 -1.7589  0.6911
 4017TIP3    H233611   3.625   4.757   8.482 -1.1839  0.2884 -1.9259
 4018TIP3   OH233612   2.405   6.668   1.764  0.3230 -0.6888  0.3721
 4018TIP3    H133613   2.479   6.701   1.815  2.7263  0.6986 -3.6283
 4018TIP3    H233614   2.429   6.579   1.741  0.5265 -0.4169 -0.4933
 4019TIP3   OH233615   1.982   4.546   0.706  0.8940  0.3401  0.1081
 4019TIP3    H133616   1.937   4.620   0.666 -0.3732 -0.6642 -0.3888
 4019TIP3    H233617   2.044   4.516   0.639  0.0978 -0.1782 -0.4111
 4020TIP3   OH233618   0.564   1.430   0.643 -0.1342 -0.2949 -0.8193
 4020TIP3    H133619   0.595   1.508   0.689  3.7812 -2.4474  0.6899
 4020TIP3    H233620   0.589   1.445   0.551  0.0456  0.4676 -0.6527
 4021TIP3   OH233621   5.223   2.669   1.124 -0.8741  0.5337  0.2549
 4021TIP3    H133622   5.159   2.740   1.112 -2.7483 -1.1839 -0.4102
 4021TIP3    H233623   5.179   2.591   1.090  1.5517 -0.7741 -0.0701
 4022TIP3   OH233624   0.010   0.735   0.368  0.9863 -0.2757  0.0188
 4022TIP3    H133625   0.102   0.715   0.350  0.6121 -4.0167  1.4789
 4022TIP3    H233626  -0.039   0.679   0.308 -0.2362 -2.0624  2.5354
 4023TIP3   OH233627   6.665   5.790   2.456  0.7340  0.2627  0.3477
 4023TIP3    H133628   6.686   5.822   2.544  2.1250  2.2663 -0.6187
 4023TIP3    H233629   6.608   5.858   2.419  1.3797  0.2029 -0.7911
 4024TIP3   OH233630   3.654   5.721   7.042  0.3662  0.6926  0.0693
 4024TIP3    H133631   3.636   5.785   7.111 -0.0588  1.9637 -1.1662
 4024TIP3    H233632   3.584   5.733   6.979  2.0538  1.3409 -1.8067
 4025TIP3   OH233633   6.004   2.610   1.016  0.3847  0.1177 -0.1751
 4025TIP3    H133634   5.971   2.531   0.972  0.8625 -0.1808 -0.0088
 4025TIP3    H233635   5.927   2.666   1.025  0.0852 -0.2294 -0.5100
 4026TIP3   OH233636   6.233   2.323   8.487  0.3001  0.3639 -0.3463
 4026TIP3    H133637   6.253   2.356   8.574 -0.2369 -0.1844 -0.0071
 4026TIP3    H233638   6.231   2.228   8.497 -0.0976  0.3097 -0.8850
 4027TIP3   OH233639   3.400   1.331   1.369  0.4235 -0.2349 -0.2457
 4027TIP3    H133640   3.490   1.346   1.341  0.1827 -0.3745 -1.1179
 4027TIP3    H233641   3.354   1.413   1.348  0.2521 -0.3255 -0.2267
 4028TIP3   OH233642   0.849   3.681   8.495  0.5572  0.0509  0.0364
 4028TIP3    H133643   0.941   3.654   8.489  0.1228 -1.6658  0.5983
 4028TIP3    H233644   0.844   3.760   8.442  2.5248  0.6370  0.6272
 4029TIP3   OH233645   1.111   3.509   6.758  0.2114  0.4874 -0.0312
 4029TIP3    H133646   1.166   3.475   6.829  0.9218  0.2289 -0.6824
 4029TIP3    H233647   1.165   3.577   6.718  0.1188  0.1391 -0.7655
 4030TIP3   OH233648   1.980   1.058   2.761  0.0190  0.1963 -0.0775
 4030TIP3    H133649   1.909   1.018   2.711 -0.0140 -0.0673  0.1777
 4030TIP3    H233650   1.936   1.106   2.831  0.0549  0.7396 -0.4213
 4031TIP3   OH233651   3.243   3.551   8.682  0.3676  0.1117 -0.2845
 4031TIP3    H133652   3.189   3.534   8.605  0.3148 -0.7218 -0.0716
 4031TIP3    H233653   3.182   3.588   8.746  0.4337  0.9118 -0.6631
 4032TIP3   OH233654   0.318   4.867   1.001 -0.2834  0.2120 -0.0475
 4032TIP3    H133655   0.280   4.807   1.065 -0.8567  0.1462 -0.4472
 4032TIP3    H233656   0.319   4.952   1.046  0.4459 -0.0695  0.4853
 4033TIP3   OH233657   2.583   2.259   8.069 -0.5062 -0.2221 -0.0347
 4033TIP3    H133658   2.633   2.184   8.035 -0.3612  0.1827 -0.7246
 4033TIP3    H233659   2.522   2.281   7.999 -1.8752 -0.8914  0.9096
 4034TIP3   OH233660   0.257   4.150   0.531  0.1013 -0.1514  0.2030
 4034TIP3    H133661   0.267   4.129   0.439  0.3958 -3.0192  0.7798
 4034TIP3    H233662   0.220   4.070   0.570  0.0344  0.9326  2.5628
 4035TIP3   OH233663   5.400   6.700   8.115 -0.4510 -0.2192 -0.4192
 4035TIP3    H133664   5.310   6.695   8.083 -0.3881 -3.3941 -0.3865
 4035TIP3    H233665   5.451   6.647   8.053  1.1479  0.3181  0.3697
 4036TIP3   OH233666   6.135   0.926   0.050  0.7190 -0.2161 -0.5795
 4036TIP3    H133667   6.045   0.949   0.028  1.1967  1.7244 -0.7383
 4036TIP3    H233668   6.136   0.917   0.145  0.3882 -0.1284 -0.5677
 4037TIP3   OH233669   6.478   5.070   0.002  0.1406  0.1884 -0.3880
 4037TIP3    H133670   6.554   5.112   0.042  0.3509  0.0326 -0.6279
 4037TIP3    H233671   6.452   5.002   0.064  1.6718 -1.4045 -1.3962
 4038TIP3   OH233672   0.211   0.506   2.208 -0.8051 -0.4237 -0.5664
 4038TIP3    H133673   0.141   0.569   2.225 -0.8991 -0.5273 -0.5672
 4038TIP3    H233674   0.170   0.439   2.152 -0.3220  0.2678 -1.7942
 4039TIP3   OH233675   3.523   6.616   2.029 -0.3235 -0.4326  0.0094
 4039TIP3    H133676   3.561   6.700   2.054  0.7459 -0.5548 -1.1146
 4039TIP3    H233677   3.466   6.593   2.103  0.5335  0.5424  1.0229
 4040TIP3   OH233678   3.691   4.144   6.861 -0.6149 -0.0073  0.1566
 4040TIP3    H133679   3.625   4.078   6.840  0.2618 -0.6942 -0.5090
 4040TIP3    H233680   3.773   4.106   6.831  0.2141  0.4779  1.7270
 4041TIP3   OH233681   6.493   1.634   0.683 -0.8452  0.5310  0.2317
 4041TIP3    H133682   6.577   1.657   0.643  0.8762 -0.2728  3.0307
 4041TIP3    H233683   6.513   1.559   0.739 -3.1970  0.9412  1.7925
 4042TIP3   OH233684   0.787   3.240   0.554  0.1748  0.3715 -0.4018
 4042TIP3    H133685   0.741   3.309   0.505 -3.4213  1.0783  3.3397
 4042TIP3    H233686   0.867   3.283   0.585  0.3359  1.2731 -1.9412
 4043TIP3   OH233687   4.744   2.302   7.395 -0.0782  0.2054 -0.0701
 4043TIP3    H133688   4.804   2.246   7.346 -1.2385  0.4074 -1.7789
 4043TIP3    H233689   4.670   2.315   7.337 -1.3966  0.7009  1.6521
 4044TIP3   OH233690   5.277   3.505   0.028 -0.4867 -0.3114 -0.3823
 4044TIP3    H133691   5.229   3.442  -0.025 -0.4294  0.0399 -0.8602
 4044TIP3    H233692   5.296   3.577  -0.032 -0.1432 -0.0493  0.0357
 4045TIP3   OH233693   5.962   0.061   8.343 -0.1549  0.2132  0.0744
 4045TIP3    H133694   5.908   0.032   8.269  1.0080  0.1065 -0.7695
 4045TIP3    H233695   5.910   0.128   8.386 -0.9064  0.2049 -0.7849
 4046TIP3   OH233696   6.464   0.221   0.940 -0.4402 -0.7665  0.1341
 4046TIP3    H133697   6.541   0.248   0.990 -1.3955  0.8880  0.8021
 4046TIP3    H233698   6.444   0.133   0.972  0.9687 -1.0998  0.1624
 4047TIP3   OH233699   6.269   5.011   0.700 -0.0034 -0.0999 -0.3766
 4047TIP3    H133700   6.198   5.059   0.742 -0.2440  1.0551 -2.0121
 4047TIP3    H233701   6.333   5.079   0.676  1.1103 -0.9816  0.0226
 4048TIP3   OH233702   2.215   2.803   1.441  0.2446 -0.8489 -0.9274
 4048TIP3    H133703   2.194   2.894   1.421  0.3085 -0.8350 -0.9292
 4048TIP3    H233704   2.136   2.755   1.417  0.1264 -0.7654 -0.7091
 4049TIP3   OH233705   0.332   1.442   7.161 -0.1839 -0.2336 -0.4304
 4049TIP3    H133706   0.316   1.505   7.091 -0.7504 -0.3117 -0.3692
 4049TIP3    H233707   0.289   1.362   7.133 -2.0402  0.2627  0.8419
 4050TIP3   OH233708   4.201   5.246   0.339 -0.0103 -0.3241  0.3404
 4050TIP3    H133709   4.266   5.179   0.361 -0.1395 -0.2015  1.1315
 4050TIP3    H233710   4.147   5.254   0.418 -2.0748 -1.6377 -0.8279
 4051TIP3   OH233711   3.306   1.264   0.753  0.4771  0.4053 -0.0878
 4051TIP3    H133712   3.265   1.192   0.705  1.2883 -1.7642  2.1983
 4051TIP3    H233713   3.399   1.244   0.751  0.8663  2.1223 -0.4328
 4052TIP3   OH233714   5.085   0.087   1.925  0.0188  0.1529  0.2935
 4052TIP3    H133715   5.048   0.017   1.978  1.6335 -0.8156  0.1988
 4052TIP3    H233716   5.059   0.067   1.835  1.4002 -1.0019  0.1151
 4053TIP3   OH233717   3.001   5.949   1.272  0.4274  0.1350  0.2686
 4053TIP3    H133718   2.977   5.879   1.332 -0.7231  0.9002  0.7317
 4053TIP3    H233719   3.050   5.905   1.202 -0.1379 -1.0922  0.6196
 4054TIP3   OH233720   5.327   6.657   0.364  0.8317 -0.3205 -0.5692
 4054TIP3    H133721   5.353   6.706   0.287 -0.3087  1.9587  0.4034
 4054TIP3    H233722   5.384   6.691   0.434 -0.4903  0.2179  0.2775
 4055TIP3   OH233723   2.821   3.622   2.078 -0.1280  0.2258  0.5901
 4055TIP3    H133724   2.823   3.589   2.168 -1.3317 -1.3575  0.0733
 4055TIP3    H233725   2.736   3.666   2.070 -1.3020 -2.0834 -0.5325
 4056TIP3   OH233726   1.961   1.872   1.900 -0.0583  0.0702  0.2681
 4056TIP3    H133727   2.052   1.874   1.869 -0.3063 -0.9210 -0.5686
 4056TIP3    H233728   1.945   1.961   1.930  2.0730 -0.3470  3.0756
 4057TIP3   OH233729   1.841   4.037   3.086 -0.0352  0.3082  0.1660
 4057TIP3    H133730   1.888   3.957   3.064  3.8670  2.5930 -0.8254
 4057TIP3    H233731   1.782   4.051   3.012 -0.4785 -1.3664  0.1684
 4058TIP3   OH233732   2.473   0.065   0.967  0.2577 -0.1844 -0.3663
 4058TIP3    H133733   2.420   0.112   1.031  1.6778  1.1194 -0.0777
 4058TIP3    H233734   2.451   0.105   0.883  1.6287  1.2494 -0.0940
 4059TIP3   OH233735   1.956   4.947   1.664  0.5936 -0.0920  0.5512
 4059TIP3    H133736   1.937   4.986   1.750 -0.5871 -1.1937  0.8174
 4059TIP3    H233737   2.044   4.910   1.673  1.4717  1.8754  0.4987
 4060TIP3   OH233738   2.714   0.205   8.189  0.1161  0.0440  0.1595
 4060TIP3    H133739   2.666   0.227   8.110 -1.2933 -0.8184  0.7422
 4060TIP3    H233740   2.699   0.278   8.249 -0.3747 -0.1692  0.2966
 4061TIP3   OH233741   0.068   3.279   1.411  0.2455 -0.9134  0.2201
 4061TIP3    H133742   0.029   3.294   1.497  0.6119 -2.5506  0.7128
 4061TIP3    H233743   0.050   3.359   1.362  0.4193  0.2466  1.9587
 4062TIP3   OH233744   4.331   2.809   1.149  0.1657  0.5005 -0.9333
 4062TIP3    H133745   4.333   2.805   1.053  0.0763  0.5228 -0.9358
 4062TIP3    H233746   4.241   2.835   1.170  0.8283  3.0777 -0.9527
 4063TIP3   OH233747   5.313   6.370   7.873 -0.0926 -0.1274 -0.0891
 4063TIP3    H133748   5.246   6.409   7.929  0.9556  1.0449  0.4167
 4063TIP3    H233749   5.304   6.276   7.885 -1.2485  0.0420  0.4205
 4064TIP3   OH233750   2.114   2.351   6.865 -0.2939 -0.4379 -0.3879
 4064TIP3    H133751   2.032   2.321   6.825  0.2039 -0.6766 -1.2456
 4064TIP3    H233752   2.093   2.438   6.900 -1.2766 -1.0338  0.5957
 4065TIP3   OH233753   4.119   0.835   1.185 -0.2057  0.1843  0.1696
 4065TIP3    H133754   4.151   0.745   1.196 -0.9108  0.1043  1.9800
 4065TIP3    H233755   4.024   0.825   1.172 -0.2459  0.6452  0.0982
 4066TIP3   OH233756   3.329   3.373   0.047  0.0632  0.3678  0.9879
 4066TIP3    H133757   3.275   3.442   0.009  0.6569  0.1964 -0.2304
 4066TIP3    H233758   3.405   3.367  -0.011 -0.1910 -1.6070  0.7743
 4067TIP3   OH233759   5.182   6.050   8.062  0.2684 -0.0198  0.1040
 4067TIP3    H133760   5.241   6.060   7.987 -0.8278  1.2766 -0.6280
 4067TIP3    H233761   5.146   6.137   8.076  1.4078  0.0847  3.0003
 4068TIP3   OH233762   0.216   6.660   0.811 -0.1558  0.0008  0.1020
 4068TIP3    H133763   0.273   6.594   0.850 -1.0325 -0.8434 -0.0067
 4068TIP3    H233764   0.275   6.716   0.761  0.5824 -0.8520 -0.0024
 4069TIP3   OH233765   3.830   1.233   1.031  0.4858 -0.6863  0.2933
 4069TIP3    H133766   3.790   1.151   1.059  0.0215 -0.0878  1.4389
 4069TIP3    H233767   3.763   1.299   1.047  1.4309  0.1411  0.9437
 4070TIP3   OH233768   2.490   3.725   1.436 -0.1864  0.4883  0.0708
 4070TIP3    H133769   2.558   3.660   1.421  1.4517  1.6751  1.8177
 4070TIP3    H233770   2.531   3.808   1.411 -1.4196  1.1142  0.0522
 4071TIP3   OH233771   6.244   1.578   7.214  0.7028  0.1310  0.6204
 4071TIP3    H133772   6.269   1.519   7.143 -1.1212  1.8694 -1.6118
 4071TIP3    H233773   6.153   1.557   7.233 -0.2950  2.6755 -0.8620
 4072TIP3   OH233774   1.516   2.416   1.154 -0.4478 -1.0686 -0.0422
 4072TIP3    H133775   1.461   2.353   1.107 -1.2578 -0.1257 -0.3983
 4072TIP3    H233776   1.514   2.495   1.099 -0.2179 -0.4271  0.8577
 4073TIP3   OH233777   3.985   2.988   7.567  0.1224  0.2234  0.2152
 4073TIP3    H133778   4.049   2.946   7.625  1.4294  0.0134 -1.3015
 4073TIP3    H233779   4.023   3.073   7.548 -0.7915  0.6931  0.4559
 4074TIP3   OH233780   5.961   5.692   1.448  0.2363 -0.1330  0.1524
 4074TIP3    H133781   6.055   5.687   1.466  0.0093  0.2042  1.5527
 4074TIP3    H233782   5.941   5.786   1.450  0.0767 -0.1049 -1.4320
 4075TIP3   OH233783   4.880   1.726   8.491 -0.0753  0.1750 -1.0298
 4075TIP3    H133784   4.901   1.639   8.458  0.8944  0.1016 -0.2921
 4075TIP3    H233785   4.877   1.781   8.414  2.4374  0.0790 -1.2967
 4076TIP3   OH233786   6.235   2.330   2.545  0.0178 -0.2773 -0.2124
 4076TIP3    H133787   6.156   2.328   2.490  0.0817 -0.5472 -0.2945
 4076TIP3    H233788   6.278   2.246   2.528 -0.5566 -0.8742  1.1222
 4077TIP3   OH233789   4.705   1.370   1.020  0.2820  0.1232  0.0143
 4077TIP3    H133790   4.680   1.289   0.976  0.5475  1.0061 -1.8591
 4077TIP3    H233791   4.658   1.367   1.104 -4.1153  0.4635 -2.1400
 4078TIP3   OH233792   5.422   3.619   0.235  0.0182  0.0393 -0.6186
 4078TIP3    H133793   5.379   3.584   0.156  1.6735 -0.3010 -1.4241
 4078TIP3    H233794   5.436   3.542   0.290 -2.4021  0.4600  0.7237
 4079TIP3   OH233795   5.124   4.339   0.350  0.0518  0.2903 -0.0493
 4079TIP3    H133796   5.031   4.321   0.367  0.8558 -3.6810  1.0026
 4079TIP3    H233797   5.144   4.289   0.271  1.5883  0.1189  0.4257
 4080TIP3   OH233798   2.102   5.170   0.130 -0.4586  0.2059  0.6673
 4080TIP3    H133799   2.129   5.260   0.148  0.1697  0.0049  0.7592
 4080TIP3    H233800   2.179   5.117   0.152 -0.4846 -0.2694 -0.3121
 4081TIP3   OH233801   2.811   6.433   0.054 -0.1990  0.2595  0.3687
 4081TIP3    H133802   2.816   6.401  -0.036  2.4092  0.2211  0.4409
 4081TIP3    H233803   2.797   6.354   0.107  0.8665 -0.0782  0.1637
 4082TIP3   OH233804   2.834   0.396   1.504 -0.3960  0.1526 -0.2768
 4082TIP3    H133805   2.775   0.471   1.506  0.0603  0.5746 -1.6995
 4082TIP3    H233806   2.874   0.399   1.418 -0.8545 -2.1152 -0.6272
 4083TIP3   OH233807   1.921   2.219   0.495  0.2847 -0.3334 -0.2827
 4083TIP3    H133808   1.998   2.203   0.550  0.2155 -0.4383 -0.2143
 4083TIP3    H233809   1.953   2.275   0.424  0.1426  0.6668  0.4279
 4084TIP3   OH233810   0.178   0.760   7.422  0.1453 -0.2471  0.1015
 4084TIP3    H133811   0.226   0.842   7.411 -1.6908  0.8234 -0.3135
 4084TIP3    H233812   0.241   0.701   7.463  2.6220  0.2805 -2.6074
 4085TIP3   OH233813   5.774   1.339   8.643  0.2471  0.4294  0.1992
 4085TIP3    H133814   5.859   1.382   8.649  0.0640  0.7821  0.3210
 4085TIP3    H233815   5.764   1.318   8.550 -0.0065  1.3858 -0.0026
 4086TIP3   OH233816   3.461   3.474   1.522 -0.2048 -0.3671 -0.1408
 4086TIP3    H133817   3.457   3.396   1.465 -0.9397  0.7499 -1.7047
 4086TIP3    H233818   3.406   3.452   1.596  0.6840 -1.8378  0.1261
 4087TIP3   OH233819   6.472   0.592   1.645 -0.0526 -0.3141  0.2706
 4087TIP3    H133820   6.438   0.635   1.724 -0.4658 -0.0706 -0.0335
 4087TIP3    H233821   6.563   0.621   1.640  0.1221 -0.7139  0.9164
 4088TIP3   OH233822   3.640   1.406   8.333  0.2943 -0.5944  1.1337
 4088TIP3    H133823   3.594   1.403   8.417  1.2851 -2.9633  1.6796
 4088TIP3    H233824   3.677   1.494   8.329 -0.1963 -0.2636  2.9458
 4089TIP3   OH233825   1.934   3.466   0.124  0.3338  0.0108 -0.2727
 4089TIP3    H133826   1.999   3.509   0.180 -0.5653 -0.5473  1.2750
 4089TIP3    H233827   1.904   3.535   0.065  0.4377  0.9715  0.7586
 4090TIP3   OH233828   6.254   5.414   0.672  0.0020 -0.2281 -0.3161
 4090TIP3    H133829   6.243   5.457   0.587  0.9123  0.8714  0.0989
 4090TIP3    H233830   6.205   5.332   0.664 -0.8334  0.3557 -1.5247
 4091TIP3   OH233831   1.649   4.491   8.735  0.0753 -0.5619 -0.3261
 4091TIP3    H133832   1.727   4.444   8.764  0.2490 -0.1471 -0.1182
 4091TIP3    H233833   1.664   4.582   8.761 -0.5713 -0.5153 -0.0821
 4092TIP3   OH233834   2.318   3.687   1.665  0.0570 -0.0360  0.6531
 4092TIP3    H133835   2.298   3.595   1.646 -1.3917  0.4631 -0.3974
 4092TIP3    H233836   2.391   3.708   1.607  0.9431 -0.7158  1.4815
 4093TIP3   OH233837   6.085   5.594   2.397 -0.3603  0.0328  0.1682
 4093TIP3    H133838   6.096   5.671   2.342 -1.8788  0.7559  0.8286
 4093TIP3    H233839   6.026   5.537   2.347  1.0052 -0.8995 -0.4648
 4094TIP3   OH233840   6.471   1.704   2.319  0.4280 -0.1963 -0.5421
 4094TIP3    H133841   6.388   1.733   2.357  0.8198  0.8420 -0.4265
 4094TIP3    H233842   6.471   1.739   2.230  1.0232  0.4069 -0.3162
 4095TIP3   OH233843   2.312   4.534   1.804  0.1583  0.3677 -0.0669
 4095TIP3    H133844   2.343   4.623   1.784  1.2717  0.4216  1.7302
 4095TIP3    H233845   2.382   4.495   1.855 -1.1963 -0.8162  0.9614
 4096TIP3   OH233846   2.973   2.148   0.412  0.7138 -0.0482 -0.5807
 4096TIP3    H133847   3.059   2.151   0.370  0.0863 -2.1941 -2.1817
 4096TIP3    H233848   2.916   2.108   0.347 -1.1677 -0.1154  1.0204
 4097TIP3   OH233849   2.627   1.264   1.335 -0.7008  0.1788  0.1748
 4097TIP3    H133850   2.686   1.282   1.408 -0.8399  0.5590  0.1943
 4097TIP3    H233851   2.554   1.325   1.347  0.2590  1.7570 -1.4393
 4098TIP3   OH233852   2.718   6.176   8.397  0.1979 -0.4621 -0.6411
 4098TIP3    H133853   2.708   6.128   8.314  0.7405  2.0877 -2.2936
 4098TIP3    H233854   2.806   6.213   8.393 -0.3105  0.9327  0.3806
 4099TIP3   OH233855   2.368   5.686   2.261 -0.2729  0.6008  0.6894
 4099TIP3    H133856   2.413   5.661   2.180  2.4503  1.7142  1.7283
 4099TIP3    H233857   2.372   5.608   2.316 -1.7045 -0.0059 -0.0069
 4100TIP3   OH233858   2.178   4.254   1.786  0.1518 -0.1189 -0.4595
 4100TIP3    H133859   2.152   4.221   1.872 -0.8086  1.8121  0.0614
 4100TIP3    H233860   2.220   4.338   1.804 -0.0133  0.3002 -1.8525
 4101TIP3   OH233861   3.593   3.059   1.137  0.1960  0.2646  0.3960
 4101TIP3    H133862   3.668   3.113   1.113  1.5088 -1.9130 -0.7903
 4101TIP3    H233863   3.631   2.987   1.187 -1.2021 -0.5288  0.3702
 4102TIP3   OH233864   2.472   0.737   6.970  0.0132  0.0583 -0.1101
 4102TIP3    H133865   2.537   0.778   6.913 -1.1914  1.0097 -0.8336
 4102TIP3    H233866   2.437   0.809   7.023  0.2248 -0.6059  0.9655
 4103TIP3   OH233867   3.593   1.946   8.259 -0.6431 -0.2029  0.5142
 4103TIP3    H133868   3.688   1.948   8.244 -0.6004 -1.3607  0.5383
 4103TIP3    H233869   3.576   2.023   8.313  0.1307  0.5720 -0.3160
 4104TIP3   OH233870   5.819   3.474   1.888 -0.1309  0.1995  0.1283
 4104TIP3    H133871   5.757   3.523   1.834  0.1040  0.3027 -0.0494
 4104TIP3    H233872   5.903   3.484   1.843  0.4403  1.8035  1.4426
 4105TIP3   OH233873   6.552   6.062   7.217 -0.3836 -0.5184 -0.3491
 4105TIP3    H133874   6.522   6.057   7.127 -2.6514 -1.7660  0.3922
 4105TIP3    H233875   6.528   5.977   7.255  1.9565 -0.6469  1.0397
 4106TIP3   OH233876   6.347   2.023   7.427  0.1074  0.2669  1.1028
 4106TIP3    H133877   6.263   1.989   7.395  0.1253 -0.0021  1.3338
 4106TIP3    H233878   6.325   2.066   7.509  0.1394  0.5196  0.9795
 4107TIP3   OH233879   5.778   6.477   1.560  0.4517  0.1247 -0.0566
 4107TIP3    H133880   5.777   6.551   1.622 -1.0403  2.0507 -2.2360
 4107TIP3    H233881   5.835   6.506   1.489 -2.0005  0.2739 -2.0962
 4108TIP3   OH233882   3.529   4.140   0.700  0.2677  0.5388 -0.2662
 4108TIP3    H133883   3.461   4.114   0.638  0.8789  0.7492 -1.0315
 4108TIP3    H233884   3.589   4.065   0.702 -0.0501  0.2899  0.5245
 4109TIP3   OH233885   2.638   5.941   0.970  0.7561 -0.5793 -0.6275
 4109TIP3    H133886   2.559   5.906   0.928 -0.1602 -1.4903  1.6549
 4109TIP3    H233887   2.703   5.872   0.961  1.6233  0.4872 -3.2112
 4110TIP3   OH233888   4.859   4.301   7.342  0.3558 -1.1418  0.4177
 4110TIP3    H133889   4.905   4.383   7.327  0.3781 -0.9442  1.5185
 4110TIP3    H233890   4.769   4.328   7.362 -0.1364 -1.4958 -1.1429
 4111TIP3   OH233891   1.385   2.930   0.453 -0.1376 -0.1934  0.0945
 4111TIP3    H133892   1.290   2.938   0.443 -0.5816 -0.7138  2.9643
 4111TIP3    H233893   1.414   3.017   0.481  0.8992  0.9741 -3.8756
 4112TIP3   OH233894   0.835   5.228   2.983 -0.0731 -0.1949  0.2143
 4112TIP3    H133895   0.900   5.236   2.913  0.5207 -1.0543  0.6428
 4112TIP3    H233896   0.794   5.143   2.968 -1.4864  0.5448 -0.3410
 4113TIP3   OH233897   6.107   6.049   8.663  1.0610  0.4320  0.8384
 4113TIP3    H133898   6.063   6.066   8.580  2.3044 -0.0678  0.0373
 4113TIP3    H233899   6.198   6.029   8.638  1.0669 -1.5018  2.1566
 4114TIP3   OH233900   2.848   0.312   7.829  0.0317 -0.6681 -0.1560
 4114TIP3    H133901   2.810   0.339   7.746 -0.3661 -2.0846 -0.4475
 4114TIP3    H233902   2.933   0.357   7.831 -0.3841  0.1892 -0.8388
 4115TIP3   OH233903   0.679   1.763   2.613  0.4661  0.4798 -0.0790
 4115TIP3    H133904   0.611   1.806   2.665  1.5122  0.8894  0.9806
 4115TIP3    H233905   0.639   1.680   2.586 -0.9747  1.3482 -0.7538
 4116TIP3   OH233906   5.105   0.192   8.330 -0.2209 -0.0259  0.1669
 4116TIP3    H133907   5.127   0.215   8.420  0.0841  1.9809 -0.3761
 4116TIP3    H233908   5.186   0.206   8.281 -1.0033  1.3029 -0.7979
 4117TIP3   OH233909   2.871   5.246   2.256  0.1407 -0.5007 -0.3594
 4117TIP3    H133910   2.913   5.177   2.308 -0.3699 -0.3243  0.3165
 4117TIP3    H233911   2.789   5.207   2.226  0.1574 -0.4048 -0.5309
 4118TIP3   OH233912   2.824   1.240   1.805  0.0761  0.0485  0.1231
 4118TIP3    H133913   2.842   1.322   1.851  2.1023  0.1074 -0.6833
 4118TIP3    H233914   2.849   1.172   1.867  0.2303  0.0906  0.1094
 4119TIP3   OH233915   5.576   1.597   0.544 -0.4830  0.2512  0.2346
 4119TIP3    H133916   5.579   1.647   0.625 -2.1450 -0.2347  0.6294
 4119TIP3    H233917   5.593   1.661   0.475 -0.9709  1.0338  0.8365
 4120TIP3   OH233918   1.824   5.339   1.759 -0.1871 -0.6347  0.4485
 4120TIP3    H133919   1.915   5.323   1.785 -0.0997 -0.0529  0.5269
 4120TIP3    H233920   1.787   5.391   1.831 -0.1329  0.4233 -0.2574
 4121TIP3   OH233921   5.467   2.881   7.612  0.0978 -0.0799 -0.0406
 4121TIP3    H133922   5.470   2.858   7.519 -1.0426 -0.1605 -0.0776
 4121TIP3    H233923   5.538   2.831   7.652  0.0108 -0.7675 -0.7267
 4122TIP3   OH233924   3.773   6.131   1.891 -0.8690 -0.4922  0.1521
 4122TIP3    H133925   3.754   6.157   1.981  0.3335 -1.6519  0.7771
 4122TIP3    H233926   3.744   6.040   1.885 -0.6704 -0.5179 -0.5372
 4123TIP3   OH233927   6.306   3.272   8.338  0.1773 -0.1291 -0.4523
 4123TIP3    H133928   6.294   3.276   8.243  1.7425  1.2283 -0.6344
 4123TIP3    H233929   6.367   3.200   8.351  2.1135  1.3527 -0.7938
 4124TIP3   OH233930   5.881   0.147   7.786 -0.0337 -0.4652 -0.2152
 4124TIP3    H133931   5.809   0.091   7.816  1.3814 -2.0330  0.4151
 4124TIP3    H233932   5.925   0.096   7.718  1.1298 -0.0377  0.1813
 4125TIP3   OH233933   5.914   5.247   0.548 -0.1509 -0.4814  0.0048
 4125TIP3    H133934   5.896   5.163   0.591 -1.5295 -0.2715 -0.1305
 4125TIP3    H233935   5.873   5.239   0.462  2.1535 -0.7140 -1.1650
 4126TIP3   OH233936   0.423   0.109   7.235  0.1340  0.2821  0.2814
 4126TIP3    H133937   0.425   0.166   7.312  0.9910 -0.7372  1.0390
 4126TIP3    H233938   0.507   0.125   7.192 -0.2172  0.6220 -0.2968
 4127TIP3   OH233939   1.575   0.297   2.610 -0.1146  0.0808 -0.4018
 4127TIP3    H133940   1.578   0.210   2.570  1.3139  0.3212 -0.8795
 4127TIP3    H233941   1.483   0.311   2.630 -0.6301 -0.7806 -1.9994
 4128TIP3   OH233942   0.475   3.596   7.610 -0.0902 -0.0531 -0.1575
 4128TIP3    H133943   0.459   3.511   7.567  1.8917 -0.5633  0.0464
 4128TIP3    H233944   0.499   3.574   7.699 -0.2677  0.7938  0.1100
 4129TIP3   OH233945   0.096   5.200   7.787  0.5002  0.3677 -0.3830
 4129TIP3    H133946   0.117   5.183   7.878  0.4556  1.9629 -0.0531
 4129TIP3    H233947   0.001   5.211   7.785  0.5458  0.7710 -0.5333
 4130TIP3   OH233948   6.174   2.423   8.197  0.4994 -0.9910 -0.8699
 4130TIP3    H133949   6.183   2.363   8.123  1.2176 -3.3528  1.0234
 4130TIP3    H233950   6.173   2.367   8.274 -2.1541  1.1999  0.8954
 4131TIP3   OH233951   1.627   4.888   7.053 -0.1457 -0.6770  0.5968
 4131TIP3    H133952   1.575   4.964   7.029  0.4467  0.6071  3.0812
 4131TIP3    H233953   1.713   4.905   7.015  0.4096  0.6802  2.3618
 4132TIP3   OH233954   2.672   0.810   2.147  0.6881  0.2634 -0.0667
 4132TIP3    H133955   2.646   0.786   2.058 -1.9112 -0.9717  0.9072
 4132TIP3    H233956   2.680   0.726   2.193 -1.5719  0.9262  1.6933
 4133TIP3   OH233957   5.993   0.415   2.022  0.2143 -0.7773  0.0324
 4133TIP3    H133958   6.038   0.331   2.026  1.0329 -0.3295  0.6959
 4133TIP3    H233959   6.031   0.459   1.946 -1.5465 -1.7105 -1.4560
 4134TIP3   OH233960   3.555   4.693   0.832 -0.4763  0.5920 -0.2429
 4134TIP3    H133961   3.605   4.611   0.838 -0.0974  0.9049  1.4624
 4134TIP3    H233962   3.621   4.760   0.817 -0.6634  0.7200 -0.4967
 4135TIP3   OH233963   3.184   1.886   1.504 -0.0692 -0.1569 -0.3924
 4135TIP3    H133964   3.156   1.904   1.594  0.6043 -1.7010  0.1692
 4135TIP3    H233965   3.117   1.828   1.469 -0.4080  0.5668 -0.9376
 4136TIP3   OH233966   3.402   2.773   6.499 -0.1133 -0.0798  0.2956
 4136TIP3    H133967   3.454   2.782   6.579 -1.3752 -0.4683  1.1861
 4136TIP3    H233968   3.416   2.682   6.471 -1.4561 -0.6656  1.3953
 4137TIP3   OH233969   0.729   5.531   2.173 -0.1117  0.0940 -0.0120
 4137TIP3    H133970   0.741   5.590   2.247  1.2908 -0.1990  0.0278
 4137TIP3    H233971   0.655   5.567   2.125 -1.4318 -0.0370  1.8321
 4138TIP3   OH233972   2.301   2.316   8.158 -0.1936 -0.3816  0.5365
 4138TIP3    H133973   2.393   2.291   8.148  0.3267  1.3591  0.7039
 4138TIP3    H233974   2.261   2.294   8.073  0.3981 -0.9637  0.3955
 4139TIP3   OH233975   2.133   5.196   0.492 -0.0220 -0.0969  0.1233
 4139TIP3    H133976   2.137   5.111   0.447  0.5868 -0.1242  0.2208
 4139TIP3    H233977   2.198   5.250   0.446 -1.1245  0.6546 -0.6152
 4140TIP3   OH233978   2.807   0.040   8.552 -0.5568  0.1932  0.3534
 4140TIP3    H133979   2.817  -0.026   8.621 -0.8931 -0.5457 -0.2831
 4140TIP3    H233980   2.893   0.082   8.546  0.1289 -1.2368 -0.2677
 4141TIP3   OH233981   1.394   5.862   7.808 -0.0749 -0.1828 -0.0245
 4141TIP3    H133982   1.483   5.892   7.828  0.0261 -0.7934  0.4661
 4141TIP3    H233983   1.357   5.933   7.755  1.4850 -0.9239 -2.2571
 4142TIP3   OH233984   4.851   2.838   2.388  0.2662 -0.1029  0.2244
 4142TIP3    H133985   4.897   2.757   2.368  0.6696  0.1518  0.1172
 4142TIP3    H233986   4.801   2.857   2.308  0.0830 -0.3009  0.2895
 4143TIP3   OH233987   1.307   1.085   2.311  0.1936  0.2738  0.3581
 4143TIP3    H133988   1.302   1.000   2.269  2.4342 -0.8939  2.1985
 4143TIP3    H233989   1.342   1.066   2.398 -1.3412  2.8637  1.6587
 4144TIP3   OH233990   1.011   4.834   2.887 -0.0896  0.0773 -0.6063
 4144TIP3    H133991   1.093   4.802   2.926 -0.8209 -1.2338 -0.0468
 4144TIP3    H233992   1.016   4.806   2.796  0.0610 -0.0802 -0.5526
 4145TIP3   OH233993   3.268   3.868   7.931  1.1267 -0.4895  0.2173
 4145TIP3    H133994   3.214   3.797   7.895 -0.0485 -1.6439  3.8300
 4145TIP3    H233995   3.332   3.823   7.986  3.1059  1.1341 -0.6340
 4146TIP3   OH233996   4.836   0.643   1.718 -0.0376 -0.1183 -0.4492
 4146TIP3    H133997   4.762   0.702   1.733 -0.4227 -0.3909 -1.2212
 4146TIP3    H233998   4.824   0.572   1.781  0.1006  0.3199  0.0772
 4147TIP3   OH233999   2.710   1.359   7.920  0.4097 -0.6431 -0.1676
 4147TIP3    H134000   2.634   1.353   7.862  1.2449 -0.4242 -1.3236
 4147TIP3    H234001   2.785   1.352   7.861  1.3051  1.1004  0.7005
 4148TIP3   OH234002   3.204   2.064   8.690 -0.2064  0.2149  0.0823
 4148TIP3    H134003   3.137   2.117   8.647 -0.5355 -0.1643  0.1298
 4148TIP3    H234004   3.184   2.069   8.783 -1.4861 -1.6590 -0.0439
 4149TIP3   OH234005   4.466   3.441   7.383  0.2616  0.0352  0.2041
 4149TIP3    H134006   4.390   3.415   7.435 -0.2624  1.4958  0.2377
 4149TIP3    H234007   4.439   3.523   7.340  0.6764 -1.0934 -2.3946
 4150TIP3   OH234008   4.357   0.284   2.110 -0.1379 -0.6377  0.3580
 4150TIP3    H134009   4.379   0.217   2.174 -2.6257 -0.6309  1.3095
 4150TIP3    H234010   4.276   0.253   2.069  0.2813  0.3547 -1.3424
 4151TIP3   OH234011   1.774   1.647   8.243 -0.6894 -1.1924  0.3029
 4151TIP3    H134012   1.753   1.617   8.154  0.4154 -2.0673  0.3117
 4151TIP3    H234013   1.736   1.581   8.301  1.6451 -2.6277  0.3265
 4152TIP3   OH234014   3.978   4.375   0.737 -0.5854  0.1530  0.8172
 4152TIP3    H134015   3.909   4.314   0.711  0.9917 -1.0704 -0.6999
 4152TIP3    H234016   4.007   4.343   0.823  0.1996 -1.2610  0.0549
 4153TIP3   OH234017   0.002   5.572   0.630  0.0124 -0.3763 -0.7336
 4153TIP3    H134018   0.028   5.657   0.667  0.2628 -0.2440 -1.1992
 4153TIP3    H234019   0.019   5.581   0.537 -0.3331 -0.8087 -0.8399
 4154TIP3   OH234020   6.176   6.153   0.083 -0.1773  0.1652 -0.1797
 4154TIP3    H134021   6.157   6.063   0.111 -0.0747 -0.2607 -1.4241
 4154TIP3    H234022   6.091   6.187   0.053 -0.0816  0.2439 -0.3611
 4155TIP3   OH234023   2.219   5.678   8.474  0.1415 -0.4419 -0.0632
 4155TIP3    H134024   2.180   5.595   8.502 -0.9232  0.1619  0.2849
 4155TIP3    H234025   2.223   5.671   8.379 -1.0638 -0.4266 -0.1313
 4156TIP3   OH234026   6.331   3.242   0.209  0.1034 -0.1833 -0.6377
 4156TIP3    H134027   6.388   3.316   0.190 -0.3085 -0.4751 -3.4465
 4156TIP3    H234028   6.390   3.174   0.243  0.7805  0.7457  0.1058
 4157TIP3   OH234029   3.199   1.525   1.159 -0.2714  0.0092  0.0744
 4157TIP3    H134030   3.288   1.560   1.149 -0.3915 -0.0370 -1.3172
 4157TIP3    H234031   3.187   1.470   1.082 -0.9608 -1.2142  1.0221
 4158TIP3   OH234032   3.770   2.403   8.007 -0.0189  0.1233  0.1757
 4158TIP3    H134033   3.763   2.327   8.065  0.7954  0.5409  0.8453
 4158TIP3    H234034   3.700   2.391   7.942  0.5433 -1.5719 -0.1747
 4159TIP3   OH234035   0.845   1.840   1.939  0.3716 -0.2419 -0.5778
 4159TIP3    H134036   0.770   1.790   1.907  2.0394 -1.5022 -2.8099
 4159TIP3    H234037   0.869   1.798   2.021 -1.3535  0.2199  0.2034
 4160TIP3   OH234038   1.721   6.167   2.032  0.0700 -0.0209  0.0586
 4160TIP3    H134039   1.663   6.227   1.987  1.8087  0.4979 -1.6218
 4160TIP3    H234040   1.809   6.202   2.017  0.8668 -0.7250  2.5464
 4161TIP3   OH234041   1.854   2.900   0.774  0.4778 -0.3763 -0.5059
 4161TIP3    H134042   1.861   2.813   0.734 -1.9958  0.1671 -2.3893
 4161TIP3    H234043   1.825   2.956   0.702  1.5418  1.9292  0.7894
 4162TIP3   OH234044   5.393   2.433   0.454  0.1190 -0.6506  0.1450
 4162TIP3    H134045   5.299   2.450   0.448 -0.0246 -1.7737 -1.8049
 4162TIP3    H234046   5.401   2.362   0.518 -0.2400  0.0635  1.0008
 4163TIP3   OH234047   4.467   3.659   1.386 -0.0035 -0.1297 -0.3765
 4163TIP3    H134048   4.506   3.593   1.444 -2.0146 -0.4777  0.6371
 4163TIP3    H234049   4.440   3.729   1.444 -0.7479  0.1648 -1.0632
 4164TIP3   OH234050   2.469   1.415   7.820 -0.2094 -0.4322  0.0002
 4164TIP3    H134051   2.449   1.464   7.900 -2.5852 -1.7903  0.3534
 4164TIP3    H234052   2.420   1.333   7.830 -1.2219 -0.3418 -3.1686
 4165TIP3   OH234053   2.066   4.687   7.395  0.0323  0.1770 -0.1876
 4165TIP3    H134054   2.018   4.610   7.425 -1.7118  0.7190 -1.4142
 4165TIP3    H234055   2.136   4.652   7.340  0.2229 -0.5782  0.5132
 4166TIP3   OH234056   2.017   0.084   2.650 -0.3293 -0.4931  0.2145
 4166TIP3    H134057   2.077   0.099   2.577 -1.6190  0.7487 -0.6331
 4166TIP3    H234058   2.051   0.138   2.721 -0.1409 -0.2012 -0.0950
 4167TIP3   OH234059   4.182   0.119   0.083  0.8837 -0.2941 -0.0111
 4167TIP3    H134060   4.162   0.200   0.130 -0.9540  0.7853 -2.4006
 4167TIP3    H234061   4.248   0.145   0.018  0.1842 -0.6147 -0.8817
 4168TIP3   OH234062   3.002   4.660   7.507 -0.2145 -0.1876  0.6012
 4168TIP3    H134063   3.087   4.622   7.489 -1.3662 -2.0977 -1.3326
 4168TIP3    H234064   2.966   4.607   7.578 -1.2820 -2.0223 -1.2045
 4169TIP3   OH234065   3.396   3.446   7.768  0.3456  0.0529 -0.1325
 4169TIP3    H134066   3.449   3.478   7.842  1.0142 -0.0242 -0.5645
 4169TIP3    H234067   3.441   3.480   7.691 -0.9783  1.0694 -0.4851
 4170TIP3   OH234068   6.453   5.145   8.337 -0.0887 -0.1722  0.3137
 4170TIP3    H134069   6.395   5.221   8.344 -0.5020 -0.4081 -0.4206
 4170TIP3    H234070   6.508   5.164   8.262 -1.0011 -1.1069 -0.6415
 4171TIP3   OH234071   0.071   4.991   0.071  0.9237  0.3218  0.0634
 4171TIP3    H134072   0.157   4.953   0.093 -0.1267 -2.5700 -0.3816
 4171TIP3    H234073   0.091   5.062   0.011  3.0381 -0.3906 -0.1720
 4172TIP3   OH234074   2.694   4.725   2.239  0.6780  0.2482  0.2126
 4172TIP3    H134075   2.728   4.636   2.239  1.5052  0.5057  2.0999
 4172TIP3    H234076   2.704   4.755   2.148  1.4914 -1.1648 -0.1958
 4173TIP3   OH234077   3.253   5.283   2.451  0.4153 -0.1357  0.2883
 4173TIP3    H134078   3.198   5.302   2.527  0.2873  1.2834 -0.1362
 4173TIP3    H234079   3.340   5.315   2.475  0.6291 -0.6657  0.2395
 4174TIP3   OH234080   6.759   1.988   8.495 -0.3340 -0.1773 -0.4942
 4174TIP3    H134081   6.772   2.013   8.586  1.0387  0.0178 -0.7287
 4174TIP3    H234082   6.775   2.067   8.445  0.3065 -0.6079 -0.9890
 4175TIP3   OH234083   5.521   0.741   6.952 -0.7549  0.8166 -0.2707
 4175TIP3    H134084   5.602   0.694   6.934 -0.8996  0.9004 -1.1782
 4175TIP3    H234085   5.534   0.827   6.913 -1.6183  0.5335 -1.2108
 4176TIP3   OH234086   5.144   1.008   0.119 -0.1444 -0.3340 -0.0230
 4176TIP3    H134087   5.204   1.051   0.179 -0.2246 -0.2594  0.0039
 4176TIP3    H234088   5.192   1.004   0.036 -0.6918  1.1713 -0.4455
 4177TIP3   OH234089   1.229   5.431   0.064  0.3831  0.7693 -0.3169
 4177TIP3    H134090   1.276   5.509   0.094  1.1773  0.0656  0.3075
 4177TIP3    H234091   1.163   5.465   0.003  1.7147  1.7774 -1.2577
 4178TIP3   OH234092   2.158   5.153   7.897  0.1412  0.0334 -0.1188
 4178TIP3    H134093   2.081   5.160   7.840  0.7160 -0.4689 -0.9877
 4178TIP3    H234094   2.219   5.219   7.862  0.4569 -0.2022 -0.0165
 4179TIP3   OH234095   2.606   0.661   0.252 -0.3708 -0.3414  0.1508
 4179TIP3    H134096   2.530   0.647   0.308  0.4109  0.5204  1.4812
 4179TIP3    H234097   2.617   0.756   0.249 -0.1808 -0.3775 -1.2132
 4180TIP3   OH234098   6.279   0.811   7.667  0.0745 -0.0068  0.1533
 4180TIP3    H134099   6.214   0.868   7.626 -0.5900  0.6373  1.9871
 4180TIP3    H234100   6.247   0.722   7.651 -0.4599  0.2492 -0.2339
 4181TIP3   OH234101   0.765   4.565   7.543 -0.1696  0.3027 -0.2732
 4181TIP3    H134102   0.811   4.633   7.592  0.2500  0.8455 -1.3795
 4181TIP3    H234103   0.817   4.554   7.463 -2.0983  1.1580 -1.7316
 4182TIP3   OH234104   4.287   6.404   0.573 -0.4979  0.4781  0.2818
 4182TIP3    H134105   4.343   6.386   0.497 -2.3144  2.5033 -1.6857
 4182TIP3    H234106   4.214   6.342   0.564 -0.3957  0.2899  0.7416
 4183TIP3   OH234107   4.783   3.099   8.177 -0.5560  0.2897 -0.5271
 4183TIP3    H134108   4.810   3.092   8.086  0.5598  2.5456 -0.4357
 4183TIP3    H234109   4.815   3.185   8.206 -0.8894 -0.3372  1.9868
 4184TIP3   OH234110   3.048   5.604   1.887 -0.1606 -0.3898  0.1150
 4184TIP3    H134111   2.995   5.524   1.888 -1.0047  0.0879  3.2268
 4184TIP3    H234112   3.074   5.617   1.978 -0.6420  3.2449 -0.1130
 4185TIP3   OH234113   3.264   1.019   2.202  0.2084 -0.2569 -0.5018
 4185TIP3    H134114   3.177   1.003   2.239  0.4596 -0.1435  0.1532
 4185TIP3    H234115   3.247   1.049   2.113 -0.3903 -1.0918 -0.6821
 4186TIP3   OH234116   0.549   6.536   8.235 -0.5595 -0.5621 -0.3613
 4186TIP3    H134117   0.501   6.609   8.275  1.8085  0.8329  0.0992
 4186TIP3    H234118   0.595   6.574   8.161  3.1861 -0.7283  1.6427
 4187TIP3   OH234119   3.149   0.710   0.967  0.1619  0.2106 -0.1113
 4187TIP3    H134120   3.078   0.701   0.904  0.2379  1.2822 -0.3647
 4187TIP3    H234121   3.205   0.778   0.931 -0.2730  1.5066  1.5122
 4188TIP3   OH234122   6.736   5.324   1.900 -0.0762  0.1842  0.6991
 4188TIP3    H134123   6.693   5.408   1.885  2.6585  1.9200  1.8758
 4188TIP3    H234124   6.752   5.289   1.812  1.1425  2.2508  0.0449
 4189TIP3   OH234125   6.398   0.362   8.479 -0.0869 -0.3796  0.2925
 4189TIP3    H134126   6.366   0.388   8.393 -0.0822 -0.9989  0.0988
 4189TIP3    H234127   6.325   0.381   8.538 -1.4316 -3.0582 -0.3409
 4190TIP3   OH234128   5.808   2.444   0.906 -0.2040 -0.2893  0.0081
 4190TIP3    H134129   5.759   2.518   0.871  1.4569  0.2019 -1.4427
 4190TIP3    H234130   5.814   2.382   0.832  3.8771  1.0230 -1.0235
 4191TIP3   OH234131   5.217   1.696   2.643 -0.4568 -0.1802 -0.1878
 4191TIP3    H134132   5.193   1.642   2.718 -3.1823  0.5924 -0.4050
 4191TIP3    H234133   5.154   1.767   2.643  0.9894  1.2013 -1.8271
 4192TIP3   OH234134   5.799   0.212   1.187  0.3810 -0.3763 -0.7308
 4192TIP3    H134135   5.848   0.284   1.227 -1.1336  0.4370 -0.2660
 4192TIP3    H234136   5.743   0.179   1.257 -1.1313 -0.0057 -1.7218
 4193TIP3   OH234137   1.619   3.038   1.143 -0.4371  0.2950  0.3063
 4193TIP3    H134138   1.539   3.008   1.185 -0.9235 -0.4528 -1.0888
 4193TIP3    H234139   1.616   3.133   1.150 -0.5578  0.2073  1.8083
 4194TIP3   OH234140   4.712   4.686   2.083 -0.5070 -0.1311  0.4547
 4194TIP3    H134141   4.737   4.763   2.032 -1.6023 -0.1957 -0.2032
 4194TIP3    H234142   4.794   4.636   2.092 -0.0247  0.5336 -0.0880
 4195TIP3   OH234143   2.668   3.171   1.346 -0.1016  0.0590  0.5230
 4195TIP3    H134144   2.682   3.213   1.261 -0.5591 -0.4802  0.1723
 4195TIP3    H234145   2.574   3.155   1.349 -0.0161 -0.3757  0.9192
 4196TIP3   OH234146   5.723   6.266   2.162  0.1780 -0.1499 -0.3547
 4196TIP3    H134147   5.745   6.329   2.230  1.1090 -0.9938  0.1667
 4196TIP3    H234148   5.630   6.247   2.175  0.3872 -0.4364  0.8181
 4197TIP3   OH234149   3.036   5.934   8.397 -0.2951  0.1408 -0.9883
 4197TIP3    H134150   3.129   5.918   8.384 -0.2211  0.0674 -0.4055
 4197TIP3    H234151   3.004   5.961   8.311  0.7162  2.3924 -0.7350
 4198TIP3   OH234152   6.585   5.519   1.810  0.7096  0.1737 -0.7342
 4198TIP3    H134153   6.510   5.577   1.795  0.4064 -0.1219 -0.3607
 4198TIP3    H234154   6.595   5.470   1.728  0.5124  0.2300 -0.7910
 4199TIP3   OH234155   4.172   4.673   7.777 -0.6705 -0.0360  0.1269
 4199TIP3    H134156   4.099   4.680   7.838 -1.6816  0.3087 -1.0673
 4199TIP3    H234157   4.135   4.701   7.693  0.9649  0.5686 -0.4218
 4200TIP3   OH234158   2.504   1.875   1.416 -0.4396  0.1137 -0.3538
 4200TIP3    H134159   2.541   1.921   1.491 -1.4238 -0.9883  0.8498
 4200TIP3    H234160   2.450   1.940   1.371  0.8666  1.0258 -0.6511
 4201TIP3   OH234161   4.972   3.911   1.307 -0.2829  0.0905  0.2682
 4201TIP3    H134162   5.020   3.977   1.257  1.3173 -0.0193  1.5545
 4201TIP3    H234163   5.016   3.829   1.287 -0.2184 -0.0901  1.1066
 4202TIP3   OH234164   2.665   1.307   7.262 -0.2883 -0.3538 -0.1255
 4202TIP3    H134165   2.672   1.399   7.238  2.4078 -0.2992  0.5910
 4202TIP3    H234166   2.641   1.263   7.181 -0.6697  0.8673 -0.6981
 4203TIP3   OH234167   4.011   2.489   8.449  0.3439  0.0122 -0.5195
 4203TIP3    H134168   3.975   2.558   8.394  1.3580  0.0580 -1.1388
 4203TIP3    H234169   3.946   2.419   8.445 -1.0612  1.1718  0.7119
 4204TIP3   OH234170   5.674   0.611   1.364 -0.2453  0.1127  0.0673
 4204TIP3    H134171   5.636   0.668   1.431  0.9900  0.9837  0.0592
 4204TIP3    H234172   5.656   0.522   1.395 -1.8649  0.4787  0.2847
 4205TIP3   OH234173   4.378   6.077   0.708 -0.4666 -0.0624  0.0036
 4205TIP3    H134174   4.409   6.107   0.623 -1.3326  1.0418  0.0501
 4205TIP3    H234175   4.383   5.982   0.704  3.0512 -0.0056  0.0903
 4206TIP3   OH234176   5.902   2.531   7.171 -0.0479 -0.9135  0.7802
 4206TIP3    H134177   5.931   2.545   7.261  1.7661 -0.2809  0.1623
 4206TIP3    H234178   5.974   2.483   7.130 -1.1597 -1.8349 -0.1575
 4207TIP3   OH234179   4.351   1.477   1.115  0.0938 -0.2519 -0.3950
 4207TIP3    H134180   4.387   1.500   1.201 -0.4801  0.3798 -0.3128
 4207TIP3    H234181   4.261   1.509   1.118  0.5319  1.2257 -1.8104
 4208TIP3   OH234182   2.724   4.450   7.587  0.1414 -0.1682 -0.4920
 4208TIP3    H134183   2.775   4.502   7.648 -0.3046 -0.9382  0.5674
 4208TIP3    H234184   2.721   4.502   7.507 -0.1988  1.3651  0.4842
 4209TIP3   OH234185   4.384   3.025   7.973 -0.2361 -0.0607 -0.6060
 4209TIP3    H134186   4.415   3.018   8.063 -1.1592 -0.6918 -0.3156
 4209TIP3    H234187   4.405   2.940   7.934 -0.8383 -0.1970 -0.6455
 4210TIP3   OH234188   0.640   0.890   8.212 -0.4860 -0.4688  0.2744
 4210TIP3    H134189   0.655   0.834   8.135 -0.6061 -0.8541  0.5295
 4210TIP3    H234190   0.570   0.847   8.260  0.3340 -0.8436  1.1827
 4211TIP3   OH234191   5.553   4.826   8.206 -0.0705  0.1504  0.8454
 4211TIP3    H134192   5.580   4.838   8.297  0.1786 -1.8418  1.0673
 4211TIP3    H234193   5.589   4.741   8.180  0.6053  1.0416 -1.4079
 4212TIP3   OH234194   4.575   3.706   7.973  0.2365 -0.3160 -0.1343
 4212TIP3    H134195   4.632   3.637   7.940 -0.1437  0.3351 -2.2472
 4212TIP3    H234196   4.633   3.780   7.989  0.1425  0.0799 -1.5040
 4213TIP3   OH234197   0.686   4.160   0.385 -0.1965 -0.1373  0.0471
 4213TIP3    H134198   0.695   4.109   0.465 -1.4685  0.6234  0.7045
 4213TIP3    H234199   0.647   4.098   0.322 -1.2731 -0.1328  0.6890
 4214TIP3   OH234200   2.911   1.977   2.018 -0.0018  0.0607  0.5241
 4214TIP3    H134201   2.823   1.940   2.013  1.1689 -3.0132  0.1916
 4214TIP3    H234202   2.940   1.985   1.927  0.8876 -1.2889  0.6592
 4215TIP3   OH234203   5.156   3.984   8.734  0.0834 -0.1771  0.0015
 4215TIP3    H134204   5.132   3.959   8.644  0.0953 -0.2177  0.0094
 4215TIP3    H234205   5.251   3.980   8.735  0.0478 -1.1968  0.3091
 4216TIP3   OH234206   2.639   4.131   7.480  0.2655  0.1036 -0.2628
 4216TIP3    H134207   2.673   4.216   7.508  0.4703  0.0310 -0.2867
 4216TIP3    H234208   2.701   4.068   7.518 -0.7137 -0.1248  1.0437
 4217TIP3   OH234209   4.717   4.554   0.957  0.6914  0.0442 -0.1283
 4217TIP3    H134210   4.696   4.583   1.046  1.9017  0.0710  0.1691
 4217TIP3    H234211   4.800   4.507   0.966  0.2191 -0.9906 -1.0672
 4218TIP3   OH234212   4.458   5.202   1.182  0.2426 -0.1581  0.0862
 4218TIP3    H134213   4.409   5.172   1.105  0.1042 -0.4453  0.2852
 4218TIP3    H234214   4.541   5.232   1.147  0.6124 -1.3129 -0.0526
 4219TIP3   OH234215   5.336   1.919   0.105 -0.0606 -0.3531  0.5074
 4219TIP3    H134216   5.273   1.866   0.056 -0.5793  1.2482 -0.6476
 4219TIP3    H234217   5.419   1.904   0.061  0.1622 -1.5310  1.2832
 4220TIP3   OH234218   5.536   3.258   8.816 -0.1258  0.5303  0.4310
 4220TIP3    H134219   5.523   3.288   8.726  2.3139 -0.0492 -0.2039
 4220TIP3    H234220   5.454   3.215   8.839 -1.1343  1.4605 -1.1771
 4221TIP3   OH234221   1.132   2.645   2.789  0.1264 -0.9386 -0.2115
 4221TIP3    H134222   1.072   2.688   2.729 -0.7889  0.7109  1.7910
 4221TIP3    H234223   1.219   2.663   2.754 -0.3833  0.1798 -0.9202
 4222TIP3   OH234224   5.036   5.621   8.664 -0.3890 -0.1426  0.2967
 4222TIP3    H134225   5.109   5.659   8.714 -1.6165  0.9826  1.2926
 4222TIP3    H234226   4.991   5.696   8.626 -1.2652 -0.8085  0.0005
 4223TIP3   OH234227   4.514   2.604   0.974 -0.3562 -0.4825 -0.9861
 4223TIP3    H134228   4.558   2.684   1.003 -0.9715  0.4958 -2.6407
 4223TIP3    H234229   4.514   2.548   1.052  1.8966  0.2897 -0.3357
 4224TIP3   OH234230   1.301   1.996   1.507 -0.0204 -0.1886  0.4020
 4224TIP3    H134231   1.315   1.938   1.432  1.2696  0.5249  0.0592
 4224TIP3    H234232   1.352   2.074   1.487  0.8451 -0.2078  2.2809
 4225TIP3   OH234233   0.685   2.043   7.393  0.3859 -0.2021 -0.0475
 4225TIP3    H134234   0.778   2.024   7.382  0.0454 -1.3609 -1.1312
 4225TIP3    H234235   0.645   1.959   7.413 -0.3954  0.3397  0.7344
 4226TIP3   OH234236   6.069   0.514   0.252 -0.1350  0.5098  0.1295
 4226TIP3    H134237   6.162   0.510   0.230 -0.8055 -1.5327 -2.9456
 4226TIP3    H234238   6.063   0.471   0.338  1.6795  0.0556  0.0678
 4227TIP3   OH234239   0.804   6.652   7.142  0.2035  0.2117  0.0273
 4227TIP3    H134240   0.714   6.635   7.115  0.3202 -0.2093 -0.1001
 4227TIP3    H234241   0.857   6.610   7.075  0.4957  0.3401  0.1787
 4228TIP3   OH234242   6.654   5.950   7.527 -0.6186  0.1122  0.3863
 4228TIP3    H134243   6.612   5.897   7.460 -1.7809  0.4607  0.8152
 4228TIP3    H234244   6.674   5.888   7.597  0.3606 -0.2045 -0.1649
 4229TIP3   OH234245   3.493   3.224   6.904 -0.3251 -0.8523 -0.1238
 4229TIP3    H134246   3.518   3.234   6.812 -0.8456 -0.2893 -0.2103
 4229TIP3    H234247   3.526   3.303   6.946  0.0052 -1.1583  0.1996
 4230TIP3   OH234248   4.052   0.611   1.571 -0.3781  0.0571 -0.5250
 4230TIP3    H134249   3.964   0.646   1.578  0.4935  3.1537 -2.7541
 4230TIP3    H234250   4.096   0.640   1.650 -0.9772 -0.2809 -0.0619
 4231TIP3   OH234251   4.480   4.125   0.074  0.2055  0.1961 -0.6877
 4231TIP3    H134252   4.535   4.163   0.142  0.1966  0.7597 -0.9863
 4231TIP3    H234253   4.391   4.150   0.099 -0.0112 -1.3429  0.1985
 4232TIP3   OH234254   1.514   6.138   0.257 -0.2064 -0.1531  0.9667
 4232TIP3    H134255   1.486   6.218   0.214  0.5239 -1.3052 -1.8893
 4232TIP3    H234256   1.445   6.119   0.320 -1.0208  2.0196  0.7989
 4233TIP3   OH234257   5.870   4.607   7.141  0.2528  0.2935  0.0285
 4233TIP3    H134258   5.813   4.683   7.145  0.9887  0.8396  0.5388
 4233TIP3    H234259   5.838   4.556   7.067 -0.1136  1.2106 -0.4593
 4234TIP3   OH234260   3.002   4.148   8.472 -0.5328 -0.4441  0.6395
 4234TIP3    H134261   2.916   4.177   8.440 -0.8833 -0.8413  1.2050
 4234TIP3    H234262   2.999   4.164   8.566 -0.6624 -2.0643  0.9445
 4235TIP3   OH234263   0.061   6.268   8.248  0.0309 -0.1936  0.2413
 4235TIP3    H134264   0.089   6.247   8.337  0.0979 -1.0038  0.0434
 4235TIP3    H234265   0.031   6.358   8.252 -1.7244 -0.7744  1.5399
 4236TIP3   OH234266   5.514   0.967   8.327 -0.0980 -0.0132  0.3115
 4236TIP3    H134267   5.461   0.900   8.369  0.5586 -0.0679  1.0649
 4236TIP3    H234268   5.558   0.921   8.255  0.6596 -0.5040  1.0688
 4237TIP3   OH234269   1.531   5.718   0.333  0.2304 -0.5383  0.3972
 4237TIP3    H134270   1.502   5.775   0.405  0.9166  0.6943 -0.2631
 4237TIP3    H234271   1.466   5.730   0.265 -0.5962 -1.9599  0.9106
 4238TIP3   OH234272   6.622   3.093   0.846 -0.4239  0.1254  0.4815
 4238TIP3    H134273   6.542   3.042   0.859 -0.6838  0.8421  1.8825
 4238TIP3    H234274   6.636   3.137   0.930  1.8667 -0.5766  0.5433
 4239TIP3   OH234275   3.377   0.450   2.264 -0.4141  0.1480  0.2100
 4239TIP3    H134276   3.360   0.460   2.357 -1.1664  0.9594 -0.0057
 4239TIP3    H234277   3.473   0.445   2.257 -0.3301  0.7039  0.9598
 4240TIP3   OH234278   4.840   1.924   8.314  0.7790  0.1255 -0.0507
 4240TIP3    H134279   4.914   1.983   8.301  0.3226  0.5388 -0.8355
 4240TIP3    H234280   4.796   1.922   8.229 -0.0371 -0.2207  0.3712
 4241TIP3   OH234281   3.590   0.149   0.556 -0.2350 -0.5051  0.4564
 4241TIP3    H134282   3.660   0.175   0.497  0.5003  0.2161  1.6185
 4241TIP3    H234283   3.557   0.067   0.519  1.4478 -1.0465  0.0616
 4242TIP3   OH234284   2.316   3.893   8.022 -0.5922 -0.3478  0.7404
 4242TIP3    H134285   2.279   3.966   8.072 -2.5305 -1.0950  0.4872
 4242TIP3    H234286   2.248   3.826   8.024  0.0184 -1.1142 -1.3375
 4243TIP3   OH234287   3.293   6.038   1.192  0.5057 -0.5839 -0.1774
 4243TIP3    H134288   3.246   6.095   1.253  1.6762  1.3876 -1.0080
 4243TIP3    H234289   3.224   6.002   1.136 -0.1969  1.2391 -0.5816
 4244TIP3   OH234290   4.098   6.622   1.217  0.0725  0.1274 -0.0922
 4244TIP3    H134291   4.078   6.659   1.303 -1.0668 -0.1340 -0.2377
 4244TIP3    H234292   4.062   6.534   1.220  0.2056  0.0473 -0.7706
 4245TIP3   OH234293   5.113   5.811   7.400  0.0547  0.5770 -0.5105
 4245TIP3    H134294   5.137   5.903   7.406  1.2288  0.2333  0.7084
 4245TIP3    H234295   5.128   5.788   7.308  1.2754  1.2263 -0.4950
 4246TIP3   OH234296   1.251   5.902   2.130  0.1056  0.0912  0.3807
 4246TIP3    H134297   1.194   5.913   2.207 -1.1285 -2.3725 -0.0786
 4246TIP3    H234298   1.339   5.917   2.163 -0.4462 -0.3958  2.1945
 4247TIP3   OH234299   4.520   6.080   0.028  0.4442 -0.0205  0.6137
 4247TIP3    H134300   4.489   6.170   0.025  0.7848  0.1423  1.6371
 4247TIP3    H234301   4.471   6.035  -0.041 -1.6129  0.3665  1.7586
 4248TIP3   OH234302   1.004   3.429   8.410 -0.3956 -0.0115 -0.3760
 4248TIP3    H134303   0.940   3.443   8.340  0.7350  0.1779 -1.4022
 4248TIP3    H234304   0.951   3.421   8.490 -1.6861  0.1645 -1.1872
 4249TIP3   OH234305   4.349   4.649   1.841 -0.6353 -0.3275 -0.9030
 4249TIP3    H134306   4.382   4.636   1.930 -0.6885 -1.7615 -1.0649
 4249TIP3    H234307   4.416   4.701   1.797 -0.4693  0.1371 -0.1165
 4250TIP3   OH234308   0.067   6.330   0.417  0.2025 -0.1413  0.4299
 4250TIP3    H134309  -0.007   6.379   0.453 -0.7018 -1.0693 -0.0869
 4250TIP3    H234310   0.144   6.380   0.442 -0.6669  1.4101  0.1115
 4251TIP3   OH234311   1.521   4.280   2.575 -0.2390 -0.0305 -0.0179
 4251TIP3    H134312   1.453   4.341   2.606 -0.5138  0.1829 -1.0237
 4251TIP3    H234313   1.558   4.244   2.656 -1.8598 -0.4949  0.5807
 4252TIP3   OH234314   4.714   4.814   0.584  0.4151 -0.5290  0.6239
 4252TIP3    H134315   4.808   4.811   0.567  0.3140  0.5151 -0.2598
 4252TIP3    H234316   4.681   4.880   0.522 -0.9288 -1.0547  0.7534
 4253TIP3   OH234317   2.913   6.114   6.963 -0.4596  0.3413 -0.7705
 4253TIP3    H134318   2.937   6.026   6.991 -0.1256  0.6857  0.0492
 4253TIP3    H234319   2.981   6.139   6.902  0.8295  0.9666  0.8576
 4254TIP3   OH234320   5.111   2.540   8.720  0.6053  0.2760 -0.1305
 4254TIP3    H134321   5.038   2.598   8.743  1.4004  1.3979 -0.3875
 4254TIP3    H234322   5.126   2.488   8.800 -0.2540  0.2532  0.0304
 4255TIP3   OH234323   5.362   6.169   8.257 -0.5757 -0.2085 -0.2173
 4255TIP3    H134324   5.421   6.112   8.306  0.3651  0.5618 -0.4276
 4255TIP3    H234325   5.334   6.116   8.182 -2.9012 -1.8065  1.6351
 4256TIP3   OH234326   0.443   4.634   0.400 -0.0180 -0.2033 -0.0166
 4256TIP3    H134327   0.505   4.575   0.358 -0.3865 -0.0976 -0.7288
 4256TIP3    H234328   0.357   4.596   0.383 -0.4129  1.3159 -1.9203
 4257TIP3   OH234329   4.989   0.325   7.085 -0.7718  0.5647  0.3174
 4257TIP3    H134330   4.932   0.277   7.025  0.2856  0.3443 -0.5456
 4257TIP3    H234331   4.939   0.331   7.166 -1.6745 -0.3618 -0.1451
 4258TIP3   OH234332   2.015   0.223   7.224  0.0646  0.6218 -0.2389
 4258TIP3    H134333   2.110   0.213   7.215  0.0767 -0.6002  0.9196
 4258TIP3    H234334   1.979   0.156   7.166 -0.0104 -0.8681  1.4585
 4259TIP3   OH234335   0.429   5.139   1.901  0.5393 -0.0208 -0.0241
 4259TIP3    H134336   0.461   5.142   1.991 -0.3860  1.7941  0.3086
 4259TIP3    H234337   0.347   5.090   1.906  0.3576  0.2994  0.1844
 4260TIP3   OH234338   3.304   5.515   8.662  0.4836  0.3141 -0.1265
 4260TIP3    H134339   3.244   5.585   8.634  0.1673 -0.3045 -1.0486
 4260TIP3    H234340   3.374   5.516   8.597  0.5398 -0.1499 -0.0742
 4261TIP3   OH234341   4.548   2.503   0.281 -0.3105 -0.5950  0.0625
 4261TIP3    H134342   4.544   2.409   0.300 -0.6870 -0.6884 -0.4605
 4261TIP3    H234343   4.495   2.514   0.202  0.0038  0.0112 -0.0690
 4262TIP3   OH234344   3.469   0.427   7.827 -0.4389  0.1854  0.3170
 4262TIP3    H134345   3.424   0.509   7.808  0.4457  0.6665  0.2406
 4262TIP3    H234346   3.545   0.427   7.768  0.7807  0.3614  1.8085
 4263TIP3   OH234347   2.766   0.507   8.381  0.4560 -0.4796 -0.0621
 4263TIP3    H134348   2.751   0.601   8.373 -0.8149 -0.5304  1.4143
 4263TIP3    H234349   2.818   0.485   8.303  0.1570  1.2967 -0.8178
 4264TIP3   OH234350   3.462   1.868   7.109 -0.8824 -1.3021  0.4980
 4264TIP3    H134351   3.377   1.826   7.125  0.3075 -2.8078  3.7686
 4264TIP3    H234352   3.500   1.879   7.196  2.1241 -0.2615 -0.8147
 4265TIP3   OH234353   2.223   3.650   8.023 -0.0631  0.4921  0.2391
 4265TIP3    H134354   2.231   3.561   8.058 -2.1361  0.5725  1.0883
 4265TIP3    H234355   2.206   3.638   7.930  1.3253  0.0948  0.0151
 4266TIP3   OH234356   5.458   6.495   0.759  0.0835 -0.2168  0.1337
 4266TIP3    H134357   5.477   6.557   0.689 -0.2075 -2.4617 -2.0567
 4266TIP3    H234358   5.517   6.521   0.831  1.0340  1.6214 -1.2306
 4267TIP3   OH234359   6.495   4.482   8.341  0.5023  0.0960 -0.0745
 4267TIP3    H134360   6.455   4.530   8.413  0.1778 -1.8956  1.1459
 4267TIP3    H234361   6.433   4.491   8.268 -1.8744 -2.1655  1.4898
 4268TIP3   OH234362   2.198   6.467   0.775  0.5344  0.7778  0.2782
 4268TIP3    H134363   2.178   6.547   0.824  1.2285  0.8796  0.3985
 4268TIP3    H234364   2.226   6.404   0.842 -0.6275  0.2143  0.2670
 4269TIP3   OH234365   5.319   4.559   0.271 -0.6845  0.1130 -0.0443
 4269TIP3    H134366   5.362   4.490   0.221  0.4659 -1.2112  2.6253
 4269TIP3    H234367   5.230   4.528   0.284 -0.6291 -0.1125 -0.2008
 4270TIP3   OH234368   1.892   3.510   1.012 -0.4945 -0.1411  0.6458
 4270TIP3    H134369   1.867   3.469   1.095  1.4381 -1.0145  0.8489
 4270TIP3    H234370   1.988   3.511   1.014 -0.2808 -1.9668 -2.3973
 4271TIP3   OH234371   3.559   3.723   1.526 -0.5549 -0.3563  0.4102
 4271TIP3    H134372   3.501   3.755   1.595 -0.3021  0.8259  0.0967
 4271TIP3    H234373   3.524   3.636   1.504 -1.6529 -0.0489  0.8539
 4272TIP3   OH234374   3.563   2.978   1.885  0.4362  0.2966  0.4409
 4272TIP3    H134375   3.500   2.930   1.831  0.1302  1.1761 -0.0174
 4272TIP3    H234376   3.620   2.911   1.922 -0.6989 -0.5228  0.7743
 4273TIP3   OH234377   1.298   3.098   6.883 -0.2937  0.0351 -0.8119
 4273TIP3    H134378   1.275   3.008   6.905 -2.2400  0.6494 -0.0954
 4273TIP3    H234379   1.314   3.140   6.967 -0.5065  0.6272 -1.0577
 4274TIP3   OH234380   4.715   2.627   0.058 -0.5628 -1.0854 -0.3351
 4274TIP3    H134381   4.780   2.576   0.105  0.3764  0.0025 -0.4260
 4274TIP3    H234382   4.632   2.605   0.101  0.0639 -1.3143  0.8054
 4275TIP3   OH234383   1.724   5.108   1.624  0.6533  0.2913 -0.3784
 4275TIP3    H134384   1.768   5.178   1.673  4.4643 -1.3032 -1.1522
 4275TIP3    H234385   1.784   5.033   1.632 -2.4976 -2.4861 -0.8274
 4276TIP3   OH234386   1.796   0.308   7.365  0.4758  0.1719  0.1397
 4276TIP3    H134387   1.863   0.262   7.314  0.5701  0.5533 -0.0915
 4276TIP3    H234388   1.740   0.348   7.298 -1.3313 -1.9650  0.2518
 4277TIP3   OH234389   3.912   1.716   1.493  0.1434 -0.4032 -0.4572
 4277TIP3    H134390   4.001   1.682   1.501  0.7401  1.3796  0.9422
 4277TIP3    H234391   3.920   1.789   1.432 -0.0919  0.5257  0.5893
 4278TIP3   OH234392   1.943   2.377   1.733  0.2921 -0.2645  0.0818
 4278TIP3    H134393   2.025   2.415   1.764  0.0161  0.7095 -0.3537
 4278TIP3    H234394   1.932   2.411   1.644  0.4416 -2.0128 -0.6559
 4279TIP3   OH234395   2.584   2.514   2.536 -0.3937 -0.4079 -0.2872
 4279TIP3    H134396   2.624   2.559   2.610  3.6441 -1.4312 -1.5853
 4279TIP3    H234397   2.573   2.424   2.566 -1.4939 -0.1976 -0.0389
 4280TIP3   OH234398   4.327   6.757   7.580 -0.9436  0.7189 -0.1461
 4280TIP3    H134399   4.242   6.738   7.619 -0.1229 -0.3582  1.2079
 4280TIP3    H234400   4.371   6.672   7.576 -0.2623  1.1085 -1.6871
 4281TIP3   OH234401   5.143   1.212   8.240 -0.4152 -0.3082 -0.2387
 4281TIP3    H134402   5.134   1.128   8.285 -0.2356 -1.1488 -1.7113
 4281TIP3    H234403   5.237   1.218   8.219 -0.3176  0.5621  0.3825
 4282TIP3   OH234404   1.825   1.421   1.624  0.6080  0.4680  0.7013
 4282TIP3    H134405   1.774   1.407   1.704  1.9098  0.7519  1.6086
 4282TIP3    H234406   1.866   1.507   1.636  1.3775  0.2030  0.0563
 4283TIP3   OH234407   3.749   1.091   7.971 -0.2206  0.1795 -0.4581
 4283TIP3    H134408   3.758   1.174   7.924  1.9977  1.4801  1.9905
 4283TIP3    H234409   3.685   1.109   8.040 -0.7254 -0.5984 -0.7037
 4284TIP3   OH234410   0.249   5.269   2.164 -0.5296  0.2205  0.0133
 4284TIP3    H134411   0.219   5.358   2.150 -0.5004  0.0765 -1.0742
 4284TIP3    H234412   0.344   5.275   2.165 -0.5279  0.4984  2.1978
 4285TIP3   OH234413   2.180   6.608   8.728  0.4989  0.6842  0.2070
 4285TIP3    H134414   2.187   6.512   8.728  1.3498  0.7185  1.9724
 4285TIP3    H234415   2.173   6.632   8.820  2.0688  2.4346 -0.0601
 4286TIP3   OH234416   3.929   0.838   0.452 -0.8114 -0.8306  0.1363
 4286TIP3    H134417   3.930   0.826   0.357 -2.4505 -0.8262  0.0809
 4286TIP3    H234418   4.021   0.849   0.477 -0.4717  1.0183 -1.6870
 4287TIP3   OH234419   5.526   2.246   7.515 -0.1250  0.5091 -0.7167
 4287TIP3    H134420   5.596   2.300   7.479 -0.2479  2.3082  1.4632
 4287TIP3    H234421   5.570   2.187   7.576 -0.1435 -1.1090 -2.1797
 4288TIP3   OH234422   3.821   2.949   8.049 -0.0652  0.0925  0.2834
 4288TIP3    H134423   3.767   2.879   8.013  1.0963 -0.4783 -0.3664
 4288TIP3    H234424   3.800   3.025   7.994 -0.7648  0.0728  0.5139
 4289TIP3   OH234425   0.786   6.695   8.146  0.4719 -0.1858 -0.1818
 4289TIP3    H134426   0.824   6.715   8.060  0.5976 -0.9685 -0.3198
 4289TIP3    H234427   0.862   6.686   8.204  0.3614  0.8963  0.1423
 4290TIP3   OH234428   5.767   1.088   1.445 -0.3254 -0.0118 -0.3306
 4290TIP3    H134429   5.817   1.158   1.401  0.1657 -0.6580 -0.8262
 4290TIP3    H234430   5.789   1.098   1.537  1.6222 -0.9354 -0.6384
 4291TIP3   OH234431   3.710   3.950   1.344 -0.0792  0.0739  0.1899
 4291TIP3    H134432   3.680   3.997   1.266 -0.5589  0.5748  0.6704
 4291TIP3    H234433   3.642   3.884   1.360 -1.0000  1.2558  1.3206
 4292TIP3   OH234434   1.073   5.356   0.418  0.3775  0.0424  0.0510
 4292TIP3    H134435   1.165   5.364   0.395  0.2472  0.2842 -0.4020
 4292TIP3    H234436   1.064   5.408   0.497  0.6389 -0.0132  0.1185
 4293TIP3   OH234437   4.978   0.841   1.583  0.2527 -0.3179  0.5052
 4293TIP3    H134438   5.006   0.913   1.640 -0.2903 -0.7397  1.3288
 4293TIP3    H234439   4.919   0.789   1.638 -0.3431 -0.7022 -0.4738
 4294TIP3   OH234440   5.140   1.437   7.609  0.3405  0.3721  0.1340
 4294TIP3    H134441   5.232   1.421   7.590  0.3107  1.8563 -1.6202
 4294TIP3    H234442   5.093   1.401   7.533 -0.7564 -1.9967  1.8095
 4295TIP3   OH234443   1.700   1.915   8.308  0.4116  0.2601 -0.3782
 4295TIP3    H134444   1.609   1.899   8.281  0.4339  0.7254 -0.7305
 4295TIP3    H234445   1.745   1.833   8.290  0.7829  0.9994 -3.2357
 4296TIP3   OH234446   6.256   3.183   1.992  0.3442  0.1143 -0.2560
 4296TIP3    H134447   6.164   3.155   1.996  0.2792  0.2933 -0.5207
 4296TIP3    H234448   6.300   3.116   1.941 -0.0360  1.0820 -1.9126
 4297TIP3   OH234449   2.930   0.707   8.703  0.1920 -0.2524  0.2620
 4297TIP3    H134450   2.904   0.706   8.796 -1.9596 -2.4794 -0.2395
 4297TIP3    H234451   3.000   0.642   8.698  0.0691 -0.3883  0.2865
 4298TIP3   OH234452   5.566   3.732   6.883  0.0705  0.4867 -0.1100
 4298TIP3    H134453   5.634   3.773   6.831 -0.0463  1.9750  0.8460
 4298TIP3    H234454   5.484   3.763   6.845 -0.1041 -0.8792 -0.9255
 4299TIP3   OH234455   0.049   0.529   1.018  0.0555  0.8062 -0.4306
 4299TIP3    H134456  -0.009   0.601   1.042 -0.8491  0.2156 -0.7626
 4299TIP3    H234457   0.136   0.555   1.050 -0.7165  0.8790  1.7925
 4300TIP3   OH234458   0.574   3.331   7.808 -0.0786 -0.3888  0.1086
 4300TIP3    H134459   0.544   3.281   7.732 -1.6811 -2.1373  1.7794
 4300TIP3    H234460   0.526   3.294   7.882  2.4977  0.2096  2.2362
 4301TIP3   OH234461   5.617   0.985   1.155 -0.1803  0.1049 -0.7160
 4301TIP3    H134462   5.579   0.924   1.219 -3.3191  0.7562 -1.7822
 4301TIP3    H234463   5.588   1.071   1.184 -0.2380  0.5712 -2.0853
 4302TIP3   OH234464   0.555   5.261   0.079  0.0796  0.0702  0.4804
 4302TIP3    H134465   0.537   5.345   0.037 -0.6603 -0.1184  0.4075
 4302TIP3    H234466   0.511   5.266   0.164 -2.3010 -1.2120 -0.5634
 4303TIP3   OH234467   4.314   2.442   0.764  0.5932 -0.2608  0.5962
 4303TIP3    H134468   4.385   2.451   0.828  1.1414 -0.8442  0.0899
 4303TIP3    H234469   4.239   2.411   0.814  0.9140 -0.3664  1.0134
 4304TIP3   OH234470   6.141   1.363   6.989  0.1304 -0.0547  0.4164
 4304TIP3    H134471   6.235   1.376   6.977  0.0583 -0.5944 -0.8508
 4304TIP3    H234472   6.100   1.436   6.942 -0.1377 -1.7486 -2.1537
 4305TIP3   OH234473   2.030   4.240   2.065  0.0215  0.7094 -0.5599
 4305TIP3    H134474   2.029   4.276   2.153 -1.5337  0.4186 -0.4331
 4305TIP3    H234475   2.048   4.315   2.008 -0.6008  1.1959 -0.1141
 4306TIP3   OH234476   2.674   2.698   2.116  0.0840  0.2768  0.2432
 4306TIP3    H134477   2.753   2.723   2.068 -0.8529  2.4574 -0.3060
 4306TIP3    H234478   2.611   2.675   2.048  0.3881 -2.1808  0.6994
 4307TIP3   OH234479   6.153   0.051   1.644 -0.5039 -0.3972 -0.3557
 4307TIP3    H134480   6.084   0.031   1.707 -1.5636 -0.6654 -1.5650
 4307TIP3    H234481   6.142  -0.013   1.575 -0.1124  0.6028 -1.3791
 4308TIP3   OH234482   2.771   1.100   7.394 -0.2333  0.1803  0.2004
 4308TIP3    H134483   2.746   1.020   7.349 -0.9152  0.4201  0.1325
 4308TIP3    H234484   2.743   1.170   7.335  1.2779  0.4653 -0.2097
 4309TIP3   OH234485   0.389   2.632   8.766 -0.1630 -0.0953 -0.0327
 4309TIP3    H134486   0.333   2.555   8.764 -0.0494 -0.2029  0.8245
 4309TIP3    H234487   0.434   2.628   8.850  1.9661 -0.6131 -1.1205
 4310TIP3   OH234488   2.885   5.387   1.957  0.3016 -0.2903 -0.0991
 4310TIP3    H134489   2.801   5.356   1.924 -1.1024  1.6197  1.4059
 4310TIP3    H234490   2.893   5.347   2.044 -1.0842  2.4938  1.4648
 4311TIP3   OH234491   6.244   1.732   7.690  0.6180 -0.1828  0.1147
 4311TIP3    H134492   6.151   1.747   7.706  0.5621 -0.2157 -0.1727
 4311TIP3    H234493   6.284   1.732   7.777  0.4942  0.7923  0.1846
 4312TIP3   OH234494   4.473   6.777   1.999 -0.3857  0.4915  0.1617
 4312TIP3    H134495   4.502   6.696   1.957 -0.7291  0.9616 -0.9992
 4312TIP3    H234496   4.547   6.837   1.987  0.8904 -0.2759  3.0803
 4313TIP3   OH234497   1.852   0.240   0.574 -0.6181 -0.5815 -0.3683
 4313TIP3    H134498   1.880   0.248   0.665  0.2180 -0.9988 -0.5838
 4313TIP3    H234499   1.882   0.321   0.533 -0.8691 -0.4588 -0.3185
 4314TIP3   OH234500   2.723   4.715   1.099  0.6172 -0.4481  0.0616
 4314TIP3    H134501   2.814   4.722   1.128  0.3630  0.3755  0.6983
 4314TIP3    H234502   2.698   4.805   1.076  0.4388 -0.8925 -1.6173
 4315TIP3   OH234503   3.146   6.700   8.786 -0.2940 -0.1133 -0.1619
 4315TIP3    H134504   3.173   6.764   8.720 -0.1470 -0.4295 -0.4149
 4315TIP3    H234505   3.171   6.615   8.748 -0.1503 -0.2939  0.3292
 4316TIP3   OH234506   4.557   1.424   0.710  0.2636  0.1093  0.2898
 4316TIP3    H134507   4.556   1.512   0.746 -0.6896  1.6104 -3.0024
 4316TIP3    H234508   4.648   1.395   0.718  0.8385  1.8664  0.4007
 4317TIP3   OH234509   0.054   1.460   8.538 -0.2382 -0.0859  0.2949
 4317TIP3    H134510   0.045   1.406   8.460  0.1818 -0.8676  0.7818
 4317TIP3    H234511   0.023   1.547   8.511  0.0812 -0.3015 -0.7851
 4318TIP3   OH234512   1.656   1.749   7.966  0.1442  0.1156 -0.0355
 4318TIP3    H134513   1.643   1.655   7.951  2.9993 -0.2098 -0.9932
 4318TIP3    H234514   1.627   1.790   7.884 -1.9286  0.2472  0.6895
 4319TIP3   OH234515   6.296   4.206   0.312 -0.0890 -0.1743  0.4655
 4319TIP3    H134516   6.313   4.145   0.383  0.0295 -0.2476  0.3744
 4319TIP3    H234517   6.371   4.197   0.253  0.6849  1.1416  1.1923
 4320TIP3   OH234518   2.171   5.434   0.051 -0.2852  0.0233  0.0144
 4320TIP3    H134519   2.119   5.514   0.054 -0.9820 -0.4474  0.8524
 4320TIP3    H234520   2.245   5.456  -0.006 -1.3855  0.7072 -1.2175
 4321TIP3   OH234521   1.144   5.245   1.099  0.3245  0.3663  0.0250
 4321TIP3    H134522   1.156   5.208   1.187  0.3199 -2.2423 -0.9611
 4321TIP3    H234523   1.049   5.258   1.092  0.4388  1.7766  0.8032
 4322TIP3   OH234524   2.049   6.408   7.677  0.2327  0.0370  0.1665
 4322TIP3    H134525   2.036   6.315   7.695  0.5419  0.1962  1.3037
 4322TIP3    H234526   1.978   6.431   7.617 -0.9903 -0.5357  1.3205
 4323TIP3   OH234527   0.356   3.548   8.287  0.0224  0.3796  0.2276
 4323TIP3    H134528   0.294   3.586   8.225 -1.1542  1.1660  1.8244
 4323TIP3    H234529   0.431   3.608   8.285 -0.3189  0.8105  0.1192
 4324TIP3   OH234530   3.007   0.576   0.658 -0.0253 -0.0152  0.6333
 4324TIP3    H134531   2.935   0.602   0.600  2.1248  0.6593 -1.9542
 4324TIP3    H234532   2.964   0.533   0.732 -3.1064  1.2480 -0.2671
 4325TIP3   OH234533   6.666   3.276   7.507 -0.2217  0.2166 -0.0673
 4325TIP3    H134534   6.748   3.325   7.516 -0.7154  0.9271  0.7754
 4325TIP3    H234535   6.665   3.217   7.582  0.4393 -1.2410 -1.1571
 4326TIP3   OH234536   1.375   2.042   1.817  0.3981 -0.4466 -0.3584
 4326TIP3    H134537   1.321   2.029   1.739  0.9149 -0.5468 -0.6996
 4326TIP3    H234538   1.369   1.959   1.864  1.0029 -0.7875 -0.8660
 4327TIP3   OH234539   4.769   1.272   7.227 -0.0625 -0.0828 -0.2218
 4327TIP3    H134540   4.688   1.237   7.264  0.0004 -0.4089 -0.3884
 4327TIP3    H234541   4.741   1.321   7.149 -0.1792  0.4767  0.1693
 4328TIP3   OH234542   5.173   6.096   2.432  0.1100 -0.0494  0.7654
 4328TIP3    H134543   5.194   6.064   2.519  0.8726 -0.0806  0.5723
 4328TIP3    H234544   5.108   6.165   2.446 -0.2850 -0.5230  1.3020
 4329TIP3   OH234545   5.074   4.222   1.210 -0.0686  0.1975  0.2361
 4329TIP3    H134546   5.152   4.257   1.255  1.3359 -0.2900 -1.6993
 4329TIP3    H234547   5.109   4.160   1.147 -2.0779 -0.1695 -0.5802
 4330TIP3   OH234548   1.966   5.185   7.518  0.6445  0.1590 -0.2761
 4330TIP3    H134549   1.931   5.097   7.500 -0.5169  0.9356 -2.0851
 4330TIP3    H234550   1.950   5.198   7.611 -0.8770 -0.8464 -0.3493
 4331TIP3   OH234551   3.490   2.676   1.396  0.4591 -0.3872  0.5355
 4331TIP3    H134552   3.533   2.726   1.327  0.7761 -1.2089  0.1254
 4331TIP3    H234553   3.422   2.735   1.430  0.6086  0.1941 -0.1562
 4332TIP3   OH234554   5.571   0.804   8.117  0.0145  0.3425  0.2587
 4332TIP3    H134555   5.658   0.768   8.134  0.1235  0.6257  0.3067
 4332TIP3    H234556   5.579   0.851   8.035 -0.3559 -0.4871 -0.2646
 4333TIP3   OH234557   2.284   4.909   8.081  0.2222  0.1967 -0.0232
 4333TIP3    H134558   2.378   4.889   8.077 -0.0354 -1.0888 -0.1703
 4333TIP3    H234559   2.272   4.983   8.022  0.9014 -0.6768 -1.3056
 4334TIP3   OH234560   0.292   4.040   7.627  0.1451 -0.5180  0.3945
 4334TIP3    H134561   0.250   3.959   7.655  0.0882 -0.1102  1.5405
 4334TIP3    H234562   0.380   4.013   7.599  0.1875 -0.9527  0.9276
 4335TIP3   OH234563   0.736   2.093   8.571 -0.5453  0.2435  0.2061
 4335TIP3    H134564   0.766   2.011   8.532 -1.8134 -1.2138  2.1569
 4335TIP3    H234565   0.717   2.149   8.496 -0.8502 -1.6783 -1.2344
 4336TIP3   OH234566   5.875   0.160   8.694 -0.4319 -0.3019  0.3739
 4336TIP3    H134567   5.799   0.101   8.701 -0.4793 -0.7088 -2.3781
 4336TIP3    H234568   5.948   0.108   8.726 -1.1380 -0.1827  2.3159
 4337TIP3   OH234569   3.640   0.910   1.426  0.3682 -0.0092  0.5974
 4337TIP3    H134570   3.585   0.836   1.402  0.2575  0.1651  0.3062
 4337TIP3    H234571   3.579   0.978   1.452  0.4871 -0.1928  1.3805
 4338TIP3   OH234572   6.124   1.092   8.124 -0.0098  0.0413  0.4281
 4338TIP3    H134573   6.107   1.136   8.040 -0.0688 -0.0231  0.4061
 4338TIP3    H234574   6.187   1.022   8.102  3.6957  2.8266  1.1560
 4339TIP3   OH234575   4.281   2.407   8.437  0.0512 -0.0243 -0.1503
 4339TIP3    H134576   4.189   2.425   8.421  0.2175  1.3473  0.3519
 4339TIP3    H234577   4.320   2.492   8.455  1.5729 -0.4779 -1.0763
 4340TIP3   OH234578   3.120   6.398   1.608 -0.6814  0.6469  0.3978
 4340TIP3    H134579   3.118   6.436   1.521  0.7726  1.4848  0.7069
 4340TIP3    H234580   3.033   6.417   1.644 -1.3375  0.1894 -0.8847
 4341TIP3   OH234581   4.628   6.464   0.336  0.1389 -0.3526  0.8487
 4341TIP3    H134582   4.636   6.509   0.252  0.4119 -0.2595  0.9235
 4341TIP3    H234583   4.639   6.534   0.401 -0.4280 -0.3635  0.9620
 4342TIP3   OH234584   5.901   2.685   2.254 -0.0501 -0.1433  0.3164
 4342TIP3    H134585   5.890   2.691   2.349  0.6854 -0.6341  0.4466
 4342TIP3    H234586   5.966   2.752   2.233 -1.3020  0.9865 -0.0685
 4343TIP3   OH234587   3.345   1.647   1.403 -0.4459  0.1699 -0.1495
 4343TIP3    H134588   3.305   1.714   1.347 -0.1321 -0.1512 -0.7730
 4343TIP3    H234589   3.396   1.697   1.467 -2.2186  0.5927  0.9737
 4344TIP3   OH234590   2.133   0.670   0.309  0.2555 -0.8834  0.4337
 4344TIP3    H134591   2.213   0.649   0.357  0.9143 -1.0061 -0.6876
 4344TIP3    H234592   2.163   0.694   0.221 -0.7648  1.2350  0.6207
 4345TIP3   OH234593   1.342   4.056   8.863  0.1498  0.0314 -0.2788
 4345TIP3    H134594   1.256   4.030   8.830  0.0202 -0.6019  0.5116
 4345TIP3    H234595   1.376   3.977   8.906 -0.2265  1.0751  2.1422
 4346TIP3   OH234596   6.436   3.999   1.281  0.1887  0.3922 -1.0671
 4346TIP3    H134597   6.455   3.914   1.240 -0.4938 -0.1752 -0.2550
 4346TIP3    H234598   6.520   4.045   1.281  0.8907 -0.8163 -0.3260
 4347TIP3   OH234599   2.134   3.191   2.194  0.3495  0.3093  0.1458
 4347TIP3    H134600   2.110   3.146   2.274  1.4318  0.3337  0.4919
 4347TIP3    H234601   2.165   3.122   2.135  0.8113  0.4469  0.2246
 4348TIP3   OH234602   1.973   3.634   0.642 -0.0124  0.0884  1.0204
 4348TIP3    H134603   1.913   3.652   0.571 -3.2464 -0.2877  3.4403
 4348TIP3    H234604   2.016   3.718   0.660 -1.9609  1.1293  1.0196
 4349TIP3   OH234605   4.482   1.991   1.058 -0.0166  0.0972  0.4183
 4349TIP3    H134606   4.563   1.989   1.007  0.3332  0.7121  0.9382
 4349TIP3    H234607   4.511   1.991   1.149 -0.6233 -0.5360  0.6196
 4350TIP3   OH234608   5.581   0.355   1.427  0.1537  0.6063 -0.2431
 4350TIP3    H134609   5.515   0.383   1.363 -1.6665 -2.3687  0.1055
 4350TIP3    H234610   5.580   0.259   1.422  0.3382  0.2166  3.7675
 4351TIP3   OH234611   2.891   0.077   7.974 -0.1805  0.0026  0.1486
 4351TIP3    H134612   2.834   0.109   8.043 -2.0153 -1.5038 -0.5829
 4351TIP3    H234613   2.870   0.131   7.898  0.2478  0.2324  0.1920
 4352TIP3   OH234614   1.446   5.029   2.865 -0.0246  0.2190 -0.1667
 4352TIP3    H134615   1.511   5.009   2.933 -1.2672  1.1447  1.3614
 4352TIP3    H234616   1.449   5.124   2.856 -0.9278  0.2410 -0.3306
 4353TIP3   OH234617   3.041   4.333   7.459 -0.1804  0.8309 -0.3483
 4353TIP3    H134618   2.966   4.306   7.405 -0.5783 -0.0439  0.6240
 4353TIP3    H234619   3.065   4.419   7.424 -1.8540  1.2888 -0.4603
 4354TIP3   OH234620   5.341   0.215   8.126 -0.2669  0.2630 -0.2288
 4354TIP3    H134621   5.397   0.278   8.081  0.6824 -0.1120  0.3934
 4354TIP3    H234622   5.383   0.130   8.109  0.1695  0.1172  1.3919
 4355TIP3   OH234623   5.514   0.689   8.790 -0.2262  0.0859 -0.1563
 4355TIP3    H134624   5.606   0.663   8.793 -0.0813  0.5697 -0.3146
 4355TIP3    H234625   5.474   0.645   8.865 -0.0043 -0.6445 -0.4551
 4356TIP3   OH234626   0.539   5.907   2.270 -0.1731 -0.0451 -0.2502
 4356TIP3    H134627   0.467   5.914   2.332  0.3668 -1.1027  0.5177
 4356TIP3    H234628   0.589   5.831   2.299  0.4260 -0.2204 -1.6360
 4357TIP3   OH234629   4.338   5.923   2.826 -0.1304  0.4210 -0.3059
 4357TIP3    H134630   4.402   5.857   2.851 -0.1198  0.7066  0.4200
 4357TIP3    H234631   4.355   5.938   2.733 -0.2359 -0.7085 -0.5246
 4358TIP3   OH234632   3.194   3.959   1.639  0.1177 -0.1630 -0.7501
 4358TIP3    H134633   3.269   3.999   1.595  0.1818 -1.4651 -1.8967
 4358TIP3    H234634   3.172   3.883   1.585 -0.7713 -0.9560  0.6589
 4359TIP3   OH234635   3.403   3.717   1.777  0.1065 -0.2777  0.8253
 4359TIP3    H134636   3.358   3.782   1.831 -2.0528 -0.3356 -0.7843
 4359TIP3    H234637   3.340   3.647   1.765  1.8671 -2.0228  1.2635
 4360TIP3   OH234638   0.562   1.564   1.378 -0.0615  0.3105  0.1646
 4360TIP3    H134639   0.655   1.583   1.387  0.0262  0.9057 -1.6465
 4360TIP3    H234640   0.526   1.640   1.332 -1.3285 -0.1609  0.3333
 4361TIP3   OH234641   2.692   3.359   8.430 -0.0902 -0.1133  0.5103
 4361TIP3    H134642   2.619   3.415   8.459 -0.1570  0.8793 -1.3967
 4361TIP3    H234643   2.767   3.391   8.479 -0.1262  1.7585 -0.5311
 4362TIP3   OH234644   0.967   0.527   1.853  0.1127  0.0172 -0.3725
 4362TIP3    H134645   1.011   0.452   1.893 -0.1714 -1.2143 -2.2210
 4362TIP3    H234646   1.035   0.569   1.800 -0.1136  0.0897 -0.6078
 4363TIP3   OH234647   0.843   3.539   1.078  0.3017  0.3120 -0.3823
 4363TIP3    H134648   0.805   3.478   1.014  0.6377 -0.4733  0.1427
 4363TIP3    H234649   0.926   3.565   1.039  0.4521 -0.0746 -0.3304
 4364TIP3   OH234650   0.648   4.402   8.070  0.3692  0.0192  0.0795
 4364TIP3    H134651   0.619   4.458   7.997  2.4303  0.6709 -0.3284
 4364TIP3    H234652   0.572   4.349   8.091 -0.3901 -0.0373 -2.4202
 4365TIP3   OH234653   3.320   5.522   6.953  0.0440 -0.2499  0.5904
 4365TIP3    H134654   3.384   5.475   7.007  0.2623 -0.3115  0.2766
 4365TIP3    H234655   3.372   5.564   6.885 -0.4038 -1.5603 -0.5891
 4366TIP3   OH234656   4.149   5.175   0.595  0.9927  0.6354 -0.5143
 4366TIP3    H134657   4.186   5.251   0.640  1.4230  0.2085 -0.1348
 4366TIP3    H234658   4.165   5.102   0.655 -0.9064  0.5026 -0.0960
 4367TIP3   OH234659   3.607   1.410   0.100 -0.0164 -0.1964 -0.0929
 4367TIP3    H134660   3.575   1.465   0.171  0.6051 -0.3584  0.3150
 4367TIP3    H234661   3.527   1.383   0.053 -0.3339  0.9112 -0.2093
 4368TIP3   OH234662   2.819   4.192   2.736  0.1980 -0.2661 -0.0525
 4368TIP3    H134663   2.766   4.113   2.731 -0.1319 -0.2061  1.8399
 4368TIP3    H234664   2.763   4.257   2.778  0.4399  1.0367 -1.6307
 4369TIP3   OH234665   4.687   1.695   1.786  0.0117  0.6226  0.1099
 4369TIP3    H134666   4.763   1.673   1.733  0.2951  1.9099 -0.0518
 4369TIP3    H234667   4.615   1.701   1.722 -0.0834  0.1041  0.1658
 4370TIP3   OH234668   3.047   1.024   0.887 -0.4916  0.1233  0.0094
 4370TIP3    H134669   2.981   0.956   0.898 -1.3165  0.9105  0.0312
 4370TIP3    H234670   2.997   1.104   0.871  0.4667  0.3692 -2.2076
 4371TIP3   OH234671   0.654   0.473   8.781  0.0153 -0.0473  0.0451
 4371TIP3    H134672   0.577   0.466   8.725  0.3467 -1.5303 -0.2575
 4371TIP3    H234673   0.728   0.469   8.720  0.3982 -2.2171  0.5593
 4372TIP3   OH234674   5.431   2.524   8.535 -0.3353  0.1618  0.3060
 4372TIP3    H134675   5.525   2.512   8.520  0.7173  4.6430  1.7863
 4372TIP3    H234676   5.419   2.498   8.627 -0.9946 -1.8174 -0.2816
 4373TIP3   OH234677   4.861   5.720   7.713 -0.0706 -0.3073  0.1126
 4373TIP3    H134678   4.794   5.660   7.746 -0.5706 -0.8872 -1.8509
 4373TIP3    H234679   4.812   5.794   7.676  0.1504 -1.6664 -3.1964
 4374TIP3   OH234680   4.566   2.449   1.544  0.4994  0.3621  0.1714
 4374TIP3    H134681   4.533   2.532   1.579  1.4009  0.6437  0.3744
 4374TIP3    H234682   4.494   2.416   1.491  0.6819  2.0541 -1.2292
 4375TIP3   OH234683   2.124   1.970   2.590 -0.1175  0.5184  0.2933
 4375TIP3    H134684   2.167   1.900   2.638 -0.0038  1.4215  1.5787
 4375TIP3    H234685   2.149   2.050   2.637 -0.7340  1.3582 -0.7565
 4376TIP3   OH234686   1.331   6.313   1.515 -0.1301 -0.8129 -0.0495
 4376TIP3    H134687   1.334   6.224   1.550 -0.9047 -2.2346 -3.2126
 4376TIP3    H234688   1.253   6.352   1.554  0.8816 -0.9797  2.3290
 4377TIP3   OH234689   2.941   6.247   1.431  0.3645 -0.0325 -0.0324
 4377TIP3    H134690   2.938   6.342   1.435 -0.9842  0.1686 -3.2555
 4377TIP3    H234691   2.872   6.223   1.369  0.2244 -3.1894  1.1314
 4378TIP3   OH234692   2.948   4.979   8.512  0.1549 -0.1956  0.3347
 4378TIP3    H134693   2.960   5.009   8.422  1.6128 -2.6857 -0.4271
 4378TIP3    H234694   2.857   4.950   8.516 -0.3673  1.3335  0.1796
 4379TIP3   OH234695   0.321   0.359   8.539  0.3354 -0.3560 -0.0088
 4379TIP3    H134696   0.399   0.305   8.527  0.2118 -0.3511 -0.9229
 4379TIP3    H234697   0.309   0.403   8.455 -0.3780  0.0091  0.2730
 4380TIP3   OH234698   3.917   4.641   0.105  0.0755  0.0820 -0.2286
 4380TIP3    H134699   3.852   4.579   0.072  1.2352 -0.9141 -0.6809
 4380TIP3    H234700   3.963   4.671   0.027  0.8096  0.0338  0.1804
 4381TIP3   OH234701   5.895   0.193   7.483 -0.1541 -0.4508 -0.1535
 4381TIP3    H134702   5.805   0.160   7.491 -0.0226 -0.7681  0.0117
 4381TIP3    H234703   5.887   0.287   7.498 -0.4054 -0.5320  0.2354
 4382TIP3   OH234704   0.742   0.564   0.324  0.4398 -0.5569 -0.0433
 4382TIP3    H134705   0.711   0.643   0.368 -1.2114 -1.5745  0.7174
 4382TIP3    H234706   0.679   0.550   0.253  2.4409  0.4407 -2.1287
 4383TIP3   OH234707   1.611   1.511   8.684  0.6369 -0.0802  0.0926
 4383TIP3    H134708   1.560   1.569   8.741  0.2485  2.3955 -2.5507
 4383TIP3    H234709   1.702   1.541   8.694  0.4083  1.2397 -1.4408
 4384TIP3   OH234710   1.732   3.689   0.824 -0.1704 -0.1981 -0.6851
 4384TIP3    H134711   1.742   3.658   0.734 -0.7659 -0.6529 -0.5946
 4384TIP3    H234712   1.799   3.641   0.873  0.4415  0.3649 -0.9555
 4385TIP3   OH234713   5.941   6.157   7.682  0.0408 -0.6095  0.0176
 4385TIP3    H134714   6.006   6.146   7.612  0.2680 -1.5509  0.3540
 4385TIP3    H234715   5.960   6.086   7.743 -0.3529  0.0171  0.8870
 4386TIP3   OH234716   3.272   3.458   1.267 -0.3768 -0.1941  0.4317
 4386TIP3    H134717   3.218   3.451   1.346  1.8104 -0.3997  1.9988
 4386TIP3    H234718   3.269   3.551   1.244  0.2082  0.1607  1.7195
 4387TIP3   OH234719   3.744   4.015   7.129  0.3822  0.0156 -0.3470
 4387TIP3    H134720   3.796   3.935   7.130 -0.2246 -0.3872  0.9337
 4387TIP3    H234721   3.681   4.002   7.058  0.9261 -0.2164 -0.7908
 4388TIP3   OH234722   1.692   4.070   8.091  0.4274  0.8511 -0.7071
 4388TIP3    H134723   1.686   4.137   8.160  0.4602  0.4719 -0.3353
 4388TIP3    H234724   1.772   4.093   8.043  0.5928  0.9123 -0.4042
 4389TIP3   OH234725   5.941   5.570   0.513  0.4550  0.2170  0.1228
 4389TIP3    H134726   5.923   5.623   0.590  0.1613  2.1171 -1.1998
 4389TIP3    H234727   5.920   5.480   0.540 -1.9928  1.1261  1.5173
 4390TIP3   OH234728   0.814   4.408   0.460 -0.2159  0.1617 -0.0779
 4390TIP3    H134729   0.812   4.424   0.555 -0.0770  2.5645 -0.4130
 4390TIP3    H234730   0.785   4.318   0.450 -0.5580 -0.0419  2.2409
 4391TIP3   OH234731   4.042   3.908   8.156 -0.4627 -0.7448  0.2721
 4391TIP3    H134732   4.030   3.884   8.248 -0.4710 -2.6432 -0.1959
 4391TIP3    H234733   3.998   3.839   8.107 -1.8856  1.0589 -1.1755
 4392TIP3   OH234734   4.986   0.965   2.814  0.6312 -0.0745 -0.2377
 4392TIP3    H134735   5.039   0.928   2.744  1.2764 -0.7671  0.6019
 4392TIP3    H234736   5.039   1.036   2.849  1.7321 -1.7460  1.6230
 4393TIP3   OH234737   3.535   1.375   7.510  0.0199  0.6464  0.1761
 4393TIP3    H134738   3.596   1.352   7.580 -1.6310  1.5437  2.0269
 4393TIP3    H234739   3.547   1.469   7.497 -1.0010  0.8613  0.6512
 4394TIP3   OH234740   2.950   5.091   7.933 -0.0229  0.0342  0.5856
 4394TIP3    H134741   2.988   5.122   7.850 -0.0603 -1.5218 -0.0423
 4394TIP3    H234742   2.870   5.141   7.943 -1.2096 -1.3156 -1.5267
 4395TIP3   OH234743   6.629   5.819   0.153  0.0990 -0.1340 -0.4159
 4395TIP3    H134744   6.697   5.757   0.128  0.6611  0.7975 -1.2393
 4395TIP3    H234745   6.622   5.810   0.248  1.4507 -0.1534 -0.3082
 4396TIP3   OH234746   2.620   5.155   8.191  0.1911 -0.0813 -0.3196
 4396TIP3    H134747   2.576   5.106   8.261  0.5530  0.0024 -0.0257
 4396TIP3    H234748   2.606   5.103   8.112  0.2205 -0.4471 -0.0874
 4397TIP3   OH234749   5.786   2.063   7.982 -0.3397  0.6727 -0.3679
 4397TIP3    H134750   5.733   1.984   7.970 -0.5626  0.3787  2.0603
 4397TIP3    H234751   5.723   2.134   7.988 -0.5755  0.3691  2.1368
 4398TIP3   OH234752   1.652   0.888   7.950 -0.1399  0.3295 -0.5799
 4398TIP3    H134753   1.720   0.846   8.002  0.8334  1.6448 -0.7403
 4398TIP3    H234754   1.596   0.933   8.014 -0.6328 -0.3942 -0.4834
 4399TIP3   OH234755   1.430   1.970   1.046  0.0068  0.2492 -0.7071
 4399TIP3    H134756   1.492   1.930   0.985  1.8358 -1.9841  2.3636
 4399TIP3    H234757   1.483   1.994   1.122 -2.5567  0.2206  1.2267
 4400TIP3   OH234758   6.605   0.309   7.660 -0.7734 -0.4954 -0.4777
 4400TIP3    H134759   6.514   0.327   7.681  0.2319  1.1521  3.2266
 4400TIP3    H234760   6.639   0.393   7.629 -0.0106 -0.4725  0.3856
 4401TIP3   OH234761   6.491   5.670   1.218  0.5260 -1.0933  0.0596
 4401TIP3    H134762   6.557   5.660   1.149  0.2984  0.4702 -0.4337
 4401TIP3    H234763   6.408   5.662   1.171  0.3748 -0.6369  0.2423
 4402TIP3   OH234764   5.833   6.064   0.727 -0.3137  0.6391 -0.0635
 4402TIP3    H134765   5.796   6.065   0.638  3.6454  1.2473 -1.9416
 4402TIP3    H234766   5.868   6.152   0.740 -0.2794  0.3790  1.8789
 4403TIP3   OH234767   2.184   2.612   8.026  0.3684 -0.2535  0.1031
 4403TIP3    H134768   2.147   2.569   8.103 -2.1203  0.5090 -0.5631
 4403TIP3    H234769   2.122   2.682   8.006  1.3631  0.0754 -2.1279
 4404TIP3   OH234770   6.623   6.637   2.055 -0.5785  0.4227  0.2391
 4404TIP3    H134771   6.575   6.633   1.973 -1.6720  2.0330  0.7498
 4404TIP3    H234772   6.576   6.579   2.114  0.3154 -0.8802 -0.2846
 4405TIP3   OH234773   2.549   3.809   7.855 -0.2754  0.7817  0.0934
 4405TIP3    H134774   2.465   3.816   7.900 -2.0612 -0.6426 -2.7240
 4405TIP3    H234775   2.557   3.715   7.835  2.1600  0.8474  0.4950
 4406TIP3   OH234776   5.289   0.611   7.870  0.6962 -0.1321  0.4383
 4406TIP3    H134777   5.196   0.589   7.858  0.1790  1.8105  0.5740
 4406TIP3    H234778   5.296   0.635   7.962  1.8180 -2.1573  0.9533
 4407TIP3   OH234779   5.535   2.322   1.837  0.2497 -0.4860 -0.0869
 4407TIP3    H134780   5.584   2.356   1.911 -0.2605 -0.4193  0.2241
 4407TIP3    H234781   5.590   2.341   1.761  0.0125  1.0039  0.0840
 4408TIP3   OH234782   6.172   4.212   1.211  0.3701 -0.5425  0.1767
 4408TIP3    H134783   6.140   4.288   1.259  0.4344  1.1980 -2.3508
 4408TIP3    H234784   6.174   4.142   1.276  0.2822  1.5705  2.6212
 4409TIP3   OH234785   2.403   6.243   2.286  0.1846  0.4373  0.2992
 4409TIP3    H134786   2.416   6.160   2.332 -1.9328  0.1519  0.4833
 4409TIP3    H234787   2.334   6.287   2.335 -1.6344  0.4638 -2.1117
 4410TIP3   OH234788   3.753   5.671   7.805 -0.0503  0.1317 -0.0751
 4410TIP3    H134789   3.673   5.650   7.757  0.1476 -0.1193 -0.3026
 4410TIP3    H234790   3.741   5.761   7.835 -1.0783 -0.4216  1.2498
 4411TIP3   OH234791   4.325   5.425   8.830  0.4252  0.4873 -0.9579
 4411TIP3    H134792   4.343   5.488   8.761 -0.3440  4.1365  1.8657
 4411TIP3    H234793   4.384   5.450   8.901  0.5215 -2.4791  0.1672
 4412TIP3   OH234794   0.251   4.616   1.424 -0.3907 -0.5437 -0.3744
 4412TIP3    H134795   0.246   4.637   1.330 -1.1050 -1.6329 -0.6077
 4412TIP3    H234796   0.344   4.604   1.441 -0.3275 -1.4283 -1.2209
 4413TIP3   OH234797   4.969   4.639   6.980  0.0888 -0.0276 -0.3637
 4413TIP3    H134798   4.914   4.699   7.029  1.9322  0.3313  1.4035
 4413TIP3    H234799   4.915   4.561   6.968 -1.5593  1.1146 -0.7335
 4414TIP3   OH234800   2.701   3.332   0.663 -0.6820  0.4097 -0.3333
 4414TIP3    H134801   2.768   3.395   0.637 -0.9124  0.2305 -1.4041
 4414TIP3    H234802   2.618   3.379   0.650 -0.8883 -0.2752 -1.7116
 4415TIP3   OH234803   5.212   1.134   1.197  0.6039 -0.4356 -0.5813
 4415TIP3    H134804   5.200   1.060   1.256 -0.8622  0.0812 -0.1866
 4415TIP3    H234805   5.182   1.101   1.112 -0.7692 -0.0904 -0.2476
 4416TIP3   OH234806   4.075   1.975   2.301  0.4306  0.0453  0.8191
 4416TIP3    H134807   4.040   2.061   2.323  1.2056  0.4676  0.4468
 4416TIP3    H234808   4.139   1.992   2.231 -0.4410 -1.0010 -0.2723
 4417TIP3   OH234809   2.215   3.468   0.739  0.1146  0.0141  0.1087
 4417TIP3    H134810   2.199   3.475   0.833 -1.9754 -3.6401  0.2250
 4417TIP3    H234811   2.135   3.503   0.699  0.6496  0.7758 -0.3164
 4418TIP3   OH234812   5.724   3.428   2.398  0.0912 -0.7412 -0.1817
 4418TIP3    H134813   5.646   3.478   2.421  0.4924 -0.2417  0.1318
 4418TIP3    H234814   5.706   3.339   2.428  0.1162 -0.3675  1.0039
 4419TIP3   OH234815   0.843   2.053   7.856 -0.9338 -0.0629 -0.0347
 4419TIP3    H134816   0.763   2.016   7.894  0.5772 -1.2772  2.1814
 4419TIP3    H234817   0.869   2.122   7.917  2.8305 -3.5961  2.9197
 4420TIP3   OH234818   2.481   1.123   2.081 -0.4117 -0.5891 -0.4146
 4420TIP3    H134819   2.502   1.088   1.995 -1.0987  2.2226 -1.8567
 4420TIP3    H234820   2.427   1.200   2.063 -0.3359  0.2784  2.5198
 4421TIP3   OH234821   4.593   5.796   8.582  0.3758  0.6275  0.2412
 4421TIP3    H134822   4.600   5.881   8.538 -1.9671  0.7968  0.1089
 4421TIP3    H234823   4.600   5.732   8.512  1.9551  0.6629  0.3189
 4422TIP3   OH234824   6.504   6.739   1.156  0.1561 -0.6504  0.4908
 4422TIP3    H134825   6.537   6.649   1.151 -0.3622 -0.8562  0.6758
 4422TIP3    H234826   6.415   6.730   1.190 -0.8258 -0.2814 -1.8259
 4423TIP3   OH234827   4.139   6.510   0.302 -0.3823 -0.4085  0.0297
 4423TIP3    H134828   4.233   6.491   0.295 -0.0252  0.3020  2.0290
 4423TIP3    H234829   4.097   6.446   0.245  1.1865 -2.2436  0.8161
 4424TIP3   OH234830   5.162   4.319   8.339  0.3237 -0.2475 -0.3800
 4424TIP3    H134831   5.185   4.246   8.395 -2.8803  0.0132  1.5135
 4424TIP3    H234832   5.186   4.397   8.389 -0.6620 -0.0082 -0.2662
 4425TIP3   OH234833   4.308   4.995   1.766  0.1414  0.3601  0.3503
 4425TIP3    H134834   4.350   5.052   1.701  0.6052 -0.8603 -0.4662
 4425TIP3    H234835   4.215   5.006   1.750  0.2530 -0.1341 -0.7523
 4426TIP3   OH234836   5.546   4.194   8.353  0.0167 -0.4652 -0.4759
 4426TIP3    H134837   5.555   4.103   8.384 -0.4361 -0.6322 -0.8303
 4426TIP3    H234838   5.466   4.194   8.301  0.7679 -0.1844 -1.6666
 4427TIP3   OH234839   4.551   2.953   1.242 -0.1553  0.6993 -0.4597
 4427TIP3    H134840   4.507   3.012   1.303 -1.5142 -0.5862 -0.1499
 4427TIP3    H234841   4.480   2.902   1.203  0.9846 -0.7376 -0.7114
 4428TIP3   OH234842   4.450   0.497   0.959 -0.0316 -0.2807  0.2239
 4428TIP3    H134843   4.440   0.545   1.041  0.0545 -0.9222  0.6096
 4428TIP3    H234844   4.433   0.406   0.982  1.2546 -0.6408 -0.2178
 4429TIP3   OH234845   0.443   2.282   8.835  0.9086 -0.0989 -0.5213
 4429TIP3    H134846   0.418   2.266   8.926  1.4851  1.9197  0.0278
 4429TIP3    H234847   0.444   2.194   8.795  0.7525 -1.0363  1.4138
 4430TIP3   OH234848   1.840   1.250   0.937 -0.3182 -0.1407 -0.0659
 4430TIP3    H134849   1.852   1.269   0.844  1.0399 -0.8324 -0.0676
 4430TIP3    H234850   1.886   1.321   0.982 -1.3429  0.4287  0.0941
 4431TIP3   OH234851   3.789   5.081   1.285  0.1094  0.1244  0.0118
 4431TIP3    H134852   3.779   5.165   1.240  0.4437  0.2493  0.1618
 4431TIP3    H234853   3.777   5.015   1.217  2.6690  0.3253 -0.7477
 4432TIP3   OH234854   5.070   6.581   0.308 -0.1307  0.2580  0.0234
 4432TIP3    H134855   5.154   6.587   0.353 -0.7718  1.0876  1.1707
 4432TIP3    H234856   5.020   6.656   0.340 -2.4445 -1.8480  1.8060
 4433TIP3   OH234857   2.868   5.360   0.284 -0.5743  0.0374 -0.2735
 4433TIP3    H134858   2.793   5.317   0.326 -0.9102  0.8346 -0.0338
 4433TIP3    H234859   2.839   5.450   0.270  0.3302  0.3532 -0.1926
 4434TIP3   OH234860   2.205   1.610   8.204 -0.9818  0.5473  0.4139
 4434TIP3    H134861   2.281   1.557   8.179 -1.1922  0.1637  0.5795
 4434TIP3    H234862   2.145   1.601   8.130 -0.1301  2.3336 -0.5572
 4435TIP3   OH234863   1.295   2.827   0.908  0.2408 -0.0095 -0.1609
 4435TIP3    H134864   1.324   2.738   0.929 -1.4393 -1.5155 -3.4883
 4435TIP3    H234865   1.362   2.883   0.948  0.2236 -2.4952  4.0530
 4436TIP3   OH234866   1.090   6.407   1.577  0.0240  0.0787  0.3180
 4436TIP3    H134867   1.066   6.449   1.494  0.7413  0.7863  0.4523
 4436TIP3    H234868   1.012   6.415   1.632 -0.9466 -1.6218 -0.7260
 4437TIP3   OH234869   4.568   5.112   0.703  0.8970 -0.1705 -0.0340
 4437TIP3    H134870   4.519   5.042   0.660 -1.1495  1.9604 -1.4237
 4437TIP3    H234871   4.620   5.151   0.633 -0.2378  1.4905 -0.0206
 4438TIP3   OH234872   4.860   2.165   0.198  0.3161  0.2690 -0.1733
 4438TIP3    H134873   4.940   2.194   0.241  0.9229  0.3037 -1.3021
 4438TIP3    H234874   4.873   2.071   0.183  0.9188  0.5993 -1.9334
 4439TIP3   OH234875   1.317   6.373   2.086  0.0890 -0.3069  0.1039
 4439TIP3    H134876   1.363   6.330   2.013 -0.5070  0.6515 -0.8744
 4439TIP3    H234877   1.368   6.350   2.163  0.5961 -1.5738 -0.5810
 4440TIP3   OH234878   1.687   1.747   0.336 -0.4418  0.1577 -0.3318
 4440TIP3    H134879   1.727   1.823   0.380 -0.8189 -0.2521  0.7613
 4440TIP3    H234880   1.748   1.724   0.267  0.6575  0.2412  0.5897
 4441TIP3   OH234881   3.872   0.321   8.419 -0.3505 -0.1016 -0.6500
 4441TIP3    H134882   3.872   0.408   8.458  1.1832 -0.4545  0.2237
 4441TIP3    H234883   3.789   0.282   8.446 -0.6637  0.7768 -0.3349
 4442TIP3   OH234884   6.750   0.025   1.869  0.5614 -0.7912 -0.5208
 4442TIP3    H134885   6.655   0.032   1.857  0.5696 -0.6907 -0.5322
 4442TIP3    H234886   6.761  -0.039   1.939  0.3417  1.8690  2.1433
 4443TIP3   OH234887   1.610   2.753   0.911 -0.1972 -0.5648  0.4947
 4443TIP3    H134888   1.653   2.689   0.968  1.0050 -0.5335 -0.3372
 4443TIP3    H234889   1.564   2.699   0.846  1.5856 -0.6378 -0.7720
 4444TIP3   OH234890   2.113   6.337   1.694  0.6978  0.2917 -0.2795
 4444TIP3    H134891   2.198   6.380   1.685  0.4803  0.6072 -0.9560
 4444TIP3    H234892   2.133   6.248   1.721  1.1388  0.9411  1.6787
 4445TIP3   OH234893   3.644   5.745   2.111  0.6901 -0.4503  0.1709
 4445TIP3    H134894   3.635   5.828   2.157 -0.9891 -1.0088  0.8911
 4445TIP3    H234895   3.696   5.767   2.033  0.6264  1.1782  0.5570
 4446TIP3   OH234896   1.153   5.031   7.585 -0.2071 -0.7592  0.2533
 4446TIP3    H134897   1.092   4.960   7.563 -0.4977 -1.6902  3.5157
 4446TIP3    H234898   1.230   4.986   7.620 -0.2318  0.4755  2.0030
 4447TIP3   OH234899   1.772   4.023   1.778  0.6463  0.0705  0.5449
 4447TIP3    H134900   1.806   3.954   1.722  2.1645  1.7167 -0.6875
 4447TIP3    H234901   1.743   4.091   1.717 -1.7239  0.1740  1.6794
 4448TIP3   OH234902   2.666   6.678   1.957 -0.0774  0.5872  0.1584
 4448TIP3    H134903   2.688   6.733   2.032  0.4532  0.2332  0.2690
 4448TIP3    H234904   2.690   6.589   1.984  1.5880  0.6501 -0.9888
 4449TIP3   OH234905   4.777   4.497   0.336 -0.3297 -0.3689 -0.0200
 4449TIP3    H134906   4.804   4.538   0.418 -0.8469  1.7350 -0.8466
 4449TIP3    H234907   4.842   4.525   0.272 -0.3636 -1.3653 -0.5180
 4450TIP3   OH234908   1.958   0.940   2.468  0.3117  0.4905  0.4262
 4450TIP3    H134909   2.009   0.861   2.488  1.7556  0.8728 -1.4593
 4450TIP3    H234910   2.021   1.011   2.473  0.0806  0.9589 -2.2016
 4451TIP3   OH234911   2.890   5.778   7.574  0.0755  0.0503  0.2605
 4451TIP3    H134912   2.854   5.697   7.611 -0.2665  0.7645  1.5460
 4451TIP3    H234913   2.831   5.846   7.605  1.7851  1.1108  1.3224
 4452TIP3   OH234914   0.109   0.126   1.268 -0.4905 -0.2304 -0.1699
 4452TIP3    H134915   0.092   0.079   1.186  0.6628 -0.0350 -0.5360
 4452TIP3    H234916   0.128   0.056   1.332  1.4311 -0.3046 -0.7633
 4453TIP3   OH234917   2.707   2.410   0.758  0.2108  0.0356 -0.2100
 4453TIP3    H134918   2.616   2.396   0.785 -0.4444  2.0061 -1.2046
 4453TIP3    H234919   2.744   2.322   0.751 -1.8787 -0.8689 -0.6525
 4454TIP3   OH234920   3.139   6.648   0.177 -0.0640 -0.1367 -0.0889
 4454TIP3    H134921   3.150   6.666   0.083 -0.4713  0.2331 -0.0695
 4454TIP3    H234922   3.112   6.732   0.214  2.6798  0.4456  0.8275
 4455TIP3   OH234923   0.621   0.019   2.327  0.8975 -0.3419  0.0655
 4455TIP3    H134924   0.699  -0.034   2.310 -1.5492 -5.0327  1.6331
 4455TIP3    H234925   0.617   0.028   2.422  0.0200  0.6362 -0.0442
 4456TIP3   OH234926   3.920   3.085   8.312 -0.1293 -0.2173  0.0255
 4456TIP3    H134927   3.838   3.045   8.343  0.2158 -0.8072  0.1870
 4456TIP3    H234928   3.901   3.109   8.221 -0.9112  0.8709  0.4549
 4457TIP3   OH234929   1.555   5.890   2.100 -0.3551 -0.3618  0.2151
 4457TIP3    H134930   1.618   5.962   2.108  0.4182 -0.7396 -1.7416
 4457TIP3    H234931   1.574   5.833   2.175 -0.5488  1.1168  1.4250
 4458TIP3   OH234932   0.026   0.686   2.267 -0.1425 -0.1540  0.0275
 4458TIP3    H134933   0.055   0.753   2.329  2.5873  0.5658 -1.8280
 4458TIP3    H234934  -0.012   0.735   2.194  1.1970 -0.5899 -1.0125
 4459TIP3   OH234935   3.650   6.035   2.298 -0.0038 -0.3359 -0.5996
 4459TIP3    H134936   3.607   6.040   2.213  0.9148  2.6981 -1.0113
 4459TIP3    H234937   3.632   6.119   2.339  0.5477 -1.2897  1.7393
 4460TIP3   OH234938   0.215   2.010   8.211  0.1788 -0.3000  0.4210
 4460TIP3    H134939   0.144   1.949   8.233  0.3899 -1.3676 -1.6316
 4460TIP3    H234940   0.183   2.059   8.136  0.6254  1.0995  1.1073
 4461TIP3   OH234941   2.658   6.592   1.110  0.4142  0.9293 -0.1924
 4461TIP3    H134942   2.659   6.642   1.028  2.0258 -1.4126 -1.7244
 4461TIP3    H234943   2.744   6.552   1.115 -1.4295 -3.6307 -0.4101
 4462TIP3   OH234944   0.652   5.904   1.422 -0.1384  0.5895 -0.2689
 4462TIP3    H134945   0.698   5.884   1.504 -1.1486  1.3079  0.5038
 4462TIP3    H234946   0.634   5.998   1.428 -1.9182  0.2824 -0.4240
 4463TIP3   OH234947   1.076   5.780   6.976  0.3225  0.0058  0.3002
 4463TIP3    H134948   1.095   5.686   6.983  0.2981 -0.2385 -1.9609
 4463TIP3    H234949   1.019   5.787   6.899 -1.9127  1.6365  1.9919
 4464TIP3   OH234950   1.052   2.314   1.387 -0.2345 -0.3284 -0.3405
 4464TIP3    H134951   1.023   2.391   1.436 -0.3292 -0.7295  0.2364
 4464TIP3    H234952   1.131   2.343   1.341  0.5635 -0.3002  1.0108
 4465TIP3   OH234953   2.667   0.148   1.830 -0.4241  0.5264  0.3595
 4465TIP3    H134954   2.758   0.158   1.801 -0.1111  0.6128  1.3104
 4465TIP3    H234955   2.656   0.054   1.843 -0.6061  0.4745 -0.1608
 4466TIP3   OH234956   0.633   2.925   1.823 -0.4327 -0.0943 -0.0657
 4466TIP3    H134957   0.586   3.006   1.840 -0.8605 -0.2458 -0.5008
 4466TIP3    H234958   0.587   2.859   1.875 -0.8512 -0.2864 -0.6692
 4467TIP3   OH234959   0.241   1.021   1.428 -0.9332 -0.2240  0.3024
 4467TIP3    H134960   0.171   0.963   1.399 -1.5779  1.4068 -1.6836
 4467TIP3    H234961   0.196   1.097   1.465 -0.2548  0.5572 -0.4034
 4468TIP3   OH234962   6.764   4.306   8.535 -0.2624  0.3583 -0.2008
 4468TIP3    H134963   6.812   4.388   8.539 -1.2377  1.1312 -2.5856
 4468TIP3    H234964   6.687   4.326   8.481 -1.3026 -1.7647  0.3801
 4469TIP3   OH234965   3.137   2.571   2.264  0.0737  0.6131 -0.0588
 4469TIP3    H134966   3.227   2.584   2.235 -0.0508  0.2783 -0.6166
 4469TIP3    H234967   3.135   2.606   2.353  0.4613  1.7110 -0.4582
 4470TIP3   OH234968   1.492   6.555   8.519  0.1028 -0.2392  0.0117
 4470TIP3    H134969   1.468   6.560   8.611 -0.0811 -1.0767  0.0136
 4470TIP3    H234970   1.501   6.462   8.501  1.2598 -0.0475 -0.5341
 4471TIP3   OH234971   5.798   2.975   0.483 -0.0607 -0.2776 -0.1580
 4471TIP3    H134972   5.850   3.050   0.511 -1.7787  0.9870 -0.1493
 4471TIP3    H234973   5.718   2.980   0.536  0.8405 -3.7483  1.8477
 4472TIP3   OH234974   5.366   4.670   7.293  0.1559  0.1268  0.2039
 4472TIP3    H134975   5.449   4.637   7.259  0.6310  1.9077 -0.4713
 4472TIP3    H234976   5.330   4.722   7.221 -1.9162 -1.1514  0.2260
 4473TIP3   OH234977   3.488   0.158   2.077  0.2853  0.0033 -0.3632
 4473TIP3    H134978   3.428   0.148   2.151  2.3828  0.3141  1.5040
 4473TIP3    H234979   3.447   0.223   2.021 -2.2221 -1.5198 -0.4574
 4474TIP3   OH234980   3.038   4.396   0.047  0.5829 -0.1651  0.0496
 4474TIP3    H134981   3.055   4.452   0.124  0.3520  0.0087 -0.0238
 4474TIP3    H234982   2.968   4.441   0.001  1.7022  0.5170 -1.0558
 4475TIP3   OH234983   3.364   2.374   1.349 -0.5705  0.1135 -0.3805
 4475TIP3    H134984   3.386   2.303   1.288 -2.2942 -0.3280 -0.5564
 4475TIP3    H234985   3.309   2.433   1.297 -0.6373  0.6262  0.2755
 4476TIP3   OH234986   0.262   1.160   1.733  0.8004  0.2392 -0.2785
 4476TIP3    H134987   0.169   1.144   1.750  0.8214 -0.1942 -0.5586
 4476TIP3    H234988   0.272   1.255   1.740  0.3607  0.2767 -0.1349
 4477TIP3   OH234989   2.320   0.164   7.631  0.1152 -0.2533 -0.7003
 4477TIP3    H134990   2.281   0.243   7.596 -0.9406 -0.5702 -0.2679
 4477TIP3    H234991   2.411   0.167   7.601 -0.0060  0.9260 -0.9943
 4478TIP3   OH234992   4.503   0.433   1.923 -0.6343 -0.2304 -0.2849
 4478TIP3    H134993   4.499   0.370   1.852 -0.2810 -0.5091 -0.0629
 4478TIP3    H234994   4.458   0.389   1.996 -1.1227  0.1104 -0.3749
 4479TIP3   OH234995   6.363   1.720   7.952  0.3901 -0.0127  0.0796
 4479TIP3    H134996   6.369   1.802   8.000  0.2599 -0.4939  0.9459
 4479TIP3    H234997   6.372   1.652   8.019 -2.3256 -0.7423 -0.2039
 4480TIP3   OH234998   1.580   6.111   1.661  0.5584  0.2736  0.4922
 4480TIP3    H134999   1.635   6.188   1.674  2.2265 -0.7709 -0.0737
 4480TIP3    H235000   1.634   6.052   1.609 -1.5457 -0.3504 -1.1156
 4481TIP3   OH235001   6.013   6.672   0.693 -0.1207 -0.1049 -0.1087
 4481TIP3    H135002   6.099   6.650   0.655 -0.2173 -0.3652 -0.1752
 4481TIP3    H235003   5.960   6.594   0.679 -0.5796  0.3006 -0.6755
 4482TIP3   OH235004   6.450   3.105   7.880 -0.0430 -0.5540 -0.5903
 4482TIP3    H135005   6.463   3.200   7.872  0.2292 -0.6144 -0.8816
 4482TIP3    H235006   6.503   3.080   7.955 -1.0631 -0.2911  0.2461
 4483TIP3   OH235007   6.096   3.170   0.500  0.7069  0.1868 -0.6696
 4483TIP3    H135008   6.064   3.151   0.412 -0.2316  0.7667 -0.4711
 4483TIP3    H235009   6.166   3.107   0.514  2.0040  1.1497 -2.4610
 4484TIP3   OH235010   2.325   4.970   8.647 -0.2768  0.0198 -0.7608
 4484TIP3    H135011   2.253   4.912   8.622 -0.3768  0.0452 -0.5342
 4484TIP3    H235012   2.399   4.912   8.661 -0.4483 -0.0802 -0.2657
 4485TIP3   OH235013   5.404   4.898   2.084 -0.4305 -0.1129  0.6175
 4485TIP3    H135014   5.315   4.874   2.110  0.1543 -2.9744  0.3795
 4485TIP3    H235015   5.460   4.845   2.140  1.0462 -0.0209 -0.7155
 4486TIP3   OH235016   2.900   6.067   3.117 -0.7111 -0.3715  0.3021
 4486TIP3    H135017   2.932   5.977   3.108 -1.6216 -0.5811 -1.2937
 4486TIP3    H235018   2.958   6.119   3.062 -0.9636 -0.1976  0.1953
 4487TIP3   OH235019   4.906   3.489   7.989  0.1611 -0.0385 -0.1962
 4487TIP3    H135020   4.951   3.445   8.061  1.2911  0.2335 -0.7008
 4487TIP3    H235021   4.814   3.467   8.001  0.3628 -0.2910  1.1212
 4488TIP3   OH235022   5.720   5.231   2.154 -0.5432  0.4027 -0.0744
 4488TIP3    H135023   5.737   5.320   2.125 -1.1842 -0.5502 -3.9663
 4488TIP3    H235024   5.783   5.177   2.106 -0.1864 -1.3158  2.1504
 4489TIP3   OH235025   2.520   2.691   0.158  0.4223  0.2603  0.2940
 4489TIP3    H135026   2.516   2.780   0.122  2.5510  0.3363  0.1653
 4489TIP3    H235027   2.597   2.691   0.213  0.9113 -1.7456 -0.3234
 4490TIP3   OH235028   2.164   2.888   2.109 -0.4803  0.8484 -0.4734
 4490TIP3    H135029   2.182   2.814   2.168  0.3836 -0.8991 -2.7967
 4490TIP3    H235030   2.069   2.886   2.098 -0.7557  1.6810  1.3794
 4491TIP3   OH235031   0.749   6.492   7.822  0.4297  0.2031 -0.5637
 4491TIP3    H135032   0.690   6.422   7.796  0.0921  0.3043 -0.0989
 4491TIP3    H235033   0.742   6.557   7.752 -0.7165  0.6237 -0.0832
 4492TIP3   OH235034   3.688   6.681   7.602  0.0503 -0.5327 -0.3933
 4492TIP3    H135035   3.636   6.601   7.611  0.1258 -0.5196  0.1753
 4492TIP3    H235036   3.719   6.679   7.511 -1.3869 -0.2696 -0.9246
 4493TIP3   OH235037   1.547   0.021   2.316 -0.2025 -0.0918 -0.0403
 4493TIP3    H135038   1.570   0.113   2.303 -2.0801  0.4567  0.2471
 4493TIP3    H235039   1.597  -0.025   2.249  1.4854  1.0016  0.3958
 4494TIP3   OH235040   1.438   1.304   0.701 -0.5940  0.5397 -0.0865
 4494TIP3    H135041   1.532   1.300   0.681 -0.7702  0.8793 -1.0676
 4494TIP3    H235042   1.395   1.290   0.617 -1.4104  1.2801  0.1877
 4495TIP3   OH235043   2.479   5.020   8.394 -0.2822 -0.1286  0.2269
 4495TIP3    H135044   2.455   4.938   8.436  3.1749 -1.6874 -0.5167
 4495TIP3    H235045   2.534   5.064   8.458  1.2316 -0.3561 -0.8807
 4496TIP3   OH235046   2.226   5.787   0.123  0.5996  0.2939  0.1507
 4496TIP3    H135047   2.281   5.731   0.069  0.4300 -0.0410  0.3164
 4496TIP3    H235048   2.244   5.759   0.213  1.6696  1.5677  0.3521
 4497TIP3   OH235049   4.532   0.267   7.359  0.0479  0.2845 -0.3859
 4497TIP3    H135050   4.614   0.249   7.404  0.0813 -0.8915 -0.8657
 4497TIP3    H235051   4.549   0.244   7.268 -1.1058 -1.0377 -0.3065
 4498TIP3   OH235052   6.454   6.668   8.417  0.5274  0.0510  0.2347
 4498TIP3    H135053   6.406   6.589   8.438  0.6168  0.1810  0.9427
 4498TIP3    H235054   6.448   6.675   8.321  0.2401 -0.6224  0.2004
 4499TIP3   OH235055   4.436   6.471   6.630  0.4315  0.0169 -0.4539
 4499TIP3    H135056   4.341   6.459   6.629  0.5607 -2.1541  1.7277
 4499TIP3    H235057   4.450   6.548   6.684 -0.0760  0.6497 -1.2072
 4500TIP3   OH235058   0.455   1.828   8.456  0.2021 -0.3425  0.3016
 4500TIP3    H135059   0.531   1.798   8.504 -0.0747 -1.6144 -0.0156
 4500TIP3    H235060   0.486   1.841   8.366  0.3507  0.4971  0.4624
 4501TIP3   OH235061   6.188   0.235   1.990  0.6093 -0.1533  0.0461
 4501TIP3    H135062   6.260   0.269   1.937  1.0879  0.3738  0.9983
 4501TIP3    H235063   6.231   0.172   2.049 -0.0110 -1.2076 -0.5954
 4502TIP3   OH235064   1.601   6.294   8.197  0.0150 -0.3336 -0.2274
 4502TIP3    H135065   1.563   6.265   8.280 -0.2299  2.0361  0.5657
 4502TIP3    H235066   1.544   6.255   8.131 -2.4666  1.1224  0.8652
 4503TIP3   OH235067   5.131   1.548   1.408 -0.3594  0.0153 -0.3893
 4503TIP3    H135068   5.159   1.491   1.337 -2.0030 -0.2927 -0.8176
 4503TIP3    H235069   5.173   1.632   1.389  0.9409 -0.6302 -0.5129
 4504TIP3   OH235070   2.919   2.202   7.789  0.4459 -0.8590 -0.5494
 4504TIP3    H135071   2.873   2.286   7.791  0.8535 -0.6468  0.9589
 4504TIP3    H235072   2.887   2.159   7.710 -2.3991 -0.7417  0.4196
 4505TIP3   OH235073   6.222   5.936   1.203 -0.7635 -0.1453 -0.3317
 4505TIP3    H135074   6.262   5.991   1.136  0.7346  0.4270  0.9685
 4505TIP3    H235075   6.234   5.847   1.172  0.4049  0.0897 -0.5951
 4506TIP3   OH235076   4.392   1.304   0.898 -0.6269 -0.5093  0.2480
 4506TIP3    H135077   4.361   1.361   0.969 -0.6224 -0.3796  0.1461
 4506TIP3    H235078   4.430   1.364   0.834  1.9995 -0.7720  1.4117
 4507TIP3   OH235079   2.246   4.881   7.079 -0.5519 -0.5695  0.5864
 4507TIP3    H135080   2.206   4.934   7.147  2.2336  0.5262  1.5226
 4507TIP3    H235081   2.253   4.793   7.117  0.4207 -0.1094  1.5292
 4508TIP3   OH235082   3.876   4.560   7.775 -0.1507 -0.0023  0.0530
 4508TIP3    H135083   3.875   4.632   7.838 -0.0044 -0.5574  0.6984
 4508TIP3    H235084   3.854   4.601   7.692  1.3025  1.0317  0.1471
 4509TIP3   OH235085   4.635   4.818   2.446  0.0571  0.5369  0.0533
 4509TIP3    H135086   4.607   4.741   2.395 -2.0190  1.9001 -0.9992
 4509TIP3    H235087   4.661   4.882   2.380  1.7515  0.8153  0.9212
 4510TIP3   OH235088   4.525   6.155   7.901 -0.1230 -0.6221  0.1216
 4510TIP3    H135089   4.528   6.060   7.916 -0.6074 -0.6038  0.3485
 4510TIP3    H235090   4.474   6.190   7.974  2.5135  0.1883  1.6936
 4511TIP3   OH235091   0.336   6.294   7.226  0.3399  0.2982 -0.3802
 4511TIP3    H135092   0.383   6.305   7.143 -0.1086  0.2813 -0.6452
 4511TIP3    H235093   0.298   6.206   7.220  1.7573 -0.4203  0.6134
 4512TIP3   OH235094   4.794   5.034   8.285  0.2884  0.2821 -0.0562
 4512TIP3    H135095   4.775   4.940   8.283  0.1556  0.2893  0.5239
 4512TIP3    H235096   4.709   5.076   8.276  0.5210  0.3935 -2.2908
 4513TIP3   OH235097   2.157   1.970   2.942  0.0396 -0.2051 -0.3801
 4513TIP3    H135098   2.117   1.883   2.954  0.1720 -0.5526 -2.1089
 4513TIP3    H235099   2.089   2.031   2.969  0.4700 -0.7925  2.3670
 4514TIP3   OH235100   5.960   2.415   0.496 -0.6044 -0.5350 -0.1597
 4514TIP3    H135101   5.914   2.427   0.413 -1.6590 -0.5698  0.4013
 4514TIP3    H235102   5.938   2.493   0.548  0.0640 -0.5004  0.0936
 4515TIP3   OH235103   4.773   5.019   1.556  0.5582 -0.1500 -0.6087
 4515TIP3    H135104   4.741   4.942   1.510  0.0174  0.5233 -1.3883
 4515TIP3    H235105   4.854   4.989   1.599  0.2035 -1.2119 -0.6545
 4516TIP3   OH235106   2.199   6.560   1.374 -0.0398 -0.1674 -0.2302
 4516TIP3    H135107   2.140   6.573   1.447  1.2818  2.7100  0.4795
 4516TIP3    H235108   2.145   6.576   1.296 -0.7909 -0.2494  0.2649
 4517TIP3   OH235109   5.644   6.518   0.061  0.6571 -0.2019  0.1199
 4517TIP3    H135110   5.656   6.450  -0.005  0.4011 -1.4364  1.3225
 4517TIP3    H235111   5.596   6.476   0.132  1.9865  0.7432  1.6612
 4518TIP3   OH235112   3.686   0.969   0.054 -0.1003  0.1720 -0.1643
 4518TIP3    H135113   3.605   0.933   0.088  0.0749  0.4322  0.5442
 4518TIP3    H235114   3.672   0.977  -0.041 -1.4890  1.6937  0.1300
 4519TIP3   OH235115   2.947   4.059   7.505 -0.1502  0.0543 -0.1877
 4519TIP3    H135116   2.956   4.009   7.424  1.2685 -0.7725  0.4476
 4519TIP3    H235117   3.016   4.126   7.501 -1.0165  0.9696 -0.3074
 4520TIP3   OH235118   2.781   6.731   8.281 -0.1465 -0.6006  0.3124
 4520TIP3    H135119   2.751   6.818   8.253  1.0717 -0.0953  0.5547
 4520TIP3    H235120   2.794   6.739   8.375  1.2337 -0.6533  0.1397
 4521TIP3   OH235121   1.455   5.715   0.831 -0.0592 -0.4651 -0.5102
 4521TIP3    H135122   1.541   5.703   0.871  0.3601 -0.6062 -1.4368
 4521TIP3    H235123   1.403   5.758   0.899  0.9553  0.2907 -0.1857
 4522TIP3   OH235124   4.477   1.043   8.764  0.7770 -0.2901 -0.1430
 4522TIP3    H135125   4.523   1.037   8.848  1.6496 -1.1334 -0.6537
 4522TIP3    H235126   4.527   0.986   8.705 -1.6147 -2.2170 -0.4371
 4523TIP3   OH235127   2.393   4.430   8.618  0.3144 -0.3318  0.5599
 4523TIP3    H135128   2.346   4.443   8.700 -1.5021  2.0160 -0.7271
 4523TIP3    H235129   2.351   4.354   8.578 -1.4950  0.8524  0.1075
 4524TIP3   OH235130   1.896   1.971   8.662  0.1706 -0.0727 -0.0795
 4524TIP3    H135131   1.901   2.017   8.578  0.3684 -1.3727 -0.8037
 4524TIP3    H235132   1.928   1.883   8.643  0.4492 -0.3205  1.4254
 4525TIP3   OH235133   2.829   4.043   1.859  0.0790 -0.4180  0.1644
 4525TIP3    H135134   2.737   4.020   1.871 -0.2472  0.7468  0.1002
 4525TIP3    H235135   2.846   4.027   1.766 -0.5929  1.0250 -0.2426
 4526TIP3   OH235136   5.605   4.148   0.725  0.2233 -0.4410  0.7804
 4526TIP3    H135137   5.695   4.126   0.749  0.0924 -0.2884  1.4379
 4526TIP3    H235138   5.566   4.064   0.699  1.0448 -0.2582 -1.2473
 4527TIP3   OH235139   2.476   4.751   7.831  0.3473  0.3656 -0.4905
 4527TIP3    H135140   2.476   4.675   7.772  0.5314 -0.3001  0.3395
 4527TIP3    H235141   2.399   4.801   7.806 -0.3214 -0.6080 -0.4266
 4528TIP3   OH235142   2.953   5.660   2.175 -0.6958 -0.5176  0.0079
 4528TIP3    H135143   2.891   5.608   2.124 -1.9818  2.2886 -1.5044
 4528TIP3    H235144   2.910   5.670   2.260  0.0244 -2.6117  0.6852
 4529TIP3   OH235145   2.018   3.057   1.441 -0.2143  0.2999 -0.6094
 4529TIP3    H135146   1.946   3.057   1.504  0.6732 -2.7099  0.5655
 4529TIP3    H235147   2.088   3.106   1.485 -1.0767  2.2437 -1.2861
 4530TIP3   OH235148   5.658   3.005   8.711 -0.1477 -0.1320 -0.4564
 4530TIP3    H135149   5.624   3.085   8.750 -0.0026 -0.1918 -0.2090
 4530TIP3    H235150   5.697   3.034   8.628  3.2798  0.7072  1.2636
 4531TIP3   OH235151   6.185   4.154   0.925  0.1135  0.4469 -0.6252
 4531TIP3    H135152   6.179   4.196   1.011  3.2478 -0.2487  0.0455
 4531TIP3    H235153   6.161   4.062   0.942 -0.3074  0.5307 -0.7437
 4532TIP3   OH235154   6.423   2.859   0.881 -0.0683  0.1725 -0.0087
 4532TIP3    H135155   6.417   2.838   0.788 -2.1552  1.4669 -0.2105
 4532TIP3    H235156   6.375   2.789   0.925  1.0115 -0.4994  0.1367
 4533TIP3   OH235157   6.592   3.408   0.279 -0.1952 -0.0379 -0.7928
 4533TIP3    H135158   6.557   3.421   0.367  0.5315  0.7360 -0.6064
 4533TIP3    H235159   6.672   3.357   0.292  0.0544  0.3003 -0.9710
 4534TIP3   OH235160   3.118   3.390   7.689 -0.1232 -0.0286 -0.1167
 4534TIP3    H135161   3.161   3.357   7.769  0.5578  0.7365 -0.1536
 4534TIP3    H235162   3.176   3.460   7.659  0.3714 -1.2058 -2.0507
 4535TIP3   OH235163   1.411   0.688   0.673  0.7823  0.4573  0.3987
 4535TIP3    H135164   1.499   0.699   0.636  1.7420  1.4613  2.7699
 4535TIP3    H235165   1.391   0.773   0.713 -2.2061  0.9531 -1.8177
 4536TIP3   OH235166   2.947   1.022   0.552 -0.1629 -0.9778  0.3338
 4536TIP3    H135167   2.943   0.959   0.480 -0.9315 -0.9271  0.3219
 4536TIP3    H235168   3.038   1.021   0.580 -0.1373 -1.9913  0.2455
 4537TIP3   OH235169   2.925   2.277   7.425 -0.0049  0.8325  0.1480
 4537TIP3    H135170   2.841   2.308   7.392 -0.4074  1.0711  1.3385
 4537TIP3    H235171   2.973   2.356   7.448 -0.6268  0.6790  2.2038
 4538TIP3   OH235172   3.938   6.610   0.051 -0.2426 -0.0823 -0.0194
 4538TIP3    H135173   3.883   6.638   0.125 -0.1490  0.6237 -0.2082
 4538TIP3    H235174   3.891   6.536   0.013  0.6797 -1.7490  1.9185
 4539TIP3   OH235175   4.091   0.651   0.077  0.5095 -0.0145 -0.4260
 4539TIP3    H135176   4.144   0.572   0.068  1.1613  0.3965 -0.2934
 4539TIP3    H235177   4.152   0.723   0.059  0.2442  0.5197  0.7487
 4540TIP3   OH235178   6.241   0.441   7.089 -0.4317 -0.5041  0.4241
 4540TIP3    H135179   6.187   0.385   7.034 -2.4745  2.1019 -0.4572
 4540TIP3    H235180   6.328   0.440   7.049 -0.5592 -2.4925  0.1238
 4541TIP3   OH235181   4.679   4.583   1.254  0.3809 -0.3223  0.4601
 4541TIP3    H135182   4.691   4.649   1.322 -0.5352  1.3498 -0.9122
 4541TIP3    H235183   4.589   4.553   1.265  0.7799 -1.3957  1.0555
 4542TIP3   OH235184   5.646   3.470   0.031  0.1329 -0.3473 -0.1097
 4542TIP3    H135185   5.738   3.445   0.038  0.5567  1.5402  2.3539
 4542TIP3    H235186   5.600   3.388   0.016  2.1017 -1.4625 -0.4108
 4543TIP3   OH235187   2.070   1.940   0.023 -0.5159 -0.3824 -0.0010
 4543TIP3    H135188   2.120   1.883  -0.035 -0.4867 -0.8543  0.4802
 4543TIP3    H235189   2.007   1.983  -0.034 -0.5142 -0.8673 -0.3773
 4544TIP3   OH235190   2.570   2.562   1.086  0.0744 -0.1224 -0.1870
 4544TIP3    H135191   2.583   2.653   1.111 -0.7015 -0.1111  0.1859
 4544TIP3    H235192   2.476   2.553   1.076  0.1899 -0.7355 -0.8092
 4545TIP3   OH235193   5.334   0.799   1.149  0.2709  1.1640  0.4133
 4545TIP3    H135194   5.266   0.854   1.111 -1.4401 -1.0502  0.0780
 4545TIP3    H235195   5.317   0.802   1.243  1.8839  3.2637  0.7182
 4546TIP3   OH235196   0.298   1.835   0.103  0.1815  0.0167  0.1280
 4546TIP3    H135197   0.388   1.832   0.070  0.3293  2.1796  0.1501
 4546TIP3    H235198   0.257   1.756   0.070  2.1870 -1.2120  0.4148
 4547TIP3   OH235199   4.886   1.444   1.458 -0.6353  0.3862 -0.0342
 4547TIP3    H135200   4.889   1.458   1.553  0.9292  0.8190 -0.1114
 4547TIP3    H235201   4.964   1.490   1.425 -0.5520 -0.6667 -1.4032
 4548TIP3   OH235202   4.884   6.735   0.447 -0.2592 -0.4844  0.2455
 4548TIP3    H135203   4.805   6.775   0.412 -0.3973  0.6547  1.7397
 4548TIP3    H235204   4.860   6.643   0.462 -0.1989 -1.0077 -2.4282
 4549TIP3   OH235205   5.309   0.805   1.443  0.3746  0.0923 -0.6690
 4549TIP3    H135206   5.393   0.848   1.429  1.4634 -0.9188  2.1889
 4549TIP3    H235207   5.249   0.876   1.468  1.5986  0.3555  1.8281
 4550TIP3   OH235208   3.694   5.141   0.344 -0.2540 -0.3646 -0.1158
 4550TIP3    H135209   3.719   5.051   0.322  0.2398 -0.2131 -0.1891
 4550TIP3    H235210   3.773   5.179   0.381 -0.1334  0.3856 -1.1063
 4551TIP3   OH235211   1.017   6.727   0.320  0.1374  0.6078  0.0827
 4551TIP3    H135212   1.023   6.820   0.297 -0.9421  0.6781  0.0550
 4551TIP3    H235213   1.043   6.681   0.240 -1.1380  0.8834 -0.5176
 4552TIP3   OH235214   0.569   4.385   7.715 -0.1233  0.0269  0.2279
 4552TIP3    H135215   0.637   4.441   7.677  0.5850 -0.6993  0.4000
 4552TIP3    H235216   0.511   4.446   7.761 -1.3278  1.0043 -2.4165
 4553TIP3   OH235217   5.226   2.373   7.985 -0.3034 -0.0271 -0.2368
 4553TIP3    H135218   5.162   2.310   8.015 -0.5514 -0.4384 -1.5608
 4553TIP3    H235219   5.237   2.433   8.058 -1.7889 -0.2646  0.2105
 4554TIP3   OH235220   4.930   6.468   8.358 -0.5546  0.6377 -0.3726
 4554TIP3    H135221   4.855   6.448   8.302 -0.9634 -0.0371  0.3906
 4554TIP3    H235222   4.928   6.563   8.368 -1.4503  0.6100 -0.1858
 4555TIP3   OH235223   3.205   0.044   3.135  0.2094  0.0830 -0.4018
 4555TIP3    H135224   3.247   0.057   3.049 -0.6201  0.9956 -0.6835
 4555TIP3    H235225   3.118   0.011   3.114 -0.0647  0.4863  0.0770
 4556TIP3   OH235226   6.760   5.024   8.590 -0.1107 -0.1070 -0.3701
 4556TIP3    H135227   6.829   4.963   8.616  0.0253  0.7688  1.4672
 4556TIP3    H235228   6.700   4.971   8.537  1.4388 -1.1162 -1.1759
 4557TIP3   OH235229   3.216   5.688   0.504 -0.4423  0.1886  0.2277
 4557TIP3    H135230   3.294   5.726   0.465 -0.8993 -0.2988 -1.2209
 4557TIP3    H235231   3.239   5.674   0.596  1.2718 -0.2048 -0.2361
 4558TIP3   OH235232   2.193   0.882   2.770 -0.7174 -0.1197  0.8370
 4558TIP3    H135233   2.126   0.945   2.744 -0.5380  0.2656  1.2738
 4558TIP3    H235234   2.237   0.924   2.845  0.6256  0.0571 -0.0128
 4559TIP3   OH235235   5.158   3.983   2.387 -0.6551  0.0019  0.1230
 4559TIP3    H135236   5.117   4.059   2.428 -1.7942 -0.8835  0.6684
 4559TIP3    H235237   5.099   3.959   2.316  0.3961  0.4302 -0.9345
 4560TIP3   OH235238   5.352   3.650   1.993  0.0690 -0.3800 -0.4086
 4560TIP3    H135239   5.421   3.634   2.058  1.0758  0.6554 -1.1678
 4560TIP3    H235240   5.284   3.697   2.040  1.5358  1.8803 -0.4217
 4561TIP3   OH235241   0.939   1.735   2.557 -0.8931 -0.9399 -0.1769
 4561TIP3    H135242   0.983   1.820   2.547 -0.4270 -1.0656  0.7094
 4561TIP3    H235243   0.849   1.757   2.580 -0.7047 -0.6770  0.3255
 4562TIP3   OH235244   4.116   0.356   0.243 -0.0168 -0.5953  0.1866
 4562TIP3    H135245   4.081   0.425   0.299  1.0853 -0.5200  0.8043
 4562TIP3    H235246   4.192   0.396   0.201  0.6267 -1.4348  0.5468
 4563TIP3   OH235247   1.282   1.431   2.377  0.2899 -0.0082 -0.2215
 4563TIP3    H135248   1.195   1.470   2.388 -0.1297 -0.6695 -1.0411
 4563TIP3    H235249   1.293   1.374   2.452  0.2173  0.4294  0.1272
 4564TIP3   OH235250   2.430   6.477   7.157  0.1379  0.3699 -0.3999
 4564TIP3    H135251   2.353   6.449   7.108  0.4114  1.1481 -1.2929
 4564TIP3    H235252   2.468   6.548   7.105  0.1815  1.5429  1.1579
 4565TIP3   OH235253   3.510   3.749   0.843  0.1784 -0.4046 -0.4759
 4565TIP3    H135254   3.592   3.746   0.891  0.0053 -2.4170 -0.2148
 4565TIP3    H235255   3.536   3.750   0.751  0.4784  1.3082 -0.4116
 4566TIP3   OH235256   5.022   4.163   7.980  0.0812  0.1025 -0.0931
 4566TIP3    H135257   4.994   4.243   8.024  0.5480  0.4916 -0.4935
 4566TIP3    H235258   4.941   4.121   7.953 -0.1462  0.9750 -0.8201
 4567TIP3   OH235259   1.714   5.717   2.267  0.0455  0.1996  0.1155
 4567TIP3    H135260   1.746   5.741   2.354  0.0045 -0.1534  0.2301
 4567TIP3    H235261   1.774   5.760   2.206 -0.9995  1.9789  0.2854
 4568TIP3   OH235262   4.557   4.293   8.315  0.4140 -0.1128 -0.1203
 4568TIP3    H135263   4.531   4.326   8.229  0.6537  1.1191  0.2576
 4568TIP3    H235264   4.475   4.267   8.358  0.1585  0.5394 -0.2133
 4569TIP3   OH235265   4.598   0.370   2.360 -0.3018 -0.2850 -0.0740
 4569TIP3    H135266   4.693   0.376   2.371 -0.1580 -0.6202 -1.0860
 4569TIP3    H235267   4.574   0.454   2.319 -0.1454 -0.9890 -1.6859
 4570TIP3   OH235268   4.906   4.675   8.198  0.4498  0.3210 -0.0474
 4570TIP3    H135269   4.875   4.691   8.110  0.6605  0.1604 -0.1530
 4570TIP3    H235270   4.831   4.638   8.245 -0.3157  2.3472  0.4399
 4571TIP3   OH235271   3.067   4.347   7.743  0.2048  0.5859 -0.8204
 4571TIP3    H135272   3.109   4.264   7.766  2.3847  1.4899 -1.2931
 4571TIP3    H235273   3.055   4.342   7.648 -1.1114  0.2167 -0.6560
 4572TIP3   OH235274   6.372   2.223   1.142 -0.0724 -0.2613  0.0249
 4572TIP3    H135275   6.406   2.133   1.139  0.7480 -0.0951  2.2719
 4572TIP3    H235276   6.312   2.223   1.217 -1.0243  0.7811 -0.7071
 4573TIP3   OH235277   2.297   5.935   8.209 -0.1480  0.2773 -0.2149
 4573TIP3    H135278   2.380   5.951   8.164  0.2111 -1.1629 -0.1063
 4573TIP3    H235279   2.277   5.843   8.191 -2.4798  0.9444 -1.4833
 4574TIP3   OH235280   1.768   2.699   1.281 -0.0934  0.1864  0.5456
 4574TIP3    H135281   1.814   2.752   1.347 -0.3711  1.7195 -0.4423
 4574TIP3    H235282   1.753   2.615   1.325  1.9376  0.2772  1.5680
 4575TIP3   OH235283   4.080   1.167   8.542 -0.0473  0.1212  0.0574
 4575TIP3    H135284   4.025   1.233   8.499 -1.2913 -2.5121 -2.7279
 4575TIP3    H235285   4.035   1.149   8.625 -0.4752  1.6869  0.1954
 4576TIP3   OH235286   3.666   6.406   1.207 -0.0775 -0.1536  0.1289
 4576TIP3    H135287   3.721   6.406   1.286  0.7847  1.5049 -0.4156
 4576TIP3    H235288   3.632   6.317   1.201  0.4430 -0.5106  1.9525
 4577TIP3   OH235289   2.694   5.878   2.139 -0.1176 -0.2612  0.2080
 4577TIP3    H135290   2.634   5.938   2.095  0.5259 -0.4844 -1.0102
 4577TIP3    H235291   2.642   5.841   2.211 -1.7890 -1.2035 -1.3989
 4578TIP3   OH235292   4.987   2.119   7.296  0.0714 -0.0464  0.1852
 4578TIP3    H135293   5.058   2.056   7.308  1.1555  1.2441  0.8063
 4578TIP3    H235294   5.031   2.200   7.269 -1.2239  0.6382  0.0198
 4579TIP3   OH235295   1.462   5.339   0.218 -0.1758  0.1804 -0.3471
 4579TIP3    H135296   1.443   5.375   0.304 -0.2576  1.1292 -0.7520
 4579TIP3    H235297   1.376   5.317   0.182 -0.3642  2.1110 -1.1659
 4580TIP3   OH235298   1.958   4.626   8.475  0.2280  0.1063 -0.1652
 4580TIP3    H135299   1.997   4.548   8.436  1.2739 -0.4441  1.8201
 4580TIP3    H235300   2.030   4.689   8.483  0.3503 -0.2020  1.7645
 4581TIP3   OH235301   4.757   0.846   7.932 -0.6978  0.4506  0.4956
 4581TIP3    H135302   4.716   0.930   7.954  0.1023  1.6918 -2.4210
 4581TIP3    H235303   4.769   0.849   7.838 -0.9835 -3.1550  0.2314
 4582TIP3   OH235304   1.351   3.063   7.949 -0.1044 -0.0481  0.1538
 4582TIP3    H135305   1.433   3.045   7.903 -1.7513 -1.1847 -2.5443
 4582TIP3    H235306   1.355   3.007   8.027  0.7357 -1.8657 -1.1229
 4583TIP3   OH235307   0.797   0.701   8.873 -0.0896  0.4812 -0.4848
 4583TIP3    H135308   0.731   0.766   8.895 -0.1012 -0.1566  1.5502
 4583TIP3    H235309   0.748   0.625   8.843 -0.3168 -0.0387  1.1531
 4584TIP3   OH235310   0.340   3.001   6.882 -0.0279  0.4296  0.6381
 4584TIP3    H135311   0.371   2.917   6.917  0.9372  1.3270  1.9971
 4584TIP3    H235312   0.258   3.018   6.929 -1.4223 -0.7438 -1.1961
 4585TIP3   OH235313   3.990   5.450   2.605 -0.3781  0.1366 -0.1565
 4585TIP3    H135314   3.903   5.429   2.570 -1.0064  0.1346  1.3339
 4585TIP3    H235315   4.016   5.371   2.652 -0.2379  0.6685  0.6684
 4586TIP3   OH235316   1.093   0.354   2.012 -0.3447 -0.1091 -0.2502
 4586TIP3    H135317   1.174   0.304   2.012 -0.1022  0.2760 -0.5980
 4586TIP3    H235318   1.025   0.289   1.996 -0.0210 -0.3153 -0.8304
 4587TIP3   OH235319   2.392   3.037   0.563  0.1454  0.4552 -0.1736
 4587TIP3    H135320   2.313   3.057   0.513 -0.1899 -0.4474 -0.0328
 4587TIP3    H235321   2.462   3.041   0.499 -0.3297 -1.0728 -0.8346
 4588TIP3   OH235322   1.713   0.213   8.708  0.2296  0.1512 -0.4504
 4588TIP3    H135323   1.789   0.253   8.751 -0.5893  0.5885  0.6253
 4588TIP3    H235324   1.664   0.287   8.673  0.2542 -0.1313 -1.1091
 4589TIP3   OH235325   1.124   1.565   2.682 -0.0346  0.7936 -0.0964
 4589TIP3    H135326   1.058   1.520   2.735  0.0197 -0.4298 -1.0360
 4589TIP3    H235327   1.076   1.634   2.637 -0.5918  0.2250 -0.3898
 4590TIP3   OH235328   6.238   2.417   1.981  0.1392 -0.4142  0.0577
 4590TIP3    H135329   6.179   2.385   1.913 -0.5343  4.8967 -2.4050
 4590TIP3    H235330   6.182   2.464   2.042  1.3288 -0.0168  0.8847
 4591TIP3   OH235331   6.051   1.534   7.871 -0.5707  0.3268  0.2556
 4591TIP3    H135332   6.009   1.597   7.813 -0.8263  0.3991  0.5174
 4591TIP3    H235333   6.004   1.542   7.953 -0.2928  0.1327  0.4352
 4592TIP3   OH235334   1.027   6.723   2.158  0.0400 -0.0782 -0.3572
 4592TIP3    H135335   1.082   6.653   2.193 -1.0624 -0.6746  0.2560
 4592TIP3    H235336   0.984   6.683   2.082 -1.5118 -0.4975  0.6985
 4593TIP3   OH235337   2.386   4.192   7.160  0.3719  0.0821  0.0550
 4593TIP3    H135338   2.311   4.168   7.106  0.3429 -0.3131  0.2675
 4593TIP3    H235339   2.461   4.192   7.100  0.3101 -0.1830 -0.0212
 4594TIP3   OH235340   0.132   0.123   6.868  0.1599  0.3216  0.1582
 4594TIP3    H135341   0.187   0.062   6.917  1.1316  0.3610 -0.8229
 4594TIP3    H235342   0.184   0.204   6.865 -0.1477  0.5039 -0.3947
 4595TIP3   OH235343   2.014   6.638   1.581 -0.1227 -0.2819 -0.5084
 4595TIP3    H135344   2.001   6.709   1.519  0.4791 -0.9815 -1.4690
 4595TIP3    H235345   2.040   6.681   1.663 -2.0562  0.7222 -0.3757
 4596TIP3   OH235346   4.299   3.381   2.286  0.1326 -0.0966 -0.0735
 4596TIP3    H135347   4.208   3.393   2.314  0.6595  0.4492  1.5549
 4596TIP3    H235348   4.340   3.333   2.358  1.0717 -0.5960 -0.9155
 4597TIP3   OH235349   5.350   0.001   2.285  0.4041  0.2776 -0.3420
 4597TIP3    H135350   5.343   0.059   2.209  2.8574  0.9046 -0.1599
 4597TIP3    H235351   5.287  -0.069   2.267  0.7655  0.5071 -2.8500
 4598TIP3   OH235352   6.016   1.049   1.911  0.3012 -0.9546  0.4231
 4598TIP3    H135353   6.036   0.965   1.952  1.6531 -0.2886  1.2269
 4598TIP3    H235354   5.968   1.097   1.979  0.8483 -0.5495  0.5306
 4599TIP3   OH235355   2.403   3.287   8.283 -0.3132 -0.0520 -0.0984
 4599TIP3    H135356   2.335   3.338   8.328 -0.1819 -0.5883  0.7240
 4599TIP3    H235357   2.457   3.353   8.240 -1.8923  0.3510 -1.5952
 4600TIP3   OH235358   6.315   4.242   2.399  0.1358 -0.2359  0.1089
 4600TIP3    H135359   6.381   4.220   2.334 -0.6676  2.0442 -1.6626
 4600TIP3    H235360   6.242   4.184   2.380  0.3475 -0.3811 -0.2674
 4601TIP3   OH235361   2.563   4.397   8.418  0.8860 -0.4743 -0.1602
 4601TIP3    H135362   2.522   4.416   8.503 -0.2234 -2.0822 -0.2988
 4601TIP3    H235363   2.627   4.467   8.407  1.2290 -0.3434  2.1128
 4602TIP3   OH235364   0.358   5.615   2.340  0.8675  0.4369  0.2024
 4602TIP3    H135365   0.433   5.619   2.400  1.1972  1.8457 -0.2644
 4602TIP3    H235366   0.396   5.627   2.253  0.2576 -0.3780 -0.1870
 4603TIP3   OH235367   3.706   1.846   1.785 -0.3420  0.6208  0.0297
 4603TIP3    H135368   3.761   1.770   1.766 -1.3142  0.2306 -1.3254
 4603TIP3    H235369   3.718   1.861   1.879 -0.3385 -1.3646  0.3868
 4604TIP3   OH235370   6.339   3.890   7.861 -0.6471 -0.0756 -0.2364
 4604TIP3    H135371   6.265   3.847   7.818 -3.3593  1.4379  2.5068
 4604TIP3    H235372   6.329   3.983   7.841 -0.3397  0.3133  1.2361
 4605TIP3   OH235373   0.721   4.120   1.719 -0.1342  0.6235  0.0448
 4605TIP3    H135374   0.762   4.036   1.697  1.7891  1.8608 -1.4266
 4605TIP3    H235375   0.650   4.097   1.779  0.2878 -2.0433 -0.3520
 4606TIP3   OH235376   2.087   4.398   2.331  0.2783  0.4376 -0.1251
 4606TIP3    H135377   2.059   4.365   2.416  1.6751  1.2262  0.6700
 4606TIP3    H235378   2.017   4.458   2.304 -1.9153 -2.3976 -1.2284
 4607TIP3   OH235379   0.370   4.554   0.676 -0.0148  0.1850  0.0214
 4607TIP3    H135380   0.447   4.604   0.702 -0.8847  3.0413 -2.2216
 4607TIP3    H235381   0.366   4.565   0.581 -0.8490 -3.5515 -0.5014
 4608TIP3   OH235382   5.716   5.561   1.389  0.1226  0.3618 -0.3041
 4608TIP3    H135383   5.811   5.569   1.388  0.0821  1.0648  0.5504
 4608TIP3    H235384   5.686   5.629   1.448 -0.9423  0.3309 -0.7753
 4609TIP3   OH235385   4.574   6.495   1.318 -0.1053  0.0856  0.4885
 4609TIP3    H135386   4.481   6.471   1.308 -0.4913  1.8112 -0.3527
 4609TIP3    H235387   4.621   6.415   1.295 -1.3671 -0.6404  0.3099
 4610TIP3   OH235388   2.147   0.740   8.046 -0.0118  0.1380 -0.0254
 4610TIP3    H135389   2.191   0.817   8.011 -0.6722 -0.1219 -1.5041
 4610TIP3    H235390   2.110   0.769   8.129 -0.3313  1.4458 -0.6018
 4611TIP3   OH235391   5.755   5.700   7.949  0.5779  0.1088 -0.2490
 4611TIP3    H135392   5.747   5.704   7.854  2.3320 -0.2220 -0.4487
 4611TIP3    H235393   5.665   5.698   7.981 -0.0381 -0.2959 -1.9181
 4612TIP3   OH235394   1.670   4.652   8.414  0.2913 -0.3950  0.5376
 4612TIP3    H135395   1.694   4.674   8.324 -0.1297  1.2505  0.7942
 4612TIP3    H235396   1.753   4.629   8.456  0.6056 -0.3587 -0.0520
 4613TIP3   OH235397   2.857   6.284   0.317  0.0905 -0.1487  0.0526
 4613TIP3    H135398   2.807   6.310   0.394 -0.6831 -0.7737 -0.2265
 4613TIP3    H235399   2.875   6.191   0.330 -0.8615 -0.4943 -0.9471
 4614TIP3   OH235400   4.822   1.154   8.340  0.4543 -0.1361 -0.0073
 4614TIP3    H135401   4.888   1.095   8.376 -0.3203 -1.4485 -0.6661
 4614TIP3    H235402   4.744   1.138   8.393  0.4788  0.9880  0.3949
 4615TIP3   OH235403   3.712   3.471   1.714  0.3857  0.0482 -0.1242
 4615TIP3    H135404   3.740   3.432   1.631  0.4309 -0.6222  0.2013
 4615TIP3    H235405   3.639   3.416   1.743  1.0553 -0.3625  0.8060
 4616TIP3   OH235406   1.201   3.664   8.705  0.0078  0.5474 -0.4063
 4616TIP3    H135407   1.263   3.713   8.652  3.5214 -3.0470 -0.0665
 4616TIP3    H235408   1.118   3.710   8.693  1.8028  3.3484 -4.1974
 4617TIP3   OH235409   1.768   5.404   1.338  0.4101 -0.5374  0.3189
 4617TIP3    H135410   1.715   5.441   1.408 -2.1163  1.2278 -2.3268
 4617TIP3    H235411   1.746   5.311   1.337 -1.8630 -0.0388  0.0057
 4618TIP3   OH235412   0.224   2.300   0.773 -0.2312 -0.0880 -0.3833
 4618TIP3    H135413   0.311   2.303   0.813 -0.9854 -0.8425  1.4097
 4618TIP3    H235414   0.241   2.293   0.679  1.6168  0.9192 -0.1735
 4619TIP3   OH235415   6.332   5.855   2.337  0.3341 -0.2149  0.3788
 4619TIP3    H135416   6.393   5.872   2.265  0.7717 -0.8071  0.5966
 4619TIP3    H235417   6.246   5.849   2.295  0.6380 -0.9959 -0.1696
 4620TIP3   OH235418   2.987   4.673   8.174 -0.1143 -0.4629  0.1787
 4620TIP3    H135419   2.973   4.606   8.106 -2.6813  2.1216 -2.0986
 4620TIP3    H235420   3.061   4.724   8.141  0.4748 -0.8545  0.8510
 4621TIP3   OH235421   1.277   2.123   7.336 -0.4926 -0.0522 -0.1631
 4621TIP3    H135422   1.346   2.154   7.276  0.1422  0.4704  0.8042
 4621TIP3    H235423   1.211   2.193   7.333 -0.1001  0.3477  0.3226
 4622TIP3   OH235424   6.655   2.271   1.445 -0.5977 -0.1867  0.4703
 4622TIP3    H135425   6.690   2.322   1.372 -0.1090 -1.3824 -0.1701
 4622TIP3    H235426   6.565   2.252   1.421 -0.2613 -1.0992 -0.1525
 4623TIP3   OH235427   4.562   2.895   2.355  0.3631 -0.0552  0.0681
 4623TIP3    H135428   4.578   2.836   2.282 -0.0184 -0.6387  0.4479
 4623TIP3    H235429   4.593   2.847   2.432  2.0601  1.0996  0.1651
 4624TIP3   OH235430   1.086   1.299   0.090  0.0286  0.6167  0.7176
 4624TIP3    H135431   1.144   1.370   0.119  1.5610  0.9915 -2.8173
 4624TIP3    H235432   1.145   1.234   0.051 -1.6465 -0.9460  0.6788
 4625TIP3   OH235433   5.877   6.206   3.181  0.3506  0.3047 -0.0613
 4625TIP3    H135434   5.939   6.189   3.110  1.4501  0.8018  0.7587
 4625TIP3    H235435   5.890   6.298   3.203 -1.1199  0.5921 -0.2705
 4626TIP3   OH235436   6.390   1.356   1.433 -0.5843 -0.3785  0.1671
 4626TIP3    H135437   6.375   1.424   1.367 -0.3917  0.9728  1.4597
 4626TIP3    H235438   6.481   1.330   1.420 -0.1508  0.8025  0.6837
 4627TIP3   OH235439   5.135   2.392   1.548  0.8417 -0.3280 -0.2242
 4627TIP3    H135440   5.156   2.309   1.506  0.4138  0.5773 -2.3930
 4627TIP3    H235441   5.064   2.429   1.495  0.9381  1.3655  0.7332
 4628TIP3   OH235442   3.059   6.199   7.757  0.2875  0.0462 -0.2486
 4628TIP3    H135443   3.134   6.193   7.817  0.5654 -1.1416 -0.6890
 4628TIP3    H235444   3.093   6.171   7.673 -0.7839 -1.0711 -0.3294
 4629TIP3   OH235445   1.281   4.790   2.998  0.1030  0.2021 -0.1262
 4629TIP3    H135446   1.311   4.728   3.064  1.2723 -0.2472 -1.0707
 4629TIP3    H235447   1.358   4.842   2.977 -0.3600  0.5969 -0.8705
 4630TIP3   OH235448   5.754   3.363   0.381  0.1930  0.6822 -0.0123
 4630TIP3    H135449   5.791   3.297   0.439  1.7818  0.9736 -0.6513
 4630TIP3    H235450   5.824   3.426   0.367 -1.1901  2.3984  0.3571
 4631TIP3   OH235451   5.237   0.257   6.903  0.0810  0.3746  0.4778
 4631TIP3    H135452   5.163   0.279   6.960 -0.8856 -2.2142  0.3331
 4631TIP3    H235453   5.225   0.314   6.827 -1.2949  0.5876  0.8182
 4632TIP3   OH235454   2.923   0.431   2.107  0.0489  0.3867  0.4236
 4632TIP3    H135455   2.956   0.472   2.187 -0.3433 -1.4278  1.5807
 4632TIP3    H235456   2.995   0.377   2.075 -0.5838 -0.8333  0.9834
 4633TIP3   OH235457   0.208   3.767   7.391 -0.5776 -0.0039 -0.2200
 4633TIP3    H135458   0.123   3.777   7.348  0.2122  0.8106 -1.6296
 4633TIP3    H235459   0.245   3.687   7.353 -1.1548 -1.0184  1.2333
 4634TIP3   OH235460   0.752   5.890   1.665  0.5821  0.2042  0.4734
 4634TIP3    H135461   0.744   5.808   1.714 -1.9447  0.0128 -0.1385
 4634TIP3    H235462   0.700   5.953   1.714 -0.2353  0.5565 -0.7851
 4635TIP3   OH235463   2.359   2.214   2.191 -0.0439 -0.1181 -0.2116
 4635TIP3    H135464   2.343   2.285   2.130 -0.8929  0.6449  0.8643
 4635TIP3    H235465   2.417   2.154   2.144  2.0337  2.0508 -0.5756
 4636TIP3   OH235466   1.212   5.504   0.894 -0.7577  0.0349  0.0406
 4636TIP3    H135467   1.256   5.469   0.971 -1.0529 -0.8683 -0.1851
 4636TIP3    H235468   1.279   5.504   0.826 -0.5123  0.7803  0.2789
 4637TIP3   OH235469   3.433   1.164   1.925  0.3118  0.1733  0.0276
 4637TIP3    H135470   3.425   1.198   2.013  1.0609 -1.3597  0.7359
 4637TIP3    H235471   3.443   1.241   1.869 -1.3130  1.2102  1.1251
 4638TIP3   OH235472   0.103   4.848   1.434 -0.5779 -0.3527  0.4422
 4638TIP3    H135473   0.087   4.851   1.528  0.0885  1.8591  0.5437
 4638TIP3    H235474   0.123   4.757   1.415 -0.8407 -0.8522  2.4209
 4639TIP3   OH235475   1.266   2.057   8.847  0.4910  0.5411  0.1200
 4639TIP3    H135476   1.205   2.096   8.785 -0.9441 -2.4186 -0.4936
 4639TIP3    H235477   1.325   2.005   8.793 -0.2426 -1.3822  1.0764
 4640TIP3   OH235478   0.608   3.604   0.185  0.6505  0.5051 -0.5800
 4640TIP3    H135479   0.641   3.694   0.182  0.6195  0.6145  1.3010
 4640TIP3    H235480   0.513   3.614   0.184  0.6183  0.6100  1.0599
 4641TIP3   OH235481   3.319   3.628   0.505 -0.1457  0.1381  0.0343
 4641TIP3    H135482   3.266   3.571   0.560 -0.5520  0.9522  0.5014
 4641TIP3    H235483   3.336   3.576   0.426 -0.4252 -0.6562  0.4851
 4642TIP3   OH235484   3.213   3.269   8.547 -0.8400  0.1043  0.2753
 4642TIP3    H135485   3.197   3.174   8.547 -0.7653  0.0494 -1.6980
 4642TIP3    H235486   3.147   3.304   8.607 -0.6292 -1.2128  1.3418
 4643TIP3   OH235487   3.510   4.673   1.966  0.7071 -0.5499  0.1660
 4643TIP3    H135488   3.452   4.720   1.906  0.3559  0.1530  1.0352
 4643TIP3    H235489   3.452   4.629   2.028  1.0304 -2.1853 -0.6331
 4644TIP3   OH235490   5.964   5.691   2.010  0.0881  0.4103  0.1067
 4644TIP3    H135491   5.914   5.702   1.929 -2.3255 -0.1876  1.4107
 4644TIP3    H235492   6.001   5.603   2.004  0.6855  0.7072 -0.7144
 4645TIP3   OH235493   5.294   5.077   0.147  0.1841 -0.8275 -0.4072
 4645TIP3    H135494   5.316   4.989   0.118  0.4721 -1.1495  0.7430
 4645TIP3    H235495   5.344   5.135   0.090 -0.1932 -1.3873 -1.3276
 4646TIP3   OH235496   0.411   2.120   8.350  0.6056  0.0528  0.4883
 4646TIP3    H135497   0.349   2.063   8.304  2.6157 -1.4229 -0.5569
 4646TIP3    H235498   0.421   2.079   8.436 -0.5389  0.8346  1.0128
 4647TIP3   OH235499   1.592   2.295   7.909 -0.1094  0.3664  0.4648
 4647TIP3    H135500   1.604   2.240   7.831  0.0554  2.2367 -0.9024
 4647TIP3    H235501   1.671   2.350   7.912 -0.7840  1.3247  1.1055
 4648TIP3   OH235502   5.393   4.020   0.968  0.4429 -0.0134  0.0049
 4648TIP3    H135503   5.337   4.062   0.904 -1.8471 -1.5004  0.9149
 4648TIP3    H235504   5.422   4.091   1.025  1.3798  1.1056 -1.7796
 4649TIP3   OH235505   4.987   2.614   0.692 -0.3085 -0.6438  0.5173
 4649TIP3    H135506   5.023   2.694   0.730  0.5691 -0.4363 -0.6702
 4649TIP3    H235507   4.897   2.609   0.725 -0.4496  0.9664  0.4395
 4650TIP3   OH235508   3.532   2.366   7.538 -0.0001 -0.5245  0.8098
 4650TIP3    H135509   3.536   2.299   7.470 -2.2260  0.1243 -0.0474
 4650TIP3    H235510   3.595   2.433   7.509  0.3762 -1.0664  0.3448
 4651TIP3   OH235511   5.950   6.521   1.328  0.0060 -0.3127 -0.1452
 4651TIP3    H135512   5.950   6.541   1.235  0.8402 -1.2334 -0.3544
 4651TIP3    H235513   5.920   6.430   1.334 -0.6994 -0.0528  0.5471
 4652TIP3   OH235514   2.064   5.858   0.868  0.2472 -0.0705 -0.4374
 4652TIP3    H135515   2.091   5.809   0.791  1.5240  1.4352 -0.9886
 4652TIP3    H235516   1.981   5.899   0.842  1.2500  1.3951 -1.4986
 4653TIP3   OH235517   5.359   0.562   8.371  0.9740 -0.2151 -0.1594
 4653TIP3    H135518   5.390   0.476   8.397  1.2101  0.2650  1.1857
 4653TIP3    H235519   5.419   0.624   8.413 -0.4156  0.6597  0.6117
 4654TIP3   OH235520   4.502   4.502   2.091 -0.4417  0.1333  0.2695
 4654TIP3    H135521   4.513   4.484   2.184  1.4680 -0.9371 -0.1048
 4654TIP3    H235522   4.584   4.544   2.064 -0.2219 -1.1442 -1.2477
 4655TIP3   OH235523   1.418   0.453   1.780 -0.0838 -0.4868  0.8102
 4655TIP3    H135524   1.489   0.393   1.804 -1.0987 -1.4539  1.5035
 4655TIP3    H235525   1.440   0.535   1.824  0.5331 -0.8174  1.1335
 4656TIP3   OH235526   2.264   0.461   7.702  0.0909 -0.8086  0.2359
 4656TIP3    H135527   2.288   0.505   7.783 -1.1772  1.2986 -0.4298
 4656TIP3    H235528   2.325   0.495   7.637 -1.8796  1.4021 -0.6161
 4657TIP3   OH235529   6.203   2.064   8.616  0.1600  0.6610  0.2687
 4657TIP3    H135530   6.157   2.120   8.678  2.1203  2.4948  0.1780
 4657TIP3    H235531   6.240   1.994   8.669 -0.0537  0.9500  0.8019
 4658TIP3   OH235532   6.376   2.250   1.527  0.3709  0.1010 -0.2422
 4658TIP3    H135533   6.305   2.228   1.466 -1.4435 -1.8853  2.3754
 4658TIP3    H235534   6.345   2.328   1.572  0.8477  0.4656 -0.5358
 4659TIP3   OH235535   4.103   6.293   8.307 -0.1733 -0.1433  0.0200
 4659TIP3    H135536   4.171   6.231   8.281  1.3714  1.2790  0.5068
 4659TIP3    H235537   4.119   6.309   8.400 -1.0697  0.3679  0.1027
 4660TIP3   OH235538   3.457   0.901   0.561  0.0704  0.6525  0.0319
 4660TIP3    H135539   3.411   0.836   0.508  0.9860  0.8531 -1.0581
 4660TIP3    H235540   3.539   0.859   0.585  1.2312  1.7993 -1.7390
 4661TIP3   OH235541   1.844   4.228   8.508  0.1823 -0.4809  1.0093
 4661TIP3    H135542   1.766   4.181   8.478 -0.3282  1.1388 -0.3401
 4661TIP3    H235543   1.866   4.287   8.436  0.9279  1.1638  2.5134
 4662TIP3   OH235544   2.823   0.444   2.587 -0.2161  1.0920 -0.5887
 4662TIP3    H135545   2.846   0.509   2.653 -0.6215 -0.0766  0.7556
 4662TIP3    H235546   2.837   0.360   2.630 -1.2369  0.2952 -1.7364
 4663TIP3   OH235547   3.539   2.209   0.606 -0.4380  0.3558  0.1906
 4663TIP3    H135548   3.491   2.237   0.684 -0.4169  0.1754  0.2702
 4663TIP3    H235549   3.601   2.144   0.639  0.4649  1.2152  0.2222
 4664TIP3   OH235550   3.590   2.040   7.856  0.2773 -0.0069  0.4294
 4664TIP3    H135551   3.537   1.989   7.918 -0.3917 -1.4631 -1.2457
 4664TIP3    H235552   3.529   2.062   7.785  1.2691  0.6942 -0.2359
 4665TIP3   OH235553   0.377   5.018   3.105 -0.1179 -0.2045  0.7630
 4665TIP3    H135554   0.335   5.076   3.041  2.3344  0.8685 -0.0055
 4665TIP3    H235555   0.388   4.935   3.058  1.1110  0.3886 -0.0729
 4666TIP3   OH235556   3.536   0.218   1.350  0.7130 -0.4569  0.0734
 4666TIP3    H135557   3.609   0.275   1.372  0.6086 -0.3204  0.0711
 4666TIP3    H235558   3.478   0.273   1.296 -0.3030  0.0217  1.6031
 4667TIP3   OH235559   2.394   0.922   2.254  0.1329 -0.1055  0.0911
 4667TIP3    H135560   2.423   0.991   2.194  0.9066  0.2090  0.8036
 4667TIP3    H235561   2.315   0.887   2.214  2.3230 -2.1132 -2.7800
 4668TIP3   OH235562   6.380   1.373   1.719 -0.2294  0.2296 -0.4383
 4668TIP3    H135563   6.387   1.348   1.627  0.9464 -0.4009 -0.1996
 4668TIP3    H235564   6.368   1.290   1.766 -1.2687  0.5877 -0.0561
 4669TIP3   OH235565   2.585   2.782   8.752 -0.1248  0.7447  0.5736
 4669TIP3    H135566   2.680   2.788   8.760  0.0469  1.0917 -1.3101
 4669TIP3    H235567   2.569   2.698   8.709 -0.4211  1.9107 -1.7632
 4670TIP3   OH235568   6.246   1.226   8.573 -0.3801  0.4240  0.3285
 4670TIP3    H135569   6.203   1.142   8.590 -1.6783  1.3446  1.8586
 4670TIP3    H235570   6.317   1.230   8.636  0.5516 -0.0837 -0.6554
 4671TIP3   OH235571   0.609   6.159   8.557 -0.0575  0.1334  0.0564
 4671TIP3    H135572   0.600   6.072   8.518  0.4766  0.4957 -0.9114
 4671TIP3    H235573   0.698   6.186   8.536 -0.5548  1.3553 -0.5877
 4672TIP3   OH235574   1.096   4.650   0.450  0.5251 -0.5111 -0.6847
 4672TIP3    H135575   1.148   4.634   0.370 -0.1088 -2.3231 -0.7724
 4672TIP3    H235576   1.111   4.573   0.504  0.6287  0.5203  0.8132
 4673TIP3   OH235577   5.557   3.435   1.771  0.3397  0.3703  0.3060
 4673TIP3    H135578   5.529   3.357   1.723 -2.5223  1.5836 -0.2172
 4673TIP3    H235579   5.513   3.429   1.855  1.7613  0.4676  1.0897
 4674TIP3   OH235580   2.298   4.367   2.078  0.3337  0.2061  0.0131
 4674TIP3    H135581   2.214   4.346   2.119  0.1048 -1.8021 -1.3519
 4674TIP3    H235582   2.364   4.328   2.136  0.3958  2.0871  1.2713
 4675TIP3   OH235583   3.354   4.794   1.725  0.4333 -0.3025  0.4363
 4675TIP3    H135584   3.290   4.865   1.733 -0.6864 -1.0904 -1.0707
 4675TIP3    H235585   3.402   4.813   1.644 -0.8962 -1.9949 -0.8192
 4676TIP3   OH235586   6.535   3.096   0.560  0.5419  0.1067 -0.4081
 4676TIP3    H135587   6.579   3.016   0.531 -2.0705 -2.0661  1.0856
 4676TIP3    H235588   6.555   3.102   0.654 -0.3336  0.4311 -0.2234
 4677TIP3   OH235589   1.824   1.941   8.063 -0.3183  0.5833 -0.3354
 4677TIP3    H135590   1.789   1.968   8.148  0.0972  1.2670 -0.3745
 4677TIP3    H235591   1.761   1.877   8.031 -0.5515  0.4138  0.4274
 4678TIP3   OH235592   3.643   3.687   1.897 -0.4285  0.0832 -0.4120
 4678TIP3    H135593   3.550   3.691   1.876 -0.5978 -2.3358 -0.4008
 4678TIP3    H235594   3.681   3.633   1.827  1.0075  1.0844 -0.4520
 4679TIP3   OH235595   4.942   3.842   7.568 -0.6732  0.1931 -0.6364
 4679TIP3    H135596   5.017   3.810   7.518 -0.4641 -0.2790 -0.0402
 4679TIP3    H235597   4.956   3.936   7.575  0.9569 -0.1195  1.1695
 4680TIP3   OH235598   5.386   1.667   1.917  0.2888  0.3916 -0.3073
 4680TIP3    H135599   5.470   1.681   1.961 -0.0623  1.1478  0.1447
 4680TIP3    H235600   5.364   1.753   1.881  0.0465  0.0330 -1.0471
 4681TIP3   OH235601   1.222   2.558   0.741 -0.3546  0.7200 -0.4796
 4681TIP3    H135602   1.143   2.535   0.693 -1.0609 -0.1301  1.0346
 4681TIP3    H235603   1.198   2.637   0.790  0.3542  1.5698 -1.4398
 4682TIP3   OH235604   6.333   5.304   1.829  0.2588 -0.2965  0.1140
 4682TIP3    H135605   6.410   5.326   1.777  0.8368 -1.0009  0.6549
 4682TIP3    H235606   6.356   5.327   1.919 -0.5180  0.3683  0.1593
 4683TIP3   OH235607   0.401   1.814   6.848  0.5089  0.0416  0.0996
 4683TIP3    H135608   0.315   1.854   6.856  0.1104 -0.9344  1.0033
 4683TIP3    H235609   0.460   1.887   6.829 -0.0300  1.2769  2.6807
 4684TIP3   OH235610   4.056   6.004   1.452  0.2038  0.6553  0.1548
 4684TIP3    H135611   3.975   6.050   1.431  0.3406  1.7820  1.8528
 4684TIP3    H235612   4.093   5.979   1.368 -1.1581  1.4461 -0.7090
 4685TIP3   OH235613   0.888   5.336   1.125  0.1888  0.1088 -0.1955
 4685TIP3    H135614   0.880   5.410   1.186  0.0131 -1.5851  1.9528
 4685TIP3    H235615   0.815   5.347   1.064 -2.0101 -0.1195  2.2152
 4686TIP3   OH235616   4.779   1.690   7.259  0.2989  0.4661  0.3730
 4686TIP3    H135617   4.692   1.664   7.227  0.2921 -0.1843  0.9116
 4686TIP3    H235618   4.760   1.744   7.336  0.3285  1.7080 -0.4606
 4687TIP3   OH235619   1.435   2.238   1.455  0.0340 -0.0587 -0.4054
 4687TIP3    H135620   1.367   2.305   1.466  0.7256  0.6341 -0.2705
 4687TIP3    H235621   1.474   2.230   1.542 -0.1087 -0.7182 -0.3989
 4688TIP3   OH235622   2.890   5.040   1.631  0.1399 -0.0158  0.1656
 4688TIP3    H135623   2.945   5.012   1.557  0.2636 -0.6173  0.4760
 4688TIP3    H235624   2.830   4.966   1.645 -0.4465  0.4482  0.1229
 4689TIP3   OH235625   6.578   6.443   8.701  0.2894  0.7395  0.1634
 4689TIP3    H135626   6.657   6.391   8.686 -2.1271 -2.6131 -3.1902
 4689TIP3    H235627   6.536   6.401   8.776 -0.1660 -0.3134 -0.6353
 4690TIP3   OH235628   0.835   2.787   8.757 -0.4621 -0.0192 -0.4502
 4690TIP3    H135629   0.930   2.797   8.750 -0.2857  0.0222  1.5198
 4690TIP3    H235630   0.804   2.795   8.667  1.3228  0.7792 -1.0513
 4691TIP3   OH235631   3.485   6.729   2.377  0.4705  0.4436 -0.0813
 4691TIP3    H135632   3.454   6.654   2.326 -0.1616  0.2458  0.5765
 4691TIP3    H235633   3.543   6.691   2.443 -1.1181  0.3128  1.2900
 4692TIP3   OH235634   1.036   5.953   0.494 -0.5779  0.2821  0.7294
 4692TIP3    H135635   0.990   6.012   0.554 -0.7251 -1.2827  2.2483
 4692TIP3    H235636   0.968   5.922   0.434 -0.8892  0.2142  1.1123
 4693TIP3   OH235637   3.373   0.037   7.461 -0.4168  0.5752 -0.1770
 4693TIP3    H135638   3.429  -0.012   7.401 -0.3182  0.4788 -0.0063
 4693TIP3    H235639   3.432   0.098   7.505 -0.7357  1.7649 -1.3093
 4694TIP3   OH235640   5.453   1.565   1.039  0.0570 -0.0126  0.0743
 4694TIP3    H135641   5.385   1.616   1.084 -1.6853 -0.9554 -1.3235
 4694TIP3    H235642   5.521   1.552   1.104 -1.2806  0.6732  1.6810
 4695TIP3   OH235643   5.770   4.338   1.956 -0.3598  0.3937 -0.1905
 4695TIP3    H135644   5.806   4.250   1.959 -0.6066  0.1992 -1.8706
 4695TIP3    H235645   5.846   4.395   1.967 -0.2114 -0.0012  0.9891
 4696TIP3   OH235646   3.112   2.702   1.835 -0.0440  0.1917  0.0909
 4696TIP3    H135647   3.190   2.659   1.871  1.1039  0.8355 -1.4953
 4696TIP3    H235648   3.068   2.634   1.786  0.0047  0.0350  0.2640
 4697TIP3   OH235649   1.549   5.782   2.573 -0.4345 -0.3636  0.0309
 4697TIP3    H135650   1.506   5.827   2.645  1.1715  1.8349 -0.2638
 4697TIP3    H235651   1.612   5.724   2.615  0.4992  0.9090  0.4490
 4698TIP3   OH235652   1.947   1.561   0.539  0.2296 -0.9313 -0.2728
 4698TIP3    H135653   1.885   1.600   0.478 -0.5520 -0.9501  0.4961
 4698TIP3    H235654   1.988   1.490   0.490 -0.9392 -1.4367 -0.5494
 4699TIP3   OH235655   6.523   2.040   1.604 -0.0738 -0.1667 -0.6230
 4699TIP3    H135656   6.604   2.075   1.642 -0.2648 -0.1554 -0.2101
 4699TIP3    H235657   6.469   2.118   1.589 -0.5622 -0.2801  0.4464
 4700TIP3   OH235658   4.671   6.260   1.261 -0.1923 -0.0735  0.1846
 4700TIP3    H135659   4.675   6.183   1.206  2.4010  0.7672 -0.9446
 4700TIP3    H235660   4.736   6.245   1.329  0.4879  1.1539 -0.1555
 4701TIP3   OH235661   0.260   0.181   1.929  0.6254  0.0927  0.5764
 4701TIP3    H135662   0.214   0.257   1.963 -2.6027 -1.8603  1.0552
 4701TIP3    H235663   0.246   0.185   1.834  1.0142  0.4164  0.5315
 4702TIP3   OH235664   5.503   3.384   0.355 -0.2640  0.0654  0.0928
 4702TIP3    H135665   5.471   3.351   0.439 -0.7617  1.9762  0.6933
 4702TIP3    H235666   5.598   3.381   0.362 -0.3063 -0.4076  0.4607
 4703TIP3   OH235667   2.178   6.524   2.906 -0.2713  0.4326 -0.5532
 4703TIP3    H135668   2.091   6.536   2.868  0.0394 -0.3945 -1.5744
 4703TIP3    H235669   2.197   6.608   2.949 -1.1489  0.9739 -1.1814
 4704TIP3   OH235670   3.714   0.793   7.663  0.3528  0.2487  0.0625
 4704TIP3    H135671   3.788   0.853   7.668 -0.8595  1.9199 -1.0497
 4704TIP3    H235672   3.638   0.849   7.647 -1.3534 -1.2981  2.0924
 4705TIP3   OH235673   5.402   1.602   8.357  0.3783  0.6923  0.0981
 4705TIP3    H135674   5.319   1.638   8.328 -0.9948 -0.6315  2.1061
 4705TIP3    H235675   5.451   1.586   8.276 -0.4760  3.3184 -1.0161
 4706TIP3   OH235676   4.440   3.434   0.109 -0.0363  0.5630 -0.3604
 4706TIP3    H135677   4.436   3.444   0.204 -0.3311  2.1883 -0.5078
 4706TIP3    H235678   4.477   3.516   0.078  0.5744 -0.1633 -1.6322
 4707TIP3   OH235679   2.469   4.620   2.504  0.8005 -0.0308 -0.7321
 4707TIP3    H135680   2.445   4.533   2.472 -1.7670  0.1710  0.3531
 4707TIP3    H235681   2.386   4.669   2.504  1.8983  1.9447  0.0742
 4708TIP3   OH235682   5.584   1.897   7.226  0.0111 -0.2058  0.1113
 4708TIP3    H135683   5.527   1.846   7.169  1.9376 -2.4689  0.0662
 4708TIP3    H235684   5.656   1.926   7.170  0.8357 -0.6492  0.9044
 4709TIP3   OH235685   0.022   1.897   7.377  0.1626 -0.2133  0.0727
 4709TIP3    H135686  -0.026   1.902   7.460  1.8051  1.4205  1.0117
 4709TIP3    H235687  -0.045   1.883   7.311 -1.1453 -2.4158  1.7173
 4710TIP3   OH235688   5.654   0.458   8.230 -0.5694  0.3649 -0.0345
 4710TIP3    H135689   5.605   0.509   8.294  1.4430  0.8659  1.2001
 4710TIP3    H235690   5.720   0.519   8.196 -0.5727 -0.3555 -1.4211
 4711TIP3   OH235691   2.040   4.965   1.369  0.3637  0.0462  0.5647
 4711TIP3    H135692   1.979   4.908   1.322 -1.3328  1.6426  0.7155
 4711TIP3    H235693   2.009   4.964   1.460  0.6658  0.7598  0.6821
 4712TIP3   OH235694   2.586   6.009   1.231 -0.9449 -0.1111 -0.1573
 4712TIP3    H135695   2.499   6.049   1.221  0.2585  2.5949 -0.6172
 4712TIP3    H235696   2.612   5.986   1.142 -0.2215  1.3833 -0.3595
 4713TIP3   OH235697   0.214   5.750   2.670 -0.5148 -0.4655  0.0264
 4713TIP3    H135698   0.259   5.815   2.616 -2.4201 -0.5305 -1.7592
 4713TIP3    H235699   0.280   5.683   2.687  0.4261  0.0334 -1.4379
 4714TIP3   OH235700   2.761   1.585   1.006  0.0010 -0.0079  0.0619
 4714TIP3    H135701   2.673   1.566   0.975 -0.0943  0.7729 -0.1597
 4714TIP3    H235702   2.796   1.500   1.033 -1.4695 -0.0836  1.8752
 4715TIP3   OH235703   2.310   3.954   7.637 -0.4347 -0.1216 -0.4208
 4715TIP3    H135704   2.358   3.878   7.605 -0.3294  1.0131 -3.2697
 4715TIP3    H235705   2.376   4.008   7.681 -0.4052 -1.3410  1.1230
 4716TIP3   OH235706   1.244   0.511   8.181 -0.1269 -0.2290  0.1546
 4716TIP3    H135707   1.302   0.524   8.256  0.6312 -2.8015  0.0993
 4716TIP3    H235708   1.294   0.546   8.107  0.8777 -1.2994  0.2960
 4717TIP3   OH235709   2.064   5.312   1.904  0.4245  0.1774 -0.0358
 4717TIP3    H135710   2.119   5.385   1.930  1.4792 -0.0119 -1.5646
 4717TIP3    H235711   2.064   5.253   1.980 -1.1900  2.1196  1.5547
 4718TIP3   OH235712   2.020   4.575   8.817  0.2693  0.0158 -0.1349
 4718TIP3    H135713   2.110   4.550   8.835  0.6736  0.1881 -1.7768
 4718TIP3    H235714   1.974   4.492   8.801 -0.1756 -0.1696  1.8180
 4719TIP3   OH235715   3.351   2.086   1.434 -0.4400  0.1108  0.1225
 4719TIP3    H135716   3.312   2.003   1.461 -0.0177  0.0947  0.7172
 4719TIP3    H235717   3.311   2.151   1.493 -0.4708  0.2677 -0.0719
 4720TIP3   OH235718   3.174   5.686   7.791 -0.1887 -0.3475  0.5136
 4720TIP3    H135719   3.159   5.716   7.701  2.9722 -1.4154 -0.5277
 4720TIP3    H235720   3.198   5.593   7.781 -0.3495 -0.6599  2.5593
 4721TIP3   OH235721   1.363   3.511   8.006  0.3369 -0.1468 -0.5786
 4721TIP3    H135722   1.338   3.595   8.043  1.6494 -0.4183  1.0332
 4721TIP3    H235723   1.282   3.458   8.009 -0.1425  0.5923 -0.2917
 4722TIP3   OH235724   5.060   4.690   1.607 -0.0768  0.1441  0.1047
 4722TIP3    H135725   5.146   4.709   1.645 -0.1654  0.6339  0.0652
 4722TIP3    H235726   5.071   4.707   1.513 -0.4476  1.0539  0.2180
 4723TIP3   OH235727   2.023   0.065   8.391  0.5761  0.3444 -0.2544
 4723TIP3    H135728   1.936   0.060   8.431  1.0143 -0.7464  0.6102
 4723TIP3    H235729   2.006   0.074   8.297 -0.4774 -0.5633 -0.1707
 4724TIP3   OH235730   3.072   3.485   0.556 -0.2484 -0.3669 -0.2475
 4724TIP3    H135731   3.061   3.399   0.596 -0.9084  0.1673  0.7456
 4724TIP3    H235732   3.041   3.547   0.622 -0.0023  0.6275 -1.0355
 4725TIP3   OH235733   2.729   4.083   0.241 -0.1668  0.5809 -0.2220
 4725TIP3    H135734   2.721   4.050   0.330  0.7484  1.7758  0.3353
 4725TIP3    H235735   2.823   4.097   0.229  0.1060 -2.1682 -2.3886
 4726TIP3   OH235736   1.025   3.810   1.139 -0.4933  0.5227 -0.1011
 4726TIP3    H135737   1.048   3.901   1.156 -0.6673  0.3848  0.9697
 4726TIP3    H235738   0.930   3.810   1.129 -0.6145  0.3371  0.8995
 4727TIP3   OH235739   3.097   4.875   0.311  0.2428 -0.1333 -0.2321
 4727TIP3    H135740   3.184   4.893   0.348  0.0440 -0.2260  0.2771
 4727TIP3    H235741   3.062   4.962   0.290  0.9410 -0.1430 -1.5705
 4728TIP3   OH235742   4.371   1.528   8.032  0.3580 -0.6409 -0.3232
 4728TIP3    H135743   4.291   1.576   8.014  0.6366  0.0804  0.3052
 4728TIP3    H235744   4.438   1.595   8.045  1.3054 -1.2399 -1.8264
 4729TIP3   OH235745   4.781   3.264   0.666  0.2925  0.2073  0.5603
 4729TIP3    H135746   4.805   3.349   0.628 -0.3851  0.5121  0.7948
 4729TIP3    H235747   4.771   3.281   0.759 -1.9850  0.4042  0.3425
 4730TIP3   OH235748   6.273   2.671   8.715  0.3710 -0.4082  0.4833
 4730TIP3    H135749   6.234   2.584   8.706 -1.7928  0.6413 -1.2149
 4730TIP3    H235750   6.213   2.718   8.773  1.5468 -0.0065  1.4327
 4731TIP3   OH235751   4.771   0.852   1.094 -0.4327  0.1307 -0.2661
 4731TIP3    H135752   4.719   0.830   1.171  2.5611  0.0735  1.9437
 4731TIP3    H235753   4.730   0.932   1.059 -1.5525  0.5041  1.7493
 4732TIP3   OH235754   6.675   6.331   2.318  0.1425  0.4582  0.1625
 4732TIP3    H135755   6.770   6.346   2.315  0.3713 -0.6710  1.1167
 4732TIP3    H235756   6.645   6.382   2.393  0.1520  0.0726  0.4323
 4733TIP3   OH235757   6.661   0.505   0.252 -0.1578  0.0126 -0.1075
 4733TIP3    H135758   6.606   0.538   0.180 -0.4781  0.3384  0.2796
 4733TIP3    H235759   6.603   0.506   0.328 -0.1768 -1.4635 -0.0798
 4734TIP3   OH235760   1.606   6.043   0.897 -0.1530  0.1849 -0.0718
 4734TIP3    H135761   1.623   6.132   0.927  0.4993  0.0779 -0.0925
 4734TIP3    H235762   1.511   6.033   0.901 -0.2690  1.0364 -0.5053
 4735TIP3   OH235763   0.851   3.808   0.428  0.0936 -0.9450 -0.2631
 4735TIP3    H135764   0.757   3.806   0.448 -0.2043  2.3558 -0.7151
 4735TIP3    H235765   0.855   3.793   0.333  0.1168 -1.8282 -0.1291
 4736TIP3   OH235766   6.685   3.685   2.516 -0.6291  0.6705 -0.6970
 4736TIP3    H135767   6.590   3.699   2.519 -1.0530 -1.9547  0.2057
 4736TIP3    H235768   6.720   3.748   2.580 -2.0232  0.0193  0.7653
 4737TIP3   OH235769   5.240   4.796   2.471  0.2122  0.2377  0.4229
 4737TIP3    H135770   5.308   4.730   2.459  0.5486  0.4023  1.3718
 4737TIP3    H235771   5.211   4.816   2.382  1.2387  0.0049  0.0195
 4738TIP3   OH235772   0.328   3.387   7.953 -0.3451 -0.6167 -0.0241
 4738TIP3    H135773   0.368   3.472   7.935 -0.6491 -0.6563 -0.9080
 4738TIP3    H235774   0.324   3.383   8.049 -0.2233  0.3091  0.0343
 4739TIP3   OH235775   3.179   1.310   8.723 -0.3134  0.6084  0.5646
 4739TIP3    H135776   3.092   1.277   8.700  0.0030 -0.0605  0.2958
 4739TIP3    H235777   3.170   1.405   8.724 -0.5695  0.6352 -1.4089
 4740TIP3   OH235778   4.211   4.924   8.339 -0.5060  0.2185  0.2308
 4740TIP3    H135779   4.250   4.905   8.425 -3.5437 -0.2084  1.6439
 4740TIP3    H235780   4.184   4.838   8.306 -1.7308  0.6494  0.0905
 4741TIP3   OH235781   1.790   1.104   1.902  0.6587  0.8633  0.0543
 4741TIP3    H135782   1.780   1.199   1.901  0.0033  0.8213  0.9482
 4741TIP3    H235783   1.717   1.072   1.848  0.4127  0.8398  0.3997
 4742TIP3   OH235784   0.136   2.316   1.555 -0.1547 -0.1890  0.4245
 4742TIP3    H135785   0.068   2.287   1.494 -0.1697 -1.5545  1.0594
 4742TIP3    H235786   0.151   2.408   1.531  0.3182 -0.8320 -2.0815
 4743TIP3   OH235787   2.303   0.131   8.859 -0.5698  0.4709 -0.0557
 4743TIP3    H135788   2.254   0.137   8.940  0.8116  0.3105  0.8249
 4743TIP3    H235789   2.370   0.199   8.866  0.5061 -0.5104 -0.3598
 4744TIP3   OH235790   1.533   4.755   0.083 -0.0962  0.1939 -0.0709
 4744TIP3    H135791   1.524   4.676   0.030  1.1623  0.3566 -0.5511
 4744TIP3    H235792   1.623   4.783   0.070 -0.8810  2.5627 -1.1279
 4745TIP3   OH235793   6.209   0.655   6.884  0.3418 -0.0460  0.2219
 4745TIP3    H135794   6.299   0.625   6.874 -0.1429 -1.1226 -1.4000
 4745TIP3    H235795   6.166   0.586   6.935  0.1676 -0.0856  0.0209
 4746TIP3   OH235796   2.799   3.600   2.369  0.3273 -0.2598  0.8120
 4746TIP3    H135797   2.762   3.521   2.409  1.8509 -0.5550  1.7093
 4746TIP3    H235798   2.851   3.640   2.438 -1.6863  2.4674  0.8759
 4747TIP3   OH235799   0.887   2.689   7.834  0.0366  0.2625 -0.5652
 4747TIP3    H135800   0.941   2.759   7.797 -0.6508 -0.3848 -2.9598
 4747TIP3    H235801   0.935   2.660   7.912  0.4720  3.1725  0.3679
 4748TIP3   OH235802   0.517   1.268   8.615  0.2564  0.6313  0.1941
 4748TIP3    H135803   0.586   1.206   8.591  1.0682  1.4844  0.2818
 4748TIP3    H235804   0.564   1.341   8.655 -0.6741  1.3915 -0.0946
 4749TIP3   OH235805   5.047   0.798   1.861  0.1522  0.2416 -0.4096
 4749TIP3    H135806   5.123   0.768   1.811 -0.3864 -3.1861  0.6282
 4749TIP3    H235807   4.973   0.752   1.823 -0.4170 -1.7760  2.7694
 4750TIP3   OH235808   0.092   0.643   8.792  0.2025  0.2762  0.0947
 4750TIP3    H135809   0.058   0.637   8.703 -0.1164 -0.4470  0.2581
 4750TIP3    H235810   0.186   0.627   8.783  0.1368 -0.0228 -0.0938
 4751TIP3   OH235811   0.041   5.020   3.225 -0.6968  0.1016  0.3280
 4751TIP3    H135812   0.048   5.090   3.160  1.5178  0.1714  0.5526
 4751TIP3    H235813   0.108   5.041   3.290  0.1190 -2.2671  0.3519
 4752TIP3   OH235814   4.780   2.246   1.250  0.2628 -0.2872  0.3834
 4752TIP3    H135815   4.761   2.203   1.167  1.9047 -0.3767  0.0208
 4752TIP3    H235816   4.698   2.241   1.299 -0.1557 -2.0569 -0.4146
 4753TIP3   OH235817   2.330   0.602   2.369 -0.1556  0.1655 -0.6538
 4753TIP3    H135818   2.301   0.649   2.290 -2.1388  0.7743  0.3517
 4753TIP3    H235819   2.321   0.667   2.439  0.9064 -0.5669  0.1768
 4754TIP3   OH235820   3.031   5.539   1.513  0.1466  0.0605 -0.2403
 4754TIP3    H135821   3.097   5.521   1.581  1.5707  1.0372 -1.3142
 4754TIP3    H235822   3.019   5.455   1.469  1.6942  0.1181 -0.8586
 4755TIP3   OH235823   1.584   4.452   1.931 -0.3014  0.2587  0.4112
 4755TIP3    H135824   1.546   4.410   2.009  0.9227  0.9436  1.4068
 4755TIP3    H235825   1.600   4.542   1.958  2.1226 -0.0204  0.0826
 4756TIP3   OH235826   3.768   2.281   0.779 -0.3114 -0.0989  0.0139
 4756TIP3    H135827   3.817   2.269   0.860  0.6270 -0.0498 -0.5386
 4756TIP3    H235828   3.781   2.200   0.731  1.4999  0.9115 -1.3160
 4757TIP3   OH235829   1.193   5.517   1.356  0.3371 -0.3550 -0.0309
 4757TIP3    H135830   1.163   5.443   1.409  0.6880  0.2049  0.9700
 4757TIP3    H235831   1.258   5.480   1.297 -0.9028 -1.2135 -0.9083
 4758TIP3   OH235832   5.692   0.605   7.825 -0.1251  0.4665  0.3325
 4758TIP3    H135833   5.766   0.624   7.766 -0.6093  2.6947  0.3781
 4758TIP3    H235834   5.724   0.534   7.881  1.9186  1.2359  0.2190
 4759TIP3   OH235835   2.306   6.330   0.993  0.1734 -0.1536 -0.7902
 4759TIP3    H135836   2.226   6.367   1.032 -0.1825 -0.5465 -1.1404
 4759TIP3    H235837   2.373   6.343   1.060 -0.5750 -1.4556  0.2641
 4760TIP3   OH235838   3.409   1.094   1.514  0.1674 -0.2513 -0.3698
 4760TIP3    H135839   3.430   1.174   1.467  0.8397 -0.0098  0.3224
 4760TIP3    H235840   3.333   1.118   1.569  1.0021  0.2246  0.6072
 4761TIP3   OH235841   2.734   2.324   0.193 -0.2481 -0.3936 -0.6218
 4761TIP3    H135842   2.639   2.331   0.188 -0.3075 -1.4819 -1.4473
 4761TIP3    H235843   2.758   2.372   0.272 -1.3558  0.8829 -1.0355
 4762TIP3   OH235844   2.490   1.405   2.245 -0.0737 -0.1505  0.3096
 4762TIP3    H135845   2.575   1.366   2.225  0.7425  1.1195  1.2134
 4762TIP3    H235846   2.433   1.329   2.262  1.3900 -0.9910  1.7333
 4763TIP3   OH235847   2.620   2.487   1.500  0.1569  0.6196 -0.4004
 4763TIP3    H135848   2.559   2.554   1.469 -1.4512  0.4549  2.0724
 4763TIP3    H235849   2.595   2.408   1.453 -2.1550  0.3821  1.0427
 4764TIP3   OH235850   5.784   2.128   8.583  0.0160 -1.0658  0.1838
 4764TIP3    H135851   5.720   2.061   8.607  0.8572 -1.4343  1.4957
 4764TIP3    H235852   5.841   2.135   8.659 -1.9011  3.4679  1.5396
 4765TIP3   OH235853   3.701   0.452   0.076 -0.4217  0.2740 -0.3883
 4765TIP3    H135854   3.684   0.378   0.018  0.5485 -0.7760  0.5922
 4765TIP3    H235855   3.767   0.504   0.030  0.3805 -0.5802 -0.2511
 4766TIP3   OH235856   4.018   4.953   1.963  0.1719  0.2100 -0.8768
 4766TIP3    H135857   4.044   4.994   1.880  2.2684  1.2292  0.1900
 4766TIP3    H235858   3.949   5.010   1.997  0.7490  0.9905 -0.9762
 4767TIP3   OH235859   4.466   5.215   8.401 -0.2355  0.1973 -0.6558
 4767TIP3    H135860   4.531   5.258   8.346 -0.9068  0.3414 -1.3569
 4767TIP3    H235861   4.382   5.249   8.371 -0.5803  1.1873  1.2554
 4768TIP3   OH235862   3.367   6.547   0.945  0.1199  0.4435 -0.2441
 4768TIP3    H135863   3.372   6.463   0.989 -0.2171  1.1184  1.1517
 4768TIP3    H235864   3.294   6.538   0.884 -0.7211  0.0963  0.7806
 4769TIP3   OH235865   0.746   1.189   1.074 -0.1037  0.0501  0.2653
 4769TIP3    H135866   0.826   1.137   1.062  0.0746  0.3079  0.3205
 4769TIP3    H235867   0.698   1.144   1.143  0.1609  0.0857  0.4775
 4770TIP3   OH235868   1.697   6.423   7.865 -0.0571  0.7238 -0.1698
 4770TIP3    H135869   1.777   6.450   7.911  1.0162 -1.5108 -0.6000
 4770TIP3    H235870   1.646   6.376   7.931 -1.2840  2.5351  0.2257
 4771TIP3   OH235871   0.759   3.900   1.087  0.1607 -0.7032  0.5135
 4771TIP3    H135872   0.790   3.948   1.010  2.4264 -2.6519  0.1108
 4771TIP3    H235873   0.683   3.850   1.055 -0.7270  0.7056  0.3426
 4772TIP3   OH235874   3.754   6.179   7.682 -0.1069  0.6453 -0.3724
 4772TIP3    H135875   3.830   6.179   7.740  0.1770 -0.2165 -0.7304
 4772TIP3    H235876   3.730   6.271   7.674  1.4630  1.0324 -0.9923
 4773TIP3   OH235877   2.359   2.109   7.108  0.7349  0.3058 -0.0585
 4773TIP3    H135878   2.276   2.088   7.065  0.0287  1.4708  0.7000
 4773TIP3    H235879   2.406   2.163   7.044 -0.3668  2.1431  0.6100
 4774TIP3   OH235880   4.371   5.287   1.930 -0.2556  0.0290  0.2700
 4774TIP3    H135881   4.319   5.347   1.877  1.9234  2.0577  0.2590
 4774TIP3    H235882   4.433   5.249   1.868  0.5301  0.3337  0.8523
 4775TIP3   OH235883   1.139   6.316   0.469 -0.3123  0.3010  0.0818
 4775TIP3    H135884   1.058   6.363   0.447 -0.2146  0.4051 -0.0592
 4775TIP3    H235885   1.209   6.371   0.433 -0.2804 -0.8585 -1.7735
 4776TIP3   OH235886   5.060   0.591   0.365 -0.0043 -0.1290  0.2369
 4776TIP3    H135887   5.095   0.680   0.358 -1.2928  0.3298 -0.7437
 4776TIP3    H235888   5.022   0.573   0.279  2.0085 -2.4405 -0.2619
 4777TIP3   OH235889   2.209   6.411   6.967 -0.0088 -0.0980 -0.6094
 4777TIP3    H135890   2.238   6.324   6.937 -1.8619 -1.7103  1.8858
 4777TIP3    H235891   2.116   6.414   6.944  0.1420  1.5183 -1.1390
 4778TIP3   OH235892   0.102   6.615   2.112  0.1878  0.4337 -0.5535
 4778TIP3    H135893   0.007   6.622   2.106  0.1613  0.4844 -0.1000
 4778TIP3    H235894   0.118   6.556   2.187  0.5446  3.0619  1.5799
 4779TIP3   OH235895   2.225   5.366   1.496  0.1976 -0.1382 -0.4229
 4779TIP3    H135896   2.234   5.317   1.578  0.0613 -1.3878 -1.1342
 4779TIP3    H235897   2.284   5.441   1.506  1.1082 -0.9304  0.3280
 4780TIP3   OH235898   4.700   1.221   1.670 -0.2641  0.3438  0.2593
 4780TIP3    H135899   4.627   1.232   1.731 -1.8697  2.8622 -1.8723
 4780TIP3    H235900   4.748   1.304   1.675 -0.0646  0.3575 -1.3596
 4781TIP3   OH235901   3.415   4.605   0.220  0.4228  0.2376  0.1110
 4781TIP3    H135902   3.470   4.601   0.141 -0.5567 -0.2961 -0.5555
 4781TIP3    H235903   3.332   4.642   0.189  1.3428  4.0686  1.6594
 4782TIP3   OH235904   5.841   1.812   6.505  0.3304 -1.1850 -0.1571
 4782TIP3    H135905   5.877   1.900   6.512 -1.8321 -0.2270 -0.2107
 4782TIP3    H235906   5.905   1.756   6.547  0.8491  0.6808  1.7018
 4783TIP3   OH235907   4.771   4.200   0.675  0.0787 -0.2295  0.0531
 4783TIP3    H135908   4.690   4.171   0.634  1.4114 -3.2153 -0.6816
 4783TIP3    H235909   4.787   4.137   0.745  1.9104  0.1398  0.0179
 4784TIP3   OH235910   5.206   0.049   0.885  0.1364  0.0001 -0.0500
 4784TIP3    H135911   5.123   0.021   0.846  0.3644 -0.3044 -0.3210
 4784TIP3    H235912   5.180   0.106   0.957 -0.3112 -0.1007 -0.1261
 4785TIP3   OH235913   2.825   2.646   0.703 -0.4172 -0.8052  0.2171
 4785TIP3    H135914   2.910   2.628   0.743  0.6811 -1.1827 -2.1034
 4785TIP3    H235915   2.773   2.567   0.720 -0.5045 -0.4109  1.9914
 4786TIP3   OH235916   5.751   6.439   2.372  0.0892  0.7689  0.4293
 4786TIP3    H135917   5.683   6.485   2.421 -0.5118 -1.2628  1.6004
 4786TIP3    H235918   5.809   6.509   2.342 -0.4923  2.2664  2.5236
 4787TIP3   OH235919   3.630   2.985   2.220  0.4618 -0.0809 -0.1808
 4787TIP3    H135920   3.699   2.982   2.153 -0.8226  0.4926 -1.5873
 4787TIP3    H235921   3.621   3.078   2.241 -0.9767  0.0567 -1.2413
 4788TIP3   OH235922   4.694   4.211   1.191  0.7755  0.3419  0.1893
 4788TIP3    H135923   4.738   4.221   1.276  0.3474  1.3886  0.3048
 4788TIP3    H235924   4.617   4.268   1.197  0.5925  0.2160 -0.8056
 4789TIP3   OH235925   2.228   6.315   3.101 -0.2255  0.3177 -0.0227
 4789TIP3    H135926   2.313   6.347   3.130  0.2258  0.2830 -1.2435
 4789TIP3    H235927   2.198   6.381   3.039 -1.1534  0.3873  0.4801
 4790TIP3   OH235928   1.675   4.315   1.404  0.8672  0.0538  0.2427
 4790TIP3    H135929   1.605   4.379   1.391  1.1857  0.6952  1.5792
 4790TIP3    H235930   1.633   4.242   1.450  0.2979 -1.1576 -2.0328
 4791TIP3   OH235931   5.263   4.419   1.385 -0.1960  0.3173  0.1649
 4791TIP3    H135932   5.197   4.444   1.449  0.5501  0.4538  0.8968
 4791TIP3    H235933   5.313   4.349   1.428  0.9645  1.1134  0.1512
 4792TIP3   OH235934   3.235   5.257   8.609 -0.9482  0.3827  0.4412
 4792TIP3    H135935   3.175   5.307   8.554 -0.4186 -0.8911 -1.4127
 4792TIP3    H235936   3.294   5.322   8.646 -1.8926  1.3790  0.2492
 4793TIP3   OH235937   1.753   2.185   0.716  0.1774 -0.4512 -0.5639
 4793TIP3    H135938   1.766   2.242   0.641  1.4357  0.5858  0.4045
 4793TIP3    H235939   1.734   2.244   0.789  1.9284 -1.2000  0.5584
 4794TIP3   OH235940   6.409   2.856   7.515 -0.8055  0.8749 -0.6942
 4794TIP3    H135941   6.473   2.919   7.482  3.0475 -1.1805  2.1221
 4794TIP3    H235942   6.337   2.910   7.547  1.6740  3.8535  0.3498
 4795TIP3   OH235943   2.546   0.107   8.654 -0.0951 -0.0254 -0.0707
 4795TIP3    H135944   2.620   0.085   8.597  0.0452 -0.0093  0.1054
 4795TIP3    H235945   2.520   0.194   8.625 -1.4531 -0.8803 -1.6228
 4796TIP3   OH235946   3.206   4.572   0.883 -0.2097 -0.5882 -0.3885
 4796TIP3    H135947   3.250   4.625   0.949 -2.8262  0.8145  0.3786
 4796TIP3    H235948   3.211   4.624   0.803  0.0658 -0.7102 -0.4491
 4797TIP3   OH235949   1.984   6.545   1.875  0.1918  0.0100  0.0980
 4797TIP3    H135950   2.010   6.487   1.804  0.2555  1.0775 -0.7810
 4797TIP3    H235951   2.046   6.618   1.870  1.3393 -0.7017  2.3873
 4798TIP3   OH235952   4.762   4.360   1.946 -0.2183  0.6030  0.1037
 4798TIP3    H135953   4.834   4.308   1.909 -0.7044 -0.5067  0.6553
 4798TIP3    H235954   4.805   4.434   1.988  0.6480 -0.2371  0.7515
 4799TIP3   OH235955   1.858   0.415   8.193 -0.0631 -0.1375 -0.1187
 4799TIP3    H135956   1.764   0.398   8.188 -0.2151  0.7518 -0.6053
 4799TIP3    H235957   1.898   0.346   8.139 -0.5822  0.4687 -1.3274
 4800TIP3   OH235958   0.845   6.150   8.109 -0.3316 -0.0533 -0.4086
 4800TIP3    H135959   0.859   6.245   8.108  2.0405 -0.2873 -3.4140
 4800TIP3    H235960   0.757   6.139   8.074  0.2514  1.0625 -2.4036
 4801TIP3   OH235961   5.020   2.140   8.858 -0.0489 -0.7268  0.4416
 4801TIP3    H135962   5.022   2.226   8.901  0.9432 -0.3341 -0.3431
 4801TIP3    H235963   4.952   2.149   8.791  0.7648 -0.1873 -0.3338
 4802TIP3   OH235964   5.540   1.894   7.510 -0.1550  0.7962  0.0390
 4802TIP3    H135965   5.537   1.905   7.414 -0.4013  1.1724  0.0863
 4802TIP3    H235966   5.472   1.954   7.542  2.4162  3.5824  0.6966
 4803TIP3   OH235967   1.178   5.568   8.422  0.0831 -0.6554  0.1712
 4803TIP3    H135968   1.262   5.571   8.468  0.7790  2.1957 -1.0818
 4803TIP3    H235969   1.168   5.655   8.384 -3.0023 -1.2087 -0.5726
 4804TIP3   OH235970   4.899   3.606   1.475  0.4373 -0.4516  0.1092
 4804TIP3    H135971   4.914   3.581   1.566 -2.1273 -0.3955  0.6360
 4804TIP3    H235972   4.836   3.677   1.480  1.4883  0.6833 -1.6906
 4805TIP3   OH235973   3.088   2.046   0.071 -0.1595  0.0827 -0.0382
 4805TIP3    H135974   3.020   2.102   0.109  0.4566 -0.2816  1.7328
 4805TIP3    H235975   3.134   2.011   0.147  1.1032 -0.8042 -1.1718
 4806TIP3   OH235976   0.398   5.241   2.436 -0.4607  0.1983  0.2050
 4806TIP3    H135977   0.345   5.244   2.356 -2.4657  0.0828  1.4412
 4806TIP3    H235978   0.352   5.299   2.497  0.0831 -0.9623  1.7750
 4807TIP3   OH235979   0.472   5.355   1.133  0.3679  0.1665  0.0820
 4807TIP3    H135980   0.391   5.333   1.087  0.1739 -0.8547  0.8910
 4807TIP3    H235981   0.539   5.300   1.092  0.5817  0.6848 -0.2840
 4808TIP3   OH235982   0.255   3.054   2.043 -1.4247  0.5892 -0.4756
 4808TIP3    H135983   0.287   3.021   2.127 -4.0583  0.4473  0.5750
 4808TIP3    H235984   0.195   2.986   2.012 -0.7874  0.8121 -2.3331
 4809TIP3   OH235985   0.456   4.299   2.032 -0.4579 -0.0076  0.2678
 4809TIP3    H135986   0.406   4.304   2.113  1.4684  2.5913  1.4591
 4809TIP3    H235987   0.503   4.216   2.037 -0.7956 -0.1443  1.5715
 4810TIP3   OH235988   2.264   0.763   0.090 -1.0646 -0.3110  0.1769
 4810TIP3    H135989   2.249   0.844   0.042 -2.4069 -0.0452  0.9680
 4810TIP3    H235990   2.352   0.736   0.067 -0.9394  0.8903 -0.8118
 4811TIP3   OH235991   0.289   3.267   1.697  0.2006  0.0831  0.4842
 4811TIP3    H135992   0.304   3.187   1.648  1.0598  0.1496  0.6144
 4811TIP3    H235993   0.312   3.337   1.636 -0.0417  0.2076  0.5360
 4812TIP3   OH235994   2.881   3.051   6.958  0.3116 -0.6882 -0.0743
 4812TIP3    H135995   2.892   3.111   6.884  0.1680 -0.6093 -0.0330
 4812TIP3    H235996   2.917   3.099   7.033 -2.1171  0.4404  0.4735
 4813TIP3   OH235997   5.821   0.618   0.946 -0.6540 -0.1742 -0.4294
 4813TIP3    H135998   5.853   0.676   1.015  0.1774 -2.7220  1.5050
 4813TIP3    H235999   5.897   0.565   0.921 -1.6679 -1.4295 -1.0096
 4814TIP3   OH236000   1.617   5.434   2.299  0.0968  0.0120  0.0234
 4814TIP3    H136001   1.631   5.525   2.271 -0.7606  0.1253 -0.0522
 4814TIP3    H236002   1.592   5.441   2.391 -1.6637  0.0034 -0.4231
 4815TIP3   OH236003   0.662   6.501   2.662 -0.1060  0.1688  0.1096
 4815TIP3    H136004   0.609   6.578   2.643  0.4285  0.3437 -0.7032
 4815TIP3    H236005   0.680   6.507   2.756 -0.2304  0.9237  0.0878
 4816TIP3   OH236006   3.926   1.179   7.485  0.0288 -0.0322 -0.4645
 4816TIP3    H136007   3.972   1.165   7.568 -2.0128  3.1375  1.3925
 4816TIP3    H236008   3.980   1.243   7.439 -0.0107 -0.0571 -0.5442
 4817TIP3   OH236009   5.007   0.457   8.557 -0.4658 -0.0657  0.0211
 4817TIP3    H136010   4.991   0.490   8.468  0.2903  0.0376 -0.0828
 4817TIP3    H236011   5.064   0.381   8.544 -1.9098 -1.2290  0.2887
 4818TIP3   OH236012   0.541   1.956   1.839  0.5467 -0.6680  0.2787
 4818TIP3    H136013   0.570   1.883   1.893  1.5111 -0.3080  0.2547
 4818TIP3    H236014   0.501   1.914   1.762  0.1698 -1.1705  0.7419
 4819TIP3   OH236015   1.715   1.100   8.427  0.4233  0.6076 -0.2579
 4819TIP3    H136016   1.690   1.048   8.504  1.7750 -1.5529 -1.1785
 4819TIP3    H236017   1.810   1.104   8.431  0.4505  1.3494 -1.3030
 4820TIP3   OH236018   0.582   4.738   2.513 -0.1158 -0.1335  0.5198
 4820TIP3    H136019   0.550   4.650   2.530  1.8316 -1.1439 -0.6010
 4820TIP3    H236020   0.586   4.780   2.599 -1.7810 -0.8524  0.9779
 4821TIP3   OH236021   1.398   4.892   6.658 -0.3172 -0.3890  0.1242
 4821TIP3    H136022   1.362   4.896   6.747  0.6815 -1.1214  0.5850
 4821TIP3    H236023   1.488   4.859   6.670  1.0213  2.6096 -0.8303
 4822TIP3   OH236024   1.168   3.433   7.560 -0.4210  0.1978  0.0931
 4822TIP3    H136025   1.186   3.463   7.649 -0.5592  0.4506  0.0361
 4822TIP3    H236026   1.235   3.366   7.543 -1.1138 -0.7158  0.8258
 4823TIP3   OH236027   4.128   1.886   8.405  0.1827  0.4045  0.0805
 4823TIP3    H136028   4.110   1.792   8.392 -0.3729  0.5134  0.0312
 4823TIP3    H236029   4.136   1.895   8.499 -0.3167  0.3988  0.1274
 4824TIP3   OH236030   6.441   3.540   1.050 -0.5597  0.0757  0.5828
 4824TIP3    H136031   6.381   3.485   1.100 -0.9286  0.9055  1.0911
 4824TIP3    H236032   6.487   3.591   1.117  1.3380 -1.1185  0.2630
 4825TIP3   OH236033   1.269   0.038   2.392 -0.4910 -0.0973 -0.4284
 4825TIP3    H136034   1.357   0.002   2.403 -1.1413 -1.7793 -0.3650
 4825TIP3    H236035   1.250   0.026   2.299 -0.7429  0.0316 -0.3935
 4826TIP3   OH236036   4.645   1.979   0.690  0.2852 -0.6760  0.5130
 4826TIP3    H136037   4.678   1.917   0.625 -2.4775 -0.0708 -1.6543
 4826TIP3    H236038   4.653   2.065   0.647 -1.2992 -0.2233  1.0738
 4827TIP3   OH236039   2.473   6.021   7.459 -0.4521  0.8954 -0.4955
 4827TIP3    H136040   2.520   5.996   7.379 -0.8651 -1.4771 -0.0502
 4827TIP3    H236041   2.455   6.115   7.448  0.3038  0.8231 -2.7525
 4828TIP3   OH236042   6.652   0.758   0.046  0.4724  0.1926  0.4116
 4828TIP3    H136043   6.595   0.696   0.001  0.1490  0.4864  0.4119
 4828TIP3    H236044   6.738   0.717   0.046  0.1835 -0.4208  0.7349
 4829TIP3   OH236045   3.074   4.937   2.254 -0.5213  0.9693  0.0490
 4829TIP3    H136046   3.055   4.980   2.337 -4.0333 -0.9570  0.3965
 4829TIP3    H236047   3.025   4.855   2.257  1.3253 -0.4130 -2.9005
 4830TIP3   OH236048   3.879   4.623   1.914 -0.3558  0.5660  0.0696
 4830TIP3    H136049   3.927   4.677   1.977  0.0983 -0.6698  0.8230
 4830TIP3    H236050   3.794   4.607   1.955 -0.4586  0.6413 -0.1127
 4831TIP3   OH236051   2.298   5.231   8.551 -0.0678  0.7207  0.1021
 4831TIP3    H136052   2.331   5.219   8.461  0.4424  1.5556  0.1586
 4831TIP3    H236053   2.315   5.148   8.594 -0.0990  0.3860 -0.5147
 4832TIP3   OH236054   6.428   3.690   2.580 -0.4197  0.0251 -0.2859
 4832TIP3    H136055   6.414   3.784   2.593 -0.7684 -0.1802  0.8616
 4832TIP3    H236056   6.349   3.661   2.534  0.8001  0.7338 -3.0818
 4833TIP3   OH236057   0.034   2.055   1.448 -0.8844 -0.5039  0.3766
 4833TIP3    H136058  -0.026   2.128   1.435 -0.3003  0.0874  0.9534
 4833TIP3    H236059  -0.014   1.979   1.415 -2.0223 -0.0851  1.0056
 4834TIP3   OH236060   4.378   0.298   2.512 -0.7101  0.5291  0.3819
 4834TIP3    H136061   4.292   0.332   2.486 -0.1758  2.1136  0.5930
 4834TIP3    H236062   4.439   0.334   2.448 -0.2789 -1.3747 -0.3548
 4835TIP3   OH236063   4.655   4.891   1.243  0.1053  0.2150  0.3201
 4835TIP3    H136064   4.750   4.878   1.253 -0.0462 -0.7272  0.6276
 4835TIP3    H236065   4.647   4.949   1.167  0.9474  0.8107  0.6708
 4836TIP3   OH236066   1.797   5.630   0.383 -0.7439 -0.7334  0.3178
 4836TIP3    H136067   1.870   5.690   0.394 -2.0057  0.8253  0.4885
 4836TIP3    H236068   1.730   5.681   0.338 -1.8817 -2.0037  0.4939
 4837TIP3   OH236069   2.762   4.958   0.324 -0.0183  0.4016  0.0152
 4837TIP3    H136070   2.803   4.958   0.411 -0.5500 -4.3004  0.5661
 4837TIP3    H236071   2.671   4.984   0.341  0.1981  0.7786  0.6431
 4838TIP3   OH236072   5.318   5.196   2.008 -0.2213  0.0994 -0.1386
 4838TIP3    H136073   5.236   5.183   2.056 -1.2651 -0.8239 -2.0915
 4838TIP3    H236074   5.367   5.116   2.023 -1.3009 -0.9640 -1.9436
 4839TIP3   OH236075   1.729   6.630   0.514 -0.0216 -0.0676 -0.0548
 4839TIP3    H136076   1.763   6.651   0.601  0.5210  0.0438 -0.2891
 4839TIP3    H236077   1.764   6.543   0.495  1.4158  0.6536 -0.9216
 4840TIP3   OH236078   1.831   0.991   8.679 -0.1166 -0.5206 -0.2175
 4840TIP3    H136079   1.864   0.918   8.730  0.6779  0.8690  1.3350
 4840TIP3    H236080   1.898   1.006   8.612 -0.5641 -1.5482 -0.9217
 4841TIP3   OH236081   2.603   1.260   0.460 -0.5869  0.3691 -0.2340
 4841TIP3    H136082   2.649   1.207   0.525  1.4392  2.0098 -0.2593
 4841TIP3    H236083   2.657   1.253   0.381 -1.0654  1.3366 -0.6563
 4842TIP3   OH236084   1.308   2.598   1.971  0.1389  0.1798  0.1657
 4842TIP3    H136085   1.313   2.603   2.066 -0.8567 -0.7224  0.2770
 4842TIP3    H236086   1.242   2.663   1.946 -0.4695 -0.4167  0.1998
 4843TIP3   OH236087   2.324   5.093   6.644 -0.4137  0.5459 -0.4029
 4843TIP3    H136088   2.342   5.051   6.729  0.5961  1.1303 -0.3182
 4843TIP3    H236089   2.410   5.100   6.602 -0.6480  1.9571 -0.6775
 4844TIP3   OH236090   5.336   1.448   0.584 -0.5322  0.4974 -0.2557
 4844TIP3    H136091   5.415   1.499   0.567 -0.0963  0.2781  0.9901
 4844TIP3    H236092   5.267   1.512   0.594 -0.3453  0.7441 -0.5540
 4845TIP3   OH236093   3.425   1.528   8.549  0.1000  0.4078 -0.1849
 4845TIP3    H136094   3.401   1.613   8.586 -1.3924  0.2648 -0.7909
 4845TIP3    H236095   3.391   1.530   8.460 -0.3043 -0.9831 -0.0787
 4846TIP3   OH236096   2.507   5.322   0.189  0.0147  0.5113  0.0293
 4846TIP3    H136097   2.434   5.357   0.240  1.2952  1.7898  1.0519
 4846TIP3    H236098   2.550   5.260   0.248 -1.1847 -1.6142 -1.1617
 4847TIP3   OH236099   2.090   6.194   0.482 -0.1138 -0.1765  0.2501
 4847TIP3    H136100   2.178   6.193   0.521  0.4003  0.5189 -0.8201
 4847TIP3    H236101   2.100   6.143   0.401 -1.1091 -1.4583  0.9147
 4848TIP3   OH236102   5.343   0.210   8.792 -0.9453  0.2501 -0.0064
 4848TIP3    H136103   5.274   0.178   8.851 -2.0223  2.4878  0.0333
 4848TIP3    H236104   5.421   0.216   8.848 -1.7398  1.4964  1.0232
 4849TIP3   OH236105   5.912   6.664   2.255 -0.2647 -0.1520 -0.2867
 4849TIP3    H136106   5.827   6.691   2.288  0.0420 -0.0224  0.4101
 4849TIP3    H236107   5.892   6.608   2.180 -0.9402  0.4560 -0.5607
 4850TIP3   OH236108   5.668   3.288   7.554 -0.3735 -0.4189 -0.3838
 4850TIP3    H136109   5.688   3.257   7.466  1.1707  0.5685 -0.4246
 4850TIP3    H236110   5.753   3.317   7.589 -1.3005  1.2608  0.5942
 4851TIP3   OH236111   0.729   0.380   1.870  0.2582 -0.6394  0.2486
 4851TIP3    H136112   0.663   0.435   1.912  0.9970 -0.9111  1.8277
 4851TIP3    H236113   0.804   0.438   1.857 -0.6558  0.0552 -2.8191
 4852TIP3   OH236114   6.275   3.444   8.810  0.6349 -0.3250  0.1347
 4852TIP3    H136115   6.284   3.496   8.889  2.0982  0.8763 -0.7782
 4852TIP3    H236116   6.352   3.387   8.809  0.1491 -0.9944  0.0324
 4853TIP3   OH236117   0.390   0.078   0.750  0.5529  0.2422  0.4023
 4853TIP3    H136118   0.326   0.148   0.759 -0.0287 -0.1313 -0.6050
 4853TIP3    H236119   0.420   0.061   0.839  0.0951  1.1989  0.7508
 4854TIP3   OH236120   5.870   5.516   8.728 -0.3796  0.1033 -0.4287
 4854TIP3    H136121   5.906   5.600   8.757  1.6823 -1.0994  0.7561
 4854TIP3    H236122   5.799   5.498   8.789 -0.4789  0.7270 -0.3508
 4855TIP3   OH236123   2.982   4.679   2.345  0.2339  0.3344  0.0043
 4855TIP3    H136124   2.998   4.672   2.251 -0.1764 -1.7119  0.0539
 4855TIP3    H236125   3.034   4.608   2.383 -2.3315 -1.1316  0.9654
 4856TIP3   OH236126   5.159   0.191   2.590 -0.0005 -0.0053 -0.1405
 4856TIP3    H136127   5.131   0.252   2.659  0.1268 -0.0549 -0.0437
 4856TIP3    H236128   5.112   0.219   2.512 -2.1623 -1.4956  0.5198
 4857TIP3   OH236129   3.182   5.777   2.667 -0.2534  0.1192  0.0164
 4857TIP3    H136130   3.197   5.743   2.579  0.5858 -1.4433  0.7235
 4857TIP3    H236131   3.190   5.872   2.658  1.5433 -0.1126 -1.2887
 4858TIP3   OH236132   6.362   4.581   7.232  0.2303  0.4047 -0.0878
 4858TIP3    H136133   6.268   4.583   7.252  0.0647  1.0403 -0.8418
 4858TIP3    H236134   6.394   4.667   7.259  0.1491  0.9988 -1.7185
 4859TIP3   OH236135   2.641   3.866   1.960  0.7162  0.1326  0.4207
 4859TIP3    H136136   2.557   3.826   1.939 -0.0372  0.5564  2.3977
 4859TIP3    H236137   2.630   3.899   2.049  2.5202  1.4857  0.1908
 4860TIP3   OH236138   4.211   5.782   0.824  0.1441  0.6039 -0.3350
 4860TIP3    H136139   4.147   5.781   0.753  0.4596 -0.4270 -0.6253
 4860TIP3    H236140   4.161   5.758   0.902  0.1401 -0.1014 -0.5449
 4861TIP3   OH236141   3.417   0.726   7.076  0.2091  0.0485  0.2496
 4861TIP3    H136142   3.486   0.784   7.106 -0.0420 -0.7593  2.6005
 4861TIP3    H236143   3.427   0.647   7.129 -0.9401 -1.1117 -1.1542
 4862TIP3   OH236144   4.049   0.332   1.534 -0.2378  0.5198  0.2628
 4862TIP3    H136145   4.030   0.295   1.448 -1.7596 -0.7604  1.0927
 4862TIP3    H236146   4.057   0.426   1.519 -2.2718  0.5326 -1.0231
 4863TIP3   OH236147   4.793   4.993   2.859  0.7746 -0.4544  0.0310
 4863TIP3    H136148   4.884   4.984   2.888  0.2151 -1.0667  1.7454
 4863TIP3    H236149   4.771   5.085   2.877  0.8393 -0.4875  0.2779
 4864TIP3   OH236150   1.558   3.298   2.061 -0.7091 -0.4398 -0.6379
 4864TIP3    H136151   1.527   3.343   1.982 -1.0631 -0.0153 -0.2663
 4864TIP3    H236152   1.642   3.261   2.036 -1.6971 -2.0061 -1.8102
 4865TIP3   OH236153   4.777   2.170   0.523  0.1067  0.3525  0.0260
 4865TIP3    H136154   4.789   2.211   0.609  1.3651 -1.8277  0.9824
 4865TIP3    H236155   4.847   2.207   0.469  0.5811  0.2573  0.5635
 4866TIP3   OH236156   4.058   5.453   0.615  0.3256  0.2378 -0.5118
 4866TIP3    H136157   4.150   5.480   0.613  0.4009  0.0535  0.1837
 4866TIP3    H236158   4.043   5.424   0.705 -0.4714  0.4690 -0.5542
 4867TIP3   OH236159   1.343   3.209   1.557 -0.1133 -0.0842  0.0241
 4867TIP3    H136160   1.409   3.146   1.527 -0.7460 -1.3331  1.1488
 4867TIP3    H236161   1.388   3.262   1.622  0.4644  0.7655 -1.0305
 4868TIP3   OH236162   5.011   0.223   0.209 -0.3556 -0.3139  0.0768
 4868TIP3    H136163   4.991   0.237   0.302 -0.7091  1.7561 -0.2634
 4868TIP3    H236164   5.101   0.192   0.209 -0.6845 -1.3495  1.1538
 4869TIP3   OH236165   3.789   0.960   0.813  0.1926 -0.0345 -0.2696
 4869TIP3    H136166   3.766   0.932   0.724 -1.4391  0.1775  0.0555
 4869TIP3    H236167   3.860   1.023   0.800 -0.5670  0.6173 -1.5040
 4870TIP3   OH236168   5.399   5.709   8.407  0.2501  0.1079  0.7295
 4870TIP3    H136169   5.335   5.759   8.356 -0.9550 -0.2288  1.8644
 4870TIP3    H236170   5.364   5.621   8.411  0.9242 -0.1500  1.1511
 4871TIP3   OH236171   2.971   1.719   1.421  0.0159 -0.0949  0.4819
 4871TIP3    H136172   2.891   1.730   1.369 -1.2162 -0.4831  2.2021
 4871TIP3    H236173   2.981   1.624   1.430  2.0957 -0.1703 -1.7287
 4872TIP3   OH236174   3.005   4.148   0.243  0.4591 -0.2725 -0.1881
 4872TIP3    H136175   2.998   4.229   0.192 -1.1356  0.1723  0.6658
 4872TIP3    H236176   3.045   4.175   0.325 -0.0940 -0.3267  0.1062
 4873TIP3   OH236177   3.083   3.477   1.513 -0.6444 -0.0051  0.7823
 4873TIP3    H136178   3.017   3.525   1.563  0.5687 -0.0458  2.5230
 4873TIP3    H236179   3.134   3.431   1.580  0.4223 -0.8844 -0.5953
 4874TIP3   OH236180   1.048   0.271   8.826 -0.3093 -0.8590 -0.3365
 4874TIP3    H136181   0.986   0.283   8.755 -1.5973 -0.4968  0.7940
 4874TIP3    H236182   1.104   0.349   8.823 -1.2161 -0.1796 -0.1532
 4875TIP3   OH236183   1.873   4.765   1.029 -0.1061 -0.4847 -1.0391
 4875TIP3    H136184   1.785   4.794   1.007  0.3626  1.1379 -0.8937
 4875TIP3    H236185   1.875   4.764   1.125  0.2063  0.1239 -1.0307
 4876TIP3   OH236186   5.894   5.948   3.567  0.4909  0.2436  0.8642
 4876TIP3    H136187   5.972   5.932   3.515 -1.9106 -1.9426 -2.4789
 4876TIP3    H236188   5.856   6.028   3.531 -0.4508 -0.5031  0.1384
 4877TIP3   OH236189   3.840   3.688   8.433 -0.4291  0.5465  0.2342
 4877TIP3    H136190   3.879   3.602   8.416 -1.9860  0.3635 -3.3220
 4877TIP3    H236191   3.786   3.674   8.511  0.4813 -1.2935  0.5881
 4878TIP3   OH236192   6.185   5.918   7.757  0.8383  0.1447  0.2863
 4878TIP3    H136193   6.242   5.957   7.824  0.4318  1.7543 -0.2520
 4878TIP3    H236194   6.222   5.949   7.674 -0.4431  0.7120 -0.0965
 4879TIP3   OH236195   5.809   2.916   1.365  0.9243 -0.4389  0.0881
 4879TIP3    H136196   5.743   2.984   1.350  0.5443 -0.2465  2.2522
 4879TIP3    H236197   5.764   2.834   1.345  0.5308 -0.2093  0.0194
 4880TIP3   OH236198   2.038   3.709   1.412 -0.3687  0.3772 -0.1117
 4880TIP3    H136199   2.097   3.784   1.407 -0.4125  0.3902 -0.4605
 4880TIP3    H236200   2.085   3.639   1.367  0.7235 -0.5202  2.2414
 4881TIP3   OH236201   3.912   5.248   1.905  0.5635 -0.2031 -0.1045
 4881TIP3    H136202   3.946   5.314   1.966 -0.8970  0.4790  0.0087
 4881TIP3    H236203   3.833   5.214   1.948  0.1382 -0.5187 -1.1216
 4882TIP3   OH236204   6.700   1.297   8.710 -0.1497  0.1265 -0.6580
 4882TIP3    H136205   6.726   1.370   8.655  0.2417 -0.2328 -0.9575
 4882TIP3    H236206   6.732   1.219   8.664  0.4948 -0.1579  0.2437
 4883TIP3   OH236207   1.308   6.081   1.652 -0.0983  0.3089  0.0857
 4883TIP3    H136208   1.403   6.075   1.659 -0.2982 -2.2910  1.6365
 4883TIP3    H236209   1.286   6.027   1.576 -0.3929  0.3099  0.1677
 4884TIP3   OH236210   0.212   5.786   2.008 -0.1838 -0.3282 -0.2252
 4884TIP3    H136211   0.293   5.742   2.035 -0.6870 -1.1157  0.0452
 4884TIP3    H236212   0.191   5.843   2.082 -0.2323 -0.6275 -0.0040
 4885TIP3   OH236213   6.452   3.932   0.240  0.2730  0.5015 -0.0980
 4885TIP3    H136214   6.490   3.996   0.299 -2.6173  2.9438 -0.6361
 4885TIP3    H236215   6.438   3.979   0.158  1.1496 -1.8500 -1.7235
 4886TIP3   OH236216   2.223   5.828   7.859  0.0785  0.0953 -0.2428
 4886TIP3    H136217   2.316   5.809   7.872  0.1745  0.6357 -0.1227
 4886TIP3    H236218   2.222   5.909   7.808 -0.3281  0.6685  0.6522
 4887TIP3   OH236219   6.271   5.164   8.721 -0.2090 -0.5311 -0.3236
 4887TIP3    H136220   6.201   5.114   8.763 -0.1530 -0.7037 -0.4328
 4887TIP3    H236221   6.343   5.161   8.784 -0.4057 -0.0809 -0.0732
 4888TIP3   OH236222   3.382   4.974   8.546  0.3919 -0.6408 -0.0731
 4888TIP3    H136223   3.464   4.935   8.515  0.8958  0.6382 -0.4291
 4888TIP3    H236224   3.316   4.942   8.484  0.8730 -0.5611 -0.6413
 4889TIP3   OH236225   3.698   2.863   1.315  0.0322  0.3188  0.3500
 4889TIP3    H136226   3.767   2.797   1.310 -1.0218 -0.8712  0.8971
 4889TIP3    H236227   3.717   2.913   1.394  0.7092  0.5276  0.0583
 4890TIP3   OH236228   0.346   3.989   8.384  0.0014 -0.2397 -0.5921
 4890TIP3    H136229   0.283   3.971   8.314 -0.9453  1.6219 -0.2959
 4890TIP3    H236230   0.310   4.066   8.429 -0.7902 -2.7911  3.6332
 4891TIP3   OH236231   0.009   4.358   7.924 -0.2614  0.5813  0.4347
 4891TIP3    H136232   0.010   4.401   8.009  0.1989  2.9591 -0.7167
 4891TIP3    H236233   0.097   4.369   7.890 -0.6660  0.4050 -0.7016
 4892TIP3   OH236234   0.192   1.057   7.980 -0.1358  0.0005 -0.0373
 4892TIP3    H136235   0.164   1.012   8.059  1.2478  1.0175  1.0897
 4892TIP3    H236236   0.287   1.050   7.980  0.0669  2.0550 -0.3091
 4893TIP3   OH236237   1.729   1.850   0.006  0.0303  0.1337 -0.0487
 4893TIP3    H136238   1.781   1.864  -0.073 -0.3874 -1.6526 -0.6880
 4893TIP3    H236239   1.785   1.798   0.063 -0.9836 -1.8673 -0.7704
 4894TIP3   OH236240   4.647   3.159   2.224  0.1867 -0.6850 -0.4505
 4894TIP3    H136241   4.628   3.215   2.300  1.8291  0.2952 -0.7152
 4894TIP3    H236242   4.670   3.074   2.263  3.4764  0.4623  0.4188
 4895TIP3   OH236243   5.308   4.388   0.012  0.0459 -0.6465  0.2193
 4895TIP3    H136244   5.243   4.454  -0.010  0.4441 -0.3449 -0.0848
 4895TIP3    H236245   5.258   4.313   0.043 -0.3552  0.3133  2.0235
 4896TIP3   OH236246   0.737   5.717   1.034 -0.0069 -0.1707  0.8535
 4896TIP3    H136247   0.822   5.675   1.044  0.7434  1.2103  0.4299
 4896TIP3    H236248   0.697   5.712   1.121  0.3210 -1.1670  0.9603
 4897TIP3   OH236249   3.607   6.586   8.731 -0.2963  0.7654  0.5050
 4897TIP3    H136250   3.663   6.519   8.693  0.6225  0.9847  1.4401
 4897TIP3    H236251   3.526   6.581   8.680 -0.6663 -1.7753  1.1969
 4898TIP3   OH236252   5.229   5.675   0.516  0.3510  0.5737  0.6038
 4898TIP3    H136253   5.295   5.605   0.513  0.0255  0.2599  0.6998
 4898TIP3    H236254   5.280   5.756   0.518  0.7221  0.4007 -0.9236
 4899TIP3   OH236255   5.383   3.250   1.913 -0.2009 -0.4770  0.0467
 4899TIP3    H136256   5.397   3.281   2.003 -1.0956 -0.1216  0.0719
 4899TIP3    H236257   5.325   3.175   1.922 -1.2148  0.2416 -0.3018
 4900TIP3   OH236258   1.091   1.057   8.592  0.3029  0.1276 -0.3970
 4900TIP3    H136259   1.012   1.055   8.647 -0.4668  0.7059 -1.4407
 4900TIP3    H236260   1.162   1.078   8.653 -0.3472 -0.3361  0.5517
 4901TIP3   OH236261   3.559   6.748   1.760  0.0604  0.1288  0.2057
 4901TIP3    H136262   3.519   6.817   1.707 -0.4823 -0.0425  0.3818
 4901TIP3    H236263   3.650   6.745   1.731 -0.7015 -1.5525 -2.4378
 4902TIP3   OH236264   0.706   4.373   0.981 -0.0422 -0.1393  0.5656
 4902TIP3    H136265   0.670   4.400   1.065 -0.7861 -0.5785  0.3930
 4902TIP3    H236266   0.639   4.317   0.943  0.9848 -1.2979  0.4092
 4903TIP3   OH236267   0.995   4.477   1.216  0.3001 -0.3372 -0.3236
 4903TIP3    H136268   0.968   4.392   1.249  0.8274 -0.3539  0.0700
 4903TIP3    H236269   0.914   4.527   1.208 -0.1094 -1.1107 -1.2590
 4904TIP3   OH236270   4.720   4.953   8.604 -1.1942  0.2956  0.2360
 4904TIP3    H136271   4.750   5.014   8.672  0.3558 -0.2002  0.0296
 4904TIP3    H236272   4.695   5.009   8.531 -0.7671  0.7343  0.4187
 4905TIP3   OH236273   6.495   6.015   8.357 -0.5402  0.0693 -0.1764
 4905TIP3    H136274   6.512   5.956   8.284  0.3814  0.7742 -0.5475
 4905TIP3    H236275   6.433   6.080   8.323 -1.3256 -0.4908  0.1463
 4906TIP3   OH236276   0.140   0.639   2.567  0.2631 -0.0577 -1.1892
 4906TIP3    H136277   0.212   0.607   2.622 -0.7209 -0.5900 -0.1596
 4906TIP3    H236278   0.120   0.565   2.510  1.0600  0.3786 -2.0625
 4907TIP3   OH236279   2.390   4.113   2.792  0.8107 -0.0702 -0.1902
 4907TIP3    H136280   2.362   4.174   2.860  0.6567 -0.0915 -0.2337
 4907TIP3    H236281   2.344   4.143   2.713  0.8446 -0.1569 -0.2430
 4908TIP3   OH236282   6.513   4.685   0.970  0.0578 -0.1022  0.2252
 4908TIP3    H136283   6.422   4.715   0.969  0.0239 -0.2051 -0.0222
 4908TIP3    H236284   6.561   4.752   0.921 -0.3733 -1.5064 -2.3295
 4909TIP3   OH236285   4.022   2.111   0.512  0.4362  0.4514 -0.3961
 4909TIP3    H136286   4.082   2.122   0.438 -0.8614  0.9308 -1.4318
 4909TIP3    H236287   3.974   2.031   0.491  0.2056  0.4731  0.0394
 4910TIP3   OH236288   2.194   1.819   7.542  0.3647 -0.0629  0.2414
 4910TIP3    H136289   2.109   1.775   7.549  0.0542  0.4298 -0.3752
 4910TIP3    H236290   2.231   1.813   7.631 -1.6739  2.4487  1.3984
 4911TIP3   OH236291   0.893   3.811   0.176  0.1351  0.0923 -0.1857
 4911TIP3    H136292   0.900   3.783   0.085  0.8096  0.2132 -0.1704
 4911TIP3    H236293   0.904   3.906   0.174  0.0029  0.1141  0.0079
 4912TIP3   OH236294   6.487   1.473   8.618 -0.4531 -0.0440  0.4906
 4912TIP3    H136295   6.518   1.396   8.665  0.0539 -0.5586 -0.6701
 4912TIP3    H236296   6.393   1.475   8.636 -0.6847 -1.5906 -0.3719
 4913TIP3   OH236297   6.062   0.089   0.877 -0.0782  0.0457  0.6670
 4913TIP3    H136298   6.052   0.028   0.804 -1.0880  0.5701  0.3432
 4913TIP3    H236299   5.973   0.106   0.906  0.3031  0.0440  1.8690
 4914TIP3   OH236300   6.651   3.229   2.239 -0.4593 -0.2097  0.1874
 4914TIP3    H136301   6.672   3.304   2.294  0.4129 -1.0653  1.0793
 4914TIP3    H236302   6.730   3.174   2.244 -1.3903 -1.5705  0.2486
 4915TIP3   OH236303   1.873   1.115   8.033 -0.0478 -0.2429  0.0780
 4915TIP3    H136304   1.929   1.117   8.110 -1.9561 -0.1563  1.5338
 4915TIP3    H236305   1.879   1.025   8.001  1.1888 -0.1364 -0.0486
 4916TIP3   OH236306   2.926   3.157   1.744  0.6620 -0.8551 -0.0021
 4916TIP3    H136307   2.869   3.198   1.679 -0.4687 -1.1616  0.7637
 4916TIP3    H236308   2.942   3.225   1.809  0.3123 -1.0722  0.3145
 4917TIP3   OH236309   2.430   2.201   7.847 -0.5090 -0.1575  0.0785
 4917TIP3    H136310   2.491   2.211   7.773 -2.4323 -0.8983 -1.6903
 4917TIP3    H236311   2.376   2.280   7.845 -1.2452 -0.6545  0.0364
 4918TIP3   OH236312   5.872   3.492   0.773  1.0238 -0.1283 -0.4755
 4918TIP3    H136313   5.814   3.550   0.821  0.0340 -0.7860 -0.8604
 4918TIP3    H236314   5.913   3.438   0.841 -0.8857 -1.5271 -0.3741
 4919TIP3   OH236315   2.839   4.481   1.370  0.5699 -0.2038  0.3244
 4919TIP3    H136316   2.897   4.420   1.416  1.0938  1.5675  2.1694
 4919TIP3    H236317   2.850   4.564   1.416 -2.3177  0.5940 -0.2146
 4920TIP3   OH236318   5.554   2.228   0.075  0.4635  0.3659  0.0672
 4920TIP3    H136319   5.605   2.157   0.037  0.2611  0.7026 -0.8722
 4920TIP3    H236320   5.477   2.236   0.017 -1.5348 -1.2136  2.3394
 4921TIP3   OH236321   1.329   2.918   0.127  0.1307 -0.2170 -0.1016
 4921TIP3    H136322   1.327   2.986   0.059  0.2489  0.7676  0.8461
 4921TIP3    H236323   1.415   2.928   0.168  1.2891 -2.7399 -1.6675
 4922TIP3   OH236324   6.261   3.958   1.532  0.3065 -0.2898 -0.4320
 4922TIP3    H136325   6.215   4.040   1.547 -1.6834 -1.2608 -0.8133
 4922TIP3    H236326   6.324   3.977   1.464  0.4653  1.1053  0.0817
 4923TIP3   OH236327   5.558   4.953   0.947 -0.4151 -0.5652  0.3563
 4923TIP3    H136328   5.518   4.889   1.006 -2.4838  0.3140  0.0054
 4923TIP3    H236329   5.638   4.911   0.916  0.0282 -1.6020  2.6849
 4924TIP3   OH236330   5.355   1.159   8.515  0.1449  0.3748 -0.0386
 4924TIP3    H136331   5.373   1.248   8.485 -0.5290  1.0354  1.4430
 4924TIP3    H236332   5.396   1.103   8.449  1.1126  1.7790 -0.6733
 4925TIP3   OH236333   1.297   2.286   2.644  0.3189  0.0252 -0.1692
 4925TIP3    H136334   1.211   2.307   2.680 -0.8114  1.0070 -3.1709
 4925TIP3    H236335   1.353   2.358   2.672 -0.0145 -0.1434  1.0112
 4926TIP3   OH236336   0.743   3.256   1.312 -0.2226  0.1406  0.3402
 4926TIP3    H136337   0.819   3.313   1.328 -0.4091  0.8323 -1.1215
 4926TIP3    H236338   0.757   3.221   1.225  0.1918 -2.6217  1.4210
 4927TIP3   OH236339   1.983   6.163   2.699 -0.3507  0.1798  0.0221
 4927TIP3    H136340   2.027   6.236   2.744  0.7472  0.4144 -1.3766
 4927TIP3    H236341   2.018   6.165   2.610  1.1914 -3.2054  0.4028
 4928TIP3   OH236342   2.159   4.433   8.333 -0.1320 -0.4457  0.3382
 4928TIP3    H136343   2.182   4.512   8.284 -1.4135 -1.0493 -1.3533
 4928TIP3    H236344   2.082   4.398   8.287 -2.7106 -0.0700  3.9005
 4929TIP3   OH236345   0.190   5.013   1.979  0.8639  0.1373  0.0726
 4929TIP3    H136346   0.102   4.981   1.961  0.6739  0.0893  1.0692
 4929TIP3    H236347   0.180   5.072   2.053  1.9047 -1.2004  1.3431
 4930TIP3   OH236348   2.569   2.379   2.186  0.2205 -0.0488 -0.1871
 4930TIP3    H136349   2.501   2.317   2.215  0.3028 -1.3718 -2.5919
 4930TIP3    H236350   2.535   2.417   2.106  0.7590  2.1501  0.5545
 4931TIP3   OH236351   4.280   3.673   0.188  0.1701 -0.2107  0.9335
 4931TIP3    H136352   4.363   3.721   0.180 -0.0760  0.2996  1.3724
 4931TIP3    H236353   4.291   3.618   0.265  0.4424 -0.8491  0.4448
 4932TIP3   OH236354   5.609   4.508   1.825  0.0494  0.5163 -0.0044
 4932TIP3    H136355   5.522   4.478   1.851 -0.6607 -0.5170 -3.1299
 4932TIP3    H236356   5.669   4.442   1.860 -0.7573 -0.3986 -0.2902
 4933TIP3   OH236357   5.335   2.003   7.628  0.2646 -0.1026 -0.2876
 4933TIP3    H136358   5.287   2.020   7.709 -1.2880 -1.3603 -0.8824
 4933TIP3    H236359   5.290   2.056   7.562  0.4791 -0.3352 -0.6248
 4934TIP3   OH236360   4.115   3.834   0.796 -0.4881 -0.6945 -0.0967
 4934TIP3    H136361   4.107   3.866   0.885  0.1949  0.0460 -0.2959
 4934TIP3    H236362   4.146   3.744   0.806 -0.2967 -0.5763  0.4105
 4935TIP3   OH236363   4.893   6.761   8.362 -0.2894  0.2445  0.5067
 4935TIP3    H136364   4.943   6.843   8.361 -0.4132  0.3616  1.6757
 4935TIP3    H236365   4.813   6.782   8.313 -0.2971  0.8174  0.7500
 4936TIP3   OH236366   6.388   5.988   6.219  0.5143  0.1174  0.4270
 4936TIP3    H136367   6.366   5.977   6.312  2.1023  0.0655  0.8346
 4936TIP3    H236368   6.484   5.996   6.219  0.4993  0.4806 -1.1787
 4937TIP3   OH236369   0.420   6.122   2.045  0.2297  0.4058  0.1030
 4937TIP3    H136370   0.474   6.190   2.084  0.2122  0.2336  0.4379
 4937TIP3    H236371   0.464   6.040   2.067 -0.9730  0.1453  1.7721
 4938TIP3   OH236372   2.567   5.684   0.406 -0.0412 -0.1222  0.8561
 4938TIP3    H136373   2.616   5.643   0.334  1.4394  0.1122  1.6956
 4938TIP3    H236374   2.633   5.729   0.458 -0.6199 -2.2381  3.7314
 4939TIP3   OH236375   1.499   4.720   8.054  0.7937  0.4652  0.7216
 4939TIP3    H136376   1.442   4.680   7.988  0.7737 -0.6307  1.3869
 4939TIP3    H236377   1.588   4.703   8.023  0.7849 -0.0989  0.9954
 4940TIP3   OH236378   6.519   2.679   1.914  0.1489  0.4042 -0.1053
 4940TIP3    H136379   6.567   2.614   1.865  0.0217 -0.1621  0.5108
 4940TIP3    H236380   6.437   2.690   1.866  0.6114  0.8961 -0.7937
 4941TIP3   OH236381   6.204   2.671   1.254 -0.2052 -0.0421  0.2660
 4941TIP3    H136382   6.151   2.751   1.252 -0.0193  0.1230  1.3282
 4941TIP3    H236383   6.156   2.613   1.314  0.3633 -0.2081  0.5683
 4942TIP3   OH236384   3.209   4.537   0.442  0.6852  0.2933  0.2719
 4942TIP3    H136385   3.254   4.549   0.358  0.2266 -1.5113 -0.2804
 4942TIP3    H236386   3.254   4.597   0.502  0.1380  2.6622 -1.5376
 4943TIP3   OH236387   0.875   1.297   2.162  0.2434 -0.4091 -0.1221
 4943TIP3    H136388   0.956   1.307   2.211 -0.0422 -0.9813  0.4811
 4943TIP3    H236389   0.806   1.303   2.228 -0.1053 -2.1888 -0.2806
 4944TIP3   OH236390   2.390   3.139   1.306  0.3546 -0.2728 -0.6664
 4944TIP3    H136391   2.321   3.203   1.323  0.1907 -0.1280 -1.7867
 4944TIP3    H236392   2.348   3.072   1.251  1.2930  0.2658 -2.1083
 4945TIP3   OH236393   2.601   3.880   6.722 -0.6483 -0.6393 -0.5267
 4945TIP3    H136394   2.627   3.835   6.802  1.4723 -0.6147 -1.1561
 4945TIP3    H236395   2.526   3.934   6.748 -0.4536 -1.1628  1.2474
 4946TIP3   OH236396   3.197   3.945   8.348  0.4167  0.2854  0.1006
 4946TIP3    H136397   3.158   3.989   8.272  0.4708  1.7289  0.8948
 4946TIP3    H236398   3.269   4.002   8.375  0.7517 -0.5009  0.9129
 4947TIP3   OH236399   6.069   2.357   7.602 -0.2604  0.0567  0.1023
 4947TIP3    H136400   5.988   2.346   7.651 -1.1295  0.5973 -1.1561
 4947TIP3    H236401   6.045   2.411   7.527  1.2746  0.2531 -0.2937
 4948TIP3   OH236402   0.296   3.506   1.256  0.2343  0.3668  0.6178
 4948TIP3    H136403   0.220   3.523   1.312 -0.5010  0.8800 -0.5074
 4948TIP3    H236404   0.265   3.523   1.167  2.0865  2.1903  0.2338
 4949TIP3   OH236405   3.959   4.788   7.900  0.6831  0.1141  0.2216
 4949TIP3    H136406   3.942   4.832   7.984  0.5381  0.6362 -0.0765
 4949TIP3    H236407   3.939   4.854   7.834  1.6737  0.0037 -0.2101
 4950TIP3   OH236408   5.031   4.199   1.924  0.0987  0.4196  0.3979
 4950TIP3    H136409   5.056   4.182   2.015 -1.8428 -0.0012  0.8971
 4950TIP3    H236410   4.990   4.118   1.895  0.7143  0.5441 -0.8812
 4951TIP3   OH236411   2.786   5.802   1.849 -0.0965 -0.1581 -0.4646
 4951TIP3    H136412   2.814   5.888   1.879 -1.6255 -0.2447  1.4165
 4951TIP3    H236413   2.843   5.740   1.895 -0.2969 -0.1944 -0.2613
 4952TIP3   OH236414   4.168   1.455   0.366  0.4726 -0.0337  0.4289
 4952TIP3    H136415   4.247   1.471   0.418 -0.5100 -0.0933  2.0195
 4952TIP3    H236416   4.101   1.435   0.431 -0.4954 -1.5996 -0.9626
 4953TIP3   OH236417   2.254   0.374   1.962 -0.6655  0.0964 -0.7619
 4953TIP3    H136418   2.244   0.440   1.894 -0.0809  0.4597 -0.5059
 4953TIP3    H236419   2.349   0.361   1.969 -0.6750  0.5520  0.4364
 4954TIP3   OH236420   1.635   5.637   1.060  0.3810 -0.0908  0.1433
 4954TIP3    H136421   1.615   5.544   1.051  0.0663 -0.2226  1.8538
 4954TIP3    H236422   1.730   5.642   1.055  0.5151 -0.7326  1.5385
 4955TIP3   OH236423   4.209   0.362   7.873 -0.3505  0.5826  0.2812
 4955TIP3    H136424   4.118   0.390   7.879 -0.4007  0.1273  2.7227
 4955TIP3    H236425   4.239   0.357   7.964  2.2416  1.0855 -0.4560
 4956TIP3   OH236426   4.821   0.462   1.952  0.1089 -0.3200 -0.4257
 4956TIP3    H136427   4.742   0.408   1.943  0.0106 -0.0915 -1.0423
 4956TIP3    H236428   4.800   0.524   2.021 -1.0496  1.0506 -1.9332
 4957TIP3   OH236429   1.997   3.177   0.205  1.0935 -0.5189 -0.6102
 4957TIP3    H136430   1.924   3.115   0.211  2.1118 -1.8689 -1.6418
 4957TIP3    H236431   1.957   3.255   0.167 -0.1182 -0.6752  0.2537
 4958TIP3   OH236432   0.102   4.108   8.158  0.0559 -0.7034  0.1188
 4958TIP3    H136433   0.077   4.097   8.066 -0.2964 -1.5480  0.3086
 4958TIP3    H236434   0.028   4.073   8.207  1.0538 -2.0855  0.7119
 4959TIP3   OH236435   4.986   5.191   1.249  0.5786  0.3336 -0.4997
 4959TIP3    H136436   5.048   5.235   1.307  1.5056  0.9419 -1.9086
 4959TIP3    H236437   4.904   5.192   1.298  1.5907 -0.3556  1.3524
 4960TIP3   OH236438   3.920   2.350   1.433 -0.4443 -0.5496 -0.2054
 4960TIP3    H136439   3.900   2.257   1.421 -1.0840 -0.3048 -1.1973
 4960TIP3    H236440   3.894   2.369   1.523  0.1225 -1.4281  0.1597
 4961TIP3   OH236441   5.500   3.027   0.443  0.0578 -0.2648  0.1742
 4961TIP3    H136442   5.411   2.999   0.421  0.0295  0.5876 -0.9141
 4961TIP3    H236443   5.545   3.030   0.359  1.1552 -0.7609  0.7222
 4962TIP3   OH236444   6.375   1.877   1.839 -0.0088 -0.1561 -0.4186
 4962TIP3    H136445   6.443   1.931   1.799  0.6602  0.7954  1.8263
 4962TIP3    H236446   6.371   1.799   1.784  1.0626  0.9009 -2.0807
 4963TIP3   OH236447   3.934   1.839   1.247 -0.1639 -0.3799  0.1032
 4963TIP3    H136448   3.958   1.759   1.201 -0.9294 -0.1519 -0.7263
 4963TIP3    H236449   3.970   1.910   1.193  0.7748 -0.1548  0.9880
 4964TIP3   OH236450   3.818   5.444   8.334  0.6500  0.0483  0.4339
 4964TIP3    H136451   3.786   5.406   8.416  0.2068  1.1641  0.8058
 4964TIP3    H236452   3.744   5.495   8.300  1.2581  0.7088  0.0576
 4965TIP3   OH236453   2.159   3.488   8.779 -0.5918 -0.4717 -0.0277
 4965TIP3    H136454   2.121   3.410   8.740 -3.0972  0.4461  0.3257
 4965TIP3    H236455   2.085   3.529   8.825  0.7827  1.7356  0.3545
 4966TIP3   OH236456   5.526   4.212   1.108  0.0170  0.0054  0.8566
 4966TIP3    H136457   5.521   4.282   1.043 -3.4667 -2.2212 -1.6370
 4966TIP3    H236458   5.611   4.171   1.092 -0.8272 -0.6684 -2.7757
 4967TIP3   OH236459   1.362   6.549   2.685  0.0196 -0.4850  0.2098
 4967TIP3    H136460   1.339   6.477   2.744  1.2168 -0.3806  0.8106
 4967TIP3    H236461   1.360   6.627   2.740  2.1867 -0.5171  0.4090
 4968TIP3   OH236462   4.836   1.168   0.740  0.0864  0.2770 -0.7586
 4968TIP3    H136463   4.908   1.217   0.700  0.1258 -0.7882 -2.0754
 4968TIP3    H236464   4.783   1.139   0.665 -1.0261  0.0071  0.1149
 4969TIP3   OH236465   1.468   0.763   1.303 -0.5212 -0.5949  0.4781
 4969TIP3    H136466   1.443   0.693   1.243 -3.8151  0.0320  0.9233
 4969TIP3    H236467   1.515   0.826   1.248 -2.4764 -0.5506 -1.2747
 4970TIP3   OH236468   0.168   5.485   7.510  0.2807  0.2185 -0.4888
 4970TIP3    H136469   0.187   5.532   7.591  2.9514 -1.5969  0.0701
 4970TIP3    H236470   0.189   5.547   7.441  0.9710  0.8011  0.2239
 4971TIP3   OH236471   4.096   3.921   8.448 -0.6442 -0.1449  0.1957
 4971TIP3    H136472   4.159   3.992   8.442 -0.0613 -0.7662 -3.2870
 4971TIP3    H236473   4.147   3.842   8.428 -1.7548 -1.2728  1.5341
 4972TIP3   OH236474   1.102   1.662   8.696  0.2040 -0.2453 -0.1288
 4972TIP3    H136475   1.025   1.716   8.677 -0.2849  0.0144  2.2362
 4972TIP3    H236476   1.089   1.634   8.786  1.2233 -3.0819 -0.7720
 4973TIP3   OH236477   5.883   6.627   2.645 -0.0415 -0.1450 -0.7206
 4973TIP3    H136478   5.950   6.564   2.621 -0.1054 -0.5101  0.0205
 4973TIP3    H236479   5.915   6.667   2.726 -0.2201  0.4436 -0.9337
 4974TIP3   OH236480   5.530   6.034   2.929  0.0380  1.4203  0.2725
 4974TIP3    H136481   5.604   6.050   2.869 -1.3980 -0.0182 -2.0176
 4974TIP3    H236482   5.572   6.005   3.010  2.0474 -1.3980 -1.5749
 4975TIP3   OH236483   6.581   6.113   0.504 -1.0931  0.3205 -0.2314
 4975TIP3    H136484   6.554   6.171   0.575  2.2979  1.2530  0.5105
 4975TIP3    H236485   6.620   6.038   0.548 -1.4267 -0.4173 -1.1599
 4976TIP3   OH236486   2.284   0.624   8.476  0.8836 -0.1505  0.3690
 4976TIP3    H136487   2.204   0.580   8.448  1.0795 -0.5542  0.4426
 4976TIP3    H236488   2.348   0.604   8.407  0.4418  1.6810 -0.6593
 4977TIP3   OH236489   2.395   3.751   7.017 -0.0265  0.1225  0.3243
 4977TIP3    H136490   2.372   3.712   7.101  0.4314 -0.1477  0.3312
 4977TIP3    H236491   2.311   3.767   6.974 -0.2360 -1.3662  0.1108
 4978TIP3   OH236492   5.930   4.767   7.925 -0.0118  0.1149  0.3568
 4978TIP3    H136493   5.900   4.857   7.912  1.2379  0.8015  1.9108
 4978TIP3    H236494   6.020   4.766   7.892 -0.6414 -1.1622 -1.5671
 4979TIP3   OH236495   1.950   5.892   7.906  0.6689 -0.5086  0.4490
 4979TIP3    H136496   2.036   5.852   7.893  0.3333 -1.0992 -0.0157
 4979TIP3    H236497   1.890   5.837   7.856  0.0265 -0.0635  0.7106
 4980TIP3   OH236498   1.126   3.108   7.595 -0.2333 -0.7111 -0.2605
 4980TIP3    H136499   1.054   3.119   7.533  0.2879 -0.8735 -0.9006
 4980TIP3    H236500   1.177   3.036   7.560 -0.6884 -1.7450  1.1007
 4981TIP3   OH236501   2.605   6.394   7.885  0.0122 -0.0458  0.1497
 4981TIP3    H136502   2.684   6.404   7.831  0.1725 -2.4916 -0.1573
 4981TIP3    H236503   2.576   6.484   7.900  2.9394  0.9768  0.4444
 4982TIP3   OH236504   0.288   4.248   0.780  0.0361  0.3719 -0.1728
 4982TIP3    H136505   0.287   4.227   0.686 -0.0318  1.0075 -0.3210
 4982TIP3    H236506   0.216   4.196   0.816 -0.1364  0.3543 -0.5304
 4983TIP3   OH236507   0.263   1.172   0.571 -0.1768  0.0640  0.5893
 4983TIP3    H136508   0.299   1.214   0.649  0.5323  1.2160 -0.3380
 4983TIP3    H236509   0.338   1.130   0.530 -0.6467 -1.0164  0.7981
 4984TIP3   OH236510   6.412   5.647   2.946  1.1365  0.2392 -0.0049
 4984TIP3    H136511   6.387   5.585   2.878 -0.4433  1.5965 -0.7395
 4984TIP3    H236512   6.408   5.597   3.027  0.5931 -0.7955 -0.6516
 4985TIP3   OH236513   3.687   1.480   8.045  0.2044 -0.5326 -0.1117
 4985TIP3    H136514   3.611   1.433   8.079  0.6640 -0.3362  1.2394
 4985TIP3    H236515   3.663   1.572   8.050 -0.5497 -0.5425 -2.4047
 4986TIP3   OH236516   5.533   4.481   1.033 -0.2549  0.2807 -0.2999
 4986TIP3    H136517   5.484   4.552   1.074 -0.1085  0.9559 -1.2516
 4986TIP3    H236518   5.529   4.500   0.939  0.3537 -0.6104 -0.5246
 4987TIP3   OH236519   6.525   4.034   0.960 -0.2896 -0.1408 -0.1807
 4987TIP3    H136520   6.462   4.090   1.006  1.7276  0.2672  2.2318
 4987TIP3    H236521   6.508   3.946   0.994 -2.0077 -0.7720 -2.3877
 4988TIP3   OH236522   4.035   2.110   7.702  0.1516 -0.4990  0.0764
 4988TIP3    H136523   3.975   2.185   7.700 -0.2917 -0.7888 -3.1411
 4988TIP3    H236524   4.121   2.150   7.714 -0.3682  0.1360  2.1234
 4989TIP3   OH236525   2.385   4.986   1.636 -0.3318  0.1329 -0.0430
 4989TIP3    H136526   2.330   4.910   1.657  0.6651 -0.1484  1.7707
 4989TIP3    H236527   2.426   5.009   1.719  0.0032  2.1912 -0.7263
 4990TIP3   OH236528   5.404   2.340   1.301 -0.5356 -0.1872  0.5874
 4990TIP3    H136529   5.434   2.258   1.341 -0.3911 -0.9242 -0.9707
 4990TIP3    H236530   5.449   2.344   1.217  0.3658  2.1013  1.0987
 4991TIP3   OH236531   3.600   5.595   8.173 -0.4291 -0.0439 -0.1220
 4991TIP3    H136532   3.673   5.642   8.131 -0.2635 -1.0139 -0.9481
 4991TIP3    H236533   3.525   5.612   8.116 -0.8859  1.0040  0.7606
 4992TIP3   OH236534   6.668   3.990   2.421  0.1956  0.0318  0.2145
 4992TIP3    H136535   6.577   3.963   2.432  0.1209 -0.6678 -1.7606
 4992TIP3    H236536   6.703   3.931   2.354  2.6814 -0.9689  2.2417
 4993TIP3   OH236537   0.495   1.579   0.936  0.1744 -0.4702 -0.0463
 4993TIP3    H136538   0.502   1.494   0.979  0.0775 -0.3582  0.1891
 4993TIP3    H236539   0.534   1.641   0.997 -0.2869 -0.2587  0.0363
 4994TIP3   OH236540   3.077   6.350   0.169 -0.0170 -0.8954 -0.3460
 4994TIP3    H136541   3.002   6.325   0.223  0.8858 -0.7870  0.9843
 4994TIP3    H236542   3.093   6.441   0.190 -1.0997 -0.0855 -2.5972
 4995TIP3   OH236543   1.586   5.374   0.965 -0.0752 -0.6192  0.2400
 4995TIP3    H136544   1.538   5.292   0.980 -0.3653 -0.6766 -0.9157
 4995TIP3    H236545   1.673   5.346   0.938  0.1043 -0.5322  0.7221
 4996TIP3   OH236546   0.285   5.752   6.835 -0.6425  0.5279  0.0590
 4996TIP3    H136547   0.227   5.701   6.892  0.4930 -1.0656 -0.1313
 4996TIP3    H236548   0.227   5.790   6.769 -1.5899 -0.1886  0.4625
 4997TIP3   OH236549   4.474   3.120   1.450  0.1732  0.2204 -0.2348
 4997TIP3    H136550   4.484   3.131   1.545  0.6186  2.6791 -0.4921
 4997TIP3    H236551   4.380   3.129   1.434  0.0999 -0.1777 -0.0376
 4998TIP3   OH236552   1.046   0.114   7.472  0.1834 -0.0699 -0.1565
 4998TIP3    H136553   1.056   0.037   7.416  1.1684 -0.2034  0.1773
 4998TIP3    H236554   1.054   0.188   7.411 -0.3068 -0.2186 -0.4096
 4999TIP3   OH236555   2.597   1.310   8.298 -0.5331  0.4600  0.3318
 4999TIP3    H136556   2.582   1.340   8.387  0.5276  1.1637  0.2994
 4999TIP3    H236557   2.656   1.375   8.260  0.9278 -1.0347 -0.1267
 5000TIP3   OH236558   1.000   1.529   2.379  0.4029  0.0213 -0.1413
 5000TIP3    H136559   0.979   1.446   2.423  1.6484 -0.0226  0.4036
 5000TIP3    H236560   0.970   1.597   2.439 -0.4799 -0.0249 -0.5196
 5001TIP3   OH236561   6.497   0.983   6.910 -0.0773  0.0736  0.5673
 5001TIP3    H136562   6.435   0.965   6.840  0.9903  0.5966 -0.5740
 5001TIP3    H236563   6.476   1.072   6.939  0.9135  0.7585 -0.7175
 5002TIP3   OH236564   3.014   2.620   0.941  0.1147 -0.3494 -0.7490
 5002TIP3    H136565   2.966   2.692   0.983  2.0305  0.1100  0.7783
 5002TIP3    H236566   2.961   2.542   0.960 -0.6932  0.2976 -0.2468
 5003TIP3   OH236567   5.157   6.705   3.118 -0.4249  0.0470  0.1296
 5003TIP3    H136568   5.064   6.684   3.116 -0.8833  1.9113 -0.3009
 5003TIP3    H236569   5.165   6.784   3.065  1.7466 -1.2416 -1.6696
 5004TIP3   OH236570   4.251   2.264   7.737 -0.2131  0.2461 -0.0981
 5004TIP3    H136571   4.321   2.286   7.798 -0.4933  0.8820  0.0073
 5004TIP3    H236572   4.183   2.329   7.755 -0.6817 -0.1416 -0.4449
 5005TIP3   OH236573   2.406   1.474   1.034 -0.4694  0.2629  0.2450
 5005TIP3    H136574   2.400   1.537   0.962 -1.7822  0.7532  0.7550
 5005TIP3    H236575   2.323   1.483   1.081  0.2760 -0.2016  1.7085
 5006TIP3   OH236576   4.138   2.459   1.292 -1.0248  0.4983 -0.3389
 5006TIP3    H136577   4.056   2.426   1.330 -1.3754  2.3685  0.6699
 5006TIP3    H236578   4.181   2.503   1.365  0.3721  0.5091 -1.1421
 5007TIP3   OH236579   1.710   1.376   1.890 -0.0590  0.0875 -0.1777
 5007TIP3    H136580   1.624   1.417   1.902  0.5893  1.5280 -0.2926
 5007TIP3    H236581   1.768   1.423   1.949  0.9226 -0.0216 -1.0179
 5008TIP3   OH236582   1.151   6.422   8.526  0.4892 -0.2202  0.0826
 5008TIP3    H136583   1.068   6.429   8.572  0.7108  3.5059  0.2462
 5008TIP3    H236584   1.217   6.425   8.595  0.8090 -1.2625 -0.1596
 5009TIP3   OH236585   3.497   5.289   0.236  0.2397 -0.0173 -0.1990
 5009TIP3    H136586   3.449   5.336   0.304  2.8819  0.0239  1.8277
 5009TIP3    H236587   3.546   5.222   0.283  2.0287 -0.1321 -2.0644
 5010TIP3   OH236588   2.202   0.032   1.170 -0.1248  0.1153 -0.1482
 5010TIP3    H136589   2.205   0.104   1.233  0.9813 -0.7851  0.8876
 5010TIP3    H236590   2.249  -0.039   1.213 -0.3012 -0.8981 -1.5580
 5011TIP3   OH236591   0.200   3.254   2.404 -0.3935 -0.4977  0.1898
 5011TIP3    H136592   0.294   3.266   2.391  0.3115 -0.2684  4.0434
 5011TIP3    H236593   0.165   3.343   2.407  0.5365 -0.0134  4.6630
 5012TIP3   OH236594   5.968   3.587   7.397 -0.2096 -0.1918 -0.4123
 5012TIP3    H136595   6.023   3.665   7.389  1.8260 -1.6469 -1.5655
 5012TIP3    H236596   5.885   3.620   7.432  1.8492  1.9280  3.0298
 5013TIP3   OH236597   4.700   4.814   8.039 -0.1494 -0.1725  0.3884
 5013TIP3    H136598   4.618   4.824   8.087 -2.0950 -1.0334 -2.5287
 5013TIP3    H236599   4.697   4.724   8.006  2.3215 -0.4365  0.7023
 5014TIP3   OH236600   5.050   1.105   1.676 -0.3467 -0.3005  0.7042
 5014TIP3    H136601   4.978   1.157   1.712 -0.7094  2.0586 -2.9113
 5014TIP3    H236602   5.120   1.169   1.661 -0.7656 -0.6061 -3.8345
 5015TIP3   OH236603   6.662   1.682   6.794  0.4708 -0.1004  0.7267
 5015TIP3    H136604   6.687   1.755   6.851 -0.9508  0.3413  0.8108
 5015TIP3    H236605   6.617   1.620   6.851  0.1455 -0.2357  0.3307
 5016TIP3   OH236606   4.556   4.840   0.285  0.5453  0.7246  0.0955
 5016TIP3    H136607   4.576   4.811   0.196  0.9409  1.4858 -0.0820
 5016TIP3    H236608   4.534   4.761   0.333  0.6093  0.2736 -0.6127
 5017TIP3   OH236609   6.667   0.589   6.759 -0.4462 -0.3325 -0.8509
 5017TIP3    H136610   6.739   0.652   6.762 -0.2581 -0.5143 -1.4046
 5017TIP3    H236611   6.593   0.638   6.723 -0.6913 -0.0661 -0.0096
 5018TIP3   OH236612   1.921   1.750   0.182 -0.3349  0.1167  0.0880
 5018TIP3    H136613   1.988   1.700   0.229  0.0254 -0.4652 -0.9951
 5018TIP3    H236614   1.971   1.815   0.132 -0.8143  1.8175  1.7201
 5019TIP3   OH236615   2.718   6.123   0.779  0.0873 -0.0945  0.1881
 5019TIP3    H136616   2.657   6.099   0.849 -0.1882  1.0728  0.3717
 5019TIP3    H236617   2.663   6.135   0.702 -0.2140  2.4969  0.7008
 5020TIP3   OH236618   4.018   2.738   8.080  0.0794  0.4986 -0.1421
 5020TIP3    H136619   3.951   2.806   8.094 -1.6807 -1.1138 -0.3833
 5020TIP3    H236620   4.012   2.718   7.986  2.0835  1.4646 -0.5183
 5021TIP3   OH236621   2.861   4.287   0.648 -0.0705 -0.2853 -0.5168
 5021TIP3    H136622   2.816   4.277   0.565 -0.8101 -0.6409 -0.0870
 5021TIP3    H236623   2.850   4.203   0.692  0.8486 -0.3129 -0.3112
 5022TIP3   OH236624   3.443   3.962   1.056  0.9671 -0.1576  0.4654
 5022TIP3    H136625   3.381   4.027   1.024 -0.2992 -0.7402  1.6473
 5022TIP3    H236626   3.445   3.895   0.987 -2.0348 -1.5984  1.6140
 5023TIP3   OH236627   3.645   0.588   2.208  0.7485 -0.5957  0.2800
 5023TIP3    H136628   3.634   0.681   2.192 -0.2872 -0.6758  0.4469
 5023TIP3    H236629   3.699   0.556   2.136  1.0105  0.1096  0.1646
 5024TIP3   OH236630   2.147   6.742   1.800 -0.1630  0.1676 -1.0583
 5024TIP3    H136631   2.150   6.748   1.896  0.4387 -0.6141 -1.0179
 5024TIP3    H236632   2.239   6.736   1.774 -0.0095  3.8939 -1.9742
 5025TIP3   OH236633   4.131   0.055   7.770 -0.6616 -0.2333  0.0101
 5025TIP3    H136634   4.094   0.110   7.839 -0.9201  0.4200 -0.6359
 5025TIP3    H236635   4.105   0.099   7.688  2.3838  0.8953 -0.4850
 5026TIP3   OH236636   4.597   5.582   8.146  0.1429 -0.3580 -0.3897
 5026TIP3    H136637   4.539   5.582   8.069 -1.7423  2.5937  0.8451
 5026TIP3    H236638   4.650   5.661   8.135 -0.4385  0.3309  1.4741
 5027TIP3   OH236639   1.149   6.030   8.042  0.3510 -0.3170  0.2092
 5027TIP3    H136640   1.183   5.941   8.045 -0.4909 -0.6322  2.6352
 5027TIP3    H236641   1.203   6.079   8.104 -0.1192  0.5153 -0.0193
 5028TIP3   OH236642   6.078   0.907   7.517  0.3417  0.0303  0.3704
 5028TIP3    H136643   6.032   0.869   7.441 -1.9230 -1.3081  2.2606
 5028TIP3    H236644   6.067   1.001   7.506 -1.5935 -0.1892 -0.0822
 5029TIP3   OH236645   0.282   0.107   8.385  0.1627 -0.2192 -0.1216
 5029TIP3    H136646   0.344   0.046   8.425 -1.5777 -1.7232  0.4927
 5029TIP3    H236647   0.246   0.059   8.310 -0.7213  0.3164 -0.0621
 5030TIP3   OH236648   0.998   1.044   2.353  0.1082  0.3462 -0.7324
 5030TIP3    H136649   0.964   1.082   2.434 -0.4770  0.3663 -0.9867
 5030TIP3    H236650   1.088   1.076   2.348  0.0941  0.4770 -0.1735
 5031TIP3   OH236651   6.648   5.241   2.462  0.0120 -0.5403 -0.1803
 5031TIP3    H136652   6.554   5.261   2.464 -0.5809 -2.8460  3.0220
 5031TIP3    H236653   6.653   5.146   2.448  2.0341 -0.2629 -1.9506
 5032TIP3   OH236654   2.842   2.097   2.745  0.2792 -0.1350 -0.0216
 5032TIP3    H136655   2.889   2.026   2.788  0.9222 -0.7540 -1.6605
 5032TIP3    H236656   2.903   2.170   2.746  0.8610 -0.5879 -1.1258
 5033TIP3   OH236657   1.172   5.740   0.684 -0.1060 -0.0777 -0.3164
 5033TIP3    H136658   1.226   5.711   0.757  0.6772 -0.3439 -0.9881
 5033TIP3    H236659   1.166   5.835   0.696 -1.3768 -0.2792  1.0037
 5034TIP3   OH236660   6.669   6.103   2.691 -0.2654  0.1331  0.5252
 5034TIP3    H136661   6.593   6.100   2.749 -0.6975  0.8795  0.0109
 5034TIP3    H236662   6.633   6.088   2.604  0.2649 -0.1324  0.3463
 5035TIP3   OH236663   1.350   4.676   0.316  0.1805 -0.3129  0.4668
 5035TIP3    H136664   1.414   4.637   0.376  0.9342  0.9000  0.4872
 5035TIP3    H236665   1.394   4.676   0.231 -0.8210 -1.8702 -0.0972
 5036TIP3   OH236666   2.324   0.358   1.483  0.4922 -0.4787 -0.1830
 5036TIP3    H136667   2.366   0.310   1.554  2.5145  0.5251 -0.6322
 5036TIP3    H236668   2.377   0.437   1.471 -0.9761  0.4011 -1.4639
 5037TIP3   OH236669   0.451   3.857   1.952 -0.1916  0.0178  0.5009
 5037TIP3    H136670   0.402   3.775   1.950  0.9472 -0.7665  2.1266
 5037TIP3    H236671   0.462   3.881   1.860  0.1482 -2.0927 -0.0559
 5038TIP3   OH236672   0.320   3.787   8.571  0.0624  0.3290 -0.3315
 5038TIP3    H136673   0.321   3.862   8.511 -0.6478 -0.0763 -0.8642
 5038TIP3    H236674   0.408   3.749   8.563  0.3700  1.0005 -0.1855
 5039TIP3   OH236675   1.875   3.157   2.000  0.0393  0.0041  0.5583
 5039TIP3    H136676   1.803   3.130   1.944  2.4289 -0.5054 -2.5471
 5039TIP3    H236677   1.876   3.094   2.071 -1.3349 -1.2308 -0.4665
 5040TIP3   OH236678   4.204   2.522   0.326  0.4554  0.2072  0.1028
 5040TIP3    H136679   4.185   2.474   0.407  1.3070  0.4036  0.4259
 5040TIP3    H236680   4.119   2.558   0.299 -0.0830 -0.9441  0.1935
 5041TIP3   OH236681   2.673   2.744   7.990 -0.4837 -0.1679  0.7136
 5041TIP3    H136682   2.717   2.781   7.913  0.5228 -1.7624  0.4672
 5041TIP3    H236683   2.624   2.669   7.956 -2.5914  0.9237  1.1699
 5042TIP3   OH236684   2.092   4.437   0.949  0.4297  0.2521  0.0285
 5042TIP3    H136685   2.030   4.403   1.014 -0.0360  1.1507  0.0627
 5042TIP3    H236686   2.043   4.440   0.867  1.1628 -1.3574 -0.5162
 5043TIP3   OH236687   5.202   4.657   2.925 -0.3676  0.1262 -0.1111
 5043TIP3    H136688   5.280   4.618   2.887 -1.8751 -2.0510 -1.1995
 5043TIP3    H236689   5.196   4.619   3.013  1.0666  2.2443  0.9934
 5044TIP3   OH236690   1.732   0.938   0.172  0.2980  0.2976 -0.7302
 5044TIP3    H136691   1.720   0.945   0.267  1.8854  0.0725 -0.4791
 5044TIP3    H236692   1.809   0.881   0.162  1.0288  1.4573 -2.1043
 5045TIP3   OH236693   4.953   3.106   6.668 -0.4971  0.4374 -0.7632
 5045TIP3    H136694   4.973   3.135   6.579  0.0517  2.5437  0.0069
 5045TIP3    H236695   5.033   3.064   6.698 -0.1293  1.1637 -0.7126
 5046TIP3   OH236696   0.336   5.067   8.684  0.4609 -0.1575  0.0445
 5046TIP3    H136697   0.262   5.116   8.718  0.0032 -0.3052 -0.7136
 5046TIP3    H236698   0.344   4.992   8.742 -1.0849 -1.0639 -0.8517
 5047TIP3   OH236699   3.662   3.645   8.216 -0.2167 -0.6059  0.0884
 5047TIP3    H136700   3.628   3.692   8.292 -0.2875  0.1034 -0.3726
 5047TIP3    H236701   3.757   3.657   8.221 -0.1083 -1.6080  0.7369
 5048TIP3   OH236702   2.095   1.240   7.836 -0.1942 -0.2043  0.1512
 5048TIP3    H136703   2.034   1.203   7.899  0.7502  0.1829  1.3387
 5048TIP3    H236704   2.064   1.210   7.751 -1.7391 -0.4091  0.7600
 5049TIP3   OH236705   5.699   0.259   7.187 -0.4812 -0.5232 -0.5891
 5049TIP3    H136706   5.761   0.187   7.180  0.6684 -0.1281  3.1307
 5049TIP3    H236707   5.743   0.333   7.146  0.1326 -0.9694 -0.7434
 5050TIP3   OH236708   4.762   6.723   2.510  0.0119  0.0111 -0.1314
 5050TIP3    H136709   4.774   6.813   2.538  0.3452  0.6391 -2.1568
 5050TIP3    H236710   4.667   6.712   2.502  0.0158  0.5870 -1.0688
 5051TIP3   OH236711   2.254   5.862   1.084 -0.0435 -0.5217 -0.2310
 5051TIP3    H136712   2.168   5.885   1.049  0.4019 -1.0956 -1.7546
 5051TIP3    H236713   2.242   5.866   1.179 -1.3155  1.0082 -0.4060
 5052TIP3   OH236714   1.857   3.886   8.358 -0.1024 -0.4233 -0.0436
 5052TIP3    H136715   1.792   3.953   8.378  0.0731 -0.4869  0.7802
 5052TIP3    H236716   1.842   3.865   8.266  1.0681  2.0892 -0.9042
 5053TIP3   OH236717   5.595   2.703   7.792  0.1007  0.2029 -0.1857
 5053TIP3    H136718   5.592   2.608   7.778  0.0545  0.2036 -0.1809
 5053TIP3    H236719   5.536   2.718   7.865  0.5249  0.1685  0.1729
 5054TIP3   OH236720   2.800   4.321   1.724 -0.2402 -0.3159  0.0007
 5054TIP3    H136721   2.762   4.241   1.761 -0.5996 -0.6582 -1.0720
 5054TIP3    H236722   2.869   4.290   1.665 -0.4272  0.1562 -0.4726
 5055TIP3   OH236723   4.674   1.111   0.499 -0.7692 -0.3890 -0.1538
 5055TIP3    H136724   4.620   1.042   0.460 -0.1815  0.5169 -2.7530
 5055TIP3    H236725   4.635   1.193   0.470  0.5935  0.3128 -0.1143
 5056TIP3   OH236726   3.368   5.398   0.477 -0.6453  0.7167 -0.3458
 5056TIP3    H136727   3.446   5.452   0.472 -0.4564  0.3912 -0.9427
 5056TIP3    H236728   3.300   5.458   0.509  0.1846  0.6228  1.7350
 5057TIP3   OH236729   4.214   2.397   8.076  0.1554 -0.6475 -0.3328
 5057TIP3    H136730   4.245   2.310   8.100 -0.0915 -0.4536  0.7440
 5057TIP3    H236731   4.292   2.453   8.079  0.0262 -0.4976  0.7050
 5058TIP3   OH236732   3.651   2.948   8.304  0.1059  0.6684 -0.1327
 5058TIP3    H136733   3.633   2.878   8.242 -0.9855  2.0548 -1.4945
 5058TIP3    H236734   3.610   2.920   8.386 -1.4103  0.2406 -1.0015
 5059TIP3   OH236735   2.237   3.782   8.501 -0.0234 -0.4199  0.8659
 5059TIP3    H136736   2.170   3.746   8.559 -0.0352  1.7617  2.3053
 5059TIP3    H236737   2.301   3.823   8.559  1.6363 -0.8436 -0.5581
 5060TIP3   OH236738   4.279   1.247   8.823  0.1176  0.1548  0.1215
 5060TIP3    H136739   4.347   1.183   8.803  0.6320  0.7518 -0.0979
 5060TIP3    H236740   4.307   1.327   8.778 -0.0393  0.7897  1.0963
 5061TIP3   OH236741   2.697   6.420   1.707 -0.2423  0.3441 -0.1590
 5061TIP3    H136742   2.702   6.427   1.611  1.4290  1.4095 -0.0276
 5061TIP3    H236743   2.778   6.460   1.738  0.3429 -2.0342  1.6247
 5062TIP3   OH236744   6.728   3.828   0.440 -0.2680  0.2118  0.5669
 5062TIP3    H136745   6.691   3.853   0.356 -3.3084 -1.1220  1.3828
 5062TIP3    H236746   6.789   3.757   0.420 -1.9678 -1.0383 -0.4894
 5063TIP3   OH236747   3.848   6.521   2.254  0.1040  0.0099  0.1795
 5063TIP3    H136748   3.931   6.512   2.299  0.2496  0.2781 -0.0305
 5063TIP3    H236749   3.782   6.491   2.317  0.0771  2.3995  1.4054
 5064TIP3   OH236750   3.194   5.992   0.411  0.5016 -0.4198  0.1561
 5064TIP3    H136751   3.154   5.907   0.428 -1.7946  0.9549  2.3059
 5064TIP3    H236752   3.122   6.055   0.418  2.2030  1.7822 -0.7483
 5065TIP3   OH236753   1.560   0.640   7.823 -0.6342  0.5095  0.6243
 5065TIP3    H136754   1.611   0.721   7.829  1.0151 -0.5244  1.3962
 5065TIP3    H236755   1.553   0.623   7.729  0.5445  0.6300  0.5038
 5066TIP3   OH236756   0.224   4.321   7.522 -0.2282  0.4165 -0.1942
 5066TIP3    H136757   0.230   4.227   7.541  0.2760  0.4335 -0.2376
 5066TIP3    H236758   0.314   4.352   7.530 -0.5233  1.0729  0.6623
 5067TIP3   OH236759   4.646   4.325   1.525  0.2533 -0.8873 -0.0194
 5067TIP3    H136760   4.729   4.289   1.555  0.1011 -1.3479 -0.1394
 5067TIP3    H236761   4.619   4.385   1.595  1.8249  1.1107 -1.0265
 5068TIP3   OH236762   4.087   6.552   2.396 -0.0022  0.4815 -0.3117
 5068TIP3    H136763   4.117   6.642   2.379  0.5045  0.1445 -1.3185
 5068TIP3    H236764   4.167   6.500   2.394 -0.4779 -0.2367 -1.5500
 5069TIP3   OH236765   0.577   2.016   8.807 -0.2519 -0.3410  0.3698
 5069TIP3    H136766   0.602   2.045   8.894 -1.6197 -0.6343  0.8782
 5069TIP3    H236767   0.660   1.999   8.763  0.5172  1.3034  1.0807
 5070TIP3   OH236768   4.956   5.728   1.263  0.1662  0.3080  0.8150
 5070TIP3    H136769   4.957   5.742   1.168 -2.9656 -0.9056  0.4665
 5070TIP3    H236770   5.034   5.676   1.281  0.0003 -0.8231 -1.4089
 5071TIP3   OH236771   3.709   1.999   1.092  1.1297 -0.0781 -0.0131
 5071TIP3    H136772   3.625   1.976   1.052  0.5778  2.3045 -0.3488
 5071TIP3    H236773   3.767   1.926   1.068 -0.6258 -1.4459 -0.3549
 5072TIP3   OH236774   4.232   2.944   2.022  0.0948  0.2452  0.4353
 5072TIP3    H136775   4.238   3.016   2.085 -0.0147  1.1381 -0.5505
 5072TIP3    H236776   4.281   2.974   1.946  0.3002 -0.8553  0.1121
 5073TIP3   OH236777   2.556   4.410   0.665 -0.5008  0.8859  0.1330
 5073TIP3    H136778   2.616   4.431   0.593 -0.4582  0.5810  0.0767
 5073TIP3    H236779   2.595   4.451   0.742  0.9896 -1.1464  0.5495
 5074TIP3   OH236780   6.572   2.452   8.529 -0.0387 -0.0885  0.7132
 5074TIP3    H136781   6.626   2.531   8.523 -0.2162 -0.1078 -1.9516
 5074TIP3    H236782   6.555   2.443   8.623  1.2153  2.1869  1.2425
 5075TIP3   OH236783   6.567   5.465   2.171 -0.7293  0.3738 -0.5090
 5075TIP3    H136784   6.567   5.518   2.251 -0.7531  1.5735 -1.2819
 5075TIP3    H236785   6.643   5.497   2.121 -1.5513  0.6562 -1.6133
 5076TIP3   OH236786   3.336   0.414   1.219  0.1322  0.6336 -0.7706
 5076TIP3    H136787   3.284   0.388   1.295  0.8290  0.2931 -0.3922
 5076TIP3    H236788   3.315   0.506   1.206  0.4947  0.8791  0.2613
 5077TIP3   OH236789   0.304   5.991   6.942 -0.0930 -0.0439  0.4404
 5077TIP3    H136790   0.245   6.013   6.870  0.1520  0.7940  0.4888
 5077TIP3    H236791   0.327   5.899   6.927 -2.0468 -0.6550  0.8610
 5078TIP3   OH236792   4.911   5.450   0.054  0.4985 -0.3548 -0.0238
 5078TIP3    H136793   4.993   5.440   0.005  1.2394 -1.4067  1.3518
 5078TIP3    H236794   4.909   5.542   0.079  0.6784 -0.0648 -1.0204
 5079TIP3   OH236795   1.419   2.521   0.925 -0.3365  0.3643  0.0056
 5079TIP3    H136796   1.338   2.533   0.875  0.8371 -0.0210 -2.1133
 5079TIP3    H236797   1.431   2.426   0.928  0.8791  0.4404 -1.2417
 5080TIP3   OH236798   1.441   5.160   1.670  0.2120  0.5068  0.5984
 5080TIP3    H136799   1.439   5.123   1.759  1.3627 -1.3695 -0.0972
 5080TIP3    H236800   1.533   5.182   1.656  0.5024 -1.4451 -0.9404
 5081TIP3   OH236801   5.065   0.662   1.415  0.4774 -0.2228 -0.2592
 5081TIP3    H136802   5.018   0.729   1.464  0.3952 -0.9267  0.6532
 5081TIP3    H236803   5.157   0.688   1.420  0.7007 -1.2333  1.8715
 5082TIP3   OH236804   0.294   2.781   1.768  0.4354 -0.1545 -0.1848
 5082TIP3    H136805   0.333   2.760   1.853  0.5970 -1.2378 -0.5106
 5082TIP3    H236806   0.235   2.707   1.751  0.5107 -0.0112 -1.0774
 5083TIP3   OH236807   1.416   2.016   7.846 -0.6870  0.0775 -0.0041
 5083TIP3    H136808   1.336   2.044   7.891 -0.3451  1.2332 -0.0722
 5083TIP3    H236809   1.397   1.927   7.816 -0.3626 -1.4761  3.8269
 5084TIP3   OH236810   2.477   5.538   0.897 -0.1681  0.0551 -0.5299
 5084TIP3    H136811   2.472   5.633   0.884 -1.6167  0.1652  0.5850
 5084TIP3    H236812   2.437   5.523   0.983 -0.8920 -1.6513 -1.1129
 5085TIP3   OH236813   2.052   5.206   8.238  0.7294  0.4466 -0.2180
 5085TIP3    H136814   2.135   5.231   8.277  0.2645 -1.5262  2.2184
 5085TIP3    H236815   1.991   5.199   8.311 -2.0011  2.9327 -1.9857
 5086TIP3   OH236816   6.156   6.575   7.803  0.1716  0.0963 -0.7039
 5086TIP3    H136817   6.232   6.533   7.762 -1.1641 -1.5519 -1.6545
 5086TIP3    H236818   6.150   6.661   7.761  3.0260  1.4349  1.3356
 5087TIP3   OH236819   6.153   0.746   1.958 -0.2916  0.3323  0.1874
 5087TIP3    H136820   6.241   0.743   1.993 -0.3912 -0.1431  0.3967
 5087TIP3    H236821   6.156   0.690   1.880 -0.2959  0.6809 -0.0702
 5088TIP3   OH236822   6.265   4.482   7.896 -0.3750 -0.7215 -0.4189
 5088TIP3    H136823   6.355   4.459   7.876 -0.1467 -0.7568  0.6360
 5088TIP3    H236824   6.239   4.541   7.825  0.2823 -1.1628 -1.0304
 5089TIP3   OH236825   2.645   2.561   8.569 -0.2739 -0.8237  0.1113
 5089TIP3    H136826   2.739   2.566   8.588 -0.0712 -0.7761 -0.8416
 5089TIP3    H236827   2.633   2.619   8.494 -1.2170 -0.2008  0.7198
 5090TIP3   OH236828   6.663   6.384   2.799 -0.1360  0.1814 -0.2287
 5090TIP3    H136829   6.599   6.328   2.842  0.4145 -1.1940 -1.1179
 5090TIP3    H236830   6.668   6.462   2.854 -0.8282 -0.6958  1.1327
 5091TIP3   OH236831   2.013   1.029   8.460 -0.0189 -0.5535 -0.0353
 5091TIP3    H136832   2.094   0.978   8.463 -0.8056 -1.8043  1.2600
 5091TIP3    H236833   2.031   1.107   8.512  0.8778  0.0541 -1.2019
 5092TIP3   OH236834   6.393   3.713   1.496  0.2604  0.1683  0.3230
 5092TIP3    H136835   6.367   3.705   1.404  0.4871  1.8412  0.0822
 5092TIP3    H236836   6.334   3.780   1.532  0.9410  0.3694  1.0907
 5093TIP3   OH236837   4.404   6.395   7.244 -0.0346 -0.6252  0.2675
 5093TIP3    H136838   4.446   6.309   7.237 -0.9982 -1.1376  0.6499
 5093TIP3    H236839   4.401   6.412   7.338  0.6330  0.0875  0.1758
 5094TIP3   OH236840   3.880   2.009   7.935  0.5707  0.2752 -0.1959
 5094TIP3    H136841   3.932   2.041   7.861 -0.9495  1.6691 -0.7029
 5094TIP3    H236842   3.792   2.042   7.919 -0.5540 -2.1309  0.5706
 5095TIP3   OH236843   3.729   5.855   1.856  0.2507 -0.3953  0.1906
 5095TIP3    H136844   3.759   5.773   1.817 -0.1195 -1.0139  1.1744
 5095TIP3    H236845   3.645   5.872   1.814  0.8599  0.1350 -0.8858
 5096TIP3   OH236846   5.629   6.287   8.763  0.3383 -0.5147  0.2721
 5096TIP3    H136847   5.558   6.289   8.699  0.3893  0.9412  0.2269
 5096TIP3    H236848   5.664   6.198   8.757 -2.0750 -1.6022  0.9633
 5097TIP3   OH236849   1.452   1.834   0.445  0.1345  0.4358 -0.0478
 5097TIP3    H136850   1.528   1.810   0.392 -0.6701 -0.2669 -0.9109
 5097TIP3    H236851   1.489   1.860   0.530  1.2835 -0.6928 -0.1693
 5098TIP3   OH236852   3.673   3.159   8.556 -0.0508 -0.1558  0.1024
 5098TIP3    H136853   3.639   3.247   8.572 -1.5198 -0.8101  0.8015
 5098TIP3    H236854   3.768   3.168   8.564 -0.2004  1.2902  0.5284
 5099TIP3   OH236855   1.022   4.250   8.791  0.0042  0.6260  0.1484
 5099TIP3    H136856   0.999   4.331   8.836 -1.6270  0.1624  0.2213
 5099TIP3    H236857   1.046   4.277   8.703  1.3960  1.3581  0.7220
 5100TIP3   OH236858   3.913   6.518   0.455 -0.1610 -0.7089 -0.0577
 5100TIP3    H136859   3.976   6.504   0.385  1.1574  1.6294  0.5828
 5100TIP3    H236860   3.833   6.546   0.410  0.1953 -0.7130 -0.6992
 5101TIP3   OH236861   2.205   3.145   1.643  0.2290 -0.1191  0.4821
 5101TIP3    H136862   2.141   3.190   1.699 -0.9807 -1.6276  0.3832
 5101TIP3    H236863   2.242   3.077   1.699  1.8878  0.8239  0.5737
 5102TIP3   OH236864   1.431   2.358   8.123 -0.0567  0.2107  0.0179
 5102TIP3    H136865   1.465   2.314   8.045 -1.9971 -0.0226 -0.7513
 5102TIP3    H236866   1.432   2.451   8.100 -1.7628  0.0614 -0.8164
 5103TIP3   OH236867   2.927   1.784   0.559 -0.5822 -0.5421 -0.1904
 5103TIP3    H136868   2.989   1.758   0.491 -0.3244 -0.7298  0.1168
 5103TIP3    H236869   2.945   1.725   0.632 -0.3287  0.1531  0.3240
 5104TIP3   OH236870   6.098   4.629   7.303 -0.1079 -0.2562 -0.6038
 5104TIP3    H136871   6.092   4.725   7.300 -1.0206 -0.3030 -0.4430
 5104TIP3    H236872   6.019   4.599   7.259  1.1238 -0.9631 -2.4513
 5105TIP3   OH236873   1.253   3.688   0.330 -0.3876  0.4296 -0.2063
 5105TIP3    H136874   1.172   3.667   0.378 -0.7137 -2.3709 -1.7638
 5105TIP3    H236875   1.224   3.742   0.257 -0.5969  0.7561  0.1120
 5106TIP3   OH236876   5.893   6.074   8.865 -0.5166 -0.2767 -0.7207
 5106TIP3    H136877   5.934   6.004   8.916  0.8434  0.1332 -1.1833
 5106TIP3    H236878   5.960   6.099   8.802 -1.4911  0.4927 -1.4820
 5107TIP3   OH236879   0.599   6.616   1.218 -0.5765  0.1352 -0.4209
 5107TIP3    H136880   0.555   6.679   1.160  1.6656  1.4515 -0.8046
 5107TIP3    H236881   0.679   6.593   1.172  1.0288  0.8051  1.8823
 5108TIP3   OH236882   5.402   3.824   1.482  0.4598  0.1756  0.4656
 5108TIP3    H136883   5.350   3.752   1.446  0.2957  0.3828  0.2792
 5108TIP3    H236884   5.438   3.790   1.564  1.1997 -0.4641 -0.1062
 5109TIP3   OH236885   3.183   0.647   8.495  0.4789 -0.4853  0.2129
 5109TIP3    H136886   3.230   0.580   8.446 -0.8738 -0.8927 -0.5823
 5109TIP3    H236887   3.118   0.598   8.546 -0.3291  0.1631 -0.1554
 5110TIP3   OH236888   3.672   2.457   0.539  0.1142  0.0216 -0.3518
 5110TIP3    H136889   3.759   2.419   0.527 -0.1131 -0.4646 -0.4569
 5110TIP3    H236890   3.614   2.382   0.555  0.2636  0.4929  3.3126
 5111TIP3   OH236891   1.662   2.467   1.389 -0.2601  0.0344 -0.5572
 5111TIP3    H136892   1.630   2.412   1.318 -1.0490 -1.4330  0.8671
 5111TIP3    H236893   1.619   2.432   1.467  0.5770  1.5908  0.6459
 5112TIP3   OH236894   3.366   5.510   1.379  0.2469  0.2775  0.2631
 5112TIP3    H136895   3.362   5.538   1.471 -0.0714  1.7872 -0.1793
 5112TIP3    H236896   3.385   5.591   1.330 -1.6728 -0.0805 -1.1834
 5113TIP3   OH236897   2.606   2.102   7.231  0.6342  0.5286  0.4493
 5113TIP3    H136898   2.523   2.084   7.188 -0.4351 -1.2371  2.9841
 5113TIP3    H236899   2.594   2.187   7.273 -0.0865  0.1021  1.1352
 5114TIP3   OH236900   0.552   4.184   7.547 -0.0443  0.4335 -0.3163
 5114TIP3    H136901   0.561   4.238   7.625 -1.3824 -0.4602  0.4828
 5114TIP3    H236902   0.532   4.246   7.477 -1.6121  1.0084  0.5939
 5115TIP3   OH236903   4.764   0.726   7.341 -0.1895 -0.0556  0.2369
 5115TIP3    H136904   4.715   0.786   7.285  0.3651 -0.7118 -0.9916
 5115TIP3    H236905   4.714   0.724   7.423 -0.0920  2.2256  0.4154
 5116TIP3   OH236906   5.931   6.423   0.129  0.1091 -0.0148  0.4736
 5116TIP3    H136907   5.840   6.398   0.144 -1.2203  2.6215 -2.0886
 5116TIP3    H236908   5.950   6.394   0.039  1.8469 -0.5611  0.9708
 5117TIP3   OH236909   4.468   4.409   8.081 -0.3725  0.3788  0.0125
 5117TIP3    H136910   4.386   4.460   8.082  0.8207  2.4065  1.1456
 5117TIP3    H236911   4.536   4.473   8.060  0.9485 -1.2920 -1.1058
 5118TIP3   OH236912   0.176   2.206   8.654  0.1166  0.3993 -0.0357
 5118TIP3    H136913   0.148   2.225   8.564 -0.6267 -0.2449  0.0440
 5118TIP3    H236914   0.240   2.135   8.645  2.3467  2.3141 -0.2735
 5119TIP3   OH236915   0.898   5.434   7.837 -0.0477  0.5511 -0.0885
 5119TIP3    H136916   0.954   5.465   7.765  0.4641  0.4101  0.2443
 5119TIP3    H236917   0.839   5.371   7.796  0.8133 -0.1894 -0.2405
 5120TIP3   OH236918   6.178   3.862   6.603  0.4792 -0.1843  0.7614
 5120TIP3    H136919   6.184   3.880   6.697  1.5421  0.1272  0.6503
 5120TIP3    H236920   6.262   3.893   6.568 -0.2701  0.5817 -0.4310
 5121TIP3   OH236921   5.086   0.974   1.005 -0.0294  0.7027 -0.4038
 5121TIP3    H136922   5.064   1.051   0.951 -0.1561  1.1321  0.2456
 5121TIP3    H236923   5.044   0.901   0.960 -0.2388  1.0712 -0.8215
 5122TIP3   OH236924   3.549   5.699   8.639 -0.1747 -0.3263 -0.2965
 5122TIP3    H136925   3.505   5.777   8.673  0.5774  0.3577 -0.8584
 5122TIP3    H236926   3.623   5.686   8.699  1.4564  1.1787 -1.8385
 5123TIP3   OH236927   0.597   5.007   2.131 -0.5347 -0.0401 -0.3305
 5123TIP3    H136928   0.548   4.925   2.125 -0.3077 -0.2432  0.4037
 5123TIP3    H236929   0.676   4.992   2.081 -0.1813 -0.5185  0.3558
 5124TIP3   OH236930   0.666   0.059   8.336  0.4840 -0.2749  0.0766
 5124TIP3    H136931   0.657   0.016   8.421  0.0520  0.3239  0.3438
 5124TIP3    H236932   0.696  -0.010   8.277 -2.3379 -1.5772 -0.0270
 5125TIP3   OH236933   4.406   3.282   8.081 -0.0876 -0.7168  0.4308
 5125TIP3    H136934   4.384   3.189   8.078  0.4591 -0.8918  1.3192
 5125TIP3    H236935   4.335   3.326   8.035 -0.6734 -1.5222  0.5569
 5126TIP3   OH236936   0.257   6.151   0.168 -0.4326  0.1327 -0.1407
 5126TIP3    H136937   0.199   6.207   0.219  0.0483  1.2990 -0.8469
 5126TIP3    H236938   0.197   6.097   0.116 -0.9266 -1.0453  1.5637
 5127TIP3   OH236939   1.406   5.016   1.893  0.0168 -0.5368  0.3354
 5127TIP3    H136940   1.314   5.039   1.909  0.2201  0.0479  0.6947
 5127TIP3    H236941   1.436   4.980   1.976  0.0812 -0.8624  0.1747
 5128TIP3   OH236942   6.772   1.843   8.267 -0.1648  0.2519  0.1626
 5128TIP3    H136943   6.767   1.869   8.359  2.1840  0.8657  0.1817
 5128TIP3    H236944   6.775   1.747   8.269 -1.3457  0.2143  0.6204
 5129TIP3   OH236945   5.560   0.717   8.468  0.4570 -0.4971 -0.3641
 5129TIP3    H136946   5.543   0.722   8.562 -0.7509  1.4012 -0.6461
 5129TIP3    H236947   5.630   0.779   8.452 -0.1722  0.1019 -0.8761
 5130TIP3   OH236948   0.459   0.995   7.964 -0.0773  0.0349  0.2827
 5130TIP3    H136949   0.424   0.906   7.956 -0.1172  0.1210 -0.6733
 5130TIP3    H236950   0.484   1.018   7.875  1.3211  0.4209  0.7503
 5131TIP3   OH236951   4.857   5.450   8.080  0.2460 -0.3311  0.1757
 5131TIP3    H136952   4.765   5.466   8.059 -0.4486 -4.1289 -0.3521
 5131TIP3    H236953   4.906   5.501   8.015 -1.6353 -1.7937 -2.5418
 5132TIP3   OH236954   4.721   6.538   7.724  0.5915 -0.1285  0.9142
 5132TIP3    H136955   4.665   6.564   7.650  0.7928  0.5989  1.0099
 5132TIP3    H236956   4.662   6.538   7.799  0.8017  1.1045  1.1007
 5133TIP3   OH236957   0.134   6.614   0.553  0.1275  0.1540  0.3070
 5133TIP3    H136958   0.146   6.614   0.648 -2.0337 -2.5267  0.6999
 5133TIP3    H236959   0.048   6.574   0.539  1.7159 -2.7206 -2.8524
 5134TIP3   OH236960   6.456   4.407   0.718 -0.2207 -0.3783  0.5286
 5134TIP3    H136961   6.389   4.429   0.654 -1.1945  1.7851  2.1476
 5134TIP3    H236962   6.418   4.433   0.802  1.2014 -2.5741  1.9755
 5135TIP3   OH236963   2.882   5.610   0.663  0.1431 -0.8982 -0.1482
 5135TIP3    H136964   2.956   5.552   0.649  0.0205 -0.8963 -0.8159
 5135TIP3    H236965   2.810   5.552   0.686  0.2937 -0.9158  0.2986
 5136TIP3   OH236966   6.617   1.472   1.770  0.9697 -0.1072 -0.1877
 5136TIP3    H136967   6.611   1.543   1.707  0.4130  0.5421  0.5640
 5136TIP3    H236968   6.540   1.418   1.753 -0.4972  1.3556  1.3992
 5137TIP3   OH236969   6.326   0.293   7.676 -0.4595 -0.5264 -0.3251
 5137TIP3    H136970   6.315   0.209   7.720 -1.9421  0.0386  0.4402
 5137TIP3    H236971   6.326   0.271   7.583  1.8023 -1.6304 -0.1409
 5138TIP3   OH236972   0.210   3.045   0.436 -0.7609 -0.3699 -0.0132
 5138TIP3    H136973   0.237   2.963   0.394 -1.2444  0.0259 -1.1216
 5138TIP3    H236974   0.235   3.033   0.528 -0.6100 -1.6626 -0.1952
 5139TIP3   OH236975   1.292   5.121   1.428  0.6090 -0.1432  0.4555
 5139TIP3    H136976   1.229   5.051   1.444  1.3678 -1.3766 -1.4938
 5139TIP3    H236977   1.329   5.140   1.514  0.0218 -1.8148  1.1329
 5140TIP3   OH236978   1.893   0.474   1.426 -0.5085  0.3048  0.1668
 5140TIP3    H136979   1.946   0.553   1.429  0.4560 -0.0491 -3.3538
 5140TIP3    H236980   1.804   0.505   1.414 -0.1854  0.8947 -0.7914
 5141TIP3   OH236981   6.581   4.951   2.415 -0.7855 -0.0282 -0.2356
 5141TIP3    H136982   6.525   4.883   2.453 -1.6817  0.4803 -0.6070
 5141TIP3    H236983   6.630   4.906   2.346  2.0101 -1.3390  2.3749
 5142TIP3   OH236984   5.608   4.502   1.544  0.1474 -0.0659  0.4551
 5142TIP3    H136985   5.689   4.458   1.519  0.6529  0.3648  1.2743
 5142TIP3    H236986   5.607   4.498   1.640 -1.7720 -1.7608  0.4262
 5143TIP3   OH236987   1.394   3.240   8.601  0.1931  0.3146 -0.9097
 5143TIP3    H136988   1.428   3.151   8.612 -0.4764  0.1426 -0.1028
 5143TIP3    H236989   1.300   3.228   8.588 -0.5374  1.0173  2.7313
 5144TIP3   OH236990   2.912   1.578   8.540  0.1874 -0.3796 -0.0320
 5144TIP3    H136991   2.971   1.559   8.612 -1.6731  0.2504  1.7580
 5144TIP3    H236992   2.891   1.671   8.550 -0.2871 -0.3308 -1.2521
 5145TIP3   OH236993   2.590   3.564   6.316 -0.1239 -0.2320 -0.4881
 5145TIP3    H136994   2.602   3.596   6.405  0.1749 -0.0239 -0.6001
 5145TIP3    H236995   2.506   3.600   6.288 -1.2813 -2.0354  0.4527
 5146TIP3   OH236996   3.150   4.916   7.720  0.5005  0.0877 -0.1485
 5146TIP3    H136997   3.060   4.919   7.751  0.6249  0.1893  0.2064
 5146TIP3    H236998   3.169   5.005   7.691  0.3024 -0.0652 -0.7551
 5147TIP3   OH236999   1.053   1.502   7.717  0.2527 -0.1870  0.2700
 5147TIP3    H137000   0.965   1.470   7.736  0.3724 -0.4995  0.3011
 5147TIP3    H237001   1.109   1.425   7.725  0.3785 -0.2391 -0.8889
 5148TIP3   OH237002   4.490   3.463   6.728 -0.0049  0.3495  0.4707
 5148TIP3    H137003   4.584   3.460   6.748 -0.0043  1.0272  0.5960
 5148TIP3    H237004   4.448   3.477   6.812 -0.3163 -1.1710  0.5902
 5149TIP3   OH237005   1.435   6.094   2.720  0.3325 -0.2847 -0.3314
 5149TIP3    H137006   1.352   6.072   2.764  1.4838  2.0003  3.4230
 5149TIP3    H237007   1.411   6.162   2.658 -0.7168 -0.1456  0.1954
 5150TIP3   OH237008   6.039   5.108   1.504  0.1236 -0.1786  0.1133
 5150TIP3    H137009   6.071   5.168   1.572 -0.8436  0.3639  0.1244
 5150TIP3    H237010   6.104   5.112   1.435  1.1009 -0.6907  0.9741
 5151TIP3   OH237011   0.661   2.374   8.659  0.6302 -0.5760 -0.0066
 5151TIP3    H137012   0.696   2.293   8.621  1.2889 -1.2619  1.9501
 5151TIP3    H237013   0.578   2.347   8.699 -0.4583  0.3028 -1.5513
 5152TIP3   OH237014   0.511   5.357   8.046 -0.4858 -0.1282 -0.2571
 5152TIP3    H137015   0.591   5.314   8.074 -1.2953 -1.3236  0.3389
 5152TIP3    H237016   0.448   5.338   8.116 -1.3275  0.6479 -0.7807
 5153TIP3   OH237017   0.867   4.055   2.455  0.3333 -0.1100 -0.1771
 5153TIP3    H137018   0.949   4.095   2.484 -0.7876  0.4653  2.3793
 5153TIP3    H237019   0.809   4.129   2.438 -0.1818 -0.5599 -0.3842
 5154TIP3   OH237020   6.102   2.002   2.150  0.1466 -0.2241 -0.3907
 5154TIP3    H137021   6.042   1.931   2.172 -1.0674  0.8165 -0.2291
 5154TIP3    H237022   6.074   2.076   2.205  0.7908  0.6541 -1.1950
 5155TIP3   OH237023   6.702   4.387   0.230 -0.4479 -0.6050 -0.1588
 5155TIP3    H137024   6.699   4.381   0.326  1.0180  1.5343  0.1063
 5155TIP3    H237025   6.661   4.471   0.210 -2.6231 -1.9263 -1.6479
 5156TIP3   OH237026   3.974   3.021   0.064  0.4026  0.0944 -0.1794
 5156TIP3    H137027   3.931   3.099   0.028 -0.0890  0.6839  1.5824
 5156TIP3    H237028   4.063   3.050   0.083 -0.3781  0.9736  2.5486
 5157TIP3   OH237029   1.475   4.223   2.052 -0.1552 -0.1108 -0.3888
 5157TIP3    H137030   1.569   4.208   2.041  0.1426  1.4260 -0.0989
 5157TIP3    H237031   1.467   4.267   2.136 -1.2418 -0.9848 -0.0073
 5158TIP3   OH237032   1.311   5.839   8.757  0.0622  0.6209 -0.0119
 5158TIP3    H137033   1.285   5.872   8.671 -0.2888 -0.6575 -0.4217
 5158TIP3    H237034   1.338   5.749   8.740  1.5830  0.8659  0.9616
 5159TIP3   OH237035   5.085   1.730   8.004 -0.0503 -0.5239  0.5966
 5159TIP3    H137036   4.997   1.766   7.990  0.0800 -0.7972 -1.1972
 5159TIP3    H237037   5.116   1.709   7.916  2.1119  0.2439  1.1125
 5160TIP3   OH237038   0.926   4.264   6.939  0.2302 -0.2679  0.4566
 5160TIP3    H137039   0.934   4.176   6.975 -1.4649 -1.1365 -1.1790
 5160TIP3    H237040   0.872   4.311   7.003  0.4903 -0.6106  0.9404
 5161TIP3   OH237041   4.423   3.095   0.098 -0.3957 -0.0536 -0.0766
 5161TIP3    H137042   4.336   3.125   0.122  0.1423  0.8921  0.7703
 5161TIP3    H237043   4.417   3.000   0.097 -0.8852 -0.0824  2.1524
 5162TIP3   OH237044   2.189   6.326   8.732 -0.2682 -0.1127  0.1155
 5162TIP3    H137045   2.136   6.260   8.777  1.5609 -0.8633  1.2424
 5162TIP3    H237046   2.197   6.294   8.642 -1.6711  0.0262 -0.0938
 5163TIP3   OH237047   5.583   2.875   0.096 -0.0631 -0.2996  0.4025
 5163TIP3    H137048   5.510   2.842   0.148  0.5492  0.1522  1.5905
 5163TIP3    H237049   5.590   2.967   0.121 -0.1903  0.1114 -1.0181
 5164TIP3   OH237050   4.345   1.465   8.660  0.4972 -0.0828  1.1779
 5164TIP3    H137051   4.283   1.459   8.587 -0.4470 -0.4550  1.9886
 5164TIP3    H237052   4.362   1.559   8.670  0.5475 -0.0228  0.5595
 5165TIP3   OH237053   6.326   2.510   0.620 -0.4957  0.3126 -0.1887
 5165TIP3    H137054   6.394   2.457   0.661 -0.3495  0.7213  0.0928
 5165TIP3    H237055   6.290   2.453   0.552  0.5073  0.2862 -0.7202
 5166TIP3   OH237056   3.136   3.060   0.108 -0.4111  0.2287 -0.4893
 5166TIP3    H137057   3.217   3.073   0.059  1.0297 -0.7850  1.4701
 5166TIP3    H237058   3.107   3.149   0.129  0.3281  0.6124 -1.0340
 5167TIP3   OH237059   1.751   2.791   8.753 -0.0073  0.4510 -0.4319
 5167TIP3    H137060   1.828   2.832   8.713  1.1203  0.3369  1.4978
 5167TIP3    H237061   1.723   2.853   8.820  0.7014 -1.1211  1.3958
 5168TIP3   OH237062   2.135   3.200   0.790  0.1139  0.3610  0.2682
 5168TIP3    H137063   2.071   3.205   0.719 -0.5589 -0.0918  0.8252
 5168TIP3    H237064   2.200   3.267   0.770 -0.4295  0.6876 -0.4157
 5169TIP3   OH237065   1.162   1.507   0.502 -0.3351 -0.5597 -0.2354
 5169TIP3    H137066   1.071   1.536   0.514 -0.3664 -0.9950  0.6219
 5169TIP3    H237067   1.212   1.559   0.565  0.2685  0.8212 -1.7720
 5170TIP3   OH237068   5.003   3.699   2.055 -0.1245  0.3357  0.5472
 5170TIP3    H137069   5.036   3.719   2.143  1.8908 -0.2015 -0.0177
 5170TIP3    H237070   5.039   3.612   2.035 -0.5780  0.4318 -0.7921
 5171TIP3   OH237071   5.299   0.377   1.841  0.3425  0.7027  0.1428
 5171TIP3    H137072   5.347   0.456   1.815  2.3126  0.1572  1.8349
 5171TIP3    H237073   5.314   0.315   1.769  0.9444  1.0402 -0.0324
 5172TIP3   OH237074   5.349   3.582   8.460 -0.1189  0.0120 -0.7458
 5172TIP3    H137075   5.288   3.535   8.403 -1.8445 -0.2230  1.2079
 5172TIP3    H237076   5.409   3.514   8.492 -1.3901 -0.5611  0.5139
 5173TIP3   OH237077   6.279   0.487   8.259 -0.4460  0.2461 -0.0654
 5173TIP3    H137078   6.220   0.562   8.259 -1.0242 -0.1973 -0.3766
 5173TIP3    H237079   6.276   0.454   8.169  1.1661  0.8899 -0.3876
 5174TIP3   OH237080   4.236   6.338   8.578  0.4792 -0.2483 -0.0615
 5174TIP3    H137081   4.210   6.413   8.632 -0.9720 -0.3634 -0.5808
 5174TIP3    H237082   4.192   6.263   8.617 -0.3328 -0.3853 -1.1889
 5175TIP3   OH237083   6.691   0.818   2.034  0.1212  0.2576 -0.1262
 5175TIP3    H137084   6.664   0.910   2.034 -0.3020  0.1855 -2.1081
 5175TIP3    H237085   6.764   0.814   1.972  0.3950 -0.6682  0.2412
 5176TIP3   OH237086   6.779   4.716   8.425  0.2822  0.3640  0.0028
 5176TIP3    H137087   6.807   4.707   8.517  1.5377 -0.8166 -0.4492
 5176TIP3    H237088   6.686   4.739   8.430  0.6918  1.8617  1.5760
 5177TIP3   OH237089   0.740   4.572   8.620 -0.3297 -0.0065  0.4032
 5177TIP3    H137090   0.733   4.636   8.691 -0.0639  0.8164 -0.2965
 5177TIP3    H237091   0.747   4.488   8.665  1.3376  0.6192  1.4141
 5178TIP3   OH237092   5.166   4.580   1.916 -0.8465 -0.0902 -0.1336
 5178TIP3    H137093   5.203   4.653   1.867 -0.4660  0.5902  1.1293
 5178TIP3    H237094   5.233   4.512   1.912 -1.5005 -0.6919 -1.9330
 5179TIP3   OH237095   2.087   2.876   7.894  0.3360  0.1423 -0.1624
 5179TIP3    H137096   2.086   2.937   7.968  0.5303 -2.2268  1.9200
 5179TIP3    H237097   2.169   2.895   7.848  0.3257  1.5010  0.3365
 5180TIP3   OH237098   6.219   1.559   8.441  0.0172  0.5531 -0.1179
 5180TIP3    H137099   6.292   1.548   8.381  0.3586  1.2659  0.1518
 5180TIP3    H237100   6.196   1.652   8.435 -1.7850  0.0906 -1.2219
 5181TIP3   OH237101   3.470   0.365   8.116  0.8884  0.5586  0.5958
 5181TIP3    H137102   3.523   0.287   8.098  0.1107  0.5563 -2.1331
 5181TIP3    H237103   3.463   0.410   8.031 -1.7707  1.6130  1.2640
 5182TIP3   OH237104   5.146   5.425   0.664 -0.0328 -0.3336  0.2804
 5182TIP3    H137105   5.219   5.484   0.643  1.1195 -1.5582  0.7477
 5182TIP3    H237106   5.087   5.479   0.716  1.6328  0.0999  1.8414
 5183TIP3   OH237107   3.208   5.668   7.509  0.0725 -0.2147  0.3049
 5183TIP3    H137108   3.275   5.719   7.462  0.6743 -0.7401  0.5835
 5183TIP3    H237109   3.125   5.709   7.483  0.6071  2.2487  2.0914
 5184TIP3   OH237110   3.510   5.368   7.719  0.1507  0.1152  0.5915
 5184TIP3    H137111   3.491   5.290   7.667  0.0698  1.2893 -1.2371
 5184TIP3    H237112   3.584   5.342   7.774  0.7291 -0.9854 -0.6457
 5185TIP3   OH237113   2.415   1.682   1.655 -0.1852 -0.3820 -0.2978
 5185TIP3    H137114   2.332   1.641   1.633 -0.3528  0.0205 -0.4169
 5185TIP3    H237115   2.391   1.763   1.700  0.1066 -1.6524  2.3887
 5186TIP3   OH237116   5.967   3.548   1.500 -0.0896 -0.5820  0.3763
 5186TIP3    H137117   5.991   3.641   1.506 -1.4718 -0.1495 -0.2759
 5186TIP3    H237118   5.874   3.546   1.521  0.7204 -2.4225  4.7254
 5187TIP3   OH237119   3.700   2.628   0.076  0.3688 -0.0756 -0.0885
 5187TIP3    H137120   3.775   2.685   0.096 -0.2258  0.6959 -0.0421
 5187TIP3    H237121   3.687   2.638  -0.018  2.3695 -2.7468 -0.7839
 5188TIP3   OH237122   5.980   1.756   0.680 -0.0253  0.9457  0.9007
 5188TIP3    H137123   6.058   1.705   0.704 -0.6433  0.1861  1.3366
 5188TIP3    H237124   5.933   1.768   0.763 -1.0102  0.2866  0.4636
 5189TIP3   OH237125   2.596   2.575   7.698 -0.3780 -0.2718  0.4225
 5189TIP3    H137126   2.530   2.568   7.629 -0.4224 -1.3761  0.5562
 5189TIP3    H237127   2.679   2.575   7.651 -0.3013 -2.9811  0.3771
 5190TIP3   OH237128   4.136   1.623   8.352 -0.3462 -0.3303  0.0159
 5190TIP3    H137129   4.203   1.647   8.288  1.1477 -0.6990  1.3684
 5190TIP3    H237130   4.095   1.545   8.316  3.0320 -2.8338  1.0782
 5191TIP3   OH237131   2.914   2.514   2.868  0.4280 -0.3605  0.3009
 5191TIP3    H137132   2.841   2.458   2.842 -0.4105  0.9174 -0.1862
 5191TIP3    H237133   2.877   2.602   2.874  1.7730  0.2151  0.7384
 5192TIP3   OH237134   5.737   5.739   8.518  0.8132  0.0815  0.1082
 5192TIP3    H137135   5.805   5.806   8.527  2.5622 -1.6630  0.5627
 5192TIP3    H237136   5.664   5.771   8.572  0.8610  2.4210 -1.0800
 5193TIP3   OH237137   4.013   4.780   1.667  0.0630  0.0797  0.1072
 5193TIP3    H137138   3.968   4.785   1.751  0.3708  0.4737  0.2537
 5193TIP3    H237139   3.945   4.791   1.602  0.2655  3.9761  0.3293
 5194TIP3   OH237140   3.023   2.169   1.809  0.0901 -0.6058  0.1700
 5194TIP3    H137141   3.066   2.181   1.725 -0.9397  0.2400 -0.2700
 5194TIP3    H237142   3.069   2.228   1.869 -1.2709  1.3826 -0.6276
 5195TIP3   OH237143   1.252   6.409   7.813  0.0796 -0.2663  0.2352
 5195TIP3    H137144   1.343   6.397   7.786  0.0693 -0.1633  0.1514
 5195TIP3    H237145   1.236   6.503   7.799  0.4070  0.0250  1.6311
 5196TIP3   OH237146   5.798   6.151   7.092 -0.6499  0.0144  0.3831
 5196TIP3    H137147   5.833   6.191   7.012 -1.1046  1.9506  1.1069
 5196TIP3    H237148   5.815   6.215   7.161 -0.8326 -1.3391  1.7436
 5197TIP3   OH237149   5.690   1.928   1.385  0.2350  0.2580  0.2782
 5197TIP3    H137150   5.696   1.834   1.402  0.9733  0.7566  3.1652
 5197TIP3    H237151   5.630   1.962   1.451 -0.7975  1.7459 -1.3184
 5198TIP3   OH237152   2.950   5.319   2.910  0.3895  0.1803  0.0054
 5198TIP3    H137153   2.888   5.249   2.931  0.5766 -0.3763 -1.1869
 5198TIP3    H237154   2.896   5.388   2.871  0.3856  0.1034 -0.1268
 5199TIP3   OH237155   2.209   2.392   1.568 -0.5100 -0.0443  0.7162
 5199TIP3    H137156   2.229   2.448   1.643 -0.4280 -0.0286  0.6829
 5199TIP3    H237157   2.175   2.452   1.502 -0.2816 -0.0105  0.6270
 5200TIP3   OH237158   0.456   0.267   7.464 -0.3876 -0.5351  0.2529
 5200TIP3    H137159   0.508   0.343   7.439 -0.0027 -0.8414  0.1188
 5200TIP3    H237160   0.369   0.303   7.483 -0.5539 -0.2253 -1.0189
 5201TIP3   OH237161   0.032   1.963   0.501  0.2243 -0.1180  0.7514
 5201TIP3    H137162   0.018   1.871   0.522  0.5420 -0.0957  1.0693
 5201TIP3    H237163   0.126   1.970   0.484 -0.0159 -0.1465 -0.7596
 5202TIP3   OH237164   6.399   6.450   1.622 -0.0287  0.3192  0.1826
 5202TIP3    H137165   6.481   6.439   1.573  1.1572  0.1452  2.0689
 5202TIP3    H237166   6.357   6.364   1.619  0.6690 -0.0470  0.4929
 5203TIP3   OH237167   2.127   0.232   1.762  0.1762 -0.0452  0.0523
 5203TIP3    H137168   2.196   0.207   1.701  1.4172 -0.7757  1.6915
 5203TIP3    H237169   2.173   0.264   1.840 -1.3612  2.1381  0.1522
 5204TIP3   OH237170   1.469   2.368   2.174 -0.4965  0.0306 -0.3122
 5204TIP3    H137171   1.524   2.337   2.103  1.0331 -1.0619  1.2626
 5204TIP3    H237172   1.530   2.386   2.246 -1.9340  1.4112  0.6406
 5205TIP3   OH237173   4.768   3.175   1.676 -0.0020 -0.2545  0.0383
 5205TIP3    H137174   4.679   3.204   1.701  0.3725  0.2832  0.8058
 5205TIP3    H237175   4.754   3.110   1.608 -1.0071 -0.3915  0.3594
 5206TIP3   OH237176   3.299   4.271   1.981  0.1172  1.1728 -0.2498
 5206TIP3    H137177   3.224   4.252   1.925  1.6129 -0.7615 -1.7117
 5206TIP3    H237178   3.319   4.363   1.963 -0.6149  1.1298 -1.4036
 5207TIP3   OH237179   1.192   4.857   1.499  0.1127  0.6598 -0.1004
 5207TIP3    H137180   1.196   4.786   1.435 -2.6178 -0.2106  0.5511
 5207TIP3    H237181   1.218   4.816   1.581  0.5140  0.9569 -0.0763
 5208TIP3   OH237182   1.566   2.634   7.906 -0.4194  0.3210  0.4058
 5208TIP3    H137183   1.557   2.722   7.869  0.9662  0.0682 -0.5937
 5208TIP3    H237184   1.659   2.627   7.929 -0.7510 -0.4543  1.6158
 5209TIP3   OH237185   5.507   1.326   2.014  0.3737  0.3911 -0.4043
 5209TIP3    H137186   5.459   1.302   1.935 -0.7614 -1.4105  0.7627
 5209TIP3    H237187   5.440   1.361   2.073  0.6021 -1.3055  0.9170
 5210TIP3   OH237188   4.332   2.718   7.099  0.2219 -0.2414 -0.0981
 5210TIP3    H137189   4.411   2.675   7.134  0.6765 -0.0746 -0.9044
 5210TIP3    H237190   4.350   2.729   7.006 -0.9926 -0.7182 -0.4136
 5211TIP3   OH237191   5.874   6.264   6.869 -0.3071  0.3848  0.0237
 5211TIP3    H137192   5.898   6.319   6.794  0.0637 -0.8126 -0.7679
 5211TIP3    H237193   5.918   6.180   6.852 -0.4908 -0.0151  1.4223
 5212TIP3   OH237194   5.368   5.347   0.242  0.1776  0.0883  0.2748
 5212TIP3    H137195   5.363   5.370   0.150 -0.5085  2.0557  0.7532
 5212TIP3    H237196   5.291   5.293   0.258 -0.2944  0.6496 -0.0772
 5213TIP3   OH237197   5.949   5.097   8.631  0.2462  0.1559 -0.7214
 5213TIP3    H137198   5.890   5.157   8.584 -0.8945  1.2637  1.9369
 5213TIP3    H237199   5.944   5.015   8.581 -2.9848  0.4355 -1.0518
 5214TIP3   OH237200   4.294   3.412   1.360 -0.0453 -0.0564  1.0656
 5214TIP3    H137201   4.372   3.466   1.348 -0.1837 -0.0605  0.0228
 5214TIP3    H237202   4.227   3.474   1.389 -0.0569  0.2458  0.4248
 5215TIP3   OH237203   3.471   5.240   8.442 -0.4660 -0.0342 -0.0568
 5215TIP3    H137204   3.405   5.186   8.485 -1.0461  1.5604  1.1838
 5215TIP3    H237205   3.422   5.295   8.381  0.3293 -2.1074 -2.7203
 5216TIP3   OH237206   0.487   6.153   2.420  0.4777 -0.0077  0.3649
 5216TIP3    H137207   0.394   6.131   2.425  0.2696  0.6466 -0.4636
 5216TIP3    H237208   0.520   6.099   2.348  0.8418 -0.5608  0.9386
 5217TIP3   OH237209   3.949   2.282   8.214 -0.1504  0.1842 -0.0893
 5217TIP3    H137210   3.987   2.362   8.177  0.0240 -0.8106 -2.1783
 5217TIP3    H237211   4.024   2.223   8.223 -0.2567  0.2454  1.5806
 5218TIP3   OH237212   0.615   0.280   8.494 -0.7452 -0.6683  0.0733
 5218TIP3    H137213   0.591   0.210   8.434  0.4154 -0.9279 -0.1199
 5218TIP3    H237214   0.625   0.357   8.439  0.8565 -1.0274 -0.1875
 5219TIP3   OH237215   3.146   0.371   7.930 -0.9261  0.1190  0.4445
 5219TIP3    H137216   3.191   0.316   7.867  0.2252  0.8968  0.5651
 5219TIP3    H237217   3.175   0.339   8.016  0.3563  1.3465  0.5123
 5220TIP3   OH237218   2.007   6.150   7.675 -0.1003  0.4480  0.0260
 5220TIP3    H137219   1.929   6.094   7.667 -1.5691  2.4970 -0.9299
 5220TIP3    H237220   2.080   6.088   7.685 -1.6540 -1.6065 -0.5443
 5221TIP3   OH237221   5.510   3.251   0.942  0.5185  0.8125 -0.6834
 5221TIP3    H137222   5.553   3.322   0.895  1.9659 -0.3316 -1.1560
 5221TIP3    H237223   5.565   3.236   1.019 -1.2428  1.9509  0.8851
 5222TIP3   OH237224   0.270   4.141   1.650 -0.2264 -0.0884  0.6392
 5222TIP3    H137225   0.265   4.131   1.555  1.4259  0.5546  0.4497
 5222TIP3    H237226   0.232   4.227   1.667 -0.2299 -0.0652  0.5150
 5223TIP3   OH237227   3.929   6.331   0.203 -0.0472  0.4718  0.2425
 5223TIP3    H137228   3.896   6.382   0.129 -0.7071  0.9385  0.8428
 5223TIP3    H237229   3.861   6.266   0.220  0.4975 -0.2020 -0.1085
 5224TIP3   OH237230   1.606   5.162   1.260  0.6753 -0.0128  0.0969
 5224TIP3    H137231   1.550   5.139   1.185  1.2365 -0.1686 -0.2848
 5224TIP3    H237232   1.615   5.080   1.308  0.8193 -0.0563 -0.0050
 5225TIP3   OH237233   3.965   3.222   8.540 -0.5025  0.1510  0.0038
 5225TIP3    H137234   3.917   3.214   8.458 -0.6204  1.3733 -0.0615
 5225TIP3    H237235   4.052   3.187   8.521  0.2790  2.5692 -1.3953
 5226TIP3   OH237236   5.310   0.143   1.218  0.1369  0.0264  0.2148
 5226TIP3    H137237   5.215   0.148   1.233  0.4063 -0.8751  2.7089
 5226TIP3    H237238   5.343   0.229   1.244  0.0037  0.4701 -1.0130
 5227TIP3   OH237239   3.014   4.907   2.612  0.2290 -0.1632  0.1577
 5227TIP3    H137240   2.943   4.844   2.621  0.7450 -0.7906 -0.0130
 5227TIP3    H237241   3.069   4.892   2.689  1.2197 -1.0653 -0.6940
 5228TIP3   OH237242   0.386   0.289   2.284  0.5707 -0.2646 -0.2377
 5228TIP3    H137243   0.322   0.301   2.355 -0.1382 -0.4053 -0.8425
 5228TIP3    H237244   0.371   0.363   2.225  0.3250 -0.7944 -0.8548
 5229TIP3   OH237245   6.463   2.186   8.284  0.1513  0.1006 -0.3122
 5229TIP3    H137246   6.482   2.104   8.329 -1.8768 -0.9786 -1.3032
 5229TIP3    H237247   6.454   2.250   8.355  2.1519 -0.3853  0.4525
 5230TIP3   OH237248   2.925   2.686   0.208  0.4101 -0.0132 -0.0619
 5230TIP3    H137249   2.954   2.719   0.294 -2.6011  0.4357  0.9352
 5230TIP3    H237250   2.969   2.602   0.198  1.9550  0.5838  1.2307
 5231TIP3   OH237251   4.164   6.667   2.036  0.2830  0.0365 -0.3524
 5231TIP3    H137252   4.198   6.577   2.033 -1.9166 -0.9277  0.9952
 5231TIP3    H237253   4.158   6.693   1.944  1.3952 -1.0219 -0.7560
 5232TIP3   OH237254   6.483   1.888   2.595 -0.0899 -0.7032 -0.7843
 5232TIP3    H137255   6.500   1.920   2.683 -1.4899 -0.7365 -0.4766
 5232TIP3    H237256   6.479   1.967   2.541  2.8281 -0.7829 -1.2589
 5233TIP3   OH237257   1.356   3.143   8.869 -0.0626  0.4186 -0.4837
 5233TIP3    H137258   1.333   3.233   8.847  0.8451  0.8706  0.3680
 5233TIP3    H237259   1.449   3.135   8.847 -0.0663 -0.2320 -0.2994
 5234TIP3   OH237260   1.463   4.433   6.915  0.4613  0.4177 -0.8582
 5234TIP3    H137261   1.378   4.390   6.905 -0.1968  1.5714 -0.3658
 5234TIP3    H237262   1.503   4.428   6.828 -0.6253  0.9276 -1.4033
 5235TIP3   OH237263   2.197   1.536   2.549 -0.5722  0.2819  0.1269
 5235TIP3    H137264   2.106   1.546   2.520 -0.6867  0.7176  0.6186
 5235TIP3    H237265   2.207   1.441   2.561 -0.0660 -0.0981 -2.6806
 5236TIP3   OH237266   3.234   5.380   8.201  0.2766  0.0723  0.1266
 5236TIP3    H137267   3.211   5.293   8.167 -2.5299  0.6034  0.3844
 5236TIP3    H237268   3.190   5.383   8.286  1.3052  1.3522  0.6380
 5237TIP3   OH237269   2.885   6.661   7.165  0.4464  0.1542  0.0890
 5237TIP3    H137270   2.798   6.698   7.154  0.6830  0.9525  0.7574
 5237TIP3    H237271   2.928   6.673   7.080 -0.6010 -1.7131 -0.7582
 5238TIP3   OH237272   2.112   4.772   2.006 -0.0465 -0.3967 -0.3547
 5238TIP3    H137273   2.107   4.745   2.098 -0.3527 -2.7982 -1.0204
 5238TIP3    H237274   2.021   4.785   1.979 -0.1466 -2.1019 -0.9389
 5239TIP3   OH237275   0.428   5.623   8.767  0.7159 -0.7890 -0.0875
 5239TIP3    H137276   0.436   5.605   8.673 -1.4634  1.5723 -0.8350
 5239TIP3    H237277   0.365   5.557   8.798  1.5109 -1.6350 -0.2269
 5240TIP3   OH237278   6.419   3.950   8.809 -0.1265  0.5427  0.2729
 5240TIP3    H137279   6.508   3.982   8.793  0.3996  0.9343  3.2796
 5240TIP3    H237280   6.426   3.855   8.798  0.7201  0.5505  0.6359
 5241TIP3   OH237281   3.319   3.398   0.710  0.1945  0.4538 -0.9060
 5241TIP3    H137282   3.408   3.406   0.675 -0.0459 -1.7842 -2.1995
 5241TIP3    H237283   3.327   3.337   0.783 -0.2984  0.1184 -1.1283
 5242TIP3   OH237284   5.801   3.082   0.813 -0.8421  0.0568 -0.0342
 5242TIP3    H137285   5.710   3.055   0.829 -0.7790 -0.3437 -0.3310
 5242TIP3    H237286   5.796   3.135   0.733 -0.5420 -1.7299 -1.3100
 5243TIP3   OH237287   1.944   5.763   8.700 -0.0185 -0.1245 -0.5583
 5243TIP3    H137288   2.021   5.773   8.644 -0.1955  0.8114 -0.6535
 5243TIP3    H237289   1.979   5.768   8.789  0.0205  0.4105 -0.6015
 5244TIP3   OH237290   5.549   4.110   7.180  0.3973  0.2853 -0.2088
 5244TIP3    H137291   5.499   4.149   7.252  1.6743  1.1398  0.2583
 5244TIP3    H237292   5.517   4.154   7.102 -1.2775 -0.9226 -0.2581
 5245TIP3   OH237293   3.807   2.918   1.020  0.0904  0.4365 -0.6819
 5245TIP3    H137294   3.737   2.853   1.020  0.3235 -0.2439  4.7111
 5245TIP3    H237295   3.762   3.001   1.036  0.2942  0.3142  0.6196
 5246TIP3   OH237296   5.155   1.720   8.305 -0.5410 -0.3997  0.3613
 5246TIP3    H137297   5.149   1.717   8.209 -1.9628 -1.4015  0.4523
 5246TIP3    H237298   5.177   1.811   8.324  0.7624 -0.3912 -0.9380
 5247TIP3   OH237299   0.890   4.374   6.676  1.0087 -0.2163  0.6119
 5247TIP3    H137300   0.832   4.307   6.639  0.3555  0.1409  0.9637
 5247TIP3    H237301   0.894   4.354   6.769 -0.2158  0.9432  0.9555
 5248TIP3   OH237302   0.295   1.241   1.239  0.4584 -0.9052  0.4062
 5248TIP3    H137303   0.360   1.179   1.272  1.3055 -1.0893 -1.4801
 5248TIP3    H237304   0.250   1.194   1.169 -0.3690 -0.1181  0.3893
 5249TIP3   OH237305   4.304   1.465   1.765 -0.2217  0.0970 -0.4581
 5249TIP3    H137306   4.366   1.428   1.828 -0.0089 -1.0061 -1.2950
 5249TIP3    H237307   4.226   1.485   1.817  0.4828  0.6254  0.4331
 5250TIP3   OH237308   5.962   3.365   7.572  0.7262 -0.2571 -0.3288
 5250TIP3    H137309   5.959   3.399   7.662  2.3523 -0.1966 -0.2660
 5250TIP3    H237310   6.010   3.432   7.523  1.8931 -1.3436 -0.7184
 5251TIP3   OH237311   4.970   4.603   0.140 -0.2221  0.2433 -0.2202
 5251TIP3    H137312   5.021   4.576   0.064 -0.3112 -2.2912  0.5389
 5251TIP3    H237313   5.005   4.689   0.163  1.9366 -0.2825 -1.2898
 5252TIP3   OH237314   6.645   6.328   1.858  0.1623  0.5300  0.1597
 5252TIP3    H137315   6.677   6.401   1.806 -1.9487  0.1378 -1.9105
 5252TIP3    H237316   6.678   6.250   1.813  0.3366  0.1876  0.8667
 5253TIP3   OH237317   5.404   0.863   1.953  0.2179  0.0701  0.0006
 5253TIP3    H137318   5.452   0.902   1.880  0.4458  1.2849  0.7675
 5253TIP3    H237319   5.340   0.930   1.978 -0.0281 -0.4377  0.7513
 5254TIP3   OH237320   5.003   3.439   2.668  0.0144 -0.3547 -0.2113
 5254TIP3    H137321   4.977   3.368   2.727 -1.4564 -0.1652 -0.5898
 5254TIP3    H237322   4.990   3.519   2.720  0.4799 -0.2950 -0.1885
 5255TIP3   OH237323   3.404   3.359   2.027 -0.4468 -0.3223 -0.5973
 5255TIP3    H137324   3.311   3.358   2.048 -0.3194 -2.3309  0.0712
 5255TIP3    H237325   3.448   3.380   2.110 -0.2562 -0.7095 -0.5975
 5256TIP3   OH237326   4.800   0.095   0.109  0.0375  0.4261 -0.1103
 5256TIP3    H137327   4.841   0.066   0.028  0.9672  0.4459  0.3478
 5256TIP3    H237328   4.871   0.135   0.160 -0.4291 -0.0152  0.9182
 5257TIP3   OH237329   5.249   6.236   1.449 -0.4022  0.7268 -0.2556
 5257TIP3    H137330   5.258   6.148   1.485  2.0408  0.4432 -1.3680
 5257TIP3    H237331   5.190   6.281   1.510 -1.2113 -1.4624  0.6836
 5258TIP3   OH237332   3.252   3.860   8.722  0.1069  0.0915 -0.2150
 5258TIP3    H137333   3.297   3.779   8.697 -0.7514  0.1307 -2.0298
 5258TIP3    H237334   3.267   3.920   8.648 -3.1596 -0.0339 -1.1274
 5259TIP3   OH237335   5.349   1.612   8.848 -0.4194  0.4530  0.2856
 5259TIP3    H137336   5.410   1.587   8.918  0.9113 -0.5468 -1.1333
 5259TIP3    H237337   5.350   1.536   8.789 -1.1000  1.4505 -1.0542
 5260TIP3   OH237338   6.581   0.352   0.582 -0.1239  0.1981 -0.0762
 5260TIP3    H137339   6.571   0.263   0.547  0.0048 -0.2031  0.8769
 5260TIP3    H237340   6.512   0.402   0.539 -1.7299 -0.8952  1.0735
 5261TIP3   OH237341   1.139   3.471   2.098 -0.1745 -0.4325 -0.1264
 5261TIP3    H137342   1.083   3.431   2.165 -0.0829 -1.4871 -0.6605
 5261TIP3    H237343   1.079   3.495   2.028 -0.0252 -1.1966 -0.5266
 5262TIP3   OH237344   5.509   2.881   1.466 -0.5398  0.3130  0.2166
 5262TIP3    H137345   5.523   2.793   1.430 -1.4517  0.2778 -0.0626
 5262TIP3    H237346   5.467   2.865   1.551 -2.1374  0.4949 -0.4978
 5263TIP3   OH237347   2.411   4.644   2.126  0.0016 -0.0509  0.0026
 5263TIP3    H137348   2.442   4.596   2.202  1.8087 -0.4339 -0.9195
 5263TIP3    H237349   2.316   4.628   2.124 -0.0391 -0.2187  2.0030
 5264TIP3   OH237350   5.605   4.321   8.044  0.1867  0.1018 -0.3901
 5264TIP3    H137351   5.522   4.281   8.071  0.2045  0.3689  0.0813
 5264TIP3    H237352   5.658   4.247   8.014 -0.3460 -0.0277 -1.0438
 5265TIP3   OH237353   2.406   1.355   0.065 -0.5374 -0.1808  0.0086
 5265TIP3    H137354   2.493   1.384   0.038 -0.1153 -1.5253 -0.1236
 5265TIP3    H237355   2.397   1.388   0.155 -1.1238  2.5146 -0.9284
 5266TIP3   OH237356   6.706   0.624   2.749 -0.6483  0.4210 -0.0300
 5266TIP3    H137357   6.724   0.631   2.655 -1.3271 -0.9981 -0.2808
 5266TIP3    H237358   6.781   0.577   2.784 -0.8557  0.0836 -0.0335
 5267TIP3   OH237359   6.721   6.590   0.207 -0.2972 -0.1571 -0.3262
 5267TIP3    H137360   6.791   6.526   0.220 -0.7175 -0.6172 -0.2899
 5267TIP3    H237361   6.642   6.537   0.196 -0.6598  0.3607 -0.2459
 5268TIP3   OH237362   0.405   0.654   7.531  0.0484  0.3232  0.1000
 5268TIP3    H137363   0.426   0.591   7.462  1.9644  1.6602 -0.6203
 5268TIP3    H237364   0.470   0.723   7.520 -1.7802  2.2833  1.0561
 5269TIP3   OH237365   4.322   2.525   7.758 -0.1549  0.0840  0.0919
 5269TIP3    H137366   4.400   2.549   7.709  0.1677 -0.0213  0.5527
 5269TIP3    H237367   4.328   2.574   7.839 -0.8275  0.4723 -0.0773
 5270TIP3   OH237368   4.103   1.165   7.992 -0.2221 -0.6260 -0.6822
 5270TIP3    H137369   4.101   1.097   8.059  0.7870 -1.5664 -1.5603
 5270TIP3    H237370   4.093   1.247   8.040  0.4640 -1.2721  0.6032
 5271TIP3   OH237371   2.085   2.328   1.066  0.4255  0.0897 -0.2139
 5271TIP3    H137372   2.168   2.327   1.112  0.3305 -0.8386 -0.0349
 5271TIP3    H237373   2.092   2.256   1.002 -0.8207 -1.0957  0.9111
 5272TIP3   OH237374   0.438   0.606   2.318 -0.0163 -0.3932  0.0020
 5272TIP3    H137375   0.356   0.573   2.283  0.3874 -1.3617 -0.0619
 5272TIP3    H237376   0.428   0.602   2.413 -0.4174  0.4661  0.0027
 5273TIP3   OH237377   1.230   1.292   7.696 -0.0625 -0.2675  0.5924
 5273TIP3    H137378   1.318   1.292   7.658 -0.5089 -2.7403 -0.6445
 5273TIP3    H237379   1.203   1.200   7.693 -2.3700  0.3054  1.7608
 5274TIP3   OH237380   4.879   0.567   7.615 -0.2594 -0.0489  0.6569
 5274TIP3    H137381   4.802   0.624   7.612 -0.5037 -0.4139 -0.1426
 5274TIP3    H237382   4.903   0.554   7.524  0.7681  0.0716  0.8971
 5275TIP3   OH237383   0.254   6.700   8.766  0.5374 -0.0657 -0.0697
 5275TIP3    H137384   0.190   6.633   8.788 -0.0728  0.6803  0.4953
 5275TIP3    H237385   0.332   6.676   8.816 -0.2802  0.6532  1.5994
 5276TIP3   OH237386   5.197   3.039   7.318 -0.1087  0.4475  0.1467
 5276TIP3    H137387   5.187   2.944   7.308  0.4858  0.4527 -0.5685
 5276TIP3    H237388   5.247   3.066   7.241 -0.5444  1.3904  0.1813
 5277TIP3   OH237389   4.863   2.962   2.125 -0.2102 -0.0977  0.9163
 5277TIP3    H137390   4.935   2.919   2.079 -0.2349 -0.2540  1.0214
 5277TIP3    H237391   4.903   3.038   2.167 -0.4087  0.7450 -0.3443
 5278TIP3   OH237392   5.060   2.225   0.778  0.9710 -0.3675 -0.0970
 5278TIP3    H137393   5.073   2.171   0.700 -0.1247  0.9795 -1.2810
 5278TIP3    H237394   4.965   2.232   0.785  1.0917  1.0411  0.2699
 5279TIP3   OH237395   3.663   6.330   2.075 -0.3436  0.4113  0.4456
 5279TIP3    H137396   3.631   6.420   2.066  0.8142  0.9134  1.1681
 5279TIP3    H237397   3.756   6.335   2.053 -0.0302 -0.4063  1.4909
 5280TIP3   OH237398   5.076   2.713   6.774 -0.1558  0.4799 -0.1352
 5280TIP3    H137399   5.057   2.762   6.694  0.1640 -0.4577 -0.8011
 5280TIP3    H237400   5.022   2.634   6.768  1.2968 -0.5336 -0.3822
 5281TIP3   OH237401   0.505   2.411   0.793  0.4748  0.7441 -0.1914
 5281TIP3    H137402   0.442   2.479   0.770 -0.5920 -1.2448 -3.9712
 5281TIP3    H237403   0.590   2.454   0.792 -0.4436  2.9182  2.4259
 5282TIP3   OH237404   5.098   5.133   7.986 -0.0891 -0.3078 -0.5578
 5282TIP3    H137405   5.137   5.107   7.902 -1.5144  0.8685 -1.6366
 5282TIP3    H237406   5.012   5.092   7.987  0.5559 -1.7274  1.1592
 5283TIP3   OH237407   0.658   1.266   1.363 -0.6194 -0.3186  0.4504
 5283TIP3    H137408   0.677   1.350   1.320 -2.8036  0.5836  1.1048
 5283TIP3    H237409   0.576   1.282   1.410 -0.4633 -2.5055  1.5443
 5284TIP3   OH237410   0.456   6.446   2.216 -0.4741 -0.7865 -0.2724
 5284TIP3    H137411   0.366   6.423   2.238 -0.7350  0.2525 -0.1842
 5284TIP3    H237412   0.495   6.473   2.300  0.1602 -1.9809 -0.1741
 5285TIP3   OH237413   1.248   3.389   6.961 -0.4300 -0.1688 -0.1302
 5285TIP3    H137414   1.166   3.340   6.952 -1.1682  1.1720 -1.0885
 5285TIP3    H237415   1.245   3.426   7.050 -0.0567 -1.4780  0.4465
 5286TIP3   OH237416   5.232   2.216   7.483 -0.3552 -0.2202 -0.4202
 5286TIP3    H137417   5.322   2.204   7.454 -0.5009 -0.1007 -0.9360
 5286TIP3    H237418   5.216   2.310   7.473 -0.2404 -0.0851  0.5578
 5287TIP3   OH237419   6.001   3.412   8.051  0.3395 -0.0218  0.1702
 5287TIP3    H137420   6.029   3.470   8.122  0.1805  0.7044 -0.3455
 5287TIP3    H237421   5.948   3.344   8.094 -1.1482  1.3226  0.5758
 5288TIP3   OH237422   4.438   6.263   2.821 -0.2028  0.1537 -0.0061
 5288TIP3    H137423   4.475   6.346   2.791 -0.4713 -0.0315 -0.8481
 5288TIP3    H237424   4.514   6.206   2.831 -0.2349 -0.2032 -1.6661
 5289TIP3   OH237425   1.471   4.300   0.648  0.0221 -0.2687  0.0994
 5289TIP3    H137426   1.459   4.278   0.741  0.7733 -2.3513 -0.2432
 5289TIP3    H237427   1.559   4.336   0.643 -1.3452  3.7339  0.7284
 5290TIP3   OH237428   3.106   2.920   7.118  0.1281 -0.2195  0.1028
 5290TIP3    H137429   3.054   2.994   7.150  0.8322 -0.0111  0.7989
 5290TIP3    H237430   3.054   2.884   7.046  1.1474  2.8303 -2.3616
 5291TIP3   OH237431   0.982   2.748   0.758  0.0382 -0.2369  0.1792
 5291TIP3    H137432   1.036   2.790   0.825  1.1483 -0.7841 -0.3397
 5291TIP3    H237433   0.949   2.820   0.704 -0.0914  0.1350  0.7487
 5292TIP3   OH237434   3.357   5.179   2.141  0.5296 -0.6985  0.3027
 5292TIP3    H137435   3.430   5.213   2.193 -0.1486  1.4380 -0.0593
 5292TIP3    H237436   3.280   5.226   2.173 -0.6142 -2.4375  0.2266
 5293TIP3   OH237437   2.234   1.614   2.055 -0.3376 -0.3796 -0.3774
 5293TIP3    H137438   2.241   1.708   2.038 -1.1791  0.2679  2.2930
 5293TIP3    H237439   2.157   1.606   2.112 -1.4182 -2.9577 -2.0590
 5294TIP3   OH237440   4.905   0.650   8.064 -0.3874  0.0149 -0.2278
 5294TIP3    H137441   4.955   0.600   7.999 -2.4075 -1.5551 -0.6819
 5294TIP3    H237442   4.845   0.704   8.012  0.1285  1.1361  0.3112
 5295TIP3   OH237443   0.430   4.071   1.411 -0.5709 -0.1343  0.5060
 5295TIP3    H137444   0.511   4.033   1.375 -0.3628  0.0575  0.7704
 5295TIP3    H237445   0.365   4.057   1.343  0.0376  1.0739 -0.3610
 5296TIP3   OH237446   6.648   6.362   1.485  0.0115 -0.0558 -0.0652
 5296TIP3    H137447   6.644   6.348   1.390  1.5168  0.0950 -0.1782
 5296TIP3    H237448   6.742   6.369   1.504 -0.2881  0.3299  1.3802
 5297TIP3   OH237449   0.276   0.176   0.053  0.1824 -0.8630 -0.4853
 5297TIP3    H137450   0.184   0.151   0.051 -0.1163  0.2033 -2.7945
 5297TIP3    H237451   0.275   0.271   0.064  1.0570 -0.9247  0.2678
 5298TIP3   OH237452   0.165   3.860   1.423 -0.5294 -0.1614 -0.1586
 5298TIP3    H137453   0.242   3.861   1.366 -0.3080 -1.0653  0.1070
 5298TIP3    H237454   0.108   3.792   1.386 -1.1333  0.3880 -0.2571
 5299TIP3   OH237455   5.897   0.119   3.084 -0.2225 -0.4354  0.6617
 5299TIP3    H137456   5.902   0.057   3.156 -0.6373 -2.7974 -1.2098
 5299TIP3    H237457   5.879   0.203   3.126  0.8770 -1.4246  3.3613
 5300TIP3   OH237458   6.411   4.378   2.030  0.8958  0.0070 -0.2207
 5300TIP3    H137459   6.481   4.393   2.094  1.5676 -0.6524 -0.7890
 5300TIP3    H237460   6.341   4.338   2.081  1.4657 -0.6094  0.1093
 5301TIP3   OH237461   3.321   2.823   0.510 -0.2128 -0.1541  0.3390
 5301TIP3    H137462   3.333   2.873   0.430 -0.8257  1.2302  1.0797
 5301TIP3    H237463   3.290   2.887   0.574  1.5540 -0.9022  2.0742
 5302TIP3   OH237464   0.759   2.746   7.594 -0.3178  0.7328  0.2567
 5302TIP3    H137465   0.829   2.732   7.658  0.3539 -1.0586 -0.8030
 5302TIP3    H237466   0.790   2.819   7.541  1.2275 -0.6000 -0.7628
 5303TIP3   OH237467   1.659   2.300   8.279  0.3620  0.2021  0.2929
 5303TIP3    H137468   1.581   2.351   8.258  0.8613  1.1832  0.7228
 5303TIP3    H237469   1.722   2.324   8.211  0.1644 -0.9013 -0.2930
 5304TIP3   OH237470   3.885   6.738   2.077 -0.6238  0.8135  0.1623
 5304TIP3    H137471   3.853   6.665   2.130 -0.6044 -0.1252 -1.0697
 5304TIP3    H237472   3.979   6.741   2.096 -0.6928  0.7652  0.5164
 5305TIP3   OH237473   2.128   0.554   8.866 -0.0826  0.3013 -0.0173
 5305TIP3    H137474   2.195   0.621   8.853  0.2883  0.3193  1.7839
 5305TIP3    H237475   2.166   0.495   8.930 -1.1838 -0.5740 -0.1487
 5306TIP3   OH237476   1.573   6.446   1.547 -0.5300 -0.2782  0.1130
 5306TIP3    H137477   1.599   6.418   1.635 -1.5944 -0.2773  0.4313
 5306TIP3    H237478   1.482   6.418   1.538 -0.8265  0.8270 -0.5188
 5307TIP3   OH237479   3.823   4.840   1.456 -0.1605 -0.0327  0.4609
 5307TIP3    H137480   3.871   4.843   1.374  0.1579  2.1220  0.6535
 5307TIP3    H237481   3.764   4.765   1.448 -0.0543  0.0646 -1.6687
 5308TIP3   OH237482   2.967   6.292   8.332 -0.4714 -0.1787 -0.2597
 5308TIP3    H137483   2.907   6.364   8.313  0.3962  0.0911 -2.1495
 5308TIP3    H237484   2.974   6.244   8.250  1.3058 -0.6421  0.1182
 5309TIP3   OH237485   5.474   5.729   2.722  0.2627  0.9816 -0.2633
 5309TIP3    H137486   5.566   5.742   2.743  0.1537  0.8573  0.3107
 5309TIP3    H237487   5.428   5.748   2.804 -0.2986  1.9390 -0.7814
 5310TIP3   OH237488   4.330   6.336   1.310 -0.1238  0.0731 -0.3505
 5310TIP3    H137489   4.335   6.247   1.346 -0.4306  0.6239  1.1394
 5310TIP3    H237490   4.290   6.324   1.224 -1.2829 -1.1222  0.3092
 5311TIP3   OH237491   2.820   0.855   0.898 -0.2509  0.7434  0.0018
 5311TIP3    H137492   2.757   0.800   0.945  0.8589  0.8375  1.6964
 5311TIP3    H237493   2.803   0.943   0.931  0.1628  0.9002 -0.2019
 5312TIP3   OH237494   6.537   4.666   3.051 -0.8532 -0.2739  0.2977
 5312TIP3    H137495   6.624   4.674   3.090 -1.4925 -1.9308  2.2476
 5312TIP3    H237496   6.553   4.650   2.958  0.9379 -0.7645  0.6580
 5313TIP3   OH237497   4.945   3.005   8.409  1.1138 -0.0435  0.0025
 5313TIP3    H137498   4.977   2.921   8.442  1.9045 -0.3284 -1.4265
 5313TIP3    H237499   4.883   2.981   8.340  0.9880  0.5432 -0.0880
 5314TIP3   OH237500   0.105   4.176   2.409 -0.0836 -0.6653 -0.3485
 5314TIP3    H137501   0.099   4.209   2.498 -1.9008  0.6151 -0.8779
 5314TIP3    H237502   0.055   4.095   2.409  0.6373 -1.1245 -0.0451
 5315TIP3   OH237503   3.163   2.132   8.289 -0.3626  0.2417  0.2791
 5315TIP3    H137504   3.237   2.171   8.242  1.2459  0.4972  2.8165
 5315TIP3    H237505   3.086   2.156   8.237  1.2808  0.0972 -2.3941
 5316TIP3   OH237506   2.978   0.960   8.544  0.1601 -0.1223 -0.1634
 5316TIP3    H137507   3.043   0.930   8.480  0.0285  0.5213 -0.6018
 5316TIP3    H237508   2.958   0.882   8.595 -0.5520 -0.9206 -1.6073
 5317TIP3   OH237509   1.305   2.654   2.230 -0.2838  0.1793  0.1852
 5317TIP3    H137510   1.340   2.620   2.313 -1.2025  1.1048  0.9835
 5317TIP3    H237511   1.235   2.713   2.257 -0.9757  0.0586 -1.2913
 5318TIP3   OH237512   1.588   6.499   0.873 -0.0720  0.3961 -0.1391
 5318TIP3    H137513   1.561   6.522   0.962 -0.7857 -1.9251  0.3082
 5318TIP3    H237514   1.515   6.528   0.818  0.6489  2.4299 -0.1272
 5319TIP3   OH237515   5.806   1.802   8.659 -0.4418  0.0700  0.0033
 5319TIP3    H137516   5.870   1.799   8.588 -2.8714 -1.1927 -2.3253
 5319TIP3    H237517   5.754   1.723   8.648  0.1101 -1.2119  4.4192
 5320TIP3   OH237518   0.400   5.975   1.572  0.2282 -0.2874  0.3896
 5320TIP3    H137519   0.341   5.977   1.647 -1.6360 -1.6142 -0.9408
 5320TIP3    H237520   0.402   5.883   1.545  0.9188  0.1287 -1.1072
 5321TIP3   OH237521   2.186   1.534   1.572 -0.1449 -0.0207  0.2743
 5321TIP3    H137522   2.097   1.540   1.605 -0.0581  0.3288  0.4545
 5321TIP3    H237523   2.202   1.441   1.561 -0.7809 -0.0555 -0.4494
 5322TIP3   OH237524   5.645   0.284   0.447 -0.2480  0.9315 -0.2910
 5322TIP3    H137525   5.718   0.339   0.478  0.6273 -0.1483 -0.3916
 5322TIP3    H237526   5.596   0.263   0.526 -0.8325  2.1555 -0.2932
 5323TIP3   OH237527   1.330   6.090   7.644  0.3275  0.1785 -0.2736
 5323TIP3    H137528   1.246   6.114   7.604  0.0953  0.1827  0.2109
 5323TIP3    H237529   1.396   6.125   7.583 -0.0082  1.5478  0.0954
 5324TIP3   OH237530   5.864   2.619   1.949  0.6561  0.2119 -0.3963
 5324TIP3    H137531   5.815   2.538   1.958 -0.7471  0.9273 -1.2268
 5324TIP3    H237532   5.889   2.642   2.039 -1.1609  0.1698  0.1685
 5325TIP3   OH237533   0.498   5.798   0.522 -0.1574  0.5781  0.1648
 5325TIP3    H137534   0.498   5.875   0.466 -0.0500  2.8675  3.0941
 5325TIP3    H237535   0.590   5.787   0.548 -0.3389  0.1484  0.6453
 5326TIP3   OH237536   0.123   0.513   6.654  0.3259  0.1826 -0.2047
 5326TIP3    H137537   0.175   0.460   6.713 -1.0485 -4.6174 -2.7254
 5326TIP3    H237538   0.033   0.502   6.685 -0.0753  0.3470 -1.2577
 5327TIP3   OH237539   3.605   4.573   8.328  0.4803  0.0610 -0.3447
 5327TIP3    H137540   3.546   4.648   8.325  0.3374 -0.0403 -2.8279
 5327TIP3    H237541   3.558   4.504   8.279  2.0069 -0.5028 -1.0685
 5328TIP3   OH237542   4.503   0.849   0.693  0.3783  0.1623 -0.4625
 5328TIP3    H137543   4.505   0.910   0.619  0.5781 -1.0159 -1.4663
 5328TIP3    H237544   4.474   0.902   0.767  0.0446  1.3516 -1.4060
 5329TIP3   OH237545   2.101   2.929   0.888 -0.1824 -0.2027 -0.5028
 5329TIP3    H137546   2.011   2.904   0.865 -0.7337  1.4996 -0.3010
 5329TIP3    H237547   2.107   3.022   0.866  1.6765 -0.3767 -0.8889
 5330TIP3   OH237548   3.709   5.948   0.913  1.0910  0.3620 -0.1345
 5330TIP3    H137549   3.656   6.027   0.901 -1.1001 -1.2429 -2.1388
 5330TIP3    H237550   3.667   5.903   0.987 -0.6981 -1.0199 -1.8642
 5331TIP3   OH237551   1.229   4.589   2.147 -0.0305 -0.0152 -0.2260
 5331TIP3    H137552   1.186   4.675   2.142 -0.6296 -0.2074  1.1318
 5331TIP3    H237553   1.278   4.592   2.229 -0.5129 -1.1631  0.1195
 5332TIP3   OH237554   5.740   1.999   1.119  0.5067  0.3923 -0.6842
 5332TIP3    H137555   5.665   2.054   1.097  1.1146  1.1777 -0.8344
 5332TIP3    H237556   5.732   1.985   1.214  0.2276  0.5518 -0.6824
 5333TIP3   OH237557   3.457   5.707   0.238  0.2065  0.0974 -0.4564
 5333TIP3    H137558   3.507   5.786   0.220  0.5215  0.1413  0.5457
 5333TIP3    H237559   3.426   5.678   0.152  0.7263  0.8769 -0.9195
 5334TIP3   OH237560   6.394   6.491   7.689 -0.3049  0.1288  0.5966
 5334TIP3    H137561   6.441   6.566   7.726  2.2838 -1.3206  0.5038
 5334TIP3    H237562   6.430   6.481   7.601 -1.8555 -0.2253 -0.0242
 5335TIP3   OH237563   4.093   1.699   2.787 -0.6356 -0.5331 -0.3528
 5335TIP3    H137564   4.082   1.758   2.713 -1.7157 -0.5269 -0.1980
 5335TIP3    H237565   4.011   1.705   2.835  0.2606 -0.0581  1.2045
 5336TIP3   OH237566   5.349   3.536   1.568 -0.1950  0.2395 -0.1761
 5336TIP3    H137567   5.411   3.462   1.567  0.2550  0.5965  0.4918
 5336TIP3    H237568   5.277   3.506   1.624 -0.5165 -0.0827 -0.7530
 5337TIP3   OH237569   2.842   6.123   1.164 -0.3832  0.1401 -0.4093
 5337TIP3    H137570   2.749   6.103   1.162 -0.1892 -1.2578  1.7396
 5337TIP3    H237571   2.882   6.049   1.209  1.1023  2.8030  3.0965
 5338TIP3   OH237572   3.913   6.587   2.827  0.4382  0.1049  0.9739
 5338TIP3    H137573   3.853   6.565   2.898 -0.0804  1.3024  0.9349
 5338TIP3    H237574   3.884   6.533   2.753 -0.9885  1.0756  0.7813
 5339TIP3   OH237575   3.061   2.646   1.289  0.2987  0.0150  0.2687
 5339TIP3    H137576   3.016   2.684   1.365 -3.9138 -1.9687 -0.9051
 5339TIP3    H237577   3.059   2.714   1.222  0.9196  0.6202  0.8529
 5340TIP3   OH237578   3.362   2.218   0.109  0.6815  0.3951 -0.4558
 5340TIP3    H137579   3.439   2.251   0.156  1.5589 -0.2371 -1.4193
 5340TIP3    H237580   3.394   2.144   0.058  0.4997  2.6595 -4.2742
 5341TIP3   OH237581   0.792   5.893   7.594 -0.1512 -0.9343 -0.3891
 5341TIP3    H137582   0.757   5.860   7.512 -2.7782  0.1471  0.2187
 5341TIP3    H237583   0.792   5.817   7.653 -0.9873 -1.0760 -0.5666
 5342TIP3   OH237584   3.906   0.538   8.809  0.5410 -0.4807  0.1185
 5342TIP3    H137585   3.889   0.592   8.732 -1.2795 -1.4867 -0.2373
 5342TIP3    H237586   3.973   0.586   8.858 -1.0667  2.1774 -0.1016
 5343TIP3   OH237587   4.138   6.510   8.107  0.5865  0.1227 -0.1756
 5343TIP3    H137588   4.135   6.463   8.190 -0.8218 -1.7663 -1.2328
 5343TIP3    H237589   4.056   6.559   8.104  0.4710 -0.0966 -0.6044
 5344TIP3   OH237590   1.221   2.647   0.070  0.2448  0.5552 -0.5141
 5344TIP3    H137591   1.316   2.657   0.064  0.2425  2.0233  1.0470
 5344TIP3    H237592   1.191   2.726   0.117 -1.2703 -1.5600  2.4675
 5345TIP3   OH237593   4.500   0.104   7.892  0.2258  0.1246  0.2925
 5345TIP3    H137594   4.547   0.093   7.809  0.7396  0.5501  0.5238
 5345TIP3    H237595   4.423   0.155   7.869  0.3972  0.2941  0.0819
 5346TIP3   OH237596   5.434   0.234   8.391 -0.2942 -0.5234 -0.1189
 5346TIP3    H137597   5.527   0.210   8.396  0.6367  2.0183 -2.4440
 5346TIP3    H237598   5.413   0.230   8.298 -1.9785  0.6967  0.1641
 5347TIP3   OH237599   5.207   3.001   2.975  0.2532 -0.1923 -0.3790
 5347TIP3    H137600   5.285   2.991   3.030 -1.3583  2.9655  2.9388
 5347TIP3    H237601   5.230   3.069   2.912  0.7925 -0.7587 -0.8034
 5348TIP3   OH237602   3.205   2.096   7.360  0.2743  0.3758  0.0448
 5348TIP3    H137603   3.207   2.018   7.414 -1.3153 -0.8751 -1.5865
 5348TIP3    H237604   3.224   2.168   7.420  0.5335 -1.1272  1.8289
 5349TIP3   OH237605   0.897   3.182   7.853  0.6084  0.2888  0.1773
 5349TIP3    H137606   0.992   3.182   7.850  0.5965  0.7270 -0.3495
 5349TIP3    H237607   0.873   3.273   7.874  0.3094  0.1261  0.5723
 5350TIP3   OH237608   3.139   6.650   7.451  0.0036  0.1618 -0.0110
 5350TIP3    H137609   3.143   6.630   7.544  2.0008  1.3537  0.2043
 5350TIP3    H237610   3.214   6.604   7.413  0.5209  1.4847 -0.6436
 5351TIP3   OH237611   0.999   3.235   6.924 -0.3940 -0.3443  0.7559
 5351TIP3    H137612   0.934   3.243   6.854 -0.1796 -0.2616  0.5664
 5351TIP3    H237613   1.043   3.152   6.907 -0.4218 -0.3806  0.8600
 5352TIP3   OH237614   1.749   1.048   1.281  0.1630  0.3036 -0.3165
 5352TIP3    H137615   1.706   1.107   1.343  0.3425 -0.2047  0.2999
 5352TIP3    H237616   1.688   1.041   1.208  0.1135  1.2057 -0.3797
 5353TIP3   OH237617   0.664   4.798   1.401 -0.6245  0.0337 -0.4222
 5353TIP3    H137618   0.584   4.823   1.449  0.0714 -0.7389  1.2166
 5353TIP3    H237619   0.735   4.812   1.464  0.4528 -0.1297 -1.5622
 5354TIP3   OH237620   0.950   3.131   1.115  0.4300  0.0720  0.4183
 5354TIP3    H137621   0.999   3.145   1.196 -1.9272 -1.0295  2.1906
 5354TIP3    H237622   0.966   3.039   1.093 -0.8871 -0.3544  1.1257
 5355TIP3   OH237623   4.235   3.539   1.756 -0.0694  0.0467  0.5652
 5355TIP3    H137624   4.146   3.525   1.725  0.9486 -2.7418 -1.5862
 5355TIP3    H237625   4.226   3.556   1.850 -2.8511  0.3095  0.3249
 5356TIP3   OH237626   4.874   4.216   0.402  0.6082  0.1150  0.5212
 5356TIP3    H137627   4.822   4.286   0.364 -0.6036 -1.1497 -0.2427
 5356TIP3    H237628   4.841   4.207   0.492 -0.8987 -0.9773 -0.0919
 5357TIP3   OH237629   1.208   5.349   1.943 -0.2365  0.3205  0.0571
 5357TIP3    H137630   1.121   5.384   1.961  1.1885  3.0791  2.5127
 5357TIP3    H237631   1.231   5.386   1.858 -1.1178  0.3400 -0.1855
 5358TIP3   OH237632   5.270   6.413   0.530  0.0158 -0.2848  0.2404
 5358TIP3    H137633   5.304   6.367   0.607  1.4008  0.1771 -0.0798
 5358TIP3    H237634   5.319   6.495   0.527 -0.0359 -0.2896 -1.1266
 5359TIP3   OH237635   0.979   2.666   8.087  0.4117  0.0268  0.7659
 5359TIP3    H137636   1.046   2.693   8.150  0.5035  1.3957  0.1064
 5359TIP3    H237637   0.908   2.728   8.098 -1.2305 -1.9733  2.1166
 5360TIP3   OH237638   3.744   6.363   0.644 -0.4881  0.0726  0.0409
 5360TIP3    H137639   3.657   6.345   0.679 -0.6650  1.0795  0.1519
 5360TIP3    H237640   3.794   6.283   0.662 -1.7318 -1.0372 -1.2231
 5361TIP3   OH237641   1.112   6.685   3.125 -0.2536 -0.7598  0.7123
 5361TIP3    H137642   1.084   6.619   3.061 -0.4367  0.9033 -0.9982
 5361TIP3    H237643   1.043   6.750   3.126  0.9461  0.5683  0.6447
 5362TIP3   OH237644   0.220   2.266   0.446 -0.0970 -0.0162 -0.1965
 5362TIP3    H137645   0.245   2.317   0.369  1.7108 -0.2739  0.1968
 5362TIP3    H237646   0.227   2.175   0.418 -0.8725 -0.1023 -0.1420
 5363TIP3   OH237647   6.671   0.220   6.985 -0.0583 -0.1105  0.1529
 5363TIP3    H137648   6.628   0.183   6.908 -0.6771  0.6068  0.1442
 5363TIP3    H237649   6.763   0.226   6.960 -0.4810  1.6386 -1.1829
 5364TIP3   OH237650   2.726   1.096   0.685 -0.1908  0.1877 -0.9034
 5364TIP3    H137651   2.818   1.069   0.678  0.0321  1.2472 -3.1081
 5364TIP3    H237652   2.676   1.018   0.661  0.1165 -0.3869  0.2859
 5365TIP3   OH237653   1.617   3.049   7.834  0.2859 -0.2964  0.2714
 5365TIP3    H137654   1.669   3.005   7.766  0.7187  0.2484  0.2370
 5365TIP3    H237655   1.681   3.070   7.902 -0.2634 -1.4473  1.1769
 5366TIP3   OH237656   0.662   0.266   2.146  0.0246  0.1909  0.3509
 5366TIP3    H137657   0.670   0.359   2.166  0.5479 -0.0542  1.3782
 5366TIP3    H237658   0.696   0.257   2.057 -0.3127  1.0128  0.1236
 5367TIP3   OH237659   4.495   1.701   1.522  0.5479  0.1001 -0.0990
 5367TIP3    H137660   4.551   1.754   1.465  2.7761 -0.5725  1.3429
 5367TIP3    H237661   4.500   1.612   1.486 -5.0074  0.7901 -3.9404
 5368TIP3   OH237662   1.687   0.741   0.523  0.4845 -0.2053 -0.1776
 5368TIP3    H137663   1.765   0.746   0.468  0.1748 -0.1942 -0.6139
 5368TIP3    H237664   1.628   0.807   0.488  0.3929 -0.0033  0.3424
 5369TIP3   OH237665   0.724   1.153   0.564  0.5342  0.9773 -0.1521
 5369TIP3    H137666   0.662   1.223   0.583  0.3493  1.1573 -1.3163
 5369TIP3    H237667   0.680   1.099   0.498  0.9432  0.1432  0.2445
 5370TIP3   OH237668   0.041   1.989   0.887 -0.1527  0.1778  0.2080
 5370TIP3    H137669   0.044   2.077   0.925 -1.4417  0.3031  0.0763
 5370TIP3    H237670  -0.046   1.984   0.846 -0.8398 -1.7461  1.7094
 5371TIP3   OH237671   3.319   6.789   8.192  0.1657 -0.0659  0.3376
 5371TIP3    H137672   3.223   6.792   8.192  0.1712  0.5159  1.1975
 5371TIP3    H237673   3.346   6.876   8.163  0.4430 -0.4412 -0.5559
 5372TIP3   OH237674   5.508   3.674   7.363 -0.0710 -0.8380 -0.0399
 5372TIP3    H137675   5.414   3.660   7.359 -0.2363  0.1723  0.1419
 5372TIP3    H237676   5.537   3.672   7.272 -0.3890 -0.3442 -0.1516
 5373TIP3   OH237677   3.179   5.140   8.089 -0.3106 -0.5053 -0.0415
 5373TIP3    H137678   3.222   5.086   8.022 -0.1898  0.3723 -0.6826
 5373TIP3    H237679   3.090   5.106   8.093 -0.2872 -0.6449 -0.5696
 5374TIP3   OH237680   3.963   1.387   1.289 -0.2278  0.0753  0.1079
 5374TIP3    H137681   3.986   1.302   1.251 -0.4835  0.2107 -0.3555
 5374TIP3    H237682   4.002   1.451   1.230  1.1910  0.2901  1.2176
 5375TIP3   OH237683   2.751   6.270   7.528 -0.4359  0.1623  0.1867
 5375TIP3    H137684   2.755   6.317   7.611  0.2838  1.8059 -0.7475
 5375TIP3    H237685   2.740   6.338   7.462 -1.4144 -1.1408 -1.0535
 5376TIP3   OH237686   6.628   5.453   7.222  0.2573 -0.1173 -0.3723
 5376TIP3    H137687   6.535   5.475   7.224  0.1551 -0.5753  0.7205
 5376TIP3    H237688   6.660   5.476   7.309  0.7522 -1.6942 -0.1052
 5377TIP3   OH237689   6.423   1.032   0.344  0.0548  0.1631 -0.2087
 5377TIP3    H137690   6.329   1.014   0.350  0.2669 -0.7632  0.4377
 5377TIP3    H237691   6.428   1.128   0.344 -0.7523  0.3312  2.9524
 5378TIP3   OH237692   5.122   1.235   8.653  0.4614  0.7408 -0.6644
 5378TIP3    H137693   5.199   1.179   8.645  1.0225  1.3413  0.4222
 5378TIP3    H237694   5.131   1.298   8.582  0.9219  0.7579 -0.5925
 5379TIP3   OH237695   1.500   6.670   0.354 -0.4146 -0.0101  0.4042
 5379TIP3    H137696   1.515   6.672   0.259  0.0373  1.4193  0.4768
 5379TIP3    H237697   1.578   6.627   0.389 -0.1890  0.1938  0.1704
 5380TIP3   OH237698   6.092   4.982   8.852  0.0515 -0.0765  0.0881
 5380TIP3    H137699   6.009   4.993   8.804 -1.4358  0.1251  2.5339
 5380TIP3    H237700   6.113   4.889   8.843  0.2226  0.0803 -1.4949
 5381TIP3   OH237701   3.052   0.688   0.070 -0.1180 -0.7513  0.3064
 5381TIP3    H137702   3.106   0.623   0.026 -0.4470  0.1291 -1.4916
 5381TIP3    H237703   3.008   0.639   0.140  0.5335 -2.1823 -0.2443
 5382TIP3   OH237704   1.021   5.461   7.594 -0.1705  0.5749 -0.2033
 5382TIP3    H137705   1.052   5.393   7.535  1.4951  0.9340  0.2121
 5382TIP3    H237706   0.988   5.530   7.536  3.9194  2.1303 -0.9529
 5383TIP3   OH237707   3.934   2.177   1.755 -0.1129  0.1506 -0.5770
 5383TIP3    H137708   3.942   2.103   1.694 -0.9469 -0.2645 -0.2044
 5383TIP3    H237709   3.895   2.139   1.834 -1.3856  1.1385 -0.6900
 5384TIP3   OH237710   1.903   5.171   8.450  0.4150 -0.6733  0.6953
 5384TIP3    H137711   1.821   5.203   8.489  0.1571 -1.9975  1.2945
 5384TIP3    H237712   1.923   5.091   8.499  1.4712 -0.9736 -0.1956
 5385TIP3   OH237713   3.924   6.020   0.121  0.5485  0.1111  0.1927
 5385TIP3    H137714   3.847   6.059   0.080 -0.4287 -1.9553 -0.0906
 5385TIP3    H237715   3.972   5.979   0.048  1.5008  0.6984  0.4708
 5386TIP3   OH237716   2.602   3.541   7.843 -0.2826 -0.1653  0.1145
 5386TIP3    H137717   2.663   3.510   7.910  1.6638  0.2103 -1.4136
 5386TIP3    H237718   2.528   3.481   7.849  0.6209 -1.2165  1.4106
 5387TIP3   OH237719   0.500   4.853   1.639 -0.3585 -0.2615 -0.0050
 5387TIP3    H137720   0.470   4.936   1.675  0.3415  0.1963 -0.4496
 5387TIP3    H237721   0.460   4.786   1.695  0.9600  0.4179  1.8263
 5388TIP3   OH237722   6.369   2.423   7.577  0.4538 -0.0555 -0.0367
 5388TIP3    H137723   6.325   2.508   7.580  1.0843  0.2577  0.8407
 5388TIP3    H237724   6.298   2.359   7.581 -0.0617  0.4151 -1.2529
 5389TIP3   OH237725   4.179   2.021   8.876 -0.3054 -0.5465  0.6866
 5389TIP3    H137726   4.241   2.041   8.807 -1.1663  0.0466  0.0635
 5389TIP3    H237727   4.166   2.105   8.921 -1.7303 -0.3063 -0.1061
 5390TIP3   OH237728   6.026   2.782   0.357 -0.1336  0.0802  0.5357
 5390TIP3    H137729   5.968   2.725   0.305 -0.8096  0.3557  0.9709
 5390TIP3    H237730   5.969   2.853   0.387  0.1908 -0.1844  1.8279
 5391TIP3   OH237731   1.687   3.979   0.789  0.1241  0.0024 -0.3664
 5391TIP3    H137732   1.714   3.887   0.785  0.3873 -0.1043  1.9904
 5391TIP3    H237733   1.598   3.976   0.825  0.5328  0.6561  0.7716
 5392TIP3   OH237734   3.732   3.664   8.692  0.6134  0.7256 -0.4693
 5392TIP3    H137735   3.787   3.589   8.712 -2.0828 -1.4214 -0.4562
 5392TIP3    H237736   3.701   3.695   8.777 -0.6601 -0.1358 -0.5969
 5393TIP3   OH237737   0.874   0.406   1.339  0.3069 -0.2204  0.0930
 5393TIP3    H137738   0.782   0.402   1.311  0.1398 -2.1581  0.7866
 5393TIP3    H237739   0.873   0.468   1.412 -0.2432  0.5880 -0.5807
 5394TIP3   OH237740   4.311   5.974   0.968  0.4643  0.7244  0.0793
 5394TIP3    H137741   4.278   5.901   0.915 -0.2691  1.2726 -0.2359
 5394TIP3    H237742   4.331   6.042   0.905  0.2246  1.1426  0.4472
 5395TIP3   OH237743   4.220   6.723   0.456 -0.4908  0.3483 -0.2354
 5395TIP3    H137744   4.253   6.673   0.531  0.4859 -0.5338 -1.2052
 5395TIP3    H237745   4.191   6.656   0.394 -0.3919  1.0266 -1.0247
 5396TIP3   OH237746   1.616   5.223   8.180 -0.3319 -0.1251 -1.0434
 5396TIP3    H137747   1.656   5.253   8.098  0.3888 -0.4305 -0.8131
 5396TIP3    H237748   1.591   5.132   8.163  0.9082 -0.5803 -0.5657
 5397TIP3   OH237749   4.686   5.017   0.971  0.0994  0.2381  0.0469
 5397TIP3    H137750   4.643   5.039   0.888  0.2393  0.0471 -0.0758
 5397TIP3    H237751   4.691   5.100   1.017  0.7816  0.5027 -0.4864
 5398TIP3   OH237752   4.501   2.325   7.867 -0.0410 -0.3095  0.0135
 5398TIP3    H137753   4.550   2.268   7.808  2.0217 -0.4218  1.7143
 5398TIP3    H237754   4.524   2.414   7.839  0.4630 -0.3565  0.2744
 5399TIP3   OH237755   6.599   1.778   8.695 -0.0794  0.0761  1.0585
 5399TIP3    H137756   6.582   1.709   8.759  1.4049  0.8995  2.4144
 5399TIP3    H237757   6.628   1.853   8.748 -0.0225  1.2026 -0.4956
 5400TIP3   OH237758   1.007   5.689   1.416 -0.0038 -0.0209 -0.2670
 5400TIP3    H137759   1.043   5.730   1.494 -1.6642  0.3046  0.3770
 5400TIP3    H237760   1.076   5.631   1.385  1.0680  0.6238  0.8454
 5401TIP3   OH237761   4.617   6.646   0.574 -0.2495  0.5910 -0.0155
 5401TIP3    H137762   4.626   6.596   0.656  1.3907  0.9293  0.0364
 5401TIP3    H237763   4.603   6.736   0.603 -0.6598  0.5608 -0.1151
 5402TIP3   OH237764   3.422   3.705   0.115 -0.1815 -0.0842  0.6396
 5402TIP3    H137765   3.365   3.632   0.093 -0.7464 -0.3748  2.8683
 5402TIP3    H237766   3.371   3.759   0.175  0.9380  1.1051  0.5827
 5403TIP3   OH237767   0.339   2.894   2.284 -0.4692 -0.1117  0.5026
 5403TIP3    H137768   0.264   2.857   2.331  0.1999  1.3240  2.8935
 5403TIP3    H237769   0.408   2.897   2.350  1.4406 -0.5185 -1.3889
 5404TIP3   OH237770   1.856   2.044   1.625 -0.5286  0.0958  0.2187
 5404TIP3    H137771   1.858   2.079   1.714 -2.4974  2.1488 -0.4476
 5404TIP3    H237772   1.846   1.949   1.637  0.0283  0.2417  2.1559
 5405TIP3   OH237773   0.249   4.395   7.820  0.2575  0.0194  0.2286
 5405TIP3    H137774   0.255   4.350   7.736  0.2595  1.1723 -0.4101
 5405TIP3    H237775   0.331   4.374   7.864  0.0703 -0.9540  0.1475
 5406TIP3   OH237776   2.118   3.562   2.975  0.1478 -0.3217 -0.1577
 5406TIP3    H137777   2.147   3.566   2.883 -0.0151  0.6794 -0.1755
 5406TIP3    H237778   2.137   3.472   3.002  0.1492 -0.6467 -1.1891
 5407TIP3   OH237779   5.634   6.618   1.975 -0.3979 -0.0388 -0.5634
 5407TIP3    H137780   5.714   6.578   2.008 -0.3120 -0.9597 -1.8205
 5407TIP3    H237781   5.574   6.545   1.960 -1.9189  0.7169  1.3969
 5408TIP3   OH237782   2.413   0.531   1.292  0.6491 -1.0846 -0.0183
 5408TIP3    H137783   2.324   0.522   1.258  0.8920 -0.7893 -0.7499
 5408TIP3    H237784   2.432   0.624   1.285  1.0018 -1.1416  0.1839
 5409TIP3   OH237785   3.057   5.860   3.071 -0.1912 -0.0063  0.2493
 5409TIP3    H137786   3.068   5.788   3.009  0.7909  0.4613 -0.1383
 5409TIP3    H237787   3.146   5.878   3.103 -0.5152  0.5884  0.8465
 5410TIP3   OH237788   3.310   1.655   2.473 -0.0542  0.1751  0.0340
 5410TIP3    H137789   3.351   1.738   2.497  2.4669 -0.7991 -0.6223
 5410TIP3    H237790   3.320   1.599   2.550  0.3458 -0.2307 -0.3031
 5411TIP3   OH237791   3.619   0.255   8.499 -0.2147 -0.1714  0.1548
 5411TIP3    H137792   3.529   0.286   8.503 -0.7538 -1.7904  1.9903
 5411TIP3    H237793   3.631   0.224   8.409 -0.7001  2.1378 -0.7676
 5412TIP3   OH237794   4.253   2.699   8.226 -0.0388 -0.5468 -0.6910
 5412TIP3    H137795   4.175   2.687   8.172 -0.7029  0.6537 -0.0523
 5412TIP3    H237796   4.264   2.794   8.230  0.2998 -0.6300  0.8396
 5413TIP3   OH237797   6.458   2.539   1.488  0.4368  0.0033 -0.6769
 5413TIP3    H137798   6.400   2.495   1.427  0.3672  0.6860 -1.1041
 5413TIP3    H237799   6.528   2.576   1.434  1.2696 -0.7968 -0.1728
 5414TIP3   OH237800   2.271   0.963   0.370 -0.2914  0.1728 -0.0540
 5414TIP3    H137801   2.290   0.930   0.282 -2.0397  0.4403 -0.5796
 5414TIP3    H237802   2.346   0.936   0.422  0.3001 -0.9319 -1.3936
 5415TIP3   OH237803   2.336   3.828   0.360 -0.2710 -0.1445  0.4267
 5415TIP3    H137804   2.366   3.910   0.322  0.6994 -0.5746  0.2512
 5415TIP3    H237805   2.369   3.830   0.450 -0.0239 -0.4595  0.3433
 5416TIP3   OH237806   6.297   6.336   0.928 -0.0284 -0.0312  0.3061
 5416TIP3    H137807   6.205   6.352   0.909 -0.3318 -0.3298  1.4226
 5416TIP3    H237808   6.341   6.417   0.905 -0.3027 -0.4402 -1.8040
 5417TIP3   OH237809   0.680   4.887   7.236  0.0283 -0.0859 -0.2187
 5417TIP3    H137810   0.603   4.832   7.252 -0.0089 -0.1730 -0.6845
 5417TIP3    H237811   0.685   4.894   7.141  1.5606 -1.4370 -0.2870
 5418TIP3   OH237812   3.231   1.763   7.197  0.3255 -0.3740 -0.5077
 5418TIP3    H137813   3.254   1.671   7.206 -0.0030 -0.3304  0.9715
 5418TIP3    H237814   3.231   1.797   7.286 -0.2699  0.8872 -0.9623
 5419TIP3   OH237815   5.545   6.229   0.534 -0.3707 -0.0109 -0.4419
 5419TIP3    H137816   5.605   6.154   0.527  1.2048  1.2132 -0.6005
 5419TIP3    H237817   5.471   6.205   0.477  0.5446 -1.0409 -1.2551
 5420TIP3   OH237818   3.104   2.851   8.808 -0.3240  0.4111 -0.3591
 5420TIP3    H137819   3.124   2.890   8.723 -0.6896 -0.6551 -0.9450
 5420TIP3    H237820   3.125   2.920   8.871  1.1531  0.7931 -1.2111
 5421TIP3   OH237821   1.596   2.343   1.677  0.1744 -0.1787 -0.0370
 5421TIP3    H137822   1.600   2.292   1.757  1.5292  2.1628  1.5091
 5421TIP3    H237823   1.558   2.427   1.703  2.1068  1.2316 -1.4263
 5422TIP3   OH237824   5.698   2.419   1.653  0.0098 -0.7100 -0.0429
 5422TIP3    H137825   5.743   2.503   1.659  3.2100 -2.3459  1.8098
 5422TIP3    H237826   5.733   2.378   1.574  0.3868 -1.2682  0.4076
 5423TIP3   OH237827   1.404   4.394   7.188 -0.3969  0.0080  0.2370
 5423TIP3    H137828   1.313   4.423   7.185 -0.6994 -0.6473  1.9293
 5423TIP3    H237829   1.423   4.364   7.099 -2.4516 -1.5888  0.2595
 5424TIP3   OH237830   1.603   3.699   1.729 -0.0823 -0.3609 -0.2105
 5424TIP3    H137831   1.529   3.639   1.738  0.1635 -0.9820 -1.8600
 5424TIP3    H237832   1.650   3.667   1.652  0.7859  1.2011 -0.3716
 5425TIP3   OH237833   3.065   0.252   8.441 -0.9400 -0.0277  0.0158
 5425TIP3    H137834   3.131   0.307   8.482 -0.6356 -0.0742 -0.4109
 5425TIP3    H237835   2.982   0.282   8.479 -0.6032 -0.6521  1.3259
 5426TIP3   OH237836   5.398   2.617   0.909  0.3550 -0.4583 -0.0861
 5426TIP3    H137837   5.340   2.679   0.865  0.4710 -0.3305 -0.0562
 5426TIP3    H237838   5.374   2.624   1.002  0.6321 -0.1796 -0.0338
 5427TIP3   OH237839   3.236   2.067   2.034  0.6174  0.2879  0.1861
 5427TIP3    H137840   3.321   2.045   1.996  0.5390  0.3341 -0.0158
 5427TIP3    H237841   3.175   2.059   1.961  0.7899  2.6891 -0.2871
 5428TIP3   OH237842   5.263   3.269   8.546 -0.5787  0.2481  0.0988
 5428TIP3    H137843   5.353   3.300   8.560 -0.7863  1.0510 -0.2587
 5428TIP3    H237844   5.273   3.178   8.518  0.2252  0.7446 -1.3422
 5429TIP3   OH237845   3.082   1.291   2.040  0.0561 -0.6034 -0.0050
 5429TIP3    H137846   3.072   1.203   2.004 -0.5497  0.0943 -1.6409
 5429TIP3    H237847   3.040   1.287   2.125  1.8398 -2.4169  0.8671
 5430TIP3   OH237848   6.199   1.423   8.076 -0.1060 -0.3726 -0.4112
 5430TIP3    H137849   6.141   1.462   8.011 -2.5264 -2.9677 -0.0096
 5430TIP3    H237850   6.186   1.475   8.155  0.0485  0.5595 -0.9880
 5431TIP3   OH237851   2.722   5.405   0.778 -1.0092  1.0403 -0.1828
 5431TIP3    H137852   2.768   5.333   0.822  0.1700  1.1160 -1.2388
 5431TIP3    H237853   2.632   5.399   0.810 -1.5712 -2.3772 -1.9157
 5432TIP3   OH237854   0.125   4.350   1.362 -0.8794 -0.2353 -0.0194
 5432TIP3    H137855   0.169   4.423   1.407 -0.3116 -0.4853 -0.1523
 5432TIP3    H237856   0.143   4.364   1.269  0.5538 -1.3531  0.0461
 5433TIP3   OH237857   4.118   2.803   0.380 -0.0471  1.0146 -0.5854
 5433TIP3    H137858   4.164   2.745   0.440 -1.1274  0.0988 -0.5994
 5433TIP3    H237859   4.109   2.886   0.427 -0.5923  0.4139  0.4070
 5434TIP3   OH237860   5.046   6.084   8.870  0.1012  0.0872  0.2360
 5434TIP3    H137861   5.115   6.150   8.862 -0.3314  0.4821 -0.3102
 5434TIP3    H237862   5.060   6.027   8.794  0.6705 -0.6436  0.8799
 5435TIP3   OH237863   1.366   5.468   0.440 -0.3547 -0.0992 -0.2082
 5435TIP3    H137864   1.437   5.529   0.417  0.5085 -1.1046 -0.3063
 5435TIP3    H237865   1.386   5.440   0.529 -0.5234 -0.5125 -0.2956
 5436TIP3   OH237866   3.811   0.742   1.625  0.2079 -0.9206 -1.1615
 5436TIP3    H137867   3.733   0.771   1.577 -0.2917 -1.7387 -0.8686
 5436TIP3    H237868   3.831   0.815   1.684 -0.5478 -0.8317 -0.9983
 5437TIP3   OH237869   2.654   5.048   1.025  0.2709  0.7850 -0.0298
 5437TIP3    H137870   2.655   5.144   1.019  0.7255  0.8506  0.8776
 5437TIP3    H237871   2.561   5.025   1.030  0.1364  1.1310 -0.8280
 5438TIP3   OH237872   0.411   6.411   1.331  0.3500 -0.3573 -0.4066
 5438TIP3    H137873   0.464   6.332   1.341  0.6120 -0.1451 -0.1000
 5438TIP3    H237874   0.472   6.477   1.297  0.6659  0.2947  1.3104
 5439TIP3   OH237875   3.696   1.555   1.540  0.2377 -0.0171 -0.4195
 5439TIP3    H137876   3.765   1.621   1.533  0.6683 -0.4125  0.0721
 5439TIP3    H237877   3.725   1.497   1.610 -0.0646 -0.8172 -0.9459
 5440TIP3   OH237878   0.595   1.452   8.836  0.1907 -0.0712 -0.1958
 5440TIP3    H137879   0.668   1.455   8.775 -0.6149  0.7519 -1.1598
 5440TIP3    H237880   0.558   1.541   8.834 -0.1117 -0.1425  1.1787
 5441TIP3   OH237881   2.718   4.160   8.818 -0.2791  0.3616  0.4141
 5441TIP3    H137882   2.701   4.124   8.905  1.1210  0.8153  0.9026
 5441TIP3    H237883   2.681   4.248   8.820  0.4049  0.6448  0.8153
 5442TIP3   OH237884   4.131   1.055   2.561  0.7089 -0.3901  0.1393
 5442TIP3    H137885   4.170   1.038   2.647  1.1894  0.8245  0.1838
 5442TIP3    H237886   4.122   1.150   2.558 -1.3827 -0.5684 -0.2744
 5443TIP3   OH237887   1.884   2.169   7.921 -0.7320  0.1778  0.4151
 5443TIP3    H137888   1.823   2.167   7.847  0.1762 -2.8345 -0.4108
 5443TIP3    H237889   1.879   2.081   7.959  2.0230  0.2455  1.1687
 5444TIP3   OH237890   3.887   1.978   8.200 -0.3400 -0.3278 -0.2596
 5444TIP3    H137891   3.893   1.883   8.202 -0.6792 -0.3512 -0.0159
 5444TIP3    H237892   3.897   2.002   8.108  1.6484 -0.4506 -0.1042
 5445TIP3   OH237893   4.358   0.667   0.467  0.2433  0.1773  0.0369
 5445TIP3    H137894   4.327   0.748   0.508 -0.7143  0.1349 -0.5670
 5445TIP3    H237895   4.280   0.613   0.457  0.7197 -0.4520 -0.3900
 5446TIP3   OH237896   1.807   4.380   1.770  0.0386 -0.0873  0.2065
 5446TIP3    H137897   1.732   4.352   1.824 -0.9423  0.0713 -1.0144
 5446TIP3    H237898   1.870   4.415   1.832 -0.1788 -1.7591  1.4592
 5447TIP3   OH237899   3.775   6.414   1.479  0.4390  0.5002  0.5692
 5447TIP3    H137900   3.863   6.442   1.504  0.7787  0.1048 -0.1582
 5447TIP3    H237901   3.722   6.493   1.488  0.6968  0.5679  1.7555
 5448TIP3   OH237902   0.557   1.272   7.988 -0.0511  0.4972  0.6021
 5448TIP3    H137903   0.488   1.325   7.948  0.5118  0.0234 -1.0718
 5448TIP3    H237904   0.633   1.330   7.990  0.1074  0.2998  0.3403
 5449TIP3   OH237905   6.315   2.387   0.907  0.2923  0.7338 -0.2003
 5449TIP3    H137906   6.342   2.336   0.984  1.1471 -0.2749 -1.1196
 5449TIP3    H237907   6.318   2.478   0.935  0.6798  0.3804  0.9311
 5450TIP3   OH237908   3.064   1.622   0.407  0.3113 -0.0549  0.4896
 5450TIP3    H137909   3.118   1.545   0.425  0.1590 -0.5597 -1.0558
 5450TIP3    H237910   3.028   1.605   0.319 -0.5743  1.2899  0.5795
 5451TIP3   OH237911   1.696   6.335   1.290 -0.2798 -0.1464  0.1208
 5451TIP3    H137912   1.790   6.353   1.296 -0.1931 -0.9566  1.8509
 5451TIP3    H237913   1.655   6.409   1.334 -0.4481  0.0746 -0.4021
 5452TIP3   OH237914   0.181   1.605   0.019  0.0937 -0.5737 -0.2048
 5452TIP3    H137915   0.108   1.544   0.006 -0.3792 -0.2446  0.7385
 5452TIP3    H237916   0.241   1.587  -0.053 -1.8975  0.5948 -2.2648
 5453TIP3   OH237917   5.853   4.229   1.641 -0.3234  0.6539 -0.5058
 5453TIP3    H137918   5.777   4.263   1.688 -0.0794  1.8641 -0.9662
 5453TIP3    H237919   5.913   4.200   1.711 -1.3207 -0.6556 -0.1455
 5454TIP3   OH237920   2.259   4.842   7.659  0.1132 -0.5177 -0.5747
 5454TIP3    H137921   2.171   4.873   7.640 -0.0592 -0.4508  0.3258
 5454TIP3    H237922   2.257   4.748   7.637 -1.0868 -1.2534  2.3067
 5455TIP3   OH237923   1.296   3.299   0.270 -0.7024  0.5453 -0.4998
 5455TIP3    H137924   1.287   3.205   0.286  1.3040 -0.0822 -2.5159
 5455TIP3    H237925   1.210   3.327   0.238 -1.2564 -0.6387 -0.0943
 5456TIP3   OH237926   0.653   1.076   1.910  0.4256  0.1165 -0.6547
 5456TIP3    H137927   0.668   1.024   1.989 -1.2268  0.1796 -0.2454
 5456TIP3    H237928   0.582   1.031   1.865 -0.2099  1.3277 -0.9132
 5457TIP3   OH237929   6.160   0.095   0.398 -0.2740 -0.3491  0.0720
 5457TIP3    H137930   6.126   0.010   0.368 -1.1832 -0.7728  2.1368
 5457TIP3    H237931   6.084   0.138   0.438  1.0201 -0.2140  2.5155
 5458TIP3   OH237932   3.148   2.317   0.656 -0.2620  0.2512  0.2604
 5458TIP3    H137933   3.179   2.407   0.667 -1.2261  0.6075  0.1042
 5458TIP3    H237934   3.162   2.298   0.563 -0.5256  0.4152  0.1871
 5459TIP3   OH237935   2.741   1.252   6.703  0.1063 -0.1850  0.2116
 5459TIP3    H137936   2.791   1.213   6.632  1.3655 -0.9471  1.4596
 5459TIP3    H237937   2.727   1.181   6.765 -0.2978  0.6230  1.0780
 5460TIP3   OH237938   6.645   1.089   0.574  0.3078  0.5521  0.0149
 5460TIP3    H137939   6.586   1.014   0.560  2.2292 -1.0380 -0.0040
 5460TIP3    H237940   6.680   1.075   0.662 -0.0488  2.0120  0.4110
 5461TIP3   OH237941   1.029   5.050   3.094  0.0597  0.2595 -0.1719
 5461TIP3    H137942   1.039   4.962   3.057  1.4135 -0.2226  1.2140
 5461TIP3    H237943   0.975   5.097   3.031 -0.0395 -1.3350 -1.3307
 5462TIP3   OH237944   0.598   4.953   1.202  0.2177  0.2533  0.0568
 5462TIP3    H137945   0.510   4.949   1.240 -0.1373  0.2010 -0.7615
 5462TIP3    H237946   0.649   4.891   1.254 -0.7864 -1.4183 -0.8896
 5463TIP3   OH237947   1.520   5.754   2.932  0.6538  0.1721  0.2622
 5463TIP3    H137948   1.497   5.678   2.878  2.3144  0.0448 -0.3236
 5463TIP3    H237949   1.584   5.720   2.994  1.9456  1.2196 -0.4528
 5464TIP3   OH237950   6.174   3.097   7.977 -0.0016  0.1313 -0.7390
 5464TIP3    H137951   6.142   3.060   8.059  2.6156 -0.0807  0.2727
 5464TIP3    H237952   6.218   3.178   8.003 -0.3239  0.7954 -2.1561
 5465TIP3   OH237953   1.045   2.965   0.114 -0.3355  0.2628  0.0812
 5465TIP3    H137954   1.022   3.058   0.120 -1.2648 -0.0454  2.6877
 5465TIP3    H237955   1.140   2.964   0.112 -0.1916  1.2958  2.5454
 5466TIP3   OH237956   1.108   4.068   1.097 -0.5091  0.4269  0.4651
 5466TIP3    H137957   1.105   4.011   1.021 -0.1563  1.1387 -0.0889
 5466TIP3    H237958   1.151   4.147   1.067  2.2397 -0.3064  2.0771
 5467TIP3   OH237959   4.779   6.301   2.013 -0.1208  1.2609  0.0549
 5467TIP3    H137960   4.828   6.274   1.936 -0.2247  2.3472 -0.4025
 5467TIP3    H237961   4.770   6.220   2.065 -1.4581  0.1351 -1.8076
 5468TIP3   OH237962   3.496   0.856   2.731  0.2168  0.2986  0.2425
 5468TIP3    H137963   3.521   0.834   2.821  0.8353  0.7899  0.1947
 5468TIP3    H237964   3.494   0.772   2.686 -2.4608 -0.2842  1.2585
 5469TIP3   OH237965   5.940   3.195   2.399  0.9483  0.2189 -0.0552
 5469TIP3    H137966   5.969   3.218   2.487  0.9397  1.8617 -0.4486
 5469TIP3    H237967   5.844   3.187   2.407  0.8888  0.9117 -0.0169
 5470TIP3   OH237968   4.222   4.626   1.585  0.4307  0.2132  0.0733
 5470TIP3    H137969   4.269   4.631   1.668  0.3755  0.1451  0.1091
 5470TIP3    H237970   4.135   4.661   1.604  0.6278  0.8212 -0.1173
 5471TIP3   OH237971   5.538   1.628   7.356  0.4401 -0.1503 -0.5414
 5471TIP3    H137972   5.524   1.722   7.346 -1.7655 -0.5546 -2.1165
 5471TIP3    H237973   5.454   1.589   7.330  1.2582 -2.5534  0.1671
 5472TIP3   OH237974   3.011   4.098   1.040  0.1097 -0.1460 -0.0653
 5472TIP3    H137975   3.012   4.190   1.014  1.1143 -0.3743 -0.8773
 5472TIP3    H237976   2.919   4.081   1.064  0.3528  1.7364  2.6687
 5473TIP3   OH237977   0.224   1.037   7.625 -0.1275 -0.2413 -0.1385
 5473TIP3    H137978   0.295   1.078   7.576 -0.7227  1.1762  0.1327
 5473TIP3    H237979   0.173   1.111   7.659  0.1862 -1.1186  2.5201
 5474TIP3   OH237980   5.696   0.004   2.551  0.1181  0.1896  0.1303
 5474TIP3    H137981   5.765  -0.062   2.555 -0.7165 -0.7183 -0.1757
 5474TIP3    H237982   5.661   0.008   2.640 -0.2224 -0.2102  0.0156
 5475TIP3   OH237983   0.457   6.771   0.097 -0.2586  0.9250  0.9873
 5475TIP3    H137984   0.419   6.720   0.169  1.1878  2.2557  2.8200
 5475TIP3    H237985   0.392   6.839   0.078 -0.6776  0.5287  1.0070
 5476TIP3   OH237986   1.204   2.943   8.522  0.0082 -0.0012  0.1296
 5476TIP3    H137987   1.299   2.948   8.513  0.0716 -0.1654  0.6652
 5476TIP3    H237988   1.171   3.012   8.465  0.3769 -1.0388 -1.4040
 5477TIP3   OH237989   5.699   5.489   2.094  0.4192 -0.7060 -0.0479
 5477TIP3    H137990   5.641   5.504   2.020 -0.5466 -0.3799  0.7441
 5477TIP3    H237991   5.779   5.536   2.072 -0.3429  0.5280 -0.3059
 5478TIP3   OH237992   0.906   2.052   0.571 -0.1780  0.0586 -0.8348
 5478TIP3    H137993   0.933   1.970   0.614  0.8424  1.3967  1.2836
 5478TIP3    H237994   0.877   2.108   0.643 -0.1838  1.8103 -2.1344
 5479TIP3   OH237995   5.170   2.904   6.364 -0.3072  0.7042 -0.0977
 5479TIP3    H137996   5.200   2.962   6.433 -1.2957 -0.1688  1.1220
 5479TIP3    H237997   5.089   2.866   6.399  0.6804 -1.9748 -0.4769
 5480TIP3   OH237998   5.809   0.276   2.492  0.7943  0.6773 -0.3212
 5480TIP3    H137999   5.766   0.214   2.550 -0.1914  1.5557 -0.0755
 5480TIP3    H238000   5.744   0.345   2.478  1.7971  1.5825 -0.7004
 5481TIP3   OH238001   6.580   4.820   1.552  0.0657 -0.0910  0.0590
 5481TIP3    H138002   6.559   4.789   1.464  0.2887  0.1385 -0.0737
 5481TIP3    H238003   6.623   4.745   1.594  0.5414  0.0191 -0.2389
 5482TIP3   OH238004   6.277   2.936   8.328  0.0661  0.0761 -0.1995
 5482TIP3    H138005   6.194   2.957   8.285 -0.7412  0.5837  1.5275
 5482TIP3    H238006   6.261   2.851   8.370  0.9906 -0.6346 -1.2309
 5483TIP3   OH238007   3.908   4.332   1.035  0.4307  0.1110  0.1906
 5483TIP3    H138008   3.943   4.409   1.078  0.9003 -0.4037  0.7397
 5483TIP3    H238009   3.834   4.305   1.090  1.8970 -1.3791  1.5115
 5484TIP3   OH238010   3.733   2.704   7.896  0.2765 -0.2434  0.2494
 5484TIP3    H138011   3.821   2.725   7.864  1.4835 -2.5594  1.7784
 5484TIP3    H238012   3.713   2.620   7.856 -1.5730  0.5137 -0.5420
 5485TIP3   OH238013   3.659   1.877   2.072  0.1172 -0.2505  0.0895
 5485TIP3    H138014   3.576   1.829   2.066  0.1571 -0.1666 -1.8333
 5485TIP3    H238015   3.644   1.942   2.140 -0.3641 -2.1133  1.8841
 5486TIP3   OH238016   0.537   0.383   0.566  0.5080  0.1004 -0.1776
 5486TIP3    H138017   0.514   0.301   0.522  0.0071 -1.0367  2.0421
 5486TIP3    H238018   0.629   0.397   0.542  0.7152 -1.3146 -0.3236
 5487TIP3   OH238019   0.915   3.326   7.286  0.5261 -0.2579 -0.1592
 5487TIP3    H138020   1.002   3.299   7.257  0.5540 -0.7148  0.3506
 5487TIP3    H238021   0.899   3.277   7.366 -0.6380 -0.9533 -0.7960
 5488TIP3   OH238022   0.608   3.025   0.909 -0.6605  0.6602  0.2529
 5488TIP3    H138023   0.524   2.996   0.942  0.2826 -0.7432  1.5386
 5488TIP3    H238024   0.630   3.101   0.964 -0.0155 -0.4496  1.5844
 5489TIP3   OH238025   4.568   6.062   2.065 -0.2568 -1.0950  0.1189
 5489TIP3    H138026   4.569   6.028   1.976  0.2249  0.6582 -0.5991
 5489TIP3    H238027   4.475   6.080   2.083 -0.3979 -1.7984  0.1373
 5490TIP3   OH238028   1.435   5.463   0.719 -0.4057  0.2815 -0.1129
 5490TIP3    H138029   1.439   5.548   0.761 -0.7038  0.0133  0.4760
 5490TIP3    H238030   1.484   5.405   0.777  0.7321  0.2540 -1.0568
 5491TIP3   OH238031   1.236   3.229   0.856 -0.2358 -0.1229 -0.2013
 5491TIP3    H138032   1.197   3.278   0.929  2.1540  0.2171  0.9334
 5491TIP3    H238033   1.273   3.296   0.799 -1.0191 -0.4515 -1.1231
 5492TIP3   OH238034   1.989   6.769   7.844 -0.5293 -0.0836 -0.2256
 5492TIP3    H138035   1.950   6.695   7.891 -0.2134 -0.4478 -0.5263
 5492TIP3    H238036   2.067   6.732   7.803 -0.0433  0.5560  0.0981
 5493TIP3   OH238037   6.414   0.880   7.178 -0.0873  0.3954 -0.6016
 5493TIP3    H138038   6.467   0.803   7.199  0.0788  0.8188  0.6657
 5493TIP3    H238039   6.452   0.914   7.097  0.8796  0.0565 -0.3058
 5494TIP3   OH238040   2.760   6.463   2.090  0.0739  0.5135  0.3447
 5494TIP3    H138041   2.847   6.499   2.105 -0.1722  1.4721 -0.3850
 5494TIP3    H238042   2.742   6.411   2.168  2.0009 -1.1814 -0.2524
 5495TIP3   OH238043   6.614   4.014   3.542 -0.6455 -0.2996 -0.1514
 5495TIP3    H138044   6.708   4.004   3.531 -0.0956  3.6641 -0.6563
 5495TIP3    H238045   6.579   4.010   3.453 -1.0566 -2.1105  0.0654
 5496TIP3   OH238046   5.732   2.644   6.999  0.3973  0.5897 -0.3249
 5496TIP3    H138047   5.797   2.610   7.061  1.2773 -1.3249 -2.1713
 5496TIP3    H238048   5.781   2.704   6.943  0.2859  0.1146 -0.9360
 5497TIP3   OH238049   1.774   6.114   0.309 -0.9395  0.6343  0.1680
 5497TIP3    H138050   1.786   6.174   0.383 -1.2280  1.4934 -0.4667
 5497TIP3    H238051   1.684   6.128   0.280 -1.5097 -1.1658  0.8951
 5498TIP3   OH238052   0.721   0.911   2.454  0.5674  0.3536  0.0001
 5498TIP3    H138053   0.754   0.982   2.510  0.3899  2.5011 -2.4288
 5498TIP3    H238054   0.626   0.913   2.467  0.0448  3.4768 -2.9846
 5499TIP3   OH238055   6.085   0.414   1.273 -0.3314 -0.8916 -0.4146
 5499TIP3    H138056   6.030   0.492   1.262 -1.8167 -1.8249  0.1785
 5499TIP3    H238057   6.166   0.436   1.226 -0.7934  0.9079 -0.4674
 5500TIP3   OH238058   4.934   2.501   6.832 -0.2849 -0.0062 -0.2015
 5500TIP3    H138059   4.858   2.522   6.887  0.7316  1.2560  0.7704
 5500TIP3    H238060   4.906   2.424   6.782 -2.3489  0.6447 -0.1732
 5501TIP3   OH238061   0.718   3.416   1.597  0.0403 -0.0138 -0.8019
 5501TIP3    H138062   0.769   3.407   1.516 -0.3015  0.3654 -1.0596
 5501TIP3    H238063   0.628   3.399   1.570 -0.0280 -0.2431 -0.4288
 5502TIP3   OH238064   1.366   0.547   1.187  0.5455 -0.3750  0.2966
 5502TIP3    H138065   1.303   0.476   1.176  0.0912  0.0880 -0.1912
 5502TIP3    H238066   1.418   0.547   1.107  2.0087 -1.5255  1.1894
 5503TIP3   OH238067   0.811   1.376   0.871  0.0731 -0.6380 -0.1175
 5503TIP3    H138068   0.804   1.328   0.954  2.9728 -0.6445  0.2257
 5503TIP3    H238069   0.796   1.468   0.895 -0.2210 -0.7597  0.1762
 5504TIP3   OH238070   5.605   2.870   7.062  0.1895  0.1083  0.1278
 5504TIP3    H138071   5.644   2.787   7.032 -0.5225 -0.2994  0.3054
 5504TIP3    H238072   5.661   2.937   7.025  0.8106 -0.4584  0.0201
 5505TIP3   OH238073   4.227   3.126   6.652  0.4398 -0.3543 -0.5613
 5505TIP3    H138074   4.288   3.198   6.634 -1.8124  2.0382  0.6845
 5505TIP3    H238075   4.239   3.066   6.578  2.6713  1.1164 -1.5034
 5506TIP3   OH238076   1.964   6.758   2.355 -0.5991 -0.2561  0.6973
 5506TIP3    H138077   1.926   6.817   2.289  0.6831 -1.8087 -1.5558
 5506TIP3    H238078   2.052   6.792   2.370 -0.1540 -1.0687  0.0139
 5507TIP3   OH238079   3.083   5.145   0.964 -0.1900 -0.0037 -0.7823
 5507TIP3    H138080   3.114   5.215   0.907  1.2203 -0.5811 -0.7641
 5507TIP3    H238081   3.027   5.091   0.908  0.8763 -0.3512 -1.5424
 5508TIP3   OH238082   1.970   2.631   1.026  0.3935 -0.1655 -0.2730
 5508TIP3    H138083   2.022   2.662   0.952 -0.5026  0.0202 -0.8375
 5508TIP3    H238084   1.944   2.711   1.072  0.8674 -0.2752  0.1918
 5509TIP3   OH238085   2.710   0.027   0.142  0.4642 -0.1693 -0.0600
 5509TIP3    H138086   2.794   0.040   0.186  1.0952  0.1712 -1.3055
 5509TIP3    H238087   2.722   0.068   0.056 -2.1814  3.3114  1.0028
 5510TIP3   OH238088   1.873   1.683   8.652 -0.1235  0.0739 -0.0223
 5510TIP3    H138089   1.901   1.657   8.564  2.9730  1.3736  0.4413
 5510TIP3    H238090   1.883   1.604   8.705  0.1389 -0.1722 -0.4306
 5511TIP3   OH238091   6.103   0.026   7.609 -0.3363 -0.5004  0.0549
 5511TIP3    H138092   6.158  -0.012   7.540  0.4826  0.2971  0.2426
 5511TIP3    H238093   6.035   0.074   7.561 -2.9498 -4.1204 -0.2468
 5512TIP3   OH238094   0.431   6.224   6.988 -0.0713  0.2594 -0.3331
 5512TIP3    H138095   0.403   6.134   6.972  2.2376 -0.7287  0.6984
 5512TIP3    H238096   0.525   6.223   6.970  0.8049  1.4256  3.3535
 5513TIP3   OH238097   6.426   0.764   1.319  0.6321  0.0041 -0.0586
 5513TIP3    H138098   6.348   0.732   1.362  0.8900 -0.4027  0.1110
 5513TIP3    H238099   6.405   0.763   1.226  0.9819 -1.6487 -0.1438
 5514TIP3   OH238100   2.211   4.707   0.272 -0.0316 -0.1608 -0.4950
 5514TIP3    H138101   2.211   4.784   0.329  1.5675  1.2734 -2.2774
 5514TIP3    H238102   2.291   4.660   0.295 -0.3898 -0.6398 -0.2231
 5515TIP3   OH238103   2.320   5.392   0.396  0.2313  0.3987 -0.2919
 5515TIP3    H138104   2.249   5.454   0.382 -1.8086 -1.3568  1.6066
 5515TIP3    H238105   2.361   5.420   0.478 -1.3719 -1.2250  1.1449
 5516TIP3   OH238106   1.962   2.697   8.439  0.5234 -0.5134 -0.0976
 5516TIP3    H138107   1.932   2.767   8.497 -1.4290 -0.6926 -0.7989
 5516TIP3    H238108   2.057   2.704   8.440  0.5090  0.3015  2.0945
 5517TIP3   OH238109   2.430   0.254   0.766 -0.6469 -0.1458 -0.3440
 5517TIP3    H138110   2.411   0.324   0.828 -1.5152 -0.9037  0.2631
 5517TIP3    H238111   2.352   0.248   0.711 -0.0796  0.1895 -1.2132
 5518TIP3   OH238112   4.986   5.354   8.599 -0.2484 -0.2704 -0.7692
 5518TIP3    H138113   4.971   5.376   8.507  0.8693  0.3833 -0.8076
 5518TIP3    H238114   5.001   5.438   8.642  1.3068 -0.7178 -0.3909
 5519TIP3   OH238115   2.338   0.465   3.160  0.0471 -0.0929 -0.2807
 5519TIP3    H138116   2.385   0.383   3.177  1.9393  1.1134  0.5383
 5519TIP3    H238117   2.250   0.436   3.135  0.2769 -2.3377  1.1830
 5520TIP3   OH238118   1.158   2.000   0.203 -0.3828 -0.5388 -0.2957
 5520TIP3    H138119   1.094   1.943   0.161  1.0428 -1.6206 -1.1150
 5520TIP3    H238120   1.219   2.023   0.133 -1.4761  2.9743 -0.2613
 5521TIP3   OH238121   5.056   3.997   0.971 -0.6689  0.1820  0.0229
 5521TIP3    H138122   5.118   3.981   1.042  0.4435 -0.2747 -1.0080
 5521TIP3    H238123   5.111   4.016   0.895 -1.8024  0.0108 -0.8738
 5522TIP3   OH238124   6.336   6.205   2.315  0.8382  0.3281  0.8132
 5522TIP3    H138125   6.280   6.280   2.298 -0.7901 -1.2665 -1.4315
 5522TIP3    H238126   6.329   6.151   2.237  0.7532 -2.8947  2.8492
 5523TIP3   OH238127   4.445   1.498   2.549  0.3978  0.3900 -0.0974
 5523TIP3    H138128   4.378   1.548   2.502  1.7273  1.0206 -1.4185
 5523TIP3    H238129   4.492   1.451   2.480  1.7946  0.5671  0.6992
 5524TIP3   OH238130   3.655   0.617   8.650 -0.8004  0.0046  0.1825
 5524TIP3    H138131   3.593   0.690   8.651 -1.2870 -0.2796  3.5461
 5524TIP3    H238132   3.601   0.539   8.661 -0.2230 -0.8902 -2.6575
 5525TIP3   OH238133   5.443   4.541   2.861 -0.0016 -0.5813 -0.0167
 5525TIP3    H138134   5.521   4.497   2.827 -0.5213 -1.8274  0.3399
 5525TIP3    H238135   5.411   4.483   2.930  0.5534  1.4753  2.0638
 5526TIP3   OH238136   2.854   6.678   8.765 -0.2533 -0.3647  0.3694
 5526TIP3    H138137   2.947   6.667   8.746 -0.3330 -0.1278 -0.1831
 5526TIP3    H238138   2.833   6.606   8.824  0.3313 -0.2879  0.6853
 5527TIP3   OH238139   6.181   4.189   2.110 -0.9386  0.0159 -0.1262
 5527TIP3    H138140   6.202   4.099   2.085 -0.6083 -0.6444  2.3435
 5527TIP3    H238141   6.128   4.182   2.189 -1.0206  1.9902  0.0668
 5528TIP3   OH238142   4.226   6.399   1.957  0.1551  0.0150 -0.8622
 5528TIP3    H138143   4.253   6.442   1.876  0.0475  1.5060 -0.1312
 5528TIP3    H238144   4.283   6.323   1.963  2.5577  1.7248 -0.6355
 5529TIP3   OH238145   5.230   2.108   7.848 -0.1233 -0.2132 -0.2767
 5529TIP3    H138146   5.227   2.076   7.938  0.4047 -2.3602 -0.9626
 5529TIP3    H238147   5.288   2.183   7.851  1.5367 -1.4698  0.8685
 5530TIP3   OH238148   4.340   4.554   8.706 -0.1334 -0.3423  0.1547
 5530TIP3    H138149   4.348   4.483   8.769 -0.2408 -0.5598 -0.0764
 5530TIP3    H238150   4.415   4.542   8.647 -0.0109 -0.1169  0.2630
 5531TIP3   OH238151   3.874   4.993   7.728 -0.3212  0.8609 -0.1423
 5531TIP3    H138152   3.800   4.961   7.676  0.5268  0.5657 -1.2078
 5531TIP3    H238153   3.915   5.059   7.672  0.6759  0.4629  0.1050
 5532TIP3   OH238154   5.921   3.328   0.989 -0.9229  0.5710 -0.8011
 5532TIP3    H138155   5.833   3.341   1.024 -2.2922  1.2337 -4.0877
 5532TIP3    H238156   5.920   3.239   0.954 -0.6354  0.9230 -1.7290
 5533TIP3   OH238157   2.576   3.305   8.811 -0.0420 -1.0757  0.3375
 5533TIP3    H138158   2.633   3.235   8.842  1.9557 -2.3589 -5.1159
 5533TIP3    H238159   2.628   3.385   8.820 -0.3581 -1.0215  1.9639
 5534TIP3   OH238160   3.184   5.691   2.367 -0.0978  0.1071 -0.0862
 5534TIP3    H138161   3.230   5.638   2.302 -1.9591 -1.3431 -0.3135
 5534TIP3    H238162   3.093   5.693   2.337 -0.4126  2.0812  0.8334
 5535TIP3   OH238163   1.701   5.226   2.133 -0.4361 -0.0741 -0.2176
 5535TIP3    H138164   1.707   5.312   2.175  0.2596 -0.2672  0.0853
 5535TIP3    H238165   1.611   5.222   2.100 -0.6799  0.4889  0.3600
 5536TIP3   OH238166   2.640   0.022   2.198 -0.3279 -0.8678  0.4401
 5536TIP3    H138167   2.722   0.071   2.192 -1.1320  0.6895  1.6661
 5536TIP3    H238168   2.647  -0.027   2.280 -0.1576 -1.6971 -0.0477
 5537TIP3   OH238169   5.113   3.892   8.085 -0.2336  0.5914 -0.5075
 5537TIP3    H138170   5.049   3.898   8.156 -0.1186  1.1022 -0.4349
 5537TIP3    H238171   5.081   3.953   8.019 -0.1891  0.3276 -0.7727
 5538TIP3   OH238172   5.866   0.114   0.474  0.0564 -0.1494 -0.0270
 5538TIP3    H138173   5.921   0.038   0.454 -1.7875 -1.2036 -1.2618
 5538TIP3    H238174   5.848   0.106   0.568  3.1382  1.0596  0.8016
 5539TIP3   OH238175   4.034   1.114   1.627  0.2137 -0.4834  0.5616
 5539TIP3    H138176   4.061   1.204   1.609  0.2539 -0.6395 -0.1601
 5539TIP3    H238177   4.033   1.071   1.542  2.0834 -1.6954  1.0804
 5540TIP3   OH238178   4.731   2.011   0.953  0.6187 -0.5132 -0.1303
 5540TIP3    H138179   4.706   2.032   0.863  3.4321  0.5399 -0.7796
 5540TIP3    H238180   4.792   1.937   0.945 -0.5154 -1.6457  1.1344
 5541TIP3   OH238181   5.011   3.438   2.360 -0.2091  0.4851  0.0675
 5541TIP3    H138182   5.037   3.459   2.450  0.4710  0.7780 -0.1918
 5541TIP3    H238183   4.937   3.497   2.343 -1.2007 -0.4867  0.8745
 5542TIP3   OH238184   5.521   0.297   7.930  0.6381  0.0253 -0.2124
 5542TIP3    H138185   5.614   0.316   7.945  0.3527  1.2720  0.0989
 5542TIP3    H238186   5.483   0.381   7.904 -0.5462 -0.3141  0.3524
 5543TIP3   OH238187   5.266   3.282   2.749  0.4615  0.0206 -0.0738
 5543TIP3    H138188   5.328   3.253   2.683 -0.9738 -1.2236 -0.9394
 5543TIP3    H238189   5.292   3.372   2.768  1.5289  0.0691 -1.5939
 5544TIP3   OH238190   6.138   1.599   0.129 -0.3837 -0.0414 -0.4235
 5544TIP3    H138191   6.057   1.548   0.130 -0.6219  0.3104 -0.9997
 5544TIP3    H238192   6.143   1.633   0.039  0.6259 -0.4213 -0.5179
 5545TIP3   OH238193   2.045   3.644   8.345 -0.2629 -0.3800  0.1218
 5545TIP3    H138194   2.134   3.677   8.355 -0.2122 -0.8251  1.4224
 5545TIP3    H238195   2.019   3.669   8.257  0.6963  0.8547  0.1602
 5546TIP3   OH238196   0.042   6.735   1.461  0.0195  0.7009 -0.0835
 5546TIP3    H138197   0.040   6.685   1.379  0.1341 -0.5799  0.6761
 5546TIP3    H238198  -0.012   6.685   1.521 -1.7400  2.6919  0.0831
 5547TIP3   OH238199   3.003   0.699   1.222 -0.4751  0.0413 -0.1197
 5547TIP3    H138200   3.072   0.733   1.166  0.8916 -0.6677  1.0467
 5547TIP3    H238201   2.936   0.767   1.222  0.1854  0.7227 -1.3370
 5548TIP3   OH238202   3.207   2.243   1.614  0.2468 -0.4285  0.3963
 5548TIP3    H138203   3.261   2.320   1.635  1.5827 -0.5145 -2.3392
 5548TIP3    H238204   3.153   2.271   1.541 -1.8656 -1.0924  1.6095
 5549TIP3   OH238205   3.984   3.282   7.028  0.2393  0.1033  0.2397
 5549TIP3    H138206   4.057   3.335   6.996  0.0328 -0.3193 -0.9809
 5549TIP3    H238207   3.979   3.209   6.967 -1.2141  0.1252  0.3038
 5550TIP3   OH238208   2.746   4.893   7.708 -0.5551 -0.2904  0.3279
 5550TIP3    H138209   2.673   4.951   7.730  0.8375  1.5480  0.2836
 5550TIP3    H238210   2.775   4.857   7.792 -1.4001 -0.9388  0.3580
 5551TIP3   OH238211   2.697   0.025   7.049 -0.0649 -0.2334 -0.1191
 5551TIP3    H138212   2.655   0.086   7.109  0.3208 -0.7274  0.6725
 5551TIP3    H238213   2.758   0.078   6.998 -1.8553  0.5654 -1.5334
 5552TIP3   OH238214   6.581   0.554   0.891 -0.2099 -0.3922  0.2405
 5552TIP3    H138215   6.637   0.609   0.836 -0.1525 -0.9121 -0.2304
 5552TIP3    H238216   6.639   0.489   0.929  0.1862  1.3140  2.7956
 5553TIP3   OH238217   1.776   4.151   2.034  0.0194  0.3595  0.3793
 5553TIP3    H138218   1.784   4.103   1.952  1.0578 -1.8457  1.6608
 5553TIP3    H238219   1.855   4.206   2.038 -0.2943  0.8750 -0.2990
 5554TIP3   OH238220   5.297   1.328   1.442 -0.0277  0.0803  0.0120
 5554TIP3    H138221   5.324   1.310   1.532  2.2608 -1.5417 -0.8965
 5554TIP3    H238222   5.274   1.421   1.442  0.7336  0.3324  2.0852
 5555TIP3   OH238223   0.998   3.067   8.692 -0.2956 -0.0459  0.0790
 5555TIP3    H138224   1.064   2.999   8.676 -0.7457 -0.5849  0.4767
 5555TIP3    H238225   0.979   3.060   8.785 -2.6277 -1.5116 -0.4064
 5556TIP3   OH238226   5.914   5.806   7.668  0.1170 -0.0198  0.2007
 5556TIP3    H138227   5.980   5.875   7.662 -1.2759  1.3342 -0.1566
 5556TIP3    H238228   5.872   5.806   7.582 -1.8884  0.7700  1.1352
 5557TIP3   OH238229   4.008   3.807   0.548 -0.1182 -0.4312  0.0477
 5557TIP3    H138230   4.039   3.887   0.504 -1.1734 -0.2048 -0.3158
 5557TIP3    H238231   4.055   3.806   0.631  0.6578  0.0364 -0.3698
 5558TIP3   OH238232   2.012   4.540   0.333 -0.0697 -0.0600 -0.0110
 5558TIP3    H138233   2.061   4.458   0.323  0.8362  0.4512  0.1203
 5558TIP3    H238234   2.072   4.607   0.301 -1.2835  0.4393 -1.3817
 5559TIP3   OH238235   4.580   5.596   0.078 -0.1601 -0.0920  0.6260
 5559TIP3    H138236   4.644   5.666   0.090 -0.7377  0.4605  0.5297
 5559TIP3    H238237   4.601   5.558  -0.008 -0.4970  0.6567  0.2074
 5560TIP3   OH238238   2.535   5.528   7.818 -0.0960  0.3450  0.3413
 5560TIP3    H138239   2.596   5.533   7.744 -1.7068  0.4151 -1.0521
 5560TIP3    H238240   2.537   5.616   7.856 -1.2306  1.1637 -1.3429
 5561TIP3   OH238241   0.207   2.489   2.209  0.1423 -0.6978 -0.4370
 5561TIP3    H138242   0.283   2.444   2.245 -0.1596 -0.5272  0.4282
 5561TIP3    H238243   0.173   2.541   2.281  1.1369  1.8478 -1.6712
 5562TIP3   OH238244   4.608   3.811   0.922 -0.4439  0.0211  0.2271
 5562TIP3    H138245   4.671   3.739   0.928 -0.6598 -0.2719 -0.7832
 5562TIP3    H238246   4.661   3.887   0.898 -0.6319 -0.5754 -2.3428
 5563TIP3   OH238247   0.954   5.601   1.944  0.4476 -0.0668 -0.0193
 5563TIP3    H138248   0.966   5.529   2.007  0.5860 -0.0463 -0.0224
 5563TIP3    H238249   0.971   5.680   1.995  1.6749 -0.1023 -0.3530
 5564TIP3   OH238250   1.240   5.061   7.981 -0.2304  0.2268  0.3537
 5564TIP3    H138251   1.297   5.115   7.926 -0.5958  0.7605  0.4980
 5564TIP3    H238252   1.205   4.995   7.921  0.5634 -0.1346  0.2708
 5565TIP3   OH238253   0.734   2.924   1.211  0.3645  0.6157  0.7470
 5565TIP3    H138254   0.807   2.914   1.272  1.5967 -0.6363 -0.8606
 5565TIP3    H238255   0.685   2.842   1.218  0.7835  0.2698 -0.2605
 5566TIP3   OH238256   1.281   0.448   0.198 -0.1786  0.0487  0.1345
 5566TIP3    H138257   1.201   0.458   0.249 -0.7716  0.1443 -0.7857
 5566TIP3    H238258   1.334   0.525   0.221  0.0136 -0.4322  1.3549
 5567TIP3   OH238259   0.512   1.853   7.585 -0.1494 -0.5668  0.2637
 5567TIP3    H138260   0.562   1.815   7.512  1.3546 -1.1999  1.5651
 5567TIP3    H238261   0.424   1.866   7.549  1.1002  1.4326 -2.4273
 5568TIP3   OH238262   1.954   4.036   7.898  0.3165  0.6703  0.4710
 5568TIP3    H138263   1.943   4.131   7.895 -0.1705  0.7038  2.1387
 5568TIP3    H238264   1.964   4.010   7.806  1.8131  2.4632  0.0625
 5569TIP3   OH238265   1.811   3.183   1.603  0.0665 -0.5100 -0.3539
 5569TIP3    H138266   1.825   3.143   1.689 -0.1961  0.4798  0.1634
 5569TIP3    H238267   1.807   3.277   1.621 -3.5152 -0.4126 -0.8883
 5570TIP3   OH238268   5.784   6.060   2.805  0.1616 -0.0193  0.1849
 5570TIP3    H138269   5.764   5.969   2.786 -0.8603  0.0360  0.8959
 5570TIP3    H238270   5.870   6.057   2.847 -0.0370 -0.7032  0.5598
 5571TIP3   OH238271   5.395   6.594   1.836 -0.1127  0.0109 -0.1168
 5571TIP3    H138272   5.346   6.635   1.907  1.9404  0.7622  0.9523
 5571TIP3    H238273   5.465   6.656   1.816  1.0653 -1.4681 -0.8062
 5572TIP3   OH238274   1.594   5.502   2.564 -0.3869  0.2809 -0.3819
 5572TIP3    H138275   1.684   5.524   2.586  0.3832 -1.1606 -1.8848
 5572TIP3    H238276   1.543   5.532   2.639  1.1664  2.1794  0.0010
 5573TIP3   OH238277   4.550   6.587   7.515  0.2448  0.3069 -0.8551
 5573TIP3    H138278   4.504   6.508   7.544  0.5488  0.1372 -0.8268
 5573TIP3    H238279   4.610   6.557   7.446  2.0993  0.0551  0.7619
 5574TIP3   OH238280   6.544   4.395   1.033 -0.1098  0.9901  0.1119
 5574TIP3    H138281   6.495   4.355   1.105  0.0360  0.2691 -0.1799
 5574TIP3    H238282   6.516   4.487   1.033 -1.1919  0.6783  0.1738
 5575TIP3   OH238283   5.648   1.508   1.235 -0.1169 -0.0611 -0.4055
 5575TIP3    H138284   5.619   1.433   1.287 -1.6146  0.4391 -0.4796
 5575TIP3    H238285   5.693   1.564   1.297 -2.6194  0.9356  0.6145
 5576TIP3   OH238286   4.161   2.410   1.003  0.2134 -0.0768  0.0791
 5576TIP3    H138287   4.078   2.362   0.999  0.2961 -0.1682 -0.9679
 5576TIP3    H238288   4.165   2.443   1.092 -0.0286 -1.6856  0.7312
 5577TIP3   OH238289   0.003   5.501   1.572 -0.2916  0.1168  0.1097
 5577TIP3    H138290  -0.031   5.572   1.626 -1.5485  0.5789 -1.2246
 5577TIP3    H238291  -0.003   5.534   1.482  0.6038 -1.0763 -0.4173
 5578TIP3   OH238292   1.082   5.372   8.212  0.0801 -0.1043 -0.0307
 5578TIP3    H138293   1.153   5.312   8.234 -2.0834 -3.6994 -1.7228
 5578TIP3    H238294   1.073   5.429   8.288  3.3822 -0.8466  1.0653
 5579TIP3   OH238295   2.734   4.815   1.981  0.0700  0.1853  0.1151
 5579TIP3    H138296   2.693   4.886   1.931 -0.2376 -1.1306 -1.5992
 5579TIP3    H238297   2.797   4.776   1.920  1.7097  0.2244  1.6929
 5580TIP3   OH238298   0.596   0.674   0.589 -0.0002 -0.6346 -1.3398
 5580TIP3    H138299   0.617   0.669   0.682  1.0861 -1.4294 -1.6060
 5580TIP3    H238300   0.552   0.591   0.570  0.5869 -0.8637 -1.7202
 5581TIP3   OH238301   4.571   2.166   2.005 -0.2708  0.4342  0.5145
 5581TIP3    H138302   4.511   2.204   2.069 -0.6786  0.9152 -0.1425
 5581TIP3    H238303   4.521   2.096   1.964  0.6750 -1.3039  2.1458
 5582TIP3   OH238304   0.814   1.929   1.133  1.0040  0.3501  0.2883
 5582TIP3    H138305   0.863   2.010   1.146  0.7413  0.8638 -1.6417
 5582TIP3    H238306   0.854   1.888   1.056  0.5977 -0.9342  0.7376
 5583TIP3   OH238307   6.572   6.470   2.540 -0.1872 -0.4459  0.7181
 5583TIP3    H138308   6.482   6.493   2.514 -0.0486 -1.0604 -0.3606
 5583TIP3    H238309   6.561   6.421   2.622 -0.8767 -0.8520  0.3969
 5584TIP3   OH238310   3.373   4.884   7.517  1.3158  0.1764 -0.5863
 5584TIP3    H138311   3.376   4.814   7.452  2.7806 -0.1274 -0.2252
 5584TIP3    H238312   3.293   4.867   7.567  0.7297 -0.2018 -1.6017
 5585TIP3   OH238313   4.628   2.970   7.441 -0.7460  0.2094 -0.1736
 5585TIP3    H138314   4.705   3.023   7.462 -1.3063  0.7406  0.6132
 5585TIP3    H238315   4.554   3.027   7.461 -1.3557 -0.3439 -0.7785
 5586TIP3   OH238316   4.450   6.723   2.515 -0.1068 -0.2583 -0.5434
 5586TIP3    H138317   4.393   6.712   2.439 -1.1943  1.9130 -0.1201
 5586TIP3    H238318   4.416   6.661   2.579 -2.1628  1.0318 -0.2693
 5587TIP3   OH238319   4.977   5.405   2.188 -0.3171 -0.3463 -0.1457
 5587TIP3    H138320   5.010   5.317   2.173  0.1263 -0.4272  1.1729
 5587TIP3    H238321   4.976   5.415   2.284  2.2036  1.9732 -0.2065
 5588TIP3   OH238322   1.323   2.278   0.470  0.1304 -0.5419  0.4713
 5588TIP3    H138323   1.289   2.233   0.548  0.2638 -0.5518  0.5246
 5588TIP3    H238324   1.402   2.228   0.446 -0.3313 -0.9985 -0.1262
 5589TIP3   OH238325   1.506   1.804   8.197  0.1210  0.0321  0.1246
 5589TIP3    H138326   1.535   1.738   8.134 -1.9056 -0.9956  0.2004
 5589TIP3    H238327   1.414   1.820   8.175  0.4999  2.8120  0.1651
 5590TIP3   OH238328   2.117   2.036   6.959  0.0783 -0.7324  0.5694
 5590TIP3    H138329   2.039   2.091   6.948 -1.8854 -3.7331 -2.3019
 5590TIP3    H238330   2.094   1.978   7.032  1.2367  0.6581  2.1181
 5591TIP3   OH238331   6.534   3.149   1.543  0.0459 -0.1918  0.0222
 5591TIP3    H138332   6.551   3.216   1.476 -0.6197  0.5351  0.5531
 5591TIP3    H238333   6.609   3.155   1.602 -1.2595  2.1434  1.6673
 5592TIP3   OH238334   0.897   3.688   7.898  0.0658 -0.2985  0.7152
 5592TIP3    H138335   0.972   3.677   7.840 -1.5883 -2.7472 -1.1362
 5592TIP3    H238336   0.838   3.746   7.851  0.2476  0.6312  1.6125
 5593TIP3   OH238337   1.407   0.131   0.863 -0.6456 -0.1638  0.3792
 5593TIP3    H138338   1.337   0.184   0.826 -0.7538 -0.7666 -0.2969
 5593TIP3    H238339   1.476   0.133   0.797 -0.5461 -0.6470  0.4634
 5594TIP3   OH238340   3.010   5.684   2.862  0.2860  0.4831  0.2377
 5594TIP3    H138341   2.950   5.624   2.816  0.0324  1.1970 -0.3745
 5594TIP3    H238342   3.088   5.687   2.807  0.6633  0.0178  0.7340
 5595TIP3   OH238343   5.399   6.249   8.595  0.0436  0.4718  0.7980
 5595TIP3    H138344   5.333   6.181   8.608  2.1453 -2.5080 -2.4958
 5595TIP3    H238345   5.349   6.327   8.572 -2.3773 -1.0633  0.5254
 5596TIP3   OH238346   4.099   5.195   1.408  0.6538 -0.1323 -0.3847
 5596TIP3    H138347   4.019   5.150   1.382 -0.3106 -0.6825  3.0034
 5596TIP3    H238348   4.158   5.126   1.438  0.6454  0.5340  1.2686
 5597TIP3   OH238349   2.966   1.238   2.562  0.0980 -0.7095  1.0438
 5597TIP3    H138350   3.021   1.226   2.639  0.8591  0.9212  0.8055
 5597TIP3    H238351   2.887   1.281   2.594  0.8205  0.8529  0.8369
 5598TIP3   OH238352   2.531   0.391   8.633  0.2783  0.2736  0.1499
 5598TIP3    H138353   2.503   0.389   8.724 -1.7016  0.7707 -0.4103
 5598TIP3    H238354   2.568   0.479   8.621 -0.5781  0.6390  0.1635
 5599TIP3   OH238355   4.273   4.733   0.059  0.1202 -0.2251 -0.5250
 5599TIP3    H138356   4.233   4.695  -0.020  0.5939 -0.1721 -0.7973
 5599TIP3    H238357   4.299   4.657   0.111  1.6105 -0.3202 -1.3434
 5600TIP3   OH238358   1.751   0.032   0.249 -0.0135 -0.0521  0.6573
 5600TIP3    H138359   1.724   0.006   0.337  1.3256 -0.7189  0.8978
 5600TIP3    H238360   1.766   0.127   0.257 -3.4149  0.6526  0.1636
 5601TIP3   OH238361   4.796   1.772   0.503  0.7970  0.0528  0.3501
 5601TIP3    H138362   4.754   1.688   0.483 -2.0598  1.3817  0.2266
 5601TIP3    H238363   4.819   1.808   0.418  1.1369 -0.1735  0.3442
 5602TIP3   OH238364   6.349   2.832   7.952 -0.0054 -0.0067  0.5117
 5602TIP3    H138365   6.287   2.763   7.972 -0.7672 -0.1430 -1.9776
 5602TIP3    H238366   6.295   2.905   7.922  0.9141 -0.4961 -2.8018
 5603TIP3   OH238367   1.022   5.430   8.754 -0.2324 -0.0508 -0.2426
 5603TIP3    H138368   0.961   5.364   8.788  0.7615 -1.0424 -0.3423
 5603TIP3    H238369   1.018   5.419   8.659 -0.9110  0.8182 -0.3252
 5604TIP3   OH238370   4.915   6.235   1.404  0.0629  0.8971 -0.4976
 5604TIP3    H138371   4.979   6.164   1.410 -2.0875 -1.2279 -0.8808
 5604TIP3    H238372   4.915   6.275   1.492  2.4431  1.5464 -0.7368
 5605TIP3   OH238373   3.699   2.007   0.744  0.0593 -0.5154 -0.2671
 5605TIP3    H138374   3.622   1.978   0.792  0.2722 -2.0335 -0.7890
 5605TIP3    H238375   3.767   1.943   0.766  0.7538 -0.0235 -0.9324
 5606TIP3   OH238376   6.036   1.563   0.432  0.3980  0.5617 -0.2557
 5606TIP3    H138377   6.117   1.513   0.421 -0.0951 -0.1048 -0.9827
 5606TIP3    H238378   5.991   1.519   0.505  0.9105  1.2550  0.5007
 5607TIP3   OH238379   4.892   4.825   7.697  0.0224 -0.0896  0.3398
 5607TIP3    H138380   4.898   4.808   7.603 -0.7167 -0.6924  0.3858
 5607TIP3    H238381   4.917   4.743   7.738  1.7350  0.5889  0.7237
 5608TIP3   OH238382   1.510   0.635   8.260 -0.0888  0.2539 -0.5182
 5608TIP3    H138383   1.464   0.690   8.324  0.7167  2.1803 -1.4847
 5608TIP3    H238384   1.572   0.695   8.218 -0.1251 -1.0818 -2.6399
 5609TIP3   OH238385   4.900   5.170   0.727 -1.0219  0.0086 -0.1334
 5609TIP3    H138386   4.932   5.193   0.815 -0.3219 -0.0734 -0.3577
 5609TIP3    H238387   4.811   5.204   0.724 -0.4812  1.5071  0.0190
 5610TIP3   OH238388   5.217   6.482   8.628  0.1954 -0.3568 -0.5576
 5610TIP3    H138389   5.216   6.459   8.536  0.6154 -1.6759 -0.2580
 5610TIP3    H238390   5.258   6.568   8.631 -2.6440  1.1695 -1.8523
 5611TIP3   OH238391   2.438   2.541   0.721  0.1862 -0.8310 -0.0277
 5611TIP3    H138392   2.495   2.607   0.760 -0.7257  0.0316 -0.1312
 5611TIP3    H238393   2.350   2.573   0.736 -0.2412 -1.3824 -1.2189
 5612TIP3   OH238394   4.138   1.736   7.029  0.0994  0.6128  0.3992
 5612TIP3    H138395   4.172   1.774   6.949 -0.2494 -0.3274 -0.2187
 5612TIP3    H238396   4.080   1.803   7.066 -0.3823  0.7424 -0.5725
 5613TIP3   OH238397   1.346   2.649   0.352 -0.2238  0.2967 -0.2581
 5613TIP3    H138398   1.426   2.696   0.327  0.0764  0.4434  0.9553
 5613TIP3    H238399   1.291   2.715   0.393 -0.2800 -0.1602  0.4079
 5614TIP3   OH238400   3.451   5.026   1.289 -0.5326  0.2148  0.3443
 5614TIP3    H138401   3.537   5.029   1.247 -1.2412  2.1111 -1.1346
 5614TIP3    H238402   3.451   5.101   1.349 -0.1016 -1.5728  2.7197
 5615TIP3   OH238403   4.744   3.475   1.849  0.2021 -0.0811  0.1439
 5615TIP3    H138404   4.768   3.413   1.918  0.2415  0.5589  0.7124
 5615TIP3    H238405   4.672   3.526   1.886 -0.1177 -0.0671 -0.4806
 5616TIP3   OH238406   1.436   5.597   1.707 -0.0926 -0.3448 -0.0488
 5616TIP3    H138407   1.405   5.668   1.764 -0.1997  0.1278 -0.6877
 5616TIP3    H238408   1.358   5.542   1.693  0.4716 -1.9030  2.2766
 5617TIP3   OH238409   6.785   0.867   0.992  0.2529  0.1689 -0.3592
 5617TIP3    H138410   6.768   0.877   0.898 -0.6001 -1.9358 -0.4772
 5617TIP3    H238411   6.702   0.887   1.034  0.4601  0.4740 -0.0894
 5618TIP3   OH238412   3.216   1.416   0.217  0.2441 -0.2753 -0.1254
 5618TIP3    H138413   3.298   1.439   0.260 -0.2420  0.3837  0.4824
 5618TIP3    H238414   3.242   1.378   0.133  1.1857  4.6302 -2.4258
 5619TIP3   OH238415   3.664   2.275   8.473 -0.3185  0.0286 -0.0427
 5619TIP3    H138416   3.576   2.240   8.485  0.5642 -2.0555  0.8510
 5619TIP3    H238417   3.722   2.207   8.507  1.7095  0.7832 -1.7347
 5620TIP3   OH238418   1.711   2.456   0.767 -0.0670 -0.4927  0.1700
 5620TIP3    H138419   1.770   2.522   0.732  0.2657 -1.5183 -1.2536
 5620TIP3    H238420   1.711   2.472   0.862 -0.7508  2.1328 -0.1932
 5621TIP3   OH238421   1.533   3.138   0.569 -0.5332  0.2540 -0.3261
 5621TIP3    H138422   1.530   3.100   0.656  1.8350  0.1877 -0.1989
 5621TIP3    H238423   1.541   3.232   0.584  1.4905  0.1374 -0.3457
 5622TIP3   OH238424   0.564   6.179   1.347 -0.3430  0.3397 -0.0591
 5622TIP3    H138425   0.647   6.225   1.355 -0.1931  0.0398  0.1401
 5622TIP3    H238426   0.583   6.106   1.288 -0.0059 -0.7603  1.3545
 5623TIP3   OH238427   5.615   3.924   0.167 -0.7471  0.1503  0.3393
 5623TIP3    H138428   5.675   3.940   0.240 -0.6764 -1.1346  0.5886
 5623TIP3    H238429   5.543   3.986   0.182  0.3864  1.5943  0.1309
 5624TIP3   OH238430   4.661   1.970   1.289  0.2864 -0.5191 -0.2030
 5624TIP3    H138431   4.691   2.007   1.373 -1.0900 -1.3156  0.6807
 5624TIP3    H238432   4.735   1.916   1.260 -0.0875 -2.2858  1.8200
 5625TIP3   OH238433   2.888   6.760   0.839  0.2146 -0.0418  0.3174
 5625TIP3    H138434   2.810   6.705   0.844  1.1374 -1.4409 -0.2994
 5625TIP3    H238435   2.901   6.777   0.746  0.8704 -0.1427  0.3841
 5626TIP3   OH238436   4.355   4.234   0.409 -0.0484  0.3764  0.1701
 5626TIP3    H138437   4.306   4.272   0.481 -1.6502 -1.9114  0.3971
 5626TIP3    H238438   4.330   4.287   0.333 -2.1144 -0.0790  0.4709
 5627TIP3   OH238439   0.127   1.582   1.386  0.3027  0.1559  0.6812
 5627TIP3    H138440   0.139   1.640   1.310 -2.0510  0.3269  0.3842
 5627TIP3    H238441   0.096   1.500   1.349  0.8062 -0.3458  1.3507
 5628TIP3   OH238442   0.887   2.723   0.137 -0.2054 -0.0474  0.0213
 5628TIP3    H138443   0.873   2.733   0.043 -1.6387  1.7739  0.3555
 5628TIP3    H238444   0.950   2.792   0.159 -0.8971  0.4176  0.5864
 5629TIP3   OH238445   3.657   4.634   1.551 -0.2474  0.4808 -0.1206
 5629TIP3    H138446   3.661   4.588   1.635 -1.5217  0.2565 -0.1624
 5629TIP3    H238447   3.719   4.588   1.495 -0.0102  0.1056  0.4453
 5630TIP3   OH238448   4.714   0.382   1.111  0.0144 -0.9023  0.2593
 5630TIP3    H138449   4.736   0.425   1.193 -0.0606 -2.9651  1.4238
 5630TIP3    H238450   4.773   0.422   1.047  1.6997 -0.8306  1.7726
 5631TIP3   OH238451   5.859   5.113   0.229 -0.4718 -0.3600 -0.2430
 5631TIP3    H138452   5.793   5.182   0.239 -0.5145 -0.7086  2.3706
 5631TIP3    H238453   5.822   5.037   0.274  1.3124 -0.8400  0.4917
 5632TIP3   OH238454   1.802   3.433   1.720  0.2620 -0.2657 -0.5354
 5632TIP3    H138455   1.858   3.469   1.788 -0.6990  0.0571  0.1190
 5632TIP3    H238456   1.716   3.423   1.762 -0.6786  1.0627 -2.0050
 5633TIP3   OH238457   0.840   0.387   0.665  0.1986 -0.0067  0.0934
 5633TIP3    H138458   0.884   0.469   0.645  0.2955 -0.0340  0.1909
 5633TIP3    H238459   0.842   0.337   0.584 -2.2511  1.1578 -0.7810
 5634TIP3   OH238460   5.516   5.111   2.260 -0.0234  0.2244  0.1117
 5634TIP3    H138461   5.577   5.175   2.223  0.8213  0.3148  1.5950
 5634TIP3    H238462   5.505   5.046   2.191 -0.2471  1.5100 -1.1278
 5635TIP3   OH238463   5.900   6.521   2.048 -0.7593 -0.0288  0.4427
 5635TIP3    H138464   5.982   6.505   2.002 -0.7278  0.2553  0.3982
 5635TIP3    H238465   5.851   6.439   2.039 -0.8470  0.0979 -0.2860
 5636TIP3   OH238466   5.273   4.835   7.084  1.1368 -0.7161  0.1226
 5636TIP3    H138467   5.188   4.866   7.113  0.5706 -1.8394 -0.2830
 5636TIP3    H238468   5.314   4.910   7.042 -0.1432 -0.4888 -0.7460
 5637TIP3   OH238469   5.849   2.330   7.802  0.1804 -0.7534  0.7952
 5637TIP3    H138470   5.756   2.342   7.780  0.1856 -0.2955  1.0128
 5637TIP3    H238471   5.849   2.262   7.869 -0.0395 -0.4172  1.1405
 5638TIP3   OH238472   2.444   6.299   7.351 -0.2228  0.2179 -0.2253
 5638TIP3    H138473   2.445   6.369   7.287  2.7938  1.4137  0.9496
 5638TIP3    H238474   2.417   6.341   7.433  0.0021 -0.3672  0.1586
 5639TIP3   OH238475   1.617   0.178   8.335  0.3148 -0.4392  0.7940
 5639TIP3    H138476   1.608   0.245   8.267  0.5835 -0.0313  1.1498
 5639TIP3    H238477   1.546   0.117   8.318  1.4236 -1.3299 -0.9362
 5640TIP3   OH238478   2.876   4.557   7.790 -0.1242 -0.0502 -0.3231
 5640TIP3    H138479   2.946   4.506   7.831 -1.0483 -1.1481 -0.0497
 5640TIP3    H238480   2.859   4.629   7.852 -0.1054 -0.5145  0.2298
 5641TIP3   OH238481   5.504   0.625   1.769 -0.5239  0.8852 -0.4003
 5641TIP3    H138482   5.521   0.639   1.862 -2.4157 -3.1685  0.8097
 5641TIP3    H238483   5.578   0.572   1.738 -0.9606  0.3464 -0.5546
 5642TIP3   OH238484   6.042   2.051   7.065  0.0593 -0.2425  0.1177
 5642TIP3    H138485   6.005   1.963   7.065  0.2881 -0.3391  0.2119
 5642TIP3    H238486   6.055   2.072   6.972 -2.2545  0.6534 -0.0686
 5643TIP3   OH238487   6.174   5.129   8.085 -0.1828  0.2958  0.4877
 5643TIP3    H138488   6.264   5.097   8.076  0.5824  1.9355  1.6729
 5643TIP3    H238489   6.137   5.125   7.997  0.4456 -2.0538  0.2797
 5644TIP3   OH238490   3.299   1.774   7.460 -0.6101 -0.2592 -0.3726
 5644TIP3    H138491   3.367   1.722   7.502 -0.8679 -0.5143 -0.2678
 5644TIP3    H238492   3.235   1.710   7.428  0.2549 -0.2060 -2.4163
 5645TIP3   OH238493   6.002   5.423   2.035  0.0248 -0.1337 -0.5600
 5645TIP3    H138494   5.984   5.352   1.973  1.7463 -0.6333 -0.5324
 5645TIP3    H238495   6.054   5.382   2.104  2.1340  1.3911 -1.1659
 5646TIP3   OH238496   6.014   3.107   2.106  0.6252 -0.1110 -0.0893
 5646TIP3    H138497   5.960   3.146   2.175  1.4850  1.2263 -0.1430
 5646TIP3    H238498   5.951   3.066   2.047 -0.1862 -0.4671  0.9763
 5647TIP3   OH238499   4.020   0.215   1.289 -0.1055 -0.0343 -0.5875
 5647TIP3    H138500   3.970   0.136   1.268 -0.3385  0.2477 -1.0883
 5647TIP3    H238501   4.073   0.232   1.212 -0.6899  0.7900 -0.8233
 5648TIP3   OH238502   2.095   3.317   7.343 -0.2320  0.1132 -0.3101
 5648TIP3    H138503   2.142   3.243   7.381  2.1742  1.6717 -0.0551
 5648TIP3    H238504   2.002   3.294   7.353  0.2976 -1.1114  3.4602
 5649TIP3   OH238505   6.688   1.907   2.302 -0.3926  0.3122  0.7497
 5649TIP3    H138506   6.672   1.975   2.236  2.9696  0.5375 -0.0179
 5649TIP3    H238507   6.761   1.941   2.354  0.6332 -2.2047  1.0827
 5650TIP3   OH238508   1.362   4.448   8.711  0.1024  0.2617  0.3251
 5650TIP3    H138509   1.337   4.406   8.794 -0.2645  2.0381  1.1638
 5650TIP3    H238510   1.457   4.443   8.709  0.0409 -3.2948 -1.1198
 5651TIP3   OH238511   2.604   2.371   0.497 -0.1610  0.3905 -0.2365
 5651TIP3    H138512   2.583   2.397   0.587  1.1356 -2.8670  1.1920
 5651TIP3    H238513   2.694   2.402   0.484  0.0886 -0.1703  0.0940
 5652TIP3   OH238514   2.198   3.352   8.063 -0.1548  0.0176 -0.0581
 5652TIP3    H138515   2.281   3.346   8.016 -0.2205  0.6763 -0.2647
 5652TIP3    H238516   2.165   3.262   8.066  1.0690 -0.4275  0.9468
 5653TIP3   OH238517   6.537   6.396   0.158 -0.0652 -0.0764 -0.3957
 5653TIP3    H138518   6.442   6.393   0.166 -0.0729  0.4755 -0.2157
 5653TIP3    H238519   6.564   6.305   0.150 -0.7257 -0.1598 -1.9328
 5654TIP3   OH238520   3.844   5.814   8.722  0.4601  0.3264  0.2216
 5654TIP3    H138521   3.917   5.842   8.776  1.9012  1.9129 -2.3607
 5654TIP3    H238522   3.884   5.771   8.647 -1.3808 -0.7144 -0.2344
 5655TIP3   OH238523   3.960   5.753   6.869 -0.0475  0.2477 -0.1084
 5655TIP3    H138524   4.004   5.830   6.904  0.9985 -1.1561  1.9087
 5655TIP3    H238525   4.026   5.709   6.815 -0.7422  0.8802 -1.5315
 5656TIP3   OH238526   5.546   6.495   7.971  0.9701  0.2322  0.7756
 5656TIP3    H138527   5.474   6.461   7.916  1.3235 -0.9807  1.0242
 5656TIP3    H238528   5.582   6.417   8.013  1.9016  0.9314  1.3038
 5657TIP3   OH238529   3.339   4.632   2.169  0.2683  0.1301 -0.3280
 5657TIP3    H138530   3.341   4.726   2.152 -0.9997  0.2090 -0.1587
 5657TIP3    H238531   3.249   4.606   2.148  0.5214 -0.9841 -0.0854
 5658TIP3   OH238532   6.543   5.973   8.833  0.7720 -0.1609 -0.0237
 5658TIP3    H138533   6.556   5.905   8.899 -0.9761 -0.7965 -0.2787
 5658TIP3    H238534   6.629   5.982   8.791  1.0286 -2.3212 -0.0800
 5659TIP3   OH238535   0.891   2.243   8.069 -0.1611 -0.2120  0.4808
 5659TIP3    H138536   0.815   2.301   8.071  0.1467  0.2473 -0.5271
 5659TIP3    H238537   0.966   2.301   8.082 -0.0307 -0.8823  3.4240
 5660TIP3   OH238538   6.136   0.528   1.797 -0.7482 -0.3849 -0.3907
 5660TIP3    H138539   6.189   0.454   1.768  0.2843  0.1498  0.0566
 5660TIP3    H238540   6.072   0.541   1.728 -0.1861 -0.9525 -1.0312
 5661TIP3   OH238541   5.890   6.754   1.445  0.6112  0.3626 -0.5131
 5661TIP3    H138542   5.932   6.815   1.384  0.5195  1.0222  0.0864
 5661TIP3    H238543   5.927   6.668   1.421  3.0131  1.0063  0.5454
 5662TIP3   OH238544   4.986   6.280   2.476 -0.4757 -0.1918  0.0383
 5662TIP3    H138545   4.975   6.266   2.570 -2.6523 -2.6500 -0.4463
 5662TIP3    H238546   4.906   6.326   2.450  0.4004  1.0450 -0.5596
 5663TIP3   OH238547   5.339   4.140   8.166  0.4157 -0.0797  0.2881
 5663TIP3    H138548   5.328   4.045   8.162  0.2497 -0.0313 -0.6321
 5663TIP3    H238549   5.255   4.172   8.198  0.7112 -0.2890  1.2872
 5664TIP3   OH238550   4.009   3.505   1.635  0.5641  0.0010  0.1856
 5664TIP3    H138551   3.916   3.517   1.649  0.7440 -0.5650  2.4352
 5664TIP3    H238552   4.018   3.486   1.542 -1.6736 -0.8729  0.0918
 5665TIP3   OH238553   4.458   5.571   0.831 -0.2730  0.1296  0.1972
 5665TIP3    H138554   4.433   5.554   0.922  0.3163  0.9398  0.5202
 5665TIP3    H238555   4.470   5.666   0.827 -0.9846  0.1894 -0.9127
 5666TIP3   OH238556   5.895   0.404   0.062  0.2425  0.5996  0.1423
 5666TIP3    H138557   5.856   0.321   0.092 -1.0846  1.2095  0.1876
 5666TIP3    H238558   5.940   0.438   0.139 -2.0103  1.4952  1.1677
 5667TIP3   OH238559   5.377   5.425   1.884 -0.3057  0.5279  0.1688
 5667TIP3    H138560   5.359   5.340   1.922 -0.7307  0.1083 -0.9130
 5667TIP3    H238561   5.357   5.488   1.953  1.0123 -0.2783  1.3192
 5668TIP3   OH238562   2.504   2.929   1.832 -0.1010 -0.5473 -0.3254
 5668TIP3    H138563   2.590   2.950   1.868 -0.2811 -0.4637  0.0637
 5668TIP3    H238564   2.516   2.935   1.737  0.6754 -1.9056 -0.3497
 5669TIP3   OH238565   0.704   6.714   1.723  0.1948  0.2622  0.4406
 5669TIP3    H138566   0.616   6.679   1.738 -0.3882  1.0678 -0.8953
 5669TIP3    H238567   0.700   6.750   1.634  2.7031 -2.1609 -0.7636
 5670TIP3   OH238568   3.519   0.514   1.610 -0.2997  0.3245  0.3224
 5670TIP3    H138569   3.542   0.577   1.543 -0.1666  0.6394  0.6619
 5670TIP3    H238570   3.599   0.462   1.622 -0.4916 -0.0824 -0.1445
 5671TIP3   OH238571   0.845   4.514   1.532  0.0130  0.2188  0.3059
 5671TIP3    H138572   0.861   4.470   1.615  3.9732  0.1911 -0.2650
 5671TIP3    H238573   0.820   4.444   1.472 -3.5951  0.3366  1.4839
 5672TIP3   OH238574   5.989   4.169   1.863 -0.1848 -0.2334  0.5131
 5672TIP3    H138575   6.057   4.184   1.929 -1.1514  0.2871  1.4158
 5672TIP3    H238576   5.991   4.075   1.846  0.7250 -0.2280  0.5536
 5673TIP3   OH238577   5.767   5.756   2.762 -0.3133 -0.4515  0.0036
 5673TIP3    H138578   5.816   5.695   2.706 -0.3703 -0.8102  0.3435
 5673TIP3    H238579   5.809   5.748   2.848 -1.0992 -0.9097  0.3489
 5674TIP3   OH238580   5.405   2.945   8.135 -0.1383 -0.0338 -0.9810
 5674TIP3    H138581   5.487   2.952   8.086  0.3282 -2.6838 -0.7270
 5674TIP3    H238582   5.375   2.856   8.119 -1.9582  0.2426  0.5266
 5675TIP3   OH238583   6.644   3.859   2.797  0.3632 -0.0065 -0.0636
 5675TIP3    H138584   6.713   3.921   2.821 -0.0381  0.8913 -1.1114
 5675TIP3    H238585   6.564   3.912   2.799 -0.3116 -1.0383  1.1609
 5676TIP3   OH238586   2.756   1.399   2.721 -0.1575  0.0645  0.0007
 5676TIP3    H138587   2.837   1.445   2.741  0.5004 -0.6809 -0.8235
 5676TIP3    H238588   2.693   1.468   2.699  0.4411  0.6273  0.0243
 5677TIP3   OH238589   3.212   0.487   7.689  0.1762 -0.0253  0.2780
 5677TIP3    H138590   3.192   0.495   7.782  2.0462  4.1829  0.5433
 5677TIP3    H238591   3.163   0.558   7.648  1.0186 -0.4994 -1.6486
 5678TIP3   OH238592   1.747   1.831   7.656 -0.2494 -0.3397  0.3981
 5678TIP3    H138593   1.810   1.777   7.704  0.1027 -0.2597  0.0335
 5678TIP3    H238594   1.730   1.782   7.575  1.0703  0.6797 -0.5449
 5679TIP3   OH238595   6.199   6.330   0.546  0.6605  0.3029  0.0759
 5679TIP3    H138596   6.112   6.342   0.586  0.0750  0.1453 -1.0948
 5679TIP3    H238597   6.209   6.235   0.542  1.5837  0.3010  1.6017
 5680TIP3   OH238598   3.293   0.354   2.024 -0.5265  1.0582  0.0247
 5680TIP3    H138599   3.215   0.300   2.034 -0.4947  0.8876 -0.6263
 5680TIP3    H238600   3.307   0.392   2.111  0.4959 -1.3853  1.0137
 5681TIP3   OH238601   6.677   5.284   0.821 -0.4744 -0.3850 -0.8301
 5681TIP3    H138602   6.670   5.206   0.876  0.3802  0.7027  0.9162
 5681TIP3    H238603   6.755   5.269   0.767  0.1077 -0.4758  0.0100
 5682TIP3   OH238604   3.786   5.606   1.788 -0.0227  0.4043 -0.1641
 5682TIP3    H138605   3.826   5.527   1.752  1.3618  0.9859 -0.0065
 5682TIP3    H238606   3.851   5.637   1.852 -0.2743  1.9659 -0.6355
 5683TIP3   OH238607   2.707   0.904   6.792  0.0722  0.3352  0.8613
 5683TIP3    H138608   2.753   0.896   6.876 -0.4786 -0.1150  1.1261
 5683TIP3    H238609   2.775   0.933   6.731  0.8270 -0.7289  1.1563
 5684TIP3   OH238610   6.017   2.057   7.802 -0.1042 -0.5790  0.4301
 5684TIP3    H138611   5.928   2.043   7.835  0.3370 -2.5175  0.9347
 5684TIP3    H238612   6.009   2.045   7.707 -0.9137  2.4846  0.0189
 5685TIP3   OH238613   5.173   3.831   2.598 -0.0643  0.0547 -0.7032
 5685TIP3    H138614   5.169   3.737   2.579 -2.7606  0.0491 -0.4178
 5685TIP3    H238615   5.164   3.873   2.513  0.8991  0.0799 -0.8029
 5686TIP3   OH238616   3.078   4.363   7.108 -0.0344 -0.2194  0.3015
 5686TIP3    H138617   3.120   4.302   7.047 -0.4512  0.8770 -1.1496
 5686TIP3    H238618   3.138   4.437   7.115 -0.7615  0.4411 -0.1800
 5687TIP3   OH238619   6.636   5.114   2.801  0.1642  0.2799 -0.3450
 5687TIP3    H138620   6.695   5.139   2.872 -0.8038 -0.6375  0.8490
 5687TIP3    H238621   6.567   5.063   2.845 -0.0981 -0.9162 -2.0534
 5688TIP3   OH238622   2.966   3.602   0.800  0.3155 -0.4536 -0.7846
 5688TIP3    H138623   2.903   3.599   0.872  0.4729 -0.5154 -0.6476
 5688TIP3    H238624   3.051   3.586   0.842  0.2849 -1.6174 -1.1406
 5689TIP3   OH238625   6.201   5.611   0.466 -0.5956 -0.2908  0.1257
 5689TIP3    H138626   6.112   5.576   0.474 -0.4508 -1.5254 -2.5750
 5689TIP3    H238627   6.190   5.698   0.428 -0.6756 -0.2722  0.1931
 5690TIP3   OH238628   6.178   2.685   8.070 -0.0217  0.2509  0.3435
 5690TIP3    H138629   6.206   2.619   8.133 -1.8095 -0.1650  0.7716
 5690TIP3    H238630   6.083   2.674   8.065 -0.1640  1.7073 -0.8222
 5691TIP3   OH238631   0.317   2.585   0.734 -0.5138  0.1862  0.2177
 5691TIP3    H138632   0.233   2.546   0.760  0.3493 -2.5585 -0.7581
 5691TIP3    H238633   0.308   2.599   0.640  0.8808 -2.5149 -0.4095
 5692TIP3   OH238634   2.972   0.830   2.080 -0.0930 -0.1196  0.1296
 5692TIP3    H138635   3.040   0.763   2.083 -0.3211 -0.3483  2.3216
 5692TIP3    H238636   2.892   0.782   2.057 -0.0352 -0.3996  0.4994
 5693TIP3   OH238637   5.635   0.091   8.492  0.0357  0.6062 -0.4162
 5693TIP3    H138638   5.594   0.045   8.565  0.0256  0.5283 -0.4711
 5693TIP3    H238639   5.617   0.036   8.416  1.2087 -0.0113 -0.2650
 5694TIP3   OH238640   0.079   6.127   1.104 -0.1676 -0.3103 -0.1253
 5694TIP3    H138641   0.165   6.102   1.139  0.8228  0.3307 -1.9756
 5694TIP3    H238642   0.088   6.219   1.082 -1.4787 -0.1397 -0.0002
 5695TIP3   OH238643   2.921   3.849   8.154  0.7331 -0.0621 -0.1915
 5695TIP3    H138644   2.826   3.841   8.160  0.7483 -0.5301 -0.5620
 5695TIP3    H238645   2.936   3.944   8.152  0.2410  0.0135 -0.6091
 5696TIP3   OH238646   0.717   3.759   1.502  0.3645 -0.0632 -0.2535
 5696TIP3    H138647   0.794   3.728   1.550  0.9700  1.9169  0.1545
 5696TIP3    H238648   0.643   3.723   1.551  0.9881 -1.9860 -0.6469
 5697TIP3   OH238649   2.890   4.249   2.446 -0.1388 -0.0592  0.3785
 5697TIP3    H138650   2.839   4.330   2.448 -1.6305 -0.9442 -0.2513
 5697TIP3    H238651   2.906   4.227   2.538  2.4564  2.1984  0.6059
 5698TIP3   OH238652   6.064   5.188   0.778 -0.2602 -0.8590 -0.8154
 5698TIP3    H138653   5.984   5.209   0.730 -1.2454  0.8894  1.4249
 5698TIP3    H238654   6.034   5.153   0.861  1.3824 -2.5889 -0.8753
 5699TIP3   OH238655   3.502   0.660   1.381 -0.1502  0.1324 -0.1130
 5699TIP3    H138656   3.525   0.605   1.306 -0.4092 -0.9030  0.5400
 5699TIP3    H238657   3.411   0.685   1.366 -0.2918 -0.3140 -0.0070
 5700TIP3   OH238658   0.410   5.533   2.698  0.0189 -0.5447  0.3968
 5700TIP3    H138659   0.446   5.446   2.715  2.9684  0.4730 -0.1590
 5700TIP3    H238660   0.473   5.575   2.640 -2.7732  0.9891 -1.8186
 5701TIP3   OH238661   3.987   1.947   0.783 -0.5080 -0.8591 -0.0215
 5701TIP3    H138662   4.043   1.875   0.757 -1.4152 -2.4193  2.0124
 5701TIP3    H238663   3.984   2.005   0.707 -0.0061 -3.1221 -1.8570
 5702TIP3   OH238664   0.122   1.299   1.444 -0.4794 -0.1963 -0.4713
 5702TIP3    H138665   0.027   1.287   1.453 -0.8412  1.1554 -1.9246
 5702TIP3    H238666   0.142   1.262   1.358 -0.1729  1.6650 -1.2638
 5703TIP3   OH238667   4.568   1.902   7.982  0.6775 -0.5288 -0.1903
 5703TIP3    H138668   4.487   1.869   8.023 -0.5651  0.6907 -1.5628
 5703TIP3    H238669   4.575   1.992   8.013  2.4033 -1.0567  1.1305
 5704TIP3   OH238670   6.710   4.653   7.763  0.0090 -0.1259  0.1318
 5704TIP3    H138671   6.761   4.625   7.687  0.3257  0.8796 -0.0309
 5704TIP3    H238672   6.620   4.629   7.741  0.4286 -2.6614  0.7589
 5705TIP3   OH238673   4.578   3.541   0.658 -0.1830 -0.3430  0.1343
 5705TIP3    H138674   4.658   3.531   0.606 -0.6081  0.8099 -0.7817
 5705TIP3    H238675   4.607   3.531   0.749  1.0344  0.2171 -0.1684
 5706TIP3   OH238676   5.302   3.925   1.948  0.8068  0.2520  0.3852
 5706TIP3    H138677   5.213   3.912   1.916 -0.4627  1.0607  3.2233
 5706TIP3    H238678   5.355   3.935   1.870 -1.8241  1.2488 -1.4037
 5707TIP3   OH238679   2.162   1.553   0.010 -0.6288  0.2284  0.3913
 5707TIP3    H138680   2.152   1.611   0.086  1.0435 -1.2561  1.8630
 5707TIP3    H238681   2.252   1.521   0.017 -0.3133  0.3011 -2.4670
 5708TIP3   OH238682   3.775   4.112   7.786 -0.4821  0.0359 -0.1469
 5708TIP3    H138683   3.739   4.024   7.790  1.1334 -0.6690 -0.6714
 5708TIP3    H238684   3.854   4.109   7.839  1.3272  0.2536 -2.6312
 5709TIP3   OH238685   2.610   3.421   7.599  0.4911 -0.4728 -0.5118
 5709TIP3    H138686   2.703   3.428   7.577  0.4085 -0.1538 -0.7678
 5709TIP3    H238687   2.602   3.469   7.682  0.8029 -1.6807  0.2433
 5710TIP3   OH238688   4.559   5.275   2.146  0.5277  0.5418  0.3650
 5710TIP3    H138689   4.506   5.283   2.067  1.0597 -2.8053 -0.4993
 5710TIP3    H238690   4.499   5.236   2.210  1.1892 -0.9688  0.1289
 5711TIP3   OH238691   5.822   3.175   7.256 -0.2321 -0.2761 -0.4015
 5711TIP3    H138692   5.806   3.131   7.172 -0.7817 -0.4937 -0.1900
 5711TIP3    H238693   5.750   3.237   7.264 -0.5047 -0.6583  0.1718
 5712TIP3   OH238694   0.230   3.533   2.511  0.5137  0.3631  0.3765
 5712TIP3    H138695   0.158   3.578   2.555  1.8644  1.5540  1.4789
 5712TIP3    H238696   0.231   3.569   2.423 -0.4076  0.1018  0.2449
 5713TIP3   OH238697   1.384   3.959   0.827  0.2025 -0.5882 -0.3934
 5713TIP3    H138698   1.301   3.932   0.866  0.3445 -0.8182 -0.2470
 5713TIP3    H238699   1.384   4.054   0.834  0.6205 -0.6607  1.0083
 5714TIP3   OH238700   5.435   6.309   1.874  0.4966 -0.8055 -0.1845
 5714TIP3    H138701   5.417   6.402   1.859 -0.0364 -1.0733 -1.2585
 5714TIP3    H238702   5.364   6.280   1.932  0.9160 -0.4512  0.5230
 5715TIP3   OH238703   5.975   2.436   6.898  0.3324 -0.5973 -0.1082
 5715TIP3    H138704   5.955   2.396   6.814  0.0530 -2.5486  0.8409
 5715TIP3    H238705   5.904   2.408   6.956  0.5232  0.7078  0.7931
 5716TIP3   OH238706   4.183   2.140   0.282 -0.0786  0.2469  0.4183
 5716TIP3    H138707   4.208   2.219   0.234 -1.2807  1.1080  1.1541
 5716TIP3    H238708   4.266   2.096   0.300  0.7240  1.8307  0.8215
 5717TIP3   OH238709   2.127   6.769   2.058  0.0735  1.0507 -0.2341
 5717TIP3    H138710   2.077   6.840   2.098  0.8946  0.8990  1.1405
 5717TIP3    H238711   2.219   6.796   2.066  0.4936 -0.6270  1.3657
 5718TIP3   OH238712   6.628   6.345   0.955  0.3612  0.0864  0.4843
 5718TIP3    H138713   6.606   6.281   1.023 -1.4833 -0.1667 -0.2783
 5718TIP3    H238714   6.637   6.293   0.875 -2.2200  0.7817 -0.3638
 5719TIP3   OH238715   6.251   6.224   1.342 -0.2569  0.0277  0.4356
 5719TIP3    H138716   6.260   6.160   1.272 -1.4355 -0.6780  0.8999
 5719TIP3    H238717   6.279   6.178   1.421 -0.6694  0.2220  0.7018
 5720TIP3   OH238718   0.897   1.549   0.512 -0.0282  0.2533 -0.0131
 5720TIP3    H138719   0.818   1.518   0.466 -0.4780  2.4759 -0.8637
 5720TIP3    H238720   0.863   1.599   0.586  0.6034  0.6374  0.0196
 5721TIP3   OH238721   4.427   6.398   2.175 -0.2728  0.1087 -0.1037
 5721TIP3    H138722   4.397   6.487   2.156  0.6787  0.3869 -0.3614
 5721TIP3    H238723   4.375   6.371   2.250 -1.8078  0.2195 -1.0848
 5722TIP3   OH238724   2.787   5.029   1.271 -0.0293 -0.5599  0.2594
 5722TIP3    H138725   2.709   5.022   1.327 -0.3332  2.3304  0.3915
 5722TIP3    H238726   2.752   5.045   1.184  0.3878 -0.0668  0.1752
 5723TIP3   OH238727   5.914   0.703   2.070 -0.3246 -0.0669  0.1970
 5723TIP3    H138728   6.002   0.738   2.084 -0.3421 -0.3942  1.2138
 5723TIP3    H238729   5.919   0.658   1.986  0.8097 -1.0845  0.7767
 5724TIP3   OH238730   3.570   5.297   2.284 -0.2245 -0.3250  0.0586
 5724TIP3    H138731   3.555   5.316   2.376 -0.0896 -2.3204  0.5235
 5724TIP3    H238732   3.636   5.362   2.257 -0.2024  0.2311  1.3705
 5725TIP3   OH238733   6.575   5.564   8.009 -0.0588 -0.3551 -0.4431
 5725TIP3    H138734   6.480   5.567   8.021 -0.0505 -0.6682 -0.2788
 5725TIP3    H238735   6.592   5.478   7.970  0.0258  0.2298 -1.7606
 5726TIP3   OH238736   0.242   2.952   7.933 -0.1397 -0.4498  0.5233
 5726TIP3    H138737   0.172   2.913   7.880  0.1597  0.4987 -0.6188
 5726TIP3    H238738   0.201   2.968   8.018 -1.2396 -0.1927 -0.0292
 5727TIP3   OH238739   4.007   6.034   0.386 -0.3805 -0.2243  0.4394
 5727TIP3    H138740   4.072   5.965   0.401  0.6794  0.3430 -1.2783
 5727TIP3    H238741   3.998   6.038   0.291  1.0447  3.2718  0.3004
 5728TIP3   OH238742   1.672   5.160   3.180 -0.4439  0.5627 -0.1312
 5728TIP3    H138743   1.591   5.172   3.229 -1.0640  0.5262 -1.1124
 5728TIP3    H238744   1.662   5.074   3.138 -0.4233  1.0667 -1.1983
 5729TIP3   OH238745   1.253   0.157   7.673  0.1473  0.3378 -0.0579
 5729TIP3    H138746   1.159   0.150   7.656 -0.1076 -0.2477  1.4025
 5729TIP3    H238747   1.268   0.251   7.684 -0.1463  0.4880 -0.8898
 5730TIP3   OH238748   0.395   3.705   3.203  0.0871  1.1056  0.4813
 5730TIP3    H138749   0.383   3.797   3.179 -1.4617  0.6270 -0.7399
 5730TIP3    H238750   0.313   3.663   3.178  1.4007 -0.9639 -0.6558
 5731TIP3   OH238751   1.073   2.002   8.407 -0.5236 -0.5846 -0.3533
 5731TIP3    H138752   1.013   1.967   8.341 -1.8613  0.6295  0.1755
 5731TIP3    H238753   1.129   2.063   8.358 -0.8673 -0.4204 -0.5434
 5732TIP3   OH238754   4.706   2.884   0.726  0.0320  0.7931 -0.3173
 5732TIP3    H138755   4.643   2.952   0.702  0.7673  1.2959 -0.8190
 5732TIP3    H238756   4.651   2.807   0.745 -0.7900  1.4630  0.0961
 5733TIP3   OH238757   5.876   5.908   7.219  0.3202 -0.3887  0.1408
 5733TIP3    H138758   5.878   5.985   7.162 -0.7510 -1.4494 -1.4233
 5733TIP3    H238759   5.949   5.854   7.190 -0.1895 -0.9064 -0.2009
 5734TIP3   OH238760   1.800   6.270   1.655  0.2029 -0.3689  0.0432
 5734TIP3    H138761   1.872   6.224   1.699  2.1232  1.6674 -0.7549
 5734TIP3    H238762   1.840   6.307   1.576 -2.1507 -0.4873 -1.2992
 5735TIP3   OH238763   1.991   5.830   2.832 -0.1901  0.3370  0.0459
 5735TIP3    H138764   2.046   5.830   2.910 -0.4308  0.8842  0.2205
 5735TIP3    H238765   2.051   5.846   2.760  0.0077  0.0157  0.1404
 5736TIP3   OH238766   4.758   1.087   1.430 -0.0045 -0.5416  0.3625
 5736TIP3    H138767   4.764   1.134   1.513  0.2391  0.9288 -0.4615
 5736TIP3    H238768   4.828   1.022   1.435  1.9245  1.4032  0.2023
 5737TIP3   OH238769   1.916   6.176   7.941  0.2049 -0.4501  0.2510
 5737TIP3    H138770   1.944   6.085   7.952 -0.6985 -0.6544  0.9745
 5737TIP3    H238771   1.911   6.188   7.846 -0.2487 -1.3441  0.1472
 5738TIP3   OH238772   2.592   3.967   1.372  0.1146 -0.2738  0.4178
 5738TIP3    H138773   2.642   3.972   1.291  0.1224  1.0129  0.4771
 5738TIP3    H238774   2.623   4.042   1.424 -0.9875 -0.1743  0.9611
 5739TIP3   OH238775   5.780   3.961   0.369  0.4951  0.0071 -0.9746
 5739TIP3    H138776   5.870   3.928   0.359  0.9131  0.4544  0.9642
 5739TIP3    H238777   5.789   4.039   0.422 -0.9787  0.6214 -1.5820
 5740TIP3   OH238778   1.985   6.192   0.747  0.4201 -0.4004 -0.4762
 5740TIP3    H138779   1.927   6.118   0.764 -3.6968  2.5605 -0.1917
 5740TIP3    H238780   2.006   6.185   0.654 -0.7127 -1.3857 -0.6809
 5741TIP3   OH238781   1.598   5.402   1.540 -0.0764  0.5226  0.0601
 5741TIP3    H138782   1.554   5.458   1.603 -1.4828  0.2983 -0.6867
 5741TIP3    H238783   1.677   5.373   1.585 -0.8401  0.6800  1.5635
 5742TIP3   OH238784   5.754   0.090   2.017 -1.2272 -0.2244 -0.4816
 5742TIP3    H138785   5.770   0.002   2.052  0.3404  0.3195  0.2590
 5742TIP3    H238786   5.731   0.142   2.094 -2.9665 -0.1378 -1.0270
 5743TIP3   OH238787   6.579   5.230   8.675 -0.2427 -0.5788  0.4209
 5743TIP3    H138788   6.497   5.191   8.706 -0.7726 -0.2802 -0.5627
 5743TIP3    H238789   6.624   5.158   8.630 -0.6493 -0.3819 -0.3139
 5744TIP3   OH238790   6.115   4.378   0.726 -0.4865 -0.1121 -0.2249
 5744TIP3    H138791   6.134   4.294   0.767 -1.0057 -0.4710 -0.7012
 5744TIP3    H238792   6.062   4.424   0.791 -2.7168 -1.3286 -1.0728
 5745TIP3   OH238793   0.252   3.370   0.838 -0.2037 -0.1514 -0.2227
 5745TIP3    H138794   0.283   3.286   0.872  0.6467 -0.7738 -2.3358
 5745TIP3    H238795   0.157   3.360   0.832  0.0306 -1.9953 -2.7183
 5746TIP3   OH238796   6.055   3.900   0.380 -0.7185  0.2445  0.0614
 5746TIP3    H138797   6.144   3.923   0.405 -0.6433 -0.2678  0.2664
 5746TIP3    H238798   6.046   3.808   0.403 -1.1663  0.1827 -0.3379
 5747TIP3   OH238799   5.818   6.654   1.750 -0.0065 -0.6398 -0.1437
 5747TIP3    H138800   5.906   6.660   1.787 -0.1645 -3.0914  0.8084
 5747TIP3    H238801   5.760   6.679   1.822 -0.1939 -2.5683  0.4184
 5748TIP3   OH238802   4.859   2.193   8.604  0.5368  0.5246 -0.1752
 5748TIP3    H138803   4.794   2.168   8.538  1.2125 -1.4285 -0.1569
 5748TIP3    H238804   4.811   2.249   8.664 -1.0083 -0.4422 -0.4444
 5749TIP3   OH238805   0.609   3.189   8.322 -0.1197 -0.4644 -0.5817
 5749TIP3    H138806   0.627   3.177   8.229  1.3601  0.2934 -0.4254
 5749TIP3    H238807   0.652   3.271   8.345 -0.1508 -0.8175  0.8513
 5750TIP3   OH238808   5.728   2.878   1.688  0.2670  0.5782  0.6009
 5750TIP3    H138809   5.713   2.935   1.612 -1.4295  1.9084  1.8635
 5750TIP3    H238810   5.650   2.823   1.693  1.0758 -0.6414  0.4985
 5751TIP3   OH238811   5.823   2.362   0.229 -0.5407 -0.3587  0.1169
 5751TIP3    H138812   5.728   2.372   0.230 -0.2972  3.4284 -0.6544
 5751TIP3    H238813   5.845   2.348   0.137 -0.2393  1.2773 -0.0842
 5752TIP3   OH238814   4.707   5.499   7.811 -0.2888  0.3850  0.2579
 5752TIP3    H138815   4.731   5.410   7.836 -1.0664  0.6606  2.0888
 5752TIP3    H238816   4.617   5.509   7.841 -0.3803  1.6285 -0.3885
 5753TIP3   OH238817   5.779   0.584   8.729  0.5836 -0.0429  0.0526
 5753TIP3    H138818   5.718   0.529   8.681 -1.5467  1.4244  0.9380
 5753TIP3    H238819   5.837   0.522   8.774 -1.0251 -1.5313  0.1698
 5754TIP3   OH238820   3.470   1.062   1.018  0.3171 -0.3943 -0.0057
 5754TIP3    H138821   3.412   1.020   0.955  1.0790  1.0103 -1.7330
 5754TIP3    H238822   3.552   1.012   1.012  0.5878  0.1053 -0.6180
 5755TIP3   OH238823   4.050   5.085   1.712 -0.0743  0.3202 -0.7533
 5755TIP3    H138824   4.025   5.155   1.773 -0.0389 -0.0422 -0.3162
 5755TIP3    H238825   4.008   5.109   1.630  0.6110  1.2965 -0.8410
 5756TIP3   OH238826   4.743   2.308   0.771  0.3902 -0.1893  0.4340
 5756TIP3    H138827   4.685   2.293   0.845 -1.0022 -1.2975 -0.8224
 5756TIP3    H238828   4.731   2.400   0.749  0.1742 -0.0660  1.0451
 5757TIP3   OH238829   0.005   5.088   6.829 -0.1969  0.2540  0.7071
 5757TIP3    H138830  -0.058   5.097   6.758  0.9607 -0.2422 -0.4140
 5757TIP3    H238831  -0.017   5.004   6.870 -0.5730  0.3215  0.6496
 5758TIP3   OH238832   5.854   6.532   8.091  0.0362  0.3604 -0.3762
 5758TIP3    H138833   5.778   6.536   8.149  0.1180  0.2684 -0.2610
 5758TIP3    H238834   5.881   6.440   8.093  0.4010  0.4666 -0.0840
 5759TIP3   OH238835   2.799   3.183   0.321  0.1890  0.3479  0.2046
 5759TIP3    H138836   2.848   3.122   0.267 -2.5863 -1.7085 -0.1968
 5759TIP3    H238837   2.820   3.157   0.411  0.3208 -0.0870  0.0505
 5760TIP3   OH238838   4.015   3.539   0.487 -0.5917  0.6505  0.1483
 5760TIP3    H138839   4.024   3.622   0.533 -0.3856 -0.1889  1.6893
 5760TIP3    H238840   4.100   3.524   0.445 -0.9969  1.7474 -1.1208
 5761TIP3   OH238841   4.333   4.066   7.901 -0.3993 -0.2022 -0.1474
 5761TIP3    H138842   4.288   4.011   7.838 -0.5079 -0.3450  0.0547
 5761TIP3    H238843   4.302   4.155   7.882 -0.3642 -0.2337 -0.3511
 5762TIP3   OH238844   1.902   1.455   8.793 -0.3630  0.1211  0.0193
 5762TIP3    H138845   1.986   1.471   8.835 -0.9971  0.0289  1.3632
 5762TIP3    H238846   1.862   1.386   8.845 -2.3472  1.8974  0.9806
 5763TIP3   OH238847   5.743   5.789   7.441 -0.4079 -0.1604 -0.2207
 5763TIP3    H138848   5.668   5.833   7.480  0.9390  2.1881 -0.1392
 5763TIP3    H238849   5.772   5.847   7.372  1.1262 -1.1962 -0.4988
 5764TIP3   OH238850   5.565   0.933   1.462 -0.2830 -0.0933 -0.6630
 5764TIP3    H138851   5.639   0.980   1.424  0.9323 -1.3859  0.0054
 5764TIP3    H238852   5.578   0.940   1.557 -2.1144  1.3035 -0.4654
 5765TIP3   OH238853   6.299   1.225   7.571 -0.0592  0.2225 -0.0950
 5765TIP3    H138854   6.245   1.305   7.573 -1.1826 -0.5036 -0.4445
 5765TIP3    H238855   6.274   1.182   7.489 -0.4166 -1.1335  0.7073
 5766TIP3   OH238856   6.340   1.841   0.867  0.7995 -0.1983 -0.0812
 5766TIP3    H138857   6.306   1.788   0.795  1.7951 -0.7267 -0.1803
 5766TIP3    H238858   6.264   1.856   0.924 -0.3417  1.3562 -1.8682
 5767TIP3   OH238859   4.877   3.928   8.248  0.1058 -0.2815 -0.6067
 5767TIP3    H138860   4.851   4.003   8.302  2.4041 -0.3129  0.6872
 5767TIP3    H238861   4.841   3.852   8.293  0.3120 -0.1536 -0.2208
 5768TIP3   OH238862   4.883   1.083   8.658 -0.1814  0.0727  0.0405
 5768TIP3    H138863   4.970   1.115   8.636  0.6580 -1.3584  1.0959
 5768TIP3    H238864   4.897   1.028   8.735 -2.3425  1.6015  1.6422
 5769TIP3   OH238865   2.373   2.059   1.117 -0.2439 -0.2336  0.3463
 5769TIP3    H138866   2.417   2.132   1.074 -0.1423  1.9786  3.8354
 5769TIP3    H238867   2.333   2.010   1.045  2.7559  1.0888 -2.4858
 5770TIP3   OH238868   5.472   1.707   7.716 -1.0470 -0.1727 -0.3027
 5770TIP3    H138869   5.479   1.779   7.654  0.2939  0.3213  0.3761
 5770TIP3    H238870   5.380   1.707   7.743 -1.8022 -0.7425 -2.6322
 5771TIP3   OH238871   5.021   0.927   0.686 -0.5813  0.3800 -0.8474
 5771TIP3    H138872   5.044   1.018   0.665 -0.4978  0.1171 -1.9257
 5771TIP3    H238873   4.933   0.933   0.723  0.2506  1.1321  1.1547
 5772TIP3   OH238874   2.862   4.267   7.255 -0.3484 -0.1146  0.2804
 5772TIP3    H138875   2.830   4.184   7.219  1.3123 -0.5872 -0.1768
 5772TIP3    H238876   2.927   4.297   7.193 -0.1588  1.0055  0.9870
 5773TIP3   OH238877   0.353   4.426   1.777 -0.0468 -0.1800  0.3153
 5773TIP3    H138878   0.424   4.397   1.721  0.1723  1.8785 -0.5762
 5773TIP3    H238879   0.368   4.381   1.861  0.7686 -1.7718 -0.6456
 5774TIP3   OH238880   1.982   5.830   0.401 -0.2310  0.2790 -0.4573
 5774TIP3    H138881   2.067   5.840   0.358  0.2303  0.1130  0.4073
 5774TIP3    H238882   1.952   5.919   0.418  0.8273  0.3505  1.2742
 5775TIP3   OH238883   4.960   1.774   0.909  0.0861  0.1954 -0.8725
 5775TIP3    H138884   4.900   1.715   0.863  0.8211 -3.3745  2.2226
 5775TIP3    H238885   5.041   1.724   0.917  0.5366  1.2502  2.6055
 5776TIP3   OH238886   1.799   6.471   8.881 -0.1671 -0.3676 -0.0908
 5776TIP3    H138887   1.871   6.415   8.911  0.0092  0.3999  0.9593
 5776TIP3    H238888   1.835   6.517   8.806  0.0509 -0.8458 -0.2862
 5777TIP3   OH238889   3.118   3.841   1.025  0.2779 -0.1141 -0.1296
 5777TIP3    H138890   3.069   3.919   1.051  0.7107  0.1370 -0.0642
 5777TIP3    H238891   3.112   3.840   0.929  0.8937  0.4154 -0.1816
 5778TIP3   OH238892   5.715   2.077   7.635  0.4888  0.3611 -0.3362
 5778TIP3    H138893   5.680   1.989   7.621  1.3512 -0.0124 -0.1579
 5778TIP3    H238894   5.806   2.073   7.605  0.0323  1.6939 -2.1080
 5779TIP3   OH238895   6.565   5.789   7.303 -0.1349  0.5479  0.2463
 5779TIP3    H138896   6.556   5.711   7.358  0.8032 -0.1760 -0.5830
 5779TIP3    H238897   6.487   5.788   7.247  1.4866 -1.8937 -2.2542
 5780TIP3   OH238898   0.856   5.857   3.165  0.1834 -0.2436 -0.4123
 5780TIP3    H138899   0.941   5.853   3.209  0.7650  0.9591 -1.3328
 5780TIP3    H238900   0.793   5.823   3.228  1.0325  1.0678  1.2144
 5781TIP3   OH238901   1.134   3.731   8.391 -0.6442  0.3938  1.0262
 5781TIP3    H138902   1.100   3.710   8.304 -0.1809  1.7006  0.4975
 5781TIP3    H238903   1.204   3.668   8.405  0.4054  1.2254 -0.2932
 5782TIP3   OH238904   1.185   0.020   1.852 -0.8537 -0.4742 -0.3065
 5782TIP3    H138905   1.139   0.092   1.809 -3.8096 -0.5549  2.3736
 5782TIP3    H238906   1.124  -0.053   1.850  1.3830 -2.4435 -1.3452
 5783TIP3   OH238907   2.588   0.278   7.937 -0.2375  0.0121 -0.6234
 5783TIP3    H138908   2.660   0.308   7.880  0.2018  0.2812  0.0624
 5783TIP3    H238909   2.513   0.272   7.878  0.1649  0.4647 -1.2044
 5784TIP3   OH238910   3.430   5.841   0.619  0.1408  0.0129  0.5330
 5784TIP3    H138911   3.389   5.763   0.656  0.3900 -2.4902 -3.7634
 5784TIP3    H238912   3.524   5.828   0.633  0.0879  0.3303  1.1739
 5785TIP3   OH238913   4.954   3.096   7.064  0.7365  0.1309  0.0201
 5785TIP3    H138914   5.008   3.155   7.116  2.0186  0.8711 -2.0269
 5785TIP3    H238915   4.896   3.153   7.014 -4.3206 -0.6326  4.1649
 5786TIP3   OH238916   0.358   1.328   0.796  0.7093  0.4736 -0.2006
 5786TIP3    H138917   0.440   1.364   0.762  2.5526 -3.3488 -0.3810
 5786TIP3    H238918   0.375   1.316   0.890  0.7406 -1.0178 -0.3684
 5787TIP3   OH238919   4.115   1.115   1.978  0.2141  0.6190 -0.4346
 5787TIP3    H138920   4.189   1.083   1.925 -1.2679 -0.8562 -1.7095
 5787TIP3    H238921   4.147   1.113   2.068  2.1629  1.3181 -1.0491
 5788TIP3   OH238922   0.593   6.082   1.765  0.2588  0.2443  0.3519
 5788TIP3    H138923   0.578   6.176   1.781  0.1678  0.3738 -0.4520
 5788TIP3    H238924   0.521   6.056   1.709 -0.2353 -0.5434  1.3239
 5789TIP3   OH238925   1.369   0.493   2.842 -0.3272 -0.1501 -0.0981
 5789TIP3    H138926   1.414   0.457   2.918 -0.1100  1.3265  0.4999
 5789TIP3    H238927   1.278   0.468   2.854 -0.0905 -1.0397 -0.0448
 5790TIP3   OH238928   5.195   2.627   1.962  0.0230  0.3334 -0.3304
 5790TIP3    H138929   5.111   2.587   1.936  1.0678 -2.3433  0.0491
 5790TIP3    H238930   5.256   2.602   1.893  0.7990  1.1536  0.0368
 5791TIP3   OH238931   2.636   2.507   8.213 -0.2817 -0.1310  0.5960
 5791TIP3    H138932   2.550   2.544   8.194  0.4677 -0.1198 -3.5177
 5791TIP3    H238933   2.626   2.414   8.193  0.1486 -0.6105  2.3962
 5792TIP3   OH238934   2.309   4.990   0.123 -0.0014 -0.6828 -0.1198
 5792TIP3    H138935   2.394   4.974   0.082 -0.7690 -1.9479 -1.3369
 5792TIP3    H238936   2.291   4.910   0.173  0.4648  0.4446  1.9202
 5793TIP3   OH238937   6.627   0.160   1.330 -0.2216  0.2261  0.5350
 5793TIP3    H138938   6.722   0.155   1.320  0.3127  3.2137  2.7368
 5793TIP3    H238939   6.595   0.075   1.298  3.0255 -0.5093 -1.2472
 5794TIP3   OH238940   3.222   0.975   8.695 -1.5202  0.4294  0.0185
 5794TIP3    H138941   3.144   1.000   8.644 -2.2383  0.9859  1.3458
 5794TIP3    H238942   3.192   0.973   8.786 -0.6640 -2.1568  0.3132
 5795TIP3   OH238943   2.232   0.878   1.846  0.1756 -0.4341  0.1115
 5795TIP3    H138944   2.229   0.823   1.925 -1.0927 -1.0111 -0.3216
 5795TIP3    H238945   2.318   0.859   1.807  1.4017  0.8401  2.0029
 5796TIP3   OH238946   4.039   4.068   7.053  0.6532 -0.3020  0.0516
 5796TIP3    H138947   4.003   4.061   6.965  1.0745  1.5456 -0.3066
 5796TIP3    H238948   4.012   3.987   7.096 -3.7869  0.7515 -0.2301
 5797TIP3   OH238949   5.012   3.232   7.322 -0.2254  0.0426 -0.1216
 5797TIP3    H138950   4.973   3.206   7.406  1.9150  0.2272  0.9850
 5797TIP3    H238951   5.073   3.162   7.300 -1.2935 -0.3777 -1.9610
 5798TIP3   OH238952   6.044   0.757   0.770  0.6407  0.2167  0.5033
 5798TIP3    H138953   6.043   0.679   0.826  0.1260 -0.3315 -0.2581
 5798TIP3    H238954   5.978   0.740   0.704 -0.2761  1.7753  0.9579
 5799TIP3   OH238955   2.081   2.093   7.288  0.1934  0.4237 -0.4382
 5799TIP3    H138956   2.083   2.006   7.249 -1.1164 -0.2076  0.7977
 5799TIP3    H238957   2.019   2.142   7.235 -1.2736 -0.3101  0.5174
 5800TIP3   OH238958   6.780   2.409   1.980  0.4410  0.1870  0.8055
 5800TIP3    H138959   6.834   2.331   1.985  1.0650  0.5869  0.4880
 5800TIP3    H238960   6.690   2.376   1.977  0.6440 -0.4710  1.6533
 5801TIP3   OH238961   0.061   0.202   2.128 -0.0908 -0.3360  0.0841
 5801TIP3    H138962   0.054   0.139   2.200  1.4770  1.2619  1.7526
 5801TIP3    H238963   0.128   0.165   2.070  1.9798  0.4497  1.8707
 5802TIP3   OH238964   3.851   2.685   2.357 -0.3136  0.3295  0.2139
 5802TIP3    H138965   3.849   2.755   2.421  3.1077  0.2254  0.5815
 5802TIP3    H238966   3.861   2.605   2.409  1.5185  0.1543 -0.3554
 5803TIP3   OH238967   1.654   3.038   2.209  0.0644  0.4084  0.4246
 5803TIP3    H138968   1.621   3.015   2.123 -0.2148 -0.2122  0.6917
 5803TIP3    H238969   1.577   3.040   2.266  0.4022 -0.6978  0.9721
 5804TIP3   OH238970   0.895   5.537   0.233 -0.1437  0.0610 -0.4927
 5804TIP3    H138971   0.942   5.475   0.289  2.8734  2.1453 -0.4444
 5804TIP3    H238972   0.832   5.484   0.185 -0.0632 -2.4340  1.9387
 5805TIP3   OH238973   6.032   1.727   1.254 -0.2993  0.3826 -0.0119
 5805TIP3    H138974   5.942   1.699   1.267 -0.4187  0.7876  0.0448
 5805TIP3    H238975   6.085   1.659   1.296 -0.6059  0.5786  0.6980
 5806TIP3   OH238976   5.908   1.874   8.407  1.3251 -0.6592  0.0402
 5806TIP3    H138977   5.847   1.825   8.352 -0.1759  0.6522  0.4749
 5806TIP3    H238978   5.890   1.966   8.389  3.2557 -0.2199  0.1362
 5807TIP3   OH238979   0.281   2.575   1.146  0.4547  0.3699  0.2149
 5807TIP3    H138980   0.224   2.555   1.072  1.1221  0.8350 -0.4423
 5807TIP3    H238981   0.268   2.669   1.161  3.5498  1.3521 -2.2061
 5808TIP3   OH238982   2.474   3.160   1.011  0.1163  0.0629  0.0090
 5808TIP3    H138983   2.407   3.187   1.074 -0.2258  0.0758 -0.3559
 5808TIP3    H238984   2.438   3.184   0.926  0.3410 -0.4401 -0.2345
 5809TIP3   OH238985   2.785   4.607   2.812 -0.3000  0.2251  0.2019
 5809TIP3    H138986   2.807   4.658   2.889 -1.0175  0.2262  0.4152
 5809TIP3    H238987   2.807   4.665   2.738  0.4746  0.1855  0.3960
 5810TIP3   OH238988   5.798   0.867   0.081  0.1549  0.2137 -0.5318
 5810TIP3    H138989   5.757   0.784   0.104  0.2520 -0.1209 -1.5302
 5810TIP3    H238990   5.724   0.923   0.055  0.2908 -0.3658 -2.2593
 5811TIP3   OH238991   1.182   4.580   7.686 -0.4037 -0.4756 -0.1815
 5811TIP3    H138992   1.137   4.644   7.631 -0.3733 -0.0450  0.2840
 5811TIP3    H238993   1.118   4.557   7.754 -0.5395 -1.2123 -0.5523
 5812TIP3   OH238994   3.925   3.417   1.279  0.4480 -0.1856  0.2203
 5812TIP3    H138995   3.900   3.458   1.197  2.0703 -0.2907 -0.3572
 5812TIP3    H238996   3.929   3.489   1.342 -0.9715 -0.1318  0.2809
 5813TIP3   OH238997   6.181   2.797   2.162 -0.0138  0.0745  0.1919
 5813TIP3    H138998   6.261   2.750   2.143  1.0494  2.0659 -0.5482
 5813TIP3    H238999   6.139   2.811   2.077  0.3872  1.5742  0.2068
 5814TIP3   OH239000   5.208   1.961   0.606 -0.5472  0.4303  0.5039
 5814TIP3    H139001   5.291   1.950   0.653 -1.4711 -0.4865  1.9899
 5814TIP3    H239002   5.230   1.942   0.515  0.8576  0.0680  0.8962
 5815TIP3   OH239003   6.509   0.288   1.531 -0.7425 -0.5546 -0.0141
 5815TIP3    H139004   6.565   0.241   1.470 -0.2416 -1.1238  0.8584
 5815TIP3    H239005   6.549   0.374   1.539 -0.3408 -0.7567  0.1441
 5816TIP3   OH239006   3.733   1.165   0.224  0.3483 -0.5584  0.6180
 5816TIP3    H139007   3.693   1.244   0.187  1.7068  0.1287  0.5589
 5816TIP3    H239008   3.731   1.102   0.152 -0.2544 -0.4090  0.4953
 5817TIP3   OH239009   0.132   3.226   7.856 -0.5321  0.5822  0.0011
 5817TIP3    H139010   0.208   3.283   7.863  0.4136 -0.4824 -1.0342
 5817TIP3    H239011   0.136   3.171   7.934 -0.1385  0.4423 -0.1122
 5818TIP3   OH239012   2.675   1.888   0.905 -0.2641 -0.0896  0.2099
 5818TIP3    H139013   2.641   1.808   0.864  2.3886  0.1142 -2.7153
 5818TIP3    H239014   2.768   1.870   0.920  0.3693  2.3377 -0.3565
 5819TIP3   OH239015   0.014   6.427   7.779  0.0532 -0.5893 -0.5217
 5819TIP3    H139016  -0.035   6.360   7.731 -0.4862 -1.3694  1.0514
 5819TIP3    H239017  -0.047   6.458   7.846  1.1129 -0.3067  0.3445
 5820TIP3   OH239018   4.191   6.324   1.011 -0.0176  0.2227 -0.3628
 5820TIP3    H139019   4.164   6.281   0.930 -0.6645 -0.3570  0.1571
 5820TIP3    H239020   4.110   6.336   1.061  0.5599 -0.9079  0.9058
 5821TIP3   OH239021   2.881   0.804   0.365  0.7392  0.3542 -0.3176
 5821TIP3    H139022   2.792   0.840   0.355  0.8973  1.0962  0.7750
 5821TIP3    H239023   2.871   0.711   0.346 -0.5289  0.1895  0.9831
 5822TIP3   OH239024   5.864   0.421   0.565  0.1017  0.1226  0.0144
 5822TIP3    H139025   5.853   0.357   0.636 -0.2975  0.7341  0.5165
 5822TIP3    H239026   5.953   0.408   0.534  0.7012  0.6654  1.4432
 5823TIP3   OH239027   2.924   5.765   1.454  0.3808  0.3863  0.0881
 5823TIP3    H139028   2.924   5.834   1.520  0.4290  0.8115 -0.3522
 5823TIP3    H239029   2.952   5.686   1.501  1.8135  0.9790  0.2657
 5824TIP3   OH239030   5.278   0.839   8.441 -0.1143  0.4025  0.0129
 5824TIP3    H139031   5.265   0.745   8.454  1.3496  0.3053  1.0922
 5824TIP3    H239032   5.278   0.875   8.529 -2.7613  1.8004 -0.4556
 5825TIP3   OH239033   1.951   3.304   8.293 -0.3384 -0.0064  0.1045
 5825TIP3    H139034   1.999   3.386   8.302  0.1451 -0.2068 -0.5529
 5825TIP3    H239035   1.992   3.260   8.218  0.9949 -1.9131  1.8169
 5826TIP3   OH239036   5.999   3.814   1.585 -0.2711  0.5066  0.5736
 5826TIP3    H139037   5.920   3.867   1.574 -0.7874 -0.7594 -2.9489
 5826TIP3    H239038   6.071   3.876   1.581 -0.9758  1.3410  0.5708
 5827TIP3   OH239039   1.607   6.536   3.042 -0.3873 -0.7857  0.0426
 5827TIP3    H139040   1.610   6.516   2.949 -1.9088  0.0881 -0.2246
 5827TIP3    H239041   1.532   6.596   3.052  0.8148  0.5707  1.5538
 5828TIP3   OH239042   3.980   6.098   1.719 -0.0476  0.6071 -0.4751
 5828TIP3    H139043   3.896   6.090   1.764  0.7239  0.1226  0.9132
 5828TIP3    H239044   3.956   6.123   1.629 -1.7088 -0.2181 -0.3094
 5829TIP3   OH239045   4.457   6.346   8.856  0.3293 -0.1203 -0.2281
 5829TIP3    H139046   4.517   6.420   8.841  0.1647 -0.1583 -1.1830
 5829TIP3    H239047   4.375   6.374   8.815 -0.2852 -0.1112  0.9840
 5830TIP3   OH239048   0.012   3.506   8.874 -0.5468  0.0240  0.5123
 5830TIP3    H139049   0.061   3.429   8.901 -0.9858  0.1027  1.5801
 5830TIP3    H239050   0.044   3.576   8.931  0.2556  0.7911 -0.8118
 5831TIP3   OH239051   2.738   0.337   2.308 -0.1329  0.1315 -0.4375
 5831TIP3    H139052   2.800   0.355   2.237  0.8679  0.6229  0.5398
 5831TIP3    H239053   2.776   0.263   2.355  0.6908  1.5753  1.2594
 5832TIP3   OH239054   1.735   0.912   2.690  0.0007  0.4270  0.1220
 5832TIP3    H139055   1.738   0.818   2.673 -1.3733  0.4487 -0.3416
 5832TIP3    H239056   1.644   0.930   2.710  0.3630  1.5647  0.8536
 5833TIP3   OH239057   6.518   0.620   8.172  0.1726  0.7941 -0.1801
 5833TIP3    H139058   6.455   0.587   8.236  0.2160 -0.4222 -0.7333
 5833TIP3    H239059   6.466   0.646   8.097  0.3318 -1.0062 -0.9760
 5834TIP3   OH239060   4.305   2.793   7.363  0.1671  0.3348 -0.9873
 5834TIP3    H139061   4.278   2.765   7.276 -1.9171 -1.1780  0.0669
 5834TIP3    H239062   4.242   2.860   7.389  0.7279  0.7305 -0.6050
 5835TIP3   OH239063   0.273   6.635   1.537 -0.1704 -0.1560 -0.1425
 5835TIP3    H139064   0.179   6.650   1.524 -0.2893 -0.0600  0.7347
 5835TIP3    H239065   0.277   6.559   1.594  0.2283  0.6993  1.0120
 5836TIP3   OH239066   0.481   3.155   1.888  0.0102  0.1406 -0.4649
 5836TIP3    H139067   0.461   3.228   1.830 -2.1810 -1.0147 -1.2797
 5836TIP3    H239068   0.398   3.135   1.930  1.1142 -0.3340  1.6325
 5837TIP3   OH239069   5.992   6.777   2.857  0.4747 -0.0258  0.1661
 5837TIP3    H139070   5.953   6.805   2.939  1.4059  0.4365  0.4643
 5837TIP3    H239071   6.046   6.851   2.829  1.1686 -0.6566 -0.2065
 5838TIP3   OH239072   6.758   1.298   8.331  0.1752  0.2264  0.0502
 5838TIP3    H139073   6.669   1.282   8.299  0.0855  0.3735  0.2174
 5838TIP3    H239074   6.778   1.222   8.386  1.2136 -1.1568 -2.1527
 5839TIP3   OH239075   2.093   2.017   8.410 -0.1396 -0.3288  0.0074
 5839TIP3    H139076   2.132   2.025   8.323 -0.8395  2.2872 -0.1689
 5839TIP3    H239077   2.019   2.079   8.409  0.7534  0.9807  2.9039
 5840TIP3   OH239078   0.325   2.701   8.059 -0.6429 -0.5462 -0.0594
 5840TIP3    H139079   0.236   2.666   8.066 -0.2527 -1.4862  0.4358
 5840TIP3    H239080   0.315   2.781   8.008 -1.6630 -1.0551 -0.7108
 5841TIP3   OH239081   2.186   2.357   0.011  0.0701 -0.5984  0.1718
 5841TIP3    H139082   2.209   2.298  -0.061  2.0893 -1.5703  1.5003
 5841TIP3    H239083   2.196   2.303   0.090 -2.4865  0.3021  1.2307
 5842TIP3   OH239084   2.272   5.857   1.790 -0.7765 -0.0710  0.0028
 5842TIP3    H139085   2.229   5.794   1.848 -0.6179 -0.5868 -0.4245
 5842TIP3    H239086   2.273   5.813   1.705  1.5370 -0.5727  0.2073
 5843TIP3   OH239087   2.749   3.001   1.929 -0.3456 -0.0340 -0.5453
 5843TIP3    H139088   2.809   3.052   1.875  0.8870  0.0311  0.8278
 5843TIP3    H239089   2.805   2.954   1.990 -1.6049 -1.2579 -0.2706
 5844TIP3   OH239090   5.155   3.675   7.916  0.0896  0.3672  0.1049
 5844TIP3    H139091   5.148   3.756   7.968 -0.6592 -1.0073  2.2616
 5844TIP3    H239092   5.069   3.634   7.922  1.1190 -1.7943  1.1776
 5845TIP3   OH239093   1.043   2.018   7.441  0.5832 -0.1658  0.0031
 5845TIP3    H139094   1.024   2.093   7.384  1.0876 -1.0337 -1.3605
 5845TIP3    H239095   1.042   2.054   7.529  3.4449  2.0765 -0.7082
 5846TIP3   OH239096   3.243   2.849   7.538  0.1729  0.4178 -0.0289
 5846TIP3    H139097   3.319   2.805   7.575 -0.0311 -0.3590 -0.5101
 5846TIP3    H239098   3.228   2.924   7.596  3.2896  2.5909 -1.7386
 5847TIP3   OH239099   1.422   6.764   7.960 -0.3650 -0.8013  0.4869
 5847TIP3    H139100   1.515   6.764   7.938 -0.0702 -2.4871  1.5733
 5847TIP3    H239101   1.378   6.731   7.881  0.2231 -2.3873  0.7875
 5848TIP3   OH239102   4.086   1.051   1.375  0.3523 -0.3821  0.2408
 5848TIP3    H139103   4.097   0.975   1.318 -0.7955 -0.5348  0.2010
 5848TIP3    H239104   4.149   1.115   1.343 -1.1787  0.0765 -2.1114
 5849TIP3   OH239105   1.145   4.010   8.445 -0.2053 -0.2042 -0.0756
 5849TIP3    H139106   1.141   3.914   8.447 -2.1591 -0.1667  0.1623
 5849TIP3    H239107   1.139   4.036   8.537 -1.2708  0.1378 -0.2180
 5850TIP3   OH239108   3.771   2.813   7.548  0.6512  0.2092 -0.5868
 5850TIP3    H139109   3.743   2.838   7.460  1.5280 -1.0064 -1.2354
 5850TIP3    H239110   3.843   2.872   7.569  0.2487  0.6943 -0.5481
 5851TIP3   OH239111   2.973   3.682   7.752 -0.2154  0.0941 -0.4101
 5851TIP3    H139112   2.964   3.597   7.709 -2.7728 -0.3499  0.8042
 5851TIP3    H239113   2.981   3.661   7.845  1.5388  1.1570 -0.2718
 5852TIP3   OH239114   4.360   6.298   3.087  0.6146  0.2126 -0.0839
 5852TIP3    H139115   4.289   6.362   3.089  1.9913  1.8080 -0.2395
 5852TIP3    H239116   4.363   6.270   2.995  1.3961  1.6164 -0.5237
 5853TIP3   OH239117   2.758   4.014   7.149  0.0856  0.1944 -0.2489
 5853TIP3    H139118   2.686   4.041   7.093 -0.4217  1.6902  1.0432
 5853TIP3    H239119   2.740   3.922   7.169 -1.2630  0.4409 -0.2464
 5854TIP3   OH239120   6.767   5.433   1.144 -0.1374 -0.2657  0.1166
 5854TIP3    H139121   6.786   5.488   1.220 -0.9313  0.5804 -0.2812
 5854TIP3    H239122   6.724   5.491   1.081 -1.7888 -1.4846  0.0186
 5855TIP3   OH239123   3.930   5.201   2.401 -0.2428  0.8327  0.0802
 5855TIP3    H139124   3.876   5.251   2.463  0.4430  0.9995  0.5485
 5855TIP3    H239125   3.963   5.267   2.340 -1.1311  0.6346 -0.6412
 5856TIP3   OH239126   5.926   5.809   8.230  0.6343 -0.2922  0.2195
 5856TIP3    H139127   5.923   5.872   8.303 -0.0709 -1.3453  1.1344
 5856TIP3    H239128   6.012   5.823   8.190  1.4080 -0.2553  1.8020
 5857TIP3   OH239129   1.209   5.707   7.632  0.2049 -0.7716 -0.1209
 5857TIP3    H139130   1.253   5.673   7.710  0.3337 -1.0469 -0.3105
 5857TIP3    H239131   1.143   5.642   7.611 -0.4281 -0.2680  0.2700
 5858TIP3   OH239132   2.901   0.440   8.142 -0.2540  0.5154 -0.1897
 5858TIP3    H139133   2.871   0.366   8.090 -0.9906  0.4583  0.2978
 5858TIP3    H239134   2.975   0.475   8.093  1.3795 -1.7191  0.5500
 5859TIP3   OH239135   1.044   1.349   8.010 -0.3702  0.0601  0.4719
 5859TIP3    H139136   1.041   1.254   8.013  0.4392  0.0364  0.7991
 5859TIP3    H239137   0.967   1.374   7.958 -0.1693 -0.8058 -0.2661
 5860TIP3   OH239138   3.140   0.071   1.366  0.7090  0.2319 -0.0372
 5860TIP3    H139139   3.208   0.022   1.321  0.8143  1.4464 -1.2597
 5860TIP3    H239140   3.090   0.113   1.296 -0.6185  0.2589  0.8886
 5861TIP3   OH239141   1.901   0.045   0.940  0.0838  0.1571 -0.5129
 5861TIP3    H139142   1.894   0.140   0.928 -0.8186  0.1617 -0.0060
 5861TIP3    H239143   1.887   0.031   1.033  3.6609 -0.1912  0.1238
 5862TIP3   OH239144   6.140   6.549   2.953  0.0976  0.4036  0.1754
 5862TIP3    H139145   6.078   6.609   2.911 -1.4103 -0.2886  1.2830
 5862TIP3    H239146   6.124   6.465   2.909  1.3667  0.5297 -0.5675
 5863TIP3   OH239147   4.945   0.302   1.286  0.4425  0.0410 -0.0917
 5863TIP3    H139148   4.970   0.251   1.363 -1.6003  0.5225  0.9638
 5863TIP3    H239149   4.941   0.238   1.215  0.3659 -0.7973  0.6562
 5864TIP3   OH239150   4.204   2.839   1.644  0.2121  0.1005  0.0574
 5864TIP3    H139151   4.203   2.924   1.687 -1.1153  0.3010 -0.3351
 5864TIP3    H239152   4.174   2.856   1.555  1.3750 -0.5642 -0.4901
 5865TIP3   OH239153   6.772   3.339   0.764 -0.3769 -0.4792  0.0179
 5865TIP3    H139154   6.774   3.252   0.802 -1.8603  0.0080  1.3313
 5865TIP3    H239155   6.685   3.372   0.785 -0.2728  0.8715 -1.4976
 5866TIP3   OH239156   5.802   6.723   0.134 -0.2892  0.8088 -0.5870
 5866TIP3    H139157   5.751   6.649   0.103  0.2302  0.3131 -0.2597
 5866TIP3    H239158   5.888   6.687   0.155 -0.3547  1.2944  0.6022
 5867TIP3   OH239159   3.990   2.399   0.498 -0.0280  0.3204  0.3840
 5867TIP3    H139160   4.025   2.314   0.526  0.0218  0.3158  0.3077
 5867TIP3    H239161   3.948   2.381   0.414 -0.4778  0.2649  0.6144
 5868TIP3   OH239162   2.003   1.102   1.477  0.0017  0.6163 -0.3313
 5868TIP3    H139163   2.002   1.087   1.572  0.4442 -2.0543 -0.6718
 5868TIP3    H239164   1.921   1.066   1.446  0.8335 -0.5987 -1.1979
 5869TIP3   OH239165   3.231   5.873   2.074 -0.4400 -0.1749  0.3638
 5869TIP3    H139166   3.246   5.780   2.058 -3.3279 -0.5863 -0.5228
 5869TIP3    H239167   3.259   5.887   2.165 -1.4813 -2.3136  1.0603
 5870TIP3   OH239168   5.795   5.262   8.458  0.2751  0.6049 -0.4100
 5870TIP3    H139169   5.874   5.275   8.406 -0.5750 -0.7376 -2.1534
 5870TIP3    H239170   5.752   5.348   8.458  0.8782  0.9143 -0.9376
 5871TIP3   OH239171   5.408   4.844   7.774 -0.3239 -0.2029 -0.2823
 5871TIP3    H139172   5.399   4.766   7.718  0.8155 -0.8400  0.3876
 5871TIP3    H239173   5.475   4.897   7.730 -0.3942 -0.0616 -0.2194
 5872TIP3   OH239174   5.919   5.801   0.683  0.3393 -0.0048 -0.1131
 5872TIP3    H139175   5.871   5.880   0.708  0.7735 -0.0600  0.9209
 5872TIP3    H239176   5.933   5.754   0.765  2.5287  0.2195 -0.2952
 5873TIP3   OH239177   1.482   1.526   7.502  0.3016 -0.0353  0.6432
 5873TIP3    H139178   1.501   1.444   7.548  0.9358  0.7347  1.8022
 5873TIP3    H239179   1.568   1.558   7.474  0.1498  0.6402  0.9299
 5874TIP3   OH239180   2.289   1.442   0.689 -0.3016 -0.1565  0.0182
 5874TIP3    H139181   2.202   1.462   0.724 -0.7102 -0.3932 -0.8431
 5874TIP3    H239182   2.308   1.514   0.629  0.1218 -0.0801  0.2388
 5875TIP3   OH239183   2.761   5.270   1.748 -0.1269  0.1043  0.0913
 5875TIP3    H139184   2.803   5.354   1.728 -0.2301  0.6563  1.9770
 5875TIP3    H239185   2.775   5.217   1.670  1.2437  1.3659 -0.5768
 5876TIP3   OH239186   5.435   3.353   0.652 -0.5424  0.0870 -0.1821
 5876TIP3    H139187   5.378   3.277   0.637 -2.2154  1.1637  0.5461
 5876TIP3    H239188   5.379   3.418   0.693  0.9967  1.5552 -0.3079
 5877TIP3   OH239189   2.396   0.133   8.239 -0.4301  0.1999 -0.0452
 5877TIP3    H139190   2.354   0.155   8.156  2.6773 -0.6326 -2.0091
 5877TIP3    H239191   2.453   0.208   8.257 -1.0875  0.3767  1.3748
 5878TIP3   OH239192   5.115   1.534   8.631  0.0477  0.7095  0.1488
 5878TIP3    H139193   5.055   1.559   8.560  0.5112  0.2112 -0.4229
 5878TIP3    H239194   5.061   1.540   8.710 -1.5057 -2.0118 -0.5735
 5879TIP3   OH239195   6.226   5.851   8.126 -0.7801  0.1312 -0.2242
 5879TIP3    H139196   6.169   5.851   8.050  0.1550  0.3644 -0.9381
 5879TIP3    H239197   6.298   5.909   8.103 -1.0281  1.0798  1.2648
 5880TIP3   OH239198   5.299   1.430   2.196  0.1479 -0.8937  0.3244
 5880TIP3    H139199   5.306   1.491   2.269 -0.6069  1.5765 -1.5029
 5880TIP3    H239200   5.219   1.379   2.214 -0.4620  0.2201  0.8583
 5881TIP3   OH239201   1.228   3.823   0.099 -0.1095 -0.4228 -0.1700
 5881TIP3    H139202   1.299   3.791   0.044  0.7171  0.7764  0.1767
 5881TIP3    H239203   1.153   3.831   0.039  0.7710  0.8781 -1.1458
 5882TIP3   OH239204   0.383   1.485   8.397 -0.5510  0.4848  0.1206
 5882TIP3    H139205   0.465   1.528   8.422 -0.9724  1.3811  0.0058
 5882TIP3    H239206   0.409   1.397   8.370  0.3187  0.6201  0.4936
 5883TIP3   OH239207   4.879   3.958   2.580  0.1043  0.0857 -0.1418
 5883TIP3    H139208   4.959   3.972   2.529  0.2239 -0.1128 -0.0118
 5883TIP3    H239209   4.834   4.042   2.577  0.0590  0.0475 -0.6614
 5884TIP3   OH239210   4.285   4.836   7.054 -0.3897 -0.0842 -1.0300
 5884TIP3    H139211   4.205   4.828   7.105 -0.0103 -0.6873 -0.5193
 5884TIP3    H239212   4.262   4.806   6.966 -1.1944  1.4763 -1.4005
 5885TIP3   OH239213   1.710   0.244   7.815 -0.3079 -0.8894  0.5007
 5885TIP3    H139214   1.711   0.315   7.751 -0.4446  0.7260  2.2119
 5885TIP3    H239215   1.800   0.239   7.847 -0.4532 -0.9938  0.9049
 5886TIP3   OH239216   3.985   5.435   2.112 -0.5804 -0.5604 -0.5208
 5886TIP3    H139217   4.047   5.440   2.185 -0.8364 -1.5260 -0.2306
 5886TIP3    H239218   4.010   5.508   2.055  0.3008 -0.4449 -0.0090
 5887TIP3   OH239219   6.532   0.510   8.837  0.0382  0.0526  0.1674
 5887TIP3    H139220   6.483   0.533   8.758 -0.1678  0.9574  0.5440
 5887TIP3    H239221   6.548   0.416   8.829 -0.4417  0.0344 -0.6900
 5888TIP3   OH239222   2.613   3.681   1.048  0.2756  0.2097  0.4030
 5888TIP3    H139223   2.692   3.627   1.039  0.4142  0.5152 -0.2985
 5888TIP3    H239224   2.647   3.768   1.069  0.2081  0.6483 -1.2331
 5889TIP3   OH239225   0.896   5.924   0.021  0.2488 -0.3895 -0.0600
 5889TIP3    H139226   0.944   5.843   0.006  0.2557 -0.8978  2.3253
 5889TIP3    H239227   0.953   5.975   0.079 -0.8667  0.2165  0.5304
 5890TIP3   OH239228   3.312   1.167   8.537 -0.5185  0.4800  0.2244
 5890TIP3    H139229   3.294   1.084   8.581  1.9828  0.4265  1.2950
 5890TIP3    H239230   3.305   1.233   8.606  2.2911  0.5275  0.5801
 5891TIP3   OH239231   4.642   2.477   6.529  0.2603 -0.0780  0.4383
 5891TIP3    H139232   4.630   2.436   6.615 -1.3673  1.1077  0.8125
 5891TIP3    H239233   4.561   2.459   6.483 -0.1035  1.8677  0.2589
 5892TIP3   OH239234   6.313   2.139   0.659  0.1855  0.0973  0.7256
 5892TIP3    H139235   6.395   2.187   0.666 -0.4351  1.8133 -1.9797
 5892TIP3    H239236   6.334   2.065   0.602 -0.4430  1.6946 -1.7482
 5893TIP3   OH239237   0.673   0.173   8.821 -0.5604  0.3432  0.0319
 5893TIP3    H139238   0.633   0.129   8.746 -0.4238  1.4167 -0.6948
 5893TIP3    H239239   0.676   0.265   8.796 -2.2182  1.0422  2.0895
 5894TIP3   OH239240   6.764   0.048   2.342 -0.3848  0.4749  0.2872
 5894TIP3    H139241   6.747   0.085   2.429  0.0122  0.2391  0.4702
 5894TIP3    H239242   6.752  -0.046   2.353  2.3633  0.0982  0.8037
 5895TIP3   OH239243   2.654   1.125   8.075 -0.3060 -0.7059  0.3895
 5895TIP3    H139244   2.676   1.217   8.057 -0.1010 -0.9243 -0.5037
 5895TIP3    H239245   2.654   1.119   8.171  1.1797 -0.1255  0.4505
 5896TIP3   OH239246   1.293   1.235   1.241  0.3418 -0.5929 -0.2510
 5896TIP3    H139247   1.326   1.308   1.294  0.7194 -0.8029 -0.1894
 5896TIP3    H239248   1.247   1.277   1.168 -1.8676 -0.2593  1.2139
 5897TIP3   OH239249   5.755   1.232   7.445 -0.4547  0.6640  0.7888
 5897TIP3    H139250   5.663   1.225   7.470 -0.2346 -1.9933  1.1753
 5897TIP3    H239251   5.802   1.228   7.528  0.0571 -0.4302  0.4583
 5898TIP3   OH239252   1.467   1.475   0.108 -0.1158  0.1734 -0.1399
 5898TIP3    H139253   1.464   1.397   0.052  1.4849  0.6969 -1.0316
 5898TIP3    H239254   1.448   1.547   0.049 -4.9031  0.3996  1.2333
 5899TIP3   OH239255   3.813   0.761   2.000 -0.0936  0.5292 -0.1950
 5899TIP3    H139256   3.741   0.716   1.956  0.7334 -0.6205 -0.4265
 5899TIP3    H239257   3.856   0.811   1.931  0.5505 -0.4121 -0.4882
 5900TIP3   OH239258   2.838   3.509   8.643 -0.6390  0.2099  0.4468
 5900TIP3    H139259   2.821   3.571   8.714  1.2088 -0.1954  1.2933
 5900TIP3    H239260   2.916   3.542   8.600  0.7666 -1.8123  1.3062
 5901TIP3   OH239261   5.342   1.849   1.038  0.8925  0.1791 -0.1390
 5901TIP3    H139262   5.387   1.867   0.956  0.4858  0.0748 -0.3878
 5901TIP3    H239263   5.311   1.935   1.068  0.6514  0.1586 -0.3260
 5902TIP3   OH239264   0.182   5.282   0.673  0.0063 -0.6811  0.1583
 5902TIP3    H139265   0.245   5.347   0.642  0.0233 -1.4597 -1.5203
 5902TIP3    H239266   0.187   5.287   0.768  0.3708  1.4181  0.0753
 5903TIP3   OH239267   4.095   5.751   0.415  0.1667 -0.1353  0.2378
 5903TIP3    H139268   4.102   5.659   0.391  1.2151  0.2130 -0.9095
 5903TIP3    H239269   4.183   5.775   0.444  0.0537  0.6429 -0.0311
 5904TIP3   OH239270   1.444   4.515   8.394  0.4945  0.0188  0.0766
 5904TIP3    H139271   1.529   4.559   8.392  1.0874 -1.0020  1.5443
 5904TIP3    H239272   1.434   4.485   8.484 -0.3608 -1.9004 -0.5924
 5905TIP3   OH239273   4.575   6.226   7.619  0.0167  0.3373  0.2275
 5905TIP3    H139274   4.573   6.222   7.715 -0.3361  0.5644  0.2333
 5905TIP3    H239275   4.566   6.135   7.591 -1.2749  0.3887  0.4060
 5906TIP3   OH239276   0.307   6.230   1.624 -0.4599 -0.6281  0.3369
 5906TIP3    H139277   0.383   6.187   1.585  0.6757  1.9434 -0.5049
 5906TIP3    H239278   0.339   6.266   1.707 -1.9790 -3.1185  2.1845
 5907TIP3   OH239279   1.900   3.076   0.546  0.1057  0.3185 -0.1281
 5907TIP3    H139280   1.879   3.163   0.579 -0.6845  0.8353 -1.8935
 5907TIP3    H239281   1.986   3.086   0.505 -0.7648  0.7498 -1.9209
 5908TIP3   OH239282   0.647   0.699   8.022 -0.2944 -0.0802  0.4051
 5908TIP3    H139283   0.552   0.688   8.027 -0.4725  0.6768 -0.8577
 5908TIP3    H239284   0.673   0.644   7.948 -0.0516  1.2513 -0.5418
 5909TIP3   OH239285   0.973   4.801   1.075  0.2187 -0.0575  0.3049
 5909TIP3    H139286   0.911   4.835   1.010 -0.4572 -0.7791  0.5489
 5909TIP3    H239287   0.918   4.754   1.138  1.0186 -0.7671  0.4934
 5910TIP3   OH239288   1.918   6.711   7.410  0.1265 -0.3799  0.3724
 5910TIP3    H139289   1.899   6.781   7.473 -0.8225 -0.7343  0.4844
 5910TIP3    H239290   2.003   6.676   7.439  0.1674  0.1054  0.8647
 5911TIP3   OH239291   5.595   4.222   1.714  0.1423  0.2942  0.0586
 5911TIP3    H139292   5.602   4.152   1.779 -1.6740  2.4246  2.8180
 5911TIP3    H239293   5.514   4.201   1.667  0.1064  0.0396  0.2256
 5912TIP3   OH239294   0.449   5.283   2.778  0.9216  0.1665 -0.2390
 5912TIP3    H139295   0.493   5.218   2.723 -1.0010  0.1068 -1.8128
 5912TIP3    H239296   0.381   5.233   2.824  0.3981  0.7987 -0.3215
 5913TIP3   OH239297   1.416   5.213   8.350  0.6373 -0.4701 -0.2224
 5913TIP3    H139298   1.451   5.202   8.438  1.0123  0.9017 -0.1684
 5913TIP3    H239299   1.494   5.218   8.294  0.4942  0.5813 -0.3631
 5914TIP3   OH239300   4.964   1.873   1.155 -0.4155  0.2112 -0.0304
 5914TIP3    H139301   4.963   1.832   1.069  2.0909  1.8935 -0.9853
 5914TIP3    H239302   4.970   1.799   1.217 -0.0892 -0.9676 -1.4118
 5915TIP3   OH239303   5.421   1.041   0.805  0.4902  0.3537 -0.2243
 5915TIP3    H139304   5.433   1.130   0.840  1.0768  0.4922 -0.7527
 5915TIP3    H239305   5.414   1.054   0.710  0.7702 -0.1800 -0.3220
 5916TIP3   OH239306   2.410   3.886   8.692  0.3297 -0.2352  0.4932
 5916TIP3    H139307   2.465   3.837   8.754  0.8001 -0.6114 -0.2051
 5916TIP3    H239308   2.402   3.973   8.731  1.6589 -0.0853  0.4775
 5917TIP3   OH239309   6.709   4.339   0.540 -0.0045 -0.4778  0.3569
 5917TIP3    H139310   6.685   4.431   0.543 -0.4323 -0.4884 -1.6752
 5917TIP3    H239311   6.738   4.319   0.629 -3.4915  0.6082  1.8816
 5918TIP3   OH239312   5.451   2.370   0.751  0.5091  0.2142 -0.0493
 5918TIP3    H139313   5.465   2.461   0.774  1.4082  0.4938 -1.5672
 5918TIP3    H239314   5.368   2.347   0.793  1.0670  1.2267  1.6987
 5919TIP3   OH239315   3.715   5.192   0.035  0.2504 -0.4616 -0.1817
 5919TIP3    H139316   3.810   5.187   0.046  0.3332 -0.8575 -0.9892
 5919TIP3    H239317   3.685   5.247   0.107  1.1950  0.3639 -0.3938
 5920TIP3   OH239318   0.742   0.216   8.126 -0.1629  0.8390 -0.1578
 5920TIP3    H139319   0.828   0.181   8.101 -1.0625 -1.8095  0.1519
 5920TIP3    H239320   0.710   0.156   8.194 -1.5392  2.7909  1.0531
 5921TIP3   OH239321   6.310   0.946   8.712 -0.7884  0.1218  0.3074
 5921TIP3    H139322   6.274   0.931   8.800  1.9982  0.7928  1.6488
 5921TIP3    H239323   6.359   0.866   8.692 -2.5008 -0.6015 -1.3073
 5922TIP3   OH239324   6.456   4.056   2.845  0.1147 -0.4920 -0.4041
 5922TIP3    H139325   6.487   4.040   2.934  0.2592 -0.8848 -0.5224
 5922TIP3    H239326   6.416   4.143   2.848  0.6439 -0.2552 -0.0927
 5923TIP3   OH239327   0.763   0.297   7.473  0.0515  0.1825  0.3127
 5923TIP3    H139328   0.739   0.228   7.411  0.5229  1.5469 -1.4635
 5923TIP3    H239329   0.858   0.293   7.477  0.0440  0.3394  0.6982
 5924TIP3   OH239330   1.192   3.897   0.609 -0.1359 -0.4178 -0.5108
 5924TIP3    H139331   1.282   3.897   0.576  0.2542 -1.7703  0.4541
 5924TIP3    H239332   1.140   3.936   0.539  0.9157 -1.5450 -1.9707
 5925TIP3   OH239333   4.236   3.998   8.735 -0.6956  0.1789 -0.0323
 5925TIP3    H139334   4.157   4.047   8.759  0.3514  0.8445  2.3718
 5925TIP3    H239335   4.288   4.059   8.684 -0.6663  0.6072  0.4983
 5926TIP3   OH239336   0.071   3.695   8.116  0.0969  0.4917  0.3180
 5926TIP3    H139337   0.107   3.777   8.148 -2.3414  1.0010  2.0298
 5926TIP3    H239338  -0.021   3.714   8.098  0.3318 -0.9047 -3.1376
 5927TIP3   OH239339   4.588   3.463   1.573  0.1316  0.5366  0.5526
 5927TIP3    H139340   4.548   3.423   1.649  0.6533  1.5725  1.4071
 5927TIP3    H239341   4.671   3.499   1.606  1.1220 -0.3504 -0.8463
 5928TIP3   OH239342   1.435   3.691   8.264 -0.0094  0.5648  0.3071
 5928TIP3    H139343   1.408   3.612   8.312  0.4291  0.4759  0.4126
 5928TIP3    H239344   1.507   3.661   8.209 -0.8632  0.5388 -0.8267
 5929TIP3   OH239345   3.143   2.325   8.864 -0.0750 -0.3772  0.2429
 5929TIP3    H139346   3.217   2.274   8.898  0.7699  0.4070 -0.3841
 5929TIP3    H239347   3.162   2.415   8.890 -0.8216 -0.1696  0.0822
 5930TIP3   OH239348   0.007   6.568   6.664 -0.1183 -0.1137 -0.3650
 5930TIP3    H139349  -0.056   6.580   6.736 -0.8355 -0.6583 -0.8877
 5930TIP3    H239350  -0.021   6.631   6.598 -0.1881 -0.4443 -0.6508
 5931TIP3   OH239351   3.889   2.791   8.760  0.4661 -0.0349  0.1996
 5931TIP3    H139352   3.837   2.854   8.808  0.0610 -1.2833  1.4500
 5931TIP3    H239353   3.829   2.755   8.695  0.1969 -0.3858  0.6404
 5932TIP3   OH239354   3.200   3.755   1.444 -0.0722  0.4735  0.2996
 5932TIP3    H139355   3.280   3.719   1.405 -0.4137  0.2174 -0.1830
 5932TIP3    H239356   3.159   3.681   1.488 -0.8042  0.2415 -0.7428
 5933TIP3   OH239357   0.587   3.428   8.764  0.0126 -0.4014  0.0937
 5933TIP3    H139358   0.577   3.460   8.675  3.2022 -0.7066 -0.5003
 5933TIP3    H239359   0.607   3.506   8.816 -1.5522 -0.2626  0.5249
 5934TIP3   OH239360   6.336   1.913   8.863  0.1845 -0.2004 -0.1566
 5934TIP3    H139361   6.337   1.859   8.943 -0.3864  1.9799  1.4301
 5934TIP3    H239362   6.426   1.942   8.853  0.0563  0.4597  0.4395
 5935TIP3   OH239363   2.266   1.407   7.512  0.1401 -0.3029 -0.3303
 5935TIP3    H139364   2.239   1.315   7.507 -1.0362  0.0684 -4.5286
 5935TIP3    H239365   2.362   1.403   7.509  0.3303 -1.3450  3.2206
 5936TIP3   OH239366   5.751   1.743   8.162 -0.0887  0.1280  0.1368
 5936TIP3    H139367   5.702   1.767   8.083 -1.0586  0.5779  0.8478
 5936TIP3    H239368   5.703   1.668   8.198  0.4341 -0.1683  0.2255
 5937TIP3   OH239369   5.701   3.329   1.156 -0.0367 -0.0489 -0.0536
 5937TIP3    H139370   5.686   3.413   1.200 -0.6261  0.3336 -0.9568
 5937TIP3    H239371   5.699   3.265   1.227 -2.6339  0.3396  0.3416
 5938TIP3   OH239372   3.209   1.390   8.146 -0.1063  0.1725 -0.1798
 5938TIP3    H139373   3.230   1.309   8.192 -0.1297 -0.9358 -2.0513
 5938TIP3    H239374   3.177   1.449   8.215 -0.3643 -1.4880  1.1740
 5939TIP3   OH239375   5.204   0.412   3.068 -0.1039 -0.2295 -0.3451
 5939TIP3    H139376   5.220   0.506   3.055 -0.8060 -0.3016 -2.0045
 5939TIP3    H239377   5.148   0.407   3.145  1.1792  0.5785  0.6947
 5940TIP3   OH239378   0.726   6.152   0.004 -0.0002  0.2334  0.4091
 5940TIP3    H139379   0.764   6.065   0.010  0.0801  0.0101 -2.3163
 5940TIP3    H239380   0.798   6.212   0.023  0.4829 -0.2631  0.1490
 5941TIP3   OH239381   5.749   3.696   8.706  0.0437  0.1298 -0.9796
 5941TIP3    H139382   5.788   3.689   8.619  0.6891 -3.0372 -0.5512
 5941TIP3    H239383   5.818   3.668   8.766 -1.2188 -0.4659  0.2632
 5942TIP3   OH239384   2.180   4.080   1.237 -0.1689 -0.5202  0.3434
 5942TIP3    H139385   2.187   4.008   1.300 -0.9642 -0.0308  1.0131
 5942TIP3    H239386   2.167   4.036   1.153  0.5362 -1.1751  0.5656
 5943TIP3   OH239387   3.748   5.864   2.762  0.1401  0.1282 -0.1410
 5943TIP3    H139388   3.841   5.863   2.785  0.0303  0.5661  0.3286
 5943TIP3    H239389   3.703   5.835   2.841 -0.0834 -0.8132 -0.5959
 5944TIP3   OH239390   6.010   5.674   0.913  0.6641  0.0563  0.5520
 5944TIP3    H139391   6.085   5.622   0.883 -1.5435 -2.7639 -0.6041
 5944TIP3    H239392   5.998   5.648   1.004  0.0088 -0.9773  0.1884
 5945TIP3   OH239393   5.253   0.818   0.817  0.4538 -0.3000 -0.1885
 5945TIP3    H139394   5.165   0.852   0.802  0.3959  0.1457  1.0491
 5945TIP3    H239395   5.308   0.897   0.821  0.7177 -0.4986  0.1947
 5946TIP3   OH239396   1.416   3.186   7.117  0.1510  0.4360  0.9571
 5946TIP3    H139397   1.484   3.227   7.169 -0.9298  0.2108  2.6203
 5946TIP3    H239398   1.425   3.092   7.134 -0.1020  0.3417  0.6004
 5947TIP3   OH239399   0.932   4.344   8.023 -0.2136 -0.5393  0.1499
 5947TIP3    H139400   0.838   4.339   8.045 -0.0206  0.0914  1.2136
 5947TIP3    H239401   0.976   4.315   8.103  0.5379  1.4596  0.5128
 5948TIP3   OH239402   0.759   5.324   7.365  0.1609 -0.0954  0.3449
 5948TIP3    H139403   0.811   5.301   7.442  1.6103 -1.5327 -0.9845
 5948TIP3    H239404   0.682   5.367   7.401  1.3434  0.3909  2.5242
 5949TIP3   OH239405   0.594   6.268   1.005  0.3653  0.5295  0.5379
 5949TIP3    H139406   0.667   6.259   0.943 -0.1051  0.2894  0.0101
 5949TIP3    H239407   0.591   6.185   1.052  0.9655  0.8505  1.1677
 5950TIP3   OH239408   4.895   5.918   1.974 -0.4264 -0.3201 -0.3363
 5950TIP3    H139409   4.972   5.861   1.975 -0.4853 -0.3999 -0.3605
 5950TIP3    H239410   4.822   5.860   1.955 -0.9960 -0.8825  2.9357
 5951TIP3   OH239411   3.917   1.667   1.871 -0.4864 -0.3935  0.7685
 5951TIP3    H139412   3.899   1.605   1.800 -1.6017  0.2359  0.4802
 5951TIP3    H239413   3.903   1.617   1.951  0.6302 -1.0699  0.5655
 5952TIP3   OH239414   2.153   2.119   0.208  0.0672  0.1902 -0.2522
 5952TIP3    H139415   2.111   2.047   0.162  0.1716  1.2599 -2.1300
 5952TIP3    H239416   2.196   2.079   0.283 -1.3808 -1.4154 -0.2509
 5953TIP3   OH239417   4.267   0.365   3.315  0.4199  0.5143 -0.3697
 5953TIP3    H139418   4.297   0.287   3.362  1.2407  2.0771  1.8071
 5953TIP3    H239419   4.310   0.359   3.230  1.6328 -0.6621  0.2851
 5954TIP3   OH239420   5.985   5.810   2.255  0.6786  0.1016 -0.7869
 5954TIP3    H139421   5.999   5.769   2.170  1.1442 -0.5030 -0.4181
 5954TIP3    H239422   5.890   5.825   2.258  0.6811  0.3122 -1.4906
 5955TIP3   OH239423   4.453   4.942   7.712  0.2315 -0.0274 -0.1080
 5955TIP3    H139424   4.528   4.996   7.736  0.9308 -0.6579 -0.8204
 5955TIP3    H239425   4.451   4.946   7.616 -0.4772 -0.2538 -0.1098
 5956TIP3   OH239426   1.568   3.801   7.712  0.1253 -0.4961 -0.2179
 5956TIP3    H139427   1.479   3.835   7.701  1.0156  2.3380  0.4646
 5956TIP3    H239428   1.575   3.783   7.806  1.2800  2.9483  0.5330
 5957TIP3   OH239429   4.102   6.609   8.451  0.4921 -0.1618  0.4215
 5957TIP3    H139430   4.097   6.682   8.389 -0.3718  1.0033  1.7882
 5957TIP3    H239431   4.184   6.622   8.497  0.9825 -0.8482 -0.2335
 5958TIP3   OH239432   4.695   3.827   0.572 -0.1063 -0.2639  0.6070
 5958TIP3    H139433   4.688   3.913   0.531  0.1452 -0.4451  0.1726
 5958TIP3    H239434   4.650   3.768   0.512 -2.3590 -0.1086  2.0293
 5959TIP3   OH239435   4.655   6.638   0.132  0.6690 -0.6095  0.1369
 5959TIP3    H139436   4.727   6.699   0.126  1.3071 -1.3632 -0.0497
 5959TIP3    H239437   4.640   6.608   0.043 -1.2116  1.0195 -0.1512
 5960TIP3   OH239438   6.530   4.084   3.153 -0.5054  0.2330  0.2709
 5960TIP3    H139439   6.515   4.016   3.218  1.2199 -1.3435 -0.8875
 5960TIP3    H239440   6.610   4.128   3.181 -0.7122  0.7201  0.1245
 5961TIP3   OH239441   2.781   1.535   2.426  0.0481  0.4182  0.1954
 5961TIP3    H139442   2.778   1.502   2.515 -0.6718  0.7869  0.3151
 5961TIP3    H239443   2.745   1.623   2.431  0.2410  0.5377 -0.4127
 5962TIP3   OH239444   5.146   3.404   7.150 -0.3617 -0.0557  0.2540
 5962TIP3    H139445   5.081   3.414   7.081 -0.6510 -3.4661 -0.1658
 5962TIP3    H239446   5.095   3.387   7.229 -0.0066 -0.0399  0.4909
 5963TIP3   OH239447   6.036   6.140   2.173 -0.0487  0.1241  0.0646
 5963TIP3    H139448   6.018   6.222   2.221  0.9064  0.5375 -0.2422
 5963TIP3    H239449   5.983   6.074   2.217 -1.2166  0.9967  0.0155
 5964TIP3   OH239450   3.624   6.454   7.806  0.1082 -0.2988 -0.1784
 5964TIP3    H139451   3.682   6.426   7.877 -0.6320 -1.7585 -0.1254
 5964TIP3    H239452   3.678   6.446   7.727  1.2661  2.2785  0.2276
 5965TIP3   OH239453   1.353   3.057   1.796 -0.1140  0.0231  0.5805
 5965TIP3    H139454   1.371   3.145   1.766 -3.5260  0.0165 -2.0251
 5965TIP3    H239455   1.337   3.066   1.890  3.6826  1.3025  1.2725
 5966TIP3   OH239456   6.496   4.550   1.433 -0.1786 -0.2086  0.2630
 5966TIP3    H139457   6.569   4.494   1.460 -0.4156 -0.4408  0.4257
 5966TIP3    H239458   6.536   4.617   1.377  0.3111  0.2363  1.1294
 5967TIP3   OH239459   2.631   5.252   0.421 -0.3069  0.6896  0.7926
 5967TIP3    H139460   2.610   5.281   0.510 -1.8508 -1.4458  1.2014
 5967TIP3    H239461   2.585   5.169   0.411 -0.2014  0.8715 -2.0410
 5968TIP3   OH239462   0.256   2.995   0.720 -0.5860 -0.4015  0.1984
 5968TIP3    H139463   0.263   2.906   0.684 -2.2388 -0.4630 -0.0338
 5968TIP3    H239464   0.347   3.023   0.730  0.0553 -2.7692  1.9670
 5969TIP3   OH239465   3.575   0.784   0.937  0.2325  0.1899 -0.0617
 5969TIP3    H139466   3.602   0.814   0.850  1.7385 -1.6070 -0.2649
 5969TIP3    H239467   3.520   0.708   0.919  0.5763 -0.2044  0.5513
 5970TIP3   OH239468   0.668   5.787   3.364  0.6332  0.2715 -0.5111
 5970TIP3    H139469   0.735   5.781   3.432  0.4938  0.5921 -0.3407
 5970TIP3    H239470   0.609   5.714   3.381  1.4780 -0.6066 -1.2582
 5971TIP3   OH239471   3.840   5.478   8.012 -0.4357  0.3910 -0.2536
 5971TIP3    H139472   3.934   5.466   8.025 -0.3432  0.4788 -0.7982
 5971TIP3    H239473   3.833   5.562   7.967 -0.9024  1.2242  1.2927
 5972TIP3   OH239474   1.868   2.667   0.625  0.0398 -0.0393 -0.1125
 5972TIP3    H139475   1.925   2.694   0.553  1.7850  1.5416  1.7254
 5972TIP3    H239476   1.780   2.674   0.589  0.8604 -0.1973 -2.3433
 5973TIP3   OH239477   6.204   1.659   8.714 -1.4462 -0.1969  0.1747
 5973TIP3    H139478   6.222   1.641   8.622  1.9002  0.9395  0.4760
 5973TIP3    H239479   6.219   1.754   8.722 -2.8201 -0.0687  1.7130
 5974TIP3   OH239480   4.318   3.095   8.666 -0.3636  0.3529 -0.1729
 5974TIP3    H139481   4.311   3.138   8.581  1.5266 -0.0487 -0.5739
 5974TIP3    H239482   4.280   3.008   8.652 -0.3176  0.3899 -0.5415
 5975TIP3   OH239483   1.900   5.645   1.026 -0.0704  0.0727  0.1065
 5975TIP3    H139484   1.949   5.716   0.984 -2.0231  0.2656 -2.0395
 5975TIP3    H239485   1.964   5.576   1.039  0.9292  0.4788 -2.1860
 5976TIP3   OH239486   6.717   0.930   8.715  0.4422 -0.0651  0.1735
 5976TIP3    H139487   6.727   0.842   8.678  3.1435  0.1039  0.3303
 5976TIP3    H239488   6.686   0.914   8.804  0.6314 -0.8490  0.1069
 5977TIP3   OH239489   5.824   1.364   1.087 -0.0078  0.2071  0.3357
 5977TIP3    H139490   5.761   1.425   1.125 -2.7138 -0.9523 -1.9346
 5977TIP3    H239491   5.825   1.290   1.148  0.3227  0.8856  1.1567
 5978TIP3   OH239492   3.842   2.067   1.407  0.2775  0.6193 -0.2283
 5978TIP3    H139493   3.826   1.988   1.355  0.0648 -1.0983  2.2560
 5978TIP3    H239494   3.755   2.093   1.439  0.3760  1.7618 -0.8287
 5979TIP3   OH239495   1.918   0.162   2.162 -0.5352  0.2392 -0.0491
 5979TIP3    H139496   1.954   0.229   2.220 -1.4549  0.7429 -0.0430
 5979TIP3    H239497   1.835   0.198   2.133 -0.5177 -0.4182 -0.9506
 5980TIP3   OH239498   2.008   2.764   0.407 -0.1856  0.3368  0.1915
 5980TIP3    H139499   2.059   2.840   0.436 -2.5795  1.8588  0.7036
 5980TIP3    H239500   1.976   2.789   0.320 -1.2173  0.0530  0.4794
 5981TIP3   OH239501   4.640   2.099   8.458 -0.8450 -0.1181 -0.4194
 5981TIP3    H139502   4.551   2.127   8.440 -0.1235  1.9354 -1.0466
 5981TIP3    H239503   4.668   2.053   8.379 -0.9424  0.3077 -0.7038
 5982TIP3   OH239504   0.239   6.478   8.480 -0.0476  0.3145 -0.1061
 5982TIP3    H139505   0.304   6.475   8.409  0.5459  1.0133  0.3836
 5982TIP3    H239506   0.197   6.392   8.478 -1.1180  0.8253 -2.2797
 5983TIP3   OH239507   4.997   2.302   8.361  0.6055  0.2554  0.0050
 5983TIP3    H139508   4.999   2.263   8.448  0.7592 -0.5153 -0.3268
 5983TIP3    H239509   5.020   2.394   8.374  3.0455 -0.3539  0.5242
 5984TIP3   OH239510   2.911   1.422   7.735  0.0590  0.3586  0.4892
 5984TIP3    H139511   2.980   1.357   7.726 -0.9040 -0.4257 -2.1699
 5984TIP3    H239512   2.956   1.506   7.723  0.4343 -0.2105 -3.4406
 5985TIP3   OH239513   1.067   1.097   2.693  0.2864  0.1945  0.5470
 5985TIP3    H139514   1.140   1.037   2.711 -0.0230  0.1874  1.8477
 5985TIP3    H239515   1.006   1.083   2.764 -2.6602 -2.2371 -2.1551
 5986TIP3   OH239516   3.965   4.952   0.504 -0.5646 -0.3892 -0.2905
 5986TIP3    H139517   4.009   4.874   0.539 -0.2741 -0.0975  0.0031
 5986TIP3    H239518   4.000   5.024   0.556  0.1178  0.0947 -1.3914
 5987TIP3   OH239519   1.579   6.710   1.376  0.0743  0.1186  0.4145
 5987TIP3    H139520   1.508   6.730   1.437  1.4799  0.7909  1.8891
 5987TIP3    H239521   1.619   6.630   1.410  0.2759 -0.0480 -0.1915
 5988TIP3   OH239522   0.726   2.612   1.933 -0.7371  0.6333  0.3152
 5988TIP3    H139523   0.689   2.581   2.015  0.6435 -0.4794  0.5571
 5988TIP3    H239524   0.813   2.645   1.956 -0.0437 -0.3281 -0.7630
 5989TIP3   OH239525   1.880   2.859   2.044  0.4551 -0.1393  0.0688
 5989TIP3    H139526   1.787   2.858   2.023  0.7084  2.0706 -1.5797
 5989TIP3    H239527   1.906   2.767   2.043 -1.8243 -0.8680  1.3516
 5990TIP3   OH239528   5.636   3.124   0.222  0.2269  0.3428  0.4068
 5990TIP3    H139529   5.714   3.094   0.176  0.0177  0.7754 -0.2523
 5990TIP3    H239530   5.656   3.214   0.247  0.8721 -0.3178  2.4189
 5991TIP3   OH239531   4.274   0.751   8.685 -0.9409 -0.2559 -0.2329
 5991TIP3    H139532   4.181   0.740   8.665 -1.2033 -0.8412  1.2125
 5991TIP3    H239533   4.275   0.813   8.759 -0.1921 -0.3369 -0.1711
 5992TIP3   OH239534   5.560   1.360   8.798  0.5884  0.0817  0.2464
 5992TIP3    H139535   5.640   1.345   8.748  0.1999 -0.5567 -0.1947
 5992TIP3    H239536   5.489   1.349   8.734  0.0782 -0.9490  0.9647
 5993TIP3   OH239537   2.697   1.486   0.666  0.0285  0.1238 -0.6286
 5993TIP3    H139538   2.750   1.559   0.699  0.1975  0.0393 -0.7089
 5993TIP3    H239539   2.760   1.429   0.623  0.0312 -0.5235  0.2035
 5994TIP3   OH239540   2.980   2.823   6.851  0.9548  0.4023  0.4866
 5994TIP3    H139541   2.943   2.911   6.858  1.4309  0.4661  2.9962
 5994TIP3    H239542   3.063   2.835   6.805  0.4240  1.0613 -0.3196
 5995TIP3   OH239543   6.320   5.875   0.101  0.6414  0.9268  0.3637
 5995TIP3    H139544   6.334   5.788   0.063  0.4482  0.7180  0.7638
 5995TIP3    H239545   6.389   5.929   0.063 -0.1933  0.9963 -1.1553
 5996TIP3   OH239546   0.394   1.340   7.631 -0.3891  0.2236  0.3514
 5996TIP3    H139547   0.330   1.326   7.701 -0.6418  1.0502  0.2949
 5996TIP3    H239548   0.344   1.380   7.560  0.1221  0.6044  0.2001
 5997TIP3   OH239549   5.194   5.308   8.796  0.3547  0.3424  0.3536
 5997TIP3    H139550   5.260   5.239   8.796  2.3011  2.0685  1.4894
 5997TIP3    H239551   5.143   5.293   8.717  1.9080 -1.2889 -0.3993
 5998TIP3   OH239552   0.719   6.759   0.399  0.6735 -1.0167  0.4194
 5998TIP3    H139553   0.769   6.841   0.405  1.6196 -1.4109 -1.3768
 5998TIP3    H239554   0.628   6.786   0.403  0.9704  0.1627 -0.4072
 5999TIP3   OH239555   5.931   6.252   2.469  0.8640  0.1790 -0.4945
 5999TIP3    H139556   6.004   6.310   2.448  0.6520  0.6167 -0.0262
 5999TIP3    H239557   5.858   6.285   2.417 -0.1394  2.3203  2.0891
 6000TIP3   OH239558   4.661   2.182   2.417  0.6321  0.0468  0.1976
 6000TIP3    H139559   4.589   2.159   2.358 -0.1108  1.2525  0.5974
 6000TIP3    H239560   4.643   2.133   2.498  1.3506 -1.1701 -0.3416
 6001TIP3   OH239561   1.834   4.969   8.838  0.3080 -0.6056  0.1763
 6001TIP3    H139562   1.909   5.028   8.829  1.3122 -1.9650 -0.9244
 6001TIP3    H239563   1.768   5.004   8.779 -0.4545  1.2835  2.0266
 6002TIP3   OH239564   1.358   2.886   8.171 -0.0084 -0.1551 -0.3519
 6002TIP3    H139565   1.351   2.823   8.242 -1.3144 -0.4372 -0.7021
 6002TIP3    H239566   1.433   2.940   8.194 -1.1161  0.5554  1.8932
 6003TIP3   OH239567   6.465   3.809   7.612 -0.8939 -0.0282  0.3358
 6003TIP3    H139568   6.535   3.744   7.611  1.5860  2.4478  0.6369
 6003TIP3    H239569   6.434   3.810   7.703  1.6133  1.6240  1.2726
 6004TIP3   OH239570   5.453   0.208   2.593  0.2268 -0.3378  0.4012
 6004TIP3    H139571   5.357   0.201   2.598  0.1938  0.6493  2.1409
 6004TIP3    H239572   5.485   0.135   2.646  0.4312 -0.5083  0.0420
 6005TIP3   OH239573   2.344   3.684   2.393  1.0691 -0.4944  0.1170
 6005TIP3    H139574   2.348   3.595   2.429 -1.5289 -0.4881  0.5618
 6005TIP3    H239575   2.346   3.741   2.470  2.4194 -0.1364 -0.1539
 6006TIP3   OH239576   1.023   0.466   0.334 -0.2576  0.3641 -0.0190
 6006TIP3    H139577   1.050   0.510   0.254  0.8311  0.6644  0.4951
 6006TIP3    H239578   0.940   0.508   0.358  1.2655  2.9843  1.0664
 6007TIP3   OH239579   6.199   1.009   1.193  0.4150 -0.1094  0.7358
 6007TIP3    H139580   6.295   1.015   1.194  0.4116  0.0203  0.3905
 6007TIP3    H239581   6.172   1.066   1.121  0.1656 -1.2913 -0.1463
 6008TIP3   OH239582   6.569   5.211   2.068 -0.1730 -0.3528 -0.7998
 6008TIP3    H139583   6.568   5.292   2.120 -0.3059  0.2955 -1.7838
 6008TIP3    H239584   6.638   5.226   2.003  0.0984 -1.2166 -0.7186
 6009TIP3   OH239585   6.629   3.033   1.913 -0.2962  0.3185  0.2901
 6009TIP3    H139586   6.611   3.125   1.897  0.5977  0.4313 -0.0688
 6009TIP3    H239587   6.546   2.989   1.890 -0.3321  0.8958 -0.7580
 6010TIP3   OH239588   2.708   4.102   8.179 -0.3643 -0.1335 -0.1752
 6010TIP3    H139589   2.634   4.147   8.138 -0.4919 -0.3100 -0.1431
 6010TIP3    H239590   2.672   4.069   8.262  0.3235  1.6405  0.8804
 6011TIP3   OH239591   3.393   6.620   7.855  0.3114  0.3707 -0.2209
 6011TIP3    H139592   3.459   6.552   7.844 -0.2849 -0.1760 -0.4963
 6011TIP3    H239593   3.443   6.701   7.862  0.9671  0.1566 -1.9294
 6012TIP3   OH239594   4.253   1.123   0.197 -0.0732 -0.6811 -0.0410
 6012TIP3    H139595   4.176   1.145   0.250 -0.1572  1.2871 -0.8854
 6012TIP3    H239596   4.250   1.184   0.124  1.2684 -1.8400 -1.1242
 6013TIP3   OH239597   0.254   2.009   0.337  0.1686 -0.1389 -0.0009
 6013TIP3    H139598   0.217   1.962   0.262 -0.6474 -1.6298  1.2794
 6013TIP3    H239599   0.322   1.950   0.370  1.0798  0.8673 -0.0148
 6014TIP3   OH239600   4.802   4.779   2.667 -0.2146 -0.2806  0.3255
 6014TIP3    H139601   4.746   4.794   2.591  0.7266  0.4724 -0.2386
 6014TIP3    H239602   4.762   4.831   2.737  0.2453  0.9602 -0.3061
 6015TIP3   OH239603   3.711   5.310   8.548  0.0345 -0.2865 -0.1155
 6015TIP3    H139604   3.754   5.228   8.525 -0.1044 -0.2957 -0.3504
 6015TIP3    H239605   3.623   5.301   8.513 -0.4103 -0.5830  1.0548
 6016TIP3   OH239606   2.789   3.507   0.451  0.4273 -0.6786 -0.1450
 6016TIP3    H139607   2.743   3.580   0.409  0.4737 -0.0603  0.8486
 6016TIP3    H239608   2.740   3.430   0.423 -1.5090 -0.0153  1.1891
 6017TIP3   OH239609   1.171   3.238   7.848  0.2506  0.8504  0.1412
 6017TIP3    H139610   1.175   3.213   7.756  1.0024  2.6319 -0.3592
 6017TIP3    H239611   1.256   3.212   7.883  0.1050  0.5075  0.2420
 6018TIP3   OH239612   5.632   5.483   8.433 -0.0052 -0.4420 -0.0456
 6018TIP3    H139613   5.555   5.530   8.401 -2.6861 -3.5256  1.2347
 6018TIP3    H239614   5.675   5.544   8.493 -1.6411  1.2977 -0.5684
 6019TIP3   OH239615   3.692   0.526   7.743 -0.0215  0.7804  0.1790
 6019TIP3    H139616   3.687   0.593   7.675  1.0068 -0.2402 -0.9501
 6019TIP3    H239617   3.670   0.572   7.824  1.3360  2.6489 -0.4480
 6020TIP3   OH239618   4.798   0.869   0.270  0.3076 -0.3137  0.0434
 6020TIP3    H139619   4.764   0.794   0.319  1.2041  0.6288  2.2298
 6020TIP3    H239620   4.871   0.902   0.323  0.0242  2.0238 -0.8956
 6021TIP3   OH239621   6.298   5.462   0.199 -0.5512  0.1912  0.3174
 6021TIP3    H139622   6.296   5.367   0.190  0.5729  0.1481  0.4362
 6021TIP3    H239623   6.210   5.485   0.230 -0.2793 -1.0032  2.1479
 6022TIP3   OH239624   2.949   5.860   0.265  0.5383 -0.2136  0.0137
 6022TIP3    H139625   2.928   5.889   0.353  3.3116  0.0635  0.6717
 6022TIP3    H239626   2.919   5.931   0.208  0.5532  0.5337  0.9225
 6023TIP3   OH239627   5.469   5.945   8.100  0.0891  0.0299 -0.3762
 6023TIP3    H139628   5.395   5.893   8.069 -0.2422 -1.0284  1.9706
 6023TIP3    H239629   5.520   5.885   8.154  3.5202  0.3224 -2.9613
 6024TIP3   OH239630   4.978   5.530   1.905 -0.4245 -0.1797  0.3671
 6024TIP3    H139631   5.007   5.509   1.994  2.0151 -1.6576 -0.6760
 6024TIP3    H239632   5.014   5.617   1.889  2.0269 -1.2151 -0.2228
 6025TIP3   OH239633   5.538   1.001   1.742 -0.4937  0.1275 -0.6126
 6025TIP3    H139634   5.471   1.059   1.707 -0.2472  0.3420 -0.7298
 6025TIP3    H239635   5.616   1.055   1.748 -0.4477  0.0017 -0.0390
 6026TIP3   OH239636   0.247   5.837   8.644  0.5945  0.0813  0.2005
 6026TIP3    H139637   0.342   5.844   8.654  0.5456  0.8755  0.2074
 6026TIP3    H239638   0.228   5.745   8.660  1.0970  0.3224  2.4994
 6027TIP3   OH239639   4.498   1.042   2.302 -0.2182 -0.0548 -0.5357
 6027TIP3    H139640   4.468   0.961   2.342  2.2743 -1.3284 -1.0281
 6027TIP3    H239641   4.594   1.038   2.308  0.0004  3.3433  0.2953
 6028TIP3   OH239642   4.482   1.055   0.319 -0.2372 -0.4123 -0.4271
 6028TIP3    H139643   4.538   1.052   0.241  0.0099  0.1254 -0.2739
 6028TIP3    H239644   4.394   1.069   0.284 -0.1091 -0.0331 -0.6093
 6029TIP3   OH239645   2.983   3.936   0.674  0.2654  0.5272 -0.1119
 6029TIP3    H139646   3.059   3.912   0.726  0.4526  0.9696 -0.1754
 6029TIP3    H239647   2.936   4.000   0.728 -2.1457 -2.4390  1.6509
 6030TIP3   OH239648   1.106   0.653   0.614  0.4808 -0.0404 -0.1089
 6030TIP3    H139649   1.186   0.699   0.590  1.3834 -2.0008 -1.1431
 6030TIP3    H239650   1.065   0.708   0.681  2.3433  1.3386 -0.0278
 6031TIP3   OH239651   6.283   5.631   1.831 -0.1134 -0.4203 -0.2304
 6031TIP3    H139652   6.259   5.578   1.755 -1.1608 -0.5403  0.1700
 6031TIP3    H239653   6.200   5.665   1.863  0.2767 -0.6640  1.0745
 6032TIP3   OH239654   4.959   0.595   0.128 -0.2679 -0.1935  0.5730
 6032TIP3    H139655   4.870   0.622   0.106  0.2723  0.5720 -0.7461
 6032TIP3    H239656   4.988   0.541   0.054  1.5278  2.3119 -0.7164
 6033TIP3   OH239657   3.688   4.655   1.243 -0.3249 -0.5103  0.6716
 6033TIP3    H139658   3.722   4.576   1.284 -2.7589 -0.8011  2.3123
 6033TIP3    H239659   3.606   4.628   1.202 -0.0014  0.6821 -0.8764
 6034TIP3   OH239660   5.644   2.596   6.659 -0.0419 -0.1137  0.0261
 6034TIP3    H139661   5.582   2.590   6.586  0.6075  0.8394 -0.6403
 6034TIP3    H239662   5.658   2.690   6.671  2.5678 -0.2694 -1.0286
 6035TIP3   OH239663   0.356   5.585   7.267 -0.1865  0.4526  0.0468
 6035TIP3    H139664   0.439   5.568   7.223  0.1320 -1.4893  1.2531
 6035TIP3    H239665   0.293   5.597   7.196  0.8390  0.4012 -0.9052
 6036TIP3   OH239666   2.566   2.882   1.003 -0.2109 -0.4625  0.5432
 6036TIP3    H139667   2.504   2.955   1.000  0.0051 -0.3150 -0.6082
 6036TIP3    H239668   2.551   2.834   0.922  0.2562 -1.2107  0.8831
 6037TIP3   OH239669   1.542   6.135   8.798  0.4492  0.1145 -0.2256
 6037TIP3    H139670   1.608   6.080   8.755  1.4881 -0.6026  2.1272
 6037TIP3    H239671   1.491   6.075   8.852 -2.1577  0.6736 -1.8870
 6038TIP3   OH239672   6.269   2.589   6.731 -0.4166 -0.3597  0.0849
 6038TIP3    H139673   6.263   2.494   6.744 -1.9681 -0.3960 -0.6403
 6038TIP3    H239674   6.217   2.627   6.801 -1.2102 -0.1438 -0.6003
 6039TIP3   OH239675   4.223   3.072   7.337  0.5590 -0.0585  0.1156
 6039TIP3    H139676   4.168   3.036   7.268  1.0312 -1.0639  0.2540
 6039TIP3    H239677   4.165   3.130   7.386  0.1158  0.3795 -0.8805
 6040TIP3   OH239678   1.050   4.489   1.911  0.0998  0.0259 -0.0137
 6040TIP3    H139679   1.112   4.449   1.851  0.8439  0.3821  0.5061
 6040TIP3    H239680   1.092   4.485   1.997 -0.8881 -0.3559  0.4704
 6041TIP3   OH239681   0.665   5.094   1.773 -0.5017  0.1642  0.0611
 6041TIP3    H139682   0.648   5.120   1.683 -0.6206 -0.7366 -0.1886
 6041TIP3    H239683   0.580   5.100   1.817 -0.0065  3.2276  0.8598
 6042TIP3   OH239684   2.829   0.310   8.570 -0.1180 -0.2306 -0.3661
 6042TIP3    H139685   2.814   0.389   8.518  1.0066 -0.1086 -0.5327
 6042TIP3    H239686   2.752   0.255   8.553  1.0290 -1.0150 -3.7067
 6043TIP3   OH239687   0.573   4.404   1.199 -0.6155  0.0354  0.0497
 6043TIP3    H139688   0.552   4.493   1.227  0.1226  0.0147  0.7257
 6043TIP3    H239689   0.637   4.374   1.263  1.5709  0.1666 -1.9092
 6044TIP3   OH239690   6.014   0.073   2.447  0.0685 -0.3088 -0.3863
 6044TIP3    H139691   5.997   0.025   2.366 -0.5060 -0.6633 -0.0660
 6044TIP3    H239692   5.934   0.124   2.461  0.7129  0.8326 -0.7771
 6045TIP3   OH239693   3.629   5.857   1.165 -0.1710  0.2134 -0.0870
 6045TIP3    H139694   3.694   5.794   1.196  0.3032  0.9481  0.4326
 6045TIP3    H239695   3.546   5.825   1.201  0.4527  1.4742  2.7768
 6046TIP3   OH239696   2.286   2.591   1.078 -1.1535  0.1903  0.0937
 6046TIP3    H139697   2.227   2.538   1.023  1.5697 -0.7517 -2.1675
 6046TIP3    H239698   2.308   2.533   1.152 -3.4580  0.8173  1.3767
 6047TIP3   OH239699   3.132   4.449   2.414 -0.0455  0.1969  0.2957
 6047TIP3    H139700   3.163   4.447   2.505 -3.1110 -0.4034  1.4754
 6047TIP3    H239701   3.081   4.369   2.405  0.2419  0.2086 -2.0335
 6048TIP3   OH239702   5.228   4.906   7.477 -0.2899 -0.1793  0.4091
 6048TIP3    H139703   5.142   4.864   7.471  0.1504 -1.1669  0.8718
 6048TIP3    H239704   5.290   4.837   7.454  0.4030  0.4596  0.3190
 6049TIP3   OH239705   2.148   6.175   8.193 -0.0859  0.1060 -0.1687
 6049TIP3    H139706   2.219   6.112   8.188  0.4874  0.8075 -1.6222
 6049TIP3    H239707   2.175   6.246   8.134 -1.9696  0.4151 -0.7229
 6050TIP3   OH239708   2.277   3.321   7.586 -0.1573 -0.1175 -0.1326
 6050TIP3    H139709   2.329   3.341   7.508  0.0036  0.6487  0.1684
 6050TIP3    H239710   2.256   3.228   7.577  2.7000 -0.9182  0.5828
 6051TIP3   OH239711   1.435   0.410   7.341  0.3887  0.7388 -0.0433
 6051TIP3    H139712   1.353   0.459   7.348 -0.0385  0.0170  0.1198
 6051TIP3    H239713   1.468   0.430   7.254  0.3724  1.5442  0.1269
 6052TIP3   OH239714   6.465   6.481   2.227 -0.2557  0.1081  0.0804
 6052TIP3    H139715   6.410   6.524   2.293  0.8568  1.0380  0.4538
 6052TIP3    H239716   6.478   6.392   2.260 -0.3455  0.3290  0.7214
 6053TIP3   OH239717   3.719   4.914   1.092  0.4776  0.2220  0.1346
 6053TIP3    H139718   3.690   4.836   1.139  1.7176 -1.3748 -1.5811
 6053TIP3    H239719   3.758   4.880   1.012  1.9716  2.5673 -0.2303
 6054TIP3   OH239720   2.421   4.954   6.873  0.1792 -0.1756  0.1904
 6054TIP3    H139721   2.510   4.925   6.892  0.4069  0.6627  0.4757
 6054TIP3    H239722   2.371   4.928   6.950  0.3752  0.1458  0.4313
 6055TIP3   OH239723   3.573   1.514   7.035  0.6073  0.3136 -0.1043
 6055TIP3    H139724   3.495   1.499   6.982  0.8712  2.2637 -1.1646
 6055TIP3    H239725   3.639   1.543   6.973  2.1879 -1.2225  0.7872
 6056TIP3   OH239726   1.202   3.620   7.783  0.5778  0.5684  0.7731
 6056TIP3    H139727   1.222   3.714   7.779  2.8794  0.1379 -2.8180
 6056TIP3    H239728   1.273   3.582   7.834  0.4662  0.6431  0.9830
 6057TIP3   OH239729   2.354   6.300   0.523  0.4223 -0.2613 -0.1648
 6057TIP3    H139730   2.380   6.289   0.432  1.3760  1.5606 -0.1552
 6057TIP3    H239731   2.434   6.283   0.573  0.5192  1.0442  0.1558
 6058TIP3   OH239732   1.534   3.795   0.991  0.0799 -0.7043  0.0030
 6058TIP3    H139733   1.599   3.748   0.940 -0.7792 -2.3774  0.3932
 6058TIP3    H239734   1.484   3.845   0.927  0.1393 -1.4051 -0.5999
 6059TIP3   OH239735   3.755   1.245   1.922  0.0113 -0.0088 -0.1946
 6059TIP3    H139736   3.666   1.268   1.896 -0.5484 -1.9872 -0.1484
 6059TIP3    H239737   3.745   1.202   2.007  0.7470 -1.9214 -1.0176
 6060TIP3   OH239738   0.519   3.521   2.000  0.7553  0.2167 -0.3875
 6060TIP3    H139739   0.471   3.563   1.929  0.5068  0.2729 -0.1885
 6060TIP3    H239740   0.488   3.565   2.079  1.4646  0.5609 -0.2914
 6061TIP3   OH239741   6.787   1.909   7.664 -0.0209 -0.0583 -0.0996
 6061TIP3    H139742   6.879   1.885   7.676  0.1490  0.5490 -0.1547
 6061TIP3    H239743   6.776   1.989   7.716 -1.0456 -1.2272  1.5935
 6062TIP3   OH239744   0.413   0.017   1.319 -0.0478  0.1149  0.3619
 6062TIP3    H139745   0.374  -0.045   1.381 -1.0710  0.4161  0.0347
 6062TIP3    H239746   0.493   0.047   1.363 -0.2908 -0.3528  1.1406
 6063TIP3   OH239747   1.989   6.140   3.019 -0.1497  0.6132  0.5024
 6063TIP3    H139748   2.044   6.088   3.077  0.5343  1.2838  0.4713
 6063TIP3    H239749   2.041   6.218   3.000 -0.6634  0.7458 -0.4243
 6064TIP3   OH239750   6.145   2.334   7.946 -0.4318  0.6935  0.3974
 6064TIP3    H139751   6.141   2.409   7.886  1.8164  0.7341  0.1996
 6064TIP3    H239752   6.094   2.266   7.902 -0.9700  1.5324 -0.3181
 6065TIP3   OH239753   5.963   2.221   2.268 -0.0952  0.7787  0.6410
 6065TIP3    H139754   5.873   2.192   2.285 -0.2719  1.7483  1.4677
 6065TIP3    H239755   5.960   2.256   2.179  0.0879 -1.4833 -0.3197
 6066TIP3   OH239756   1.081   3.246   2.551 -0.5812  0.1003 -0.0558
 6066TIP3    H139757   1.077   3.162   2.596  0.7893  0.4710  0.8428
 6066TIP3    H239758   1.097   3.309   2.622  0.2514  0.8826 -0.9275
 6067TIP3   OH239759   5.299   2.725   8.380 -0.1375 -0.4809 -0.6523
 6067TIP3    H139760   5.267   2.804   8.425  0.8075 -0.5354  0.1541
 6067TIP3    H239761   5.359   2.685   8.443  2.3134  0.1569 -2.4389
 6068TIP3   OH239762   1.899   4.334   8.232 -0.6003  0.1232  0.3022
 6068TIP3    H139763   1.826   4.393   8.212 -0.0351  1.2881  1.5565
 6068TIP3    H239764   1.902   4.274   8.157 -0.7509  2.1252 -1.3871
 6069TIP3   OH239765   4.619   1.102   7.975  0.6094 -1.1154 -0.3503
 6069TIP3    H139766   4.549   1.156   8.011  0.1140 -1.9233 -0.0660
 6069TIP3    H239767   4.581   1.062   7.897  0.0996 -2.9419  0.7539
 6070TIP3   OH239768   3.250   3.875   0.784  0.3924 -0.1929  1.0691
 6070TIP3    H139769   3.253   3.940   0.854  0.5196  0.6699  0.2819
 6070TIP3    H239770   3.300   3.801   0.818 -0.4008 -0.1969  2.2761
 6071TIP3   OH239771   1.973   5.504   7.757  0.1312  0.3197  0.1852
 6071TIP3    H139772   2.057   5.529   7.719  0.6053  0.1097  1.0698
 6071TIP3    H239773   1.987   5.416   7.792 -0.4901  0.2396  0.2402
 6072TIP3   OH239774   2.206   1.290   1.500 -0.7915  0.3578 -0.0794
 6072TIP3    H139775   2.266   1.216   1.514 -1.0675 -0.0317 -0.8715
 6072TIP3    H239776   2.121   1.258   1.531 -0.5923  0.9502  1.1532
 6073TIP3   OH239777   6.228   2.022   8.002  0.0267  0.4172  0.4702
 6073TIP3    H139778   6.133   2.018   7.996 -0.0443  2.0192 -0.1545
 6073TIP3    H239779   6.259   1.964   7.932 -0.4521 -0.7725  1.2168
 6074TIP3   OH239780   1.364   4.607   2.371 -0.0023 -0.0945 -0.2479
 6074TIP3    H139781   1.339   4.575   2.458 -1.0140  1.0826 -0.0860
 6074TIP3    H239782   1.449   4.649   2.385 -0.3882  0.5334  0.2847
 6075TIP3   OH239783   2.588   6.651   0.819  0.5370  0.1801  0.3326
 6075TIP3    H139784   2.538   6.716   0.868  0.7419  0.2042  0.5133
 6075TIP3    H239785   2.538   6.636   0.740 -1.5731 -2.3146  1.9674
 6076TIP3   OH239786   3.996   0.300   1.807  0.5974  0.6270 -0.1194
 6076TIP3    H139787   4.011   0.303   1.713  1.7812 -2.5976 -0.1315
 6076TIP3    H239788   4.078   0.331   1.846 -0.6269  4.1678  0.0081
 6077TIP3   OH239789   0.212   1.291   0.085  0.4399  0.3882  0.7034
 6077TIP3    H139790   0.205   1.311  -0.008 -0.2132  0.3540  0.7383
 6077TIP3    H239791   0.171   1.205   0.094  1.8903 -0.3161  0.7848
 6078TIP3   OH239792   2.747   3.762   0.163 -0.1924  0.3308  0.0505
 6078TIP3    H139793   2.663   3.748   0.120 -1.1816 -0.3327  2.0770
 6078TIP3    H239794   2.737   3.846   0.208 -0.0247 -0.0574  0.8299
 6079TIP3   OH239795   2.346   0.934   1.562  0.3125 -0.8058  0.4111
 6079TIP3    H139796   2.279   0.886   1.513 -0.4357  0.3108  0.2996
 6079TIP3    H239797   2.396   0.981   1.495  0.2581 -0.4788  0.5946
 6080TIP3   OH239798   0.972   4.598   8.472  0.1297 -0.3865 -0.1108
 6080TIP3    H139799   0.905   4.624   8.535 -0.1823 -1.1111 -0.1371
 6080TIP3    H239800   0.929   4.604   8.387  0.0434 -1.0041 -0.1153
 6081TIP3   OH239801   0.532   0.537   0.139 -0.0360 -0.3260  0.6440
 6081TIP3    H139802   0.442   0.510   0.154 -0.3824  1.0565  1.1325
 6081TIP3    H239803   0.561   0.482   0.065 -0.9956 -1.3366  0.9917
 6082TIP3   OH239804   3.852   5.304   1.131  0.1923 -0.2891 -0.5102
 6082TIP3    H139805   3.784   5.250   1.089  0.5531 -1.8742  0.8086
 6082TIP3    H239806   3.802   5.369   1.182 -0.2529  0.6583 -2.0982
 6083TIP3   OH239807   3.018   1.690   8.040  0.3863  0.1793 -0.5485
 6083TIP3    H139808   2.938   1.706   7.991 -0.0616  2.1346  0.6946
 6083TIP3    H239809   2.996   1.618   8.099 -0.9443  1.4819  0.6469
 6084TIP3   OH239810   5.696   5.486   2.544 -0.3814 -0.1816 -0.2568
 6084TIP3    H139811   5.777   5.530   2.572 -0.2077  0.4241 -1.6134
 6084TIP3    H239812   5.723   5.396   2.524 -0.3234 -0.3574  0.5885
 6085TIP3   OH239813   0.835   4.926   1.980 -0.2173 -0.5221 -0.0193
 6085TIP3    H139814   0.920   4.890   1.956 -0.7058 -0.4968 -1.9715
 6085TIP3    H239815   0.787   4.931   1.897 -2.1802 -0.6751  1.0497
 6086TIP3   OH239816   2.075   4.885   0.675 -0.0828 -0.1637 -0.4690
 6086TIP3    H139817   2.147   4.914   0.731  0.4948 -0.7079 -0.9080
 6086TIP3    H239818   2.023   4.826   0.730  0.4744 -0.6861 -0.4952
 6087TIP3   OH239819   3.509   6.120   0.088  0.1935  0.3081 -0.1682
 6087TIP3    H139820   3.442   6.060   0.118  0.2763  1.3741  2.4174
 6087TIP3    H239821   3.462   6.184   0.034 -0.2748 -0.7301 -1.0219
 6088TIP3   OH239822   3.867   5.744   0.251 -0.1184 -0.0999  0.4700
 6088TIP3    H139823   3.937   5.751   0.316  0.6618 -0.5254 -0.3012
 6088TIP3    H239824   3.912   5.754   0.166 -1.2820  1.7578  0.0196
 6089TIP3   OH239825   6.581   2.832   2.720 -0.5676  0.7580 -0.2170
 6089TIP3    H139826   6.538   2.910   2.685 -1.0442  0.5226 -0.1739
 6089TIP3    H239827   6.543   2.760   2.669 -0.9970  0.4449  0.5278
 6090TIP3   OH239828   4.297   4.125   7.119 -0.8389 -0.1765  0.4546
 6090TIP3    H139829   4.207   4.099   7.138  0.1833 -2.2658  3.1578
 6090TIP3    H239830   4.310   4.207   7.165 -1.2609 -0.0594  0.3595
 6091TIP3   OH239831   0.621   6.303   2.063  0.6097  0.5179  0.3607
 6091TIP3    H139832   0.707   6.341   2.045  1.2447  0.3178  2.6003
 6091TIP3    H239833   0.582   6.362   2.128 -1.3827  1.1142 -1.2729
 6092TIP3   OH239834   4.056   3.823   1.599  0.0615  0.6787 -0.4095
 6092TIP3    H139835   4.146   3.842   1.623 -0.0376  0.0407  0.4962
 6092TIP3    H239836   4.016   3.909   1.586  0.4768  1.0021  0.3903
 6093TIP3   OH239837   4.286   6.613   1.776  0.1222  0.0432 -0.0149
 6093TIP3    H139838   4.375   6.646   1.790 -0.4089  1.2777  0.5840
 6093TIP3    H239839   4.291   6.568   1.692  1.5858 -0.9477  0.5493
 6094TIP3   OH239840   4.427   6.175   2.451  0.0104 -0.2341  0.9934
 6094TIP3    H139841   4.406   6.087   2.482  0.0084 -1.0723 -1.2530
 6094TIP3    H239842   4.522   6.175   2.440 -0.2101 -0.8695 -1.4434
 6095TIP3   OH239843   5.983   0.750   0.401  0.3020  0.5826 -0.1416
 6095TIP3    H139844   5.915   0.800   0.355  2.0006  1.4882 -1.8401
 6095TIP3    H239845   5.978   0.663   0.362 -0.3963  0.3947  0.3413
 6096TIP3   OH239846   2.675   1.870   2.781 -0.0284 -0.2477  0.2449
 6096TIP3    H139847   2.716   1.954   2.762  1.4146 -0.8885  0.3958
 6096TIP3    H239848   2.603   1.891   2.841 -1.6067  1.2186 -1.9801
 6097TIP3   OH239849   4.586   6.004   1.758  0.4146  0.1152 -0.5529
 6097TIP3    H139850   4.614   5.920   1.795  1.7581  0.4088 -0.8417
 6097TIP3    H239851   4.508   5.984   1.707 -1.0045 -0.4474  1.7200
 6098TIP3   OH239852   2.935   5.288   7.542 -0.0566  0.1653 -0.0261
 6098TIP3    H139853   2.897   5.361   7.493 -0.3793  0.5018  0.7083
 6098TIP3    H239854   2.929   5.213   7.483  2.2634  1.1475 -1.6697
 6099TIP3   OH239855   1.203   4.820   0.880  0.0694  0.1682 -0.0388
 6099TIP3    H139856   1.218   4.911   0.856  0.1603  0.6540  1.7632
 6099TIP3    H239857   1.112   4.818   0.911 -0.0736 -0.4531 -0.4704
 6100TIP3   OH239858   1.681   2.952   1.532 -0.4126  0.3106 -0.9837
 6100TIP3    H139859   1.754   2.896   1.506 -1.0874 -0.4728 -1.2216
 6100TIP3    H239860   1.717   3.041   1.530  0.9987 -0.1640  0.4626
 6101TIP3   OH239861   4.545   2.642   2.540 -0.2793  0.5859 -0.1161
 6101TIP3    H139862   4.573   2.613   2.627  0.4525  1.4339 -0.0621
 6101TIP3    H239863   4.589   2.581   2.480  1.1918  1.4957 -0.0004
 6102TIP3   OH239864   0.529   0.243   1.720 -0.1713 -0.0992 -0.6075
 6102TIP3    H139865   0.518   0.322   1.667  1.2602 -0.3826 -1.3983
 6102TIP3    H239866   0.559   0.275   1.805  0.0536  0.2394 -0.8092
 6103TIP3   OH239867   2.301   6.352   0.262 -0.1965  0.4302 -0.1109
 6103TIP3    H139868   2.283   6.438   0.300 -0.7000 -0.1894  1.1119
 6103TIP3    H239869   2.349   6.371   0.181  2.3488  1.7891  1.5692
 6104TIP3   OH239870   1.467   3.062   0.839  0.0136 -0.3473  0.7415
 6104TIP3    H139871   1.474   3.156   0.856 -1.4644 -0.3374  1.4173
 6104TIP3    H239872   1.373   3.047   0.825  0.3762 -1.5095 -0.7114
 6105TIP3   OH239873   3.813   0.539   0.341 -0.4038  0.0993 -0.0084
 6105TIP3    H139874   3.813   0.496   0.255 -1.9308  1.1975 -0.5974
 6105TIP3    H239875   3.791   0.469   0.403  2.4155 -1.0963 -0.2285
 6106TIP3   OH239876   0.401   6.418   2.487 -0.0807  0.3169 -0.1832
 6106TIP3    H139877   0.425   6.416   2.580  0.9322  1.3937 -0.3914
 6106TIP3    H239878   0.387   6.326   2.464  0.8384 -0.0834  0.7575
 6107TIP3   OH239879   4.169   1.720   0.277  0.3394  0.0612 -0.3482
 6107TIP3    H139880   4.125   1.639   0.305 -0.6097 -0.3526 -2.8037
 6107TIP3    H239881   4.235   1.691   0.213  1.0835  1.1115 -0.0923
 6108TIP3   OH239882   5.852   6.764   3.310  0.2319 -0.0548  0.9535
 6108TIP3    H139883   5.871   6.680   3.352 -1.6175 -0.8529  0.3144
 6108TIP3    H239884   5.799   6.811   3.374 -2.4806 -1.2209 -0.2480
 6109TIP3   OH239885   0.135   5.289   2.482  0.1295 -0.0250 -0.0255
 6109TIP3    H139886   0.146   5.376   2.445  1.7382 -1.0103 -2.1488
 6109TIP3    H239887   0.040   5.273   2.479 -0.1059  1.3318 -0.3355
 6110TIP3   OH239888   4.374   1.580   0.510 -0.2850  0.1200 -0.4723
 6110TIP3    H139889   4.386   1.516   0.580  0.1062  2.0010  1.2556
 6110TIP3    H239890   4.402   1.663   0.548 -0.6158  1.3195 -2.6895
 6111TIP3   OH239891   4.428   4.859   0.553 -0.4315 -0.4715  0.3174
 6111TIP3    H139892   4.460   4.789   0.496  3.5300  2.7709 -1.9498
 6111TIP3    H239893   4.464   4.837   0.639  3.5133  0.0738 -0.9966
 6112TIP3   OH239894   1.120   5.250   7.429 -0.5548  0.0437  0.2993
 6112TIP3    H139895   1.170   5.245   7.348  0.9113  1.1260  1.0762
 6112TIP3    H239896   1.153   5.177   7.482  1.2404  1.5036  1.3090
 6113TIP3   OH239897   6.564   3.515   0.640  0.0343  0.0625  0.1939
 6113TIP3    H139898   6.553   3.474   0.726 -2.5553  2.2492  1.0100
 6113TIP3    H239899   6.522   3.454   0.579  0.2521 -0.6241  0.7193
 6114TIP3   OH239900   2.404   5.807   0.865 -0.6158  0.2211 -0.4551
 6114TIP3    H139901   2.332   5.779   0.809  0.1678  1.3542 -2.1108
 6114TIP3    H239902   2.362   5.848   0.941 -1.6952 -1.1622 -0.2754
 6115TIP3   OH239903   6.261   5.699   1.075 -0.5709  0.1187  0.2536
 6115TIP3    H139904   6.186   5.640   1.072  0.0287 -0.6510 -0.1721
 6115TIP3    H239905   6.295   5.699   0.985  0.2769 -0.0027  0.5607
 6116TIP3   OH239906   6.126   4.072   8.075 -0.9019  0.1040 -0.1798
 6116TIP3    H139907   6.113   4.128   8.151  1.3273  2.2906 -1.2931
 6116TIP3    H239908   6.198   4.014   8.099 -1.1819 -0.2268 -0.1236
 6117TIP3   OH239909   2.217   3.260   1.093  0.3615  0.0352 -0.1789
 6117TIP3    H139910   2.171   3.236   1.173  0.7192  1.6986  0.5840
 6117TIP3    H239911   2.159   3.233   1.022  0.0007 -1.3920  0.6269
 6118TIP3   OH239912   5.626   0.032   8.210 -0.4924  0.1968  0.0216
 6118TIP3    H139913   5.698   0.058   8.153 -0.5020 -0.8907 -0.5210
 6118TIP3    H239914   5.575  -0.030   8.156 -1.0192 -0.1377  0.8883
 6119TIP3   OH239915   4.646   1.567   8.082  0.4659  0.5949  0.7675
 6119TIP3    H139916   4.617   1.515   8.157 -0.6316  0.7853  0.4876
 6119TIP3    H239917   4.717   1.516   8.043 -2.2714 -2.1045 -1.0785
 6120TIP3   OH239918   3.476   5.989   1.756 -0.7001 -0.5008 -0.5488
 6120TIP3    H139919   3.392   5.944   1.749 -2.3331  2.1700  0.1700
 6120TIP3    H239920   3.455   6.081   1.740  1.7609  0.5262  1.4368
 6121TIP3   OH239921   1.794   4.550   1.487  0.1708 -0.0942 -0.5023
 6121TIP3    H139922   1.797   4.474   1.428  0.9876 -0.9060  0.5468
 6121TIP3    H239923   1.745   4.519   1.563  0.1134  0.5785 -0.2616
 6122TIP3   OH239924   3.954   6.266   7.825  0.2039 -0.0910 -0.0028
 6122TIP3    H139925   4.016   6.202   7.860 -0.4217 -1.0606 -0.6114
 6122TIP3    H239926   3.908   6.299   7.901  0.6328 -0.2609  0.3339
 6123TIP3   OH239927   3.786   3.235   1.071  0.3047  0.1958  0.2815
 6123TIP3    H139928   3.771   3.313   1.019 -0.3176  0.1544  0.3894
 6123TIP3    H239929   3.849   3.262   1.138  1.0542  0.2663 -0.4459
 6124TIP3   OH239930   6.668   0.370   1.835  0.0136  0.5163 -0.0539
 6124TIP3    H139931   6.587   0.419   1.849 -2.1375 -2.6144 -0.3845
 6124TIP3    H239932   6.678   0.317   1.915  0.1702 -1.1184 -1.1062
 6125TIP3   OH239933   1.860   2.448   8.134  0.4978 -0.4356 -0.4027
 6125TIP3    H139934   1.946   2.428   8.171  1.3461  1.4643 -1.2469
 6125TIP3    H239935   1.862   2.541   8.116 -1.4610 -0.4990 -1.2426
 6126TIP3   OH239936   0.757   2.832   8.211  0.7723  0.2856  0.4893
 6126TIP3    H139937   0.737   2.914   8.165  3.0588  0.6800  0.1187
 6126TIP3    H239938   0.672   2.789   8.218 -0.2962  2.0718 -0.4807
 6127TIP3   OH239939   3.654   4.289   7.100  0.0893 -0.2124 -0.3102
 6127TIP3    H139940   3.653   4.255   7.011  1.0983 -0.3691 -0.2785
 6127TIP3    H239941   3.745   4.276   7.129  0.5863  2.5728 -0.3224
 6128TIP3   OH239942   4.853   6.596   1.369 -0.3328  0.3505  0.5289
 6128TIP3    H139943   4.904   6.516   1.382  1.6212  1.1736 -1.5113
 6128TIP3    H239944   4.762   6.567   1.369  0.0194 -1.2567  3.8067
 6129TIP3   OH239945   2.761   0.457   1.890  0.2586 -0.0838  0.6402
 6129TIP3    H139946   2.807   0.459   1.973 -1.0338 -3.1795  1.5543
 6129TIP3    H239947   2.790   0.376   1.848 -3.1149 -1.4546  0.6441
 6130TIP3   OH239948   3.287   6.096   8.636  0.1323  0.4336 -0.0657
 6130TIP3    H139949   3.341   6.032   8.589  0.7127  0.4823  0.5361
 6130TIP3    H239950   3.341   6.125   8.709  0.2025  2.2552 -0.8021
 6131TIP3   OH239951   6.247   6.589   0.607 -0.2421 -0.0314 -0.4874
 6131TIP3    H139952   6.311   6.610   0.539  0.4811 -1.1309 -0.1962
 6131TIP3    H239953   6.219   6.499   0.586 -0.5828 -0.0963  0.2247
 6132TIP3   OH239954   5.558   4.045   1.916 -0.6069  0.0839  0.1056
 6132TIP3    H139955   5.615   4.094   1.975  0.8278 -0.6424 -0.6299
 6132TIP3    H239956   5.533   3.967   1.966 -1.5996  0.7411  0.6901
 6133TIP3   OH239957   1.254   4.639   8.247 -0.1965 -0.0499  0.0204
 6133TIP3    H139958   1.312   4.665   8.176  0.3050 -0.1768  0.3789
 6133TIP3    H239959   1.310   4.588   8.305 -0.4121  0.7034  0.9033
 6134TIP3   OH239960   2.977   0.596   1.668 -0.9194 -0.4117  0.2920
 6134TIP3    H139961   2.898   0.556   1.703 -0.9335 -1.1954 -0.6121
 6134TIP3    H239962   3.033   0.609   1.745 -0.6127 -2.8776  0.5730
 6135TIP3   OH239963   2.015   4.332   1.576  0.1695  0.5345 -0.0024
 6135TIP3    H139964   1.929   4.323   1.616  0.5826  0.6692  0.9442
 6135TIP3    H239965   2.071   4.273   1.627  0.5329  0.0195 -0.9629
 6136TIP3   OH239966   4.173   2.996   8.238 -0.5366  0.7068  0.8543
 6136TIP3    H139967   4.080   2.988   8.261 -0.5162  0.4532  0.8518
 6136TIP3    H239968   4.172   3.042   8.154 -0.7399 -0.5513  0.1417
 6137TIP3   OH239969   4.271   4.953   0.369  0.6299  0.5564  0.5594
 6137TIP3    H139970   4.182   4.956   0.404  0.5764 -0.2793  0.5044
 6137TIP3    H239971   4.324   4.919   0.441  0.4594 -1.5322 -0.2464
 6138TIP3   OH239972   2.201   0.852   7.776 -0.1218 -0.1770 -0.2316
 6138TIP3    H139973   2.285   0.811   7.794  1.0123  2.0316 -0.0900
 6138TIP3    H239974   2.216   0.906   7.698 -1.6724 -0.4343 -0.7533
 6139TIP3   OH239975   0.976   3.377   1.399  0.1370  0.3111  0.3186
 6139TIP3    H139976   1.015   3.447   1.347  0.6893 -0.1011  0.1697
 6139TIP3    H239977   0.986   3.406   1.490  0.2087  0.5015  0.2502
 6140TIP3   OH239978   3.435   5.373   1.943 -0.2191 -0.0896  0.5314
 6140TIP3    H139979   3.417   5.295   1.995 -0.7018 -1.2978 -1.3863
 6140TIP3    H239980   3.362   5.379   1.882  0.7439  0.8264 -0.5679
 6141TIP3   OH239981   2.897   5.076   8.257  0.0061  0.6152  0.2958
 6141TIP3    H139982   2.862   4.987   8.248 -0.5324  0.6814  1.5305
 6141TIP3    H239983   2.833   5.132   8.213  0.4586  0.3790 -0.6765
 6142TIP3   OH239984   6.551   3.084   1.139  0.0393  0.2496 -0.5515
 6142TIP3    H139985   6.501   3.020   1.190 -0.9948  2.3871  1.3127
 6142TIP3    H239986   6.488   3.153   1.120  0.7802  0.2350 -3.6042
 6143TIP3   OH239987   5.382   1.849   8.703  0.2599 -0.2961  0.0063
 6143TIP3    H139988   5.299   1.888   8.730  0.9697  0.8089  0.6668
 6143TIP3    H239989   5.380   1.761   8.741  0.6285  0.7251  2.6099
 6144TIP3   OH239990   3.134   4.257   0.483  0.2199 -0.1099 -0.0181
 6144TIP3    H139991   3.062   4.278   0.542 -2.1859  1.2078 -3.0992
 6144TIP3    H239992   3.184   4.339   0.478 -0.0410  0.0360 -0.3334
 6145TIP3   OH239993   2.146   6.300   8.457 -0.2534  0.2777  0.0223
 6145TIP3    H139994   2.172   6.370   8.398 -0.2068 -0.0068 -0.2944
 6145TIP3    H239995   2.114   6.231   8.400  0.4941 -0.2952  0.2762
 6146TIP3   OH239996   4.226   4.635   0.530  0.1081  0.5444 -0.3028
 6146TIP3    H139997   4.318   4.628   0.505  0.5734 -0.9724  1.6238
 6146TIP3    H239998   4.178   4.630   0.447  1.7342  1.9698 -1.4010
 6147TIP3   OH239999   6.776   5.998   8.448  0.1104  0.0073 -0.4024
 6147TIP3    H140000   6.698   6.039   8.411 -1.7500 -1.1817  1.9049
 6147TIP3    H240001   6.787   5.917   8.398 -0.8239 -0.3430 -0.0625
 6148TIP3   OH240002   2.107   0.448   0.921  0.5567  0.1543  0.3317
 6148TIP3    H140003   2.044   0.378   0.904  1.4465 -0.6089  0.0336
 6148TIP3    H240004   2.101   0.505   0.845  0.1496  0.1449  0.3565
 6149TIP3   OH240005   3.257   4.585   8.533 -0.0017 -0.1186  0.1776
 6149TIP3    H140006   3.303   4.606   8.452 -0.8507 -1.8907 -0.8257
 6149TIP3    H240007   3.203   4.509   8.511 -2.8316  1.3524  1.4839
 6150TIP3   OH240008   3.143   1.385   0.943  0.6467  0.4366 -0.7235
 6150TIP3    H140009   3.054   1.350   0.948  0.2970  1.3300 -0.4601
 6150TIP3    H240010   3.187   1.331   0.877  0.6854 -1.6403  0.9013
 6151TIP3   OH240011   0.265   0.761   7.730  0.0562 -0.3390  0.1308
 6151TIP3    H140012   0.311   0.710   7.664 -1.0251 -1.0185 -0.1154
 6151TIP3    H240013   0.282   0.852   7.706  0.6880 -0.5735 -0.3447
 6152TIP3   OH240014   2.513   2.047   6.776 -0.0933 -0.1462  0.2966
 6152TIP3    H140015   2.562   2.106   6.833 -1.4690  0.2545  1.1319
 6152TIP3    H240016   2.464   2.105   6.718  1.4230 -0.5524 -1.4718
 6153TIP3   OH240017   0.294   1.636   7.761  0.2875 -0.7068  0.1676
 6153TIP3    H140018   0.300   1.730   7.779 -2.4268 -0.3508 -0.3242
 6153TIP3    H240019   0.229   1.604   7.823  1.6232 -2.4395  0.7500
 6154TIP3   OH240020   2.992   4.921   1.407  0.3053  0.4330 -0.4600
 6154TIP3    H140021   2.925   4.913   1.338  0.8250 -1.1088 -0.8251
 6154TIP3    H240022   3.073   4.939   1.359  0.4120  0.8371 -0.1306
 6155TIP3   OH240023   0.496   6.552   7.704 -0.4656 -0.2438 -0.1056
 6155TIP3    H140024   0.500   6.645   7.680  1.9750 -0.3787 -0.3866
 6155TIP3    H240025   0.490   6.506   7.620 -0.1512 -0.3997 -0.0426
 6156TIP3   OH240026   1.665   4.407   7.621 -0.0912 -0.2577 -0.1791
 6156TIP3    H140027   1.725   4.332   7.617  2.0844  1.4019 -0.5497
 6156TIP3    H240028   1.619   4.405   7.537  0.9321 -0.4056 -0.7436
 6157TIP3   OH240029   2.170   4.125   8.103  0.1351 -0.2874 -0.4349
 6157TIP3    H140030   2.121   4.101   8.181 -0.3657 -0.9941 -0.9575
 6157TIP3    H240031   2.109   4.181   8.053  1.2400  2.0740  0.7173
 6158TIP3   OH240032   5.746   5.962   2.257 -0.4608 -0.3845 -0.1162
 6158TIP3    H140033   5.650   5.967   2.248 -0.6937 -2.1981  0.8832
 6158TIP3    H240034   5.762   5.975   2.350  0.4053  1.0016 -0.4209
 6159TIP3   OH240035   3.983   4.110   8.760 -0.2913  0.2998  0.2418
 6159TIP3    H140036   3.951   4.159   8.836 -2.5454  1.6836 -1.4844
 6159TIP3    H240037   3.918   4.041   8.747  0.6405 -0.5829  0.1553
 6160TIP3   OH240038   2.590   2.253   1.364 -0.3509 -0.3230 -0.4631
 6160TIP3    H140039   2.556   2.200   1.436  2.0193  0.9447  1.7373
 6160TIP3    H240040   2.584   2.195   1.288 -3.5312 -1.5020  0.4971
 6161TIP3   OH240041   4.565   1.193   1.262 -0.7629  0.1245 -0.2568
 6161TIP3    H140042   4.538   1.127   1.198 -2.0616 -0.8032  1.1785
 6161TIP3    H240043   4.645   1.157   1.301 -1.6355 -0.7814  0.7353
 6162TIP3   OH240044   4.867   0.084   8.696 -0.3613 -0.5991  0.0121
 6162TIP3    H140045   4.940   0.023   8.692  1.6764  1.7060  0.0624
 6162TIP3    H240046   4.821   0.073   8.613  1.6061 -0.2954 -1.1647
 6163TIP3   OH240047   0.568   4.050   2.088 -0.0525 -0.0309  0.2505
 6163TIP3    H140048   0.530   3.981   2.033  1.0660  0.2138 -0.8497
 6163TIP3    H240049   0.610   4.002   2.160 -0.5115 -0.4081  0.2765
 6164TIP3   OH240050   3.155   2.625   7.939 -0.0824  0.4669  0.8431
 6164TIP3    H140051   3.141   2.709   7.983 -1.9787  0.2070  0.8568
 6164TIP3    H240052   3.143   2.560   8.009  1.8129  0.1678  0.9296
 6165TIP3   OH240053   4.412   6.757   0.039  0.4119 -0.4383 -0.3940
 6165TIP3    H140054   4.475   6.755   0.111 -0.1516 -0.5562  0.1042
 6165TIP3    H240055   4.330   6.784   0.080  0.7485  2.7406 -1.5097
 6166TIP3   OH240056   5.392   0.406   1.240 -0.7652 -0.3659  0.4365
 6166TIP3    H140057   5.438   0.468   1.183  0.6624 -1.6827  0.0968
 6166TIP3    H240058   5.300   0.435   1.237 -0.8530 -0.5773 -2.8307
 6167TIP3   OH240059   6.217   5.286   8.476  0.0438 -0.3563  0.7467
 6167TIP3    H140060   6.247   5.237   8.552  0.4021  0.4172  1.1125
 6167TIP3    H240061   6.253   5.374   8.488  0.5732 -0.3774 -0.6015
 6168TIP3   OH240062   2.540   1.943   8.731 -0.1430 -0.2126 -0.1195
 6168TIP3    H140063   2.463   1.985   8.770  0.5231  0.1741  0.8259
 6168TIP3    H240064   2.608   2.010   8.736  1.4152 -1.8275  2.8946
 6169TIP3   OH240065   3.388   0.165   7.868  0.0757  0.1427  0.2744
 6169TIP3    H140066   3.468   0.118   7.845  0.2607  1.2833 -1.6537
 6169TIP3    H240067   3.410   0.258   7.855 -1.5921  0.4667 -0.5010
 6170TIP3   OH240068   3.208   4.126   6.949  0.3286 -0.7808  0.0605
 6170TIP3    H140069   3.283   4.068   6.932 -0.5537 -2.3655  1.2687
 6170TIP3    H240070   3.134   4.066   6.958 -0.4579  0.4298  2.4273
 6171TIP3   OH240071   3.974   2.786   7.811 -0.0484  0.2098  0.3230
 6171TIP3    H140072   4.039   2.855   7.820 -0.3121  0.8085 -1.9321
 6171TIP3    H240073   4.019   2.717   7.762 -0.4321 -0.3438  0.7351
 6172TIP3   OH240074   6.006   3.655   6.713 -0.6336  0.7856  0.2530
 6172TIP3    H140075   5.952   3.589   6.671  0.3985 -0.6875  1.1618
 6172TIP3    H240076   6.031   3.715   6.643 -0.8239 -0.3229 -0.7752
 6173TIP3   OH240077   4.092   4.360   0.009 -0.5008  0.2130  0.4186
 6173TIP3    H140078   4.019   4.318   0.054  0.6274  0.3382  2.5250
 6173TIP3    H240079   4.144   4.398   0.080  1.3915  0.4562 -1.0261
 6174TIP3   OH240080   2.298   1.834   8.482  0.5429  0.3314 -0.0527
 6174TIP3    H140081   2.216   1.881   8.467  0.8532  0.8832 -0.0651
 6174TIP3    H240082   2.317   1.791   8.399  1.7227  2.5338 -1.0073
 6175TIP3   OH240083   1.414   5.187   7.826 -0.3060 -0.4238 -0.1391
 6175TIP3    H140084   1.404   5.145   7.741 -0.4523  1.6479 -1.1889
 6175TIP3    H240085   1.503   5.223   7.824 -1.5902  3.0061 -1.0701
 6176TIP3   OH240086   0.586   5.183   8.694 -0.6122 -0.3763  0.2643
 6176TIP3    H140087   0.589   5.207   8.787  1.3185  0.1661  0.0992
 6176TIP3    H240088   0.504   5.135   8.684 -0.4434 -1.2246  2.4456
 6177TIP3   OH240089   2.512   2.039   2.049 -0.1943 -0.5216  0.5724
 6177TIP3    H140090   2.506   2.084   1.965 -1.0414  0.1425  0.9716
 6177TIP3    H240091   2.564   1.961   2.031 -1.3459 -1.0143 -0.8509
 6178TIP3   OH240092   6.297   0.212   0.714  0.2455  0.7699 -0.3982
 6178TIP3    H140093   6.229   0.158   0.755 -0.2631  1.9666  0.4188
 6178TIP3    H240094   6.362   0.226   0.783 -0.4310  2.4922 -0.0618
 6179TIP3   OH240095   2.636   2.758   0.486  0.1481 -0.6632  0.2555
 6179TIP3    H140096   2.558   2.704   0.469  1.2048 -2.1072 -0.1669
 6179TIP3    H240097   2.709   2.698   0.478  1.3427  0.7020  0.5285
 6180TIP3   OH240098   2.710   2.787   2.638  0.2407  0.1135 -0.0814
 6180TIP3    H140099   2.614   2.783   2.645 -0.0495  1.1018 -2.3461
 6180TIP3    H240100   2.740   2.804   2.727 -1.5647 -1.6265  0.9403
 6181TIP3   OH240101   5.195   0.047   0.092  0.3487 -0.0780 -1.1823
 6181TIP3    H140102   5.283   0.011   0.099  1.0107  1.5251 -0.6886
 6181TIP3    H240103   5.154  -0.002   0.021  1.1347 -1.7982 -0.5086
 6182TIP3   OH240104   5.653   3.505   8.156 -0.3328  0.7375 -0.2867
 6182TIP3    H140105   5.705   3.424   8.161  0.7235  1.3887 -0.3905
 6182TIP3    H240106   5.591   3.489   8.086  1.2945  0.7893 -1.8177
 6183TIP3   OH240107   3.838   1.440   1.727 -0.3950 -0.2732  0.0096
 6183TIP3    H140108   3.906   1.414   1.664 -0.6926  0.0953 -0.4753
 6183TIP3    H240109   3.827   1.363   1.783  0.2513 -0.4202 -0.0524
 6184TIP3   OH240110   3.062   3.146   8.168  0.3351  0.2792  0.4342
 6184TIP3    H140111   3.129   3.130   8.233  0.0218 -3.9745 -0.0431
 6184TIP3    H240112   2.987   3.178   8.218  1.3251  0.9473  1.5362
 6185TIP3   OH240113   6.199   0.659   1.409 -0.0465 -0.3813 -0.1852
 6185TIP3    H140114   6.197   0.567   1.439  1.3957 -0.4181 -0.1470
 6185TIP3    H240115   6.120   0.697   1.447 -1.1061 -1.7908 -0.8515
 6186TIP3   OH240116   2.481   4.166   8.022  0.3453 -0.2889  0.5009
 6186TIP3    H140117   2.488   4.134   7.932  2.0508  1.0196  0.1036
 6186TIP3    H240118   2.392   4.143   8.050  0.0192 -1.3159 -1.2706
 6187TIP3   OH240119   5.462   5.289   1.207 -0.0185 -0.4837 -0.2862
 6187TIP3    H140120   5.472   5.248   1.121  0.0557 -0.4596 -0.2892
 6187TIP3    H240121   5.552   5.298   1.240  0.0568  0.7853 -0.8028
 6188TIP3   OH240122   3.039   1.153   7.700 -0.0329  0.2737 -0.4438
 6188TIP3    H140123   3.082   1.212   7.762  1.2048  0.0374 -1.0337
 6188TIP3    H240124   2.972   1.108   7.751  0.3197  0.7832  0.4828
 6189TIP3   OH240125   3.115   2.928   1.665  0.0945 -0.0100  0.2217
 6189TIP3    H140126   3.031   2.973   1.656  0.3461  0.3097 -0.6828
 6189TIP3    H240127   3.093   2.843   1.704 -0.2603  1.3160  3.1840
 6190TIP3   OH240128   1.647   2.660   0.156 -1.0735  0.2577 -0.2276
 6190TIP3    H140129   1.638   2.605   0.234  1.1145 -0.4495 -0.4077
 6190TIP3    H240130   1.699   2.607   0.096  0.0440  2.0569 -0.9098
 6191TIP3   OH240131   2.169   0.377   0.188  0.1153 -0.6936 -0.5349
 6191TIP3    H140132   2.131   0.299   0.228  0.6069 -0.1904  0.9813
 6191TIP3    H240133   2.257   0.383   0.225 -1.0700  2.5139  2.3854
 6192TIP3   OH240134   5.546   2.050   1.577 -0.9733 -0.1184  0.0218
 6192TIP3    H140135   5.531   2.135   1.620  0.5029 -0.3551  1.1162
 6192TIP3    H240136   5.557   1.989   1.650 -0.0791 -0.8702 -0.7206
 6193TIP3   OH240137   4.312   2.687   2.416  0.7016 -0.3350 -0.7090
 6193TIP3    H140138   4.329   2.637   2.337  0.2742 -1.0112 -0.3788
 6193TIP3    H240139   4.392   2.679   2.468  1.6107  1.4214 -1.7303
 6194TIP3   OH240140   2.757   4.521   7.325 -0.0394  0.3591 -0.0134
 6194TIP3    H140141   2.785   4.431   7.306 -1.4628 -0.3388  1.0610
 6194TIP3    H240142   2.672   4.529   7.283  0.6830  1.7106 -1.3049
 6195TIP3   OH240143   2.052   1.492   8.005  0.3932 -0.4029  0.4062
 6195TIP3    H140144   1.957   1.491   8.019  0.5167 -1.1588  1.3196
 6195TIP3    H240145   2.071   1.409   7.962  0.6742 -0.4091  0.5403
 6196TIP3   OH240146   0.880   3.225   0.876  0.6756  0.3845 -0.7567
 6196TIP3    H140147   0.804   3.275   0.904 -0.9077 -1.7422 -1.0372
 6196TIP3    H240148   0.911   3.181   0.956  0.6788  0.0725 -0.9279
 6197TIP3   OH240149   0.275   1.942   7.820 -0.4521 -0.1081 -0.3052
 6197TIP3    H140150   0.333   1.983   7.883 -1.3993  2.7332 -1.1198
 6197TIP3    H240151   0.202   1.908   7.872  0.7393 -1.5696  0.4712
 6198TIP3   OH240152   1.318   1.252   2.614  0.2941  0.0434  0.4691
 6198TIP3    H140153   1.236   1.230   2.657  0.0012 -0.3617 -0.2827
 6198TIP3    H240154   1.349   1.170   2.577  0.7422  0.3079  0.2471
 6199TIP3   OH240155   2.292   4.097   1.600 -0.8505 -0.3808  0.8716
 6199TIP3    H140156   2.281   4.162   1.531 -0.8881 -0.4928  0.7721
 6199TIP3    H240157   2.273   4.144   1.681  1.2004  0.3079  1.0094
 6200TIP3   OH240158   1.736   5.312   0.723  0.2397  0.5098  0.3272
 6200TIP3    H140159   1.769   5.332   0.636 -1.4889  0.5914 -0.3349
 6200TIP3    H240160   1.810   5.269   0.767  1.6354  1.8492 -0.6239
 6201TIP3   OH240161   6.541   1.322   0.455  0.3853 -0.1667  0.2119
 6201TIP3    H140162   6.616   1.264   0.441 -0.1676 -0.6927 -0.6675
 6201TIP3    H240163   6.541   1.338   0.549  1.0963 -0.8600  0.3445
 6202TIP3   OH240164   5.741   2.393   2.036  0.2010  0.0950  0.1474
 6202TIP3    H140165   5.736   2.302   2.066  1.6049 -0.1195 -0.2118
 6202TIP3    H240166   5.736   2.445   2.116 -1.2931 -0.2366  0.3123
 6203TIP3   OH240167   1.206   4.694   6.746 -0.3654 -1.1230  0.0863
 6203TIP3    H140168   1.234   4.760   6.682  0.9211 -0.5946  1.1363
 6203TIP3    H240169   1.192   4.615   6.694  1.1217 -0.8395 -0.8222
 6204TIP3   OH240170   6.119   4.368   2.791 -0.5081 -0.1576  0.3894
 6204TIP3    H140171   6.177   4.300   2.824 -0.0316  1.1307  2.4588
 6204TIP3    H240172   6.039   4.322   2.765  0.6765 -1.7402 -0.6039
 6205TIP3   OH240173   2.253   2.190   8.564 -0.0706 -0.7049  0.1452
 6205TIP3    H140174   2.326   2.164   8.509  0.2550 -1.3306  0.8551
 6205TIP3    H240175   2.176   2.152   8.522  0.2000 -1.3561  0.2178
 6206TIP3   OH240176   4.949   4.474   1.747 -0.5005  0.1294  0.8906
 6206TIP3    H140177   4.998   4.556   1.749 -0.0774 -0.1257  1.3659
 6206TIP3    H240178   5.014   4.407   1.767 -1.1356 -0.1666  2.1277
 6207TIP3   OH240179   6.572   5.855   8.065 -0.0473 -0.3270 -0.0670
 6207TIP3    H140180   6.587   5.761   8.063  0.3707 -0.3070  1.3586
 6207TIP3    H240181   6.659   5.894   8.068 -0.2204  0.0986 -0.4900
 6208TIP3   OH240182   2.372   2.087   0.712  0.1584 -0.0229  0.1097
 6208TIP3    H140183   2.453   2.135   0.730  0.9200 -0.7328 -1.2795
 6208TIP3    H240184   2.342   2.120   0.627  0.0042 -1.0543 -0.2599
 6209TIP3   OH240185   1.052   0.088   7.099  0.0193  0.5126 -0.5123
 6209TIP3    H140186   0.965   0.050   7.088  0.8067 -0.6732 -3.7983
 6209TIP3    H240187   1.103   0.021   7.144 -0.4596  0.8342  0.5577
 6210TIP3   OH240188   3.525   5.584   7.581  0.1365  0.0942  0.6965
 6210TIP3    H140189   3.542   5.502   7.627 -0.2786  0.4769  1.5515
 6210TIP3    H240190   3.441   5.571   7.538  0.3864 -0.1557  0.2674
 6211TIP3   OH240191   3.342   6.276   7.878 -0.2291 -0.0643  0.5662
 6211TIP3    H140192   3.282   6.337   7.920  0.7350 -0.3515  2.4715
 6211TIP3    H240193   3.415   6.330   7.849  0.3252 -0.1854  1.6772
 6212TIP3   OH240194   1.944   6.425   7.340  0.3714  0.1584 -0.0635
 6212TIP3    H140195   1.899   6.502   7.376 -0.1555  0.1332 -0.6513
 6212TIP3    H240196   1.877   6.378   7.291  0.4590 -1.2015  1.0728
 6213TIP3   OH240197   1.186   0.496   8.810 -0.2400  0.6044 -0.0575
 6213TIP3    H140198   1.235   0.537   8.882 -0.5042 -0.2393  0.6111
 6213TIP3    H240199   1.144   0.569   8.765 -1.1296  1.0552  1.4317
 6214TIP3   OH240200   5.255   3.339   2.302 -0.1650  0.2135 -0.1437
 6214TIP3    H140201   5.179   3.373   2.351  1.0018  0.2901  1.6940
 6214TIP3    H240202   5.276   3.256   2.345  1.4784  0.7432  0.1146
 6215TIP3   OH240203   6.632   3.682   2.037 -1.0424 -0.8772  0.4506
 6215TIP3    H140204   6.595   3.755   2.087 -0.0076 -0.5565  0.7667
 6215TIP3    H240205   6.571   3.610   2.052 -1.0196 -0.6511  1.7954
 6216TIP3   OH240206   0.678   5.235   0.522  0.1481  0.1845  0.3408
 6216TIP3    H140207   0.614   5.168   0.498  1.8005 -1.2053 -0.4085
 6216TIP3    H240208   0.637   5.318   0.497 -2.0329 -0.4751  1.4547
 6217TIP3   OH240209   2.575   1.388   6.983  0.6194 -0.3300 -0.4545
 6217TIP3    H140210   2.562   1.439   6.903  0.5769  0.5953  0.1256
 6217TIP3    H240211   2.617   1.449   7.044 -1.5333 -0.2514  1.0471
 6218TIP3   OH240212   3.315   0.203   0.578 -0.2022  0.5345 -0.0077
 6218TIP3    H140213   3.289   0.172   0.665 -0.4736  1.3858  0.2217
 6218TIP3    H240214   3.408   0.220   0.586  0.4874 -2.3468 -0.7793
 6219TIP3   OH240215   0.166   1.105   1.054  0.3708 -0.3530 -0.8069
 6219TIP3    H140216   0.112   1.040   1.098 -1.6732  1.3151 -0.7185
 6219TIP3    H240217   0.174   1.073   0.964  0.8931 -1.5595 -0.3614
 6220TIP3   OH240218   4.605   1.347   7.020  0.5537  0.1851 -0.2735
 6220TIP3    H140219   4.510   1.338   7.012  0.4087  2.1413 -1.2056
 6220TIP3    H240220   4.639   1.304   6.942  0.3290  0.7695 -0.7042
 6221TIP3   OH240221   3.119   1.060   0.287 -0.5205 -0.8963 -0.6740
 6221TIP3    H140222   3.094   1.024   0.202  0.1523  1.1310 -1.8037
 6221TIP3    H240223   3.065   1.139   0.296  1.6616  0.6898 -0.7647
 6222TIP3   OH240224   5.060   4.516   8.788 -0.1536  0.3278 -0.0259
 6222TIP3    H140225   5.112   4.548   8.715  0.0426 -0.2219 -0.1322
 6222TIP3    H240226   5.037   4.426   8.763  0.6064 -0.1513  0.9490
 6223TIP3   OH240227   3.277   0.347   0.918  0.3708  0.2457 -0.7141
 6223TIP3    H140228   3.299   0.379   1.005 -0.9931  0.1762 -0.3298
 6223TIP3    H240229   3.347   0.284   0.898  0.8374  0.4513  0.2057
 6224TIP3   OH240230   5.644   1.071   0.024  0.0098  0.4426  0.0476
 6224TIP3    H140231   5.589   1.112   0.091 -0.5957 -0.7554  0.3201
 6224TIP3    H240232   5.586   1.061  -0.051  0.0011 -0.3432  0.1512
 6225TIP3   OH240233   6.497   4.780   8.772  0.4125 -0.0222  0.3249
 6225TIP3    H140234   6.568   4.844   8.768  0.4619 -0.0931  0.0700
 6225TIP3    H240235   6.448   4.804   8.850  2.2567 -1.5580  2.0746
 6226TIP3   OH240236   1.315   3.033   1.151 -0.1927 -0.0204 -0.6213
 6226TIP3    H140237   1.274   3.043   1.064 -2.4343 -0.8795  0.2549
 6226TIP3    H240238   1.285   3.110   1.199 -0.8001 -0.6510  0.0298
 6227TIP3   OH240239   1.520   6.560   1.147  0.1845  0.3961  0.1379
 6227TIP3    H140240   1.427   6.581   1.137 -0.0720 -0.1132  1.2377
 6227TIP3    H240241   1.552   6.621   1.214  0.2458 -0.4595  0.9082
 6228TIP3   OH240242   1.493   4.615   0.814  0.4855 -0.2770 -0.3017
 6228TIP3    H140243   1.516   4.531   0.775  1.2474 -0.2277  0.0142
 6228TIP3    H240244   1.398   4.620   0.808  0.5872 -0.0853 -2.5265
 6229TIP3   OH240245   4.255   3.631   1.162 -0.0759 -0.0751 -0.1467
 6229TIP3    H140246   4.198   3.625   1.239 -0.0988  2.1050  0.0836
 6229TIP3    H240247   4.341   3.651   1.198  0.1460 -0.1520 -0.6364
 6230TIP3   OH240248   4.144   3.543   2.041 -0.2389 -0.1813 -0.2115
 6230TIP3    H140249   4.050   3.532   2.050 -0.7435  0.8582 -3.0985
 6230TIP3    H240250   4.159   3.637   2.054  0.3516 -0.2737 -0.1646
 6231TIP3   OH240251   1.047   0.684   0.151  0.1808  0.0870 -0.5365
 6231TIP3    H140252   0.964   0.674   0.104 -0.3167 -0.7412  0.4724
 6231TIP3    H240253   1.023   0.726   0.234  0.1958 -3.0402  1.2013
 6232TIP3   OH240254   2.264   6.033   7.667 -0.3843 -0.5584  0.1229
 6232TIP3    H140255   2.306   6.102   7.718 -0.2657 -1.4211  1.2173
 6232TIP3    H240256   2.320   6.025   7.589 -0.3903  0.5447 -0.0187
 6233TIP3   OH240257   3.289   3.125   8.296  0.1225 -0.4765 -0.1125
 6233TIP3    H140258   3.287   3.065   8.370  0.2428  0.0242  0.2969
 6233TIP3    H240259   3.333   3.203   8.329  0.6583 -0.4518 -0.8634
 6234TIP3   OH240260   4.694   1.093   0.960  0.5716  0.7611 -0.6241
 6234TIP3    H140261   4.604   1.069   0.938  1.0059 -0.6802 -0.9311
 6234TIP3    H240262   4.740   1.094   0.876  1.6823 -2.3388 -0.1506
 6235TIP3   OH240263   5.847   1.121   0.672  0.1415 -0.0571 -0.1302
 6235TIP3    H140264   5.777   1.137   0.735  0.4352 -0.7584  0.3887
 6235TIP3    H240265   5.803   1.076   0.600  0.6479 -4.4278  1.9836
 6236TIP3   OH240266   5.385   2.245   7.128 -0.0326 -0.1109 -0.2195
 6236TIP3    H140267   5.381   2.200   7.044  0.4358 -0.5465 -0.0157
 6236TIP3    H240268   5.298   2.282   7.140 -1.3454 -3.2462  0.8637
 6237TIP3   OH240269   5.508   1.518   1.697  0.8616 -0.5740  0.6108
 6237TIP3    H140270   5.470   1.433   1.720 -0.3268  0.0151  0.8849
 6237TIP3    H240271   5.532   1.556   1.782  0.9234 -0.4170  0.5216
 6238TIP3   OH240272   5.024   5.695   0.147  0.6217 -0.1329 -0.1381
 6238TIP3    H140273   4.997   5.782   0.174  0.7768  0.2516 -1.1963
 6238TIP3    H240274   5.091   5.709   0.081  0.1931 -1.0398 -0.7949
 6239TIP3   OH240275   6.440   2.660   2.547 -0.8279  0.4447  0.3919
 6239TIP3    H140276   6.349   2.672   2.519  0.0653  1.4382 -2.3467
 6239TIP3    H240277   6.472   2.586   2.496  0.2791  0.9447  0.3293
 6240TIP3   OH240278   0.149   0.310   7.753 -0.6165 -0.0018  0.0458
 6240TIP3    H140279   0.188   0.223   7.755 -2.4874 -0.8713  0.3573
 6240TIP3    H240280   0.164   0.341   7.664  0.2079 -0.5585 -0.0209
 6241TIP3   OH240281   4.732   0.312   1.533  0.1025 -0.1683  0.0283
 6241TIP3    H140282   4.682   0.320   1.452  0.8014 -1.2778 -0.5410
 6241TIP3    H240283   4.808   0.369   1.521 -0.4030  0.5933  0.4030
 6242TIP3   OH240284   2.798   1.189   0.026 -0.0367 -0.0085  0.3502
 6242TIP3    H140285   2.843   1.200   0.109 -0.0150 -2.4570  0.7375
 6242TIP3    H240286   2.706   1.182   0.049 -0.0791 -0.2356  0.1170
 6243TIP3   OH240287   2.968   6.058   8.649  0.3777 -0.0291  0.0014
 6243TIP3    H140288   3.045   6.110   8.671 -0.2297  0.8129  0.1776
 6243TIP3    H240289   2.992   6.012   8.569  0.2105  2.1198 -1.3615
 6244TIP3   OH240290   0.230   4.045   2.019  0.3798 -0.3477  0.1765
 6244TIP3    H140291   0.309   4.048   2.074  0.6911  0.1545 -0.2861
 6244TIP3    H240292   0.241   4.117   1.957 -1.2472  0.8066  1.1717
 6245TIP3   OH240293   1.106   6.630   0.900  0.3482 -0.1481  0.3932
 6245TIP3    H140294   1.046   6.704   0.909  0.5204  0.0157  0.2003
 6245TIP3    H240295   1.183   6.655   0.950  0.2191 -0.4038  0.7293
 6246TIP3   OH240296   6.018   2.573   1.454 -0.3888  0.0975 -0.2048
 6246TIP3    H140297   6.084   2.525   1.503 -0.9606 -1.1942 -0.6594
 6246TIP3    H240298   5.971   2.623   1.521  0.5623  0.4580  0.2083
 6247TIP3   OH240299   4.006   5.407   6.991 -0.3537  0.0865  0.2541
 6247TIP3    H140300   4.045   5.385   7.076 -0.2192  0.2784  0.2433
 6247TIP3    H240301   4.055   5.353   6.928  0.7601  1.2327  0.0923
 6248TIP3   OH240302   5.971   5.024   7.303 -0.0758 -0.5197 -0.3212
 6248TIP3    H140303   6.063   5.029   7.330 -0.3454  2.4103  0.3014
 6248TIP3    H240304   5.923   5.013   7.385 -0.3894 -0.1881 -0.4597
 6249TIP3   OH240305   1.885   5.968   1.503 -0.1505 -0.0028 -0.1912
 6249TIP3    H140306   1.803   5.993   1.461 -0.2956  3.1473  1.5797
 6249TIP3    H240307   1.947   5.955   1.431 -1.8282 -1.0551 -1.4948
 6250TIP3   OH240308   1.598   0.287   1.295 -0.3156 -0.5110 -0.0580
 6250TIP3    H140309   1.596   0.361   1.355  0.3003  0.3251 -1.0274
 6250TIP3    H240310   1.593   0.210   1.351 -0.1309  0.2418  1.0293
 6251TIP3   OH240311   6.403   4.834   0.143  0.6201  0.3480  0.3075
 6251TIP3    H140312   6.421   4.816   0.236  0.7485 -2.2366 -0.1468
 6251TIP3    H240313   6.334   4.772   0.120  0.4159  1.1314 -1.2632
 6252TIP3   OH240314   3.105   0.420   0.457  0.7990 -0.0924  0.3296
 6252TIP3    H140315   3.130   0.332   0.485  2.3216  0.4352  0.7675
 6252TIP3    H240316   3.081   0.465   0.538 -2.3553 -0.7366 -0.1251
 6253TIP3   OH240317   5.196   1.035   1.463  0.0224 -0.6898  0.2813
 6253TIP3    H140318   5.227   1.123   1.442 -0.8022 -0.7738 -1.4601
 6253TIP3    H240319   5.127   1.050   1.529  1.3882 -0.2579  1.6753
 6254TIP3   OH240320   0.540   2.216   1.832  0.0368  0.0343 -0.0943
 6254TIP3    H140321   0.508   2.243   1.919 -0.5158 -0.8451 -0.0153
 6254TIP3    H240322   0.530   2.121   1.831 -0.1590  0.0561 -1.2146
 6255TIP3   OH240323   3.481   5.534   8.418  0.4527  0.0012 -0.0207
 6255TIP3    H140324   3.510   5.585   8.494  0.7647  0.8308 -0.6784
 6255TIP3    H240325   3.535   5.566   8.346 -1.6750  1.1888 -1.1846
 6256TIP3   OH240326   5.270   0.304   1.558  0.2150  0.3647 -0.0921
 6256TIP3    H140327   5.308   0.389   1.534  0.1575  1.2737  2.7183
 6256TIP3    H240328   5.183   0.326   1.592  0.9436 -0.5247  2.5179
 6257TIP3   OH240329   3.551   1.320   0.963 -0.0556 -0.1290  0.2480
 6257TIP3    H140330   3.498   1.250   1.001 -1.4868  0.4584 -0.5670
 6257TIP3    H240331   3.579   1.286   0.878 -0.2511  0.0498  0.1092
 6258TIP3   OH240332   4.635   0.531   8.549  0.4080 -0.5001  0.2616
 6258TIP3    H140333   4.698   0.574   8.607 -0.9042  0.2364  1.2077
 6258TIP3    H240334   4.637   0.439   8.574  0.5423 -0.3452  0.8209
 6259TIP3   OH240335   3.026   4.642   2.064  0.1488  0.5113 -0.2652
 6259TIP3    H140336   3.044   4.560   2.018 -0.7472  0.4262 -0.4733
 6259TIP3    H240337   3.030   4.710   1.996  2.6238  0.9193  0.1687
 6260TIP3   OH240338   5.927   5.178   7.625  0.0135  0.1067  1.0526
 6260TIP3    H140339   5.882   5.099   7.653 -2.9506  1.1052 -0.4823
 6260TIP3    H240340   5.870   5.250   7.652  1.4409  1.5914  0.3313
 6261TIP3   OH240341   4.557   5.151   1.704  0.1274 -0.0393  0.0088
 6261TIP3    H140342   4.634   5.115   1.661 -0.6009 -0.6941 -0.7806
 6261TIP3    H240343   4.512   5.201   1.635  0.3893  1.2503  0.7335
 6262TIP3   OH240344   2.374   6.659   2.663 -0.7627  0.0122  0.2377
 6262TIP3    H140345   2.444   6.668   2.728 -1.0596  1.1709  0.4049
 6262TIP3    H240346   2.377   6.566   2.638 -0.2114 -0.3087  1.4139
 6263TIP3   OH240347   4.807   3.432   7.322  0.1916 -0.5610 -0.3554
 6263TIP3    H140348   4.879   3.369   7.317  0.7941  0.0637  0.2646
 6263TIP3    H240349   4.788   3.453   7.230 -0.9076 -2.5943 -0.6549
 6264TIP3   OH240350   5.095   2.367   1.834  0.3353  0.2501 -0.4681
 6264TIP3    H140351   5.163   2.318   1.881  1.0864  0.3098 -1.4564
 6264TIP3    H240352   5.104   2.339   1.743 -0.5451  0.7558 -0.7211
 6265TIP3   OH240353   6.191   1.825   8.402  0.0046  0.0715  0.4054
 6265TIP3    H140354   6.107   1.870   8.390  0.2165  0.3821  0.0722
 6265TIP3    H240355   6.253   1.895   8.422  0.1683 -0.1664  0.7304
 6266TIP3   OH240356   0.037   1.012   2.721  0.0906  0.2237  0.4562
 6266TIP3    H140357   0.098   0.939   2.716 -0.4947 -0.1926 -1.3676
 6266TIP3    H240358  -0.013   0.996   2.801  0.0235 -1.3344  0.1231
 6267TIP3   OH240359   0.190   0.457   1.837 -0.1760 -0.4315 -0.2139
 6267TIP3    H140360   0.220   0.447   1.746  0.0634  0.4148 -0.2403
 6267TIP3    H240361   0.097   0.475   1.829 -0.4375 -1.6774 -0.2070
 6268TIP3   OH240362   3.086   5.429   0.066 -0.0866  0.1921  0.5032
 6268TIP3    H140363   3.175   5.462   0.076  0.1372 -0.8462  2.1653
 6268TIP3    H240364   3.036   5.474   0.134 -0.8401  0.6612 -0.3242
 6269TIP3   OH240365   1.123   2.726   1.819 -0.3462 -0.8603 -0.1858
 6269TIP3    H140366   1.137   2.679   1.737  0.3351 -1.8136  0.4570
 6269TIP3    H240367   1.104   2.816   1.792 -3.1906 -1.7639 -1.5140
 6270TIP3   OH240368   1.731   6.434   7.592  0.1992  0.0862 -0.0731
 6270TIP3    H140369   1.717   6.425   7.687 -0.4649 -0.4417 -0.2084
 6270TIP3    H240370   1.672   6.369   7.554  0.6366  0.1342 -0.8436
 6271TIP3   OH240371   5.188   4.203   7.081  0.5910 -0.3154 -0.0305
 6271TIP3    H140372   5.209   4.296   7.079 -0.0894 -0.1244  0.7804
 6271TIP3    H240373   5.230   4.166   7.003 -0.4797  0.9468 -1.2450
 6272TIP3   OH240374   2.671   3.963   2.740  0.0708 -0.0599  0.2709
 6272TIP3    H140375   2.593   4.005   2.776  0.0023  0.8675 -0.8868
 6272TIP3    H240376   2.690   3.891   2.800 -1.8543 -0.5019  0.4079
 6273TIP3   OH240377   1.772   5.721   7.767  0.0282 -0.2700 -0.2279
 6273TIP3    H140378   1.687   5.693   7.733  0.2668 -1.3631  0.0612
 6273TIP3    H240379   1.822   5.641   7.777  0.9257  0.3157  0.0961
 6274TIP3   OH240380   2.512   1.613   2.058  0.1003 -0.1902 -0.4025
 6274TIP3    H140381   2.528   1.527   2.098  2.4602 -0.0666 -0.9383
 6274TIP3    H240382   2.422   1.608   2.026  0.2579 -2.5843 -0.6892
 6275TIP3   OH240383   1.255   0.097   1.312 -0.1093  0.0447 -0.2475
 6275TIP3    H140384   1.302   0.140   1.383  1.2366  0.4896 -1.3580
 6275TIP3    H240385   1.200   0.165   1.274 -0.0828  0.0641 -0.2512
 6276TIP3   OH240386   0.480   1.088   0.364 -0.2663  0.3982  0.3356
 6276TIP3    H140387   0.470   1.153   0.294 -0.1792  0.3930  0.3192
 6276TIP3    H240388   0.537   1.021   0.327 -0.1883  0.4146  0.4261
 6277TIP3   OH240389   2.555   1.163   1.828  0.2013  0.1675  0.5292
 6277TIP3    H140390   2.533   1.252   1.801 -0.0825 -0.0214  0.1258
 6277TIP3    H240391   2.651   1.162   1.833  0.1945  0.5729  0.8246
 6278TIP3   OH240392   4.656   6.669   2.226  0.4132  0.5160  0.0012
 6278TIP3    H140393   4.624   6.754   2.255 -0.0005 -0.1013  1.4362
 6278TIP3    H240394   4.611   6.653   2.143  0.2326  1.5188 -0.1038
 6279TIP3   OH240395   3.621   6.737   0.369  0.3340 -0.0159 -0.0282
 6279TIP3    H140396   3.633   6.747   0.274  0.3813  0.8211  0.0592
 6279TIP3    H240397   3.550   6.674   0.377  0.2764 -0.0378 -0.6202
 6280TIP3   OH240398   0.899   6.198   8.611  0.0033  0.6746  0.1979
 6280TIP3    H140399   0.992   6.213   8.590  0.1427 -0.5960 -0.1556
 6280TIP3    H240400   0.865   6.286   8.628  1.5420  1.0789  1.4783
 6281TIP3   OH240401   1.188   6.259   0.944  0.2917  0.6756 -0.8094
 6281TIP3    H140402   1.103   6.266   0.987  0.2320  0.9233 -0.9723
 6281TIP3    H240403   1.249   6.300   1.006  0.8368 -2.3242  0.8621
 6282TIP3   OH240404   4.695   5.241   2.462  0.2597  0.1866 -1.1210
 6282TIP3    H140405   4.759   5.306   2.434 -0.2488  0.9144 -0.6342
 6282TIP3    H240406   4.739   5.191   2.531  1.8748 -2.2530 -3.7040
 6283TIP3   OH240407   3.307   6.189   1.640 -0.6790  0.1699 -0.2588
 6283TIP3    H140408   3.282   6.153   1.555 -0.7009  2.0793 -1.1091
 6283TIP3    H240409   3.234   6.246   1.664 -1.0520 -0.9676  1.4624
 6284TIP3   OH240410   1.365   0.425   7.616  0.5676 -0.3470  0.2203
 6284TIP3    H140411   1.421   0.496   7.587  0.4572 -0.7503 -1.0159
 6284TIP3    H240412   1.349   0.373   7.538  0.8721 -1.8984  1.1424
 6285TIP3   OH240413   5.648   0.909   0.902  0.7146 -0.4944  0.5579
 6285TIP3    H140414   5.564   0.944   0.872  0.4481 -0.7914  0.9370
 6285TIP3    H240415   5.646   0.921   0.997  1.2979 -0.0938  0.5251
 6286TIP3   OH240416   5.786   0.809   1.763 -1.0386 -0.0995 -0.1836
 6286TIP3    H140417   5.806   0.899   1.737  0.8176 -0.3773  0.1244
 6286TIP3    H240418   5.695   0.796   1.738 -0.8163  1.2865 -1.8647
 6287TIP3   OH240419   1.403   4.313   0.073 -0.3640  0.3638  0.0564
 6287TIP3    H140420   1.386   4.219   0.066 -0.1228  0.2851  0.4417
 6287TIP3    H240421   1.339   4.344   0.138  0.8257  0.0887  1.4189
 6288TIP3   OH240422   6.279   2.651   1.010  0.4926 -0.3487  0.5193
 6288TIP3    H140423   6.191   2.635   0.977  1.1964 -2.1273 -0.6337
 6288TIP3    H240424   6.265   2.689   1.097 -1.4040  2.7128 -0.9282
 6289TIP3   OH240425   4.847   1.456   8.430  0.1890  0.3053 -0.6472
 6289TIP3    H140426   4.891   1.391   8.375  0.7769  0.6691 -0.6166
 6289TIP3    H240427   4.805   1.405   8.499  0.3568 -0.0686 -0.8203
 6290TIP3   OH240428   5.383   2.127   6.896  0.2635  0.2147  0.1896
 6290TIP3    H140429   5.304   2.145   6.845 -0.9159  0.0055  1.8262
 6290TIP3    H240430   5.428   2.058   6.847 -0.5587  0.3533 -0.8025
 6291TIP3   OH240431   3.679   4.397   2.514  0.3449  0.0106 -0.7278
 6291TIP3    H140432   3.641   4.311   2.499  2.6227 -1.4907  1.4337
 6291TIP3    H240433   3.604   4.456   2.520 -1.4441 -2.2296  0.1505
 6292TIP3   OH240434   5.112   0.709   8.670  0.1396 -0.4148  0.1775
 6292TIP3    H140435   5.029   0.749   8.696 -0.9722 -1.3011 -1.8222
 6292TIP3    H240436   5.091   0.617   8.655  1.3174 -0.4998 -1.1075
 6293TIP3   OH240437   0.458   5.699   2.080 -0.0185  0.1192  0.1609
 6293TIP3    H140438   0.452   5.662   1.992  0.0991  1.9778 -0.6888
 6293TIP3    H240439   0.518   5.773   2.071 -0.0609  0.3989  1.7969
 6294TIP3   OH240440   0.941   2.465   8.717 -0.2852 -0.4086 -0.0248
 6294TIP3    H140441   0.959   2.555   8.690 -1.4121  0.2242  1.2202
 6294TIP3    H240442   0.853   2.447   8.686  0.1119 -1.2830 -0.6918
 6295TIP3   OH240443   3.016   5.140   0.580 -0.6390 -1.1441 -0.6529
 6295TIP3    H140444   2.936   5.126   0.631  0.0643 -1.4918  0.3654
 6295TIP3    H240445   3.040   5.053   0.550 -0.2542 -1.1331 -0.3720
 6296TIP3   OH240446   4.803   3.196   0.208  0.4905 -0.3723 -0.4442
 6296TIP3    H140447   4.885   3.164   0.245  0.8236  1.4212  0.4760
 6296TIP3    H240448   4.829   3.236   0.124  0.4175 -0.5736 -0.5633
 6297TIP3   OH240449   2.437   0.392   8.364 -0.2935  0.0671  0.1913
 6297TIP3    H140450   2.343   0.374   8.370  0.0513 -2.5079 -0.7897
 6297TIP3    H240451   2.472   0.365   8.449 -0.0707 -2.2204 -0.5562
 6298TIP3   OH240452   0.848   0.989   8.032  0.5844 -0.3332  0.5077
 6298TIP3    H140453   0.919   1.040   8.070  2.0160 -1.1427 -0.9614
 6298TIP3    H240454   0.856   0.903   8.072 -1.1704  0.2076  2.1868
 6299TIP3   OH240455   5.429   6.068   2.271  0.3687  0.2495 -0.2914
 6299TIP3    H140456   5.341   6.075   2.308  0.9236  0.9689  0.9525
 6299TIP3    H240457   5.459   5.981   2.297  0.0736  0.0497 -0.6163
 6300TIP3   OH240458   2.552   5.592   8.514  0.2575  0.0946  0.2866
 6300TIP3    H140459   2.486   5.651   8.478 -0.1104  0.7118  1.8961
 6300TIP3    H240460   2.622   5.592   8.449 -0.6644  0.6277 -0.7382
 6301TIP3   OH240461   0.978   3.101   8.187  0.2543 -0.7666 -0.7514
 6301TIP3    H140462   0.984   3.059   8.273  0.1601  1.4727  0.4329
 6301TIP3    H240463   0.884   3.106   8.170  0.2195 -0.1973 -0.4245
 6302TIP3   OH240464   0.635   5.171   1.018 -0.0392 -0.0608  0.9864
 6302TIP3    H140465   0.573   5.117   0.970 -0.9066  0.7262  1.1860
 6302TIP3    H240466   0.718   5.124   1.012  0.2346  0.6358 -2.3978
 6303TIP3   OH240467   5.124   4.732   1.041 -0.1590  0.2837 -0.1312
 6303TIP3    H140468   5.044   4.784   1.051 -0.4660 -0.2744  0.3451
 6303TIP3    H240469   5.118   4.695   0.953 -1.4529 -1.4307  0.6166
 6304TIP3   OH240470   6.259   5.814   1.477  0.1025  0.6793  0.5233
 6304TIP3    H140471   6.231   5.903   1.453  2.5671  1.2021 -0.6439
 6304TIP3    H240472   6.322   5.828   1.548 -1.0871 -0.3460  1.8484
 6305TIP3   OH240473   2.236   0.289   2.481 -0.0208 -0.6808 -0.0422
 6305TIP3    H140474   2.310   0.327   2.434 -0.1675  0.2852  0.4796
 6305TIP3    H240475   2.231   0.198   2.451  0.6537 -0.4211 -0.9417
 6306TIP3   OH240476   5.058   0.403   8.851 -0.8159 -0.6901 -0.1182
 6306TIP3    H140477   5.068   0.386   8.757  0.4329 -0.4703 -0.0405
 6306TIP3    H240478   5.047   0.317   8.890 -0.9386 -0.8139 -0.4190
 6307TIP3   OH240479   6.720   5.996   1.456 -0.0850  0.9826 -0.0552
 6307TIP3    H140480   6.649   6.001   1.391 -0.7149  0.8197  0.6041
 6307TIP3    H240481   6.793   5.955   1.409 -0.7540  0.2327 -0.4764
 6308TIP3   OH240482   0.133   6.378   0.802 -0.0184  0.2768 -0.1068
 6308TIP3    H140483   0.045   6.416   0.797  0.5705  1.7664  0.4371
 6308TIP3    H240484   0.180   6.434   0.863  0.6683 -1.8478  1.4100
 6309TIP3   OH240485   0.097   3.531   0.259 -0.5075  0.0615  0.8558
 6309TIP3    H140486   0.003   3.549   0.265 -0.6844 -1.0983  1.8364
 6309TIP3    H240487   0.108   3.444   0.298  0.6832 -0.8207 -1.3062
 6310TIP3   OH240488   2.464   0.791   1.286 -0.0450  0.2109 -0.2805
 6310TIP3    H140489   2.458   0.880   1.319  0.3685 -0.0261  0.4603
 6310TIP3    H240490   2.421   0.794   1.201 -1.8969  0.6544  0.6230
 6311TIP3   OH240491   5.922   5.597   2.626 -0.2099  0.9463 -0.5896
 6311TIP3    H140492   5.971   5.586   2.544 -0.7512 -1.5853 -0.6555
 6311TIP3    H240493   5.983   5.568   2.694 -0.3884  1.2836 -0.2834
 6312TIP3   OH240494   3.331   3.219   0.968  0.3484 -0.2170 -0.2266
 6312TIP3    H140495   3.384   3.279   1.020  1.9290 -0.7886 -1.0994
 6312TIP3    H240496   3.388   3.144   0.953 -0.2112 -0.2652 -2.3939
 6313TIP3   OH240497   1.947   2.938   8.598 -0.4274  0.0636  0.4462
 6313TIP3    H140498   2.010   2.976   8.536  0.9617 -1.0397  1.1033
 6313TIP3    H240499   1.957   2.991   8.677 -0.0615 -0.3216  0.6621
 6314TIP3   OH240500   0.211   3.538   1.592 -0.0338 -0.5496  0.5128
 6314TIP3    H140501   0.142   3.570   1.535  1.0200  0.0219 -0.4832
 6314TIP3    H240502   0.166   3.511   1.672 -1.7185 -2.7542 -1.0768
 6315TIP3   OH240503   1.088   3.056   1.613  0.1933 -0.0521 -0.3257
 6315TIP3    H140504   1.047   3.028   1.695 -0.5117 -1.0948 -1.0058
 6315TIP3    H240505   1.175   3.086   1.639  0.3434 -1.2652  0.7059
 6316TIP3   OH240506   6.287   5.594   7.705  0.0638 -0.4290 -0.3747
 6316TIP3    H140507   6.279   5.616   7.798 -2.2537 -0.0744 -0.5804
 6316TIP3    H240508   6.206   5.546   7.686  1.4831 -2.4474 -1.7334
 6317TIP3   OH240509   6.422   1.199   8.775 -0.4009 -0.2537 -0.5483
 6317TIP3    H140510   6.507   1.181   8.815 -0.0513 -1.4780 -1.7536
 6317TIP3    H240511   6.382   1.113   8.767 -1.7325  0.2997 -0.0980
 6318TIP3   OH240512   1.073   5.765   1.154  0.2922 -0.2561 -0.1301
 6318TIP3    H140513   1.033   5.697   1.100 -0.4740  0.5802 -0.6436
 6318TIP3    H240514   1.030   5.757   1.239  0.9485 -1.0665  0.1498
 6319TIP3   OH240515   4.419   4.885   1.433  0.1013 -0.0998  0.1860
 6319TIP3    H140516   4.452   4.896   1.522 -1.7199 -2.9284  1.3848
 6319TIP3    H240517   4.496   4.892   1.378  1.3867  1.2221  2.0196
 6320TIP3   OH240518   4.682   3.673   7.477 -0.2894 -0.2202 -0.2960
 6320TIP3    H140519   4.603   3.723   7.499 -1.4337 -1.1100 -2.1200
 6320TIP3    H240520   4.754   3.735   7.486 -1.3721  1.0480 -0.0688
 6321TIP3   OH240521   5.764   6.523   7.111 -0.2802 -0.1794 -0.7367
 6321TIP3    H140522   5.722   6.580   7.047 -0.8016  0.2095 -0.0714
 6321TIP3    H240523   5.729   6.552   7.195  0.7917 -0.3239 -0.2211
 6322TIP3   OH240524   5.960   0.787   8.702  0.2833 -0.1903 -0.7392
 6322TIP3    H140525   5.968   0.816   8.792 -1.5684  3.0084 -1.4635
 6322TIP3    H240526   5.911   0.705   8.707  0.9583 -0.5267  1.1330
 6323TIP3   OH240527   0.765   2.517   0.428 -0.2276  0.1883  0.2184
 6323TIP3    H140528   0.742   2.604   0.460 -0.8640  0.2491 -0.3741
 6323TIP3    H240529   0.701   2.459   0.470 -0.8791  0.2321 -0.6846
 6324TIP3   OH240530   2.555   4.679   8.224  0.0952  0.2598 -0.3889
 6324TIP3    H140531   2.494   4.669   8.297  1.2735  0.5530  0.6536
 6324TIP3    H240532   2.555   4.593   8.181 -1.1994  0.3128 -0.5642
 6325TIP3   OH240533   2.615   3.792   8.446 -0.4383  1.1530  0.5231
 6325TIP3    H140534   2.651   3.826   8.528  1.3955 -2.6860  1.5482
 6325TIP3    H240535   2.691   3.764   8.396 -1.6419 -1.9848  0.2074
 6326TIP3   OH240536   6.258   1.371   0.439 -0.0847 -0.4502 -0.4497
 6326TIP3    H140537   6.352   1.388   0.429 -0.3640  0.6468 -1.5268
 6326TIP3    H240538   6.239   1.300   0.377 -0.2114  0.2996 -1.2817
 6327TIP3   OH240539   0.855   3.862   8.299 -0.1151 -0.3259  0.3418
 6327TIP3    H140540   0.919   3.929   8.274 -1.4923  0.5755 -0.9263
 6327TIP3    H240541   0.777   3.912   8.322 -0.5848 -1.4452  1.2533
 6328TIP3   OH240542   2.299   4.571   8.873 -0.0101 -0.0676  0.0958
 6328TIP3    H140543   2.353   4.531   8.941 -1.2336 -1.5637  0.2358
 6328TIP3    H240544   2.281   4.659   8.906  0.8912 -0.1518  0.8515
 6329TIP3   OH240545   5.880   0.930   8.155  0.1041 -0.3741 -0.3902
 6329TIP3    H140546   5.826   1.005   8.129 -2.9738 -0.9611  3.3190
 6329TIP3    H240547   5.959   0.970   8.192 -0.2306  0.8706 -0.9483
 6330TIP3   OH240548   4.208   6.291   6.722  0.2304 -0.6290 -0.6051
 6330TIP3    H140549   4.157   6.290   6.803  0.0021 -0.2468 -0.7424
 6330TIP3    H240550   4.142   6.295   6.652  0.4187 -1.1388 -0.8193
 6331TIP3   OH240551   4.183   3.181   1.389 -0.1053 -1.1478  0.3494
 6331TIP3    H140552   4.208   3.273   1.385 -3.2620 -0.1497  1.1964
 6331TIP3    H240553   4.134   3.165   1.309 -0.8652 -1.6292  0.8880
 6332TIP3   OH240554   3.010   1.425   1.332 -0.1238  0.0438 -0.0043
 6332TIP3    H140555   2.940   1.453   1.272 -0.5165 -2.9032 -1.0790
 6332TIP3    H240556   3.091   1.437   1.282 -0.0723  0.9892  0.2772
 6333TIP3   OH240557   6.331   6.087   0.999 -0.0623  0.2066 -0.3698
 6333TIP3    H140558   6.426   6.080   1.010 -0.3192 -1.7858  1.3146
 6333TIP3    H240559   6.316   6.179   0.977  2.1420  0.9008  0.7156
 6334TIP3   OH240560   6.674   6.490   0.523  0.2770 -0.5461 -0.1078
 6334TIP3    H140561   6.610   6.497   0.593  1.8963  0.6180  1.3445
 6334TIP3    H240562   6.628   6.520   0.445 -0.6248  1.4534  1.1181
 6335TIP3   OH240563   1.703   2.106   2.629 -0.7732 -0.7414 -0.1010
 6335TIP3    H140564   1.740   2.031   2.582 -0.9556 -1.0537  0.2454
 6335TIP3    H240565   1.680   2.071   2.715  0.9410  0.1703  0.7767
 6336TIP3   OH240566   5.562   4.237   0.414  0.6786  0.5669  0.4608
 6336TIP3    H140567   5.545   4.158   0.465  0.7428  0.6544  0.6194
 6336TIP3    H240568   5.657   4.239   0.402  0.5916  0.1099 -0.3770
 6337TIP3   OH240569   2.774   4.505   2.458  0.2351 -0.8222  0.3224
 6337TIP3    H140570   2.845   4.568   2.445 -0.5777 -0.3222 -2.2017
 6337TIP3    H240571   2.718   4.544   2.525  0.7993  0.1761  0.2271
 6338TIP3   OH240572   6.707   0.442   6.434  0.1634  0.1348 -0.0656
 6338TIP3    H140573   6.793   0.480   6.452  1.4604 -1.6879 -1.9377
 6338TIP3    H240574   6.703   0.363   6.488 -0.3659  0.2440  0.0603
 6339TIP3   OH240575   4.792   1.093   2.311 -0.4147 -0.0552  0.3937
 6339TIP3    H140576   4.797   1.189   2.316  0.8478 -0.1314  0.9680
 6339TIP3    H240577   4.868   1.068   2.257 -2.4228 -0.5751 -2.4135
 6340TIP3   OH240578   5.312   1.521   7.254  0.2654 -0.2516 -0.5396
 6340TIP3    H140579   5.234   1.573   7.232  1.1531  1.0504 -0.7303
 6340TIP3    H240580   5.280   1.431   7.260 -1.4828  0.3905  0.5559
 6341TIP3   OH240581   4.477   1.932   0.226  0.9513  0.1036 -0.1452
 6341TIP3    H140582   4.437   1.940   0.312  0.1173  0.1526 -0.5309
 6341TIP3    H240583   4.570   1.918   0.244  0.9218  0.9701  0.7399
 6342TIP3   OH240584   2.577   1.718   7.775 -0.1539  0.0996 -0.5834
 6342TIP3    H140585   2.534   1.638   7.807 -1.5530  2.1124  3.1897
 6342TIP3    H240586   2.507   1.768   7.733  0.1280  0.4108 -0.6854
 6343TIP3   OH240587   1.353   4.439   1.758  0.3043 -0.1121 -0.7221
 6343TIP3    H140588   1.389   4.511   1.707  0.0370 -0.1392 -0.9504
 6343TIP3    H240589   1.424   4.414   1.818  0.6355 -0.1197 -1.1167
 6344TIP3   OH240590   2.481   2.397   8.708  0.0889  0.5716 -0.5096
 6344TIP3    H140591   2.539   2.455   8.658 -0.5971  0.4934 -1.4254
 6344TIP3    H240592   2.396   2.404   8.663 -0.6676  0.8310  0.9169
 6345TIP3   OH240593   0.713   3.768   2.868 -0.4629  0.4464 -0.1768
 6345TIP3    H140594   0.775   3.714   2.917 -0.4764  0.5301 -0.0671
 6345TIP3    H240595   0.768   3.822   2.811 -0.3685  1.2670  0.6639
 6346TIP3   OH240596   3.891   3.770   7.524 -0.1967  0.4734 -0.3671
 6346TIP3    H140597   3.939   3.842   7.483  1.5873 -0.8861 -0.7743
 6346TIP3    H240598   3.899   3.786   7.618 -1.1735  1.6300 -0.4619
 6347TIP3   OH240599   5.224   4.109   8.488  0.1841 -0.6951  0.3033
 6347TIP3    H140600   5.235   4.033   8.431 -0.4475 -0.4867 -0.1058
 6347TIP3    H240601   5.297   4.104   8.549  3.2010  1.1630 -2.8012
 6348TIP3   OH240602   2.778   2.080   1.711  0.2049  0.4304 -0.0488
 6348TIP3    H140603   2.817   2.152   1.760 -0.5700  1.2776 -0.6455
 6348TIP3    H240604   2.853   2.030   1.679  0.7343  0.4542  1.1031
 6349TIP3   OH240605   5.124   2.510   8.448 -0.2685 -0.1287 -0.0867
 6349TIP3    H140606   5.205   2.537   8.405  0.4071 -1.4040  0.3448
 6349TIP3    H240607   5.138   2.529   8.541  0.3908 -2.2528  0.2873
 6350TIP3   OH240608   5.442   3.979   8.651 -0.6503  0.1380 -0.4270
 6350TIP3    H140609   5.483   3.933   8.725 -1.3493  2.6084  1.6488
 6350TIP3    H240610   5.477   3.936   8.573  1.2585 -1.6632  1.3087
 6351TIP3   OH240611   6.471   6.210   2.911  0.3972 -0.4710 -0.6544
 6351TIP3    H140612   6.386   6.166   2.910 -0.5806  1.3173 -1.3615
 6351TIP3    H240613   6.493   6.219   3.003 -0.7930  0.1307 -0.4157
 6352TIP3   OH240614   6.567   4.553   2.815 -0.5443 -0.0400 -0.1592
 6352TIP3    H140615   6.647   4.513   2.848 -0.1862 -0.0386 -1.0084
 6352TIP3    H240616   6.533   4.491   2.751 -0.8089  0.3074 -0.3613
 6353TIP3   OH240617   4.804   6.572   1.701  0.2522  0.3872 -0.5675
 6353TIP3    H140618   4.859   6.527   1.766  0.2993  1.9490  0.5469
 6353TIP3    H240619   4.823   6.527   1.619 -0.1183 -1.9445  0.5298
 6354TIP3   OH240620   3.101   4.162   1.855  0.2246  0.0421 -0.1083
 6354TIP3    H140621   3.017   4.116   1.854 -0.9980  2.1101 -1.8453
 6354TIP3    H240622   3.086   4.241   1.804  2.3195  2.2136  2.3373
 6355TIP3   OH240623   0.633   0.282   2.461  0.1196  0.0829  0.4135
 6355TIP3    H140624   0.656   0.336   2.386 -0.1921  1.0081  0.9562
 6355TIP3    H240625   0.541   0.258   2.446 -0.0854  0.6511  0.7002
 6356TIP3   OH240626   4.715   5.395   0.770  0.5377 -0.5366 -0.5572
 6356TIP3    H140627   4.632   5.437   0.790  1.9407  1.2551  2.1303
 6356TIP3    H240628   4.741   5.431   0.685  0.0232  1.3482  0.0485
 6357TIP3   OH240629   3.364   1.025   3.004  0.0709 -0.2159 -0.1105
 6357TIP3    H140630   3.289   1.016   3.063 -0.2018 -1.1060 -0.5786
 6357TIP3    H240631   3.413   0.944   3.015  0.5544  0.0382 -0.3681
 6358TIP3   OH240632   5.525   3.350   8.539 -0.0376 -0.1589 -0.0778
 6358TIP3    H140633   5.497   3.308   8.458 -2.5352 -0.1055  0.6731
 6358TIP3    H240634   5.620   3.349   8.535 -0.0764 -1.6208 -2.2457
 6359TIP3   OH240635   4.474   3.386   8.596 -0.3598 -0.8519 -0.6107
 6359TIP3    H140636   4.380   3.406   8.590  0.0672  2.1093  0.5453
 6359TIP3    H240637   4.479   3.311   8.654 -1.9997  0.4932  1.4315
 6360TIP3   OH240638   3.526   3.131   0.771 -0.0186 -0.5172  0.3326
 6360TIP3    H140639   3.599   3.109   0.712 -0.2459  1.2055 -0.6751
 6360TIP3    H240640   3.462   3.062   0.757 -0.2210  0.0319 -1.7790
 6361TIP3   OH240641   6.409   1.840   1.219 -0.2592 -0.2288 -0.3396
 6361TIP3    H140642   6.323   1.853   1.179  0.2667 -0.0929 -1.4792
 6361TIP3    H240643   6.466   1.818   1.146  0.2609 -2.5247  0.6740
 6362TIP3   OH240644   0.980   5.590   0.980 -0.1026  0.2873 -0.2510
 6362TIP3    H140645   1.064   5.558   0.946  1.5139  0.5191  3.1233
 6362TIP3    H240646   0.921   5.516   0.970  1.5527 -1.2411  0.6409
 6363TIP3   OH240647   3.372   2.182   1.136 -0.5132  0.6783 -0.5422
 6363TIP3    H140648   3.315   2.223   1.072 -2.4240  0.6305  1.0231
 6363TIP3    H240649   3.344   2.090   1.137  0.1884  0.4566 -0.3336
 6364TIP3   OH240650   4.795   3.612   0.197 -0.5693  0.0294 -0.0421
 6364TIP3    H140651   4.882   3.630   0.162 -0.8146  0.8941 -0.2317
 6364TIP3    H240652   4.798   3.642   0.288 -0.9478  0.9618 -0.3269
 6365TIP3   OH240653   5.473   5.670   0.153  0.5942  0.1634  0.6860
 6365TIP3    H140654   5.514   5.718   0.224  0.2171  1.5475  0.0081
 6365TIP3    H240655   5.412   5.732   0.113 -0.4943 -1.1203  0.2444
 6366TIP3   OH240656   0.975   1.261   0.497 -0.9206 -0.7154 -0.2035
 6366TIP3    H140657   1.014   1.347   0.512 -0.8951 -0.6498 -0.6427
 6366TIP3    H240658   0.897   1.260   0.553 -1.3708 -0.0859 -0.8018
 6367TIP3   OH240659   3.678   5.271   7.919 -0.4445 -0.1046 -0.2778
 6367TIP3    H140660   3.613   5.272   7.989  0.5219  0.0083  0.6542
 6367TIP3    H240661   3.741   5.338   7.944 -1.0901  1.3217 -2.2880
 6368TIP3   OH240662   4.498   6.131   3.236 -0.0255 -0.3364  0.4159
 6368TIP3    H140663   4.431   6.185   3.195 -0.3589 -1.5173 -0.6807
 6368TIP3    H240664   4.580   6.178   3.222 -0.5533  0.8976  1.3647
 6369TIP3   OH240665   4.157   3.206   0.349 -0.0900 -0.3670 -0.3354
 6369TIP3    H140666   4.152   3.128   0.404 -0.5565  0.4804  0.8662
 6369TIP3    H240667   4.229   3.257   0.387 -0.4707  0.2705 -0.4648
 6370TIP3   OH240668   2.384   5.990   0.030  0.2807  0.0490 -0.2960
 6370TIP3    H140669   2.329   5.931   0.082  0.4715  0.0100 -0.1343
 6370TIP3    H240670   2.356   5.977  -0.060  0.0196  0.0345 -0.2121
 6371TIP3   OH240671   3.216   5.889   1.727 -0.2405 -0.3041  0.4557
 6371TIP3    H140672   3.145   5.941   1.689 -0.4609 -0.6092  0.4409
 6371TIP3    H240673   3.188   5.874   1.817  1.3435  2.3721  1.4973
 6372TIP3   OH240674   1.917   4.590   2.604  0.0481  0.0332  0.6042
 6372TIP3    H140675   1.959   4.505   2.601 -1.1104 -0.6424  2.2747
 6372TIP3    H240676   1.840   4.578   2.660 -1.6630  1.5245 -1.2634
 6373TIP3   OH240677   2.479   6.573   8.543 -0.3988 -0.0186  0.5503
 6373TIP3    H140678   2.454   6.482   8.527 -1.5046  0.3308  0.2648
 6373TIP3    H240679   2.476   6.615   8.457 -2.7304  0.9673  1.0550
 6374TIP3   OH240680   5.105   0.856   0.324 -0.0055  0.3910 -0.2601
 6374TIP3    H140681   5.100   0.906   0.242 -0.1988  0.7962 -0.0083
 6374TIP3    H240682   5.121   0.923   0.391  2.1163 -0.1432 -0.1926
 6375TIP3   OH240683   0.005   0.378   1.579  0.1051 -0.2336 -0.3152
 6375TIP3    H140684   0.064   0.303   1.583  1.3388  0.4733 -2.9241
 6375TIP3    H240685  -0.050   0.370   1.657 -0.4473 -4.3005 -0.9099
 6376TIP3   OH240686   1.586   2.761   0.588  0.1138 -0.0370 -0.0392
 6376TIP3    H140687   1.545   2.676   0.603 -2.4525  1.1002 -0.2124
 6376TIP3    H240688   1.523   2.810   0.536  0.8915  2.4815  1.2341
 6377TIP3   OH240689   5.453   6.721   0.123 -0.3400 -0.2930 -0.1982
 6377TIP3    H140690   5.488   6.651   0.068  1.0041  0.3122 -0.1425
 6377TIP3    H240691   5.513   6.794   0.110  0.2925 -0.2735  2.4417
 6378TIP3   OH240692   2.822   1.772   7.862  0.2596 -0.1696  0.1596
 6378TIP3    H140693   2.856   1.792   7.775 -0.8501  0.7348 -0.0898
 6378TIP3    H240694   2.732   1.743   7.847 -0.0228  0.2130  1.0076
 6379TIP3   OH240695   6.432   4.375   2.627  0.1577  0.0441 -0.5044
 6379TIP3    H140696   6.353   4.350   2.578  0.2310 -0.1724 -0.5125
 6379TIP3    H240697   6.483   4.294   2.633  0.8908  0.4120 -1.4596
 6380TIP3   OH240698   0.281   2.861   1.186  0.1034  0.2762  0.1746
 6380TIP3    H140699   0.238   2.909   1.257  0.8828  1.0617  0.1327
 6380TIP3    H240700   0.370   2.896   1.184  0.1142  0.2244 -1.1517
 6381TIP3   OH240701   4.029   5.604   7.767  0.3023 -0.2560 -0.3068
 6381TIP3    H140702   4.047   5.527   7.819  0.5585  1.6835  2.6972
 6381TIP3    H240703   3.934   5.616   7.773  0.5483  1.2072  1.7882
 6382TIP3   OH240704   4.852   3.983   6.723  0.7700 -0.5266 -0.3249
 6382TIP3    H140705   4.947   3.971   6.722  0.7921 -0.6158 -2.5208
 6382TIP3    H240706   4.816   3.894   6.729  0.8623 -0.6666 -1.6041
 6383TIP3   OH240707   2.263   6.074   0.835  0.5900  0.3378  0.5404
 6383TIP3    H140708   2.237   6.135   0.904  0.5126  0.5174  0.3524
 6383TIP3    H240709   2.206   5.998   0.848 -0.8487  1.1891 -0.5759
 6384TIP3   OH240710   1.300   3.806   1.232  0.1985 -0.4100 -0.0675
 6384TIP3    H140711   1.349   3.889   1.232  0.8903 -0.8068  0.5689
 6384TIP3    H240712   1.211   3.831   1.206  0.0529  0.7483  1.3932
 6385TIP3   OH240713   2.086   3.082   8.421 -0.3267 -0.6969 -0.1209
 6385TIP3    H140714   2.098   3.176   8.434 -1.4982 -0.7243  1.4191
 6385TIP3    H240715   2.056   3.074   8.330 -0.2934  0.4306 -0.2439
 6386TIP3   OH240716   2.435   1.925   7.978 -0.6456  0.0092 -0.0915
 6386TIP3    H140717   2.521   1.967   7.971 -1.6101  1.9760 -0.5078
 6386TIP3    H240718   2.425   1.907   8.071  1.2545 -2.6524 -0.2651
 6387TIP3   OH240719   3.336   5.042   0.877 -0.3768 -0.2709  0.3814
 6387TIP3    H140720   3.253   5.081   0.905 -1.3030 -1.2126 -0.9638
 6387TIP3    H240721   3.329   5.036   0.782  1.7883  0.8328  0.0847
 6388TIP3   OH240722   4.108   4.255   1.946 -0.1659 -0.0300 -0.6166
 6388TIP3    H140723   4.112   4.161   1.930 -0.5830  0.0553 -1.2862
 6388TIP3    H240724   4.183   4.291   1.899  0.0002 -0.0316 -0.3511
 6389TIP3   OH240725   5.617   6.397   1.058  0.6865  0.7962  0.2840
 6389TIP3    H140726   5.635   6.306   1.078 -0.1298  0.7018  0.6044
 6389TIP3    H240727   5.571   6.431   1.135  0.8959  1.4514  0.1301
 6390TIP3   OH240728   4.097   1.740   7.978  0.6067  0.2482 -0.1897
 6390TIP3    H140729   4.016   1.717   8.023  0.7498  1.9906  1.0657
 6390TIP3    H240730   4.082   1.715   7.886 -1.2154  0.2666  0.0711
 6391TIP3   OH240731   2.521   4.080   7.769  0.3865 -0.0038  0.4351
 6391TIP3    H140732   2.601   4.122   7.737 -0.5763  0.8919 -0.8874
 6391TIP3    H240733   2.550   3.994   7.799  1.9260  0.4978  0.4970
 6392TIP3   OH240734   0.768   0.457   3.064  0.2966  0.6139  0.9736
 6392TIP3    H140735   0.789   0.382   3.121  1.6256  0.6634  0.5752
 6392TIP3    H240736   0.814   0.438   2.982 -1.5871  0.5458 -0.1214
 6393TIP3   OH240737   5.278   6.719   2.574  0.1326  0.2878 -0.1549
 6393TIP3    H140738   5.311   6.730   2.663  2.5721  1.0749 -1.0681
 6393TIP3    H240739   5.261   6.809   2.544 -0.0134  0.0783 -0.7040
 6394TIP3   OH240740   6.417   5.464   8.665 -0.3830 -0.7265  0.1620
 6394TIP3    H140741   6.418   5.535   8.601  0.4195  0.7990  1.7853
 6394TIP3    H240742   6.469   5.394   8.624  0.4143  0.3372 -0.7076
 6395TIP3   OH240743   4.139   5.245   1.104  0.0664 -0.0018  0.4143
 6395TIP3    H140744   4.051   5.266   1.134 -0.0165 -0.3049  0.3844
 6395TIP3    H240745   4.192   5.319   1.132  0.1123 -0.5597  1.8411
 6396TIP3   OH240746   1.736   5.771   8.413 -0.0581 -0.0417  0.1182
 6396TIP3    H140747   1.647   5.741   8.391 -0.3146 -1.7120  2.9483
 6396TIP3    H240748   1.728   5.805   8.502  1.7808  1.7004 -0.3276
 6397TIP3   OH240749   1.995   5.406   6.922  0.3167  0.3794 -0.1048
 6397TIP3    H140750   2.010   5.410   6.828  1.9375 -0.3922  0.0946
 6397TIP3    H240751   1.900   5.421   6.932 -0.0264 -0.3827 -1.8925
 6398TIP3   OH240752   6.393   2.865   1.262  0.5615 -0.1303 -0.4204
 6398TIP3    H140753   6.335   2.790   1.269 -0.3251  0.5979  0.2403
 6398TIP3    H240754   6.443   2.865   1.344 -1.6485  1.7463  1.0460
 6399TIP3   OH240755   5.971   2.552   8.553  0.3743 -0.1574 -0.6441
 6399TIP3    H140756   5.902   2.598   8.506  0.6075  0.3048 -0.5421
 6399TIP3    H240757   6.052   2.591   8.522  0.4921  1.1044  1.0717
 6400TIP3   OH240758   6.025   4.780   8.522 -0.2646 -0.1716  0.3022
 6400TIP3    H140759   6.108   4.822   8.498  1.3401 -3.2814 -0.1161
 6400TIP3    H240760   5.970   4.791   8.445 -0.4406  2.1594  0.6747
 6401TIP3   OH240761   1.652   5.353   7.634  0.3189  0.2308  0.4541
 6401TIP3    H140762   1.646   5.288   7.564  1.1434 -1.9451  2.2915
 6401TIP3    H240763   1.745   5.376   7.637 -0.1097  2.4366 -0.8958
 6402TIP3   OH240764   0.919   5.267   7.125  0.2497 -0.2778 -0.1090
 6402TIP3    H140765   0.859   5.296   7.194  1.0051 -1.2218  0.9890
 6402TIP3    H240766   0.955   5.347   7.089  1.0548  0.2462  1.7196
 6403TIP3   OH240767   5.864   3.012   1.906 -0.2340  0.1532  0.3624
 6403TIP3    H140768   5.835   2.964   1.828  0.9686  0.8420 -0.5535
 6403TIP3    H240769   5.818   3.095   1.902 -0.8368 -0.1463  0.8854
 6404TIP3   OH240770   6.017   5.806   7.944  0.3036 -0.6535  0.1651
 6404TIP3    H140771   5.924   5.781   7.944 -0.8037  2.7473 -2.4754
 6404TIP3    H240772   6.040   5.811   7.852  2.0725  1.8175  0.6542
 6405TIP3   OH240773   1.213   0.321   0.482  0.0939  0.6859  0.4078
 6405TIP3    H140774   1.285   0.368   0.440  0.5358 -0.7100 -0.4626
 6405TIP3    H240775   1.135   0.350   0.435  0.4444  0.0536 -0.6014
 6406TIP3   OH240776   1.358   6.217   2.302 -0.2085 -0.1407  0.3143
 6406TIP3    H140777   1.440   6.229   2.349  0.5621  1.9314 -1.3873
 6406TIP3    H240778   1.349   6.122   2.293  0.7601 -0.5078  2.5465
 6407TIP3   OH240779   0.733   2.765   8.502  0.2661 -0.0989  0.4163
 6407TIP3    H140780   0.770   2.829   8.441 -0.0105  0.8891  1.2593
 6407TIP3    H240781   0.640   2.761   8.480  0.5476 -1.4571 -0.7034
 6408TIP3   OH240782   4.390   1.708   0.099 -0.2275  0.0771  0.1586
 6408TIP3    H140783   4.423   1.789   0.138  0.5783  0.3950 -1.1426
 6408TIP3    H240784   4.396   1.722   0.004 -1.9582 -0.7395 -0.1190
 6409TIP3   OH240785   2.255   3.291   0.159 -0.0024  0.3555 -0.0313
 6409TIP3    H140786   2.174   3.242   0.173  1.4015 -2.2381 -0.2877
 6409TIP3    H240787   2.266   3.293   0.064 -0.0619  1.2582 -0.0266
 6410TIP3   OH240788   0.139   3.814   2.624  0.3522  0.0790  0.2152
 6410TIP3    H140789   0.166   3.737   2.674 -0.8651  0.5469  1.6695
 6410TIP3    H240790   0.115   3.879   2.691 -1.6161  0.6412 -0.9515
 6411TIP3   OH240791   2.178   5.563   1.261 -0.1970  0.3954 -0.2180
 6411TIP3    H140792   2.153   5.486   1.311 -2.0187  0.1215 -1.4378
 6411TIP3    H240793   2.095   5.606   1.241  0.6150  1.4768 -1.4063
 6412TIP3   OH240794   4.866   3.194   7.855 -0.1509  0.1301 -0.5169
 6412TIP3    H140795   4.798   3.261   7.864 -0.6092 -0.2187 -1.2883
 6412TIP3    H240796   4.819   3.115   7.830  0.2910 -0.7146  1.1655
 6413TIP3   OH240797   3.540   2.860   7.196 -0.5418 -0.5092 -0.3181
 6413TIP3    H140798   3.606   2.928   7.184 -1.1241 -0.2645 -2.3900
 6413TIP3    H240799   3.582   2.780   7.167 -0.5597 -0.6818  0.1219
 6414TIP3   OH240800   6.737   5.705   2.019  0.1302  0.2620  0.0057
 6414TIP3    H140801   6.818   5.748   1.991  0.3774 -0.4867 -0.4499
 6414TIP3    H240802   6.684   5.700   1.939  0.3038 -0.7020 -0.0608
 6415TIP3   OH240803   4.629   3.589   2.163  0.3426  0.1539 -0.0558
 6415TIP3    H140804   4.542   3.628   2.158  1.3536  2.4395 -1.5548
 6415TIP3    H240805   4.644   3.575   2.257 -1.8213 -0.8716  0.1902
 6416TIP3   OH240806   0.657   3.441   0.414 -0.3656 -0.3041 -0.1471
 6416TIP3    H140807   0.650   3.506   0.344 -1.8026 -1.1807 -0.8357
 6416TIP3    H240808   0.583   3.382   0.401 -1.4076  0.1795  2.8046
 6417TIP3   OH240809   2.772   3.444   8.056  0.3636 -0.0548 -0.1458
 6417TIP3    H140810   2.854   3.489   8.036  2.1291 -3.5717 -1.6200
 6417TIP3    H240811   2.793   3.382   8.125 -0.9514 -1.1806 -0.6920
 6418TIP3   OH240812   3.069   2.237   2.787  0.2968  0.3324 -0.3510
 6418TIP3    H140813   3.069   2.252   2.881 -0.4286  0.5521 -0.3830
 6418TIP3    H240814   3.118   2.312   2.751  0.5377  0.2696 -0.1605
 6419TIP3   OH240815   4.253   2.420   1.666  0.5695  0.2542  0.3209
 6419TIP3    H140816   4.157   2.416   1.669  0.5832  0.2024  1.0237
 6419TIP3    H240817   4.278   2.348   1.608  0.2036 -0.1360  0.6342
 6420TIP3   OH240818   1.660   6.572   2.485 -0.2082 -0.5947 -0.0836
 6420TIP3    H140819   1.607   6.642   2.446 -1.9155 -1.3342  0.8304
 6420TIP3    H240820   1.683   6.516   2.412 -1.6470 -0.8591 -0.3620
 6421TIP3   OH240821   5.478   5.992   1.246 -0.5090 -0.0194  0.6231
 6421TIP3    H140822   5.383   5.986   1.233 -0.5372 -0.2125  0.9274
 6421TIP3    H240823   5.500   6.081   1.216 -0.6490 -0.2837 -0.2924
 6422TIP3   OH240824   2.606   6.561   2.397  0.3095  0.2219 -0.8115
 6422TIP3    H140825   2.613   6.486   2.338  1.5248 -0.0445 -0.3463
 6422TIP3    H240826   2.603   6.523   2.484 -1.5172  0.6188 -0.6714
 6423TIP3   OH240827   1.560   4.629   1.678 -0.1877  0.5342  0.2386
 6423TIP3    H140828   1.589   4.700   1.621  0.6841  1.1363  1.3954
 6423TIP3    H240829   1.633   4.614   1.737 -0.3141 -1.4227 -0.0437
 6424TIP3   OH240830   6.364   6.000   7.543 -0.4691  0.2052  0.2344
 6424TIP3    H140831   6.456   6.009   7.518 -0.4352 -1.2212 -0.2412
 6424TIP3    H240832   6.328   6.088   7.534  1.1274  1.0764  1.6651
 6425TIP3   OH240833   1.306   4.958   6.904 -0.2049  0.3962  0.3865
 6425TIP3    H140834   1.232   4.987   6.957  0.4678 -0.4217  1.8501
 6425TIP3    H240835   1.339   4.881   6.950  1.4423  0.6412 -0.3082
 6426TIP3   OH240836   0.176   0.710   0.714  0.5052 -0.0134  0.5212
 6426TIP3    H140837   0.236   0.637   0.727 -0.0880 -0.3977  1.1734
 6426TIP3    H240838   0.220   0.785   0.752  0.0755 -0.5334  2.1228
 6427TIP3   OH240839   2.287   6.400   8.087  0.6553  0.4804  0.6986
 6427TIP3    H140840   2.305   6.458   8.162  1.2075  0.4465  0.5921
 6427TIP3    H240841   2.288   6.458   8.011 -2.8258  1.1045  0.9357
 6428TIP3   OH240842   2.964   4.442   8.584  0.7121  0.1601  0.7829
 6428TIP3    H140843   2.955   4.348   8.602 -0.6327  0.4006  1.5670
 6428TIP3    H240844   2.926   4.454   8.497  2.9993 -0.3260 -0.3534
 6429TIP3   OH240845   4.868   2.889   0.507 -0.0561  0.5215 -0.3613
 6429TIP3    H140846   4.824   2.841   0.577  1.4980 -1.3820 -0.6002
 6429TIP3    H240847   4.814   2.874   0.430 -0.7226  0.9734  0.0085
 6430TIP3   OH240848   4.219   0.134   1.906 -0.9025  0.6845 -0.7069
 6430TIP3    H140849   4.296   0.100   1.953 -2.2857  0.6982  1.7645
 6430TIP3    H240850   4.217   0.085   1.824 -0.1064 -1.7556  0.6315
 6431TIP3   OH240851   3.767   3.591   1.452 -0.4057  0.2084  0.2030
 6431TIP3    H140852   3.696   3.534   1.424 -0.0063 -0.1644 -0.0526
 6431TIP3    H240853   3.722   3.670   1.483 -0.9419 -0.0993  0.2365
 6432TIP3   OH240854   3.257   4.682   1.241 -0.3143  0.2303 -0.1013
 6432TIP3    H140855   3.331   4.689   1.301 -0.6574 -0.1384  0.3688
 6432TIP3    H240856   3.294   4.704   1.155 -0.0106  1.6813  0.3684
 6433TIP3   OH240857   3.900   6.786   0.598  0.4941  0.3243 -0.1018
 6433TIP3    H140858   3.866   6.847   0.664  2.9125  0.0314  1.5490
 6433TIP3    H240859   3.967   6.836   0.551 -0.3603  0.1455 -1.5688
 6434TIP3   OH240860   1.021   1.655   1.173 -0.4712  0.1060  0.1128
 6434TIP3    H140861   1.075   1.733   1.163 -1.1351  0.4954 -0.5798
 6434TIP3    H240862   0.986   1.661   1.261 -0.1464  0.3446  0.2286
 6435TIP3   OH240863   4.942   2.295   7.830 -0.0776  0.3410 -0.2580
 6435TIP3    H140864   5.033   2.314   7.854 -0.0809  0.1244 -0.0653
 6435TIP3    H240865   4.949   2.230   7.760 -0.0928 -0.8771  0.8178
 6436TIP3   OH240866   5.929   6.274   8.198  0.6423  0.3477  0.2481
 6436TIP3    H140867   5.989   6.220   8.146  0.1321  1.3645 -1.4976
 6436TIP3    H240868   5.850   6.220   8.206  0.1719  0.7047 -1.4016
 6437TIP3   OH240869   3.746   5.071   7.414 -0.5694  0.8484  0.5910
 6437TIP3    H140870   3.833   5.091   7.450  0.1230 -1.1664  0.1414
 6437TIP3    H240871   3.740   5.127   7.336  1.2040 -0.3672 -0.5078
 6438TIP3   OH240872   6.590   2.214   0.395 -0.0750  0.5585  0.1743
 6438TIP3    H140873   6.554   2.137   0.439 -0.0083  0.0056 -0.7174
 6438TIP3    H240874   6.623   2.269   0.466  0.3767 -0.4913  0.7881
 6439TIP3   OH240875   2.769   4.357   1.016  0.2141 -0.3633  0.1846
 6439TIP3    H140876   2.724   4.303   1.080 -0.2543  1.1007  1.1387
 6439TIP3    H240877   2.704   4.372   0.947  0.9783 -2.6308 -1.1252
 6440TIP3   OH240878   2.207   2.258   0.545 -0.0331 -0.3816  0.2300
 6440TIP3    H140879   2.197   2.257   0.450  1.1497  1.4412  0.0437
 6440TIP3    H240880   2.202   2.351   0.569 -1.3027 -0.8719  2.0882
 6441TIP3   OH240881   3.770   1.308   2.251 -0.0857  0.1189  0.6208
 6441TIP3    H140882   3.815   1.331   2.332 -0.8311  0.4672  0.9450
 6441TIP3    H240883   3.816   1.230   2.219  0.5336  0.2792  1.1067
 6442TIP3   OH240884   1.189   4.365   6.947  0.4931  0.4413  0.9687
 6442TIP3    H140885   1.109   4.324   6.915  0.5625  1.0777 -0.0349
 6442TIP3    H240886   1.165   4.400   7.033 -0.6779  1.7270  0.1420
 6443TIP3   OH240887   0.890   0.039   3.047  0.1164  0.6825 -0.1186
 6443TIP3    H140888   0.943   0.104   3.000  1.0548 -0.0868 -0.1467
 6443TIP3    H240889   0.807   0.084   3.064  1.1472  2.2838  0.8793
 6444TIP3   OH240890   1.495   3.849   7.967  0.0711 -0.5497  0.6394
 6444TIP3    H140891   1.420   3.866   7.910 -0.4766 -0.1375  1.4575
 6444TIP3    H240892   1.520   3.936   7.999  1.3075 -0.6135 -0.1212
 6445TIP3   OH240893   0.025   5.621   0.058 -0.0995 -0.2006  0.4633
 6445TIP3    H140894   0.093   5.623  -0.008 -0.1177  1.5196  0.4533
 6445TIP3    H240895  -0.019   5.538   0.045  1.6032 -1.0822  0.0894
 6446TIP3   OH240896   2.770   4.768   2.591 -0.1075 -0.2335  0.0853
 6446TIP3    H140897   2.790   4.773   2.498  0.7899  1.8832  0.3544
 6446TIP3    H240898   2.683   4.807   2.599 -0.4740 -1.0174  0.0866
 6447TIP3   OH240899   5.923   1.108   8.370  0.2748  0.2187 -0.5591
 6447TIP3    H140900   5.966   1.186   8.335  2.3404 -0.7716 -0.3991
 6447TIP3    H240901   5.985   1.073   8.434 -1.3526 -0.6256  0.6397
 6448TIP3   OH240902   4.050   0.220   2.115  0.0192  0.5965  0.2639
 6448TIP3    H140903   4.102   0.184   2.043 -0.6530 -1.8304  0.8903
 6448TIP3    H240904   3.990   0.282   2.073  0.6294  0.3378 -1.0413
 6449TIP3   OH240905   4.298   1.512   2.814  0.1507  0.3931  0.1409
 6449TIP3    H140906   4.217   1.562   2.827 -0.5955 -0.4528 -1.0533
 6449TIP3    H240907   4.333   1.544   2.730  0.4638 -0.0210  0.1095
 6450TIP3   OH240908   0.691   6.346   2.442 -0.8907  0.6901 -0.0024
 6450TIP3    H140909   0.674   6.409   2.512 -0.2100 -0.7640  1.5467
 6450TIP3    H240910   0.633   6.272   2.461 -1.5692  0.7595 -1.6943
 6451TIP3   OH240911   4.562   3.017   8.525  0.4128 -0.4312 -0.3150
 6451TIP3    H140912   4.576   3.106   8.493  1.6715 -0.7506 -0.6933
 6451TIP3    H240913   4.479   3.022   8.574  1.2999  1.3447  1.1265
 6452TIP3   OH240914   4.170   1.742   7.615  0.2217  0.1980 -0.4261
 6452TIP3    H140915   4.256   1.757   7.653  0.8377 -1.4510 -1.0649
 6452TIP3    H240916   4.188   1.703   7.529 -1.1571  0.8797 -1.0562
 6453TIP3   OH240917   2.911   6.480   7.375 -0.4947 -0.6319 -0.0989
 6453TIP3    H140918   2.974   6.530   7.427 -1.3921  0.4329 -0.0051
 6453TIP3    H240919   2.915   6.518   7.288  0.0489 -1.5473 -0.4894
 6454TIP3   OH240920   2.654   3.770   8.141  0.8691 -0.4810  0.2211
 6454TIP3    H140921   2.603   3.694   8.169 -1.9622  1.6935  1.4950
 6454TIP3    H240922   2.630   3.782   8.049  0.7069 -0.6950  0.2336
 6455TIP3   OH240923   3.268   1.739   1.825 -0.9590 -0.0045  0.0975
 6455TIP3    H140924   3.331   1.725   1.896  2.1548  2.1525 -2.0355
 6455TIP3    H240925   3.283   1.667   1.764  0.1486  1.0065 -0.8510
 6456TIP3   OH240926   5.385   4.076   1.575  0.0552  0.1729  0.0190
 6456TIP3    H140927   5.352   3.991   1.548  1.6859 -0.6168  0.3716
 6456TIP3    H240928   5.451   4.099   1.509 -0.8490  1.5049 -0.4593
 6457TIP3   OH240929   4.665   3.911   0.116  0.9505 -0.2202 -0.1562
 6457TIP3    H140930   4.719   3.905   0.037 -0.1229  0.2533 -0.9576
 6457TIP3    H240931   4.591   3.967   0.090  1.2242  1.0071  1.5612
 6458TIP3   OH240932   6.055   3.842   8.645 -0.2046  0.1628 -0.4060
 6458TIP3    H140933   6.008   3.926   8.649  3.1270  2.2393 -0.5322
 6458TIP3    H240934   6.088   3.838   8.555 -1.0744 -1.8494 -0.6806
 6459TIP3   OH240935   1.203   5.230   2.244  0.9924  0.1543  0.5884
 6459TIP3    H140936   1.142   5.242   2.172  1.8487 -2.6634 -0.7571
 6459TIP3    H240937   1.148   5.228   2.323 -0.2534  0.7390 -0.2385
 6460TIP3   OH240938   1.658   6.750   7.829  0.8113 -0.8017 -0.8006
 6460TIP3    H140939   1.684   6.842   7.822  0.2246 -0.3316  2.0488
 6460TIP3    H240940   1.727   6.709   7.881 -0.0645 -1.4446 -0.1137
 6461TIP3   OH240941   2.601   3.789   7.376  0.3100  0.2831 -0.8265
 6461TIP3    H140942   2.637   3.829   7.455 -0.7399 -0.9319  0.3254
 6461TIP3    H240943   2.528   3.845   7.351 -0.4281 -0.2306  0.1019
 6462TIP3   OH240944   4.109   6.771   0.969 -0.2449  0.4887 -0.2677
 6462TIP3    H140945   4.102   6.712   1.043 -0.7763  0.2254 -0.5250
 6462TIP3    H240946   4.191   6.819   0.984 -0.5550  0.7327  0.6973
 6463TIP3   OH240947   3.042   2.919   2.280 -0.3245  0.2280  0.8563
 6463TIP3    H140948   2.991   2.957   2.352 -1.4470  1.2578 -0.4437
 6463TIP3    H240949   3.093   2.993   2.245 -0.5127 -0.0417 -0.0037
 6464TIP3   OH240950   1.266   1.443   1.430 -0.0314  0.9177  0.3381
 6464TIP3    H140951   1.288   1.398   1.512 -0.3057 -0.3035 -0.2291
 6464TIP3    H240952   1.174   1.466   1.439 -0.0935  0.6751  0.3241
 6465TIP3   OH240953   6.316   2.102   2.739  0.3322 -0.3133  0.4277
 6465TIP3    H140954   6.274   2.187   2.726  0.5843 -0.3070 -0.4152
 6465TIP3    H240955   6.280   2.047   2.669  0.7647 -0.6721  0.4841
 6466TIP3   OH240956   0.142   2.047   0.027 -0.4174  0.1792  1.3536
 6466TIP3    H140957   0.191   1.965   0.032 -0.5721 -0.2167 -1.6548
 6466TIP3    H240958   0.168   2.085  -0.057 -0.1354  3.4136  2.7494
 6467TIP3   OH240959   4.495   0.723   1.562 -0.0512  0.3615  0.4263
 6467TIP3    H140960   4.547   0.729   1.642  1.8539 -1.2179 -0.5952
 6467TIP3    H240961   4.448   0.806   1.557  1.6897  1.5040  1.8990
 6468TIP3   OH240962   2.929   0.959   2.323  0.0056  0.4425 -0.2874
 6468TIP3    H140963   2.939   0.874   2.280 -1.5876 -1.5616  2.8859
 6468TIP3    H240964   2.996   0.959   2.391  0.6474  2.2640 -0.8557
 6469TIP3   OH240965   0.398   6.366   7.492 -0.2378 -0.6941  0.0201
 6469TIP3    H140966   0.342   6.336   7.563 -1.7316  0.9491 -0.3793
 6469TIP3    H240967   0.348   6.346   7.412 -0.7036  1.5123 -0.3061
 6470TIP3   OH240968   4.710   4.164   1.755 -0.8319 -0.0886  0.0297
 6470TIP3    H140969   4.664   4.084   1.781 -0.8918 -0.1496 -0.2633
 6470TIP3    H240970   4.670   4.233   1.808 -0.9465 -0.2136  0.1059
 6471TIP3   OH240971   4.515   1.810   6.660 -0.0588 -0.0598 -0.0367
 6471TIP3    H140972   4.594   1.863   6.644 -1.1058  1.7100  0.3369
 6471TIP3    H240973   4.548   1.730   6.701  1.6724 -0.0437 -1.2615
 6472TIP3   OH240974   1.634   6.279   1.008 -0.3164  0.1025  0.7235
 6472TIP3    H140975   1.624   6.368   0.975 -0.6941 -0.3680 -0.4676
 6472TIP3    H240976   1.631   6.288   1.104  0.5049  1.4533  0.6364
 6473TIP3   OH240977   2.414   1.046   7.591 -0.9199 -0.8165  0.3879
 6473TIP3    H140978   2.338   1.082   7.545 -0.2386  1.4502  0.8757
 6473TIP3    H240979   2.409   1.084   7.679  1.4861  0.6437  0.0114
 6474TIP3   OH240980   1.670   1.292   0.535  0.3661  0.0879 -0.0378
 6474TIP3    H140981   1.655   1.352   0.462 -0.6679 -0.0418  0.0397
 6474TIP3    H240982   1.741   1.331   0.585  1.5205 -0.1512 -1.4542
 6475TIP3   OH240983   0.173   6.455   2.326 -0.2330  0.1225  0.3572
 6475TIP3    H140984   0.233   6.508   2.379  0.4055 -1.4916  1.3023
 6475TIP3    H240985   0.125   6.402   2.389 -2.1561  0.8039 -0.4468
 6476TIP3   OH240986   4.866   4.983   7.910  0.0168  0.1299  0.2040
 6476TIP3    H140987   4.878   4.953   7.820  0.0206  1.4612 -0.2605
 6476TIP3    H240988   4.830   4.907   7.956  0.7195 -0.8013 -0.7335
 6477TIP3   OH240989   2.963   4.852   7.011 -0.1841  0.1847 -0.8201
 6477TIP3    H140990   3.058   4.862   7.007  0.0061 -1.5492 -2.8673
 6477TIP3    H240991   2.949   4.785   7.078 -0.2336  2.2192  1.3138
 6478TIP3   OH240992   5.156   4.633   8.317  0.0620  0.6376 -0.3211
 6478TIP3    H140993   5.213   4.700   8.280 -1.4851  2.4635  0.4870
 6478TIP3    H240994   5.068   4.657   8.288 -0.5381 -1.0672 -0.0356
 6479TIP3   OH240995   2.929   5.464   8.717 -0.5251  0.5763  0.2421
 6479TIP3    H140996   2.934   5.422   8.803 -0.9636  1.3529  0.6535
 6479TIP3    H240997   3.006   5.519   8.712  1.5426 -2.1941 -1.3867
 6480TIP3   OH240998   2.985   5.429   7.075 -0.0419  0.3154 -0.1840
 6480TIP3    H140999   2.892   5.415   7.097  0.6047  0.3656  3.1590
 6480TIP3    H241000   3.025   5.343   7.088  0.8894  1.0116  2.0074
 6481TIP3   OH241001   6.632   1.944   7.201 -1.0805  0.4677  0.3649
 6481TIP3    H141002   6.576   1.867   7.194 -0.8524  0.4034 -1.0971
 6481TIP3    H241003   6.608   1.999   7.125  0.4581  0.6641 -0.0237
 6482TIP3   OH241004   6.484   3.900   8.467 -0.4685 -0.0343 -0.2424
 6482TIP3    H141005   6.510   3.983   8.506  1.8943 -1.0219  0.4474
 6482TIP3    H241006   6.465   3.843   8.542 -3.1465  0.1063 -0.7062
 6483TIP3   OH241007   1.629   4.784   7.581 -0.6545 -0.5914  0.1042
 6483TIP3    H141008   1.605   4.790   7.489  0.2317  3.2007 -0.0701
 6483TIP3    H241009   1.694   4.714   7.585 -1.4645 -1.5299 -1.9122
 6484TIP3   OH241010   1.022   4.256   2.549  0.2329 -0.1392 -0.0048
 6484TIP3    H141011   0.962   4.322   2.514  0.3522  0.9415  1.6617
 6484TIP3    H241012   1.000   4.251   2.642  1.0749 -1.5544  0.1530
 6485TIP3   OH241013   1.525   2.828   7.384  0.6619 -0.4782 -0.0471
 6485TIP3    H141014   1.603   2.882   7.399 -0.6469  1.1607  1.2400
 6485TIP3    H241015   1.548   2.743   7.421  1.4870  0.2888  1.2957
 6486TIP3   OH241016   3.935   4.671   0.665  0.0663  0.7077 -0.5032
 6486TIP3    H141017   3.945   4.597   0.724 -0.5921  1.8920  1.1787
 6486TIP3    H241018   3.866   4.644   0.604 -1.1818  0.4008  0.9648
 6487TIP3   OH241019   2.170   0.612   1.180 -0.7980 -0.0937  0.8250
 6487TIP3    H141020   2.223   0.642   1.107  0.5382 -0.4986  1.5890
 6487TIP3    H241021   2.101   0.560   1.140  0.6201 -1.3485 -0.1000
 6488TIP3   OH241022   6.674   2.252   2.582  0.2173  0.5980 -0.2029
 6488TIP3    H141023   6.738   2.319   2.609 -0.4031  0.7470  0.9893
 6488TIP3    H241024   6.643   2.215   2.664 -2.3507  1.5934 -0.6180
 6489TIP3   OH241025   1.487   2.508   0.609 -0.6744 -0.0936 -0.1464
 6489TIP3    H141026   1.395   2.499   0.632 -0.6524  0.2711  0.0870
 6489TIP3    H241027   1.534   2.481   0.688 -0.5621 -1.0893 -0.5333
 6490TIP3   OH241028   0.832   1.628   0.973 -0.4780 -0.6112 -0.0566
 6490TIP3    H141029   0.750   1.653   1.017 -0.2708 -0.8674  0.4909
 6490TIP3    H241030   0.899   1.638   1.041 -0.1676 -1.1283 -0.2813
 6491TIP3   OH241031   4.935   1.156   8.094 -0.4423  0.4555  0.3190
 6491TIP3    H141032   4.861   1.164   8.155 -0.4937 -1.9601  0.6804
 6491TIP3    H241033   5.010   1.189   8.143 -1.2421  3.3022 -0.1819
 6492TIP3   OH241034   1.414   5.812   0.567  0.0803  0.4482 -0.2111
 6492TIP3    H141035   1.328   5.773   0.581 -0.0644 -0.1393 -2.4123
 6492TIP3    H241036   1.451   5.821   0.655 -2.2887  0.9301  0.8051
 6493TIP3   OH241037   1.639   4.839   1.903 -0.3861 -0.1253 -0.2134
 6493TIP3    H141038   1.554   4.883   1.901 -0.7821 -0.8956 -0.6629
 6493TIP3    H241039   1.703   4.911   1.901 -1.0218  0.4368 -0.7864
 6494TIP3   OH241040   2.819   2.729   2.392 -0.5910  0.4611 -0.3662
 6494TIP3    H141041   2.907   2.698   2.413 -1.1858 -0.9793  0.1136
 6494TIP3    H241042   2.791   2.777   2.470 -0.0729  1.3748 -0.7122
 6495TIP3   OH241043   6.641   0.636   7.220 -0.1641 -0.1703  0.1203
 6495TIP3    H141044   6.668   0.573   7.286 -0.5472  0.3187  0.7582
 6495TIP3    H241045   6.559   0.601   7.185 -0.0145 -0.3781 -0.0198
 6496TIP3   OH241046   6.760   6.112   1.718 -0.2940 -0.3656  0.1199
 6496TIP3    H141047   6.847   6.083   1.746  0.7481  1.9785 -0.4817
 6496TIP3    H241048   6.745   6.064   1.637  1.3555  0.6613 -0.8431
 6497TIP3   OH241049   0.059   2.154   2.393  0.2442 -0.0408 -0.3197
 6497TIP3    H141050   0.145   2.180   2.425  0.2920 -1.9305  1.2580
 6497TIP3    H241051  -0.002   2.207   2.445  0.4028  0.2193 -0.3923
 6498TIP3   OH241052   2.418   2.334   0.934 -0.1017  0.4756  0.5522
 6498TIP3    H141053   2.379   2.394   0.870  0.1338 -0.7297 -0.7968
 6498TIP3    H241054   2.493   2.382   0.969 -1.1842  1.7727  1.1350
 6499TIP3   OH241055   0.279   5.473   0.060 -0.5508  0.0016  0.6031
 6499TIP3    H141056   0.344   5.481   0.130 -0.0195  0.1645  0.1003
 6499TIP3    H241057   0.196   5.463   0.106 -0.2384  0.3204  1.2592
 6500TIP3   OH241058   0.153   6.391   1.452 -0.4716  0.0183 -0.6913
 6500TIP3    H141059   0.239   6.420   1.422  0.7582 -2.1005  0.5032
 6500TIP3    H241060   0.171   6.313   1.504 -2.7440  1.6277  2.8766
 6501TIP3   OH241061   2.750   2.220   2.434 -0.4531  0.2130 -0.2219
 6501TIP3    H141062   2.657   2.212   2.456 -0.2782 -0.8751  0.1996
 6501TIP3    H241063   2.751   2.238   2.340 -1.0657 -1.3806 -0.5635
 6502TIP3   OH241064   5.232   1.958   7.206  0.4265  0.3272  0.0064
 6502TIP3    H141065   5.321   1.984   7.183  0.0292  0.3664 -1.6339
 6502TIP3    H241066   5.215   1.881   7.152 -0.4327  0.1440  0.5258
 6503TIP3   OH241067   5.200   3.640   1.334  0.2316 -0.5924  0.1351
 6503TIP3    H141068   5.120   3.591   1.314 -0.4060 -0.3461  1.9179
 6503TIP3    H241069   5.242   3.591   1.404  1.9744 -0.9968 -1.1166
 6504TIP3   OH241070   3.315   4.630   8.790 -0.3566  0.1575 -0.2608
 6504TIP3    H141071   3.306   4.636   8.695  1.0852  1.8791 -0.3358
 6504TIP3    H241072   3.383   4.564   8.804  1.3537  1.7724 -0.5947
 6505TIP3   OH241073   4.668   3.578   1.167  0.3262  0.1061  0.1995
 6505TIP3    H141074   4.685   3.630   1.245  0.9407 -1.2764  1.0398
 6505TIP3    H241075   4.643   3.492   1.201  0.8944 -0.6113 -1.1284
 6506TIP3   OH241076   2.578   2.351   1.734 -0.5196  0.0150 -0.0908
 6506TIP3    H141077   2.656   2.369   1.787 -1.4271 -0.1108  1.3075
 6506TIP3    H241078   2.591   2.404   1.655  0.7817  0.3233  0.3051
 6507TIP3   OH241079   0.021   6.146   0.679 -0.5065  0.6164  0.1641
 6507TIP3    H141080   0.090   6.207   0.705 -0.9001  1.0499  0.2016
 6507TIP3    H241081  -0.003   6.173   0.590 -0.2038  0.0788 -0.0874
 6508TIP3   OH241082   0.185   0.262   0.779  0.0737  0.1025  0.3988
 6508TIP3    H141083   0.127   0.291   0.709 -0.7507 -1.1763  0.5184
 6508TIP3    H241084   0.146   0.298   0.859  0.8920  1.3749  0.2618
 6509TIP3   OH241085   0.939   3.037   0.682 -0.2100  0.5678  0.1810
 6509TIP3    H141086   0.874   3.051   0.613 -0.2617  1.1073  0.3341
 6509TIP3    H241087   0.907   3.089   0.756 -0.4186 -0.3927  0.7862
 6510TIP3   OH241088   1.639   0.476   0.685 -0.1874 -0.1175 -0.3012
 6510TIP3    H141089   1.685   0.470   0.602 -1.0199 -0.4645 -0.7456
 6510TIP3    H241090   1.671   0.557   0.725  0.5582 -0.1847 -0.7366
 6511TIP3   OH241091   1.918   1.345   8.374 -0.2636  0.4234 -0.2604
 6511TIP3    H141092   1.955   1.433   8.386  0.6067 -0.1927  2.3167
 6511TIP3    H241093   1.826   1.355   8.398  0.3057  0.3030  2.3483
 6512TIP3   OH241094   0.922   0.730   8.120 -0.3021 -0.1475 -0.2614
 6512TIP3    H141095   0.854   0.672   8.086  0.1722  0.1492 -1.8264
 6512TIP3    H241096   0.975   0.753   8.043  1.7750 -0.6193  0.9291
 6513TIP3   OH241097   5.864   5.331   1.611  0.5429  0.5119 -0.6884
 6513TIP3    H141098   5.925   5.292   1.673  0.8084 -0.9899 -1.8444
 6513TIP3    H241099   5.778   5.299   1.639  0.5926  0.3296 -0.7467
 6514TIP3   OH241100   6.017   6.252   1.147 -0.2294  0.2280 -0.3403
 6514TIP3    H141101   6.015   6.156   1.149 -0.1052  0.2328  0.1373
 6514TIP3    H241102   5.954   6.279   1.214 -0.5696  0.4865 -0.7582
 6515TIP3   OH241103   5.660   1.223   8.401  0.0751  0.0641  0.5812
 6515TIP3    H141104   5.579   1.173   8.397 -0.0524  0.2288  1.0643
 6515TIP3    H241105   5.728   1.161   8.374 -0.2648  0.0621 -0.2938
 6516TIP3   OH241106   6.516   2.349   1.953  0.0063 -0.2401 -0.2492
 6516TIP3    H141107   6.524   2.385   1.864 -2.0194  0.3235 -0.2718
 6516TIP3    H241108   6.425   2.369   1.977  0.9664  1.1729  2.6277
 6517TIP3   OH241109   1.426   6.195   1.912 -0.5652  0.0260 -0.3618
 6517TIP3    H141110   1.414   6.100   1.904  2.2287 -0.3462 -1.2751
 6517TIP3    H241111   1.433   6.226   1.822  2.4557  0.3891 -0.1286
 6518TIP3   OH241112   3.485   5.419   0.788  0.4350  0.2701 -0.3121
 6518TIP3    H141113   3.560   5.417   0.847 -0.1786 -1.8028  0.4978
 6518TIP3    H241114   3.509   5.361   0.716  0.4418  1.3214 -1.1814
 6519TIP3   OH241115   6.002   1.622   8.183 -0.2096 -0.9766 -0.0498
 6519TIP3    H141116   5.922   1.668   8.159  0.6252  0.0574 -0.9259
 6519TIP3    H241117   6.050   1.685   8.236  0.1839 -1.4794  0.1999
 6520TIP3   OH241118   5.707   1.502   8.305 -0.3499  0.0472 -0.3040
 6520TIP3    H141119   5.766   1.441   8.262  0.3185  1.5465 -1.6449
 6520TIP3    H241120   5.659   1.450   8.370 -0.0444 -1.9115 -1.6015
 6521TIP3   OH241121   5.828   1.727   0.290 -0.1813 -0.4177  0.1510
 6521TIP3    H141122   5.854   1.712   0.199 -1.6780  0.4336 -0.4420
 6521TIP3    H241123   5.898   1.686   0.342  1.0217 -0.3677 -1.3657
 6522TIP3   OH241124   0.480   1.636   0.278 -0.6104  0.7018  0.6299
 6522TIP3    H141125   0.410   1.572   0.263 -0.0041  0.0485  0.5349
 6522TIP3    H241126   0.503   1.669   0.191  0.3754 -0.3671  0.4605
 6523TIP3   OH241127   2.694   0.814   7.838  0.0328  0.1842 -0.2319
 6523TIP3    H141128   2.785   0.844   7.842 -0.1066  0.6252 -0.3935
 6523TIP3    H241129   2.673   0.813   7.745  0.8295 -2.8230 -0.4941
 6524TIP3   OH241130   4.269   1.845   6.795 -0.2414 -0.1796 -0.4403
 6524TIP3    H141131   4.251   1.938   6.811  0.8179  0.0627 -0.6206
 6524TIP3    H241132   4.349   1.844   6.743 -0.6278 -1.1794 -1.0405
 6525TIP3   OH241133   3.090   3.902   7.304  0.0022  0.1758  0.3935
 6525TIP3    H141134   3.064   3.819   7.344 -0.1116 -1.0976 -2.1654
 6525TIP3    H241135   3.183   3.891   7.284 -0.7074 -0.7119 -2.9009
 6526TIP3   OH241136   0.104   1.735   0.916 -0.8157 -0.4114  0.6013
 6526TIP3    H141137   0.078   1.827   0.916  1.4118  0.3075  1.8503
 6526TIP3    H241138   0.181   1.732   0.858 -0.5183 -1.3542  1.0232
 6527TIP3   OH241139   3.362   1.506   6.878  0.0276  0.3021 -0.4654
 6527TIP3    H141140   3.285   1.547   6.916  0.1777  0.5437 -0.4237
 6527TIP3    H241141   3.353   1.519   6.784  0.3831  0.9646 -0.4091
 6528TIP3   OH241142   2.096   4.593   7.052  0.1041 -0.1680  0.0669
 6528TIP3    H141143   2.161   4.604   7.122 -0.0884 -0.0063  0.2226
 6528TIP3    H241144   2.137   4.532   6.991 -0.0256 -0.9172  0.7032
 6529TIP3   OH241145   1.001   2.244   0.342  0.1295 -0.1928 -1.0296
 6529TIP3    H141146   1.074   2.205   0.295 -1.0295 -1.3674 -1.9460
 6529TIP3    H241147   0.985   2.187   0.416  0.2234  0.1354 -0.7531
 6530TIP3   OH241148   1.718   4.971   0.255 -0.4609  0.1315  0.7705
 6530TIP3    H141149   1.756   4.947   0.171 -0.8051  0.1855  0.5969
 6530TIP3    H241150   1.776   5.039   0.289  0.3337 -0.6957  1.1135
 6531TIP3   OH241151   2.676   3.523   1.360 -0.1514 -0.0988 -0.2331
 6531TIP3    H141152   2.663   3.445   1.413 -1.1026 -0.3579 -0.8188
 6531TIP3    H241153   2.723   3.492   1.282  0.6159  0.1523  0.1221
 6532TIP3   OH241154   0.111   2.713   0.575 -0.5342  0.0870 -0.1792
 6532TIP3    H141155   0.047   2.782   0.596 -0.8547 -0.0472 -0.6895
 6532TIP3    H241156   0.070   2.663   0.504 -1.3065 -1.9987  1.6171
 6533TIP3   OH241157   6.555   6.565   7.992 -0.2894 -0.2236 -0.2573
 6533TIP3    H141158   6.634   6.609   7.960 -0.1092 -0.2111  0.1868
 6533TIP3    H241159   6.494   6.636   8.010 -0.8204 -0.2994 -1.6652
 6534TIP3   OH241160   4.867   3.982   1.655  0.0930  0.4328 -0.0938
 6534TIP3    H141161   4.834   4.066   1.685 -0.5329  0.1090  0.1447
 6534TIP3    H241162   4.865   3.987   1.560 -0.9994  0.2863 -0.0855
 6535TIP3   OH241163   3.666   0.160   8.250  0.3238  0.2399  0.1183
 6535TIP3    H141164   3.750   0.177   8.208  0.2749  2.4717  0.8101
 6535TIP3    H241165   3.628   0.087   8.200  1.9084  0.3136 -1.2576
 6536TIP3   OH241166   2.019   5.092   6.763  0.3098 -0.3012  0.0393
 6536TIP3    H141167   2.106   5.123   6.735 -0.1401  1.6452  0.6114
 6536TIP3    H241168   1.960   5.164   6.739 -1.3206 -1.9562 -1.1372
 6537TIP3   OH241169   0.286   5.985   1.834 -0.0630  0.0921 -0.1089
 6537TIP3    H141170   0.256   5.918   1.895  0.8627 -0.6709 -0.4753
 6537TIP3    H241171   0.346   6.039   1.886 -0.5601  0.4572  0.0972
 6538TIP3   OH241172   1.152   0.604   2.146 -0.4894  0.5590  0.6256
 6538TIP3    H141173   1.242   0.578   2.163 -1.5279 -0.9494  5.0040
 6538TIP3    H241174   1.126   0.552   2.070  1.8546 -0.0321  0.1503
 6539TIP3   OH241175   4.378   6.408   0.251 -0.3910  0.1010 -0.5008
 6539TIP3    H141176   4.466   6.403   0.287 -1.0214 -1.2299  1.0091
 6539TIP3    H241177   4.389   6.398   0.157  1.1078  0.8016 -0.4278
 6540TIP3   OH241178   3.762   0.402   1.653 -0.5617 -0.3209 -0.3117
 6540TIP3    H141179   3.794   0.369   1.569  1.2863 -0.0616  0.2315
 6540TIP3    H241180   3.822   0.364   1.718 -2.5958 -1.4001  1.0391
 6541TIP3   OH241181   5.883   2.120   8.240  0.3413  0.5430  0.6990
 6541TIP3    H141182   5.855   2.089   8.154  1.3011 -0.7671  0.8268
 6541TIP3    H241183   5.979   2.124   8.234  0.4980 -0.5582  2.0027
 6542TIP3   OH241184   5.986   3.950   0.648  0.5243 -0.3088 -0.6033
 6542TIP3    H141185   5.925   3.880   0.626 -1.2119  1.1429 -0.6104
 6542TIP3    H241186   6.020   3.979   0.563 -0.7301  0.5468 -0.8330
 6543TIP3   OH241187   2.320   2.009   7.403  0.4557  0.3988 -0.5197
 6543TIP3    H141188   2.257   2.027   7.332 -1.2761  3.8934  1.6118
 6543TIP3    H241189   2.273   1.952   7.463  1.0206 -0.5651 -0.9707
 6544TIP3   OH241190   0.841   1.271   0.242 -0.2349 -0.0792 -0.2460
 6544TIP3    H141191   0.889   1.252   0.322 -2.7077 -2.6168  0.7942
 6544TIP3    H241192   0.908   1.300   0.180  1.6429  3.4907  2.9931
 6545TIP3   OH241193   0.780   0.901   0.245 -0.1231  0.2708 -0.3143
 6545TIP3    H141194   0.813   0.974   0.193  0.2330  0.9841  0.8739
 6545TIP3    H241195   0.850   0.883   0.308 -0.4193 -0.7727 -0.2599
 6546TIP3   OH241196   0.107   6.263   8.508 -0.0059  0.5450  0.5488
 6546TIP3    H141197   0.068   6.282   8.593  0.6107  1.4321  0.6411
 6546TIP3    H241198   0.123   6.168   8.510  0.4479  0.6340  1.6033
 6547TIP3   OH241199   5.888   0.043   8.075  1.2760 -0.1955  0.0948
 6547TIP3    H141200   5.912  -0.044   8.044  0.6683 -0.6019  0.7405
 6547TIP3    H241201   5.940   0.103   8.021  1.7767 -0.9569 -0.2830
 6548TIP3   OH241202   0.721   5.180   1.312  0.1377 -0.0690  0.4116
 6548TIP3    H141203   0.761   5.237   1.246 -2.8773  1.0583 -0.6127
 6548TIP3    H241204   0.654   5.131   1.264 -0.3944 -1.1523  2.1663
 6549TIP3   OH241205   3.885   3.505   0.007  0.1238  0.6989  0.2446
 6549TIP3    H141206   3.837   3.520   0.088  1.7048  0.7804  1.2153
 6549TIP3    H241207   3.970   3.547   0.021  0.6357  0.2280 -1.2327
 6550TIP3   OH241208   6.121   6.413   2.325  0.1108  0.1464 -0.6278
 6550TIP3    H141209   6.182   6.466   2.377 -0.2364  0.3517 -0.4292
 6550TIP3    H241210   6.088   6.473   2.258  0.6589 -0.1510 -1.1846
 6551TIP3   OH241211   1.120   3.572   1.257  0.6098 -0.1602 -0.3347
 6551TIP3    H141212   1.185   3.617   1.311  1.1246 -0.1519 -0.9374
 6551TIP3    H241213   1.063   3.642   1.224 -0.0414 -0.2273  0.6232
 6552TIP3   OH241214   6.242   5.535   1.557  0.7928  0.7874  0.6734
 6552TIP3    H141215   6.184   5.480   1.503  1.4879  1.6871 -1.0641
 6552TIP3    H241216   6.260   5.611   1.502  3.1261  0.8299  1.4059
 6553TIP3   OH241217   2.886   0.997   8.228 -0.1003 -0.1965 -0.4201
 6553TIP3    H141218   2.874   1.092   8.221 -1.0016 -0.3249 -0.7792
 6553TIP3    H241219   2.980   0.984   8.222 -0.0293  0.6156 -1.1910
 6554TIP3   OH241220   5.037   6.277   8.080  0.3007  0.2537  0.1676
 6554TIP3    H141221   5.074   6.362   8.056 -0.9000  0.9811  0.7639
 6554TIP3    H241222   4.943   6.288   8.067  0.0906 -0.8516  0.6518
 6555TIP3   OH241223   0.557   6.778   2.622  0.6904  0.3272 -0.0629
 6555TIP3    H141224   0.475   6.770   2.572 -0.8195 -3.4280  2.5955
 6555TIP3    H241225   0.530   6.808   2.708  1.3481 -4.0453  1.9371
 6556TIP3   OH241226   6.699   0.697   0.646 -0.4095 -0.2867 -0.0756
 6556TIP3    H141227   6.791   0.697   0.673 -0.3317  0.5752 -0.3130
 6556TIP3    H241228   6.702   0.710   0.552 -0.8030  1.2140  0.0988
 6557TIP3   OH241229   4.994   4.851   8.847 -0.0728  0.5557 -0.8199
 6557TIP3    H141230   4.999   4.937   8.890  0.7606  0.8663 -1.5160
 6557TIP3    H241231   5.043   4.862   8.766 -0.6456 -0.3612 -1.2980
 6558TIP3   OH241232   4.678   2.827   1.877 -0.2779  0.3723  0.4991
 6558TIP3    H141233   4.704   2.801   1.965  2.2224 -1.8494 -0.7670
 6558TIP3    H241234   4.602   2.773   1.858  0.1870 -0.3796  0.7221
 6559TIP3   OH241235   2.587   4.531   1.968  0.1270 -0.3996 -0.8473
 6559TIP3    H141236   2.521   4.588   2.006  0.1379 -0.3154 -0.9527
 6559TIP3    H241237   2.630   4.490   2.043 -2.7146 -3.6039 -0.7666
 6560TIP3   OH241238   1.202   3.388   8.807  0.3845  0.0363 -0.2922
 6560TIP3    H141239   1.205   3.482   8.786 -2.6642  1.1565  3.0812
 6560TIP3    H241240   1.161   3.348   8.730 -0.0873  1.8534 -1.0471
 6561TIP3   OH241241   4.712   3.722   2.608  0.0924  0.3466  0.5216
 6561TIP3    H141242   4.750   3.800   2.568  0.6113  0.2868  0.8826
 6561TIP3    H241243   4.621   3.745   2.625  0.1109  0.6944  0.1591
 6562TIP3   OH241244   4.749   0.629   8.823 -0.4006  0.1965  0.4717
 6562TIP3    H141245   4.661   0.668   8.822  0.3059  2.0669  2.0640
 6562TIP3    H241246   4.734   0.535   8.830 -2.2779  0.4334  0.1257
 6563TIP3   OH241247   6.484   5.588   2.413  0.3251  0.0573 -0.0638
 6563TIP3    H141248   6.402   5.634   2.434  1.4059  0.6992  3.4245
 6563TIP3    H241249   6.553   5.649   2.441  1.9971 -1.0732 -1.5198
 6564TIP3   OH241250   4.024   0.030   8.771  0.6814 -0.3087 -0.1492
 6564TIP3    H141251   4.074   0.071   8.841 -2.0059  1.9926  0.6523
 6564TIP3    H241252   3.986  -0.048   8.810  0.2902  0.2305  0.5751
 6565TIP3   OH241253   5.409   5.284   7.947  0.1173  0.5483  0.3158
 6565TIP3    H141254   5.478   5.237   7.994  0.2334  0.5435  0.1435
 6565TIP3    H241255   5.355   5.214   7.908  1.0565  0.5479 -1.0532
 6566TIP3   OH241256   1.975   1.083   1.116  0.1768  0.6232 -0.1230
 6566TIP3    H141257   1.918   1.083   1.192  1.1989  0.7319  0.6595
 6566TIP3    H241258   1.926   1.131   1.049 -0.6519  0.6720  0.5078
 6567TIP3   OH241259   2.167   4.851   6.813 -0.1466  0.2280  0.2426
 6567TIP3    H141260   2.164   4.818   6.903 -1.4761  0.5776  0.3511
 6567TIP3    H241261   2.100   4.920   6.811  1.3823  1.7823 -0.4203
 6568TIP3   OH241262   5.303   1.002   7.949 -0.3874 -0.3864  0.4519
 6568TIP3    H141263   5.228   0.953   7.983 -0.0412 -0.6647  0.8352
 6568TIP3    H241264   5.267   1.059   7.882 -0.8142 -1.1495  0.0142
 6569TIP3   OH241265   2.547   6.035   1.528  0.2950  0.1983  0.0842
 6569TIP3    H141266   2.602   5.959   1.509  2.6032  1.8739 -0.3370
 6569TIP3    H241267   2.532   6.075   1.443 -0.6151  0.4396  0.3468
 6570TIP3   OH241268   4.439   6.268   0.902  0.9465  0.0291  0.6613
 6570TIP3    H141269   4.365   6.329   0.910  2.2811  2.3541 -2.4982
 6570TIP3    H241270   4.426   6.226   0.817  0.9238 -3.1257  2.0905
 6571TIP3   OH241271   4.775   3.756   8.410  0.3198 -0.3063  0.2659
 6571TIP3    H141272   4.686   3.726   8.393  0.4815 -0.3591 -0.4894
 6571TIP3    H241273   4.766   3.817   8.484 -0.5149  0.6694 -0.6177
 6572TIP3   OH241274   6.510   6.646   1.801 -0.0831  0.4079 -0.0995
 6572TIP3    H141275   6.454   6.581   1.757  0.0594  1.2299 -1.5643
 6572TIP3    H241276   6.458   6.727   1.800  0.0475  0.5207  1.0148
 6573TIP3   OH241277   2.264   3.083   1.924  0.5243  0.3748  0.5277
 6573TIP3    H141278   2.248   3.011   1.986  0.6506 -0.3631 -0.2748
 6573TIP3    H241279   2.346   3.058   1.880 -0.0862  0.3664 -0.6459
 6574TIP3   OH241280   0.819   6.418   8.090 -0.7789 -0.2585  0.4356
 6574TIP3    H141281   0.806   6.507   8.125 -1.2601 -0.3998  0.6304
 6574TIP3    H241282   0.781   6.421   8.002 -1.9524 -0.5962  0.9015
 6575TIP3   OH241283   2.680   3.657   6.548  0.3604  0.3704  0.1473
 6575TIP3    H141284   2.743   3.609   6.602  0.3994  0.4144  0.1408
 6575TIP3    H241285   2.676   3.744   6.588  0.1643  0.3108  0.2624
 6576TIP3   OH241286   1.954   4.573   6.694  0.3648 -0.4141 -0.0131
 6576TIP3    H141287   2.048   4.573   6.676  0.1868 -3.1003 -1.4382
 6576TIP3    H241288   1.945   4.622   6.776  2.9414  0.1962 -0.0103
 6577TIP3   OH241289   5.917   2.181   7.315 -0.4284 -0.1563  0.2226
 6577TIP3    H141290   5.898   2.265   7.273 -1.6600 -0.4354  0.1938
 6577TIP3    H241291   5.915   2.117   7.244  3.2181  0.0699 -0.2566
 6578TIP3   OH241292   3.865   5.356   1.660 -0.9396 -0.4946 -0.1099
 6578TIP3    H141293   3.888   5.306   1.738 -0.5502  1.7969  1.3256
 6578TIP3    H241294   3.819   5.293   1.604  0.1649 -2.6177  1.2301
 6579TIP3   OH241295   3.656   2.051   8.681  0.2339 -0.1575  0.6114
 6579TIP3    H141296   3.672   2.038   8.774  1.5522  0.6790  0.5198
 6579TIP3    H241297   3.733   2.014   8.637 -0.1328 -0.0766 -0.1229
 6580TIP3   OH241298   3.773   1.541   7.781 -0.7669  0.1166 -0.2078
 6580TIP3    H141299   3.751   1.521   7.872 -0.8814 -0.3400 -0.3365
 6580TIP3    H241300   3.725   1.623   7.763 -0.2776  0.5280  0.3202
 6581TIP3   OH241301   5.762   0.336   0.955 -0.7426  0.6688  0.4913
 6581TIP3    H141302   5.751   0.427   0.982  0.9780  0.8284  0.7472
 6581TIP3    H241303   5.768   0.287   1.037  0.4217  0.6203  0.3947
 6582TIP3   OH241304   4.001   2.691   0.995  0.4546 -0.3106  0.0657
 6582TIP3    H141305   3.971   2.643   0.918  0.9992  0.1386 -0.4301
 6582TIP3    H241306   4.088   2.724   0.971 -0.7299  2.7250 -0.3936
 6583TIP3   OH241307   3.650   2.596   8.685 -0.5177  0.3117 -0.7973
 6583TIP3    H141308   3.647   2.581   8.590  0.2498 -0.2609 -0.7424
 6583TIP3    H241309   3.632   2.511   8.723  0.8242  0.1628 -0.4480
 6584TIP3   OH241310   2.125   4.006   8.361  0.0311  0.0513  0.3162
 6584TIP3    H141311   2.045   3.953   8.361  0.6097 -0.8719 -0.8080
 6584TIP3    H241312   2.192   3.947   8.399  0.3147  0.5938  0.6707
 6585TIP3   OH241313   1.261   1.394   7.162  0.3602 -0.4404 -0.5155
 6585TIP3    H141314   1.324   1.457   7.197 -0.0494 -0.6596  0.6770
 6585TIP3    H241315   1.175   1.427   7.190  0.0661 -0.9614 -0.7814
 6586TIP3   OH241316   4.114   5.941   1.189  0.1069  0.4831 -0.0429
 6586TIP3    H141317   4.190   5.920   1.135  1.3113  0.5337  1.5182
 6586TIP3    H241318   4.067   6.008   1.140  1.6824  1.2314 -0.6172
 6587TIP3   OH241319   1.342   2.070   2.497 -0.0365 -0.1730  0.0480
 6587TIP3    H141320   1.351   2.151   2.548  2.5592 -0.2982 -0.0562
 6587TIP3    H241321   1.388   2.004   2.550 -0.8242 -1.2464 -0.5691
 6588TIP3   OH241322   5.364   3.804   0.431 -0.5115 -0.3372 -0.5333
 6588TIP3    H141323   5.277   3.825   0.396 -1.1107 -1.9321 -0.0671
 6588TIP3    H241324   5.405   3.752   0.362 -0.5759 -1.0176 -0.0603
 6589TIP3   OH241325   3.196   5.449   1.704 -0.1951  0.1070 -0.3687
 6589TIP3    H141326   3.190   5.531   1.754 -1.3059  1.4357 -2.5287
 6589TIP3    H241327   3.178   5.381   1.769 -0.4233  1.6355  1.2780
 6590TIP3   OH241328   1.657   6.537   2.770  0.0343  0.3937  0.0866
 6590TIP3    H141329   1.752   6.542   2.780  0.0337 -0.6912  0.7667
 6590TIP3    H241330   1.644   6.534   2.675  0.7148  0.0140 -0.0027
 6591TIP3   OH241331   5.204   3.084   6.867 -0.1706  0.2766 -0.2985
 6591TIP3    H141332   5.203   3.034   6.949  2.4382  0.1941 -0.2185
 6591TIP3    H241333   5.197   3.176   6.895 -0.1770  0.1994 -0.0402
 6592TIP3   OH241334   4.053   3.039   1.145  0.2227 -0.0646 -0.2453
 6592TIP3    H141335   4.106   3.049   1.066  1.2704  1.5674  0.6075
 6592TIP3    H241336   3.987   2.974   1.122 -0.0619  1.0087 -2.7699
 6593TIP3   OH241337   0.105   4.843   1.693  0.4685 -0.0934  0.3009
 6593TIP3    H141338   0.179   4.798   1.734  0.3070 -1.1152 -0.4960
 6593TIP3    H241339   0.028   4.798   1.725  0.2776 -0.0734 -0.1192
 6594TIP3   OH241340   4.386   0.243   1.003 -0.1377  0.4730 -0.2686
 6594TIP3    H141341   4.361   0.190   0.928 -1.5837 -0.7032  0.9865
 6594TIP3    H241342   4.379   0.185   1.078  3.6405  0.8850  0.6295
 6595TIP3   OH241343   0.286   1.981   7.472 -0.2957 -0.0247 -0.0309
 6595TIP3    H141344   0.344   1.939   7.409  0.6035 -0.7228  1.2299
 6595TIP3    H241345   0.203   1.991   7.425  0.3849 -0.3914 -1.3582
 6596TIP3   OH241346   4.909   5.154   0.454  0.6014 -0.6602  0.3401
 6596TIP3    H141347   4.894   5.190   0.541  0.3437 -1.2028  0.5198
 6596TIP3    H241348   4.825   5.119   0.427  0.7158 -0.6240 -0.0666
 6597TIP3   OH241349   1.228   1.289   2.133  0.2989  0.2557  0.0291
 6597TIP3    H141350   1.218   1.211   2.188 -0.3064  0.7457  0.6311
 6597TIP3    H241351   1.254   1.358   2.193 -1.0786  0.9702 -0.1508
 6598TIP3   OH241352   6.083   0.157   1.372 -0.0493 -0.7360 -0.5638
 6598TIP3    H141353   6.086   0.226   1.306 -1.2087 -1.0467 -0.9524
 6598TIP3    H241354   6.056   0.201   1.453  1.7009 -0.2929 -0.1782
 6599TIP3   OH241355   2.582   5.597   1.772 -1.0131  0.4087 -0.1357
 6599TIP3    H141356   2.644   5.670   1.781  0.7717 -0.8979 -1.0780
 6599TIP3    H241357   2.571   5.587   1.677 -0.3754 -1.1745 -0.0801
 6600TIP3   OH241358   3.265   2.900   8.122 -0.8314  0.1858 -1.0054
 6600TIP3    H141359   3.266   2.987   8.161 -0.9986  0.1579 -0.9372
 6600TIP3    H241360   3.176   2.868   8.137 -0.0585 -1.1035  1.4284
 6601TIP3   OH241361   0.102   6.326   2.557 -0.4160 -0.0015 -0.0496
 6601TIP3    H141362   0.033   6.301   2.619 -0.9534 -0.3330 -0.7678
 6601TIP3    H241363   0.179   6.277   2.585 -0.3730  0.5889  0.9372
 6602TIP3   OH241364   0.778   1.852   8.392  0.8293  0.1665 -0.1501
 6602TIP3    H141365   0.757   1.775   8.338 -1.2298 -0.4727  1.3859
 6602TIP3    H241366   0.793   1.922   8.330  1.9845 -1.2890 -1.5950
 6603TIP3   OH241367   2.022   1.644   2.262  0.6030 -0.0320  0.2325
 6603TIP3    H141368   2.062   1.725   2.294  1.3701 -0.7363  1.1140
 6603TIP3    H241369   1.974   1.609   2.337 -0.8774  0.2852 -0.5292
 6604TIP3   OH241370   2.640   0.712   1.902 -0.1889  0.1086  0.1640
 6604TIP3    H141371   2.606   0.755   1.823  1.6583  1.2958 -0.0440
 6604TIP3    H241372   2.663   0.624   1.873  0.0815  0.3959 -0.5350
 6605TIP3   OH241373   1.968   6.463   7.949  0.2293 -0.7063  0.2363
 6605TIP3    H141374   2.019   6.447   7.869  0.9787 -2.3854  0.9954
 6605TIP3    H241375   1.960   6.376   7.990  0.2445  0.1628  2.1969
 6606TIP3   OH241376   5.943   5.971   1.474  0.8455  0.0944  0.3609
 6606TIP3    H141377   5.848   5.963   1.481  0.8365 -1.3742 -0.8577
 6606TIP3    H241378   5.965   6.045   1.530 -0.8770 -0.2683  1.6142
 6607TIP3   OH241379   0.134   4.536   2.408 -0.1871 -0.0871  0.0418
 6607TIP3    H141380   0.165   4.518   2.497  0.3714 -2.1431 -0.5298
 6607TIP3    H241381   0.056   4.481   2.398  0.5273 -0.9242 -1.1732
 6608TIP3   OH241382   3.640   6.428   0.320 -0.7430  0.0815  0.2069
 6608TIP3    H141383   3.693   6.349   0.309  0.9030  0.9432  1.4605
 6608TIP3    H241384   3.630   6.437   0.415 -2.0866  0.6349  0.0311
 6609TIP3   OH241385   5.030   0.184   0.501 -0.2981 -0.2126 -0.0836
 6609TIP3    H141386   4.988   0.101   0.482  0.2564 -0.5156 -0.0076
 6609TIP3    H241387   4.979   0.220   0.574 -1.4332  0.2064 -1.0458
 6610TIP3   OH241388   6.511   0.229   8.821  0.2595 -0.0836  0.0225
 6610TIP3    H141389   6.544   0.146   8.788  2.2256  0.2169  1.0642
 6610TIP3    H241390   6.459   0.206   8.898 -0.5256 -0.4507 -0.6139
 6611TIP3   OH241391   2.850   6.053   7.858  0.1253 -0.1889 -0.3147
 6611TIP3    H141392   2.808   6.020   7.778 -0.2711 -0.8481  0.1554
 6611TIP3    H241393   2.926   6.102   7.826  0.0913 -0.6197 -1.0896
 6612TIP3   OH241394   1.622   4.652   2.457  0.1569  0.5001 -0.0083
 6612TIP3    H141395   1.617   4.729   2.513 -1.0158  0.8867 -0.5986
 6612TIP3    H241396   1.645   4.580   2.515 -0.1527  1.0496  0.8036
 6613TIP3   OH241397   5.038   2.857   1.078 -0.2040 -0.6792  0.2626
 6613TIP3    H141398   5.015   2.925   1.141  1.1301  2.0272 -1.9517
 6613TIP3    H241399   4.957   2.807   1.067 -1.6978  1.4180  1.0211
 6614TIP3   OH241400   3.236   2.295   0.363 -0.0566  0.0018 -0.1138
 6614TIP3    H141401   3.284   2.241   0.300 -2.6164 -2.0124 -0.5297
 6614TIP3    H241402   3.269   2.384   0.349  1.2858 -0.7787 -2.4872
 6615TIP3   OH241403   1.411   0.672   0.289 -0.1337 -0.3037  0.0847
 6615TIP3    H141404   1.365   0.738   0.237  0.5668  0.1975  0.0768
 6615TIP3    H241405   1.441   0.720   0.366  0.0477 -0.7081  0.2656
 6616TIP3   OH241406   1.980   5.375   7.339 -0.0609  0.0649  0.0274
 6616TIP3    H141407   1.899   5.337   7.304 -0.1393 -0.2311  0.5187
 6616TIP3    H241408   2.005   5.316   7.410  0.4099  0.3384  0.0918
 6617TIP3   OH241409   5.873   4.091   0.856 -0.3369 -0.2401 -0.0285
 6617TIP3    H141410   5.943   4.147   0.889 -0.0166 -0.7744  0.2266
 6617TIP3    H241411   5.905   4.060   0.771 -0.3196 -0.3822  0.0297
 6618TIP3   OH241412   4.139   3.363   2.552 -0.4793  0.5703 -0.1047
 6618TIP3    H141413   4.166   3.452   2.529  1.9978 -0.1063 -0.0141
 6618TIP3    H241414   4.218   3.311   2.545 -1.3427 -1.2015  2.1504
 6619TIP3   OH241415   3.293   3.685   8.316  0.5260 -0.2567 -0.2361
 6619TIP3    H141416   3.242   3.766   8.322 -0.0394 -0.5322 -1.0950
 6619TIP3    H241417   3.377   3.706   8.355 -0.0495  0.3832  0.6996
 6620TIP3   OH241418   4.527   3.952   7.235  0.2004  0.6174 -0.0170
 6620TIP3    H141419   4.599   4.003   7.272 -0.0518  0.2344  1.0542
 6620TIP3    H241420   4.465   4.018   7.204  0.8791  0.9484 -0.6832
 6621TIP3   OH241421   5.476   3.468   2.576  0.6044  0.1544  0.1945
 6621TIP3    H141422   5.488   3.373   2.572  2.0658  0.3509 -1.0910
 6621TIP3    H241423   5.523   3.495   2.655  0.3245 -0.1646  0.4749
 6622TIP3   OH241424   0.066   5.329   8.263 -0.6444 -0.2092 -0.2604
 6622TIP3    H141425   0.014   5.367   8.334 -1.8064 -0.9934 -0.6580
 6622TIP3    H241426   0.013   5.256   8.231  0.8378 -1.1995 -0.5312
 6623TIP3   OH241427   1.736   4.403   0.642 -0.3432  0.8482  0.7116
 6623TIP3    H141428   1.723   4.439   0.554  0.2088  0.1193  0.3257
 6623TIP3    H241429   1.818   4.442   0.671  0.9369 -1.0166 -0.2151
 6624TIP3   OH241430   4.102   0.180   7.531 -0.4797 -0.1408 -0.4378
 6624TIP3    H141431   4.095   0.273   7.511  1.1769  0.0120 -0.3801
 6624TIP3    H241432   4.125   0.139   7.447 -1.4750 -0.5615 -0.5275
 6625TIP3   OH241433   2.014   0.552   8.399  0.4181 -0.0918  0.4850
 6625TIP3    H141434   1.969   0.532   8.481  0.0726  0.2095  0.3692
 6625TIP3    H241435   1.955   0.522   8.331  0.5051  0.0718  0.3368
 6626TIP3   OH241436   4.550   4.680   8.499  0.3424  0.2632  0.2095
 6626TIP3    H141437   4.638   4.677   8.538  0.8376 -0.6883 -0.9233
 6626TIP3    H241438   4.502   4.744   8.553  1.6134  0.5379  1.0613
 6627TIP3   OH241439   2.148   2.129   1.937 -0.0555 -0.0667  0.1923
 6627TIP3    H141440   2.064   2.167   1.911  0.1230  0.5795  0.5422
 6627TIP3    H241441   2.214   2.183   1.895  0.1965 -0.8737 -0.4901
 6628TIP3   OH241442   5.371   4.394   1.921  0.1389  0.0863  0.2716
 6628TIP3    H141443   5.326   4.337   1.859 -1.4209 -1.0411  2.3071
 6628TIP3    H241444   5.350   4.357   2.007  3.1895  0.8512  1.4636
 6629TIP3   OH241445   4.368   2.303   1.391  0.7389  0.3772 -0.0330
 6629TIP3    H141446   4.367   2.211   1.365 -1.9033 -0.1716  1.6229
 6629TIP3    H241447   4.299   2.343   1.339 -0.7124  0.5085  1.8849
 6630TIP3   OH241448   5.611   5.971   0.881 -0.7443 -0.1096  0.3900
 6630TIP3    H141449   5.693   6.006   0.845 -0.5761 -0.3133  0.5654
 6630TIP3    H241450   5.596   5.891   0.831 -0.6633 -0.2409  0.5724
 6631TIP3   OH241451   5.249   5.089   7.762  0.5016 -0.0499  0.2276
 6631TIP3    H141452   5.307   5.016   7.782  1.8505  0.7878 -0.4727
 6631TIP3    H241453   5.218   5.072   7.673 -1.0577 -0.9310  0.9026
 6632TIP3   OH241454   0.757   3.402   8.205  0.2431  0.0644  0.3922
 6632TIP3    H141455   0.781   3.361   8.122 -1.1457 -1.0152  0.4835
 6632TIP3    H241456   0.722   3.488   8.181  2.5360  0.9892  0.1391
 6633TIP3   OH241457   4.979   4.329   7.672  0.2642 -0.6813 -0.6108
 6633TIP3    H141458   5.071   4.341   7.694  0.4758 -0.6681 -1.4500
 6633TIP3    H241459   4.939   4.415   7.684  0.3785 -0.6710 -0.3182
 6634TIP3   OH241460   0.106   3.143   8.138 -0.4306  0.4604 -0.4169
 6634TIP3    H141461   0.049   3.214   8.111  0.2094  1.1648  0.0409
 6634TIP3    H241462   0.128   3.163   8.229  1.2690  0.7168 -0.8357
 6635TIP3   OH241463   4.595   0.441   2.682  0.0698  0.3859  0.0901
 6635TIP3    H141464   4.675   0.419   2.633 -0.5725 -0.0766 -0.7624
 6635TIP3    H241465   4.527   0.448   2.615 -0.2328  2.7578  0.5475
 6636TIP3   OH241466   5.886   3.665   1.222 -0.1217 -0.1446 -0.2160
 6636TIP3    H141467   5.952   3.604   1.254  0.6557  1.3700  1.2269
 6636TIP3    H241468   5.803   3.619   1.236  0.4782 -1.1362  0.2069
 6637TIP3   OH241469   5.082   0.870   8.062  0.1752  0.0523 -0.0382
 6637TIP3    H141470   5.013   0.804   8.063 -0.6906  0.9174 -0.7014
 6637TIP3    H241471   5.035   0.954   8.068  1.3001  0.6062  1.8965
 6638TIP3   OH241472   4.225   3.194   8.419  0.3583 -0.5323  0.6542
 6638TIP3    H141473   4.218   3.126   8.352 -1.2963 -0.7082  0.9537
 6638TIP3    H241474   4.213   3.276   8.370 -0.9869 -0.6666  0.7095
 6639TIP3   OH241475   3.211   0.612   7.317  0.3550 -0.1909  0.6399
 6639TIP3    H141476   3.297   0.572   7.303  0.6852  0.7753 -0.2415
 6639TIP3    H241477   3.163   0.596   7.235  0.2808  0.6796  0.5062
 6640TIP3   OH241478   2.812   2.261   8.342  0.6385 -0.0550 -0.1490
 6640TIP3    H141479   2.770   2.335   8.386 -1.9406 -1.6643  0.3188
 6640TIP3    H241480   2.856   2.300   8.267 -0.9267  1.9264 -0.1276
 6641TIP3   OH241481   5.270   2.994   8.571  0.1195 -0.1786 -0.6334
 6641TIP3    H141482   5.185   2.982   8.615  1.5614 -1.0056  2.1303
 6641TIP3    H241483   5.330   2.936   8.617  2.3898  0.8942 -2.0565
 6642TIP3   OH241484   5.164   4.682   0.786  0.2883 -0.1728 -0.1980
 6642TIP3    H141485   5.218   4.755   0.756  2.3002 -0.7883  1.7397
 6642TIP3    H241486   5.221   4.606   0.782 -0.6105 -0.9753  1.3354
 6643TIP3   OH241487   3.394   6.375   8.268  0.0474 -0.0286 -0.1180
 6643TIP3    H141488   3.327   6.376   8.199  0.7105  0.1608 -0.7609
 6643TIP3    H241489   3.346   6.345   8.346 -0.8590  0.3826 -0.4950
 6644TIP3   OH241490   2.408   1.138   7.290  0.6055 -0.0284 -0.3319
 6644TIP3    H141491   2.474   1.199   7.322  0.4143 -0.3571  0.7321
 6644TIP3    H241492   2.339   1.141   7.357 -0.1791 -0.1363 -1.1257
 6645TIP3   OH241493   5.898   5.111   1.977  0.0869 -0.3041 -0.6387
 6645TIP3    H141494   5.981   5.107   2.026 -0.6318  0.0642  0.6660
 6645TIP3    H241495   5.906   5.042   1.911  1.3003 -0.4972 -0.3158
 6646TIP3   OH241496   0.265   6.784   8.128  0.3650  0.6775 -0.0431
 6646TIP3    H141497   0.186   6.826   8.096  0.6827  1.3706  0.0735
 6646TIP3    H241498   0.264   6.697   8.088  0.3394  1.2347 -1.2919
 6647TIP3   OH241499   5.384   6.103   0.339 -0.4153 -0.1304 -0.2735
 6647TIP3    H141500   5.298   6.060   0.332  0.0154 -0.9828 -0.5471
 6647TIP3    H241501   5.404   6.131   0.250 -1.3774  2.0689  0.1505
 6648TIP3   OH241502   3.329   0.538   1.823  0.1557  0.0784  0.2630
 6648TIP3    H141503   3.334   0.464   1.884  0.1718  0.4861  0.7695
 6648TIP3    H241504   3.392   0.518   1.755  1.3188  0.3520  1.2242
 6649TIP3   OH241505   5.367   3.373   6.914  0.2321  0.2378  0.0209
 6649TIP3    H141506   5.375   3.446   6.976  1.2961  1.1043 -1.1037
 6649TIP3    H241507   5.454   3.333   6.913 -0.0536 -0.3844 -0.1798
 6650TIP3   OH241508   6.593   3.020   7.400 -0.0869  0.0697 -0.0349
 6650TIP3    H141509   6.599   3.114   7.412  1.4445  0.4154 -2.8059
 6650TIP3    H241510   6.558   3.009   7.311 -1.9295 -2.0366  0.8436
 6651TIP3   OH241511   1.454   5.374   1.314 -0.0119 -0.1522 -0.2000
 6651TIP3    H141512   1.525   5.314   1.292  2.7985  2.9097 -0.2518
 6651TIP3    H241513   1.467   5.396   1.406 -2.0716 -0.8342  0.3236
 6652TIP3   OH241514   2.049   2.606   6.957 -0.8106  0.1850  0.0538
 6652TIP3    H141515   2.096   2.686   6.981 -1.8248  0.9357 -0.4023
 6652TIP3    H241516   1.964   2.615   6.999 -0.7603 -0.8954  0.4050
 6653TIP3   OH241517   3.170   3.154   2.205  0.4407  0.6603 -0.5098
 6653TIP3    H141518   3.156   3.240   2.167 -0.7360  1.6089  1.8325
 6653TIP3    H241519   3.214   3.171   2.288  0.2923 -1.0130 -0.0468
 6654TIP3   OH241520   3.948   1.830   0.464  0.0878 -0.7717 -0.1490
 6654TIP3    H141521   3.970   1.756   0.520  2.4596  0.5011  0.7885
 6654TIP3    H241522   4.021   1.835   0.401  0.3973  1.1633  0.2938
 6655TIP3   OH241523   4.656   5.564   8.418 -0.2776  0.1261 -0.1119
 6655TIP3    H141524   4.732   5.519   8.382 -0.1479 -0.1888  0.5320
 6655TIP3    H241525   4.588   5.553   8.351  0.3431  0.7435 -0.8612
 6656TIP3   OH241526   5.997   4.108   0.165 -0.6164  0.2257  0.5380
 6656TIP3    H141527   5.948   4.052   0.105  0.0226  1.1764 -0.9236
 6656TIP3    H241528   6.031   4.047   0.231 -1.4775 -0.8268  0.0418
 6657TIP3   OH241529   5.986   6.162   0.422  0.0635  0.6886  0.0236
 6657TIP3    H141530   5.907   6.215   0.430 -2.2361 -2.0633 -2.1532
 6657TIP3    H241531   6.019   6.181   0.335 -0.8257 -1.2798 -0.8162
 6658TIP3   OH241532   3.116   3.604   7.371 -0.3691  0.2492 -0.3853
 6658TIP3    H141533   3.111   3.528   7.313  0.1613 -2.4097  2.6991
 6658TIP3    H241534   3.209   3.629   7.368 -0.1996 -0.3261 -0.2236
 6659TIP3   OH241535   1.392   4.920   7.690  0.8939 -0.0274 -0.8632
 6659TIP3    H141536   1.442   4.865   7.630 -1.8721 -3.0458 -0.6365
 6659TIP3    H241537   1.385   4.868   7.770 -0.3849  1.4289  0.0280
 6660TIP3   OH241538   6.097   2.220   0.815  0.1136  0.1654 -0.0628
 6660TIP3    H141539   6.134   2.190   0.732 -0.6715  1.3230 -0.8512
 6660TIP3    H241540   6.143   2.302   0.833  0.7078 -0.3717  0.9745
 6661TIP3   OH241541   6.671   2.485   7.835  0.0772  0.2741 -0.5257
 6661TIP3    H141542   6.635   2.517   7.918 -1.7547 -1.8643 -0.3799
 6661TIP3    H241543   6.630   2.540   7.768  1.1130  1.6351 -0.0791
 6662TIP3   OH241544   0.606   5.136   3.200 -0.4365  0.3120 -0.6146
 6662TIP3    H141545   0.532   5.088   3.163  0.2245 -0.2358 -1.2458
 6662TIP3    H241546   0.663   5.068   3.237 -0.8141  0.8048  0.9687
 6663TIP3   OH241547   4.080   4.327   7.807  0.4050  0.4236  0.4022
 6663TIP3    H141548   4.159   4.380   7.798  0.1272  1.1067  1.7923
 6663TIP3    H241549   4.012   4.389   7.831 -0.2109 -0.3795  0.7886
 6664TIP3   OH241550   1.474   3.564   2.535  0.1859  0.0128  0.8586
 6664TIP3    H141551   1.408   3.598   2.595 -1.5182  1.7801 -1.7961
 6664TIP3    H241552   1.557   3.597   2.569 -0.7730  1.3693  1.9775
 6665TIP3   OH241553   5.152   2.832   7.946 -0.1789 -0.4937  0.3524
 6665TIP3    H141554   5.235   2.878   7.934  0.1423 -1.4163 -1.2727
 6665TIP3    H241555   5.158   2.756   7.888 -1.9526 -0.8730  0.6022
 6666TIP3   OH241556   3.117   0.932   2.500  0.5086 -0.7526 -0.0368
 6666TIP3    H141557   3.187   0.887   2.454  1.5369  1.7760 -1.1409
 6666TIP3    H241558   3.156   0.958   2.584 -0.2492 -2.2703  0.8309
 6667TIP3   OH241559   4.405   3.708   7.232 -0.7200 -0.4768  0.4576
 6667TIP3    H141560   4.315   3.737   7.247 -0.3390  1.2551 -0.4848
 6667TIP3    H241561   4.452   3.786   7.204  1.0017 -1.4404  0.5119
 6668TIP3   OH241562   2.948   4.686   7.212  0.8892  0.3282  0.4567
 6668TIP3    H141563   2.873   4.630   7.231  0.5637  0.6031  0.0112
 6668TIP3    H241564   3.018   4.652   7.267  0.2102  0.5931  1.5112
 6669TIP3   OH241565   4.132   0.300   1.053 -0.4605 -0.1794 -0.2444
 6669TIP3    H141566   4.222   0.289   1.021 -0.6083  0.9071 -1.0835
 6669TIP3    H241567   4.114   0.393   1.043 -0.9967 -0.0131  1.8182
 6670TIP3   OH241568   2.474   1.606   2.435 -0.5236  0.2864 -0.1315
 6670TIP3    H141569   2.479   1.550   2.357  0.7382  0.5350 -0.2493
 6670TIP3    H241570   2.386   1.592   2.469  0.1081 -2.7351  0.5616
 6671TIP3   OH241571   5.113   6.772   8.097  0.3893  0.0396 -0.2333
 6671TIP3    H141572   5.078   6.793   8.183  1.5142  1.5163 -0.1078
 6671TIP3    H241573   5.053   6.813   8.035 -0.0823 -0.5024 -0.1348
 6672TIP3   OH241574   3.421   4.729   8.039  0.9415 -0.2678  0.3428
 6672TIP3    H141575   3.489   4.786   8.004  0.2192 -0.4995 -1.5770
 6672TIP3    H241576   3.447   4.641   8.010  0.6396 -0.5577  0.9408
 6673TIP3   OH241577   5.074   2.146   1.185  1.1110 -0.5831 -0.4722
 6673TIP3    H141578   5.085   2.158   1.279  0.3177  0.5686 -0.5032
 6673TIP3    H241579   5.037   2.058   1.176 -0.7934  0.0543  0.4940
 6674TIP3   OH241580   1.605   1.809   0.893  0.1608 -0.1275  0.6217
 6674TIP3    H141581   1.561   1.736   0.849  2.3811 -1.1585 -0.0274
 6674TIP3    H241582   1.662   1.768   0.957  1.8473  0.9755 -0.1083
 6675TIP3   OH241583   1.154   0.112   0.703  0.5269 -0.1661  0.1134
 6675TIP3    H141584   1.233   0.075   0.662 -1.1076 -1.3095 -2.2430
 6675TIP3    H241585   1.142   0.196   0.659  1.0340  0.5424  1.3010
 6676TIP3   OH241586   5.224   0.302   8.561 -0.2732  0.4345 -0.1475
 6676TIP3    H141587   5.233   0.286   8.655 -2.4240  1.5299  0.3166
 6676TIP3    H241588   5.304   0.266   8.523  1.0328  0.6778  2.1721
 6677TIP3   OH241589   5.454   3.221   7.807 -0.2357 -0.4547 -0.0224
 6677TIP3    H141590   5.370   3.193   7.844 -0.1345 -0.9021 -0.1267
 6677TIP3    H241591   5.481   3.294   7.863 -0.1176 -1.0744  0.7653
 6678TIP3   OH241592   1.920   6.276   0.996 -0.3493 -0.4652 -0.1159
 6678TIP3    H141593   1.828   6.248   0.994 -0.1254 -1.4139  1.2593
 6678TIP3    H241594   1.950   6.264   0.905 -1.0210 -2.2149 -0.1600
 6679TIP3   OH241595   5.366   5.941   0.576  0.3955 -0.1529 -0.0200
 6679TIP3    H141596   5.398   5.990   0.500  1.1601 -0.7219 -0.0656
 6679TIP3    H241597   5.389   5.996   0.651  1.1648 -0.3871 -0.0777
 6680TIP3   OH241598   1.722   3.935   1.294 -0.0615 -0.0810 -0.3775
 6680TIP3    H141599   1.742   4.028   1.308  0.2009 -0.2546  0.3971
 6680TIP3    H241600   1.704   3.930   1.200 -0.0454  0.7485 -0.4396
 6681TIP3   OH241601   3.204   1.662   0.841 -0.0222 -0.3939  0.4614
 6681TIP3    H141602   3.223   1.618   0.923  1.8329  1.0716  0.8829
 6681TIP3    H241603   3.287   1.661   0.793 -1.1137 -1.4978 -1.6042
 6682TIP3   OH241604   6.189   4.399   0.465  0.5549  0.1690  0.6210
 6682TIP3    H141605   6.203   4.328   0.401  0.1027  0.7479 -0.1391
 6682TIP3    H241606   6.198   4.356   0.550  1.1130 -0.6354  0.1761
 6683TIP3   OH241607   6.304   5.679   0.796  0.1598 -0.6693  0.2139
 6683TIP3    H141608   6.398   5.693   0.785  0.0123  0.3897  0.2013
 6683TIP3    H241609   6.287   5.598   0.749  0.5528  0.6951 -2.4800
 6684TIP3   OH241610   3.581   2.724   8.166  0.0709 -0.3226 -0.7882
 6684TIP3    H141611   3.505   2.692   8.213 -0.2198  0.2079 -0.8790
 6684TIP3    H241612   3.643   2.652   8.166  0.8618  0.2520  2.0546
 6685TIP3   OH241613   5.805   4.959   1.486 -0.3175 -0.0139  0.5481
 6685TIP3    H141614   5.780   5.011   1.410 -1.7077 -0.5049  0.6453
 6685TIP3    H241615   5.884   5.002   1.519  0.1965  0.3409 -1.0252
 6686TIP3   OH241616   3.910   3.133   7.332 -0.7468 -0.3564 -0.0741
 6686TIP3    H141617   3.938   3.080   7.257 -0.1724 -1.1715  0.6844
 6686TIP3    H241618   3.932   3.079   7.408  1.3307  1.6025  0.8435
 6687TIP3   OH241619   4.171   3.188   0.018  0.4656  0.3582  0.0766
 6687TIP3    H141620   4.171   3.283   0.006  2.4016  0.4226  0.3107
 6687TIP3    H241621   4.235   3.156  -0.046 -0.3479 -0.8313 -0.1775
 6688TIP3   OH241622   2.173   0.784   1.397 -0.2570  0.4597 -0.4079
 6688TIP3    H141623   2.097   0.834   1.365  1.0895  1.6077 -1.9547
 6688TIP3    H241624   2.180   0.710   1.336  1.8205  2.2004 -2.4163
 6689TIP3   OH241625   4.153   4.459   8.095 -0.0485 -0.4321  0.1378
 6689TIP3    H141626   4.156   4.365   8.114 -1.8374 -0.4822  0.3839
 6689TIP3    H241627   4.059   4.480   8.094  0.3438  1.6144  1.3693
 6690TIP3   OH241628   6.053   3.267   8.478 -0.3840 -0.1217  0.1342
 6690TIP3    H141629   6.143   3.270   8.446 -0.1046  1.4126  0.9650
 6690TIP3    H241630   6.001   3.248   8.400  0.4766  1.2877 -0.8211
 6691TIP3   OH241631   3.864   3.244   8.787  0.2047 -0.1245 -0.0011
 6691TIP3    H141632   3.875   3.324   8.839 -0.7277 -0.7189  1.1461
 6691TIP3    H241633   3.915   3.260   8.708 -1.2136  2.2621 -0.5408
 6692TIP3   OH241634   6.311   0.455   1.126  0.0691  0.1871  0.0656
 6692TIP3    H141635   6.363   0.464   1.205  0.9423 -1.6626 -0.2534
 6692TIP3    H241636   6.375   0.449   1.055 -0.5753 -1.0341 -0.4547
 6693TIP3   OH241637   3.652   6.669   1.437  0.3545 -0.4249  0.7062
 6693TIP3    H141638   3.667   6.696   1.528  0.9415  1.8752 -0.0214
 6693TIP3    H241639   3.664   6.749   1.386 -2.6013 -1.0502 -1.1809
 6694TIP3   OH241640   4.113   3.024   0.565  0.2896 -0.0271 -0.5152
 6694TIP3    H141641   4.096   3.113   0.595  2.0282 -0.3250  1.6016
 6694TIP3    H241642   4.054   2.970   0.616  1.8021 -0.3513  0.9873
 6695TIP3   OH241643   2.787   3.751   0.644  0.1807  0.0274 -0.4318
 6695TIP3    H141644   2.849   3.822   0.660  0.5100  0.4559 -3.1085
 6695TIP3    H241645   2.830   3.673   0.680  0.4627  0.9046  1.2465
 6696TIP3   OH241646   4.332   6.547   1.496 -0.5762  0.3807  0.0353
 6696TIP3    H141647   4.406   6.588   1.452  0.5162 -1.6395 -0.1050
 6696TIP3    H241648   4.308   6.473   1.440 -1.8085  0.1848  0.7749
 6697TIP3   OH241649   5.631   3.373   7.287 -0.1234  0.1531  0.1714
 6697TIP3    H141650   5.626   3.435   7.215  0.4099  0.9969  0.8477
 6697TIP3    H241651   5.572   3.409   7.353  0.9234  0.4754  0.9540
 6698TIP3   OH241652   2.000   0.679   2.568  0.3943  0.4699  0.2648
 6698TIP3    H141653   2.008   0.586   2.590  2.5082  0.7995  1.1002
 6698TIP3    H241654   1.906   0.694   2.565 -0.0088 -1.5743  0.6220
 6699TIP3   OH241655   0.467   6.495   0.907  0.0444  0.3840 -0.1530
 6699TIP3    H141656   0.484   6.569   0.967  1.0487  1.3811 -1.6048
 6699TIP3    H241657   0.505   6.419   0.951 -0.4897  0.8265  1.1109
 6700TIP3   OH241658   5.922   4.388   0.025 -0.2075 -0.0306  0.1086
 6700TIP3    H141659   5.967   4.322   0.077 -1.2864  0.1631  1.3226
 6700TIP3    H241660   5.940   4.471   0.069 -0.3279  0.2651 -0.3860
 6701TIP3   OH241661   3.571   4.855   0.451 -0.5180  0.0165 -0.1858
 6701TIP3    H141662   3.655   4.860   0.404 -0.5501 -0.1231 -0.2560
 6701TIP3    H241663   3.564   4.764   0.479 -0.7181 -0.0060 -0.3084
 6702TIP3   OH241664   1.867   2.155   1.874  0.4091  0.3164  0.0704
 6702TIP3    H141665   1.772   2.166   1.883  0.2121 -0.8828 -0.2462
 6702TIP3    H241666   1.898   2.237   1.837 -0.8867 -0.0902 -2.1174
 6703TIP3   OH241667   4.290   3.265   2.046 -0.1944 -0.4595 -0.6725
 6703TIP3    H141668   4.382   3.240   2.042  0.0473  0.4118 -0.8650
 6703TIP3    H241669   4.285   3.328   2.118 -0.4512  0.2041 -1.2565
 6704TIP3   OH241670   0.565   4.287   8.399 -0.4220 -0.0754 -0.1195
 6704TIP3    H141671   0.538   4.331   8.480 -0.4580  0.4077 -0.3903
 6704TIP3    H241672   0.483   4.270   8.353 -0.4115 -0.4706  0.0043
 6705TIP3   OH241673   5.679   5.315   0.274 -0.0806 -0.0278 -0.6717
 6705TIP3    H141674   5.710   5.393   0.228 -2.0881  2.2081  1.4055
 6705TIP3    H241675   5.584   5.319   0.266 -0.3203 -1.2315  0.9927
 6706TIP3   OH241676   5.399   2.694   7.983 -0.4078  0.1967 -0.3010
 6706TIP3    H141677   5.399   2.622   8.046 -0.4375 -0.0204 -0.5492
 6706TIP3    H241678   5.347   2.661   7.910  0.6494 -0.0195 -0.9708
 6707TIP3   OH241679   4.724   1.377   1.994 -0.5593 -0.5251 -0.3387
 6707TIP3    H141680   4.728   1.282   1.996 -0.1747 -0.5677 -1.8312
 6707TIP3    H241681   4.808   1.404   1.956  0.0214  0.5141  1.5442
 6708TIP3   OH241682   0.624   0.251   0.229  0.4104 -0.6120  0.0130
 6708TIP3    H141683   0.537   0.245   0.269  0.4316  2.2853  0.7563
 6708TIP3    H241684   0.610   0.225   0.138 -0.9750 -1.3245  0.3980
 6709TIP3   OH241685   4.335   2.002   8.648  0.1658  0.7013  0.6256
 6709TIP3    H141686   4.412   2.008   8.705  0.7400 -3.0252  0.4788
 6709TIP3    H241687   4.370   2.020   8.560  1.3747 -2.3301  0.3486
 6710TIP3   OH241688   5.725   6.146   1.047  0.3008 -0.2348 -0.0472
 6710TIP3    H141689   5.779   6.096   1.109  0.0893 -0.6213 -0.1677
 6710TIP3    H241690   5.682   6.078   0.994  0.9400  0.0865 -1.0149
 6711TIP3   OH241691   1.876   3.796   8.087  0.0597 -0.6290 -0.0911
 6711TIP3    H141692   1.913   3.861   8.027 -0.3588 -0.7110 -0.4455
 6711TIP3    H241693   1.906   3.712   8.052 -1.8855 -0.8320 -1.4556
 6712TIP3   OH241694   1.673   1.235   1.457  0.4719 -0.4147 -0.0958
 6712TIP3    H141695   1.588   1.198   1.481  0.6832 -1.5177 -0.9332
 6712TIP3    H241696   1.694   1.297   1.526 -0.0502 -1.6637  1.2258
 6713TIP3   OH241697   0.870   3.686   1.736 -0.6696  0.1436 -0.5297
 6713TIP3    H141698   0.919   3.624   1.790  0.1899  1.3735  0.1176
 6713TIP3    H241699   0.778   3.661   1.749 -0.4909  0.4221  1.5253
 6714TIP3   OH241700   0.650   3.400   2.484 -0.1027 -0.4124 -0.2231
 6714TIP3    H141701   0.706   3.322   2.481 -0.6249 -0.7649 -1.2633
 6714TIP3    H241702   0.579   3.381   2.423 -0.4477  0.7323 -0.2034
 6715TIP3   OH241703   4.998   5.951   7.857  0.5189  0.5285  0.1825
 6715TIP3    H141704   4.946   5.897   7.797 -0.2604  0.5906  0.7800
 6715TIP3    H241705   5.004   6.036   7.813 -0.8899  0.8751  0.6048
 6716TIP3   OH241706   3.828   2.570   8.235 -0.3848 -0.6504  0.0671
 6716TIP3    H141707   3.798   2.517   8.161 -0.3561 -0.1021 -0.3479
 6716TIP3    H241708   3.890   2.632   8.196 -1.0280  0.2141  0.4002
 6717TIP3   OH241709   5.905   5.864   3.032 -0.0475  0.3722 -0.4456
 6717TIP3    H141710   5.940   5.947   3.001  0.9150 -0.2017 -0.9450
 6717TIP3    H241711   5.980   5.804   3.029 -0.0842  0.0566  2.1505
 6718TIP3   OH241712   5.174   6.355   8.874 -0.2641  0.5356  0.3841
 6718TIP3    H141713   5.093   6.372   8.922 -1.1087  0.8411 -1.0732
 6718TIP3    H241714   5.176   6.422   8.806  0.2145 -0.6351 -0.7945
 6719TIP3   OH241715   0.105   4.631   0.699  0.3662  0.2154  0.1942
 6719TIP3    H141716   0.169   4.560   0.705  0.3209  0.3077  2.0319
 6719TIP3    H241717   0.023   4.593   0.731  0.2137  0.9327  0.6884
 6720TIP3   OH241718   4.170   3.468   7.995 -0.4300  0.3690  0.1408
 6720TIP3    H141719   4.173   3.489   7.902 -2.8279 -2.0103 -0.6179
 6720TIP3    H241720   4.105   3.528   8.031 -3.6604 -2.1141 -1.0207
 6721TIP3   OH241721   4.295   2.137   1.687 -0.8691 -0.1963  0.0337
 6721TIP3    H141722   4.227   2.098   1.633 -0.8606  1.5731 -1.3530
 6721TIP3    H241723   4.376   2.122   1.638 -0.4889 -0.7130  0.7929
 6722TIP3   OH241724   1.749   2.636   7.495 -0.4149 -0.2283  0.0273
 6722TIP3    H141725   1.812   2.688   7.446  1.5916 -2.4560  0.0756
 6722TIP3    H241726   1.724   2.566   7.436 -1.5037 -0.3786  0.6400
 6723TIP3   OH241727   4.103   5.335   7.785  0.1278  0.1262 -0.1113
 6723TIP3    H141728   4.187   5.375   7.808  1.0349 -1.1452 -1.0570
 6723TIP3    H241729   4.087   5.270   7.853  0.1529  0.0499 -0.1771
 6724TIP3   OH241730   6.688   2.700   8.450 -0.2550 -0.1872  0.2342
 6724TIP3    H141731   6.745   2.760   8.402 -0.2190 -1.0902 -0.9018
 6724TIP3    H241732   6.643   2.755   8.514  0.9303  0.7641  0.2857
 6725TIP3   OH241733   1.563   1.663   2.111  0.1615  0.2334 -0.1909
 6725TIP3    H141734   1.543   1.661   2.204  0.7672 -0.2809 -0.0626
 6725TIP3    H241735   1.654   1.694   2.107 -0.8978  3.7218 -0.8105
 6726TIP3   OH241736   1.888   0.816   1.365  0.2032  0.2537 -0.0215
 6726TIP3    H141737   1.885   0.805   1.460 -0.3336  1.0226  0.0638
 6726TIP3    H241738   1.804   0.857   1.343  0.6476  0.8227 -0.7181
 6727TIP3   OH241739   3.375   4.987   0.252  0.8389 -0.9994  0.2034
 6727TIP3    H141740   3.423   4.978   0.334 -0.2541 -1.1519  0.8548
 6727TIP3    H241741   3.308   5.053   0.271  2.2180  0.9649 -1.3876
 6728TIP3   OH241742   0.233   3.240   8.375  0.3978 -0.3209  0.1808
 6728TIP3    H141743   0.285   3.320   8.381  1.0161 -0.7903  1.3378
 6728TIP3    H241744   0.290   3.171   8.408  0.0568 -1.3496 -1.2840
 6729TIP3   OH241745   5.300   3.636   0.636  0.3363  0.6555  0.0231
 6729TIP3    H141746   5.271   3.676   0.718  0.3873  0.3711  0.1806
 6729TIP3    H241747   5.331   3.710   0.583  1.0821  0.7471  0.5744
 6730TIP3   OH241748   0.445   6.255   8.158  0.4216  0.0825  0.3325
 6730TIP3    H141749   0.480   6.191   8.220  0.6079  0.2657  0.4127
 6730TIP3    H241750   0.474   6.340   8.190 -0.4264  0.2702  0.6285
 6731TIP3   OH241751   0.945   5.602   7.161 -0.5178  0.5757  0.1465
 6731TIP3    H141752   0.930   5.573   7.251 -1.7413  1.2785  0.2032
 6731TIP3    H241753   0.895   5.684   7.155  0.3167  1.0211 -0.8950
 6732TIP3   OH241754   0.878   6.460   0.397  0.5319 -0.4521  0.3328
 6732TIP3    H141755   0.811   6.465   0.329  0.9445 -0.5329 -0.0800
 6732TIP3    H241756   0.859   6.378   0.443 -1.5630  0.9852  2.2430
 6733TIP3   OH241757   4.349   5.922   0.184  0.3987  0.0367  0.5378
 6733TIP3    H141758   4.421   5.975   0.150 -0.2149  0.3766 -0.2770
 6733TIP3    H241759   4.369   5.911   0.277  0.4054  1.9829  0.8186
 6734TIP3   OH241760   5.041   5.115   2.090 -0.2932 -0.0259 -0.6910
 6734TIP3    H141761   4.966   5.146   2.040 -0.2264  0.9510 -0.2101
 6734TIP3    H241762   5.004   5.083   2.172 -0.0820  1.9455  0.2321
 6735TIP3   OH241763   1.475   1.226   7.321  0.1348 -0.6957 -0.2068
 6735TIP3    H141764   1.463   1.242   7.414 -0.0640 -0.0349 -0.3383
 6735TIP3    H241765   1.568   1.243   7.306 -0.3172  1.9394 -0.6071
 6736TIP3   OH241766   2.494   6.035   8.527 -0.4064 -0.2153 -0.1978
 6736TIP3    H141767   2.568   6.096   8.522  0.0420 -0.8506 -2.6713
 6736TIP3    H241768   2.506   5.990   8.610 -0.2083  2.3471  1.2670
 6737TIP3   OH241769   1.562   1.493   7.866  0.3975  0.1820 -0.1289
 6737TIP3    H141770   1.588   1.449   7.785 -0.3713  0.0274 -0.2999
 6737TIP3    H241771   1.488   1.441   7.898 -0.0601  0.9326  0.0497
 6738TIP3   OH241772   2.898   1.253   0.877 -0.1529  0.0142 -0.0034
 6738TIP3    H141773   2.827   1.240   0.941 -1.4490 -1.3613 -1.6055
 6738TIP3    H241774   2.855   1.296   0.803  0.6509 -0.9207 -1.0435
 6739TIP3   OH241775   1.567   2.083   7.265 -0.5934 -0.5385 -0.0164
 6739TIP3    H141776   1.521   2.163   7.238 -0.0462 -0.2999 -0.2536
 6739TIP3    H241777   1.643   2.114   7.313  0.4873 -0.8476 -1.4523
 6740TIP3   OH241778   2.313   5.782   0.384 -0.3114  0.1253 -0.1769
 6740TIP3    H141779   2.357   5.861   0.354 -1.9656  0.5852 -1.5453
 6740TIP3    H241780   2.384   5.726   0.416  0.9195  2.0428  0.6561
 6741TIP3   OH241781   2.068   0.887   0.934 -0.2751 -0.3852  1.0579
 6741TIP3    H141782   2.025   0.940   1.001 -1.1528  1.2484 -0.6851
 6741TIP3    H241783   2.124   0.948   0.887 -0.7437 -1.1421 -0.5568
 6742TIP3   OH241784   1.745   0.065   2.573  0.2842 -0.0218 -0.1358
 6742TIP3    H141785   1.840   0.055   2.582  0.4700  0.7862 -0.9984
 6742TIP3    H241786   1.716  -0.017   2.533  0.4513 -0.7064  1.1024
 6743TIP3   OH241787   0.025   3.510   1.783  0.6016  0.2819  0.1687
 6743TIP3    H141788   0.008   3.454   1.859 -0.1183  2.6623  1.8896
 6743TIP3    H241789  -0.054   3.563   1.774  0.9733  0.5865 -1.8151
 6744TIP3   OH241790   2.217   5.865   8.709  0.6413  0.1018  0.1391
 6744TIP3    H141791   2.235   5.898   8.621  1.3833  2.8520  1.1857
 6744TIP3    H241792   2.270   5.786   8.717  1.3638  0.3728 -1.5305
 6745TIP3   OH241793   4.154   4.696   0.879 -0.7563  0.1899  0.0164
 6745TIP3    H141794   4.233   4.652   0.911 -0.3620  1.1024  0.3459
 6745TIP3    H241795   4.140   4.658   0.792 -0.1663 -0.2478  0.0990
 6746TIP3   OH241796   4.929   3.071   7.531 -0.7669  0.1659  0.3089
 6746TIP3    H141797   4.979   2.991   7.511 -0.3770  0.4664  0.0709
 6746TIP3    H241798   4.961   3.098   7.617 -0.6705  0.2421  0.2489
 6747TIP3   OH241799   2.375   1.637   0.487  0.2286 -0.0309 -0.4194
 6747TIP3    H141800   2.469   1.649   0.475  0.7617 -0.4500  2.6927
 6747TIP3    H241801   2.348   1.708   0.544 -0.8314 -1.2735  0.7054
 6748TIP3   OH241802   0.806   3.433   7.923 -0.0165  0.2229  0.1488
 6748TIP3    H141803   0.726   3.403   7.880  0.9933 -0.4292 -1.3873
 6748TIP3    H241804   0.793   3.526   7.937 -0.9744  0.1509 -0.2363
 6749TIP3   OH241805   1.835   4.625   7.616  0.1748 -0.2115 -0.2773
 6749TIP3    H141806   1.784   4.544   7.627 -0.4617  0.3343  1.0492
 6749TIP3    H241807   1.924   4.599   7.637 -0.1703 -0.4132  1.0597
 6750TIP3   OH241808   3.629   2.220   1.198  0.8115 -0.1289 -0.0835
 6750TIP3    H141809   3.662   2.136   1.167  1.0927  0.3031 -0.9921
 6750TIP3    H241810   3.535   2.217   1.179  0.7096 -0.4784  0.4597
 6751TIP3   OH241811   0.409   5.304   1.389 -0.3775 -0.8753  0.0842
 6751TIP3    H141812   0.418   5.347   1.304 -1.0735 -0.5572  0.1695
 6751TIP3    H241813   0.316   5.308   1.409 -0.3229 -1.5956  0.5319
 6752TIP3   OH241814   2.327   5.962   2.359  0.0514 -0.7501  0.0057
 6752TIP3    H141815   2.311   5.876   2.320 -0.1018 -1.6685  1.9620
 6752TIP3    H241816   2.414   5.954   2.399  0.8160  0.6203 -1.2721
 6753TIP3   OH241817   6.182   4.873   2.957 -0.0365 -0.1128 -0.0261
 6753TIP3    H141818   6.155   4.781   2.959  0.5571 -0.2696  1.7364
 6753TIP3    H241819   6.105   4.921   2.987 -0.2090 -0.0534 -0.5485
 6754TIP3   OH241820   4.940   6.482   0.071  0.7989 -0.1851 -0.4559
 6754TIP3    H141821   4.991   6.523   0.141  0.9514  1.3244 -1.4013
 6754TIP3    H241822   4.900   6.405   0.112 -1.3335  2.0727  2.1457
 6755TIP3   OH241823   1.851   4.784   8.193  0.2417  0.0194 -0.1099
 6755TIP3    H141824   1.852   4.880   8.190  0.1390  0.1481  2.2959
 6755TIP3    H241825   1.929   4.760   8.242  0.0529 -1.1072 -0.3322
 6756TIP3   OH241826   0.473   5.051   0.843  0.0492  0.2267  0.6762
 6756TIP3    H141827   0.426   4.970   0.861 -0.3285  0.1590 -0.5183
 6756TIP3    H241828   0.429   5.088   0.766  2.0784  0.0537 -0.6402
 6757TIP3   OH241829   3.644   3.998   8.755 -0.0654  0.1740  0.5756
 6757TIP3    H141830   3.704   3.946   8.701 -0.7880  0.0996 -0.1811
 6757TIP3    H241831   3.621   3.939   8.827 -0.1581 -0.2259  0.2228
 6758TIP3   OH241832   4.673   4.774   6.948  0.7422  0.0523  0.3127
 6758TIP3    H141833   4.718   4.858   6.940  2.1735 -0.7202 -0.0505
 6758TIP3    H241834   4.704   4.723   6.874 -0.9588 -0.4468 -0.1060
 6759TIP3   OH241835   3.241   0.676   0.691  0.4012 -0.2679 -0.2134
 6759TIP3    H141836   3.149   0.651   0.676  0.0347  1.5420 -1.2829
 6759TIP3    H241837   3.265   0.630   0.771 -2.3327  1.3617  1.7153
 6760TIP3   OH241838   5.063   6.788   1.663 -0.4264 -0.6668 -0.8986
 6760TIP3    H141839   5.051   6.693   1.667  0.3737 -0.8583 -2.2381
 6760TIP3    H241840   5.157   6.799   1.650  0.0655  0.4751  2.4838
 6761TIP3   OH241841   6.096   0.944   8.526  0.0664 -0.0884  0.1438
 6761TIP3    H141842   6.046   0.881   8.577  1.3599 -1.7135 -0.4925
 6761TIP3    H241843   6.181   0.948   8.569  0.4709  0.1237 -0.6441
 6762TIP3   OH241844   5.965   3.106   7.506  0.1976  1.0094 -0.0718
 6762TIP3    H141845   5.943   3.116   7.413 -2.9940  1.0100  0.5778
 6762TIP3    H241846   5.974   3.196   7.538 -3.2401  1.2813  0.4649
 6763TIP3   OH241847   6.305   3.369   1.220  0.0182 -0.3527 -0.1868
 6763TIP3    H141848   6.300   3.278   1.191  2.4133 -1.2396  1.7597
 6763TIP3    H241849   6.234   3.378   1.283  1.1977 -1.7403  1.4463
 6764TIP3   OH241850   1.729   4.071   1.065 -0.2886 -0.1571  0.5503
 6764TIP3    H141851   1.798   4.137   1.070 -1.8422  1.5589  0.1383
 6764TIP3    H241852   1.747   4.024   0.983 -0.4032  1.2115 -0.2841
 6765TIP3   OH241853   2.041   0.434   0.480  0.2750 -0.0446  0.8030
 6765TIP3    H141854   2.070   0.490   0.552 -0.3656 -0.5320  1.4502
 6765TIP3    H241855   2.108   0.446   0.412  2.4798 -1.7416  2.5026
 6766TIP3   OH241856   1.722   1.992   6.958 -0.3203 -0.4186 -0.3121
 6766TIP3    H141857   1.768   1.909   6.945 -1.5663 -0.8378 -2.4271
 6766TIP3    H241858   1.647   1.970   7.013 -1.2611 -0.9761 -1.7566
 6767TIP3   OH241859   3.079   5.446   8.438  0.2226 -0.2790 -0.5066
 6767TIP3    H141860   2.986   5.425   8.428  0.3037 -0.3019 -1.2589
 6767TIP3    H241861   3.081   5.541   8.451 -0.2137 -0.6492  3.7547
 6768TIP3   OH241862   3.697   3.347   7.110 -0.4771 -0.4316 -0.7717
 6768TIP3    H141863   3.675   3.436   7.084 -0.7643 -0.6822 -1.4081
 6768TIP3    H241864   3.789   3.337   7.085 -0.3404 -0.1983 -0.3706
 6769TIP3   OH241865   4.962   1.252   1.081  0.0765  0.3928  0.1018
 6769TIP3    H141866   4.950   1.178   1.141 -2.9385  1.7511  1.3819
 6769TIP3    H241867   4.875   1.269   1.045  0.7311  2.9979 -0.5203
 6770TIP3   OH241868   6.357   1.526   2.561 -0.1619  0.2264  0.7198
 6770TIP3    H141869   6.356   1.434   2.587  0.4354  0.5914  2.1196
 6770TIP3    H241870   6.447   1.555   2.575 -0.5417  1.2492  1.1582
 6771TIP3   OH241871   0.034   4.454   2.909  0.2651 -0.2776 -0.2016
 6771TIP3    H141872   0.081   4.373   2.929  0.3131 -0.0382  0.7216
 6771TIP3    H241873   0.083   4.521   2.956 -0.0535  0.2155 -0.5733
 6772TIP3   OH241874   2.688   0.914   7.219  0.1644  0.2835  0.5285
 6772TIP3    H141875   2.767   0.906   7.165  0.0497  0.9869  0.2579
 6772TIP3    H241876   2.634   0.979   7.175 -0.2176  0.3947  1.1469
 6773TIP3   OH241877   5.413   3.664   7.783 -0.1655  0.1889 -0.2157
 6773TIP3    H141878   5.409   3.723   7.709 -0.2469 -0.2776 -0.5879
 6773TIP3    H241879   5.323   3.660   7.816  0.1850  1.8537  1.0853
 6774TIP3   OH241880   4.546   1.408   8.849  0.0091 -0.4569 -0.3030
 6774TIP3    H141881   4.476   1.428   8.787  0.2206 -0.7154 -0.6268
 6774TIP3    H241882   4.502   1.401   8.934 -0.1577  0.7992 -0.2646
 6775TIP3   OH241883   0.134   2.545   1.445 -0.1209 -0.1099  0.3879
 6775TIP3    H141884   0.136   2.589   1.530  1.4605  0.5878  0.0077
 6775TIP3    H241885   0.066   2.591   1.396  0.2109  0.6561  0.6464
 6776TIP3   OH241886   0.320   3.621   0.129  0.1025 -0.0790  0.2663
 6776TIP3    H141887   0.330   3.557   0.058  2.6614 -1.3525  1.6280
 6776TIP3    H241888   0.238   3.596   0.172  0.1447 -1.3388 -0.3107
 6777TIP3   OH241889   1.576   2.449   0.353 -0.2639  0.0970 -0.0401
 6777TIP3    H141890   1.563   2.468   0.446 -0.2807  0.3361 -0.0925
 6777TIP3    H241891   1.599   2.356   0.351 -1.4152 -0.2046  0.1044
 6778TIP3   OH241892   3.565   6.699   8.126 -0.3147  0.0293 -0.2934
 6778TIP3    H141893   3.478   6.733   8.150  0.3806  0.0091  2.7194
 6778TIP3    H241894   3.550   6.609   8.099 -1.4119  0.6113 -1.7328
 6779TIP3   OH241895   0.549   6.531   0.615  0.2101  0.0316 -0.6973
 6779TIP3    H141896   0.501   6.555   0.694  0.3260 -1.3130 -0.2055
 6779TIP3    H241897   0.641   6.541   0.638  0.2428 -0.2960 -0.6843
 6780TIP3   OH241898   2.883   2.413   0.436  0.1465  0.6827 -0.7181
 6780TIP3    H141899   2.936   2.336   0.416 -0.8182  0.0943 -1.0797
 6780TIP3    H241900   2.937   2.464   0.496 -0.0354 -1.3762  1.3551
 6781TIP3   OH241901   2.586   6.711   1.375 -0.2401 -0.6181 -0.1812
 6781TIP3    H141902   2.642   6.776   1.418  1.4511 -1.7616 -0.5152
 6781TIP3    H241903   2.588   6.735   1.283 -1.6664  0.2752  0.0009
 6782TIP3   OH241904   1.631   5.995   7.864 -0.1642  0.6415  0.2622
 6782TIP3    H141905   1.718   5.974   7.832 -0.6874 -1.7043  0.1339
 6782TIP3    H241906   1.640   6.080   7.907  1.7144  1.3569 -1.4166
 6783TIP3   OH241907   1.737   3.516   7.080  0.2682  0.2697 -0.2742
 6783TIP3    H141908   1.739   3.611   7.094 -1.5348  0.3231 -0.1279
 6783TIP3    H241909   1.647   3.491   7.102  1.2168 -1.7893  1.6439
 6784TIP3   OH241910   4.685   5.727   3.107 -0.4346  0.4134 -0.0486
 6784TIP3    H141911   4.666   5.771   3.189 -0.8831 -0.3311  0.2636
 6784TIP3    H241912   4.658   5.789   3.039 -1.8117  0.3196  0.3800
 6785TIP3   OH241913   6.115   5.001   1.062 -0.2680  0.3022 -0.2331
 6785TIP3    H141914   6.033   4.955   1.080 -0.1906 -0.5084 -1.7754
 6785TIP3    H241915   6.183   4.936   1.081  0.0356  0.9555  0.9939
 6786TIP3   OH241916   5.459   2.570   6.914 -0.2344 -0.0667  0.4018
 6786TIP3    H141917   5.442   2.623   6.837  0.5031 -0.8752 -0.3406
 6786TIP3    H241918   5.548   2.592   6.940  0.3431 -1.3887 -0.3280
 6787TIP3   OH241919   4.365   0.588   2.951 -0.0061 -0.4917 -0.3245
 6787TIP3    H141920   4.379   0.679   2.926 -0.0336  0.0848  1.6085
 6787TIP3    H241921   4.308   0.553   2.883  1.5600  0.3393 -2.1772
 6788TIP3   OH241922   1.920   3.959   0.087 -0.2428  0.5488  0.4199
 6788TIP3    H141923   1.971   3.961   0.167 -0.9765  2.3548  0.8960
 6788TIP3    H241924   1.966   4.019   0.028 -1.1618  1.3445  0.4758
 6789TIP3   OH241925   2.715   5.399   1.335  0.0563 -0.3113  0.4457
 6789TIP3    H141926   2.772   5.346   1.391 -0.9474 -0.9774  0.8772
 6789TIP3    H241927   2.636   5.411   1.386  0.3019  1.7881  0.4167
 6790TIP3   OH241928   3.710   0.562   8.088 -0.0064  0.2629  0.6095
 6790TIP3    H141929   3.616   0.582   8.085  0.1424  0.8079 -1.4622
 6790TIP3    H241930   3.753   0.647   8.095  0.3715  0.1057  0.2240
 6791TIP3   OH241931   4.256   6.581   2.729 -0.6123  0.2651 -0.4164
 6791TIP3    H141932   4.189   6.649   2.724 -1.0090  0.1866  2.5391
 6791TIP3    H241933   4.326   6.620   2.781 -0.9951 -1.6386  1.6513
 6792TIP3   OH241934   3.824   6.746   1.700 -0.8002  0.0895 -0.1195
 6792TIP3    H141935   3.870   6.736   1.784  2.1418  1.4859 -1.4324
 6792TIP3    H241936   3.823   6.658   1.663  2.6061  0.1955 -0.8008
 6793TIP3   OH241937   6.273   3.340   8.045 -0.5534 -0.0512  0.1301
 6793TIP3    H141938   6.192   3.392   8.044 -0.5831 -0.1141 -0.9175
 6793TIP3    H241939   6.341   3.403   8.071 -0.6055  0.5179 -1.0358
 6794TIP3   OH241940   6.475   0.442   6.953  0.0748 -0.2655 -0.5430
 6794TIP3    H141941   6.512   0.355   6.937 -2.2179 -1.1192 -1.7682
 6794TIP3    H241942   6.544   0.503   6.928  2.6803 -1.5955  2.6717
 6795TIP3   OH241943   1.772   0.811   1.978 -0.1935 -0.5395 -0.2113
 6795TIP3    H141944   1.750   0.892   1.932  2.7213  0.7165  0.3879
 6795TIP3    H241945   1.836   0.767   1.921 -0.9031 -1.8868 -0.0142
 6796TIP3   OH241946   2.930   3.708   8.807 -0.6721 -0.4466  0.3125
 6796TIP3    H141947   2.897   3.710   8.896 -0.2297  1.3386  0.4834
 6796TIP3    H241948   2.926   3.799   8.778  1.1127 -0.6564 -0.7532
 6797TIP3   OH241949   0.599   3.537   0.719  0.8989  0.1860 -0.2352
 6797TIP3    H141950   0.509   3.566   0.709  0.9825  0.3314 -0.5946
 6797TIP3    H241951   0.626   3.513   0.630  0.6607 -1.5034  0.1185
 6798TIP3   OH241952   2.760   1.399   2.188 -0.3146 -0.4399  0.1166
 6798TIP3    H141953   2.809   1.318   2.202  0.3387 -0.1693 -0.5777
 6798TIP3    H241954   2.769   1.447   2.270  3.1037  0.9370 -0.9131
 6799TIP3   OH241955   2.086   5.300   2.990 -0.2450  0.1753  0.2102
 6799TIP3    H141956   2.037   5.245   3.051  0.2066 -1.7549 -1.0633
 6799TIP3    H241957   2.177   5.294   3.019  0.1336 -1.6273 -1.1909
 6800TIP3   OH241958   2.066   3.508   7.165 -0.4522  0.2462  0.0428
 6800TIP3    H141959   2.073   3.441   7.233  0.5092  1.1105  0.8166
 6800TIP3    H241960   2.142   3.564   7.178 -1.0593  1.3040 -0.8022
 6801TIP3   OH241961   4.580   2.402   7.151  0.2243 -0.0939  0.1962
 6801TIP3    H141962   4.588   2.497   7.146  1.1431 -0.1982 -0.5625
 6801TIP3    H241963   4.508   2.380   7.092  0.3702  0.0845 -0.0469
 6802TIP3   OH241964   5.999   0.040   1.895  0.4560  0.4458  0.1132
 6802TIP3    H141965   6.030   0.100   1.963  1.7869  1.5659 -1.4268
 6802TIP3    H241966   5.908   0.065   1.881  0.7423  1.5320  0.0984
 6803TIP3   OH241967   2.294   2.815   0.703 -0.2132 -0.0162  0.1121
 6803TIP3    H141968   2.215   2.836   0.752  0.4079 -0.4454  1.3528
 6803TIP3    H241969   2.317   2.896   0.658 -0.5518  0.5384  0.9177
 6804TIP3   OH241970   1.724   3.371   8.102 -0.4733  0.0527 -0.6158
 6804TIP3    H141971   1.698   3.463   8.098 -0.1270  0.1989  0.3537
 6804TIP3    H241972   1.696   3.341   8.188  0.2377 -0.5026 -0.5672
 6805TIP3   OH241973   0.277   0.474   0.079 -0.7995 -0.1219  0.3649
 6805TIP3    H141974   0.192   0.432   0.069 -1.0158  0.5405 -0.8080
 6805TIP3    H241975   0.312   0.481  -0.011 -0.2891  1.1639  0.6288
 6806TIP3   OH241976   3.872   2.063   8.478  0.5316 -0.3118  0.2145
 6806TIP3    H141977   3.875   2.035   8.386 -0.2580 -1.3927  0.4820
 6806TIP3    H241978   3.864   1.981   8.527  0.9889  0.2501  1.2526
 6807TIP3   OH241979   0.781   4.645   1.199 -0.0021 -0.0214  0.4519
 6807TIP3    H141980   0.750   4.695   1.275  2.1667  3.2618 -0.5844
 6807TIP3    H241981   0.708   4.646   1.138 -0.0310  2.1479  0.4382
 6808TIP3   OH241982   3.240   4.917   6.685  0.2286  0.9784 -0.7780
 6808TIP3    H141983   3.223   4.969   6.764  2.1175  0.3121  0.1491
 6808TIP3    H241984   3.225   4.827   6.713  0.1261  0.7993 -1.4130
 6809TIP3   OH241985   2.737   3.832   7.639 -0.0886  0.2274 -0.2390
 6809TIP3    H141986   2.813   3.775   7.649  0.6731  0.5090 -3.4042
 6809TIP3    H241987   2.684   3.816   7.718  1.2019 -3.0759  0.1004
 6810TIP3   OH241988   0.964   4.510   8.826 -0.2941  0.0495  0.6374
 6810TIP3    H141989   0.908   4.565   8.881  0.3681  0.9060  0.4850
 6810TIP3    H241990   1.014   4.572   8.773 -0.6328 -0.7421 -0.6657
 6811TIP3   OH241991   3.147   5.088   6.912 -0.5884 -0.1743  0.0992
 6811TIP3    H141992   3.131   5.134   6.995  0.5440  1.9600 -0.7908
 6811TIP3    H241993   3.092   5.134   6.848  0.6403  0.0214 -0.8398
 6812TIP3   OH241994   5.966   1.938   0.164 -0.1213  0.2716 -0.2129
 6812TIP3    H141995   6.051   1.980   0.170  0.0797 -0.1728  0.1319
 6812TIP3    H241996   5.947   1.908   0.253 -0.4304 -0.0270 -0.3756
 6813TIP3   OH241997   0.096   6.415   7.455  0.3165 -0.2196  0.9097
 6813TIP3    H141998   0.124   6.429   7.546  3.0836  0.0712  0.0975
 6813TIP3    H241999   0.081   6.321   7.450  0.9546 -0.3615  1.4626
 6814TIP3   OH242000   3.405   0.409   7.491 -0.1043 -0.2923 -0.1372
 6814TIP3    H142001   3.342   0.418   7.562 -0.3143 -2.9146  0.1113
 6814TIP3    H242002   3.452   0.327   7.510  1.7334  0.3390 -1.5835
 6815TIP3   OH242003   4.863   4.181   1.417  0.2480  0.4381  0.0195
 6815TIP3    H142004   4.913   4.122   1.360 -3.1825 -1.1985 -1.5784
 6815TIP3    H242005   4.895   4.268   1.395  1.9789 -0.4492 -1.2506
 6816TIP3   OH242006   4.887   4.779   0.816 -0.0812 -0.2524  0.5567
 6816TIP3    H142007   4.887   4.850   0.752  0.0310 -1.0505 -0.3416
 6816TIP3    H242008   4.972   4.736   0.805 -0.0177 -0.3300  1.3142
 6817TIP3   OH242009   2.541   4.474   0.934 -0.5436  0.1896 -0.2426
 6817TIP3    H142010   2.496   4.557   0.948 -2.0727 -0.6847  0.4010
 6817TIP3    H242011   2.488   4.410   0.982 -0.2121 -1.3776 -1.8294
 6818TIP3   OH242012   1.973   4.415   7.401 -0.1550  0.5139 -0.6016
 6818TIP3    H142013   2.029   4.338   7.406  1.0466  1.2579 -1.7381
 6818TIP3    H242014   1.886   4.385   7.429  0.4229 -1.0830 -0.4617
 6819TIP3   OH242015   6.667   4.590   0.002 -0.0192 -0.6613 -0.1430
 6819TIP3    H142016   6.640   4.663  -0.054  0.8629 -0.2531 -0.0544
 6819TIP3    H242017   6.619   4.514  -0.032 -0.1988 -0.2323 -0.8591
 6820TIP3   OH242018   2.019   4.486   1.916 -0.4263 -0.2651 -0.1397
 6820TIP3    H142019   2.093   4.529   1.873 -2.1983 -0.0864 -3.3076
 6820TIP3    H242020   1.960   4.558   1.940 -0.2937 -0.5057  0.9496
 6821TIP3   OH242021   0.480   3.938   1.699  0.1246 -0.5595  0.0262
 6821TIP3    H142022   0.443   4.004   1.641 -0.0292 -0.9472 -0.3180
 6821TIP3    H242023   0.498   3.863   1.643  2.5829  0.0243 -0.0560
 6822TIP3   OH242024   3.133   5.190   7.749  0.3416 -0.3931  0.2414
 6822TIP3    H142025   3.170   5.263   7.799  1.7783  0.0963 -1.4011
 6822TIP3    H242026   3.066   5.231   7.693  0.1626 -0.5735  0.3246
 6823TIP3   OH242027   1.916   1.486   2.032  0.0106 -0.2922 -0.5068
 6823TIP3    H142028   1.981   1.416   2.026  0.7481  0.4053 -0.7840
 6823TIP3    H242029   1.948   1.542   2.103 -0.7547 -0.3995 -0.0580
 6824TIP3   OH242030   6.128   6.340   1.770  0.0163 -0.3331 -0.1410
 6824TIP3    H142031   6.146   6.424   1.729 -1.7091  1.2470  2.0999
 6824TIP3    H242032   6.185   6.339   1.848 -1.6835 -0.0675  1.1622
 6825TIP3   OH242033   0.663   1.490   8.451 -0.3269  0.6523  0.1464
 6825TIP3    H142034   0.742   1.436   8.448 -1.0602 -0.4103 -2.5488
 6825TIP3    H242035   0.672   1.551   8.378 -2.3495 -0.1137 -0.8313
 6826TIP3   OH242036   3.123   6.490   1.334 -0.0819 -0.4203  0.5518
 6826TIP3    H142037   3.079   6.543   1.268 -0.5911  0.0934  1.2838
 6826TIP3    H242038   3.213   6.480   1.301 -0.3414 -0.2386 -0.2372
 6827TIP3   OH242039   0.022   2.687   1.070  0.6946 -0.3985 -0.0561
 6827TIP3    H142040   0.021   2.770   1.118  1.8049  0.3472 -1.2486
 6827TIP3    H242041  -0.070   2.670   1.050  0.5430  1.6327 -1.5013
 6828TIP3   OH242042   4.317   0.625   0.755  0.0149  0.3922  0.2401
 6828TIP3    H142043   4.344   0.577   0.833 -1.9319  0.2618  0.8809
 6828TIP3    H242044   4.396   0.670   0.726  1.5409 -1.9311  0.5051
 6829TIP3   OH242045   6.448   6.638   0.377  0.5989 -0.3847  0.1180
 6829TIP3    H142046   6.464   6.727   0.408 -1.1930 -0.1247  0.3818
 6829TIP3    H242047   6.441   6.647   0.282 -1.0203  0.0476  0.2415
 6830TIP3   OH242048   4.723   2.516   2.727 -0.0099 -0.1280 -0.2753
 6830TIP3    H142049   4.796   2.577   2.736  1.5793 -1.8321 -0.9236
 6830TIP3    H242050   4.727   2.462   2.805 -0.9432  0.1006 -0.0590
 6831TIP3   OH242051   0.701   5.435   1.489 -0.5675 -0.4623 -0.3114
 6831TIP3    H142052   0.650   5.421   1.569 -1.6283  1.5604 -0.5727
 6831TIP3    H242053   0.659   5.377   1.425  0.0732 -1.8407  0.4594
 6832TIP3   OH242054   0.050   6.669   7.960 -0.1200 -0.5228  0.2714
 6832TIP3    H142055   0.011   6.740   7.911 -2.5530 -0.7876  1.6843
 6832TIP3    H242056   0.138   6.660   7.923 -0.2472  2.2095 -0.9128
 6833TIP3   OH242057   1.564   3.337   1.205 -0.3883 -0.0499  0.2450
 6833TIP3    H142058   1.559   3.377   1.292 -1.6557 -0.3735  0.3423
 6833TIP3    H242059   1.511   3.395   1.149  0.4006  0.1443 -0.3147
 6834TIP3   OH242060   6.413   0.089   0.491  0.3948  0.0335 -0.1433
 6834TIP3    H142061   6.395   0.113   0.582  0.6161 -1.1212  0.2249
 6834TIP3    H242062   6.327   0.078   0.451  0.1452 -3.3483  1.0271
 6835TIP3   OH242063   3.022   6.279   1.048  0.3626 -0.1113  0.4363
 6835TIP3    H142064   3.017   6.268   0.953  0.2644  1.3681  0.2481
 6835TIP3    H242065   2.950   6.226   1.082 -0.0917 -0.0316 -0.3808
 6836TIP3   OH242066   6.473   1.946   8.414  0.3947  0.2805 -0.3757
 6836TIP3    H142067   6.528   1.936   8.492  0.3184  0.9636 -0.2339
 6836TIP3    H242068   6.525   1.909   8.343  1.2165  1.3212 -0.3181
 6837TIP3   OH242069   4.964   5.733   8.338 -0.4105  0.3401  0.6139
 6837TIP3    H142070   5.000   5.806   8.389 -1.4233  1.0349  0.3635
 6837TIP3    H242071   5.003   5.655   8.377 -0.4767  0.9149  1.8759
 6838TIP3   OH242072   4.644   3.406   7.936 -0.2684 -0.0767  0.2032
 6838TIP3    H142073   4.592   3.419   7.857  1.1227  0.2455 -0.6975
 6838TIP3    H242074   4.589   3.353   7.993 -2.1985  1.5805 -0.0331
 6839TIP3   OH242075   2.299   4.634   2.818  0.0686  0.2206  0.0516
 6839TIP3    H142076   2.331   4.671   2.901 -2.0641 -0.1366  1.0985
 6839TIP3    H242077   2.377   4.595   2.778  1.1919  0.5319  1.8143
 6840TIP3   OH242078   4.370   3.388   1.025  0.2370  0.3632 -0.2402
 6840TIP3    H142079   4.338   3.425   1.107  1.4998  0.8942  0.0295
 6840TIP3    H242080   4.447   3.336   1.050  0.4753  0.3046 -1.0521
 6841TIP3   OH242081   2.708   3.247   7.869  0.3655  0.1868 -0.1884
 6841TIP3    H142082   2.794   3.234   7.828  0.1006  0.9215 -0.9814
 6841TIP3    H242083   2.728   3.287   7.954  0.8092  0.2318 -0.3126
 6842TIP3   OH242084   0.063   0.428   0.591  0.7495  0.4950  0.7499
 6842TIP3    H142085  -0.022   0.459   0.621  0.7281 -0.1722  1.4041
 6842TIP3    H242086   0.115   0.507   0.578  0.1522  0.8828  0.7172
 6843TIP3   OH242087   1.780   4.973   7.706 -0.1937  0.0679  0.4033
 6843TIP3    H142088   1.714   4.950   7.641 -1.2459  0.3550  1.3402
 6843TIP3    H242089   1.782   4.899   7.766 -0.1766  0.3689  0.7801
 6844TIP3   OH242090   6.733   4.488   0.849  0.0139  0.7750  0.5307
 6844TIP3    H142091   6.774   4.402   0.861  1.2901  1.1078 -1.1285
 6844TIP3    H242092   6.639   4.470   0.854  0.2156 -0.9313 -0.9204
 6845TIP3   OH242093   5.925   2.538   7.437  0.3719  0.4756  0.1871
 6845TIP3    H142094   5.835   2.505   7.444 -0.2158  1.7644 -0.8358
 6845TIP3    H242095   5.925   2.620   7.487  0.4140  1.5015 -1.4287
 6846TIP3   OH242096   6.307   2.741   0.308 -0.4702  0.1030 -0.6409
 6846TIP3    H142097   6.321   2.657   0.264  0.9780  0.2754 -0.5482
 6846TIP3    H242098   6.213   2.742   0.329 -0.1539 -2.4029  1.2483
 6847TIP3   OH242099   2.122   2.140   1.567  0.4096  0.5408 -0.4463
 6847TIP3    H142100   2.130   2.235   1.552 -0.8850  0.9176  1.0084
 6847TIP3    H242101   2.028   2.124   1.573  0.6410 -0.5472  0.9354
 6848TIP3   OH242102   1.764   3.773   1.932 -0.6470  0.6608  0.3752
 6848TIP3    H142103   1.799   3.859   1.911 -1.7528  1.6107  2.1567
 6848TIP3    H242104   1.697   3.757   1.866  0.2185  0.7016 -0.5352
 6849TIP3   OH242105   4.137   1.873   2.565  0.2141  0.2455 -0.0109
 6849TIP3    H142106   4.095   1.912   2.488 -0.8248  0.3215  0.5691
 6849TIP3    H242107   4.210   1.823   2.530  0.1071  0.7497 -0.9938
 6850TIP3   OH242108   3.579   0.456   0.563 -0.0251 -0.0487  0.1595
 6850TIP3    H142109   3.532   0.470   0.481 -1.0059 -2.0852  0.3030
 6850TIP3    H242110   3.590   0.361   0.568  1.1329  0.1238  1.7897
 6851TIP3   OH242111   5.378   5.550   7.534  0.0312 -0.0292 -0.2201
 6851TIP3    H142112   5.439   5.605   7.484 -0.0447  0.1338 -0.1343
 6851TIP3    H242113   5.324   5.508   7.467 -0.1008  0.2255 -0.2759
 6852TIP3   OH242114   2.221   1.882   1.675 -0.2202 -0.2421  0.4893
 6852TIP3    H142115   2.175   1.856   1.596  0.3635  0.4928 -0.1094
 6852TIP3    H242116   2.208   1.977   1.681  3.0877  0.4774 -1.0346
 6853TIP3   OH242117   0.614   2.980   7.752  0.3407  0.0691 -0.5548
 6853TIP3    H142118   0.573   3.032   7.683  0.2219  1.2653  0.3988
 6853TIP3    H242119   0.689   2.938   7.709  2.5200  3.6551 -0.6504
 6854TIP3   OH242120   2.481   4.410   8.160 -0.5348  0.1492  0.2006
 6854TIP3    H142121   2.477   4.333   8.104  2.0485  0.1450 -0.0924
 6854TIP3    H242122   2.495   4.375   8.248  0.3827  0.2438  0.1034
 6855TIP3   OH242123   2.655   1.693   0.464  0.2117  0.2605  0.5505
 6855TIP3    H142124   2.730   1.741   0.497  1.2935 -0.2406 -1.0487
 6855TIP3    H242125   2.663   1.605   0.502  0.3038  0.2869  0.5917
 6856TIP3   OH242126   3.588   2.771   0.961 -0.8940  0.1011 -0.8857
 6856TIP3    H142127   3.594   2.693   1.015  0.8360  0.5244 -0.4159
 6856TIP3    H242128   3.496   2.798   0.969 -1.2933 -1.3337 -0.3115
 6857TIP3   OH242129   0.361   0.558   8.721 -0.3237 -0.2914  0.0721
 6857TIP3    H142130   0.342   0.503   8.645  1.6271 -1.2238  0.1869
 6857TIP3    H242131   0.429   0.618   8.690  0.7432 -0.9151  1.1462
 6858TIP3   OH242132   4.899   2.493   0.225  0.1682 -0.5479  0.4677
 6858TIP3    H142133   4.905   2.537   0.310 -1.0510 -0.1260  0.3513
 6858TIP3    H242134   4.987   2.460   0.209  1.0535  1.5317  0.7268
 6859TIP3   OH242135   4.900   0.109   7.941 -0.1704  0.3620  0.2847
 6859TIP3    H142136   4.862   0.072   7.861 -0.3068  1.1974 -0.0500
 6859TIP3    H242137   4.843   0.182   7.963  1.6956  2.2546 -0.7599
 6860TIP3   OH242138   5.808   1.040   7.096  0.7139  0.4605 -0.0612
 6860TIP3    H142139   5.832   0.959   7.141 -0.2778  0.9994  1.5451
 6860TIP3    H242140   5.712   1.035   7.088  0.8548  0.3573 -2.2482
 6861TIP3   OH242141   3.937   6.359   1.158 -0.5862 -0.2128 -0.1127
 6861TIP3    H142142   3.931   6.266   1.139 -0.1637  0.1241 -2.1081
 6861TIP3    H242143   3.848   6.392   1.141 -1.1192 -0.4346  1.9748
 6862TIP3   OH242144   5.181   0.013   3.401  0.0133  0.6019 -0.7253
 6862TIP3    H142145   5.177   0.035   3.308 -1.1310 -1.8271 -1.3227
 6862TIP3    H242146   5.269  -0.021   3.415  0.0641  0.6120 -1.0213
 6863TIP3   OH242147   0.400   3.268   0.625 -0.0021 -0.6356  0.7675
 6863TIP3    H142148   0.338   3.328   0.665 -1.5257 -2.0600  0.6386
 6863TIP3    H242149   0.423   3.308   0.541 -1.5807 -0.5597  0.3385
 6864TIP3   OH242150   1.444   4.898   2.400 -0.2782 -0.8047 -0.0021
 6864TIP3    H142151   1.409   4.958   2.466 -1.0566 -0.2040 -0.9294
 6864TIP3    H242152   1.505   4.843   2.448 -0.1473  0.2065  1.0424
 6865TIP3   OH242153   4.534   0.400   8.295  0.0151  0.4315 -0.0189
 6865TIP3    H142154   4.566   0.488   8.316  1.3527  0.3433 -1.5390
 6865TIP3    H242155   4.495   0.369   8.377  1.9081  1.3991  1.3199
 6866TIP3   OH242156   6.374   1.096   6.694 -0.0335  0.3385  0.6014
 6866TIP3    H142157   6.444   1.040   6.659 -0.9920 -1.0828  0.8733
 6866TIP3    H242158   6.339   1.142   6.618  1.8820  1.9176  0.6050
 6867TIP3   OH242159   1.122   3.096   0.463 -0.1316  0.5141  0.5250
 6867TIP3    H142160   1.094   3.083   0.553 -0.1775 -0.5327  0.3663
 6867TIP3    H242161   1.042   3.087   0.411  0.2262 -1.1115  0.1950
 6868TIP3   OH242162   3.169   1.058   1.954  0.1873  0.3595 -0.1181
 6868TIP3    H142163   3.258   1.049   1.921 -0.2415 -0.1883 -1.1655
 6868TIP3    H242164   3.124   0.977   1.927 -0.9186  1.0917 -0.5574
 6869TIP3   OH242165   3.944   5.764   8.205 -0.1474 -0.6470  0.1084
 6869TIP3    H142166   3.934   5.670   8.194  0.7032 -0.8991  1.2628
 6869TIP3    H242167   3.994   5.792   8.128 -1.2315 -0.9572 -0.7320
 6870TIP3   OH242168   6.659   4.615   0.504 -0.2205  0.4946 -0.6388
 6870TIP3    H142169   6.678   4.659   0.421 -0.3919 -0.9037 -1.4530
 6870TIP3    H242170   6.608   4.678   0.554 -0.0917  1.3731 -1.5915
 6871TIP3   OH242171   5.551   3.863   8.082  0.0611  0.4315 -0.2428
 6871TIP3    H142172   5.500   3.794   8.124  0.7686  1.0170  1.7033
 6871TIP3    H242173   5.516   3.868   7.994 -1.3153 -1.0862  0.1574
 6872TIP3   OH242174   4.456   4.594   2.671  0.2320  0.2736 -0.0747
 6872TIP3    H142175   4.379   4.539   2.666 -0.6095  1.1818  1.7442
 6872TIP3    H242176   4.525   4.544   2.628 -1.8576  0.5188 -4.1481
 6873TIP3   OH242177   2.414   5.564   0.600 -0.2028  0.5615 -0.0730
 6873TIP3    H142178   2.488   5.579   0.541 -1.5487 -1.0335 -2.2940
 6873TIP3    H242179   2.454   5.559   0.687  1.9597  2.2341 -0.8734
 6874TIP3   OH242180   6.530   2.789   8.682  0.2274  0.4751  0.4465
 6874TIP3    H142181   6.444   2.749   8.698  1.5294 -2.5261  0.7030
 6874TIP3    H242182   6.586   2.754   8.751  2.3205 -0.1175 -1.4190
 6875TIP3   OH242183   5.960   6.592   6.924 -0.5163  0.2464 -0.1559
 6875TIP3    H142184   5.961   6.516   6.865 -2.8480  1.0636 -1.3880
 6875TIP3    H242185   5.898   6.568   6.992 -0.4394  0.6317  0.0505
 6876TIP3   OH242186   4.284   0.483   0.027 -0.8816  0.0497 -0.5478
 6876TIP3    H142187   4.355   0.445   0.078 -1.3400  0.7686  0.6660
 6876TIP3    H242188   4.306   0.463  -0.064 -0.1721 -1.4850 -0.0691
 6877TIP3   OH242189   6.156   0.955   0.344 -0.2645 -0.6189 -0.1853
 6877TIP3    H142190   6.112   0.871   0.356 -1.1334 -0.2141 -0.4319
 6877TIP3    H242191   6.085   1.017   0.328  0.3870  0.0981 -0.3670
 6878TIP3   OH242192   3.167   6.097   1.427  0.5171 -0.0289  0.4124
 6878TIP3    H142193   3.110   6.171   1.449  0.6737 -0.7551  3.6998
 6878TIP3    H242194   3.107   6.029   1.399  0.1680  0.5374 -0.2619
 6879TIP3   OH242195   6.736   3.538   7.427  0.3274 -0.0826  0.3727
 6879TIP3    H142196   6.745   3.620   7.379  1.0703  0.0378  0.6952
 6879TIP3    H242197   6.728   3.564   7.519 -2.4902 -0.2472  0.2394
 6880TIP3   OH242198   4.281   2.079   2.156  0.0668  0.0289  0.2925
 6880TIP3    H142199   4.325   2.164   2.167  1.7179 -0.7930  0.2998
 6880TIP3    H242200   4.246   2.083   2.067  1.2586  0.2338 -0.1831
 6881TIP3   OH242201   3.325   5.624   0.734 -0.3919  0.3451 -0.1158
 6881TIP3    H142202   3.401   5.567   0.737 -0.0087  0.9137  1.6375
 6881TIP3    H242203   3.305   5.644   0.825  0.3441  4.1026 -0.6272
 6882TIP3   OH242204   2.191   6.327   2.726 -0.0458 -0.1881 -0.4941
 6882TIP3    H142205   2.203   6.404   2.782  2.2551 -1.1797  0.4656
 6882TIP3    H242206   2.188   6.364   2.637  0.2659  1.0585 -0.0144
 6883TIP3   OH242207   3.680   5.497   6.808 -0.1799 -0.8815 -0.1389
 6883TIP3    H142208   3.685   5.468   6.717  0.2339  1.1578 -0.8191
 6883TIP3    H242209   3.629   5.429   6.852  0.4793 -2.4273 -1.6494
 6884TIP3   OH242210   0.600   1.834   7.848  0.1640  0.7709 -0.3241
 6884TIP3    H142211   0.572   1.888   7.774  0.2733  1.9285  0.4576
 6884TIP3    H242212   0.581   1.744   7.821 -2.9532  1.3524 -0.4519
 6885TIP3   OH242213   1.601   2.856   2.008 -0.0225  0.5766 -0.0727
 6885TIP3    H142214   1.517   2.882   2.046 -0.4516  0.6920 -1.0685
 6885TIP3    H242215   1.578   2.820   1.922  0.8144 -0.6909  0.2140
 6886TIP3   OH242216   5.712   1.137   8.074  0.0697 -0.0404  0.2789
 6886TIP3    H142217   5.763   1.210   8.110 -1.3246  1.0518  0.1680
 6886TIP3    H242218   5.684   1.168   7.988 -0.1018 -0.9434 -0.0011
 6887TIP3   OH242219   4.860   3.535   0.642 -0.0416  0.1656 -0.0512
 6887TIP3    H142220   4.890   3.554   0.731  0.2889 -0.6905  0.0339
 6887TIP3    H242221   4.931   3.562   0.585  1.5853 -2.9980  0.2187
 6888TIP3   OH242222   4.688   6.226   2.307  0.0232  0.1768  0.1376
 6888TIP3    H142223   4.645   6.232   2.221  1.7245 -1.0416 -0.8690
 6888TIP3    H242224   4.693   6.316   2.338  2.6219  1.2210 -2.7982
 6889TIP3   OH242225   0.765   1.852   6.852 -0.1397 -0.6155  0.3717
 6889TIP3    H142226   0.753   1.757   6.856  0.5455 -0.9426 -2.6925
 6889TIP3    H242227   0.860   1.864   6.847 -0.2691  0.1472 -0.3472
 6890TIP3   OH242228   1.433   5.143   1.041 -0.1657  0.4421  0.1415
 6890TIP3    H142229   1.348   5.180   1.062 -0.0330 -0.1940  2.0007
 6890TIP3    H242230   1.419   5.095   0.960 -1.1008  1.8654 -0.5722
 6891TIP3   OH242231   5.506   1.846   8.447 -0.0780 -0.2833  0.0798
 6891TIP3    H142232   5.492   1.752   8.436  0.0714 -0.2029 -0.8982
 6891TIP3    H242233   5.443   1.871   8.515  0.7571 -1.2968  1.2834
 6892TIP3   OH242234   2.117   4.270   0.319 -0.5686 -0.0178 -0.0005
 6892TIP3    H142235   2.206   4.263   0.355 -1.5916  2.2806  3.5053
 6892TIP3    H242236   2.069   4.198   0.358 -0.7952  0.1473  0.0261
 6893TIP3   OH242237   3.586   1.691   2.354  0.5446 -0.1897 -0.2846
 6893TIP3    H142238   3.566   1.764   2.413  0.1484  1.2639 -2.1347
 6893TIP3    H242239   3.681   1.682   2.358  0.6494  0.7670 -0.3846
 6894TIP3   OH242240   4.715   0.880   2.443  0.4005  0.3428 -0.1718
 6894TIP3    H142241   4.789   0.854   2.498  0.3998 -0.1850 -0.4134
 6894TIP3    H242242   4.740   0.965   2.408  0.0399  1.0949  1.3091
 6895TIP3   OH242243   2.974   5.133   2.478  0.9480  0.1214 -0.2383
 6895TIP3    H142244   3.012   5.201   2.533  1.7618 -0.0542 -0.5691
 6895TIP3    H242245   2.965   5.057   2.535 -2.3636  1.1785  0.8652
 6896TIP3   OH242246   0.424   2.397   0.318  0.0766 -0.2861 -0.3618
 6896TIP3    H142247   0.465   2.379   0.403 -0.4686 -0.3483 -0.1066
 6896TIP3    H242248   0.425   2.313   0.273 -0.6346 -0.5133  0.0284
 6897TIP3   OH242249   6.778   0.697   8.554 -0.1758 -0.1071  0.3913
 6897TIP3    H142250   6.767   0.726   8.463 -5.8641  1.8046  1.3008
 6897TIP3    H242251   6.729   0.615   8.558  0.8809 -0.7084  1.6175
 6898TIP3   OH242252   6.265   3.297   1.612 -0.2174 -0.5072  0.3004
 6898TIP3    H142253   6.315   3.354   1.670 -0.2342 -1.0518  0.8541
 6898TIP3    H242254   6.330   3.258   1.553 -0.1569 -0.2297  0.1829
 6899TIP3   OH242255   3.726   0.552   1.151  0.0166  0.3239 -0.1308
 6899TIP3    H142256   3.653   0.522   1.097  2.4108 -2.1026 -2.3001
 6899TIP3    H242257   3.755   0.633   1.110 -2.4058  2.3656  1.8445
 6900TIP3   OH242258   0.336   2.009   0.834  0.3616  0.2718  0.2369
 6900TIP3    H142259   0.364   2.067   0.905  1.6792  1.2943 -1.0470
 6900TIP3    H242260   0.241   2.024   0.827  0.5497  1.7144  0.4472
 6901TIP3   OH242261   4.802   0.203   2.184 -0.7101  0.7170  0.2889
 6901TIP3    H142262   4.837   0.195   2.273  0.8720  0.7627 -0.2994
 6901TIP3    H242263   4.878   0.222   2.130 -1.7326  1.2789 -1.0088
 6902TIP3   OH242264   0.808   4.901   8.143 -0.4487 -0.0748 -0.1996
 6902TIP3    H142265   0.812   4.806   8.132  1.2770 -0.0497 -0.1334
 6902TIP3    H242266   0.863   4.919   8.219  1.1835  1.1495 -1.5873
 6903TIP3   OH242267   0.621   0.170   7.881  0.2060  0.2573 -0.0083
 6903TIP3    H142268   0.688   0.150   7.946 -0.2274 -0.4103  0.2408
 6903TIP3    H242269   0.551   0.214   7.930  0.1441  0.2985 -0.1317
 6904TIP3   OH242270   6.521   2.662   8.088  0.6278 -0.2957  0.3494
 6904TIP3    H142271   6.484   2.613   8.162  1.0564  0.9393  1.4052
 6904TIP3    H242272   6.444   2.693   8.039  0.2923  0.3505  1.2631
 6905TIP3   OH242273   5.648   0.587   2.033 -0.1008 -0.2217  0.3539
 6905TIP3    H142274   5.680   0.501   2.006  0.0574 -0.7286  2.0506
 6905TIP3    H242275   5.727   0.635   2.057 -0.2839 -0.0523  0.6193
 6906TIP3   OH242276   2.835   1.357   1.126 -0.3300  0.3722 -0.2185
 6906TIP3    H142277   2.740   1.355   1.138 -0.4842 -0.7814 -1.4067
 6906TIP3    H242278   2.866   1.276   1.167  0.2312  1.0511  0.7251
 6907TIP3   OH242279   1.144   4.880   2.195  0.5573  0.2769 -0.4041
 6907TIP3    H142280   1.111   4.945   2.132 -0.6847 -0.7361 -0.8300
 6907TIP3    H242281   1.225   4.919   2.229  0.9582  1.0940 -2.2035
 6908TIP3   OH242282   1.165   3.714   6.963  0.4450 -0.3383 -0.0627
 6908TIP3    H142283   1.110   3.762   6.901  0.5888 -1.0047 -0.7113
 6908TIP3    H242284   1.248   3.703   6.917  0.6100 -0.6907  0.3168
 6909TIP3   OH242285   2.943   3.211   7.624 -0.6481  0.1922 -0.0513
 6909TIP3    H142286   2.971   3.198   7.533 -1.0539 -1.6700  0.0563
 6909TIP3    H242287   2.990   3.289   7.652 -0.5201  0.8172 -1.8623
 6910TIP3   OH242288   1.443   3.714   1.464 -0.3990 -0.3283 -0.5601
 6910TIP3    H142289   1.391   3.745   1.391 -2.0140 -1.1573  0.1980
 6910TIP3    H242290   1.531   3.702   1.427 -0.8158  0.6757 -1.9665
 6911TIP3   OH242291   3.031   3.709   1.235  0.0000  0.4585 -0.2725
 6911TIP3    H142292   3.094   3.745   1.297 -0.5988  1.2016 -0.0766
 6911TIP3    H242293   3.065   3.736   1.149  0.6273 -0.2475 -0.2496
 6912TIP3   OH242294   5.072   0.236   1.043  0.5340  0.0937 -0.5890
 6912TIP3    H142295   4.994   0.247   0.988 -0.3731 -0.8257  0.4672
 6912TIP3    H242296   5.091   0.324   1.076  1.3521  0.7439 -2.6590
 6913TIP3   OH242297   5.782   0.186   0.197 -0.2027 -0.0165  0.1229
 6913TIP3    H142298   5.778   0.209   0.289  1.0082  2.8362 -0.4331
 6913TIP3    H242299   5.813   0.095   0.196 -1.0782 -0.4110  2.4846
 6914TIP3   OH242300   3.130   1.996   7.973 -0.4757 -0.4744 -0.6360
 6914TIP3    H142301   3.056   1.979   7.914 -1.6516 -1.2008  0.9779
 6914TIP3    H242302   3.191   2.047   7.920 -1.0087 -1.9103 -2.8096
 6915TIP3   OH242303   5.416   4.702   0.483 -0.2377  0.4875  0.0048
 6915TIP3    H142304   5.496   4.655   0.505 -0.2279 -0.0562 -1.1133
 6915TIP3    H242305   5.382   4.657   0.406 -1.8890  0.3830  0.7362
 6916TIP3   OH242306   3.322   6.272   1.036  0.4674  0.3804 -0.4561
 6916TIP3    H142307   3.229   6.290   1.023  0.5372  0.0546 -1.4257
 6916TIP3    H242308   3.326   6.180   1.061  0.6246  0.0264 -1.7247
 6917TIP3   OH242309   0.594   6.076   0.736  0.7704 -0.1233 -0.0466
 6917TIP3    H142310   0.502   6.099   0.746  0.5339  0.4571 -2.8316
 6917TIP3    H242311   0.602   5.990   0.778 -1.2257 -0.5482 -0.4550
 6918TIP3   OH242312   5.301   2.236   1.956  0.2985 -0.3797  0.8627
 6918TIP3    H142313   5.390   2.235   1.921 -1.0549 -1.4779 -3.0626
 6918TIP3    H242314   5.290   2.150   1.997  0.6615 -0.7894  0.1221
 6919TIP3   OH242315   4.067   2.708   7.133  0.6127  0.3736 -0.4872
 6919TIP3    H142316   4.155   2.697   7.098  0.4885  1.4324 -1.1844
 6919TIP3    H242317   4.013   2.649   7.080  0.6270  1.0559 -1.2862
 6920TIP3   OH242318   6.047   1.410   8.663  0.1091 -0.0083 -0.0416
 6920TIP3    H142319   6.090   1.495   8.675  0.2213 -0.0921  0.1653
 6920TIP3    H242320   6.118   1.350   8.640  0.5039 -0.6270  2.4583
 6921TIP3   OH242321   5.225   5.151   0.753  0.1968  0.0589  0.7558
 6921TIP3    H142322   5.170   5.226   0.730  0.2875 -0.5768 -1.9601
 6921TIP3    H242323   5.165   5.076   0.748  0.8178 -0.4055 -0.1966
 6922TIP3   OH242324   6.596   3.627   1.647  0.1101  0.0330  0.8750
 6922TIP3    H142325   6.524   3.683   1.619 -0.6655 -1.5783 -0.4690
 6922TIP3    H242326   6.653   3.621   1.571  0.4807 -0.5477  1.1943
 6923TIP3   OH242327   2.490   4.181   2.140  0.2530 -0.3296  0.5865
 6923TIP3    H142328   2.419   4.119   2.158 -0.2004 -0.1994 -0.7091
 6923TIP3    H242329   2.569   4.134   2.167 -0.2707 -0.5823  1.7730
 6924TIP3   OH242330   4.440   1.809   7.746  0.7097  0.6396 -0.5942
 6924TIP3    H142331   4.488   1.862   7.810 -1.6900  2.2698 -0.0372
 6924TIP3    H242332   4.444   1.861   7.665 -1.0888  1.4250 -0.2178
 6925TIP3   OH242333   1.919   0.801   8.845  0.3861  0.2746  0.2116
 6925TIP3    H142334   1.975   0.752   8.785 -1.0423 -0.7887 -0.2894
 6925TIP3    H242335   1.906   0.743   8.920  0.0077  0.5380  0.3550
 6926TIP3   OH242336   4.328   5.114   8.048 -0.3073 -0.0334 -0.5565
 6926TIP3    H142337   4.302   5.122   8.140  0.6615  0.4798 -0.3180
 6926TIP3    H242338   4.309   5.023   8.026  0.4164 -0.4478  0.4590
 6927TIP3   OH242339   1.274   0.357   1.556 -0.0069  0.0062  0.4375
 6927TIP3    H142340   1.319   0.389   1.634 -0.5211 -0.1001  0.7817
 6927TIP3    H242341   1.309   0.410   1.485 -1.6745  2.1683  1.1187
 6928TIP3   OH242342   1.514   3.633   7.223 -0.2583  0.7052 -0.5576
 6928TIP3    H142343   1.550   3.698   7.283 -1.2128  2.6242 -1.9411
 6928TIP3    H242344   1.491   3.683   7.145 -3.9904 -0.6431 -0.5479
 6929TIP3   OH242345   6.569   2.957   8.073  0.6511  0.3427  0.1107
 6929TIP3    H142346   6.508   2.888   8.046 -1.4295  2.5354 -1.2096
 6929TIP3    H242347   6.603   2.926   8.157  0.9427 -2.8997 -1.0418
 6930TIP3   OH242348   2.454   5.388   2.126 -0.3727 -0.1597 -0.0798
 6930TIP3    H142349   2.506   5.311   2.152 -2.0840 -0.9861  1.1533
 6930TIP3    H242350   2.518   5.458   2.115  1.0793 -1.3467  0.4634
 6931TIP3   OH242351   3.289   3.415   0.313 -0.6613  0.1681  0.2577
 6931TIP3    H142352   3.313   3.409   0.220 -0.1256 -1.4223  0.4782
 6931TIP3    H242353   3.366   3.385   0.360 -0.7605  1.4003  1.2679
 6932TIP3   OH242354   1.098   3.340   8.106  0.4881 -0.0791  0.6449
 6932TIP3    H142355   1.078   3.288   8.183 -2.7116 -0.7634 -0.4717
 6932TIP3    H242356   1.113   3.275   8.037  2.2892  0.5271  0.4189
 6933TIP3   OH242357   5.628   3.476   7.770  0.2502  0.2369 -0.2481
 6933TIP3    H142358   5.616   3.411   7.701 -2.8160 -0.7388  1.0555
 6933TIP3    H242359   5.550   3.531   7.766  0.9566  1.4253  1.1811
 6934TIP3   OH242360   6.381   4.963   1.405 -0.0462 -0.3863  0.2414
 6934TIP3    H142361   6.469   4.988   1.435  0.3733  0.5392 -1.6502
 6934TIP3    H242362   6.338   5.046   1.383 -1.0321 -0.9031  0.1607
 6935TIP3   OH242363   2.928   2.833   2.040  0.2815 -0.2733  0.1103
 6935TIP3    H142364   2.999   2.813   1.979 -0.5288 -1.6770 -0.4238
 6935TIP3    H242365   2.969   2.829   2.127  1.1077  0.1926 -0.2467
 6936TIP3   OH242366   6.301   3.288   7.459 -0.7147 -0.3864  0.1621
 6936TIP3    H142367   6.282   3.305   7.551  0.4860  1.6533  0.0831
 6936TIP3    H242368   6.276   3.196   7.446 -3.3695 -0.0029  1.8170
 6937TIP3   OH242369   3.111   2.706   2.498  0.0998 -0.5671  0.3082
 6937TIP3    H142370   3.107   2.791   2.543 -3.7347 -0.4030 -0.0124
 6937TIP3    H242371   3.108   2.642   2.570 -0.1469 -0.3769  0.4717
 6938TIP3   OH242372   5.923   6.714   7.328 -0.2152  0.0767 -0.1488
 6938TIP3    H142373   5.924   6.790   7.270  2.2587 -0.9134 -1.5440
 6938TIP3    H242374   5.831   6.702   7.350 -0.8444  2.5411 -1.0873
 6939TIP3   OH242375   4.543   4.104   0.567  0.3295  0.3506  0.1169
 6939TIP3    H142376   4.475   4.154   0.521  0.4645  0.4468  0.0241
 6939TIP3    H242377   4.494   4.049   0.629  0.0374 -0.8138 -1.1051
 6940TIP3   OH242378   4.405   2.817   0.092 -0.3610  0.0949  0.4657
 6940TIP3    H142379   4.458   2.787   0.018  0.3078  0.4172  0.8026
 6940TIP3    H242380   4.352   2.741   0.115 -1.9253  0.5248 -1.4800
 6941TIP3   OH242381   6.160   4.478   1.356  0.5935  0.4703  0.3545
 6941TIP3    H142382   6.247   4.517   1.344  0.6383  0.5979  1.0431
 6941TIP3    H242383   6.099   4.547   1.334  0.6727  0.8026  1.1403
 6942TIP3   OH242384   3.541   4.492   8.847  0.3666 -0.5089  0.3237
 6942TIP3    H142385   3.600   4.514   8.775  0.3814  0.3513  0.5857
 6942TIP3    H242386   3.521   4.399   8.834  1.4358 -0.7114 -0.0126
 6943TIP3   OH242387   4.119   4.320   1.524  0.0445 -0.2490 -0.1113
 6943TIP3    H142388   4.104   4.396   1.580  0.2289 -0.8187  0.7196
 6943TIP3    H242389   4.213   4.318   1.510  0.1308 -0.7554  0.4965
 6944TIP3   OH242390   0.101   4.963   8.328 -0.2733  0.5968  0.3547
 6944TIP3    H142391   0.015   4.956   8.287 -0.8026  1.7221  1.2156
 6944TIP3    H242392   0.124   4.873   8.353 -0.5022  0.0686 -1.2134
 6945TIP3   OH242393   4.409   5.183   0.128  0.2227  0.2551  0.9720
 6945TIP3    H142394   4.476   5.229   0.078  0.5219 -0.4094  0.7396
 6945TIP3    H242395   4.337   5.245   0.137 -0.5311 -0.1203 -1.7083
 6946TIP3   OH242396   3.510   4.518   1.090 -0.0189 -0.1405 -0.3485
 6946TIP3    H142397   3.430   4.467   1.106 -0.9358  1.7707  1.6042
 6946TIP3    H242398   3.556   4.469   1.022 -1.4564 -2.8477  0.4775
 6947TIP3   OH242399   2.477   0.892   0.542  0.2809 -0.0708 -0.1256
 6947TIP3    H142400   2.449   0.805   0.510 -1.3586 -0.0138  1.0278
 6947TIP3    H242401   2.556   0.874   0.592  1.8396 -0.4159 -2.5532
 6948TIP3   OH242402   2.015   6.641   0.305  0.0145 -0.2693 -0.4756
 6948TIP3    H142403   2.051   6.585   0.373  1.2589  1.5618  0.4748
 6948TIP3    H242404   1.923   6.652   0.328  0.1133 -0.7380  0.1471
 6949TIP3   OH242405   3.770   4.559   0.507 -0.0558 -0.5784  0.1369
 6949TIP3    H142406   3.691   4.523   0.466 -0.7666  2.5155 -1.4811
 6949TIP3    H242407   3.841   4.507   0.471 -1.0892 -1.1484 -1.1516
 6950TIP3   OH242408   1.591   0.133   1.618 -0.2270  0.2718 -0.1851
 6950TIP3    H142409   1.665   0.080   1.590 -1.4106 -2.2594  1.1599
 6950TIP3    H242410   1.615   0.164   1.706 -1.0862 -1.4143  0.6940
 6951TIP3   OH242411   3.466   6.091   2.580  0.0750  0.3296  0.7163
 6951TIP3    H142412   3.415   6.069   2.657 -1.1946  1.0772  0.1218
 6951TIP3    H242413   3.525   6.161   2.608  0.2724 -0.0346  1.2217
 6952TIP3   OH242414   5.602   0.488   0.753  0.2526  0.2142  0.1540
 6952TIP3    H142415   5.570   0.426   0.687 -0.2730  1.3497 -0.7024
 6952TIP3    H242416   5.561   0.461   0.835  1.9030 -2.0053  0.3256
 6953TIP3   OH242417   1.257   1.989   7.006 -0.0163 -0.1100  0.1189
 6953TIP3    H142418   1.290   2.065   6.957 -1.0919  0.5977  0.4408
 6953TIP3    H242419   1.248   2.021   7.096 -3.2900  0.3910 -0.2528
 6954TIP3   OH242420   1.763   5.066   2.368  0.1342 -0.7646 -0.4757
 6954TIP3    H142421   1.746   5.094   2.278  0.5187 -3.2372 -1.4021
 6954TIP3    H242422   1.826   4.994   2.359  2.2871  0.6476  2.0093
 6955TIP3   OH242423   5.662   2.405   7.360 -0.4721 -0.0880  0.4507
 6955TIP3    H142424   5.587   2.458   7.332 -0.3423  0.4240  1.0549
 6955TIP3    H242425   5.677   2.344   7.287 -1.0124  0.2952  0.0121
 6956TIP3   OH242426   2.786   5.690   0.935 -0.1141  0.4338  0.4660
 6956TIP3    H142427   2.803   5.619   0.998  0.2198 -0.7086 -0.8637
 6956TIP3    H242428   2.798   5.649   0.849  1.5351  2.4486 -0.3511
 6957TIP3   OH242429   5.513   1.259   0.185  0.1205 -0.1132 -0.9054
 6957TIP3    H142430   5.546   1.310   0.111  1.3907  0.6210  0.1293
 6957TIP3    H242431   5.475   1.324   0.244 -3.1811 -0.9019 -1.9594
 6958TIP3   OH242432   5.112   2.854   2.090 -0.0886 -0.6261 -0.0998
 6958TIP3    H142433   5.141   2.781   2.034 -0.1448 -0.0344 -0.9272
 6958TIP3    H242434   5.126   2.823   2.179  1.6265 -0.9633 -0.4433
 6959TIP3   OH242435   6.073   4.613   0.300 -0.0920 -0.1035 -0.5245
 6959TIP3    H142436   6.119   4.547   0.352  2.2099 -0.0381 -2.3220
 6959TIP3    H242437   6.094   4.696   0.343 -0.1976 -0.2382 -0.2063
 6960TIP3   OH242438   6.036   2.887   1.223 -0.3128  0.2253 -0.0747
 6960TIP3    H142439   6.016   2.884   1.129 -0.0677  1.3825 -0.1816
 6960TIP3    H242440   5.950   2.892   1.265 -0.3940  1.5566 -0.3482
 6961TIP3   OH242441   1.471   1.213   2.062  0.4235 -0.0131 -0.1001
 6961TIP3    H142442   1.378   1.231   2.076 -0.1153 -2.2275 -0.4647
 6961TIP3    H242443   1.481   1.208   1.967  0.8937  0.1189 -0.0579
 6962TIP3   OH242444   4.879   6.237   0.163 -0.1849  0.0917 -0.0238
 6962TIP3    H142445   4.938   6.244   0.237 -1.7020 -1.6265  1.4442
 6962TIP3    H242446   4.926   6.184   0.099  0.3857 -0.1132  0.5613
 6963TIP3   OH242447   3.388   0.675   7.876  0.0299 -0.6611  0.1506
 6963TIP3    H142448   3.406   0.709   7.963  0.9822 -1.7005  0.3911
 6963TIP3    H242449   3.333   0.742   7.834  1.6045  1.0551  0.6704
 6964TIP3   OH242450   5.450   4.637   1.374 -0.3116  0.0416  0.2802
 6964TIP3    H142451   5.503   4.606   1.448 -1.2421  1.7803  1.7670
 6964TIP3    H242452   5.402   4.559   1.345  0.0742 -0.7024  1.5359
 6965TIP3   OH242453   1.152   6.513   2.255  0.3703  0.2836 -0.7620
 6965TIP3    H142454   1.200   6.457   2.194 -3.9216 -2.2497 -2.2113
 6965TIP3    H242455   1.172   6.477   2.341  0.7269 -0.9537 -1.3436
 6966TIP3   OH242456   2.888   2.266   8.845  0.5836 -0.1187  0.3332
 6966TIP3    H142457   2.982   2.278   8.862  0.1187  1.3960  2.1158
 6966TIP3    H242458   2.845   2.295   8.925 -1.4038 -1.7186 -0.0656
 6967TIP3   OH242459   1.769   3.717   1.455  0.4339 -0.2606  0.4146
 6967TIP3    H142460   1.864   3.713   1.454  0.4684  0.5339 -0.1505
 6967TIP3    H242461   1.747   3.781   1.388 -0.5115 -0.6295  0.3578
 6968TIP3   OH242462   2.412   4.219   1.319  0.0271 -0.2165 -0.1162
 6968TIP3    H142463   2.485   4.157   1.312  0.6133  0.5941 -1.7759
 6968TIP3    H242464   2.334   4.167   1.295  0.0659 -0.9941  1.3120
 6969TIP3   OH242465   3.777   3.806   0.926  0.7872  0.3118  0.1921
 6969TIP3    H142466   3.802   3.850   0.845  1.1311 -1.0854 -0.4697
 6969TIP3    H242467   3.819   3.858   0.995  1.0683  1.0961 -0.5526
 6970TIP3   OH242468   0.791   5.062   2.524 -0.5275  0.1419  0.2058
 6970TIP3    H142469   0.749   5.067   2.610  1.1985 -1.0520  1.1878
 6970TIP3    H242470   0.745   4.991   2.479 -2.2664  1.5887 -0.3955
 6971TIP3   OH242471   3.302   3.947   1.880  0.3274  0.1874 -0.2555
 6971TIP3    H142472   3.262   3.942   1.794  0.1209 -0.2057 -0.1364
 6971TIP3    H242473   3.258   4.021   1.923 -0.1183 -0.1069 -0.2029
 6972TIP3   OH242474   4.336   2.692   0.657 -1.0990  0.1850 -0.0960
 6972TIP3    H142475   4.385   2.687   0.575 -1.9887  1.1638 -0.7136
 6972TIP3    H242476   4.343   2.604   0.695 -4.1629 -1.6965 -3.2621
 6973TIP3   OH242477   5.906   3.412   8.851 -0.0407  0.3575 -0.0402
 6973TIP3    H142478   5.990   3.366   8.841 -0.4372 -0.2267 -0.8166
 6973TIP3    H242479   5.855   3.384   8.775 -0.7583  1.1041  0.1611
 6974TIP3   OH242480   1.195   4.104   1.590  0.7119 -0.3658 -0.2503
 6974TIP3    H142481   1.204   4.082   1.682  0.8391 -0.4062 -0.2727
 6974TIP3    H242482   1.122   4.050   1.559  0.3696 -0.0164 -0.0644
 6975TIP3   OH242483   2.511   2.209   8.419 -0.0283  0.3232 -0.4410
 6975TIP3    H142484   2.537   2.179   8.506 -0.9128 -2.4962 -1.0179
 6975TIP3    H242485   2.589   2.198   8.366  0.2088  0.9849 -0.2301
 6976TIP3   OH242486   5.428   6.387   1.257  0.4314 -0.4299 -0.1999
 6976TIP3    H142487   5.378   6.343   1.188 -0.2762 -2.1545  1.3277
 6976TIP3    H242488   5.376   6.373   1.336  1.8858  0.3182  0.9222
 6977TIP3   OH242489   6.438   1.166   1.108 -0.0686  0.0472 -0.1126
 6977TIP3    H142490   6.362   1.221   1.087 -0.6154 -0.8024 -0.3903
 6977TIP3    H242491   6.514   1.221   1.087 -0.5874  1.1451  0.7820
 6978TIP3   OH242492   5.663   3.897   1.316 -0.6834  0.2041 -0.3010
 6978TIP3    H142493   5.676   3.805   1.293  0.0359  0.8635 -2.9719
 6978TIP3    H242494   5.576   3.901   1.354 -0.8898 -1.5294 -0.5249
 6979TIP3   OH242495   3.329   1.331   2.112  0.2474 -0.3449  0.2007
 6979TIP3    H142496   3.319   1.422   2.140 -0.2553 -0.6218  0.9433
 6979TIP3    H242497   3.249   1.313   2.062  0.2317 -0.4543  0.2657
 6980TIP3   OH242498   4.674   6.202   8.189 -0.9469  0.0209 -0.4780
 6980TIP3    H142499   4.703   6.288   8.160 -3.3150  1.0313 -0.0987
 6980TIP3    H242500   4.751   6.146   8.179  1.6523  2.7323  2.0552
 6981TIP3   OH242501   3.027   3.257   0.716 -0.3378 -0.3346  0.5591
 6981TIP3    H142502   2.954   3.197   0.734 -0.4860 -0.4763 -0.4437
 6981TIP3    H242503   3.054   3.288   0.802  0.6976 -2.9442  1.2664
 6982TIP3   OH242504   6.694   5.449   8.490  0.0071 -0.0905  0.0924
 6982TIP3    H142505   6.627   5.461   8.422  0.7622  0.5644 -0.5684
 6982TIP3    H242506   6.676   5.363   8.527 -0.3172 -0.5440 -1.0781
 6983TIP3   OH242507   3.590   5.849   2.997 -0.0812 -0.6274  0.2245
 6983TIP3    H142508   3.650   5.836   3.070  0.5944 -0.3846 -0.2829
 6983TIP3    H242509   3.509   5.878   3.039 -0.3006 -2.2749  1.0321
 6984TIP3   OH242510   0.133   0.141   1.694  0.6251  0.6337  0.5007
 6984TIP3    H142511   0.063   0.104   1.746 -0.2979  0.3545 -0.8992
 6984TIP3    H242512   0.157   0.072   1.632  1.3432  1.1284  0.2116
 6985TIP3   OH242513   4.405   0.198   8.788 -0.2142 -0.6107  0.8259
 6985TIP3    H142514   4.424   0.197   8.694 -0.1415  1.2669  0.7816
 6985TIP3    H242515   4.435   0.113   8.819  0.2892 -1.0524 -0.7505
 6986TIP3   OH242516   6.584   1.082   8.214  0.1479 -0.0346 -0.0941
 6986TIP3    H142517   6.518   1.095   8.283 -0.6673  0.8279 -1.0187
 6986TIP3    H242518   6.535   1.048   8.140  0.5339  1.6929 -1.1832
 6987TIP3   OH242519   1.472   3.473   7.584 -0.1758  0.3487  0.3072
 6987TIP3    H142520   1.486   3.439   7.672 -1.9128  2.6117  1.5940
 6987TIP3    H242521   1.449   3.397   7.531  1.1627 -1.1007  1.7320
 6988TIP3   OH242522   2.230   0.728   2.142  0.1188 -0.4967  0.1849
 6988TIP3    H142523   2.174   0.663   2.099  0.1520 -0.3975 -0.0114
 6988TIP3    H242524   2.169   0.786   2.186  0.0526 -0.2753 -0.1892
 6989TIP3   OH242525   3.870   2.819   7.293 -0.3961 -0.3060  0.2682
 6989TIP3    H142526   3.961   2.793   7.276 -1.0628 -1.5031 -1.7641
 6989TIP3    H242527   3.821   2.788   7.217 -2.1800  2.2352  0.2472
 6990TIP3   OH242528   4.383   1.259   7.990 -0.3752 -0.9752 -0.3013
 6990TIP3    H142529   4.295   1.229   7.965 -0.1953 -0.1346 -2.0978
 6990TIP3    H242530   4.373   1.353   8.004  0.5465 -0.5370 -2.2741
 6991TIP3   OH242531   4.972   1.308   7.399  0.1663 -0.1078 -0.6662
 6991TIP3    H142532   5.050   1.300   7.344  0.2775  0.5688 -0.6130
 6991TIP3    H242533   4.899   1.313   7.337  0.2943  0.6879 -0.7574
 6992TIP3   OH242534   4.631   1.028   6.855  0.7850  0.1963 -0.1934
 6992TIP3    H142535   4.567   1.015   6.925 -0.3826  0.5814 -1.1548
 6992TIP3    H242536   4.703   0.968   6.877  0.0705 -0.3022  0.8761
 6993TIP3   OH242537   3.962   5.212   0.131  0.1568 -0.3735  0.2188
 6993TIP3    H142538   3.986   5.300   0.102 -0.0324 -0.1923  0.6112
 6993TIP3    H242539   3.982   5.211   0.224  1.7653 -1.3029 -0.1052
 6994TIP3   OH242540   0.451   0.445   1.528  0.3267  0.1172  0.0683
 6994TIP3    H142541   0.373   0.496   1.552 -0.8455 -0.8291 -1.5056
 6994TIP3    H242542   0.419   0.380   1.465  2.4035 -0.2987 -0.6490
 6995TIP3   OH242543   2.528   1.983   1.692 -0.1928 -0.0037  0.1780
 6995TIP3    H142544   2.546   1.891   1.713  0.3940  0.0441 -0.0922
 6995TIP3    H242545   2.612   2.027   1.705  0.0915  0.1186 -1.7916
 6996TIP3   OH242546   5.762   4.326   1.397 -0.0337  0.5782  0.5279
 6996TIP3    H142547   5.757   4.247   1.344  0.7079 -0.4040  1.8759
 6996TIP3    H242548   5.829   4.307   1.462 -0.8295  1.7901  1.7489
 6997TIP3   OH242549   0.574   2.995   2.358  0.0178 -0.6403  0.3578
 6997TIP3    H142550   0.551   2.946   2.436 -1.0826 -0.5566  0.1000
 6997TIP3    H242551   0.632   2.936   2.309  2.2897  0.0050  2.0626
 6998TIP3   OH242552   4.143   5.895   1.883  0.0579 -0.0612  0.0779
 6998TIP3    H142553   4.132   5.921   1.975  1.1069 -0.5362  0.3474
 6998TIP3    H242554   4.122   5.974   1.834 -1.4930 -0.0711  0.6716
 6999TIP3   OH242555   2.305   6.426   2.034 -0.0106  0.3251 -0.6179
 6999TIP3    H142556   2.385   6.376   2.045  0.3954  1.3298  1.4848
 6999TIP3    H242557   2.280   6.412   1.943  1.2028 -1.9615 -0.6678
 7000TIP3   OH242558   1.831   1.993   0.396  0.1719  0.2538  0.4898
 7000TIP3    H142559   1.815   2.035   0.312 -2.0670 -0.7050  0.3802
 7000TIP3    H242560   1.860   2.064   0.453  0.2592  1.1950 -0.6900
 7001TIP3   OH242561   2.283   0.824   2.514 -0.0954  0.5235 -0.2757
 7001TIP3    H142562   2.278   0.906   2.466 -0.0442  0.9168  0.3844
 7001TIP3    H242563   2.252   0.845   2.602 -0.6614 -0.3006 -0.2669
 7002TIP3   OH242564   4.552   3.709   0.380 -0.1530  0.3351  0.0695
 7002TIP3    H142565   4.625   3.744   0.330  1.5714  1.9032  3.3879
 7002TIP3    H242566   4.566   3.614   0.380  1.2768  0.5292 -0.2577
 7003TIP3   OH242567   5.530   5.071   0.603 -0.0583 -0.9304 -0.1455
 7003TIP3    H142568   5.470   5.072   0.529 -1.0503 -1.8600  0.6156
 7003TIP3    H242569   5.520   5.157   0.643 -0.6370 -0.9702 -0.2088
 7004TIP3   OH242570   1.283   5.997   0.801  0.0858 -0.0461  0.8293
 7004TIP3    H142571   1.198   6.034   0.823 -0.6297  0.7890 -2.7388
 7004TIP3    H242572   1.335   6.072   0.771  0.6065 -1.0883 -1.0122
 7005TIP3   OH242573   2.216   2.822   1.721  0.4948  0.1513  0.2227
 7005TIP3    H142574   2.215   2.813   1.626 -3.0361 -2.1276  0.3131
 7005TIP3    H242575   2.207   2.732   1.754  0.8336  0.9486  2.7097
 7006TIP3   OH242576   6.577   4.971   3.330 -0.2142  0.6377 -0.4462
 7006TIP3    H142577   6.585   4.887   3.285 -2.0869  1.3732 -2.3459
 7006TIP3    H242578   6.647   5.024   3.294  0.8932  0.0021  0.6639
 7007TIP3   OH242579   1.716   2.378   6.992  0.1569 -0.5951  0.0756
 7007TIP3    H142580   1.638   2.398   7.044  0.2930 -0.8268  0.3776
 7007TIP3    H242581   1.757   2.463   6.976 -1.1038 -0.2535 -1.6397
 7008TIP3   OH242582   4.317   2.666   1.414  0.1768 -0.1833  0.1017
 7008TIP3    H142583   4.247   2.729   1.434  1.1500  0.9161  0.1833
 7008TIP3    H242584   4.355   2.698   1.332  2.7591  1.2919  1.7069
 7009TIP3   OH242585   1.908   5.192   7.786  0.1842 -0.0922 -0.3376
 7009TIP3    H142586   1.852   5.241   7.846  1.3881 -0.5628  1.2639
 7009TIP3    H242587   1.863   5.108   7.773  1.7277 -1.7696  3.4206
 7010TIP3   OH242588   0.115   2.217   2.142 -0.2730 -0.0894  0.2439
 7010TIP3    H142589   0.079   2.189   2.226 -0.5408 -0.1855  0.0977
 7010TIP3    H242590   0.146   2.306   2.157  0.7372 -0.5126  0.7565
 7011TIP3   OH242591   6.474   4.432   8.774 -0.3876 -0.0915  1.0095
 7011TIP3    H142592   6.424   4.512   8.760  1.1738  0.6300 -0.8427
 7011TIP3    H242593   6.478   4.390   8.688  2.8218  0.3500  0.7981
 7012TIP3   OH242594   1.440   6.331   2.529  0.2643 -0.3821  0.7754
 7012TIP3    H142595   1.450   6.410   2.582  0.4753 -1.4497  2.4078
 7012TIP3    H242596   1.345   6.320   2.519  0.2382  0.1334  0.4255
 7013TIP3   OH242597   2.423   1.933   2.950 -0.0238 -0.3855  0.0323
 7013TIP3    H142598   2.426   1.837   2.958 -1.3625 -0.4609 -0.1133
 7013TIP3    H242599   2.330   1.953   2.941  0.4099  0.7027 -3.0166
 7014TIP3   OH242600   3.433   5.888   8.116 -0.2021  0.0093 -0.0236
 7014TIP3    H142601   3.526   5.866   8.124 -0.7053 -2.1823  0.4681
 7014TIP3    H242602   3.399   5.824   8.053 -1.9745 -1.2521  2.0994
 7015TIP3   OH242603   5.631   1.801   7.926  0.3739 -0.2205 -0.4385
 7015TIP3    H142604   5.566   1.798   7.996  1.2565 -0.8950  0.3865
 7015TIP3    H242605   5.589   1.757   7.852 -0.6689  0.7389 -0.4368
 7016TIP3   OH242606   1.633   0.525   1.427  0.3579 -0.0917  0.1077
 7016TIP3    H142607   1.574   0.588   1.386  1.3926 -0.0419 -1.3490
 7016TIP3    H242608   1.637   0.553   1.519  0.8678  2.0378 -0.5138
 7017TIP3   OH242609   2.873   5.032   0.852  0.2424 -0.7302  0.1944
 7017TIP3    H142610   2.880   4.938   0.838  0.8404 -0.4058 -2.0406
 7017TIP3    H242611   2.786   5.044   0.890  0.5211 -2.2319  1.4321
 7018TIP3   OH242612   2.230   1.810   8.740 -0.0344 -0.6186 -0.3946
 7018TIP3    H142613   2.259   1.821   8.650  0.0621 -1.5619 -0.4915
 7018TIP3    H242614   2.215   1.715   8.749 -2.9876 -0.2445 -0.3265
 7019TIP3   OH242615   2.783   4.855   2.968 -0.0787  0.0730 -0.6269
 7019TIP3    H142616   2.750   4.944   2.957  1.3869  0.9002  1.1244
 7019TIP3    H242617   2.871   4.857   2.928  0.1014 -0.4933 -0.2634
 7020TIP3   OH242618   2.825   2.686   8.310  0.1855  0.4028  0.2589
 7020TIP3    H142619   2.773   2.641   8.243  1.1695 -1.8161  0.8934
 7020TIP3    H242620   2.761   2.735   8.362 -1.0581 -0.8019 -0.0937
 7021TIP3   OH242621   1.914   0.346   8.866 -0.6457  0.2342  0.2264
 7021TIP3    H142622   1.887   0.309   8.950 -1.5878  0.4686  0.0470
 7021TIP3    H242623   1.987   0.404   8.887  0.9509 -1.7700  0.5075
 7022TIP3   OH242624   1.817   5.894   0.140 -0.1151 -0.3144 -0.2281
 7022TIP3    H142625   1.801   5.965   0.202 -0.6503 -0.1016 -0.6017
 7022TIP3    H242626   1.730   5.867   0.111  0.0763 -1.1657 -0.0472
 7023TIP3   OH242627   1.672   1.248   8.182 -0.0807  0.6519  0.1133
 7023TIP3    H142628   1.738   1.205   8.127 -1.9893 -3.8507  0.9068
 7023TIP3    H242629   1.690   1.215   8.270 -2.0573  0.9907  0.6901
 7024TIP3   OH242630   3.195   6.587   2.334 -0.2745 -0.1677  0.1535
 7024TIP3    H142631   3.264   6.526   2.309 -1.3139 -0.6727 -1.6392
 7024TIP3    H242632   3.182   6.571   2.428  0.2360 -1.9340 -0.0337
 7025TIP3   OH242633   4.940   2.573   1.842 -0.0979  0.1957  0.2352
 7025TIP3    H142634   4.846   2.557   1.832 -0.0835  0.4191 -0.3105
 7025TIP3    H242635   4.982   2.497   1.801 -0.0421  0.5133 -0.3133
 7026TIP3   OH242636   6.082   2.746   0.018  0.1915  0.0540 -0.4826
 7026TIP3    H142637   5.990   2.740  -0.008 -0.0880  1.8493 -0.0401
 7026TIP3    H242638   6.086   2.702   0.103 -1.0558  2.9071  1.1939
 7027TIP3   OH242639   5.455   5.562   8.023  0.4407 -0.8897  0.0577
 7027TIP3    H142640   5.518   5.601   8.084 -0.7083 -2.0041  2.0586
 7027TIP3    H242641   5.465   5.467   8.036 -0.4601 -1.1269 -0.8627
 7028TIP3   OH242642   5.568   5.725   0.752 -0.5495 -0.1999 -0.0298
 7028TIP3    H142643   5.577   5.716   0.657 -1.4637 -0.8009 -0.0755
 7028TIP3    H242644   5.566   5.635   0.784 -1.9218 -0.0414  0.3740
 7029TIP3   OH242645   0.591   5.860   2.789 -0.0772  0.2631 -0.3838
 7029TIP3    H142646   0.563   5.931   2.732 -1.4811  0.8763  0.9979
 7029TIP3    H242647   0.542   5.873   2.870  1.4631 -0.8575  0.8057
 7030TIP3   OH242648   2.575   5.310   1.031 -0.3652 -0.2965 -0.5962
 7030TIP3    H142649   2.520   5.372   1.078  0.1919  0.2731 -0.6748
 7030TIP3    H242650   2.664   5.341   1.046 -0.0666 -1.1381 -0.5617
 7031TIP3   OH242651   0.387   2.399   8.302  0.2405 -0.2593 -0.0111
 7031TIP3    H142652   0.421   2.315   8.332  0.4284  0.0173  0.5604
 7031TIP3    H242653   0.345   2.380   8.218  1.3344 -0.7017 -0.4763
 7032TIP3   OH242654   5.242   5.361   0.984 -0.1527 -0.0759  0.4164
 7032TIP3    H142655   5.267   5.417   0.910 -0.0405 -0.3119  0.2741
 7032TIP3    H242656   5.315   5.300   0.993  0.1714  0.4015  1.1821
 7033TIP3   OH242657   5.038   6.195   1.110  0.5531  1.1346  0.3170
 7033TIP3    H142658   5.018   6.234   1.195  0.2379 -0.9809  1.2905
 7033TIP3    H242659   4.954   6.192   1.064  0.3181  0.4637  0.7698
 7034TIP3   OH242660   4.823   5.785   0.700  0.1795 -0.3715 -0.3599
 7034TIP3    H142661   4.906   5.827   0.679 -0.5902  0.5708 -1.7144
 7034TIP3    H242662   4.823   5.779   0.795  1.0982  1.1280 -0.2223
 7035TIP3   OH242663   4.205   6.271   2.303 -0.4754  0.1018  0.0165
 7035TIP3    H142664   4.130   6.211   2.309  0.1593 -0.8789 -1.2499
 7035TIP3    H242665   4.271   6.231   2.359 -1.1250  1.3913  1.7743
 7036TIP3   OH242666   4.851   0.302   7.725  0.3077 -0.2889 -0.6685
 7036TIP3    H142667   4.871   0.365   7.656 -2.8516  0.2626 -1.2544
 7036TIP3    H242668   4.826   0.222   7.678  1.0548 -0.9078 -0.0398
 7037TIP3   OH242669   0.749   0.706   2.627  0.4444  0.5164  0.3385
 7037TIP3    H142670   0.754   0.738   2.717 -0.4285  0.8937  0.2546
 7037TIP3    H242671   0.736   0.785   2.574  1.5831  0.3694 -0.1876
 7038TIP3   OH242672   2.031   1.822   1.463 -0.7204 -0.0441  0.0437
 7038TIP3    H142673   2.066   1.907   1.436  0.7191 -0.8512 -0.7193
 7038TIP3    H242674   1.982   1.791   1.387  0.3441 -0.7238 -0.3808
 7039TIP3   OH242675   5.215   5.891   8.321 -0.7836 -0.2763  0.4508
 7039TIP3    H142676   5.201   5.812   8.268 -2.5153  1.0626 -1.2608
 7039TIP3    H242677   5.230   5.960   8.256  1.7684  0.6601  1.9332
 7040TIP3   OH242678   5.197   2.850   1.619  0.3023 -0.1512  0.4658
 7040TIP3    H142679   5.117   2.874   1.665 -1.1610 -0.9266 -1.5336
 7040TIP3    H242680   5.169   2.789   1.551  2.8117 -1.5659  0.5701
 7041TIP3   OH242681   4.563   0.872   8.569  0.1147  0.3552  0.4270
 7041TIP3    H142682   4.532   0.791   8.608 -0.0580  0.2404  0.0584
 7041TIP3    H242683   4.656   0.856   8.552  0.0973  0.2585  0.4184
 7042TIP3   OH242684   1.325   5.081   2.582  0.2707  0.3048  0.0698
 7042TIP3    H142685   1.311   5.054   2.673 -0.4099 -0.6129 -0.2856
 7042TIP3    H242686   1.239   5.111   2.553 -0.0835 -1.5509 -0.9341
 7043TIP3   OH242687   4.408   4.958   2.567 -0.6372  0.1680  0.2551
 7043TIP3    H142688   4.493   4.914   2.562  0.5817  2.3408  0.6037
 7043TIP3    H242689   4.411   5.005   2.649 -1.8724  0.9196 -0.1145
 7044TIP3   OH242690   1.760   5.354   0.442  0.7224 -0.2288 -0.3286
 7044TIP3    H142691   1.770   5.314   0.355  0.1138  0.2648 -0.6345
 7044TIP3    H242692   1.750   5.448   0.424 -1.9603 -0.3488  0.0440
 7045TIP3   OH242693   3.472   3.922   8.477 -0.0810 -0.0167  0.0663
 7045TIP3    H142694   3.461   3.835   8.516  0.4523 -0.2843 -0.3713
 7045TIP3    H242695   3.505   3.977   8.548 -0.9952 -0.0151  0.5079
 7046TIP3   OH242696   1.910   0.762   1.634 -0.5117  0.0137 -0.5147
 7046TIP3    H142697   1.963   0.841   1.643 -1.4154  0.6160 -0.3927
 7046TIP3    H242698   1.949   0.700   1.696  0.2593  0.3240 -0.6747
 7047TIP3   OH242699   2.443   1.221   0.753 -0.3193  0.6962  0.2152
 7047TIP3    H142700   2.390   1.300   0.746 -0.5729  0.6069  0.9580
 7047TIP3    H242701   2.513   1.232   0.689  0.8077  2.4453  1.6458
 7048TIP3   OH242702   0.598   1.768   1.112  0.1525  0.0410 -0.7020
 7048TIP3    H142703   0.549   1.813   1.181 -0.5244 -1.2951 -0.2704
 7048TIP3    H242704   0.676   1.822   1.098 -2.4129  3.5993 -3.0757
 7049TIP3   OH242705   1.653   5.205   0.071  0.5453 -0.1297  0.1396
 7049TIP3    H142706   1.599   5.263   0.125  0.6972 -0.8797  1.1382
 7049TIP3    H242707   1.598   5.128   0.057  0.5330  0.0283 -0.7500
 7050TIP3   OH242708   0.576   6.612   8.774 -0.6812 -0.0605  0.1519
 7050TIP3    H142709   0.550   6.674   8.841  0.4074  1.5735 -0.8642
 7050TIP3    H242710   0.586   6.528   8.820  0.3380  1.0597  2.0886
 7051TIP3   OH242711   4.265   5.950   8.280  0.0701  0.3757  0.6755
 7051TIP3    H142712   4.263   5.911   8.193 -2.3386  0.4710  0.6093
 7051TIP3    H242713   4.285   5.877   8.339  1.1847  0.2093  0.1197
 7052TIP3   OH242714   1.219   4.328   0.561  0.1429 -0.0077  0.2541
 7052TIP3    H142715   1.302   4.369   0.586  0.2004  0.6521 -0.9433
 7052TIP3    H242716   1.243   4.241   0.529  0.4583  0.3648 -0.5648
 7053TIP3   OH242717   2.369   5.492   6.752  0.5619 -0.0929  0.4962
 7053TIP3    H142718   2.390   5.571   6.803  0.2589  0.0027  0.4765
 7053TIP3    H242719   2.396   5.420   6.808  0.7172  0.0228  0.5725
 7054TIP3   OH242720   6.612   4.165   1.717 -0.3794  0.0217  0.0671
 7054TIP3    H142721   6.679   4.200   1.775 -1.0216  0.2643  0.6761
 7054TIP3    H242722   6.650   4.085   1.681  0.7139  0.7863 -0.5490
 7055TIP3   OH242723   0.807   6.437   0.058 -0.0740  0.1688 -0.2746
 7055TIP3    H142724   0.731   6.411   0.110 -0.7995  1.3886 -0.6888
 7055TIP3    H242725   0.832   6.522   0.093  0.4198  0.2716 -0.8702
 7056TIP3   OH242726   5.428   0.775   0.354 -0.3845 -0.1724  0.1763
 7056TIP3    H142727   5.379   0.725   0.289  0.1082  0.0888 -0.4002
 7056TIP3    H242728   5.407   0.866   0.335 -0.0934 -0.0848  0.2688
 7057TIP3   OH242729   5.138   5.951   2.666  0.2181 -0.1676  0.0572
 7057TIP3    H142730   5.053   5.944   2.710  1.1373 -0.3952  1.8998
 7057TIP3    H242731   5.161   5.861   2.643  0.6896 -0.3148  1.0602
 7058TIP3   OH242732   2.248   1.152   1.773  0.1551 -0.2588 -0.4717
 7058TIP3    H142733   2.325   1.195   1.810  0.7918 -1.3481 -0.5031
 7058TIP3    H242734   2.269   1.059   1.774 -1.0325 -0.5497 -0.7891
 7059TIP3   OH242735   4.875   6.717   3.100 -0.1470  0.2041  0.6517
 7059TIP3    H142736   4.781   6.704   3.089 -0.0045  0.1696 -0.7693
 7059TIP3    H242737   4.887   6.812   3.094  0.2160  0.0843 -2.7774
 7060TIP3   OH242738   2.880   5.881   0.671 -0.7261 -0.3036  0.1978
 7060TIP3    H142739   2.813   5.902   0.735  1.3210  0.3343  2.2692
 7060TIP3    H242740   2.885   5.785   0.672 -2.5924 -0.4742 -1.1589
 7061TIP3   OH242741   2.142   3.935   0.958 -0.2408  0.4744  0.1430
 7061TIP3    H142742   2.078   3.909   0.891 -1.2778  0.5093  1.0980
 7061TIP3    H242743   2.220   3.883   0.937 -0.4879  0.5917 -1.1723
 7062TIP3   OH242744   4.922   5.082   2.588  0.0290  0.4155 -0.1530
 7062TIP3    H142745   4.962   5.153   2.639 -2.6151  1.0018  1.3032
 7062TIP3    H242746   4.887   5.023   2.654 -0.0844 -0.8955 -1.3523
 7063TIP3   OH242747   0.055   2.200   7.229  0.1356 -0.1128  0.2143
 7063TIP3    H142748   0.017   2.132   7.284 -4.4576  2.1285  0.2779
 7063TIP3    H242749  -0.011   2.218   7.163  2.0561  2.7937 -1.1637
 7064LIG     O142750   3.445   1.806   0.678  0.2680  0.7964 -0.2664
 7064LIG     O242751   3.243   1.919   0.276  0.3749  0.0589 -0.7962
 7064LIG     N142752   3.361   1.722   0.282 -0.1212  0.1659 -0.1130
 7064LIG     N242753   3.540   1.556   0.543  0.0033 -0.2385 -0.1085
 7064LIG     N342754   3.331   1.860   0.483  0.5146  0.6771  0.2902
 7064LIG     N442755   3.484   1.513   0.330  0.3385  0.0789 -0.5348
 7064LIG     C142756   3.467   1.668   0.494 -0.3174 -0.2339 -0.6975
 7064LIG     C242757   3.437   1.636   0.361  0.4998  0.0043 -0.2200
 7064LIG     C342758   3.416   1.778   0.561  0.2888  0.9637 -0.2809
 7064LIG     C442759   3.313   1.839   0.343 -0.4736  0.1680  0.0013
 7064LIG     C542760   3.542   1.464   0.445 -0.5800 -0.8230  0.2508
 7064LIG     C642761   3.351   1.704   0.137  0.3054 -0.2913 -0.3527
 7064LIG     C742762   3.590   1.540   0.680 -0.3729  0.2115  0.2099
 7064LIG     C842763   3.265   1.981   0.540  0.0093  0.0671 -0.4514
 7064LIG     H142764   3.598   1.371   0.457  1.5029  0.3489  0.1210
 7064LIG     H242765   3.246   1.726   0.109  0.5309  1.3590 -0.0146
 7064LIG     H342766   3.386   1.605   0.102  1.2898  0.5040 -1.7079
 7064LIG     H442767   3.407   1.786   0.088 -1.5077  1.5868  0.5447
 7064LIG     H542768   3.506   1.548   0.752 -0.9070 -3.3710  0.1784
 7064LIG     H642769   3.675   1.611   0.692 -0.8059  1.1581 -1.9369
 7064LIG     H742770   3.628   1.436   0.695 -0.3233  0.3608  1.2024
 7064LIG     H842771   3.155   1.981   0.521 -0.0342 -1.1398 -0.2778
 7064LIG     H942772   3.309   2.075   0.502 -0.1094 -0.1341 -1.0949
 7064LIG    H1042773   3.273   1.984   0.651 -1.2941  1.0387 -0.3536
   6.78904   6.78904   8.88133
