Title
42773
    1SAPS     N    1   5.071   3.896   7.495 -0.2180  0.0939  0.1324
    1SAPS   HN1    2   5.139   3.892   7.574 -0.5484 -0.0626  0.4118
    1SAPS   HN2    3   5.032   3.801   7.479  0.8726 -0.1938 -1.0074
    1SAPS   HN3    4   5.115   3.924   7.405  0.4646 -0.9323  0.1205
    1SAPS   C12    5   4.966   3.992   7.530  0.1565  0.2067 -0.0567
    1SAPS  H12A    6   4.905   3.988   7.441  2.0819 -0.7050 -1.4163
    1SAPS   C13    7   4.888   3.947   7.653  0.6298 -0.1665  0.0816
    1SAPS  O13A    8   4.918   3.841   7.713  0.9262 -0.1451 -0.2799
    1SAPS  O13B    9   4.793   4.022   7.684 -0.3775 -1.5365 -0.1538
    1SAPS   C11   10   5.041   4.129   7.545  0.4729 -0.5470  0.0879
    1SAPS  H11A   11   5.113   4.122   7.629 -1.8995  0.7393  2.3453
    1SAPS  H11B   12   4.968   4.210   7.564 -0.3173 -0.2290 -3.5396
    1SAPS     P   13   5.168   4.297   7.392 -0.0929  0.2083 -0.1481
    1SAPS   O13   14   5.159   4.377   7.519 -0.5971 -0.3267 -0.1525
    1SAPS   O14   15   5.304   4.274   7.344  0.1990 -0.6167  0.3880
    1SAPS   O12   16   5.099   4.158   7.419 -0.0443  0.1226  0.0672
    1SAPS   O11   17   5.088   4.364   7.278  0.0571  0.1672 -0.0187
    1SAPS    C1   18   4.967   4.319   7.219 -0.6209 -0.2063 -0.2790
    1SAPS    HA   19   4.901   4.260   7.286 -1.0494 -0.1254 -0.6293
    1SAPS    HB   20   4.915   4.405   7.173 -1.6365 -0.9212 -0.4803
    1SAPS    C2   21   5.001   4.224   7.099  0.5592 -0.2914  0.1688
    1SAPS    HS   22   5.033   4.128   7.144 -0.2656 -0.2067  0.9534
    1SAPS   O21   23   5.105   4.283   7.014 -0.0353  0.4865 -0.1512
    1SAPS   C21   24   5.174   4.196   6.940  0.7030 -0.4768 -0.2966
    1SAPS   O22   25   5.177   4.077   6.967 -0.1824 -0.0650  0.1388
    1SAPS   C22   26   5.234   4.263   6.821 -0.7405  0.0513 -0.0859
    1SAPS   H2R   27   5.149   4.275   6.751 -1.3834 -2.7356  0.1317
    1SAPS   H2S   28   5.267   4.361   6.861 -1.0003  0.2264 -0.2947
    1SAPS    C3   29   4.866   4.194   7.032  0.3741  0.3467  0.3993
    1SAPS    HX   30   4.789   4.169   7.109 -1.5567 -1.1706 -1.8765
    1SAPS    HY   31   4.878   4.107   6.964  0.6896  0.0003  0.8889
    1SAPS   O31   32   4.807   4.308   6.969 -0.3544  0.1927  0.5990
    1SAPS   C31   33   4.852   4.327   6.845  0.3540 -0.6472  0.0440
    1SAPS   O32   34   4.909   4.240   6.781 -0.3182  0.3858  0.2332
    1SAPS   C32   35   4.800   4.461   6.791  0.2999  0.4430  0.4500
    1SAPS   H2X   36   4.830   4.542   6.861  0.5481  0.9958 -0.2790
    1SAPS   H2Y   37   4.694   4.452   6.757  0.2788 -3.7291  1.0577
    1SAPS   C23   38   5.346   4.174   6.758  0.6240  0.0960  0.0339
    1SAPS   H3R   39   5.301   4.087   6.706 -1.0551  0.7888  0.2868
    1SAPS   H3S   40   5.412   4.146   6.843 -1.1418 -0.7163  1.1734
    1SAPS   C24   41   5.423   4.273   6.661  0.4233 -0.1725  0.0684
    1SAPS   H4R   42   5.510   4.223   6.613  1.5777 -0.2981  2.1832
    1SAPS   H4S   43   5.471   4.353   6.721 -0.5810 -1.1750  2.3058
    1SAPS   C25   44   5.341   4.349   6.562 -0.1522  0.3203 -0.6033
    1SAPS   H5R   45   5.328   4.452   6.596  0.1267  0.3402 -0.5544
    1SAPS   C26   46   5.309   4.301   6.443 -0.1059 -0.1409 -0.1085
    1SAPS   H6R   47   5.244   4.371   6.388  0.0600 -0.7869 -1.1412
    1SAPS   C27   48   5.320   4.166   6.381 -0.1808  0.3620 -0.0333
    1SAPS   H7R   49   5.223   4.131   6.339  0.5141  0.1028 -1.4536
    1SAPS   H7S   50   5.347   4.093   6.460 -1.3937 -1.9233 -1.6159
    1SAPS   C28   51   5.425   4.154   6.273  0.0213  0.3708  0.3304
    1SAPS   H8R   52   5.524   4.198   6.296 -0.5173  1.9769 -0.2364
    1SAPS   C29   53   5.408   4.121   6.144  0.6202 -0.3847  0.5053
    1SAPS   H9R   54   5.497   4.145   6.084 -1.6242  3.5194 -1.6890
    1SAPS  C210   55   5.285   4.074   6.070  0.5069 -0.6927 -0.2874
    1SAPS  H10R   56   5.216   4.034   6.147 -1.2823  2.2693 -0.1930
    1SAPS  H10S   57   5.306   3.992   5.998 -1.2085 -1.7258  0.3213
    1SAPS  C211   58   5.215   4.195   6.003 -0.4421 -0.9050  0.9621
    1SAPS  H11R   59   5.156   4.273   6.054  0.0017  0.8481 -1.0321
    1SAPS  C212   60   5.200   4.200   5.873 -0.0321  0.0437 -0.3562
    1SAPS  H12R   61   5.159   4.292   5.830 -0.9797 -0.8271 -1.3916
    1SAPS  C213   62   5.267   4.111   5.768  0.1309 -0.2041 -0.0332
    1SAPS  H13R   63   5.205   4.121   5.677 -2.1495 -0.0463  1.4624
    1SAPS  H13S   64   5.235   4.008   5.791  1.5838 -0.3655  1.4864
    1SAPS  C214   65   5.421   4.117   5.754  0.5727 -0.3695 -0.2854
    1SAPS  H14R   66   5.477   4.110   5.848  0.0328 -2.4400 -0.0766
    1SAPS  C215   67   5.493   4.103   5.640  0.3630 -0.0016 -0.6755
    1SAPS  H15R   68   5.603   4.103   5.645  0.3617 -0.2145 -0.6765
    1SAPS  C216   69   5.440   4.097   5.502  0.2280  0.4233 -0.1514
    1SAPS  H16R   70   5.331   4.116   5.497  0.1866  0.5972  1.0988
    1SAPS  H16S   71   5.456   3.993   5.466 -1.6307  0.1087 -0.1628
    1SAPS  C217   72   5.516   4.186   5.402  0.3264  0.2241  0.2000
    1SAPS  H17R   73   5.621   4.150   5.409  0.7526  1.3777 -0.0419
    1SAPS  H17S   74   5.529   4.292   5.431  0.4123  0.8482 -1.9819
    1SAPS  C218   75   5.466   4.172   5.256 -0.2022  0.1735 -0.2392
    1SAPS  H18R   76   5.402   4.262   5.245  0.1162  0.8860  2.7334
    1SAPS  H18S   77   5.419   4.071   5.254 -0.0956  0.0427  1.8518
    1SAPS  C219   78   5.583   4.170   5.149 -0.6778 -0.1421 -0.7039
    1SAPS  H19R   79   5.532   4.159   5.051 -1.4381 -0.2287 -0.3015
    1SAPS  H19S   80   5.650   4.082   5.162 -0.5045 -0.1267 -1.4621
    1SAPS  C220   81   5.677   4.292   5.145  0.3698 -0.2147  0.1911
    1SAPS  H20R   82   5.729   4.294   5.047 -2.2418 -0.1433 -1.2855
    1SAPS  H20S   83   5.756   4.286   5.222 -0.4630 -0.4689  1.0522
    1SAPS  H20T   84   5.621   4.385   5.170  0.9144 -0.3843  2.2080
    1SAPS   C33   85   4.878   4.509   6.657 -0.4975 -0.2422  0.1697
    1SAPS   H3X   86   4.988   4.494   6.670 -0.9153 -2.2611  1.9076
    1SAPS   H3Y   87   4.851   4.615   6.636  1.5772  0.1256 -0.9752
    1SAPS   C34   88   4.832   4.434   6.534 -0.3808 -0.3011  0.3908
    1SAPS   H4X   89   4.722   4.425   6.549 -0.4955  0.1854 -0.1378
    1SAPS   H4Y   90   4.881   4.335   6.525 -1.0470 -0.5882 -0.1704
    1SAPS   C35   91   4.847   4.505   6.399  0.1162  0.6026  0.0491
    1SAPS   H5X   92   4.955   4.490   6.377 -0.3864 -0.0928 -2.2174
    1SAPS   H5Y   93   4.827   4.614   6.404 -0.5067  0.5445 -0.8300
    1SAPS   C36   94   4.766   4.425   6.297  0.5206 -0.0990  0.1201
    1SAPS   H6X   95   4.673   4.483   6.278  0.4308  0.4552  2.0584
    1SAPS   H6Y   96   4.755   4.315   6.308 -1.3027 -0.3192 -2.6493
    1SAPS   C37   97   4.825   4.435   6.153 -0.8498 -0.5779 -0.5209
    1SAPS   H7X   98   4.915   4.373   6.171 -0.2468  0.6137  0.7495
    1SAPS   H7Y   99   4.849   4.541   6.130 -3.0024  0.6258  2.1556
    1SAPS   C38  100   4.743   4.375   6.041  1.0237 -0.5770 -0.3805
    1SAPS   H8X  101   4.645   4.428   6.041  1.7120  0.8921 -2.8469
    1SAPS   H8Y  102   4.725   4.271   6.075 -0.4661 -0.7184 -1.5114
    1SAPS   C39  103   4.808   4.376   5.902 -0.4642  0.0245  0.2521
    1SAPS   H9X  104   4.909   4.334   5.919 -0.7782 -0.8872 -0.0472
    1SAPS   H9Y  105   4.814   4.480   5.865  0.0649 -0.8428 -2.3225
    1SAPS  C310  106   4.724   4.302   5.796  0.4957 -0.0737 -0.2722
    1SAPS  H10X  107   4.627   4.352   5.775  0.4049 -0.6316 -1.2664
    1SAPS  H10Y  108   4.701   4.199   5.831 -2.4616 -0.1636 -2.1114
    1SAPS  C311  109   4.817   4.296   5.675 -0.1313 -0.5510  0.6428
    1SAPS  H11X  110   4.912   4.252   5.712  1.6991  2.7096  0.1926
    1SAPS  H11Y  111   4.843   4.398   5.639 -1.5675 -0.0967  0.8074
    1SAPS  C312  112   4.766   4.214   5.561 -0.2634 -0.1431  0.0048
    1SAPS  H12X  113   4.693   4.276   5.506  0.4238  1.3381  0.7071
    1SAPS  H12Y  114   4.732   4.112   5.588  0.3495 -0.3358  0.0693
    1SAPS  C313  115   4.892   4.216   5.465 -0.0914  0.5726  0.2608
    1SAPS  H13X  116   4.976   4.163   5.514  1.0445  0.3024 -1.8644
    1SAPS  H13Y  117   4.928   4.319   5.445  1.1016 -0.3376 -3.0004
    1SAPS  C314  118   4.857   4.142   5.331  0.3690  0.1389 -1.2922
    1SAPS  H14X  119   4.797   4.217   5.275  0.0030 -0.0720 -1.1865
    1SAPS  H14Y  120   4.803   4.045   5.340  0.5290  0.0209 -1.6037
    1SAPS  C315  121   4.990   4.108   5.258 -0.7054  0.6527 -0.0221
    1SAPS  H15X  122   5.051   4.037   5.318  1.5155 -0.5213 -3.3680
    1SAPS  H15Y  123   5.052   4.201   5.254  0.3167  0.0079  0.4935
    1SAPS  C316  124   4.967   4.066   5.114  0.3156  0.6276 -0.1841
    1SAPS  H16X  125   4.911   4.144   5.058  0.1501  0.2299 -0.5748
    1SAPS  H16Y  126   4.896   3.981   5.117  0.7690  0.2220 -0.7672
    1SAPS  C317  127   5.103   4.021   5.056 -0.1229  0.3091 -0.5730
    1SAPS  H17X  128   5.144   3.942   5.122 -1.0696 -0.1414 -0.5021
    1SAPS  H17Y  129   5.183   4.098   5.061 -0.2681  0.6278 -2.5962
    1SAPS  C318  130   5.087   3.975   4.906 -0.7338  0.2038 -0.8988
    1SAPS  H18X  131   5.084   4.070   4.849 -0.1257 -0.0497 -1.3658
    1SAPS  H18Y  132   4.998   3.912   4.885 -0.7447 -0.1272  0.0990
    1SAPS  H18Z  133   5.182   3.924   4.881 -1.8837 -1.9044 -1.1794
    2SAPS     N  134   2.413   1.615   7.445  0.3381  0.2584  0.0398
    2SAPS   HN1  135   2.382   1.517   7.434 -1.0463  0.6347  0.3307
    2SAPS   HN2  136   2.347   1.657   7.514 -0.5693 -1.1951  0.1069
    2SAPS   HN3  137   2.401   1.656   7.350  2.8090 -1.6249 -1.1887
    2SAPS   C12  138   2.555   1.649   7.495 -0.1411 -0.2196  0.5804
    2SAPS  H12A  139   2.550   1.741   7.551 -0.9579 -1.6313  2.9881
    2SAPS   C13  140   2.615   1.553   7.596 -0.7261 -0.9055 -0.3264
    2SAPS  O13A  141   2.563   1.445   7.616 -0.1187  0.0300  0.0081
    2SAPS  O13B  142   2.737   1.579   7.625  0.4771 -0.1438  0.1593
    2SAPS   C11  143   2.648   1.663   7.379 -0.3180  0.2089  0.4347
    2SAPS  H11A  144   2.661   1.560   7.339 -2.1154  0.0637  0.1406
    2SAPS  H11B  145   2.753   1.695   7.398  0.1279 -0.2098 -1.1328
    2SAPS     P  146   2.612   1.884   7.238  0.2535  0.0250  0.0953
    2SAPS   O13  147   2.488   1.945   7.201  0.1691 -0.4475  0.6492
    2SAPS   O14  148   2.683   1.951   7.352 -1.2428  0.1235  0.8698
    2SAPS   O12  149   2.579   1.725   7.270 -0.3587 -0.4454 -0.3830
    2SAPS   O11  150   2.705   1.883   7.117 -0.3440 -0.1501  0.5485
    2SAPS    C1  151   2.724   1.784   7.012  0.6901  0.0845 -0.6059
    2SAPS    HA  152   2.779   1.692   7.042  0.7720  0.8004  1.5996
    2SAPS    HB  153   2.623   1.753   6.975  0.6139 -0.8579  0.3489
    2SAPS    C2  154   2.809   1.847   6.904  0.1183  0.0291  0.1671
    2SAPS    HS  155   2.781   1.953   6.888 -0.8214 -0.5598 -2.5863
    2SAPS   O21  156   2.781   1.785   6.779  0.0335 -0.0784 -0.9386
    2SAPS   C21  157   2.669   1.810   6.718  0.7700 -0.6476  0.2783
    2SAPS   O22  158   2.590   1.904   6.745  0.0904  0.5514  0.3859
    2SAPS   C22  159   2.653   1.705   6.607  0.2612  0.2236 -0.1417
    2SAPS   H2R  160   2.740   1.728   6.542 -2.2729  1.7809 -3.3224
    2SAPS   H2S  161   2.647   1.608   6.660 -1.2354  0.6415  0.5210
    2SAPS    C3  162   2.961   1.823   6.934  0.0838  0.4504  0.1389
    2SAPS    HX  163   2.970   1.713   6.944  1.4828  0.4319 -1.0088
    2SAPS    HY  164   2.996   1.872   7.027 -0.8761 -1.7203  1.7314
    2SAPS   O31  165   3.045   1.848   6.816  0.2155  0.3608  0.4386
    2SAPS   C31  166   3.087   1.965   6.792  0.5865  0.3937 -1.2241
    2SAPS   O32  167   3.091   2.059   6.875  0.1757 -0.1196 -0.3381
    2SAPS   C32  168   3.124   1.982   6.644  0.1468  0.4254  0.6765
    2SAPS   H2X  169   3.231   1.955   6.636  0.2908  1.3524 -0.8486
    2SAPS   H2Y  170   3.104   2.090   6.625 -1.5366  0.1416  0.6094
    2SAPS   C23  171   2.528   1.719   6.517  0.4640  0.2949 -0.5445
    2SAPS   H3R  172   2.536   1.804   6.445 -1.2634  0.5376 -0.4931
    2SAPS   H3S  173   2.450   1.740   6.594  1.7653 -0.3127  0.9873
    2SAPS   C24  174   2.484   1.588   6.450  0.0370 -0.6473 -0.0463
    2SAPS   H4R  175   2.460   1.514   6.528 -1.3438 -2.3630 -1.9896
    2SAPS   H4S  176   2.563   1.550   6.382 -0.1235 -2.3813  0.7070
    2SAPS   C25  177   2.358   1.600   6.378  0.5683 -0.3652  0.8049
    2SAPS   H5R  178   2.270   1.556   6.427 -1.0856  1.0029 -0.8105
    2SAPS   C26  179   2.341   1.645   6.254  0.1925 -0.1900  0.2966
    2SAPS   H6R  180   2.240   1.630   6.212 -0.0917  2.6408 -0.2799
    2SAPS   C27  181   2.446   1.706   6.157  0.7438  0.0783 -0.2262
    2SAPS   H7R  182   2.485   1.789   6.221  0.8379  0.3454 -0.6277
    2SAPS   H7S  183   2.406   1.751   6.064  2.7808 -0.0054 -1.1758
    2SAPS   C28  184   2.546   1.607   6.111 -0.3103 -0.6970  0.2843
    2SAPS   H8R  185   2.623   1.582   6.185 -0.0792  3.3025  1.6157
    2SAPS   C29  186   2.564   1.552   5.990 -0.5606  0.0990 -0.3878
    2SAPS   H9R  187   2.659   1.501   5.969  0.3857  2.2331 -1.5894
    2SAPS  C210  188   2.460   1.576   5.881  0.3194  0.2520  0.9420
    2SAPS  H10R  189   2.479   1.678   5.841 -0.6043  0.0827  0.0286
    2SAPS  H10S  190   2.365   1.596   5.935  1.6866  1.9379  2.8950
    2SAPS  C211  191   2.460   1.481   5.761  0.1594 -0.1001 -0.4870
    2SAPS  H11R  192   2.523   1.520   5.680  1.3325  1.6231  1.1613
    2SAPS  C212  193   2.374   1.381   5.737 -0.6334 -0.4554 -0.3508
    2SAPS  H12R  194   2.395   1.315   5.651  1.6398  0.7925 -0.8360
    2SAPS  C213  195   2.269   1.338   5.839 -0.7095  0.0466  0.3227
    2SAPS  H13R  196   2.168   1.374   5.810 -0.5667 -0.8585 -1.3852
    2SAPS  H13S  197   2.287   1.379   5.941  0.4207  1.6292 -0.4708
    2SAPS  C214  198   2.268   1.185   5.842 -0.3608  0.1679 -0.1232
    2SAPS  H14R  199   2.348   1.139   5.901 -0.7363  0.7124  0.8354
    2SAPS  C215  200   2.178   1.101   5.788  0.4481 -0.2547  0.3369
    2SAPS  H15R  201   2.183   0.993   5.809 -0.0558  0.2004  3.3035
    2SAPS  C216  202   2.059   1.141   5.701 -0.1127  0.0826  0.3538
    2SAPS  H16R  203   2.076   1.248   5.676 -1.0796  0.1944  0.1223
    2SAPS  H16S  204   1.963   1.136   5.757  0.4821 -1.2967  1.2928
    2SAPS  C217  205   2.053   1.052   5.565  0.0738  0.6250  0.0006
    2SAPS  H17R  206   2.159   1.034   5.540  0.1048 -0.4139  0.8020
    2SAPS  H17S  207   1.999   1.116   5.492 -0.2742  0.4472  0.0960
    2SAPS  C218  208   1.974   0.924   5.577 -0.0971  0.2244  0.5682
    2SAPS  H18R  209   2.011   0.863   5.662  1.4874 -2.2422 -1.7060
    2SAPS  H18S  210   1.993   0.849   5.497 -0.7225 -0.2830  0.8769
    2SAPS  C219  211   1.819   0.948   5.597  0.0343 -0.4093  0.2451
    2SAPS  H19R  212   1.776   1.017   5.521  2.1985  1.9427  1.0398
    2SAPS  H19S  213   1.806   1.002   5.693 -0.7504 -1.7944  0.9620
    2SAPS  C220  214   1.745   0.818   5.596  0.0735  0.0121 -0.3505
    2SAPS  H20R  215   1.770   0.763   5.690 -0.8316 -0.9645 -0.6587
    2SAPS  H20S  216   1.789   0.749   5.521  0.6486  0.3596 -0.3384
    2SAPS  H20T  217   1.634   0.829   5.589 -0.1279 -1.5115  0.1339
    2SAPS   C33  218   3.037   1.885   6.556 -0.1373 -0.5312 -0.7737
    2SAPS   H3X  219   2.930   1.917   6.553 -0.1817 -0.6040 -0.0456
    2SAPS   H3Y  220   3.045   1.777   6.580  3.8590 -0.2765 -0.2806
    2SAPS   C34  221   3.079   1.883   6.406 -0.2287  0.0390  0.0872
    2SAPS   H4X  222   3.169   1.818   6.402 -1.5364 -1.8702  0.1609
    2SAPS   H4Y  223   3.109   1.985   6.373 -0.5978  0.3715  0.7618
    2SAPS   C35  224   2.965   1.838   6.312  0.2860 -0.8308 -0.2365
    2SAPS   H5X  225   2.878   1.907   6.317  1.7488  1.0030  1.2884
    2SAPS   H5Y  226   2.927   1.740   6.349 -1.6314  0.6528  2.0646
    2SAPS   C36  227   3.017   1.837   6.166 -0.5326  0.7459 -0.2523
    2SAPS   H6X  228   3.096   1.760   6.152  0.0181  1.1638  0.4520
    2SAPS   H6Y  229   3.060   1.935   6.133 -1.1777  0.7224 -1.1966
    2SAPS   C37  230   2.904   1.793   6.056  0.0170  0.3847  0.1947
    2SAPS   H7X  231   2.864   1.891   6.023  0.2436 -0.1809 -1.8909
    2SAPS   H7Y  232   2.828   1.727   6.103 -0.9430  0.6470 -0.9442
    2SAPS   C38  233   2.957   1.717   5.931 -0.2418 -1.0242  0.1749
    2SAPS   H8X  234   2.968   1.609   5.955 -3.8131 -1.3445  0.9140
    2SAPS   H8Y  235   3.059   1.759   5.922 -0.4840  0.2707  2.6738
    2SAPS   C39  236   2.864   1.743   5.808  0.4486  0.2254  0.0159
    2SAPS   H9X  237   2.860   1.846   5.767  0.6308 -0.3901 -1.6077
    2SAPS   H9Y  238   2.765   1.733   5.857  1.4876 -0.2675  2.1696
    2SAPS  C310  239   2.885   1.645   5.683  0.0199 -0.1443  0.1110
    2SAPS  H10X  240   2.876   1.537   5.708  0.2191 -0.1398  0.2041
    2SAPS  H10Y  241   2.985   1.658   5.636  0.1419 -1.0253  0.1106
    2SAPS  C311  242   2.767   1.658   5.580 -0.4605 -0.1532  0.5521
    2SAPS  H11X  243   2.774   1.751   5.519  0.0855 -0.0600  0.7590
    2SAPS  H11Y  244   2.676   1.660   5.643 -1.4174  0.3057 -0.7887
    2SAPS  C312  245   2.758   1.536   5.487  1.1059  0.0000  0.1054
    2SAPS  H12X  246   2.763   1.441   5.544 -0.3548 -0.3640 -0.3255
    2SAPS  H12Y  247   2.835   1.545   5.408 -1.5604 -0.6467 -2.7333
    2SAPS  C313  248   2.627   1.539   5.401 -0.3296  0.7797 -0.4827
    2SAPS  H13X  249   2.543   1.556   5.471  0.6665  0.3700  0.8661
    2SAPS  H13Y  250   2.625   1.437   5.358 -0.2577  0.8526 -0.6626
    2SAPS  C314  251   2.618   1.644   5.292  0.0810  0.7256 -0.3141
    2SAPS  H14X  252   2.674   1.608   5.203  3.1493  1.2054  1.2947
    2SAPS  H14Y  253   2.683   1.728   5.326  1.2185 -0.7818  1.4020
    2SAPS  C315  254   2.476   1.688   5.265 -0.1769 -0.0863  0.5094
    2SAPS  H15X  255   2.431   1.728   5.358  0.2731  0.1938  0.6111
    2SAPS  H15Y  256   2.418   1.599   5.235 -1.6960  0.6991  0.9832
    2SAPS  C316  257   2.472   1.793   5.155 -0.0203  0.4080 -0.2930
    2SAPS  H16X  258   2.520   1.890   5.179 -0.9199  0.8015 -0.0633
    2SAPS  H16Y  259   2.365   1.811   5.134 -0.0011 -1.6736 -2.6771
    2SAPS  C317  260   2.535   1.753   5.024 -0.4017 -0.1237  0.2916
    2SAPS  H17X  261   2.496   1.654   4.989 -3.5181  0.3949  1.9706
    2SAPS  H17Y  262   2.645   1.740   5.033 -0.5104 -2.3744 -0.8442
    2SAPS  C318  263   2.524   1.850   4.909  0.8643 -0.3148  0.0434
    2SAPS  H18X  264   2.607   1.836   4.837 -1.3714  1.6824 -3.2243
    2SAPS  H18Y  265   2.528   1.955   4.944  0.8428 -0.1898 -0.3231
    2SAPS  H18Z  266   2.426   1.851   4.856  0.3882 -1.7731  0.8317
    3SAPS     N  267   3.425   5.900   7.501  0.3343  0.9833  0.4168
    3SAPS   HN1  268   3.400   5.999   7.481  2.0132  1.0704 -1.6444
    3SAPS   HN2  269   3.529   5.903   7.502  0.3576  3.0213 -1.0045
    3SAPS   HN3  270   3.392   5.822   7.440 -0.2930 -0.1221  2.1056
    3SAPS   C12  271   3.377   5.857   7.637  0.6875 -0.1282  0.2188
    3SAPS  H12A  272   3.394   5.750   7.638  0.1695 -0.2142  1.4742
    3SAPS   C13  273   3.435   5.918   7.766  0.3814 -0.4367 -0.3060
    3SAPS  O13A  274   3.541   5.986   7.753 -0.0376 -0.0699  0.2376
    3SAPS  O13B  275   3.395   5.880   7.877 -0.3904 -0.1484  0.0895
    3SAPS   C11  276   3.221   5.883   7.646  0.9150  0.4543 -0.7378
    3SAPS  H11A  277   3.211   5.992   7.627  0.1180  0.8712  1.7353
    3SAPS  H11B  278   3.189   5.876   7.752  0.2655  1.2652 -0.8665
    3SAPS     P  279   3.007   5.823   7.514 -0.0629  0.1749 -0.4136
    3SAPS   O13  280   2.941   5.701   7.462  0.3037 -0.3887  0.3823
    3SAPS   O14  281   2.947   5.891   7.629  0.2850  0.6254 -0.0066
    3SAPS   O12  282   3.155   5.793   7.553  0.0552  0.3022  0.1443
    3SAPS   O11  283   3.015   5.935   7.402 -0.5312  0.3835  0.7850
    3SAPS    C1  284   3.106   5.933   7.286 -0.0638 -0.1205  0.3805
    3SAPS    HA  285   3.194   5.999   7.303  0.3633 -0.5055 -0.2828
    3SAPS    HB  286   3.155   5.834   7.280  0.5549  0.2198 -0.6359
    3SAPS    C2  287   3.039   5.981   7.159  0.4088 -0.3977  0.4558
    3SAPS    HS  288   3.116   6.006   7.083  1.3702 -0.6035  1.3491
    3SAPS   O21  289   2.963   6.101   7.189 -0.0777 -0.5052 -0.1027
    3SAPS   C21  290   3.019   6.207   7.246  0.3118 -0.5407 -0.0618
    3SAPS   O22  291   3.134   6.217   7.282 -0.2196 -0.1708 -0.4289
    3SAPS   C22  292   2.925   6.325   7.242 -0.1271 -1.6279  0.0076
    3SAPS   H2R  293   2.819   6.292   7.244 -0.4173 -0.9898 -2.2087
    3SAPS   H2S  294   2.940   6.403   7.318 -1.6689  0.9183 -2.1339
    3SAPS    C3  295   2.943   5.878   7.104  0.0889  0.9013 -0.2172
    3SAPS    HX  296   2.879   5.835   7.184  1.9835 -0.5408  0.5978
    3SAPS    HY  297   3.002   5.791   7.070 -1.2560  0.6615 -2.0676
    3SAPS   O31  298   2.857   5.922   6.997  0.2107  0.0171  0.1110
    3SAPS   C31  299   2.913   5.911   6.877 -0.3082 -0.1306 -0.1694
    3SAPS   O32  300   3.029   5.873   6.856 -0.2570 -0.9203 -0.8301
    3SAPS   C32  301   2.817   5.942   6.769  0.5130 -0.7251  0.0419
    3SAPS   H2X  302   2.757   6.030   6.800 -0.3084 -1.1490 -0.3183
    3SAPS   H2Y  303   2.766   5.845   6.751  2.2309 -1.6707  0.0875
    3SAPS   C23  304   2.940   6.402   7.107 -0.3801  0.1181 -0.6762
    3SAPS   H3R  305   3.037   6.455   7.120 -1.5144  2.1005  0.1151
    3SAPS   H3S  306   2.859   6.477   7.104 -1.5735 -1.0965  0.0602
    3SAPS   C24  307   2.925   6.308   6.981  0.0433  0.2237  0.5860
    3SAPS   H4R  308   2.847   6.236   7.013  2.5942 -2.6166  0.9042
    3SAPS   H4S  309   3.018   6.248   6.979  0.3824  0.7419  0.8059
    3SAPS   C25  310   2.899   6.380   6.848  0.5122  0.2188 -0.3823
    3SAPS   H5R  311   2.985   6.433   6.805  0.5518 -1.0619 -1.9644
    3SAPS   C26  312   2.786   6.376   6.777  0.3435  0.1524  0.8237
    3SAPS   H6R  313   2.787   6.428   6.680  0.0769 -0.9017  0.2388
    3SAPS   C27  314   2.662   6.300   6.803  0.4537  1.1613  0.5158
    3SAPS   H7R  315   2.678   6.221   6.879  1.2865  1.3745  0.5762
    3SAPS   H7S  316   2.636   6.247   6.710  1.9641  2.7213 -0.8671
    3SAPS   C28  317   2.556   6.400   6.843  0.5914 -0.3480 -0.0092
    3SAPS   H8R  318   2.543   6.417   6.951  3.1559 -1.6617  0.6028
    3SAPS   C29  319   2.478   6.480   6.764 -0.3730  0.2192 -0.2348
    3SAPS   H9R  320   2.416   6.552   6.820  0.1565 -0.9543  1.9955
    3SAPS  C210  321   2.480   6.465   6.615 -0.0626 -0.0631  0.4855
    3SAPS  H10R  322   2.376   6.469   6.575  0.7159  0.9949 -1.5796
    3SAPS  H10S  323   2.525   6.370   6.579  0.9163  0.5404  0.0827
    3SAPS  C211  324   2.536   6.577   6.540 -0.9031  0.5476  0.5641
    3SAPS  H11R  325   2.537   6.679   6.581 -0.8752 -0.0715  2.1523
    3SAPS  C212  326   2.557   6.558   6.404 -0.6114 -0.1808 -0.6203
    3SAPS  H12R  327   2.560   6.649   6.341  2.3835 -1.2526 -2.1995
    3SAPS  C213  328   2.548   6.437   6.316 -0.0139  0.1285 -0.0095
    3SAPS  H13R  329   2.441   6.418   6.293 -0.5467  2.5547  0.2545
    3SAPS  H13S  330   2.574   6.342   6.368 -1.8609 -1.9695 -2.5931
    3SAPS  C214  331   2.629   6.431   6.185  0.8888 -0.3022 -0.7930
    3SAPS  H14R  332   2.728   6.385   6.194  1.3698  0.9198  0.5940
    3SAPS  C215  333   2.602   6.510   6.083  0.1886  0.1861  0.2575
    3SAPS  H15R  334   2.666   6.508   5.993 -0.8302  0.0002 -0.4799
    3SAPS  C216  335   2.482   6.599   6.068  0.0422  0.3281 -0.3532
    3SAPS  H16R  336   2.422   6.615   6.160  0.6631 -3.5354  0.9176
    3SAPS  H16S  337   2.415   6.547   5.997  1.4209 -1.1999 -0.6017
    3SAPS  C217  338   2.525   6.731   5.993 -0.1873  0.4281  0.1714
    3SAPS  H17R  339   2.584   6.720   5.899  0.1749  0.2616  0.4135
    3SAPS  H17S  340   2.584   6.799   6.058 -1.3394 -0.3670  2.1379
    3SAPS  C218  341   2.399   6.808   5.944  0.1485  0.8878  0.8923
    3SAPS  H18R  342   2.313   6.819   6.013 -0.5441 -0.9359  0.3893
    3SAPS  H18S  343   2.350   6.750   5.863  0.3706  1.4428  0.3482
    3SAPS  C219  344   2.424   6.935   5.878  0.2843 -0.7329 -0.0715
    3SAPS  H19R  345   2.485   6.991   5.952  1.4582 -0.4232 -1.2261
    3SAPS  H19S  346   2.481   6.928   5.783  1.5208 -1.0325  0.6662
    3SAPS  C220  347   2.300   7.020   5.845  1.0784 -0.2450  0.8434
    3SAPS  H20R  348   2.229   6.974   5.772 -1.0406  1.7203  1.5423
    3SAPS  H20S  349   2.336   7.106   5.783  1.3726 -1.8686 -1.3724
    3SAPS  H20T  350   2.243   7.061   5.930 -0.2674 -2.3523  1.0244
    3SAPS   C33  351   2.891   5.977   6.631  0.0582  0.9742 -0.6016
    3SAPS   H3X  352   2.936   5.887   6.586  1.3029  0.5326  1.4072
    3SAPS   H3Y  353   2.976   6.045   6.651  2.9160 -1.6741 -2.8022
    3SAPS   C34  354   2.793   6.037   6.532  0.3436 -0.6075  0.0922
    3SAPS   H4X  355   2.777   6.144   6.558  3.5392  0.4633 -1.7264
    3SAPS   H4Y  356   2.694   5.987   6.539  0.7332 -1.1057  2.9951
    3SAPS   C35  357   2.845   6.027   6.389  0.6109 -0.7195 -1.4264
    3SAPS   H5X  358   2.939   6.084   6.377  1.2386 -0.6701  2.3662
    3SAPS   H5Y  359   2.867   5.922   6.363 -2.2053 -1.4118 -1.3307
    3SAPS   C36  360   2.737   6.078   6.296  0.9975 -0.1640 -0.0824
    3SAPS   H6X  361   2.719   6.186   6.317  0.5434 -0.6387  2.3366
    3SAPS   H6Y  362   2.643   6.021   6.312  1.7655 -1.2379  0.7624
    3SAPS   C37  363   2.768   6.064   6.143  0.4888  0.0837  0.1686
    3SAPS   H7X  364   2.788   5.955   6.132 -0.5072 -0.1446  0.4541
    3SAPS   H7Y  365   2.857   6.127   6.122 -0.2563  0.4385 -2.3556
    3SAPS   C38  366   2.647   6.097   6.060 -0.0188 -0.0492  0.3780
    3SAPS   H8X  367   2.590   6.185   6.097 -1.5885 -1.5401  1.7036
    3SAPS   H8Y  368   2.585   6.005   6.059  1.4346 -1.0566 -0.5892
    3SAPS   C39  369   2.692   6.128   5.910 -0.7700  0.4263  0.4283
    3SAPS   H9X  370   2.768   6.053   5.881 -0.3822  0.3634  1.5520
    3SAPS   H9Y  371   2.738   6.229   5.907  1.9814 -0.5988  2.8446
    3SAPS  C310  372   2.580   6.128   5.806 -0.2359  0.9882 -0.4968
    3SAPS  H10X  373   2.493   6.189   5.839 -0.4327  0.9100 -0.8687
    3SAPS  H10Y  374   2.542   6.023   5.808  2.1993  0.0177  1.5324
    3SAPS  C311  375   2.612   6.162   5.667 -0.3991  0.1671 -0.1624
    3SAPS  H11X  376   2.532   6.120   5.601 -0.1857  1.0333 -1.0012
    3SAPS  H11Y  377   2.700   6.106   5.629 -2.1588 -1.8079 -1.5977
    3SAPS  C312  378   2.629   6.310   5.629 -0.8410 -0.2465 -0.2791
    3SAPS  H12X  379   2.718   6.345   5.686  0.1765  0.4633 -2.2107
    3SAPS  H12Y  380   2.541   6.373   5.655  1.4695  3.2155 -0.1420
    3SAPS  C313  381   2.660   6.333   5.481  0.7745 -0.0366 -0.5857
    3SAPS  H13X  382   2.578   6.298   5.416 -0.2290  0.7423  0.2222
    3SAPS  H13Y  383   2.752   6.274   5.463  1.0329 -0.1433  0.9142
    3SAPS  C314  384   2.700   6.481   5.449  0.6331  0.0406 -0.6635
    3SAPS  H14X  385   2.796   6.499   5.502  0.4502 -1.2149  0.1408
    3SAPS  H14Y  386   2.623   6.536   5.508 -0.9596 -0.5115 -2.1345
    3SAPS  C315  387   2.708   6.513   5.302  0.5159 -0.5627  0.9323
    3SAPS  H15X  388   2.703   6.622   5.279 -1.0002 -0.9957 -1.0352
    3SAPS  H15Y  389   2.613   6.474   5.259  0.5108 -0.8913  1.2376
    3SAPS  C316  390   2.827   6.455   5.233 -0.5385  0.4902 -0.0142
    3SAPS  H16X  391   2.865   6.359   5.275  1.7719  1.9453  1.4819
    3SAPS  H16Y  392   2.910   6.526   5.257 -0.9960  0.8809  0.4284
    3SAPS  C317  393   2.817   6.449   5.075  0.3466 -0.5180  0.0077
    3SAPS  H17X  394   2.739   6.374   5.051 -0.3171 -0.0106  0.5767
    3SAPS  H17Y  395   2.913   6.416   5.029  1.3046  2.2699 -0.1946
    3SAPS  C318  396   2.772   6.588   5.015 -0.4376 -0.1697  0.7249
    3SAPS  H18X  397   2.674   6.632   5.043  0.6389  1.7043  1.7962
    3SAPS  H18Y  398   2.781   6.577   4.905  2.8621 -0.3198  0.9095
    3SAPS  H18Z  399   2.845   6.661   5.056 -0.5575  0.8950 -0.8690
    4SAPS     N  400   6.271   1.427   7.721  0.3651 -0.6011 -0.1210
    4SAPS   HN1  401   6.246   1.458   7.817  0.8105  1.3306 -0.5883
    4SAPS   HN2  402   6.332   1.343   7.725  2.8795  0.9355 -2.5875
    4SAPS   HN3  403   6.320   1.506   7.674 -1.6998 -0.0754 -1.5270
    4SAPS   C12  404   6.150   1.401   7.636  0.1722  0.4777 -0.4172
    4SAPS  H12A  405   6.117   1.300   7.657 -1.1294  0.6268 -1.5762
    4SAPS   C13  406   6.027   1.485   7.686 -0.2935  0.7239 -0.4701
    4SAPS  O13A  407   6.026   1.533   7.801  0.1633  0.1159  0.0908
    4SAPS  O13B  408   5.918   1.467   7.618 -0.0147  0.8919  0.1387
    4SAPS   C11  409   6.172   1.412   7.489  0.0789  0.2710 -0.0536
    4SAPS  H11A  410   6.208   1.513   7.459 -0.4163 -0.1942 -2.4131
    4SAPS  H11B  411   6.070   1.404   7.446 -0.4223 -1.5277  1.3429
    4SAPS     P  412   6.237   1.222   7.335  0.1428 -0.1303  0.1059
    4SAPS   O13  413   6.365   1.167   7.281  0.0147  0.0451 -0.0688
    4SAPS   O14  414   6.150   1.128   7.413  0.2941 -0.1735  0.2444
    4SAPS   O12  415   6.278   1.331   7.437 -0.5889 -0.3356  0.4480
    4SAPS   O11  416   6.155   1.304   7.226  0.3665 -0.2516 -0.7967
    4SAPS    C1  417   6.207   1.411   7.141 -0.4621  0.4757 -0.3849
    4SAPS    HA  418   6.121   1.475   7.113 -1.1923 -1.0116 -1.7441
    4SAPS    HB  419   6.276   1.476   7.199 -1.9191  1.1514  0.6850
    4SAPS    C2  420   6.250   1.355   7.005  0.5825  0.3394  0.2642
    4SAPS    HS  421   6.333   1.282   7.018 -0.7271 -1.4365 -0.8624
    4SAPS   O21  422   6.281   1.467   6.918  0.3002 -0.1004  0.2610
    4SAPS   C21  423   6.395   1.464   6.866  0.2011  0.4067 -0.2109
    4SAPS   O22  424   6.491   1.392   6.897 -0.6237 -0.2887  1.0653
    4SAPS   C22  425   6.401   1.560   6.752 -0.4372 -0.5236  0.5201
    4SAPS   H2R  426   6.353   1.656   6.777  1.9776  1.4368 -1.7296
    4SAPS   H2S  427   6.508   1.586   6.739 -0.6522 -0.7988 -2.3895
    4SAPS    C3  428   6.130   1.274   6.950  0.0065  0.4050 -0.4812
    4SAPS    HX  429   6.052   1.351   6.932  1.4088  2.0215  0.0701
    4SAPS    HY  430   6.083   1.197   7.015  2.6007  1.7444  3.3908
    4SAPS   O31  431   6.174   1.217   6.824 -0.4320 -0.0532 -0.4613
    4SAPS   C31  432   6.244   1.106   6.828 -0.3375  0.6280 -0.2776
    4SAPS   O32  433   6.271   1.047   6.927 -0.3766  0.6972 -0.4353
    4SAPS   C32  434   6.264   1.063   6.676  0.0023  0.2123  0.1130
    4SAPS   H2X  435   6.342   1.132   6.638 -0.3644  0.2041 -0.6682
    4SAPS   H2Y  436   6.164   1.084   6.632 -0.6478 -2.7604 -0.0530
    4SAPS   C23  437   6.333   1.510   6.631 -0.0340 -0.7937 -0.1722
    4SAPS   H3R  438   6.333   1.593   6.557  0.8773 -1.7027 -1.2285
    4SAPS   H3S  439   6.228   1.481   6.653  0.3714  0.0132  3.3460
    4SAPS   C24  440   6.399   1.386   6.556 -0.6372 -0.5537  0.8718
    4SAPS   H4R  441   6.322   1.356   6.481 -0.0663  0.8792 -0.3442
    4SAPS   H4S  442   6.411   1.306   6.632 -1.0193 -1.9037 -0.4510
    4SAPS   C25  443   6.532   1.428   6.481  0.6079  0.1553 -0.6821
    4SAPS   H5R  444   6.619   1.429   6.549  1.1156  0.9641 -1.3250
    4SAPS   C26  445   6.543   1.445   6.347  0.3508  0.0594 -0.2510
    4SAPS   H6R  446   6.632   1.492   6.301 -0.7080  0.6839 -1.7474
    4SAPS   C27  447   6.426   1.441   6.246  0.1920  0.7423  0.3152
    4SAPS   H7R  448   6.435   1.519   6.168 -0.6323  0.3230 -0.2011
    4SAPS   H7S  449   6.333   1.475   6.295 -0.0625 -0.8812  1.0325
    4SAPS   C28  450   6.408   1.316   6.169 -0.1078  0.9180  0.4937
    4SAPS   H8R  451   6.418   1.223   6.229 -0.7017  0.9073  0.5838
    4SAPS   C29  452   6.384   1.295   6.032  0.2385 -0.7585 -0.7822
    4SAPS   H9R  453   6.374   1.193   5.994 -2.1036 -1.2542  0.9446
    4SAPS  C210  454   6.372   1.393   5.918 -0.5646 -0.2733 -0.5460
    4SAPS  H10R  455   6.411   1.491   5.955  1.7302 -0.2491 -2.7717
    4SAPS  H10S  456   6.262   1.406   5.904 -0.9941 -1.3343  1.4313
    4SAPS  C211  457   6.462   1.365   5.801 -1.0201  0.1932 -0.1262
    4SAPS  H11R  458   6.555   1.310   5.822  0.2960  1.5574 -2.0415
    4SAPS  C212  459   6.443   1.399   5.676 -0.6991  0.2006  0.0677
    4SAPS  H12R  460   6.520   1.382   5.600 -0.6889  0.8581 -0.0748
    4SAPS  C213  461   6.331   1.481   5.629  0.2793  0.1028  0.6348
    4SAPS  H13R  462   6.368   1.546   5.546  2.2313 -0.5986  0.8954
    4SAPS  H13S  463   6.299   1.552   5.709  1.2724  0.8184  0.4241
    4SAPS  C214  464   6.214   1.400   5.598  0.4759  0.1136  0.3002
    4SAPS  H14R  465   6.168   1.352   5.686 -0.3549  0.1776 -0.0815
    4SAPS  C215  466   6.144   1.394   5.483  0.2492  0.1069  0.7924
    4SAPS  H15R  467   6.044   1.347   5.488  0.3553 -0.6710 -2.2401
    4SAPS  C216  468   6.186   1.447   5.352 -0.3546 -0.0183 -1.1563
    4SAPS  H16R  469   6.210   1.363   5.283 -0.6591 -1.7916  0.8206
    4SAPS  H16S  470   6.279   1.508   5.352  1.3439 -2.4430 -0.4508
    4SAPS  C217  471   6.083   1.539   5.293  0.1811 -0.6822  0.5359
    4SAPS  H17R  472   6.092   1.636   5.346 -1.7337  1.1491 -2.1646
    4SAPS  H17S  473   5.981   1.505   5.321 -0.8878  0.9490 -1.1333
    4SAPS  C218  474   6.102   1.557   5.140  0.9729  0.3372  0.3158
    4SAPS  H18R  475   6.011   1.610   5.105 -1.0154 -1.8294  1.9165
    4SAPS  H18S  476   6.109   1.462   5.084 -1.7001  0.9309 -1.1889
    4SAPS  C219  477   6.230   1.633   5.099  0.0768 -0.1425 -0.5996
    4SAPS  H19R  478   6.213   1.653   4.991 -0.0131 -2.9393 -1.1633
    4SAPS  H19S  479   6.315   1.561   5.106  1.0814  1.0378 -0.0699
    4SAPS  C220  480   6.270   1.757   5.174 -0.4348 -0.4310  0.1619
    4SAPS  H20R  481   6.272   1.725   5.281 -1.7897 -0.9164  0.0569
    4SAPS  H20S  482   6.191   1.836   5.170  0.0869  0.1115  0.2954
    4SAPS  H20T  483   6.363   1.807   5.141  0.1584 -0.3670  1.8049
    4SAPS   C33  484   6.297   0.909   6.657  0.2113  0.3301  0.2613
    4SAPS   H3X  485   6.220   0.841   6.697  1.3684 -0.8683  0.5287
    4SAPS   H3Y  486   6.395   0.890   6.706  0.3814  2.6978  0.9698
    4SAPS   C34  487   6.319   0.881   6.504  0.4174 -0.0155  0.0250
    4SAPS   H4X  488   6.383   0.962   6.462  1.0465 -0.7715 -0.4941
    4SAPS   H4Y  489   6.219   0.894   6.458  1.3633  0.8912 -1.9077
    4SAPS   C35  490   6.379   0.733   6.477  0.0611 -0.6185 -0.3778
    4SAPS   H5X  491   6.325   0.675   6.555  0.1324  1.9815  1.8026
    4SAPS   H5Y  492   6.487   0.742   6.505  0.3359  0.5169 -1.6830
    4SAPS   C36  493   6.355   0.681   6.336 -0.1673 -0.9356  0.5563
    4SAPS   H6X  494   6.249   0.651   6.338 -0.4387 -0.3361 -1.6418
    4SAPS   H6Y  495   6.425   0.594   6.339  2.0929  0.7850  0.7563
    4SAPS   C37  496   6.402   0.771   6.223  0.7686  0.2557  0.1009
    4SAPS   H7X  497   6.506   0.806   6.234  0.7139 -0.0847  1.9956
    4SAPS   H7Y  498   6.336   0.859   6.210 -0.9435 -1.1148 -1.1422
    4SAPS   C38  499   6.380   0.704   6.081 -0.2636 -0.8182  0.2201
    4SAPS   H8X  500   6.418   0.765   5.996  2.1312 -2.0547  0.3116
    4SAPS   H8Y  501   6.270   0.697   6.077 -0.3638  0.7059 -0.0782
    4SAPS   C39  502   6.456   0.574   6.061  0.0674 -0.2229  0.3580
    4SAPS   H9X  503   6.436   0.494   6.135  0.9362 -0.2012  0.6304
    4SAPS   H9Y  504   6.564   0.597   6.069  0.1792  1.4241 -3.5088
    4SAPS  C310  505   6.419   0.524   5.920 -0.0422  0.2634 -0.3252
    4SAPS  H10X  506   6.490   0.441   5.899  1.1250  0.6997  1.6218
    4SAPS  H10Y  507   6.435   0.601   5.841 -0.3118 -2.3242 -3.0854
    4SAPS  C311  508   6.278   0.473   5.915 -0.4683  0.1147  0.5640
    4SAPS  H11X  509   6.211   0.560   5.898  0.0943  0.4272 -0.0807
    4SAPS  H11Y  510   6.246   0.423   6.010  1.9505 -1.0761  0.8350
    4SAPS  C312  511   6.248   0.366   5.802  0.1735  0.1706 -0.6280
    4SAPS  H12X  512   6.145   0.331   5.823  0.0564  0.3020 -0.9710
    4SAPS  H12Y  513   6.310   0.277   5.824 -0.2181  0.1560  0.4372
    4SAPS  C313  514   6.270   0.401   5.654  0.2159 -0.2635  0.1460
    4SAPS  H13X  515   6.377   0.431   5.644  0.3324 -1.3300 -2.5046
    4SAPS  H13Y  516   6.192   0.474   5.624 -1.2445 -1.6532  0.4642
    4SAPS  C314  517   6.257   0.271   5.569 -0.3418  0.1894 -0.0784
    4SAPS  H14X  518   6.169   0.213   5.605  0.6660 -1.3371  0.0421
    4SAPS  H14Y  519   6.350   0.215   5.592  0.7018  1.7958 -0.2902
    4SAPS  C315  520   6.242   0.295   5.422 -0.2259  0.6277  0.0105
    4SAPS  H15X  521   6.329   0.357   5.391  0.4483  0.3732  1.3193
    4SAPS  H15Y  522   6.150   0.351   5.397  1.2249  2.2434 -2.0740
    4SAPS  C316  523   6.238   0.173   5.328 -0.1569 -0.0779 -0.6276
    4SAPS  H16X  524   6.159   0.103   5.362  1.8149 -1.0665  2.3478
    4SAPS  H16Y  525   6.336   0.121   5.327 -0.3596 -0.4776 -1.8313
    4SAPS  C317  526   6.202   0.217   5.186  0.3848  0.5131 -0.8188
    4SAPS  H17X  527   6.099   0.259   5.177 -1.2155 -3.1687 -1.5020
    4SAPS  H17Y  528   6.195   0.121   5.130 -2.1296 -1.3995  2.3662
    4SAPS  C318  529   6.294   0.313   5.105 -0.2472  0.2422  0.3421
    4SAPS  H18X  530   6.383   0.258   5.066 -0.6043 -0.2138  0.1605
    4SAPS  H18Y  531   6.321   0.405   5.161  1.2904  1.1904 -1.8128
    4SAPS  H18Z  532   6.242   0.348   5.014  0.0954 -1.5057 -0.5807
    5SAPS     N  533   1.556   5.916   7.525  0.6055  0.2355  0.2894
    5SAPS   HN1  534   1.453   5.926   7.536  0.7251  0.3726  1.4033
    5SAPS   HN2  535   1.606   5.989   7.579 -2.6533  1.5572  1.7747
    5SAPS   HN3  536   1.579   5.924   7.424 -0.1650 -0.5122  0.0510
    5SAPS   C12  537   1.585   5.778   7.575 -0.4028 -0.2382  0.2513
    5SAPS  H12A  538   1.691   5.779   7.597  0.2525 -2.9433 -2.1222
    5SAPS   C13  539   1.502   5.745   7.707  0.2263 -0.2978 -0.8973
    5SAPS  O13A  540   1.417   5.826   7.749  0.5624  1.1575 -0.1600
    5SAPS  O13B  541   1.546   5.653   7.774  0.0686 -0.5368 -0.6351
    5SAPS   C11  542   1.563   5.673   7.467  0.1923  0.0628  0.8542
    5SAPS  H11A  543   1.459   5.694   7.435  0.4834  0.1048 -0.0702
    5SAPS  H11B  544   1.569   5.571   7.512 -3.9789 -0.5626  0.3735
    5SAPS     P  545   1.627   5.582   7.229 -0.0009  0.0239 -0.1069
    5SAPS   O13  546   1.749   5.580   7.143 -0.7550  0.0740 -0.7727
    5SAPS   O14  547   1.577   5.448   7.275  0.1886  0.1032  0.6917
    5SAPS   O12  548   1.647   5.672   7.354 -0.2596 -0.1349 -0.5109
    5SAPS   O11  549   1.506   5.650   7.152  0.3007 -0.4903  0.6699
    5SAPS    C1  550   1.372   5.671   7.199  0.0862 -1.0912 -0.6845
    5SAPS    HA  551   1.346   5.587   7.267 -2.0965  0.8669  1.0802
    5SAPS    HB  552   1.353   5.764   7.256 -0.7461 -2.1224  0.7862
    5SAPS    C2  553   1.270   5.655   7.080 -0.1397 -0.3530 -0.1084
    5SAPS    HS  554   1.277   5.556   7.030  1.6285 -1.5143  2.2039
    5SAPS   O21  555   1.286   5.765   6.977  0.1970 -0.2699 -0.7573
    5SAPS   C21  556   1.371   5.732   6.882  0.2335 -0.7380  0.0623
    5SAPS   O22  557   1.423   5.622   6.866 -0.5538  0.1556  0.4528
    5SAPS   C22  558   1.407   5.848   6.799  0.6516  0.4385  0.2617
    5SAPS   H2R  559   1.462   5.924   6.859 -0.8479  0.2885  1.9238
    5SAPS   H2S  560   1.473   5.816   6.716 -1.8652 -0.7130 -1.4111
    5SAPS    C3  561   1.124   5.671   7.134 -0.5191  0.3052 -0.4469
    5SAPS    HX  562   1.132   5.774   7.175  0.8785 -0.4557  1.3094
    5SAPS    HY  563   1.115   5.596   7.215 -0.6587  0.2385 -0.5246
    5SAPS   O31  564   1.024   5.654   7.034  0.6423 -0.1369  0.0810
    5SAPS   C31  565   0.936   5.754   7.026 -0.1708 -0.2315 -0.0056
    5SAPS   O32  566   0.928   5.851   7.102  0.5173  0.1044 -0.0970
    5SAPS   C32  567   0.849   5.737   6.891  0.6522  0.4592  0.0619
    5SAPS   H2X  568   0.871   5.824   6.827  0.8234  1.1865  1.0788
    5SAPS   H2Y  569   0.741   5.738   6.916  0.3820 -1.4964 -0.8144
    5SAPS   C23  570   1.276   5.924   6.748  0.6508 -0.1974 -0.1101
    5SAPS   H3R  571   1.209   5.948   6.834  0.5575  0.8518 -0.4677
    5SAPS   H3S  572   1.218   5.850   6.689 -1.3695 -0.4988  2.1004
    5SAPS   C24  573   1.300   6.045   6.655  0.4413  0.0056  0.4651
    5SAPS   H4R  574   1.349   6.125   6.715 -0.0675 -0.5046  1.5908
    5SAPS   H4S  575   1.201   6.086   6.625  0.8561 -1.0541 -2.6615
    5SAPS   C25  576   1.366   6.000   6.529 -0.5705  0.0123 -0.1391
    5SAPS   H5R  577   1.299   5.929   6.479  0.0524 -3.3687  3.3180
    5SAPS   C26  578   1.486   6.037   6.483  0.1299  0.1797 -0.6406
    5SAPS   H6R  579   1.504   6.013   6.377 -1.3937  0.8693 -1.0732
    5SAPS   C27  580   1.572   6.146   6.543  0.0097  0.1505  0.2716
    5SAPS   H7R  581   1.540   6.167   6.648 -0.8900 -1.5907  0.3745
    5SAPS   H7S  582   1.551   6.238   6.484 -0.1680 -0.5840 -0.8408
    5SAPS   C28  583   1.710   6.095   6.527 -0.2255  0.3655  0.0804
    5SAPS   H8R  584   1.734   5.994   6.566  0.7929 -0.1490 -1.7401
    5SAPS   C29  585   1.813   6.146   6.459 -0.2501 -0.0211 -0.3637
    5SAPS   H9R  586   1.915   6.105   6.467 -0.0405  0.7076  0.8293
    5SAPS  C210  587   1.807   6.278   6.394  0.1621  0.2362  0.5973
    5SAPS  H10R  588   1.709   6.288   6.342  0.1826 -0.7552  0.3472
    5SAPS  H10S  589   1.895   6.286   6.327  1.1142  2.4710  2.0178
    5SAPS  C211  590   1.791   6.399   6.485 -0.2206  0.7285 -0.6713
    5SAPS  H11R  591   1.777   6.378   6.592  1.9251 -0.8602 -0.6370
    5SAPS  C212  592   1.796   6.520   6.427 -0.6498 -0.1068  0.0409
    5SAPS  H12R  593   1.788   6.610   6.490  0.4377  1.2103 -1.6189
    5SAPS  C213  594   1.792   6.545   6.276  0.2287 -0.2171 -0.1991
    5SAPS  H13R  595   1.727   6.464   6.234 -1.5540  0.2222  1.5460
    5SAPS  H13S  596   1.897   6.533   6.243  0.3304  3.2599 -1.4888
    5SAPS  C214  597   1.744   6.679   6.242 -0.1787  0.2756  0.7302
    5SAPS  H14R  598   1.668   6.713   6.314  0.4629 -0.8062  1.9465
    5SAPS  C215  599   1.770   6.746   6.126 -0.2387  1.4082  0.2333
    5SAPS  H15R  600   1.723   6.844   6.109  0.2355  1.8488  1.3551
    5SAPS  C216  601   1.863   6.688   6.022  0.0720 -0.4851  0.2306
    5SAPS  H16R  602   1.843   6.582   5.996 -1.7878  0.3140 -1.8789
    5SAPS  H16S  603   1.965   6.690   6.067  1.3389  2.2197 -2.4529
    5SAPS  C217  604   1.885   6.763   5.888  0.3685 -0.7095  0.0485
    5SAPS  H17R  605   1.923   6.866   5.909 -2.2431  0.9608 -2.6772
    5SAPS  H17S  606   1.781   6.775   5.852  0.8181  1.1070 -0.7746
    5SAPS  C218  607   1.983   6.696   5.800 -1.1564  0.7812 -0.3306
    5SAPS  H18R  608   1.929   6.602   5.777  0.1920  0.0795 -0.7174
    5SAPS  H18S  609   2.067   6.671   5.869 -2.6415 -3.9966  0.0919
    5SAPS  C219  610   2.003   6.767   5.664 -0.1171  0.8849 -0.3951
    5SAPS  H19R  611   2.043   6.868   5.687 -1.1178  0.6538  2.8607
    5SAPS  H19S  612   1.904   6.794   5.621  0.1819 -0.0355 -1.7518
    5SAPS  C220  613   2.070   6.687   5.559 -0.5942 -0.2180 -0.4054
    5SAPS  H20R  614   2.066   6.730   5.457  0.1975 -1.0466 -0.7991
    5SAPS  H20S  615   2.013   6.592   5.547 -0.3777 -0.3862 -0.1076
    5SAPS  H20T  616   2.174   6.664   5.588  0.6705  1.8699 -2.9009
    5SAPS   C33  617   0.871   5.609   6.806 -0.0897 -0.4733  0.2479
    5SAPS   H3X  618   0.786   5.584   6.738  0.0114 -2.2869  0.7248
    5SAPS   H3Y  619   0.889   5.517   6.866 -0.4926 -0.6229  0.1447
    5SAPS   C34  620   0.995   5.612   6.718 -0.0071 -0.8934  0.6812
    5SAPS   H4X  621   1.022   5.508   6.692 -1.7908 -0.5648 -3.2077
    5SAPS   H4Y  622   1.085   5.656   6.767 -0.6835  0.2443  0.9576
    5SAPS   C35  623   0.968   5.676   6.579 -0.1891 -0.4204 -0.7598
    5SAPS   H5X  624   0.939   5.783   6.589  0.4113 -0.0498 -2.6663
    5SAPS   H5Y  625   0.879   5.624   6.538  0.7718 -0.6039 -2.7363
    5SAPS   C36  626   1.088   5.653   6.490  0.4901  0.5011  0.1776
    5SAPS   H6X  627   1.099   5.542   6.483 -1.2332  0.2581  0.8083
    5SAPS   H6Y  628   1.178   5.692   6.540  0.0745  0.0797  1.2911
    5SAPS   C37  629   1.065   5.720   6.349 -0.5381  0.3349 -0.2672
    5SAPS   H7X  630   1.023   5.823   6.352 -2.0779 -0.2366 -0.9973
    5SAPS   H7Y  631   0.990   5.665   6.289 -0.2797 -0.2900 -0.0188
    5SAPS   C38  632   1.196   5.722   6.261 -0.0942  0.7035 -0.3692
    5SAPS   H8X  633   1.227   5.615   6.261  1.6812  1.1563 -2.2694
    5SAPS   H8Y  634   1.266   5.791   6.312 -0.9982  1.1024  0.3765
    5SAPS   C39  635   1.149   5.761   6.123 -0.5698 -0.1092 -0.3225
    5SAPS   H9X  636   1.105   5.863   6.127  1.1068  0.7492 -2.1950
    5SAPS   H9Y  637   1.079   5.680   6.096 -0.4179  0.0089 -1.0925
    5SAPS  C310  638   1.265   5.771   6.029 -0.2284 -0.1242 -0.0694
    5SAPS  H10X  639   1.333   5.685   6.045  1.8385  1.4080 -0.1423
    5SAPS  H10Y  640   1.324   5.862   6.054  1.2717 -0.6721 -1.4274
    5SAPS  C311  641   1.212   5.778   5.883  0.0020 -0.3717  0.2890
    5SAPS  H11X  642   1.181   5.883   5.864  2.5526  0.1566 -1.3991
    5SAPS  H11Y  643   1.132   5.702   5.870  3.3674 -4.0407 -0.9913
    5SAPS  C312  644   1.327   5.728   5.785 -0.2693  0.4614 -1.0084
    5SAPS  H12X  645   1.336   5.618   5.798 -0.8480  0.6706  1.6751
    5SAPS  H12Y  646   1.426   5.759   5.823 -0.8505  0.8432  0.2400
    5SAPS  C313  647   1.307   5.757   5.639  0.4972 -0.1064  0.6920
    5SAPS  H13X  648   1.209   5.716   5.605  0.7984  0.1015 -0.4400
    5SAPS  H13Y  649   1.377   5.692   5.582 -0.6230 -1.4198  0.7516
    5SAPS  C314  650   1.327   5.906   5.591  0.3495 -0.2997 -0.6802
    5SAPS  H14X  651   1.433   5.934   5.612  0.1055  1.9459 -2.0566
    5SAPS  H14Y  652   1.260   5.972   5.649  0.5548 -0.1912 -0.5629
    5SAPS  C315  653   1.306   5.916   5.438 -0.5512  0.0756  0.3305
    5SAPS  H15X  654   1.201   5.883   5.423  0.4204 -2.3211 -1.7723
    5SAPS  H15Y  655   1.357   5.834   5.385 -2.1774 -0.1376 -0.9920
    5SAPS  C316  656   1.340   6.054   5.394 -0.4150 -0.8763  0.1252
    5SAPS  H16X  657   1.449   6.078   5.398 -0.7414  0.6606  0.5762
    5SAPS  H16Y  658   1.292   6.140   5.446  1.6671 -0.7039  1.9247
    5SAPS  C317  659   1.299   6.065   5.247  0.5116 -0.2486  0.0422
    5SAPS  H17X  660   1.188   6.062   5.242  0.4508  2.0249 -1.9100
    5SAPS  H17Y  661   1.335   5.983   5.181 -2.8996 -0.4594 -1.8013
    5SAPS  C318  662   1.308   6.201   5.175 -0.6024  0.5155 -0.3509
    5SAPS  H18X  663   1.408   6.249   5.177  0.3233 -1.2711 -1.6188
    5SAPS  H18Y  664   1.255   6.284   5.226  0.9299  2.3377 -1.5932
    5SAPS  H18Z  665   1.278   6.188   5.069  2.9783 -0.4398 -1.3569
    6SAPS     N  666   6.825   4.000   7.180  0.1716 -0.7205 -0.0354
    6SAPS   HN1  667   6.883   4.081   7.211 -0.1165 -0.3998 -0.3280
    6SAPS   HN2  668   6.837   3.992   7.077  2.0996 -2.2567  0.2535
    6SAPS   HN3  669   6.725   4.017   7.203  0.1703  1.1562 -1.2258
    6SAPS   C12  670   6.877   3.878   7.246  0.6878  0.8018 -0.6777
    6SAPS  H12A  671   6.981   3.866   7.218  0.3930  1.4940 -2.2393
    6SAPS   C13  672   6.863   3.883   7.403 -0.6449  0.6331 -0.5846
    6SAPS  O13A  673   6.862   3.998   7.450 -0.8174  0.0330 -0.0249
    6SAPS  O13B  674   6.891   3.780   7.467 -0.0343  0.6935  0.3140
    6SAPS   C11  675   6.798   3.749   7.199  0.3656 -0.8125 -0.1716
    6SAPS  H11A  676   6.694   3.740   7.238  0.0472  0.7912 -0.5652
    6SAPS  H11B  677   6.848   3.662   7.247  0.7043  0.1343  1.2478
    6SAPS     P  678   6.684   3.740   6.970  0.5047 -0.4928  0.1530
    6SAPS   O13  679   6.593   3.846   7.016 -0.0482  0.1906 -0.0082
    6SAPS   O14  680   6.710   3.740   6.822 -0.1229  0.1040  0.0772
    6SAPS   O12  681   6.813   3.751   7.062  0.0235  0.3406 -0.3285
    6SAPS   O11  682   6.635   3.601   7.020  0.0858  0.0377  0.2895
    6SAPS    C1  683   6.721   3.488   7.008 -0.0007  0.3879  0.5021
    6SAPS    HA  684   6.754   3.475   6.902 -1.1214  0.5838  0.1190
    6SAPS    HB  685   6.813   3.495   7.069 -0.8743 -3.1474  2.4758
    6SAPS    C2  686   6.655   3.352   7.033  0.3628 -0.4809 -1.0254
    6SAPS    HS  687   6.725   3.266   7.018  0.2896 -1.3163  2.5477
    6SAPS   O21  688   6.534   3.343   6.955  0.9413 -0.2317 -0.2170
    6SAPS   C21  689   6.545   3.297   6.830  0.1646 -0.4398 -0.5368
    6SAPS   O22  690   6.644   3.238   6.787 -0.1713  0.2402  0.0612
    6SAPS   C22  691   6.410   3.316   6.760 -1.0385  0.3510  0.1118
    6SAPS   H2R  692   6.332   3.254   6.808 -1.0417  0.5427  0.3596
    6SAPS   H2S  693   6.384   3.424   6.773  0.5834  0.8281 -0.4041
    6SAPS    C3  694   6.621   3.355   7.185 -0.1132 -0.4055  0.0902
    6SAPS    HX  695   6.563   3.449   7.198  1.2400  0.2523  1.9064
    6SAPS    HY  696   6.716   3.362   7.243  0.1680  1.5563 -0.5190
    6SAPS   O31  697   6.533   3.246   7.223 -0.4568 -0.3330 -0.8795
    6SAPS   C31  698   6.402   3.267   7.228  0.2781  0.2065  0.2583
    6SAPS   O32  699   6.341   3.375   7.221 -0.8698  0.7718  0.0404
    6SAPS   C32  700   6.324   3.139   7.211 -0.1306  0.2608  0.3286
    6SAPS   H2X  701   6.229   3.149   7.267 -0.2876  1.0854 -0.0673
    6SAPS   H2Y  702   6.383   3.052   7.248 -0.9709  0.3955  2.0906
    6SAPS   C23  703   6.423   3.279   6.617 -0.2160  0.0833  0.2796
    6SAPS   H3R  704   6.466   3.177   6.608 -0.5867 -0.2120  1.6623
    6SAPS   H3S  705   6.500   3.351   6.580  0.4706 -0.7451  0.0543
    6SAPS   C24  706   6.292   3.317   6.539 -0.0307  0.5181 -1.0821
    6SAPS   H4R  707   6.323   3.310   6.432  0.2862  2.0583 -1.1147
    6SAPS   H4S  708   6.265   3.424   6.553  2.0263  0.8030  1.2976
    6SAPS   C25  709   6.174   3.224   6.574  0.2358 -0.1043 -0.6691
    6SAPS   H5R  710   6.154   3.196   6.679  0.0505 -0.8105 -0.8886
    6SAPS   C26  711   6.090   3.163   6.487  0.0977  0.2771 -0.0483
    6SAPS   H6R  712   6.000   3.111   6.523  0.4756  0.9808  2.0163
    6SAPS   C27  713   6.099   3.177   6.338  0.1380 -0.0131  0.2069
    6SAPS   H7R  714   6.098   3.284   6.306 -2.9210  0.5142  1.6627
    6SAPS   H7S  715   5.996   3.144   6.312 -0.4502  1.9394 -0.0964
    6SAPS   C28  716   6.190   3.094   6.259 -0.3629 -0.4923  0.3387
    6SAPS   H8R  717   6.250   3.020   6.313  1.1739 -0.1802 -0.8839
    6SAPS   C29  718   6.212   3.108   6.128  0.0005 -0.0613 -0.1243
    6SAPS   H9R  719   6.288   3.039   6.087  1.1433  0.7601  0.5564
    6SAPS  C210  720   6.150   3.200   6.029  0.3203 -0.6223  0.1643
    6SAPS  H10R  721   6.227   3.269   5.989 -0.0948 -0.2778 -0.0461
    6SAPS  H10S  722   6.063   3.247   6.079 -1.9230 -2.9704 -1.2902
    6SAPS  C211  723   6.089   3.122   5.911 -0.4698  0.5879  0.0600
    6SAPS  H11R  724   6.039   3.028   5.939 -0.7468  1.1592  1.5535
    6SAPS  C212  725   6.114   3.148   5.779 -0.3775  0.0872  0.6118
    6SAPS  H12R  726   6.061   3.081   5.709 -2.5702  1.0468  1.2798
    6SAPS  C213  727   6.183   3.279   5.727 -0.1324 -0.4123 -0.6418
    6SAPS  H13R  728   6.286   3.295   5.766 -0.1903  0.7506 -0.9119
    6SAPS  H13S  729   6.129   3.367   5.767  0.3837  0.1183 -1.0933
    6SAPS  C214  730   6.178   3.287   5.578  0.3263  0.2022 -0.5506
    6SAPS  H14R  731   6.269   3.250   5.529 -0.2495 -0.3109 -1.2435
    6SAPS  C215  732   6.082   3.338   5.497 -0.0500  0.2373  0.2229
    6SAPS  H15R  733   6.099   3.321   5.389  2.1237 -2.5469  0.8743
    6SAPS  C216  734   5.947   3.399   5.547 -0.6205 -0.5032  1.0916
    6SAPS  H16R  735   5.929   3.384   5.655 -3.6688 -0.8229  0.6282
    6SAPS  H16S  736   5.858   3.355   5.498 -1.2621  0.4137  1.4099
    6SAPS  C217  737   5.928   3.544   5.503  0.1909  0.2350  0.3424
    6SAPS  H17R  738   5.998   3.613   5.553  0.5611  0.0840  0.0342
    6SAPS  H17S  739   5.826   3.568   5.539  0.2509  0.6648  0.2220
    6SAPS  C218  740   5.919   3.560   5.355 -0.3609  0.5020  0.1408
    6SAPS  H18R  741   5.859   3.475   5.318  0.8602  0.0419 -0.8728
    6SAPS  H18S  742   6.024   3.550   5.319 -0.2903  2.0130 -0.1584
    6SAPS  C219  743   5.882   3.693   5.303  0.3420 -0.6670 -0.3842
    6SAPS  H19R  744   5.899   3.686   5.193  0.6495 -1.0648 -0.3127
    6SAPS  H19S  745   5.947   3.771   5.348 -0.3473  0.8303 -1.8411
    6SAPS  C220  746   5.734   3.734   5.323  0.1376  0.2880  0.5710
    6SAPS  H20R  747   5.713   3.758   5.429 -0.2519  2.3227  0.0734
    6SAPS  H20S  748   5.660   3.656   5.292  2.3649 -1.5656 -0.3682
    6SAPS  H20T  749   5.710   3.828   5.268  1.4447  0.6364  0.5667
    6SAPS   C33  750   6.284   3.123   7.062  0.1581 -0.1169  0.9097
    6SAPS   H3X  751   6.379   3.117   7.004 -1.1942  3.5825 -2.0606
    6SAPS   H3Y  752   6.228   3.214   7.032  0.8186 -0.7651 -2.7791
    6SAPS   C34  753   6.192   3.003   7.034 -0.1400 -0.9889 -0.2463
    6SAPS   H4X  754   6.108   2.996   7.107  0.4241  0.0661  0.5447
    6SAPS   H4Y  755   6.253   2.914   7.059  1.9298  0.5424  0.4438
    6SAPS   C35  756   6.150   3.000   6.890 -0.0548  0.1054 -0.0833
    6SAPS   H5X  757   6.234   3.039   6.828  0.7501 -0.3621  0.6914
    6SAPS   H5Y  758   6.060   3.066   6.885  0.5748  0.9651 -0.3045
    6SAPS   C36  759   6.114   2.850   6.863 -0.0762 -0.5277  0.4566
    6SAPS   H6X  760   6.051   2.820   6.949  1.3973  0.4656  1.9494
    6SAPS   H6Y  761   6.212   2.798   6.865  0.5009  0.5593  1.1545
    6SAPS   C37  762   6.046   2.846   6.722 -0.4393  0.5617 -0.2932
    6SAPS   H7X  763   6.127   2.863   6.648  0.3972 -1.6950  0.0340
    6SAPS   H7Y  764   5.963   2.918   6.703 -1.1005  0.2714  1.3310
    6SAPS   C38  765   5.984   2.703   6.698 -0.2366 -0.6528 -0.7500
    6SAPS   H8X  766   5.891   2.702   6.758  0.0366  0.8189 -0.2380
    6SAPS   H8Y  767   6.061   2.627   6.724  1.2130  0.5514 -1.3583
    6SAPS   C39  768   5.948   2.687   6.547  0.2621 -0.4807  0.1140
    6SAPS   H9X  769   5.883   2.776   6.531  1.0489  0.1471  0.3397
    6SAPS   H9Y  770   5.889   2.593   6.537 -0.3372 -0.4172  2.4314
    6SAPS  C310  771   6.066   2.702   6.448 -0.3106 -0.0331  0.8295
    6SAPS  H10X  772   6.116   2.603   6.458  0.6850  0.2277 -1.0034
    6SAPS  H10Y  773   6.141   2.781   6.472 -0.8873  0.8242 -0.0979
    6SAPS  C311  774   6.008   2.716   6.310 -0.0312  0.1190 -0.0742
    6SAPS  H11X  775   5.933   2.797   6.316 -3.1599 -2.6150  0.8808
    6SAPS  H11Y  776   5.944   2.628   6.288 -1.7677  1.7080 -1.6526
    6SAPS  C312  777   6.117   2.721   6.200 -0.5121  0.1678 -1.1500
    6SAPS  H12X  778   6.170   2.624   6.216 -2.5301 -0.9261 -0.7336
    6SAPS  H12Y  779   6.187   2.800   6.233 -1.8748  0.6234  0.8453
    6SAPS  C313  780   6.067   2.735   6.060 -0.1323  0.5344 -0.0007
    6SAPS  H13X  781   5.990   2.814   6.050 -0.0003  0.5633 -0.9487
    6SAPS  H13Y  782   6.008   2.642   6.045  0.3099  0.4086 -1.0782
    6SAPS  C314  783   6.176   2.750   5.955  0.1155  0.2266 -0.1365
    6SAPS  H14X  784   6.252   2.670   5.965  0.4379  0.7852  2.7527
    6SAPS  H14Y  785   6.223   2.851   5.964 -2.3130  1.3584  0.5304
    6SAPS  C315  786   6.115   2.748   5.811 -0.1786 -0.1396 -0.3157
    6SAPS  H15X  787   6.041   2.831   5.797  0.3879  0.3238 -0.6141
    6SAPS  H15Y  788   6.067   2.650   5.790 -1.9080  0.6230 -0.1777
    6SAPS  C316  789   6.227   2.782   5.714  0.0204  0.3776 -0.1949
    6SAPS  H16X  790   6.301   2.699   5.708 -2.0161 -1.5858  0.0174
    6SAPS  H16Y  791   6.280   2.872   5.752 -1.1277  1.3328 -0.7986
    6SAPS  C317  792   6.163   2.806   5.583  0.3447  0.2402 -0.0090
    6SAPS  H17X  793   6.094   2.893   5.586  0.1310  0.1118 -0.8252
    6SAPS  H17Y  794   6.102   2.715   5.560 -1.2245  0.6735  2.1117
    6SAPS  C318  795   6.270   2.830   5.479 -0.4326  0.5098  0.4033
    6SAPS  H18X  796   6.211   2.841   5.385  0.6294 -1.1094 -0.4886
    6SAPS  H18Y  797   6.327   2.735   5.478 -1.6126 -0.2158  0.1904
    6SAPS  H18Z  798   6.340   2.915   5.498  0.6350  0.3578 -2.3609
    7SAPS     N  799   1.979   1.711   7.805 -0.3350  0.0864  0.0252
    7SAPS   HN1  800   2.042   1.746   7.880 -1.1547  2.3832 -0.2992
    7SAPS   HN2  801   1.885   1.747   7.832  0.5688  2.0779  0.7006
    7SAPS   HN3  802   1.979   1.607   7.815  1.1639  0.1579  1.0595
    7SAPS   C12  803   2.013   1.762   7.675  0.0687 -0.1509  0.1496
    7SAPS  H12A  804   2.022   1.870   7.686 -0.0826 -0.0124 -0.9665
    7SAPS   C13  805   2.149   1.719   7.619 -1.0933 -0.9886  0.3221
    7SAPS  O13A  806   2.232   1.654   7.686 -0.0674  0.1909  0.4751
    7SAPS  O13B  807   2.192   1.783   7.517 -0.2306 -0.0361  0.2230
    7SAPS   C11  808   1.902   1.716   7.573 -0.0319 -0.2531 -0.1839
    7SAPS  H11A  809   1.901   1.605   7.563 -0.6516 -0.2261 -0.5304
    7SAPS  H11B  810   1.927   1.753   7.471 -1.2143 -1.0176 -0.7815
    7SAPS     P  811   1.693   1.869   7.552 -0.3953  0.4118 -0.0454
    7SAPS   O13  812   1.596   1.916   7.653 -0.1612 -0.1300  0.1606
    7SAPS   O14  813   1.783   1.970   7.493 -0.0460 -0.4466 -0.7543
    7SAPS   O12  814   1.772   1.752   7.618 -0.2976 -0.7267 -0.4491
    7SAPS   O11  815   1.618   1.806   7.428  0.4983  0.1611 -0.5796
    7SAPS    C1  816   1.629   1.674   7.381 -0.0131 -0.5677  0.5279
    7SAPS    HA  817   1.732   1.661   7.342 -0.5644 -1.6389 -0.6719
    7SAPS    HB  818   1.621   1.591   7.455  2.3188 -1.8531 -0.5380
    7SAPS    C2  819   1.534   1.656   7.252 -0.0497 -0.0695 -0.2894
    7SAPS    HS  820   1.525   1.546   7.240 -1.0709 -0.5046  3.2049
    7SAPS   O21  821   1.588   1.711   7.132 -0.3047  0.8188 -0.2015
    7SAPS   C21  822   1.692   1.655   7.084  0.0948  0.4168  0.8691
    7SAPS   O22  823   1.741   1.549   7.121  0.1174 -0.2291 -0.2781
    7SAPS   C22  824   1.749   1.754   6.983  0.4324  0.1704 -0.6960
    7SAPS   H2R  825   1.676   1.771   6.901  0.3516 -0.5388 -0.7833
    7SAPS   H2S  826   1.770   1.848   7.038  2.9259 -0.7191  0.0107
    7SAPS    C3  827   1.397   1.719   7.291  0.6808  0.0551 -0.3657
    7SAPS    HX  828   1.406   1.829   7.298 -0.7764  0.1682 -0.0061
    7SAPS    HY  829   1.380   1.694   7.398  1.6915 -2.1893 -0.6734
    7SAPS   O31  830   1.284   1.676   7.212  0.2931  0.1641  0.0297
    7SAPS   C31  831   1.250   1.554   7.235 -0.8724  0.6415 -0.4062
    7SAPS   O32  832   1.297   1.479   7.325 -0.0477 -0.6622 -0.2209
    7SAPS   C32  833   1.134   1.525   7.150 -0.0971 -0.2719 -0.4523
    7SAPS   H2X  834   1.053   1.586   7.195 -0.0948 -1.0851  0.6948
    7SAPS   H2Y  835   1.091   1.423   7.157 -1.6509  0.3055 -1.0900
    7SAPS   C23  836   1.878   1.714   6.924 -0.0703 -0.6569 -0.1081
    7SAPS   H3R  837   1.961   1.691   6.994 -0.5894  0.6084  0.9590
    7SAPS   H3S  838   1.915   1.804   6.871  1.7182 -0.2370  1.7376
    7SAPS   C24  839   1.853   1.603   6.820  0.3025 -0.4645  0.0107
    7SAPS   H4R  840   1.767   1.625   6.754  0.5839  0.1078 -0.1732
    7SAPS   H4S  841   1.814   1.518   6.881 -0.7630  1.3922  2.0817
    7SAPS   C25  842   1.983   1.558   6.747  0.3590 -0.3728  0.2782
    7SAPS   H5R  843   2.063   1.517   6.811  0.3413 -0.4127  0.2748
    7SAPS   C26  844   1.998   1.556   6.613  0.3654  0.3443  0.3322
    7SAPS   H6R  845   2.087   1.505   6.573 -0.0165  0.9271 -1.3160
    7SAPS   C27  846   1.902   1.616   6.512  0.2870 -0.0522  0.2467
    7SAPS   H7R  847   1.962   1.670   6.436 -0.1837  0.6204  0.3475
    7SAPS   H7S  848   1.839   1.694   6.560  0.2274  0.8691 -1.2713
    7SAPS   C28  849   1.828   1.507   6.452 -0.4336  0.7163  0.1496
    7SAPS   H8R  850   1.753   1.457   6.514 -0.6388 -1.1701 -1.5224
    7SAPS   C29  851   1.844   1.459   6.328 -0.5231  0.2928  0.1509
    7SAPS   H9R  852   1.767   1.384   6.304 -1.0499  0.9461 -0.2582
    7SAPS  C210  853   1.946   1.511   6.232  0.4923 -0.5296 -0.2408
    7SAPS  H10R  854   2.026   1.574   6.276  0.0235 -1.7144  2.4461
    7SAPS  H10S  855   1.888   1.578   6.165  0.5233 -0.7843 -0.5247
    7SAPS  C211  856   1.999   1.401   6.143 -0.0259 -0.0415 -0.2316
    7SAPS  H11R  857   2.091   1.351   6.176 -1.7292 -1.7209  2.2914
    7SAPS  C212  858   1.951   1.364   6.021 -0.1824 -0.2765 -0.0938
    7SAPS  H12R  859   1.998   1.276   5.974  0.1399 -0.4985  0.6286
    7SAPS  C213  860   1.828   1.414   5.955  0.4098 -0.2964  0.1688
    7SAPS  H13R  861   1.853   1.459   5.857  0.5812 -0.8271 -0.0332
    7SAPS  H13S  862   1.780   1.489   6.021 -1.7555 -1.4011 -0.0398
    7SAPS  C214  863   1.721   1.306   5.934  0.7139  0.5578 -0.9940
    7SAPS  H14R  864   1.693   1.246   6.022  0.8850  0.9378 -0.6797
    7SAPS  C215  865   1.669   1.272   5.816  1.1576  0.1761  0.0869
    7SAPS  H15R  866   1.588   1.197   5.814 -0.4627  1.8325  0.8443
    7SAPS  C216  867   1.709   1.324   5.681 -0.7044 -0.0109  0.7467
    7SAPS  H16R  868   1.728   1.245   5.605 -2.4203 -1.3516  1.6304
    7SAPS  H16S  869   1.799   1.388   5.687 -0.4034 -0.3352 -0.1305
    7SAPS  C217  870   1.596   1.404   5.623 -0.3522 -0.3815 -0.2240
    7SAPS  H17R  871   1.595   1.502   5.675  0.5546 -0.6216  0.2643
    7SAPS  H17S  872   1.498   1.355   5.644 -1.2338  0.6583 -1.7544
    7SAPS  C218  873   1.611   1.425   5.473  0.5700 -0.2407 -0.0305
    7SAPS  H18R  874   1.511   1.463   5.445 -0.3723 -1.8569  0.9631
    7SAPS  H18S  875   1.637   1.330   5.421  2.2039  0.5387 -0.7152
    7SAPS  C219  876   1.727   1.523   5.450  0.3663  0.5750  0.5436
    7SAPS  H19R  877   1.824   1.470   5.464  0.5054  0.7043  0.0710
    7SAPS  H19S  878   1.719   1.603   5.527 -1.3954  1.1203 -0.1539
    7SAPS  C220  879   1.735   1.589   5.310  0.2576 -0.2042 -0.1143
    7SAPS  H20R  880   1.793   1.683   5.319 -0.1272  0.3154 -2.4739
    7SAPS  H20S  881   1.634   1.624   5.281  0.7156  1.0126 -0.3112
    7SAPS  H20T  882   1.776   1.517   5.236 -0.2347  0.9093 -1.5084
    7SAPS   C33  883   1.165   1.578   7.008 -0.8005  0.0102  0.2788
    7SAPS   H3X  884   1.182   1.687   7.001  0.0513 -0.1993 -1.2624
    7SAPS   H3Y  885   1.079   1.557   6.941  0.2816 -1.6594 -0.6579
    7SAPS   C34  886   1.300   1.528   6.949 -0.0240 -0.8167  0.0332
    7SAPS   H4X  887   1.309   1.418   6.961 -1.9134 -1.1446 -1.2339
    7SAPS   H4Y  888   1.372   1.588   7.009 -0.0274 -0.4509 -0.3265
    7SAPS   C35  889   1.330   1.578   6.803 -0.4868  0.3917 -0.1707
    7SAPS   H5X  890   1.255   1.528   6.737 -0.3842  1.1939 -0.9203
    7SAPS   H5Y  891   1.425   1.536   6.764 -0.0661  1.3850 -0.2548
    7SAPS   C36  892   1.335   1.732   6.778  0.0735  0.7482 -0.4649
    7SAPS   H6X  893   1.404   1.769   6.856 -0.0469  0.4873 -0.2314
    7SAPS   H6Y  894   1.236   1.782   6.781  0.2005  1.1469 -2.0925
    7SAPS   C37  895   1.385   1.762   6.639  0.2499  0.5894 -0.0551
    7SAPS   H7X  896   1.313   1.728   6.562  0.8652  0.9331 -0.7918
    7SAPS   H7Y  897   1.482   1.710   6.628 -0.9584 -1.9029  0.3244
    7SAPS   C38  898   1.407   1.916   6.623  0.0260 -0.2708  0.5920
    7SAPS   H8X  899   1.460   1.947   6.716  2.2218 -3.5099  0.5886
    7SAPS   H8Y  900   1.312   1.971   6.608 -0.8367 -1.7860  0.3546
    7SAPS   C39  901   1.517   1.944   6.520  0.0599 -0.8912  0.4164
    7SAPS   H9X  902   1.611   1.890   6.545 -0.1197 -1.3946  0.0071
    7SAPS   H9Y  903   1.547   2.047   6.551  2.8740 -1.3835 -0.3383
    7SAPS  C310  904   1.476   1.938   6.381 -0.3367 -0.5191  0.0484
    7SAPS  H10X  905   1.402   2.020   6.363 -0.4423 -0.5615  0.2748
    7SAPS  H10Y  906   1.426   1.846   6.345 -1.1087  0.0064 -0.2618
    7SAPS  C311  907   1.595   1.973   6.290 -0.6017  1.5034  0.4158
    7SAPS  H11X  908   1.665   1.889   6.310  0.7867  2.5379  0.1173
    7SAPS  H11Y  909   1.645   2.072   6.300  2.0669  0.4495 -1.2058
    7SAPS  C312  910   1.559   1.965   6.138  0.4221  0.3919 -0.1304
    7SAPS  H12X  911   1.471   2.032   6.120  2.4648  2.4693 -3.6295
    7SAPS  H12Y  912   1.531   1.861   6.112 -3.1499  0.7324  1.7337
    7SAPS  C313  913   1.681   2.010   6.060 -0.1651  0.0272 -0.0813
    7SAPS  H13X  914   1.778   1.962   6.081 -0.6855 -0.5850  0.9876
    7SAPS  H13Y  915   1.687   2.120   6.077 -0.4742  0.0857 -0.3345
    7SAPS  C314  916   1.642   1.992   5.916 -0.5410 -0.8026  1.3756
    7SAPS  H14X  917   1.548   2.050   5.904 -0.6557 -1.0099  1.2594
    7SAPS  H14Y  918   1.617   1.885   5.905 -1.2790 -0.3820 -2.6251
    7SAPS  C315  919   1.754   2.038   5.816 -0.7846  0.0424  0.4416
    7SAPS  H15X  920   1.840   1.968   5.828 -1.2938 -0.3307  2.1394
    7SAPS  H15Y  921   1.797   2.137   5.844 -1.6556  0.0669  1.8061
    7SAPS  C316  922   1.709   2.042   5.667 -0.1490 -0.2155  0.3198
    7SAPS  H16X  923   1.659   1.953   5.622 -2.9131  1.2866  0.2109
    7SAPS  H16Y  924   1.798   2.063   5.604 -0.4997  2.7315  0.6622
    7SAPS  C317  925   1.620   2.163   5.629 -0.4325  0.7574 -0.6419
    7SAPS  H17X  926   1.688   2.245   5.661  1.3812  0.0933 -2.5030
    7SAPS  H17Y  927   1.529   2.161   5.692 -1.0535 -0.0374 -1.5261
    7SAPS  C318  928   1.581   2.201   5.483 -0.6932 -0.0652  0.2886
    7SAPS  H18X  929   1.512   2.118   5.455  0.3899 -1.0746  0.4883
    7SAPS  H18Y  930   1.672   2.214   5.422  0.5420 -2.8747  1.3271
    7SAPS  H18Z  931   1.523   2.294   5.500  1.2658  1.4013 -0.6309
    8SAPS     N  932   6.010   6.784   7.516 -0.1417  0.0130 -0.5220
    8SAPS   HN1  933   6.109   6.811   7.533 -0.4012  0.2800  0.6365
    8SAPS   HN2  934   5.998   6.681   7.527  1.6835 -0.1123  0.5448
    8SAPS   HN3  935   5.991   6.791   7.414  0.1231 -3.7056 -0.9874
    8SAPS   C12  936   5.917   6.853   7.616 -0.0889 -0.0642  1.0267
    8SAPS  H12A  937   5.851   6.774   7.648 -0.2362  0.4096  1.9252
    8SAPS   C13  938   5.986   6.915   7.743  0.4443  0.2820 -0.4665
    8SAPS  O13A  939   6.101   6.892   7.770  0.7648  0.4747  0.5825
    8SAPS  O13B  940   5.913   6.971   7.830 -0.3946 -0.0644  0.1965
    8SAPS   C11  941   5.837   6.961   7.535 -0.1884  0.2064 -0.2455
    8SAPS  H11A  942   5.906   7.035   7.491  0.4555  0.2032  0.7388
    8SAPS  H11B  943   5.766   7.008   7.607 -0.2592  0.7515 -0.6636
    8SAPS     P  944   5.706   6.979   7.316  0.1159  0.4877  0.4426
    8SAPS   O13  945   5.597   6.906   7.245  0.1048 -0.7835 -0.1363
    8SAPS   O14  946   5.683   7.117   7.366 -0.2714  0.0514 -0.1132
    8SAPS   O12  947   5.757   6.896   7.430 -0.2377  0.6607 -0.0045
    8SAPS   O11  948   5.835   6.978   7.224 -0.0617  0.7692 -0.1069
    8SAPS    C1  949   5.869   7.103   7.150 -0.8512  0.5862 -0.2997
    8SAPS    HA  950   5.786   7.143   7.087 -1.1679  2.2425  1.1016
    8SAPS    HB  951   5.889   7.189   7.217  0.0475  0.2489 -0.1213
    8SAPS    C2  952   5.992   7.069   7.066 -0.2026 -0.3003  0.2594
    8SAPS    HS  953   6.051   7.001   7.132  0.8483 -1.9557 -2.2674
    8SAPS   O21  954   6.053   7.191   7.029 -0.1293  1.1032 -0.2124
    8SAPS   C21  955   6.152   7.222   7.106  0.3369 -0.5669 -0.3676
    8SAPS   O22  956   6.187   7.162   7.210 -0.5615 -0.2454 -0.2772
    8SAPS   C22  957   6.223   7.342   7.049 -0.1501  0.1426  0.2285
    8SAPS   H2R  958   6.150   7.422   7.024  0.2974  0.2501 -0.7863
    8SAPS   H2S  959   6.278   7.381   7.137 -0.6129  0.7055  0.2717
    8SAPS    C3  960   5.948   6.995   6.932  0.5726 -0.0064  0.3492
    8SAPS    HX  961   5.912   7.078   6.868  0.6255  0.9195  1.4756
    8SAPS    HY  962   5.861   6.928   6.947  0.4323 -0.0500 -0.6362
    8SAPS   O31  963   6.058   6.924   6.866  0.0016 -1.0320  0.3172
    8SAPS   C31  964   6.017   6.880   6.742  0.5337  0.2462  0.0422
    8SAPS   O32  965   5.910   6.908   6.696  0.0245  0.3808  0.6795
    8SAPS   C32  966   6.138   6.810   6.683 -0.5609  0.2097  0.0937
    8SAPS   H2X  967   6.111   6.702   6.687 -1.2716  0.2126 -2.7840
    8SAPS   H2Y  968   6.224   6.825   6.752  0.0593  2.4263 -1.0494
    8SAPS   C23  969   6.309   7.313   6.922 -0.2538 -0.6455 -0.4562
    8SAPS   H3R  970   6.245   7.270   6.842  1.1221  0.6439 -2.3603
    8SAPS   H3S  971   6.391   7.245   6.956 -1.0656 -1.9409 -1.0017
    8SAPS   C24  972   6.370   7.438   6.859  0.6657 -0.0453 -0.1357
    8SAPS   H4R  973   6.282   7.502   6.836  0.4781 -0.5782 -0.9290
    8SAPS   H4S  974   6.422   7.424   6.763 -1.1397  1.6076 -1.4458
    8SAPS   C25  975   6.467   7.519   6.949  0.4563  0.2590  0.5478
    8SAPS   H5R  976   6.423   7.584   7.026 -1.0130 -0.4950  0.3934
    8SAPS   C26  977   6.603   7.519   6.941  0.2080  0.1837  0.1855
    8SAPS   H6R  978   6.664   7.573   7.015  3.2027 -1.1305 -1.1643
    8SAPS   C27  979   6.685   7.438   6.844 -0.2467 -0.5790  0.2356
    8SAPS   H7R  980   6.616   7.397   6.767 -1.8075  4.6448 -1.5834
    8SAPS   H7S  981   6.729   7.346   6.888 -2.0195 -1.3890  0.3879
    8SAPS   C28  982   6.786   7.528   6.778 -0.4830 -0.2335  0.8040
    8SAPS   H8R  983   6.824   7.613   6.836  0.7753 -0.8317  0.8981
    8SAPS   C29  984   6.845   7.505   6.657 -0.3840 -0.5823 -0.0880
    8SAPS   H9R  985   6.920   7.577   6.622 -0.7999 -0.2186 -0.2468
    8SAPS  C210  986   6.799   7.382   6.571 -0.8006  0.0988 -0.2409
    8SAPS  H10R  987   6.712   7.414   6.510  0.2290  0.6578 -1.4653
    8SAPS  H10S  988   6.770   7.299   6.638  0.4484 -1.4229 -1.5224
    8SAPS  C211  989   6.919   7.340   6.480 -0.1493  0.5229  0.7824
    8SAPS  H11R  990   7.022   7.327   6.514  0.6223 -0.4925 -1.7288
    8SAPS  C212  991   6.912   7.311   6.348  1.0850  0.5495  0.3034
    8SAPS  H12R  992   7.000   7.264   6.301 -0.1948 -2.3505  0.5488
    8SAPS  C213  993   6.793   7.328   6.254  0.0150 -0.3299  0.1827
    8SAPS  H13R  994   6.817   7.422   6.199 -0.7560 -0.4319 -0.3595
    8SAPS  H13S  995   6.701   7.344   6.314 -0.5413 -3.5775  0.3671
    8SAPS  C214  996   6.765   7.203   6.182  0.4880 -0.8672 -0.4487
    8SAPS  H14R  997   6.705   7.134   6.242  0.8282 -0.4259  0.4207
    8SAPS  C215  998   6.797   7.171   6.055 -0.0280  0.0277  0.1975
    8SAPS  H15R  999   6.754   7.080   6.013 -1.7628  1.1836 -0.6738
    8SAPS  C216 1000   6.884   7.252   5.959  0.5670  0.3448  0.1418
    8SAPS  H16R 1001   6.987   7.209   5.956  0.9162  1.0612  1.3576
    8SAPS  H16S 1002   6.904   7.357   5.989  0.7872  0.1662  0.6292
    8SAPS  C217 1003   6.828   7.236   5.813 -0.3823  0.3058  0.2120
    8SAPS  H17R 1004   6.891   7.302   5.749 -0.7476  1.6395  1.1829
    8SAPS  H17S 1005   6.728   7.285   5.815 -0.8855 -0.6404 -0.6915
    8SAPS  C218 1006   6.812   7.094   5.749 -0.0038 -0.2028  0.3680
    8SAPS  H18R 1007   6.767   7.027   5.826 -1.3422  1.2610  0.9107
    8SAPS  H18S 1008   6.911   7.053   5.720 -0.5742 -1.3452 -0.0132
    8SAPS  C219 1009   6.723   7.093   5.624  0.0706  0.2377  0.1818
    8SAPS  H19R 1010   6.621   7.137   5.631 -0.1797  0.1588 -2.0913
    8SAPS  H19S 1011   6.701   6.991   5.587 -0.5070  0.8409 -1.2232
    8SAPS  C220 1012   6.777   7.175   5.514  0.1343  0.2251 -0.4396
    8SAPS  H20R 1013   6.732   7.136   5.420  1.9133 -1.9041 -0.4885
    8SAPS  H20S 1014   6.879   7.141   5.486 -0.1417 -2.2796  1.2953
    8SAPS  H20T 1015   6.762   7.285   5.521  0.7034  0.2288  0.9827
    8SAPS   C33 1016   6.163   6.853   6.537  0.5650 -0.3411 -0.3858
    8SAPS   H3X 1017   6.259   6.808   6.506  1.5226  1.0634  0.4315
    8SAPS   H3Y 1018   6.178   6.963   6.536  2.6737 -0.5807  0.2250
    8SAPS   C34 1019   6.050   6.820   6.441 -0.2110 -0.0968  0.2945
    8SAPS   H4X 1020   5.963   6.886   6.457 -0.4359  0.0944 -1.5342
    8SAPS   H4Y 1021   6.029   6.711   6.449  1.9139 -0.5662  0.2439
    8SAPS   C35 1022   6.100   6.856   6.305 -0.6638  0.3455  0.0043
    8SAPS   H5X 1023   6.194   6.800   6.289 -1.1374 -0.4941  0.0747
    8SAPS   H5Y 1024   6.133   6.962   6.299 -0.3385  0.2078 -0.6685
    8SAPS   C36 1025   5.999   6.808   6.204  0.4968 -0.2018  0.6599
    8SAPS   H6X 1026   5.916   6.878   6.186 -0.3879 -0.6269  2.7835
    8SAPS   H6Y 1027   5.959   6.708   6.230  1.4168  0.0012  3.1764
    8SAPS   C37 1028   6.064   6.805   6.067 -0.4098 -0.2406 -0.2040
    8SAPS   H7X 1029   6.150   6.734   6.067  0.1096  0.3156  1.6607
    8SAPS   H7Y 1030   6.103   6.906   6.042 -2.3060  0.5620 -0.0849
    8SAPS   C38 1031   5.959   6.781   5.953 -0.1069 -0.0108  0.2916
    8SAPS   H8X 1032   5.864   6.838   5.961  0.6250  1.6219 -1.7785
    8SAPS   H8Y 1033   5.927   6.675   5.964  2.4737 -1.0009 -0.9348
    8SAPS   C39 1034   6.026   6.787   5.816  0.1929 -0.2764 -0.1256
    8SAPS   H9X 1035   6.121   6.730   5.823  2.4164  3.1560  0.7000
    8SAPS   H9Y 1036   6.047   6.894   5.794  0.0841 -0.2147  0.0728
    8SAPS  C310 1037   5.940   6.730   5.706  0.0515  0.0705  0.5098
    8SAPS  H10X 1038   5.840   6.774   5.726 -0.7919 -1.1074 -0.9593
    8SAPS  H10Y 1039   5.932   6.620   5.718 -0.3244 -0.1498 -1.5470
    8SAPS  C311 1040   5.984   6.764   5.569 -0.0151 -0.6740  0.4724
    8SAPS  H11X 1041   6.094   6.750   5.567  0.0781  0.0379 -1.4602
    8SAPS  H11Y 1042   5.977   6.874   5.552  2.6673 -0.4151  0.5461
    8SAPS  C312 1043   5.921   6.672   5.465 -0.2008 -0.2416  1.0565
    8SAPS  H12X 1044   5.810   6.674   5.467 -0.3684  0.9211 -2.5356
    8SAPS  H12Y 1045   5.961   6.569   5.475 -0.0552 -0.5781 -2.0976
    8SAPS  C313 1046   5.962   6.708   5.326 -0.5086 -0.1253  0.7378
    8SAPS  H13X 1047   6.073   6.701   5.314 -0.6574  1.1758 -2.3088
    8SAPS  H13Y 1048   5.940   6.811   5.292  2.1341 -0.1580 -1.5088
    8SAPS  C314 1049   5.903   6.608   5.221 -1.4280  0.0766  0.6342
    8SAPS  H14X 1050   5.796   6.585   5.242 -1.6655  0.9634  0.4295
    8SAPS  H14Y 1051   5.961   6.514   5.219 -0.1598  0.8469  0.4099
    8SAPS  C315 1052   5.914   6.660   5.076 -0.2992  0.0078  0.2811
    8SAPS  H15X 1053   5.834   6.736   5.066 -1.3130 -1.0069  0.4075
    8SAPS  H15Y 1054   5.880   6.580   5.007 -1.3213  0.1613  0.5795
    8SAPS  C316 1055   6.050   6.701   5.028 -0.4675  0.0421 -0.5320
    8SAPS  H16X 1056   6.122   6.617   5.038  0.3331  0.7130 -0.5716
    8SAPS  H16Y 1057   6.096   6.783   5.086  1.3414 -0.8282 -0.6823
    8SAPS  C317 1058   6.045   6.759   4.887 -0.7572  0.7408  0.0814
    8SAPS  H17X 1059   5.980   6.848   4.882 -1.8800 -0.0496  0.3289
    8SAPS  H17Y 1060   6.010   6.677   4.820  0.4928  0.4128 -0.2019
    8SAPS  C318 1061   6.188   6.792   4.840  0.5006 -0.5293  0.4277
    8SAPS  H18X 1062   6.183   6.863   4.754  0.1097 -2.0277 -0.8219
    8SAPS  H18Y 1063   6.231   6.697   4.801  2.4571  0.4187  0.1357
    8SAPS  H18Z 1064   6.254   6.824   4.924 -1.8424  1.0744  1.7695
    9SAPS     N 1065   2.771   6.664   7.605 -0.3362  0.3593  0.1268
    9SAPS   HN1 1066   2.708   6.742   7.632  0.1198  0.8381 -0.1748
    9SAPS   HN2 1067   2.869   6.697   7.617 -1.0587  2.6974  0.0579
    9SAPS   HN3 1068   2.753   6.653   7.504 -0.5105  0.3905  0.1540
    9SAPS   C12 1069   2.740   6.548   7.690  0.1405 -0.0169  0.6097
    9SAPS  H12A 1070   2.794   6.459   7.659  0.2311  0.3966 -0.4513
    9SAPS   C13 1071   2.767   6.578   7.835 -0.0540  0.1597  0.3944
    9SAPS  O13A 1072   2.825   6.684   7.881  0.3694 -0.1415  0.6815
    9SAPS  O13B 1073   2.711   6.497   7.917  1.0184 -0.3586 -0.0859
    9SAPS   C11 1074   2.585   6.506   7.669 -0.3615  0.0452 -0.1989
    9SAPS  H11A 1075   2.508   6.581   7.696 -0.3889  1.7337 -4.2833
    9SAPS  H11B 1076   2.568   6.414   7.729 -0.2761  0.1734  0.0233
    9SAPS     P 1077   2.461   6.372   7.489 -0.3270  0.0855  0.2621
    9SAPS   O13 1078   2.523   6.238   7.523  0.3916 -0.1160  0.4370
    9SAPS   O14 1079   2.335   6.406   7.553  0.4202  0.2526  0.2960
    9SAPS   O12 1080   2.562   6.482   7.532 -0.0277 -0.0927  0.0009
    9SAPS   O11 1081   2.458   6.391   7.332  0.2732  1.0023  0.5018
    9SAPS    C1 1082   2.472   6.506   7.255 -0.8039  0.3815  0.3623
    9SAPS    HA 1083   2.503   6.590   7.321 -1.4449 -0.2432  1.4750
    9SAPS    HB 1084   2.554   6.482   7.183 -1.0902  2.6000 -0.7943
    9SAPS    C2 1085   2.341   6.539   7.171  0.3347 -1.0617  0.5519
    9SAPS    HS 1086   2.265   6.534   7.252  0.0720 -3.2651  0.2323
    9SAPS   O21 1087   2.311   6.440   7.073 -0.9455 -0.4082  0.5810
    9SAPS   C21 1088   2.191   6.428   7.039  0.1971  0.3705  0.3885
    9SAPS   O22 1089   2.093   6.487   7.083  0.8104  0.3752 -0.0051
    9SAPS   C22 1090   2.180   6.320   6.940  0.8589  0.1893 -0.3035
    9SAPS   H2R 1091   2.271   6.301   6.879 -0.1061 -1.3094 -1.3682
    9SAPS   H2S 1092   2.168   6.232   7.008  0.5325  1.4695  1.3691
    9SAPS    C3 1093   2.343   6.685   7.107 -0.3962  1.0054  0.0681
    9SAPS    HX 1094   2.341   6.764   7.184 -0.1463  0.3652  0.7440
    9SAPS    HY 1095   2.249   6.698   7.050 -0.1653 -1.0221 -0.8945
    9SAPS   O31 1096   2.445   6.687   7.012 -0.0285  0.3224  0.0835
    9SAPS   C31 1097   2.564   6.731   7.051 -0.5550  0.3712 -0.0166
    9SAPS   O32 1098   2.597   6.768   7.162 -0.0536 -0.0565  0.0366
    9SAPS   C32 1099   2.669   6.718   6.935 -0.4902 -0.1444 -0.0660
    9SAPS   H2X 1100   2.623   6.680   6.841 -1.2637 -0.5005  0.4422
    9SAPS   H2Y 1101   2.754   6.655   6.968 -0.8638  1.1704  3.8669
    9SAPS   C23 1102   2.046   6.329   6.855 -0.0649  0.4628 -0.2125
    9SAPS   H3R 1103   2.080   6.390   6.770  0.7499  0.2107 -0.0728
    9SAPS   H3S 1104   1.964   6.387   6.903  1.6071  2.5933  0.1914
    9SAPS   C24 1105   2.003   6.195   6.793  0.7843 -0.0367 -0.3274
    9SAPS   H4R 1106   2.091   6.168   6.730  0.9475 -2.5668  0.8757
    9SAPS   H4S 1107   1.910   6.207   6.734  0.6796  1.6259  0.1080
    9SAPS   C25 1108   1.963   6.094   6.895 -0.2203  0.3601  0.1768
    9SAPS   H5R 1109   1.870   6.111   6.952 -0.0008 -0.7502  0.8894
    9SAPS   C26 1110   2.015   5.966   6.912 -0.3862  0.4063 -0.1459
    9SAPS   H6R 1111   1.975   5.895   6.985 -0.7898 -0.1023 -0.8433
    9SAPS   C27 1112   2.130   5.904   6.836 -0.0906  0.0269  0.3736
    9SAPS   H7R 1113   2.138   5.921   6.726  0.4574 -1.6204  0.1333
    9SAPS   H7S 1114   2.111   5.795   6.834 -0.8947  0.1600  0.2001
    9SAPS   C28 1115   2.275   5.927   6.883  1.1758 -0.3816  0.5047
    9SAPS   H8R 1116   2.279   5.908   6.992  0.3077 -1.2646  0.3989
    9SAPS   C29 1117   2.390   5.955   6.819  0.3505 -0.2144  0.2840
    9SAPS   H9R 1118   2.482   5.971   6.878 -0.6395  2.4316  1.2695
    9SAPS  C210 1119   2.407   5.974   6.671  0.6148 -0.5891  0.1830
    9SAPS  H10R 1120   2.340   5.910   6.609 -1.3146  1.4323  0.0226
    9SAPS  H10S 1121   2.513   5.954   6.646  0.1312 -2.9046 -0.2257
    9SAPS  C211 1122   2.402   6.116   6.625 -0.1142  0.1375 -0.3831
    9SAPS  H11R 1123   2.421   6.184   6.709  0.6905 -2.2006  1.4523
    9SAPS  C212 1124   2.362   6.154   6.500  0.5850 -0.8728 -0.3824
    9SAPS  H12R 1125   2.363   6.262   6.479 -1.6614 -0.7804 -0.2754
    9SAPS  C213 1126   2.327   6.073   6.375  0.0432 -0.3169  0.2837
    9SAPS  H13R 1127   2.328   5.967   6.406  0.0510 -1.8428 -4.2080
    9SAPS  H13S 1128   2.400   6.090   6.293 -0.1382  0.8364  0.3372
    9SAPS  C214 1129   2.184   6.105   6.327  0.5031 -0.0485 -0.2048
    9SAPS  H14R 1130   2.101   6.096   6.399 -0.4538 -0.0500 -1.2808
    9SAPS  C215 1131   2.151   6.158   6.210  0.3768  0.8606 -0.1915
    9SAPS  H15R 1132   2.047   6.195   6.206 -0.5966 -1.4113  1.7910
    9SAPS  C216 1133   2.247   6.201   6.106  0.0987 -0.1319 -0.0939
    9SAPS  H16R 1134   2.320   6.119   6.087  1.4931  1.1077 -0.3157
    9SAPS  H16S 1135   2.305   6.293   6.130  0.2808  0.3956 -2.3031
    9SAPS  C217 1136   2.179   6.219   5.972  0.3360  0.5264 -0.3227
    9SAPS  H17R 1137   2.258   6.255   5.903  1.5294  0.6269  1.0485
    9SAPS  H17S 1138   2.098   6.294   5.976 -1.8858 -1.7498 -0.0915
    9SAPS  C218 1139   2.119   6.087   5.914  0.6541 -0.2210 -0.5210
    9SAPS  H18R 1140   2.043   6.054   5.989 -0.6014 -0.0437 -1.6714
    9SAPS  H18S 1141   2.200   6.013   5.933  0.7894  0.4314  1.8539
    9SAPS  C219 1142   2.071   6.094   5.770  0.0257  0.3090  0.1468
    9SAPS  H19R 1143   1.985   6.165   5.767 -0.0354  0.3476  1.7588
    9SAPS  H19S 1144   2.031   5.992   5.750 -1.2942  0.8554 -0.0844
    9SAPS  C220 1145   2.174   6.126   5.663  0.4242  0.1909  0.6572
    9SAPS  H20R 1146   2.242   6.038   5.660  0.6767  0.2826  2.4993
    9SAPS  H20S 1147   2.229   6.221   5.681  0.6110  0.1243  0.4513
    9SAPS  H20T 1148   2.127   6.134   5.563  2.4394 -3.8831 -0.8615
    9SAPS   C33 1149   2.732   6.851   6.904 -0.0051 -0.1968  0.5605
    9SAPS   H3X 1150   2.770   6.903   6.995  0.8541  1.9846 -0.9441
    9SAPS   H3Y 1151   2.670   6.927   6.853 -0.4743  1.5608  3.5103
    9SAPS   C34 1152   2.862   6.829   6.815 -0.0604 -0.3996 -0.4964
    9SAPS   H4X 1153   2.927   6.764   6.877  1.4994  1.0931 -0.4803
    9SAPS   H4Y 1154   2.896   6.935   6.809  0.9662 -0.7743 -2.2026
    9SAPS   C35 1155   2.848   6.755   6.680 -0.7424 -0.4495  0.0485
    9SAPS   H5X 1156   2.783   6.816   6.613 -0.9026  1.8919  2.1884
    9SAPS   H5Y 1157   2.798   6.657   6.695 -1.4033  0.1846  2.3758
    9SAPS   C36 1158   2.988   6.738   6.611  0.6420 -0.4177  0.0001
    9SAPS   H6X 1159   3.052   6.679   6.680  1.3607 -0.6938 -0.8960
    9SAPS   H6Y 1160   3.019   6.844   6.600 -0.9078  0.0271 -0.3820
    9SAPS   C37 1161   2.961   6.656   6.488  0.8412 -0.4242 -0.3300
    9SAPS   H7X 1162   2.910   6.722   6.414  1.7724  0.5012 -0.1540
    9SAPS   H7Y 1163   2.891   6.575   6.519  0.0729  1.0089  1.9007
    9SAPS   C38 1164   3.083   6.590   6.424  0.3687  0.3261  0.3490
    9SAPS   H8X 1165   3.120   6.537   6.514  0.7808  0.7394  0.4273
    9SAPS   H8Y 1166   3.171   6.653   6.398 -0.1512  0.9591  0.1030
    9SAPS   C39 1167   3.055   6.488   6.306  0.1914  0.1250  0.2644
    9SAPS   H9X 1168   2.987   6.407   6.338 -0.1592  0.4541  0.3593
    9SAPS   H9Y 1169   3.152   6.443   6.276  0.4774 -0.3209  1.7859
    9SAPS  C310 1170   2.989   6.543   6.187  0.4049 -0.8547  0.2225
    9SAPS  H10X 1171   3.050   6.636   6.175 -0.1749 -0.1739  2.1831
    9SAPS  H10Y 1172   2.883   6.572   6.201  0.3623 -0.5263 -0.6956
    9SAPS  C311 1173   3.015   6.471   6.048 -0.0234  0.3388 -0.8348
    9SAPS  H11X 1174   2.952   6.380   6.058  1.7394 -0.7143  2.5638
    9SAPS  H11Y 1175   3.122   6.441   6.035  0.2607  1.4408 -1.1560
    9SAPS  C312 1176   2.968   6.543   5.924 -0.0084  0.3060  0.1877
    9SAPS  H12X 1177   2.874   6.596   5.948 -0.8559 -0.6152 -0.9687
    9SAPS  H12Y 1178   2.951   6.463   5.848  1.2880  1.3227 -1.2255
    9SAPS  C313 1179   3.062   6.646   5.863 -0.2601  0.1326 -0.5536
    9SAPS  H13X 1180   3.068   6.729   5.938 -1.2042 -0.2595 -0.0377
    9SAPS  H13Y 1181   3.018   6.692   5.772  2.2706 -0.4780 -2.1792
    9SAPS  C314 1182   3.200   6.605   5.822 -0.2216 -0.4466 -0.0527
    9SAPS  H14X 1183   3.255   6.579   5.915  2.0650 -2.4502 -1.8608
    9SAPS  H14Y 1184   3.251   6.695   5.781 -3.2899  1.5156  0.1087
    9SAPS  C315 1185   3.206   6.493   5.717 -0.3337  0.3750  0.2281
    9SAPS  H15X 1186   3.141   6.497   5.626 -1.6784 -2.9161  0.8867
    9SAPS  H15Y 1187   3.161   6.409   5.774 -2.1867  0.9967 -0.2236
    9SAPS  C316 1188   3.343   6.450   5.663  0.4421 -0.5032  0.2713
    9SAPS  H16X 1189   3.330   6.360   5.599  1.9371 -1.1547  0.8227
    9SAPS  H16Y 1190   3.384   6.406   5.757  1.3455 -1.3063 -0.4854
    9SAPS  C317 1191   3.436   6.557   5.603 -0.2770  0.0301  0.4920
    9SAPS  H17X 1192   3.523   6.496   5.570 -0.7098  0.1475 -0.9500
    9SAPS  H17Y 1193   3.469   6.631   5.679  1.9088 -1.9536  1.5857
    9SAPS  C318 1194   3.369   6.621   5.478 -0.2230  0.3417  0.3320
    9SAPS  H18X 1195   3.422   6.709   5.438  0.4168  0.0362  0.4878
    9SAPS  H18Y 1196   3.267   6.649   5.511 -0.5084 -3.4616  3.4787
    9SAPS  H18Z 1197   3.363   6.536   5.407  1.1010  1.1249 -0.7579
   10SAPS     N 1198   0.560   4.459   7.050 -0.0376  0.5814 -0.2121
   10SAPS   HN1 1199   0.476   4.406   7.023  0.0912  0.2975 -0.0569
   10SAPS   HN2 1200   0.546   4.558   7.021  0.5710  0.9279  0.6086
   10SAPS   HN3 1201   0.644   4.411   7.011  0.2580 -1.9784  3.1635
   10SAPS   C12 1202   0.562   4.429   7.195  0.2524  0.1974  0.1943
   10SAPS  H12A 1203   0.573   4.322   7.208 -1.0059  0.2339  1.8977
   10SAPS   C13 1204   0.663   4.511   7.278  0.4665  0.5614 -0.1735
   10SAPS  O13A 1205   0.708   4.620   7.230 -0.0767  0.0526  0.1218
   10SAPS  O13B 1206   0.694   4.481   7.394  0.2947  0.1238  0.0488
   10SAPS   C11 1207   0.427   4.456   7.255  0.3673 -0.3501  0.7650
   10SAPS  H11A 1208   0.399   4.564   7.254  2.8593  0.3506  0.0102
   10SAPS  H11B 1209   0.438   4.415   7.357  2.3619  0.0006  0.7224
   10SAPS     P 1210   0.178   4.380   7.239 -0.1149 -0.3096 -0.3212
   10SAPS   O13 1211   0.107   4.248   7.224 -0.0699 -0.1305  0.0530
   10SAPS   O14 1212   0.156   4.440   7.377 -0.8225  0.1715 -0.1325
   10SAPS   O12 1213   0.327   4.370   7.202  0.1149  0.2238  0.7878
   10SAPS   O11 1214   0.117   4.474   7.127 -0.9059 -0.4527 -0.5349
   10SAPS    C1 1215   0.200   4.497   7.011  0.6934 -0.0707 -1.1920
   10SAPS    HA 1216   0.159   4.583   6.953  2.3795  1.9666  0.4406
   10SAPS    HB 1217   0.304   4.524   7.039  1.8252 -3.1973 -2.0600
   10SAPS    C2 1218   0.191   4.386   6.899  0.4717  0.3053  0.4255
   10SAPS    HS 1219   0.270   4.313   6.927  0.5627  0.3824  0.3722
   10SAPS   O21 1220   0.225   4.442   6.770  0.4381 -0.4309  0.5624
   10SAPS   C21 1221   0.349   4.442   6.734  0.0251  0.0202  0.2717
   10SAPS   O22 1222   0.448   4.406   6.801 -0.3761 -0.1846  0.7343
   10SAPS   C22 1223   0.344   4.486   6.590  0.4434  0.3187 -0.2354
   10SAPS   H2R 1224   0.288   4.408   6.535  1.3905 -1.8152  1.6992
   10SAPS   H2S 1225   0.305   4.591   6.588 -1.8753 -0.4753  0.0568
   10SAPS    C3 1226   0.043   4.319   6.896 -0.5243  0.6801  0.7671
   10SAPS    HX 1227  -0.025   4.407   6.894  0.0230  1.1106 -2.0263
   10SAPS    HY 1228   0.026   4.266   6.993  0.5014 -0.1049  0.5390
   10SAPS   O31 1229   0.030   4.233   6.783 -0.3057 -0.5516  0.0692
   10SAPS   C31 1230   0.016   4.104   6.809  0.1627 -0.1161  0.8265
   10SAPS   O32 1231   0.017   4.048   6.918 -0.3491 -0.3074 -0.7462
   10SAPS   C32 1232   0.003   4.032   6.678  0.4861 -0.1367 -0.0470
   10SAPS   H2X 1233  -0.104   4.007   6.667  1.0736 -3.0987  0.1058
   10SAPS   H2Y 1234   0.056   3.935   6.691  0.9967  0.1146 -0.2023
   10SAPS   C23 1235   0.485   4.482   6.533  0.2413  0.0408  0.0497
   10SAPS   H3R 1236   0.542   4.390   6.556 -0.7300 -0.5654  0.0602
   10SAPS   H3S 1237   0.541   4.572   6.566  1.5449 -0.2805 -1.2307
   10SAPS   C24 1238   0.466   4.496   6.384  0.0476  0.1162  0.7346
   10SAPS   H4R 1239   0.565   4.537   6.352  1.1049 -1.7705  1.3851
   10SAPS   H4S 1240   0.393   4.578   6.375  0.7196  0.6189 -0.3451
   10SAPS   C25 1241   0.435   4.363   6.308  0.0358 -0.2890 -0.8041
   10SAPS   H5R 1242   0.506   4.283   6.332 -1.5309 -1.7370 -0.8661
   10SAPS   C26 1243   0.334   4.333   6.219  0.6384 -0.7380 -0.6313
   10SAPS   H6R 1244   0.336   4.236   6.168  1.6675 -0.8694 -0.3682
   10SAPS   C27 1245   0.237   4.435   6.167 -0.2287  0.1073  0.5979
   10SAPS   H7R 1246   0.263   4.539   6.196  1.1908  0.4736 -1.7076
   10SAPS   H7S 1247   0.143   4.415   6.222  0.8603 -3.9568  1.2865
   10SAPS   C28 1248   0.208   4.426   6.017 -0.4200  0.5846 -0.3882
   10SAPS   H8R 1249   0.133   4.352   5.987 -0.2777 -0.0173  0.6937
   10SAPS   C29 1250   0.278   4.496   5.924  0.8566 -0.3745 -0.2338
   10SAPS   H9R 1251   0.257   4.484   5.817 -0.8099  1.5306 -0.1743
   10SAPS  C210 1252   0.388   4.594   5.952  0.2040 -0.2234  0.7694
   10SAPS  H10R 1253   0.459   4.588   5.867  0.5360  0.0364  1.0218
   10SAPS  H10S 1254   0.451   4.554   6.035  1.6385  2.1995  0.9781
   10SAPS  C211 1255   0.354   4.740   5.981  0.2697  0.6014  0.2676
   10SAPS  H11R 1256   0.301   4.752   6.077  1.4010  0.8494  0.8805
   10SAPS  C212 1257   0.381   4.838   5.895  0.2150  0.2343  0.6873
   10SAPS  H12R 1258   0.352   4.938   5.930  1.5679  1.2711 -0.9759
   10SAPS  C213 1259   0.459   4.841   5.764  0.0227 -0.5021 -0.1834
   10SAPS  H13R 1260   0.470   4.739   5.720  2.1284 -0.7078  0.7336
   10SAPS  H13S 1261   0.563   4.877   5.774 -0.2172  0.3769 -0.7406
   10SAPS  C214 1262   0.374   4.917   5.655 -0.3557  0.4515 -0.3065
   10SAPS  H14R 1263   0.271   4.881   5.659 -0.5659  1.0323 -0.4393
   10SAPS  C215 1264   0.414   5.016   5.571 -0.2595  0.1691 -0.2065
   10SAPS  H15R 1265   0.342   5.058   5.499  2.0967  2.5142 -1.3402
   10SAPS  C216 1266   0.556   5.070   5.559  0.3671 -0.1628 -0.1513
   10SAPS  H16R 1267   0.595   5.116   5.652 -0.0908 -0.3490  0.1374
   10SAPS  H16S 1268   0.555   5.151   5.483  0.3144 -0.6583 -0.6906
   10SAPS  C217 1269   0.661   4.971   5.505  0.2379  0.0707  0.5468
   10SAPS  H17R 1270   0.685   4.884   5.570  0.3434 -1.0347 -0.9142
   10SAPS  H17S 1271   0.751   5.034   5.497 -0.4398  1.0755  0.6985
   10SAPS  C218 1272   0.644   4.920   5.360  0.3172 -0.5016  0.1986
   10SAPS  H18R 1273   0.558   4.851   5.349 -0.6844  0.7703 -0.1954
   10SAPS  H18S 1274   0.742   4.876   5.329 -0.1714 -0.5679 -1.3300
   10SAPS  C219 1275   0.625   5.034   5.257  0.2714  0.0412 -0.2183
   10SAPS  H19R 1276   0.704   5.111   5.266  1.5910 -1.5465  4.0997
   10SAPS  H19S 1277   0.534   5.088   5.289 -0.7082 -1.1140 -0.9244
   10SAPS  C220 1278   0.595   4.992   5.111  0.2896 -0.7252 -0.4137
   10SAPS  H20R 1279   0.674   4.929   5.066  0.5884 -1.1063  0.6194
   10SAPS  H20S 1280   0.568   5.081   5.050 -0.0225 -0.2642  0.3691
   10SAPS  H20T 1281   0.504   4.929   5.106  0.4307 -0.8392 -1.7463
   10SAPS   C33 1282   0.065   4.099   6.554  0.2190  0.0133  0.3039
   10SAPS   H3X 1283   0.176   4.094   6.558  0.1563 -0.5620  2.2223
   10SAPS   H3Y 1284   0.047   4.209   6.562 -0.9143  0.0281 -1.8235
   10SAPS   C34 1285  -0.006   4.045   6.430 -0.5751  0.2034  0.1249
   10SAPS   H4X 1286  -0.116   4.055   6.442 -0.9122 -3.0190  0.4513
   10SAPS   H4Y 1287   0.014   3.937   6.412 -1.2189  0.2040 -0.6334
   10SAPS   C35 1288   0.032   4.125   6.301 -0.3217 -0.2999 -0.0717
   10SAPS   H5X 1289   0.142   4.136   6.298 -0.4767  1.4139 -1.7410
   10SAPS   H5Y 1290  -0.002   4.231   6.305 -1.3783 -0.4751 -2.2944
   10SAPS   C36 1291  -0.025   4.058   6.168  0.5990  0.4169 -1.0976
   10SAPS   H6X 1292  -0.133   4.046   6.189  0.4991 -0.4561 -2.0648
   10SAPS   H6Y 1293   0.034   3.963   6.172  2.0815  1.3306  0.1443
   10SAPS   C37 1294   0.013   4.138   6.045  0.2512  0.4462  1.0953
   10SAPS   H7X 1295   0.123   4.145   6.049  0.4994 -1.1269 -0.8950
   10SAPS   H7Y 1296  -0.036   4.235   6.066 -0.9711 -0.1187  1.0003
   10SAPS   C38 1297  -0.039   4.070   5.916 -0.1576 -0.1014  0.2883
   10SAPS   H8X 1298  -0.130   4.011   5.940 -0.2069  0.0244  0.4092
   10SAPS   H8Y 1299   0.037   3.994   5.889  1.5323  1.9652 -1.1801
   10SAPS   C39 1300  -0.054   4.164   5.795  0.2516  0.2787 -0.3825
   10SAPS   H9X 1301   0.028   4.238   5.807 -0.4516  0.7806  1.9343
   10SAPS   H9Y 1302  -0.147   4.223   5.784  0.0580 -0.1567 -1.1153
   10SAPS  C310 1303  -0.054   4.068   5.667  0.1602  0.6835  0.5320
   10SAPS  H10X 1304  -0.154   4.027   5.641  0.5710 -0.2961  0.4264
   10SAPS  H10Y 1305   0.013   3.980   5.682 -0.0045  0.6852  1.3306
   10SAPS  C311 1306   0.014   4.140   5.548  0.3095 -0.3461  0.0689
   10SAPS  H11X 1307   0.035   4.078   5.459 -0.1443 -0.6495  0.1669
   10SAPS  H11Y 1308   0.111   4.176   5.588  0.8060 -1.4880 -0.0732
   10SAPS  C312 1309  -0.067   4.255   5.491 -0.3399  0.1136  0.1907
   10SAPS  H12X 1310  -0.112   4.309   5.577 -1.0002 -0.6511  0.3449
   10SAPS  H12Y 1311  -0.145   4.200   5.433  0.3710 -0.3120 -0.3768
   10SAPS  C313 1312   0.009   4.348   5.390 -0.3394 -0.2272 -1.0934
   10SAPS  H13X 1313  -0.070   4.408   5.340 -1.5251  0.6735  1.6620
   10SAPS  H13Y 1314   0.048   4.274   5.317 -1.4148  0.1384 -2.0757
   10SAPS  C314 1315   0.126   4.430   5.458 -0.1004 -0.2886  0.1483
   10SAPS  H14X 1316   0.202   4.361   5.500  1.5354  0.7929 -0.8780
   10SAPS  H14Y 1317   0.081   4.483   5.545  0.2548  1.5705 -0.7477
   10SAPS  C315 1318   0.181   4.546   5.375 -0.5446 -0.0895  0.0631
   10SAPS  H15X 1319   0.251   4.605   5.438  0.8123  1.4085 -2.6722
   10SAPS  H15Y 1320   0.103   4.607   5.325  2.1017  0.8926 -3.2324
   10SAPS  C316 1321   0.271   4.483   5.262  0.6423 -0.2218  0.5515
   10SAPS  H16X 1322   0.210   4.416   5.197 -2.7350  1.6426  1.5494
   10SAPS  H16Y 1323   0.364   4.433   5.298  1.0975 -0.6969 -1.2038
   10SAPS  C317 1324   0.331   4.590   5.166  0.2268 -0.3525 -0.0482
   10SAPS  H17X 1325   0.401   4.662   5.213  0.5952  0.1758 -1.3670
   10SAPS  H17Y 1326   0.247   4.650   5.124  0.4903  0.3310  0.3838
   10SAPS  C318 1327   0.421   4.513   5.064  0.1273 -0.2132 -0.1293
   10SAPS  H18X 1328   0.463   4.591   4.997  3.6456 -0.6198  1.4381
   10SAPS  H18Y 1329   0.357   4.439   5.012 -0.3026 -0.6220  0.9467
   10SAPS  H18Z 1330   0.502   4.457   5.114  0.0226 -2.1279 -1.9928
   11SAPS     N 1331   2.969   4.570   2.208 -0.2445 -0.6564  0.2674
   11SAPS   HN1 1332   3.069   4.588   2.186 -0.1517 -1.6233 -0.1242
   11SAPS   HN2 1333   2.969   4.540   2.308 -3.0477 -0.2097  0.4665
   11SAPS   HN3 1334   2.922   4.491   2.160 -0.8001 -1.4164  1.9766
   11SAPS   C12 1335   2.876   4.693   2.214  0.1769  0.3010 -0.4259
   11SAPS  H12A 1336   2.909   4.755   2.296  1.9524 -2.0490  0.7441
   11SAPS   C13 1337   2.877   4.785   2.088 -0.1475 -0.5281  0.1020
   11SAPS  O13A 1338   2.956   4.756   1.992 -0.1023  0.4010  0.0380
   11SAPS  O13B 1339   2.806   4.891   2.082 -0.2518 -0.1713 -0.2692
   11SAPS   C11 1340   2.731   4.647   2.245  0.5173 -0.3020 -0.1891
   11SAPS  H11A 1341   2.697   4.576   2.167 -0.7437  0.2745 -0.1943
   11SAPS  H11B 1342   2.663   4.735   2.238 -0.1036 -0.5079  2.4278
   11SAPS     P 1343   2.661   4.663   2.493  0.2068 -0.0231 -0.2746
   11SAPS   O13 1344   2.748   4.778   2.527 -0.0327  0.1261 -0.3220
   11SAPS   O14 1345   2.513   4.690   2.468  0.0571  0.0041 -0.0031
   11SAPS   O12 1346   2.722   4.587   2.374 -0.2111  0.6569  0.1743
   11SAPS   O11 1347   2.681   4.566   2.621  0.1692 -0.5551  0.2691
   11SAPS    C1 1348   2.571   4.554   2.715 -0.0523  0.1431  0.0352
   11SAPS    HA 1349   2.469   4.583   2.679 -0.0058  0.1772 -0.0709
   11SAPS    HB 1350   2.546   4.451   2.747 -2.1958 -0.0498 -1.9362
   11SAPS    C2 1351   2.589   4.639   2.844  0.3759  0.6484 -0.5525
   11SAPS    HS 1352   2.628   4.736   2.808  1.5294  1.0428  1.5745
   11SAPS   O21 1353   2.688   4.579   2.932 -0.6598 -0.4215  0.0096
   11SAPS   C21 1354   2.776   4.656   2.988 -0.2576  0.2783  0.3750
   11SAPS   O22 1355   2.779   4.782   2.974 -0.1700  0.7009  0.3920
   11SAPS   C22 1356   2.848   4.570   3.091 -0.3875 -0.0228 -0.0994
   11SAPS   H2R 1357   2.877   4.479   3.034  1.6392  0.9558 -0.7590
   11SAPS   H2S 1358   2.939   4.629   3.116  0.5896 -1.7509  0.6232
   11SAPS    C3 1359   2.452   4.658   2.912 -0.4318  0.3185 -0.7568
   11SAPS    HX 1360   2.421   4.564   2.962  0.9341  0.2737  0.0922
   11SAPS    HY 1361   2.378   4.680   2.833 -0.1198 -0.9017 -1.4186
   11SAPS   O31 1362   2.460   4.763   3.017  0.1616  0.7648 -0.2648
   11SAPS   C31 1363   2.412   4.876   2.985  0.0920  0.1134  0.1013
   11SAPS   O32 1364   2.387   4.916   2.874  0.0028  0.4482 -0.2474
   11SAPS   C32 1365   2.405   4.960   3.109 -0.4266  0.2307  0.6972
   11SAPS   H2X 1366   2.490   5.032   3.106 -2.3514  2.5918  0.0666
   11SAPS   H2Y 1367   2.433   4.900   3.198  0.1692 -0.5981 -0.0313
   11SAPS   C23 1368   2.753   4.544   3.202  0.1653 -1.1391  0.0814
   11SAPS   H3R 1369   2.667   4.488   3.161  0.8778 -2.6414  0.5556
   11SAPS   H3S 1370   2.720   4.639   3.249  0.4341 -0.9288 -0.1475
   11SAPS   C24 1371   2.813   4.456   3.311 -0.0966  0.4126  0.1344
   11SAPS   H4R 1372   2.841   4.359   3.264 -1.5541 -0.4785  1.0114
   11SAPS   H4S 1373   2.731   4.426   3.380 -0.6901  0.1569 -0.6606
   11SAPS   C25 1374   2.924   4.522   3.388 -0.1833  0.5263  0.0144
   11SAPS   H5R 1375   3.002   4.565   3.323 -1.4212  0.9927 -1.2207
   11SAPS   C26 1376   2.933   4.541   3.525  0.1049 -0.0964 -0.2481
   11SAPS   H6R 1377   3.021   4.587   3.573  0.0985 -1.2357  0.9142
   11SAPS   C27 1378   2.826   4.497   3.622 -0.0211  0.2767 -0.1883
   11SAPS   H7R 1379   2.891   4.455   3.702  1.2602  0.7958 -0.9250
   11SAPS   H7S 1380   2.765   4.410   3.590 -0.2927  0.0021  1.0440
   11SAPS   C28 1381   2.737   4.613   3.662  0.3173 -0.7583  0.1263
   11SAPS   H8R 1382   2.699   4.673   3.578  0.0252  0.4675  1.1165
   11SAPS   C29 1383   2.697   4.644   3.786  0.8069 -0.4421 -0.3955
   11SAPS   H9R 1384   2.632   4.731   3.806  0.2587 -0.8141 -0.5389
   11SAPS  C210 1385   2.732   4.576   3.912 -0.1148 -0.2129 -0.0473
   11SAPS  H10R 1386   2.802   4.642   3.968 -0.9438 -1.0268  2.0489
   11SAPS  H10S 1387   2.794   4.485   3.894 -1.0810 -0.5770 -1.7473
   11SAPS  C211 1388   2.610   4.546   3.997 -0.4322  0.0644  0.2871
   11SAPS  H11R 1389   2.517   4.529   3.941 -0.7156 -2.5892  1.4103
   11SAPS  C212 1390   2.615   4.547   4.132  0.4343 -0.3199 -0.1051
   11SAPS  H12R 1391   2.522   4.525   4.187  1.0813  0.0353  1.1812
   11SAPS  C213 1392   2.736   4.567   4.219 -0.1270 -0.0273  0.7085
   11SAPS  H13R 1393   2.731   4.670   4.260  3.6719  1.4275 -1.8763
   11SAPS  H13S 1394   2.831   4.579   4.162 -0.7874  1.4205 -0.1436
   11SAPS  C214 1395   2.766   4.465   4.325 -0.2064 -0.2113  0.5256
   11SAPS  H14R 1396   2.846   4.391   4.307 -0.0450 -0.0763  0.6828
   11SAPS  C215 1397   2.704   4.461   4.440 -0.2500  0.2295  0.7560
   11SAPS  H15R 1398   2.742   4.387   4.512  1.8965  0.7543  0.2084
   11SAPS  C216 1399   2.593   4.542   4.488 -0.0063 -0.3626  0.7902
   11SAPS  H16R 1400   2.552   4.612   4.412 -2.0141 -2.1906  0.0878
   11SAPS  H16S 1401   2.649   4.598   4.566 -0.7890  0.1600  0.9828
   11SAPS  C217 1402   2.480   4.468   4.562  0.0048 -0.0369 -0.3319
   11SAPS  H17R 1403   2.529   4.403   4.639  0.4341  2.7930  1.9662
   11SAPS  H17S 1404   2.425   4.404   4.490 -0.9951  0.6449 -0.1991
   11SAPS  C218 1405   2.381   4.572   4.632  0.2122  0.1343 -0.0573
   11SAPS  H18R 1406   2.292   4.513   4.663 -0.8125  1.9974  0.6619
   11SAPS  H18S 1407   2.351   4.651   4.560  2.0025 -0.5308 -1.6269
   11SAPS  C219 1408   2.425   4.666   4.747 -1.0066 -0.4853 -0.6107
   11SAPS  H19R 1409   2.375   4.764   4.739  0.8800  0.4398 -1.7655
   11SAPS  H19S 1410   2.534   4.681   4.732 -0.8903  0.9480  1.3380
   11SAPS  C220 1411   2.403   4.611   4.888  0.8707  0.6415 -0.1221
   11SAPS  H20R 1412   2.460   4.660   4.969  0.8970 -0.9178  0.8288
   11SAPS  H20S 1413   2.445   4.508   4.889 -2.7503 -1.0152 -0.7877
   11SAPS  H20T 1414   2.294   4.604   4.907  0.9891 -0.5862  0.2053
   11SAPS   C33 1415   2.280   5.044   3.126  0.5717  1.0981  0.2660
   11SAPS   H3X 1416   2.191   4.979   3.110  0.9725  0.5354  0.2940
   11SAPS   H3Y 1417   2.285   5.134   3.062  0.2383 -0.0467 -1.4309
   11SAPS   C34 1418   2.265   5.096   3.266 -0.7652  0.3064 -0.6658
   11SAPS   H4X 1419   2.361   5.141   3.300 -0.4948  0.1745 -1.2304
   11SAPS   H4Y 1420   2.242   5.016   3.339 -1.1116 -0.7644 -1.9170
   11SAPS   C35 1421   2.159   5.208   3.276 -0.4138 -0.4733 -0.1558
   11SAPS   H5X 1422   2.055   5.168   3.280  0.1251 -1.8712  0.5729
   11SAPS   H5Y 1423   2.169   5.283   3.195 -0.9962  0.4229  0.5825
   11SAPS   C36 1424   2.174   5.289   3.405  0.2756 -0.6468  0.2671
   11SAPS   H6X 1425   2.095   5.367   3.394  1.4636  0.3590 -1.8976
   11SAPS   H6Y 1426   2.268   5.347   3.410 -1.3985  2.2029  1.1631
   11SAPS   C37 1427   2.168   5.206   3.533 -0.2400  0.5799  0.7665
   11SAPS   H7X 1428   2.253   5.135   3.519 -0.5400  0.4512 -0.5226
   11SAPS   H7Y 1429   2.081   5.137   3.535 -2.4787  3.2419  1.0133
   11SAPS   C38 1430   2.196   5.290   3.660 -0.1242 -0.1058 -0.1935
   11SAPS   H8X 1431   2.120   5.371   3.664 -1.2700 -1.0535 -1.5967
   11SAPS   H8Y 1432   2.301   5.322   3.643 -0.0812 -0.5303 -0.7560
   11SAPS   C39 1433   2.191   5.200   3.785 -0.1814 -0.1483  0.3504
   11SAPS   H9X 1434   2.247   5.105   3.774 -0.8424 -0.6273  1.0369
   11SAPS   H9Y 1435   2.086   5.163   3.787 -0.2853  0.1519  0.5636
   11SAPS  C310 1436   2.256   5.271   3.904 -0.6183 -0.7115  0.0359
   11SAPS  H10X 1437   2.249   5.379   3.882  1.8398 -0.1993  1.3974
   11SAPS  H10Y 1438   2.362   5.239   3.915 -0.1108 -0.3644 -3.0734
   11SAPS  C311 1439   2.187   5.242   4.038  0.4575 -0.4938  0.0432
   11SAPS  H11X 1440   2.172   5.133   4.054 -1.3417 -0.5035 -1.3299
   11SAPS  H11Y 1441   2.085   5.281   4.018  1.7868  3.1066 -0.6062
   11SAPS  C312 1442   2.241   5.308   4.165  0.0740 -0.1021  0.1100
   11SAPS  H12X 1443   2.268   5.414   4.145 -2.4268  0.8359  1.2400
   11SAPS  H12Y 1444   2.335   5.252   4.185  0.1836  0.7086  2.1579
   11SAPS  C313 1445   2.145   5.299   4.282  0.1318 -0.2736 -0.4773
   11SAPS  H13X 1446   2.134   5.190   4.303 -0.1232  0.2465  2.6230
   11SAPS  H13Y 1447   2.043   5.329   4.249 -1.5927 -2.6850  2.1308
   11SAPS  C314 1448   2.199   5.371   4.408  0.0951  0.3100 -0.0939
   11SAPS  H14X 1449   2.190   5.481   4.393  3.4447  0.3899 -2.6381
   11SAPS  H14Y 1450   2.307   5.360   4.432  0.1769 -1.2708 -1.0744
   11SAPS  C315 1451   2.115   5.347   4.540 -0.0291  0.5295 -0.5950
   11SAPS  H15X 1452   2.099   5.238   4.549 -0.3772  0.4143 -2.2733
   11SAPS  H15Y 1453   2.015   5.395   4.541 -0.9179 -1.2614  0.5446
   11SAPS  C316 1454   2.199   5.388   4.661 -0.4416 -1.0163  1.0061
   11SAPS  H16X 1455   2.204   5.499   4.667 -0.5751 -0.8060 -1.5788
   11SAPS  H16Y 1456   2.301   5.351   4.637 -0.2276 -0.2255  0.6423
   11SAPS  C317 1457   2.131   5.329   4.784 -0.2951 -0.6693 -0.9547
   11SAPS  H17X 1458   2.145   5.219   4.784  0.7715 -0.6761  3.0559
   11SAPS  H17Y 1459   2.024   5.359   4.793 -0.3410 -1.2290  0.5810
   11SAPS  C318 1460   2.199   5.377   4.907  0.2471  0.5743 -0.5600
   11SAPS  H18X 1461   2.190   5.486   4.921  0.6365  0.4752  0.5972
   11SAPS  H18Y 1462   2.307   5.358   4.889 -0.2334 -0.9231 -2.1513
   11SAPS  H18Z 1463   2.174   5.321   5.000 -0.9831  3.7603  1.1738
   12SAPS     N 1464   6.381   0.526   3.069 -0.7093  0.5111  0.0037
   12SAPS   HN1 1465   6.304   0.500   3.003  0.8416 -0.6663 -1.4159
   12SAPS   HN2 1466   6.384   0.457   3.148 -1.8816 -0.8980 -1.1194
   12SAPS   HN3 1467   6.345   0.611   3.116 -0.1203  0.9288 -0.2985
   12SAPS   C12 1468   6.495   0.543   2.987 -0.7010 -0.3959  0.1729
   12SAPS  H12A 1469   6.580   0.497   3.035 -0.2420 -1.2024 -1.3681
   12SAPS   C13 1470   6.466   0.495   2.840 -0.1541  0.1596 -0.1226
   12SAPS  O13A 1471   6.346   0.463   2.804  0.1335 -0.4220 -0.5029
   12SAPS  O13B 1472   6.562   0.462   2.768 -0.3999  0.3260 -0.1091
   12SAPS   C11 1473   6.510   0.703   2.971  0.0404  0.4158 -0.6539
   12SAPS  H11A 1474   6.406   0.736   2.952 -1.2598 -1.3849  2.5647
   12SAPS  H11B 1475   6.574   0.732   2.885 -2.5350  1.1124 -2.4603
   12SAPS     P 1476   6.452   0.842   3.183  0.1116  0.3958  0.4597
   12SAPS   O13 1477   6.428   0.974   3.113  0.6153 -0.3246 -0.7288
   12SAPS   O14 1478   6.333   0.749   3.194  0.4643  0.2100 -0.3288
   12SAPS   O12 1479   6.559   0.758   3.093  0.4868 -0.2564 -0.5559
   12SAPS   O11 1480   6.520   0.867   3.329 -0.5795 -0.3435 -0.3565
   12SAPS    C1 1481   6.666   0.894   3.333  0.4117  0.5409 -0.9804
   12SAPS    HA 1482   6.715   0.845   3.246  0.5838  0.6216 -0.9281
   12SAPS    HB 1483   6.683   1.003   3.318 -0.3905  0.9050  0.5048
   12SAPS    C2 1484   6.724   0.858   3.472  0.3111  0.6345  0.6336
   12SAPS    HS 1485   6.750   0.750   3.476  2.4672  1.1237  1.2879
   12SAPS   O21 1486   6.631   0.904   3.574 -0.1691 -0.1164 -0.1560
   12SAPS   C21 1487   6.623   0.829   3.685 -0.0347 -0.6160  1.1241
   12SAPS   O22 1488   6.686   0.728   3.701 -0.5658  0.2765 -0.2803
   12SAPS   C22 1489   6.537   0.900   3.782 -0.4442 -0.8391  0.3468
   12SAPS   H2R 1490   6.561   1.006   3.805 -0.8860 -1.1619  2.4472
   12SAPS   H2S 1491   6.428   0.902   3.762 -0.7367  2.2071  1.6236
   12SAPS    C3 1492   6.853   0.939   3.488  0.1915  0.4160  0.2153
   12SAPS    HX 1493   6.816   1.043   3.495  0.4438  0.4326  1.5497
   12SAPS    HY 1494   6.919   0.921   3.400  0.9663  2.1202  0.4169
   12SAPS   O31 1495   6.910   0.919   3.621  0.4497 -0.0457  0.3666
   12SAPS   C31 1496   6.975   0.805   3.630 -0.0862  0.3591  0.1453
   12SAPS   O32 1497   7.003   0.728   3.537  0.1909 -0.7895 -0.6706
   12SAPS   C32 1498   7.009   0.790   3.785  0.0136  0.2371  0.6333
   12SAPS   H2X 1499   6.908   0.796   3.831 -1.0712  3.0445 -1.7996
   12SAPS   H2Y 1500   7.062   0.884   3.812  1.7556 -1.1529  2.3509
   12SAPS   C23 1501   6.549   0.836   3.915  0.3652 -0.1370 -0.2186
   12SAPS   H3R 1502   6.653   0.807   3.942  0.1853  0.1471  0.8193
   12SAPS   H3S 1503   6.490   0.742   3.909 -2.1145  1.2689  0.5988
   12SAPS   C24 1504   6.495   0.917   4.039  0.2625 -0.3079  0.1098
   12SAPS   H4R 1505   6.482   0.857   4.132  1.8459 -4.1118 -1.8613
   12SAPS   H4S 1506   6.392   0.948   4.011  0.7041 -0.6613 -2.0594
   12SAPS   C25 1507   6.580   1.039   4.059  0.2800  0.3958  0.0487
   12SAPS   H5R 1508   6.545   1.128   4.005  0.8323 -0.9593 -2.7108
   12SAPS   C26 1509   6.690   1.052   4.140 -0.0785 -0.0792  0.5341
   12SAPS   H6R 1510   6.734   1.152   4.151 -1.6260  0.5119  1.8034
   12SAPS   C27 1511   6.749   0.938   4.216 -0.0201  0.2408  0.7213
   12SAPS   H7R 1512   6.687   0.846   4.221 -0.0446  0.1685 -0.5122
   12SAPS   H7S 1513   6.780   0.971   4.317  0.3716  3.7609 -0.4031
   12SAPS   C28 1514   6.872   0.878   4.151  0.3319  0.0471 -0.2036
   12SAPS   H8R 1515   6.865   0.850   4.045  1.0844 -0.2030 -0.1905
   12SAPS   C29 1516   6.992   0.888   4.201  0.1429  0.1121  0.1678
   12SAPS   H9R 1517   7.073   0.858   4.132 -1.0490  0.1957 -1.3274
   12SAPS  C210 1518   7.043   0.934   4.338  0.2715  0.1290 -0.0795
   12SAPS  H10R 1519   6.993   0.877   4.418 -1.3569  0.9473 -0.4674
   12SAPS  H10S 1520   7.011   1.039   4.354  1.1622  0.1907  1.4270
   12SAPS  C211 1521   7.195   0.930   4.348  0.0850  0.2218  0.2855
   12SAPS  H11R 1522   7.253   0.950   4.257 -1.4000 -0.7841 -0.9430
   12SAPS  C212 1523   7.267   0.902   4.459  0.1302 -0.2494  0.1004
   12SAPS  H12R 1524   7.375   0.919   4.447 -0.1005  0.1643 -1.6125
   12SAPS  C213 1525   7.224   0.867   4.592 -0.8680 -0.2649 -0.0534
   12SAPS  H13R 1526   7.300   0.806   4.645 -1.5955 -1.9190 -0.8309
   12SAPS  H13S 1527   7.135   0.801   4.581 -0.4941 -1.0277  1.2920
   12SAPS  C214 1528   7.187   0.995   4.661 -0.1365 -0.2804 -0.3418
   12SAPS  H14R 1529   7.189   1.084   4.597  0.5797  0.2176  0.3525
   12SAPS  C215 1530   7.132   0.998   4.783  0.3892  0.8544  0.0565
   12SAPS  H15R 1531   7.090   1.096   4.810 -0.4397  0.8653 -1.1986
   12SAPS  C216 1532   7.115   0.876   4.872 -0.1506  0.4215  0.9843
   12SAPS  H16R 1533   7.189   0.890   4.953  0.3865 -0.1414  0.6030
   12SAPS  H16S 1534   7.150   0.784   4.820  1.2708  1.7419 -0.5085
   12SAPS  C217 1535   6.973   0.849   4.930 -0.0332 -0.1215  0.8951
   12SAPS  H17R 1536   6.907   0.830   4.842  0.7267  1.8861 -0.1772
   12SAPS  H17S 1537   6.945   0.939   4.987  3.3531  1.7709 -0.1313
   12SAPS  C218 1538   6.963   0.718   5.006 -0.5166 -0.1246  0.0372
   12SAPS  H18R 1539   7.019   0.724   5.102 -0.4418 -4.5398  0.5062
   12SAPS  H18S 1540   7.013   0.645   4.939  2.0747  0.0104  1.7004
   12SAPS  C219 1541   6.826   0.677   5.042  0.6228 -0.1216  0.1303
   12SAPS  H19R 1542   6.753   0.704   4.963 -0.7745  0.4467  1.5434
   12SAPS  H19S 1543   6.790   0.738   5.128 -0.3932  0.1525 -0.4666
   12SAPS  C220 1544   6.838   0.531   5.089  0.4842  0.1388 -0.3526
   12SAPS  H20R 1545   6.896   0.539   5.183 -2.4456  2.2322  1.4679
   12SAPS  H20S 1546   6.872   0.466   5.006 -0.4559 -0.8201 -0.0029
   12SAPS  H20T 1547   6.737   0.497   5.119 -0.3395 -0.3425 -3.2916
   12SAPS   C33 1548   7.103   0.675   3.802 -0.1171  0.9863  0.3141
   12SAPS   H3X 1549   7.188   0.673   3.730 -0.7452 -1.5671 -0.4446
   12SAPS   H3Y 1550   7.048   0.583   3.774  0.5794  0.7233 -0.2345
   12SAPS   C34 1551   7.155   0.672   3.939 -0.5635 -0.0409  0.0884
   12SAPS   H4X 1552   7.074   0.641   4.009 -0.3563  1.6536  1.1399
   12SAPS   H4Y 1553   7.182   0.774   3.974 -2.7851  0.5758  0.1520
   12SAPS   C35 1554   7.276   0.577   3.962  0.0518  0.1387  0.4844
   12SAPS   H5X 1555   7.353   0.610   3.889  0.6793 -0.6125  0.7782
   12SAPS   H5Y 1556   7.239   0.476   3.932  0.0994 -0.0747  1.1306
   12SAPS   C36 1557   7.345   0.568   4.094  0.1604  0.5016  0.2299
   12SAPS   H6X 1558   7.403   0.661   4.116  0.4023  1.0091 -2.2008
   12SAPS   H6Y 1559   7.414   0.482   4.101  0.2778  0.6822  1.3697
   12SAPS   C37 1560   7.246   0.538   4.202  0.1076 -0.1150 -0.3429
   12SAPS   H7X 1561   7.183   0.449   4.182 -2.5763  1.8986 -1.5626
   12SAPS   H7Y 1562   7.177   0.625   4.194  0.9926  0.6093 -0.3245
   12SAPS   C38 1563   7.315   0.515   4.339  0.2530 -0.4741  0.0943
   12SAPS   H8X 1564   7.361   0.611   4.372 -0.8090  0.0804  0.0334
   12SAPS   H8Y 1565   7.387   0.431   4.334 -1.4447 -2.0180  0.6195
   12SAPS   C39 1566   7.211   0.477   4.449 -0.1865 -0.2016  0.0827
   12SAPS   H9X 1567   7.161   0.380   4.427 -1.6869  0.6504 -0.4117
   12SAPS   H9Y 1568   7.122   0.543   4.451  0.9320  1.3627 -0.0021
   12SAPS  C310 1569   7.275   0.473   4.588  0.0861  0.2259  0.8399
   12SAPS  H10X 1570   7.329   0.569   4.605 -1.9014  1.0977  2.6352
   12SAPS  H10Y 1571   7.353   0.394   4.591  1.7166  1.7609  0.7688
   12SAPS  C311 1572   7.180   0.433   4.704  0.8351  0.9535  0.5669
   12SAPS  H11X 1573   7.102   0.367   4.661  0.8922  1.5143 -0.4129
   12SAPS  H11Y 1574   7.137   0.533   4.726  0.6102  0.8248  0.7180
   12SAPS  C312 1575   7.252   0.375   4.830 -0.1372 -0.0946 -0.5900
   12SAPS  H12X 1576   7.344   0.328   4.789  0.9763  0.7391  0.8267
   12SAPS  H12Y 1577   7.177   0.309   4.878 -0.0516  0.1127 -0.1655
   12SAPS  C313 1578   7.282   0.488   4.923 -0.1666 -1.0549 -0.0917
   12SAPS  H13X 1579   7.198   0.548   4.964  0.7218  0.8045 -0.8931
   12SAPS  H13Y 1580   7.350   0.563   4.879 -0.8905  1.1344  2.2721
   12SAPS  C314 1581   7.373   0.438   5.042  0.5325  0.2018 -0.2980
   12SAPS  H14X 1582   7.432   0.529   5.066  0.7110 -0.5732  2.5445
   12SAPS  H14Y 1583   7.440   0.355   5.012  1.0994  0.1368  1.0388
   12SAPS  C315 1584   7.298   0.402   5.171  0.4263 -0.0634 -0.8240
   12SAPS  H15X 1585   7.235   0.481   5.218  0.9301 -0.5747  0.7845
   12SAPS  H15Y 1586   7.372   0.375   5.250  0.0838  0.3656 -0.3493
   12SAPS  C316 1587   7.212   0.277   5.167 -0.7523 -0.5834 -0.3684
   12SAPS  H16X 1588   7.279   0.195   5.130  1.6810  1.4602 -0.7704
   12SAPS  H16Y 1589   7.127   0.282   5.095 -0.5841 -1.1755 -0.6203
   12SAPS  C317 1590   7.156   0.244   5.308 -0.0890  0.1553  0.1662
   12SAPS  H17X 1591   7.122   0.342   5.347  1.0102 -0.1579  1.9816
   12SAPS  H17Y 1592   7.235   0.205   5.375 -1.3209  0.0056  1.5712
   12SAPS  C318 1593   7.043   0.146   5.303 -0.8428 -0.0507  0.8506
   12SAPS  H18X 1594   7.021   0.110   5.406  0.1166 -1.1713  0.6884
   12SAPS  H18Y 1595   7.077   0.064   5.236  1.9467  1.8975 -0.3073
   12SAPS  H18Z 1596   6.953   0.187   5.253 -1.0785 -1.5088  0.0449
   13SAPS     N 1597   5.749   5.688   2.882  0.1242  0.1879 -0.1227
   13SAPS   HN1 1598   5.726   5.711   2.981 -1.1549 -2.3250  0.2453
   13SAPS   HN2 1599   5.677   5.625   2.844  0.5021  1.1988 -2.7350
   13SAPS   HN3 1600   5.837   5.632   2.885  1.3207  1.9471  2.7672
   13SAPS   C12 1601   5.755   5.814   2.801 -0.7357  0.1498  0.6101
   13SAPS  H12A 1602   5.789   5.781   2.704  1.0598  0.5490  1.0769
   13SAPS   C13 1603   5.614   5.884   2.775 -0.9579 -0.5183 -0.3901
   13SAPS  O13A 1604   5.512   5.842   2.826  0.3811  0.0462  0.1220
   13SAPS  O13B 1605   5.617   5.985   2.702  0.0264 -0.2773 -0.0108
   13SAPS   C11 1606   5.858   5.909   2.864 -0.2110 -0.1871  1.0211
   13SAPS  H11A 1607   5.879   5.994   2.795  2.8115 -0.5154  1.3953
   13SAPS  H11B 1608   5.955   5.853   2.869  0.1976  0.5265  1.1898
   13SAPS     P 1609   5.786   6.092   3.042 -0.0734  0.5585 -0.3681
   13SAPS   O13 1610   5.748   6.180   2.924 -0.0935  0.6950  0.4703
   13SAPS   O14 1611   5.683   6.092   3.146 -0.4638 -0.0226  0.0762
   13SAPS   O12 1612   5.815   5.944   2.996  0.1350  0.1016  0.4843
   13SAPS   O11 1613   5.917   6.145   3.108 -0.4590  0.2775  0.3049
   13SAPS    C1 1614   6.032   6.068   3.149  0.8414 -1.0101  0.3210
   13SAPS    HA 1615   6.038   5.966   3.104  1.0235 -1.3898  1.1794
   13SAPS    HB 1616   6.122   6.125   3.118 -0.8121  0.3090 -2.4744
   13SAPS    C2 1617   6.040   6.043   3.305  0.1868 -0.0397  0.1575
   13SAPS    HS 1618   5.941   6.010   3.342  0.2453  1.0025  1.3121
   13SAPS   O21 1619   6.086   6.161   3.381  0.2582  0.2812  0.6813
   13SAPS   C21 1620   6.201   6.218   3.354  0.3005  0.0705 -0.1786
   13SAPS   O22 1621   6.285   6.176   3.280 -0.8437 -0.2974  0.2428
   13SAPS   C22 1622   6.219   6.343   3.451  0.0925  1.0917  0.6791
   13SAPS   H2R 1623   6.308   6.325   3.515 -0.0204 -0.3313  0.4749
   13SAPS   H2S 1624   6.233   6.434   3.389  1.7354  1.4145  1.4723
   13SAPS    C3 1625   6.131   5.921   3.340 -0.1835  0.5202 -0.3157
   13SAPS    HX 1626   6.226   5.912   3.284  0.4320 -0.2435  0.8186
   13SAPS    HY 1627   6.076   5.830   3.306 -1.6998  1.8917 -1.6816
   13SAPS   O31 1628   6.165   5.910   3.481  0.1173 -0.1119  0.3392
   13SAPS   C31 1629   6.071   5.856   3.556 -0.1784  0.0720 -0.4682
   13SAPS   O32 1630   5.962   5.819   3.516 -0.1129  0.2787 -0.6488
   13SAPS   C32 1631   6.119   5.865   3.703 -0.0608 -0.2263 -0.6896
   13SAPS   H2X 1632   6.142   5.972   3.720  0.5279 -0.5525  0.7391
   13SAPS   H2Y 1633   6.211   5.805   3.724 -1.2294 -1.3421  1.6351
   13SAPS   C23 1634   6.094   6.366   3.538  0.2588  0.1395 -1.1457
   13SAPS   H3R 1635   6.066   6.272   3.589  1.0584  0.4517 -0.1002
   13SAPS   H3S 1636   6.010   6.393   3.471 -0.7842  2.2688  0.8917
   13SAPS   C24 1637   6.115   6.478   3.638 -0.0231  0.0155 -0.5119
   13SAPS   H4R 1638   6.149   6.563   3.574  2.1568 -1.0152 -0.8181
   13SAPS   H4S 1639   6.206   6.450   3.695 -0.0834  0.0801 -0.3847
   13SAPS   C25 1640   6.002   6.517   3.718 -0.3346  0.3346  0.1377
   13SAPS   H5R 1641   5.923   6.538   3.644  0.9614  1.7315 -0.9332
   13SAPS   C26 1642   6.002   6.525   3.846  0.4472 -0.7863 -0.2786
   13SAPS   H6R 1643   5.910   6.561   3.895  0.5590 -2.3932  1.2173
   13SAPS   C27 1644   6.114   6.503   3.940 -0.0605  0.2134  0.3879
   13SAPS   H7R 1645   6.081   6.566   4.026  0.5347  2.2187 -0.7746
   13SAPS   H7S 1646   6.207   6.546   3.897  0.4357 -1.4282 -0.2350
   13SAPS   C28 1647   6.139   6.363   3.973  0.6846  0.9113 -0.1132
   13SAPS   H8R 1648   6.171   6.306   3.884 -1.4720 -0.2302 -0.2330
   13SAPS   C29 1649   6.125   6.295   4.092  0.2887 -0.5834 -0.2541
   13SAPS   H9R 1650   6.141   6.187   4.101 -1.1613 -0.7197  1.3237
   13SAPS  C210 1651   6.081   6.356   4.225 -0.3619  0.7356 -0.2872
   13SAPS  H10R 1652   6.004   6.283   4.259  0.8052 -0.6378 -0.5206
   13SAPS  H10S 1653   6.031   6.453   4.201  0.3135  1.3547  0.7509
   13SAPS  C211 1654   6.182   6.371   4.335  0.3158 -0.9304 -0.0378
   13SAPS  H11R 1655   6.287   6.382   4.304  0.2753  2.2808  0.6278
   13SAPS  C212 1656   6.150   6.383   4.464 -0.2324 -0.1710 -0.9465
   13SAPS  H12R 1657   6.234   6.382   4.536  0.2359  2.1031 -1.3917
   13SAPS  C213 1658   6.006   6.377   4.532 -0.5428  1.2678  0.9624
   13SAPS  H13R 1659   5.955   6.280   4.517  0.3122  1.1190 -1.4488
   13SAPS  H13S 1660   5.945   6.448   4.472 -1.8428 -1.2337 -0.8609
   13SAPS  C214 1661   6.020   6.419   4.673 -0.6368  0.6270  0.0572
   13SAPS  H14R 1662   6.062   6.520   4.682  0.7463 -0.0919  2.8207
   13SAPS  C215 1663   5.986   6.357   4.790 -0.4273  0.2560 -0.0828
   13SAPS  H15R 1664   5.994   6.410   4.886 -2.4511  1.3746 -0.4824
   13SAPS  C216 1665   5.919   6.223   4.804 -0.6530 -0.0638  0.4145
   13SAPS  H16R 1666   5.848   6.203   4.721 -0.7464 -3.1639  1.1517
   13SAPS  H16S 1667   5.858   6.222   4.897 -0.5891  3.7452  0.6652
   13SAPS  C217 1668   6.026   6.116   4.809 -0.0531 -0.5751 -0.1734
   13SAPS  H17R 1669   6.113   6.149   4.868  0.2800 -0.9931 -0.4251
   13SAPS  H17S 1670   6.046   6.086   4.704  0.8968  1.1339 -0.5058
   13SAPS  C218 1671   5.967   5.989   4.882 -0.1133  0.5246 -0.5655
   13SAPS  H18R 1672   5.883   5.953   4.818 -0.6738  3.3390 -1.5715
   13SAPS  H18S 1673   5.918   6.019   4.977 -0.7630 -2.0706  0.0167
   13SAPS  C219 1674   6.081   5.886   4.894 -0.0131  0.4300 -0.3110
   13SAPS  H19R 1675   6.159   5.933   4.958 -0.3540  0.6032 -0.0220
   13SAPS  H19S 1676   6.113   5.871   4.789 -1.2895  0.1360 -0.6723
   13SAPS  C220 1677   6.048   5.751   4.961 -0.3340 -0.0571 -0.2309
   13SAPS  H20R 1678   6.018   5.750   5.067  1.3603  0.3511  0.2887
   13SAPS  H20S 1679   6.143   5.692   4.957 -1.8040 -2.5821  0.2164
   13SAPS  H20T 1680   5.960   5.703   4.914 -1.3422  0.8377  0.6993
   13SAPS   C33 1681   5.999   5.815   3.796 -0.1659 -0.2094  0.3778
   13SAPS   H3X 1682   5.991   5.705   3.800 -0.6283 -0.1454  2.2319
   13SAPS   H3Y 1683   5.901   5.850   3.756 -0.5739 -0.4845  1.1088
   13SAPS   C34 1684   6.033   5.856   3.941  0.3558  0.5016 -0.6608
   13SAPS   H4X 1685   6.014   5.965   3.949 -0.5687  0.4559 -1.9508
   13SAPS   H4Y 1686   6.143   5.856   3.956  0.1812 -1.6608  1.3836
   13SAPS   C35 1687   5.949   5.786   4.045  0.9764  0.5524 -0.5940
   13SAPS   H5X 1688   5.963   5.677   4.054  1.1982  0.6901  1.1930
   13SAPS   H5Y 1689   5.843   5.805   4.017  0.0628 -2.0451  0.8031
   13SAPS   C36 1690   5.973   5.851   4.185 -0.1039  0.1304  0.2046
   13SAPS   H6X 1691   5.953   5.960   4.179 -0.0750  0.0863 -0.9710
   13SAPS   H6Y 1692   6.084   5.855   4.199 -0.3954  1.8901  2.9317
   13SAPS   C37 1693   5.921   5.775   4.303  0.5577  0.3294  0.6451
   13SAPS   H7X 1694   5.974   5.678   4.306  2.4295  1.3191  1.0147
   13SAPS   H7Y 1695   5.814   5.762   4.274  1.3404 -0.0065 -2.3379
   13SAPS   C38 1696   5.930   5.853   4.437  0.5883  0.3781  0.4244
   13SAPS   H8X 1697   5.875   5.950   4.441 -0.8189 -0.3590 -0.1248
   13SAPS   H8Y 1698   6.036   5.886   4.446  1.6092 -1.8404 -2.1049
   13SAPS   C39 1699   5.885   5.772   4.551  0.2538 -0.5459 -0.6149
   13SAPS   H9X 1700   5.911   5.842   4.633 -0.8976  1.3514 -1.8024
   13SAPS   H9Y 1701   5.933   5.671   4.552  0.1638 -0.5947  0.7726
   13SAPS  C310 1702   5.734   5.763   4.563  0.6972  0.2667 -0.3539
   13SAPS  H10X 1703   5.705   5.705   4.473 -0.6277  1.0005 -0.4271
   13SAPS  H10Y 1704   5.690   5.864   4.570  1.5540  0.6027  0.3984
   13SAPS  C311 1705   5.692   5.692   4.697  0.4735  0.0798 -0.3490
   13SAPS  H11X 1706   5.582   5.705   4.706  0.2511 -1.2017 -0.9555
   13SAPS  H11Y 1707   5.736   5.738   4.788 -0.1516 -1.4342  0.7619
   13SAPS  C312 1708   5.706   5.542   4.687 -0.0587  0.1981  0.9284
   13SAPS  H12X 1709   5.813   5.518   4.702 -0.1868  0.2977  2.0926
   13SAPS  H12Y 1710   5.683   5.505   4.585  0.6595  2.0278  0.0607
   13SAPS  C313 1711   5.624   5.469   4.790  0.0201 -0.2562  0.9226
   13SAPS  H13X 1712   5.520   5.485   4.755 -0.7575 -1.1039  2.7456
   13SAPS  H13Y 1713   5.640   5.495   4.897 -1.6393  0.3617  1.0435
   13SAPS  C314 1714   5.648   5.319   4.773 -0.2082  0.0320 -0.1165
   13SAPS  H14X 1715   5.758   5.309   4.766 -0.2058  0.6520 -1.0457
   13SAPS  H14Y 1716   5.605   5.276   4.680 -0.5372  0.6790 -0.2690
   13SAPS  C315 1717   5.593   5.240   4.893 -0.3951  0.2973  0.1471
   13SAPS  H15X 1718   5.484   5.218   4.892 -0.0211 -1.8149  0.6512
   13SAPS  H15Y 1719   5.623   5.300   4.982 -0.4813  1.7844 -0.7834
   13SAPS  C316 1720   5.653   5.098   4.904 -0.4363 -0.1807 -0.4313
   13SAPS  H16X 1721   5.615   5.059   5.001  1.1399 -1.2062 -0.2067
   13SAPS  H16Y 1722   5.763   5.103   4.914  0.0504 -1.9541 -3.6308
   13SAPS  C317 1723   5.623   5.001   4.791  0.4480 -0.3708  0.3161
   13SAPS  H17X 1724   5.636   5.033   4.686 -0.2822  1.5845  0.7601
   13SAPS  H17Y 1725   5.516   4.976   4.807  0.4988 -1.2224 -0.6412
   13SAPS  C318 1726   5.709   4.878   4.809 -0.4642 -0.3281 -0.4139
   13SAPS  H18X 1727   5.659   4.793   4.757 -1.1145 -0.2229  0.0379
   13SAPS  H18Y 1728   5.718   4.860   4.918 -0.7754  1.8258  0.0187
   13SAPS  H18Z 1729   5.809   4.897   4.764 -0.4046 -0.3832 -0.3053
   14SAPS     N 1730   3.250   0.698   3.138  0.1986  0.2865  0.1055
   14SAPS   HN1 1731   3.257   0.609   3.190  2.6407  0.1378 -0.3718
   14SAPS   HN2 1732   3.346   0.737   3.134  0.3490  0.3994  2.6552
   14SAPS   HN3 1733   3.189   0.764   3.191 -0.8149  0.7333 -1.5426
   14SAPS   C12 1734   3.181   0.681   3.007 -0.4154 -0.3741  0.5370
   14SAPS  H12A 1735   3.169   0.777   2.960  1.1708 -0.3771  0.0501
   14SAPS   C13 1736   3.268   0.599   2.907  0.6552  0.3379 -0.3702
   14SAPS  O13A 1737   3.378   0.546   2.944 -0.0933 -0.6290  0.1056
   14SAPS  O13B 1738   3.231   0.578   2.789  0.6171  0.7194  0.2354
   14SAPS   C11 1739   3.045   0.613   3.027 -0.0179 -0.5201  0.1740
   14SAPS  H11A 1740   3.061   0.516   3.079 -0.8672 -0.3783  0.7090
   14SAPS  H11B 1741   3.002   0.593   2.926 -1.2336  2.3331  0.0268
   14SAPS     P 1742   2.813   0.709   3.054 -0.4234  0.2036 -0.1283
   14SAPS   O13 1743   2.804   0.800   2.933 -0.2483 -0.4495 -0.5569
   14SAPS   O14 1744   2.761   0.574   3.036 -0.0024 -0.3427  0.4078
   14SAPS   O12 1745   2.966   0.703   3.105  0.6364  0.0682  0.4554
   14SAPS   O11 1746   2.749   0.791   3.179  0.2721  0.2628  0.4560
   14SAPS    C1 1747   2.823   0.868   3.268 -0.0633  0.0023  0.3487
   14SAPS    HA 1748   2.924   0.898   3.232  0.3382 -0.7847  0.8023
   14SAPS    HB 1749   2.777   0.965   3.298  0.8576 -0.3644  3.2637
   14SAPS    C2 1750   2.870   0.791   3.390  0.0638 -0.7676  0.2202
   14SAPS    HS 1751   2.927   0.702   3.357  3.1087  1.7865 -1.9663
   14SAPS   O21 1752   2.747   0.752   3.461 -0.6115 -0.3003  0.5819
   14SAPS   C21 1753   2.751   0.646   3.527 -0.6119 -0.0935 -0.7558
   14SAPS   O22 1754   2.832   0.556   3.531 -0.3835 -0.0989  0.3039
   14SAPS   C22 1755   2.614   0.636   3.601 -0.3602 -0.0220  0.6616
   14SAPS   H2R 1756   2.552   0.724   3.572  0.6157  0.1766 -0.9414
   14SAPS   H2S 1757   2.574   0.541   3.561 -0.5140  0.6518 -0.8774
   14SAPS    C3 1758   2.965   0.874   3.483 -0.2977 -0.0511 -0.4045
   14SAPS    HX 1759   2.909   0.955   3.536 -0.0169 -0.9597  1.3234
   14SAPS    HY 1760   3.047   0.926   3.428  1.1536 -2.1642 -0.3498
   14SAPS   O31 1761   3.023   0.792   3.582 -0.0063  0.2703  0.2788
   14SAPS   C31 1762   3.132   0.712   3.554  0.1634 -0.4662 -0.4087
   14SAPS   O32 1763   3.202   0.721   3.454  0.0504  0.0982 -0.5460
   14SAPS   C32 1764   3.150   0.608   3.653 -0.2379  0.0954  0.1944
   14SAPS   H2X 1765   3.257   0.606   3.684 -0.2738  1.2368  0.4337
   14SAPS   H2Y 1766   3.116   0.511   3.611 -1.7792 -0.5047  2.6233
   14SAPS   C23 1767   2.627   0.634   3.760 -0.4178  0.2376  0.2918
   14SAPS   H3R 1768   2.693   0.716   3.798  0.9601 -0.2695 -0.8943
   14SAPS   H3S 1769   2.692   0.546   3.780 -2.5714 -1.6837 -0.7038
   14SAPS   C24 1770   2.503   0.632   3.843 -0.3087 -0.4094  0.1617
   14SAPS   H4R 1771   2.519   0.560   3.927 -0.1024 -0.2580  0.2532
   14SAPS   H4S 1772   2.437   0.565   3.783 -0.2353  0.3778 -0.8029
   14SAPS   C25 1773   2.439   0.763   3.871  0.6129  0.2936  0.1260
   14SAPS   H5R 1774   2.411   0.814   3.778  0.3845  2.1384  1.1712
   14SAPS   C26 1775   2.419   0.821   3.987 -0.0698  0.2833 -0.1386
   14SAPS   H6R 1776   2.381   0.924   3.985 -0.4584  0.1394 -2.2640
   14SAPS   C27 1777   2.460   0.770   4.125 -0.2204 -0.0491 -0.2678
   14SAPS   H7R 1778   2.540   0.837   4.164  0.9139 -2.0089  1.0052
   14SAPS   H7S 1779   2.518   0.679   4.100  0.5278  0.5428 -0.7320
   14SAPS   C28 1780   2.357   0.735   4.229  0.6755 -0.9215 -0.0627
   14SAPS   H8R 1781   2.269   0.684   4.188 -0.0512 -0.2630  0.6343
   14SAPS   C29 1782   2.366   0.742   4.361 -0.6369  0.0714  0.1330
   14SAPS   H9R 1783   2.281   0.698   4.416  0.1632 -1.7924 -0.0432
   14SAPS  C210 1784   2.484   0.799   4.445  0.5091 -0.3983  0.2980
   14SAPS  H10R 1785   2.461   0.904   4.476  3.1746  0.3354  0.0516
   14SAPS  H10S 1786   2.575   0.810   4.381  0.0757 -0.3436 -0.3169
   14SAPS  C211 1787   2.508   0.726   4.575 -0.2301  0.2721 -0.0223
   14SAPS  H11R 1788   2.474   0.621   4.569 -0.9575  0.4485  0.7939
   14SAPS  C212 1789   2.533   0.777   4.701 -0.2609 -0.7126 -0.1340
   14SAPS  H12R 1790   2.533   0.706   4.785 -0.9493  2.0618  2.3898
   14SAPS  C213 1791   2.556   0.920   4.750  0.5640 -0.4263 -0.3361
   14SAPS  H13R 1792   2.459   0.952   4.793  0.5903  2.4287 -2.1359
   14SAPS  H13S 1793   2.580   0.982   4.661 -1.7089 -0.2980 -0.9119
   14SAPS  C214 1794   2.649   0.947   4.861  0.6137  0.2998 -0.4765
   14SAPS  H14R 1795   2.733   1.014   4.839  1.4427 -0.0164  1.5266
   14SAPS  C215 1796   2.626   0.920   4.997 -0.9108  0.0180 -0.1263
   14SAPS  H15R 1797   2.704   0.943   5.070 -0.5755  0.9270 -0.7543
   14SAPS  C216 1798   2.499   0.859   5.056  0.1511  0.6912  0.0509
   14SAPS  H16R 1799   2.537   0.805   5.145  1.6866 -0.5182 -1.2614
   14SAPS  H16S 1800   2.457   0.787   4.983 -1.2581  0.7766  0.7402
   14SAPS  C217 1801   2.389   0.958   5.090 -0.2048  0.4613  0.5223
   14SAPS  H17R 1802   2.340   0.991   4.997  0.7473  4.0231  1.1636
   14SAPS  H17S 1803   2.435   1.045   5.143 -0.8348  3.5294 -3.5377
   14SAPS  C218 1804   2.274   0.900   5.181 -0.1941 -0.2223  0.2076
   14SAPS  H18R 1805   2.205   0.986   5.194 -1.3858 -1.0319 -0.5697
   14SAPS  H18S 1806   2.320   0.875   5.279 -1.1451 -0.9759  0.4724
   14SAPS  C219 1807   2.214   0.772   5.118 -0.1547 -0.4831  0.3425
   14SAPS  H19R 1808   2.282   0.686   5.139  0.4129  0.2184  1.4795
   14SAPS  H19S 1809   2.215   0.784   5.008  2.3041  1.6190  0.4891
   14SAPS  C220 1810   2.074   0.740   5.167  0.3777  0.2781  0.4595
   14SAPS  H20R 1811   2.042   0.634   5.157  0.8810  0.1791 -0.1862
   14SAPS  H20S 1812   1.992   0.802   5.126 -1.0726 -2.8022 -1.7718
   14SAPS  H20T 1813   2.081   0.753   5.277  2.7444 -2.1878  0.7238
   14SAPS   C33 1814   3.072   0.622   3.789 -0.3043 -0.0164 -0.9055
   14SAPS   H3X 1815   3.093   0.541   3.862 -1.8327  0.3303 -0.0338
   14SAPS   H3Y 1816   2.963   0.631   3.769 -0.8337 -0.9398  1.2093
   14SAPS   C34 1817   3.107   0.751   3.873  0.0147  0.1490 -0.1163
   14SAPS   H4X 1818   3.032   0.766   3.954  0.6653  0.4706  0.4327
   14SAPS   H4Y 1819   3.109   0.835   3.800 -3.6560 -1.3220 -2.1782
   14SAPS   C35 1820   3.243   0.742   3.935  0.1687 -0.7262 -0.0659
   14SAPS   H5X 1821   3.305   0.830   3.909 -0.1160 -0.8659 -1.3191
   14SAPS   H5Y 1822   3.312   0.666   3.892  2.2464  0.6326  0.7435
   14SAPS   C36 1823   3.234   0.700   4.083  0.4346 -0.0698  0.5148
   14SAPS   H6X 1824   3.190   0.598   4.084 -0.7519  0.4257  1.8756
   14SAPS   H6Y 1825   3.175   0.771   4.144 -0.2073  0.1740 -0.3840
   14SAPS   C37 1826   3.373   0.691   4.140  0.1168 -0.6810 -0.5589
   14SAPS   H7X 1827   3.416   0.786   4.102  0.7963 -0.9031 -0.3584
   14SAPS   H7Y 1828   3.425   0.602   4.099  1.3057  0.9480 -2.7846
   14SAPS   C38 1829   3.372   0.691   4.295  0.6012  0.0081  0.6833
   14SAPS   H8X 1830   3.328   0.595   4.330  3.0049 -0.8270  1.6946
   14SAPS   H8Y 1831   3.315   0.782   4.322 -0.6509 -0.7626  0.6925
   14SAPS   C39 1832   3.509   0.713   4.358 -0.0040  0.0598  1.3544
   14SAPS   H9X 1833   3.562   0.796   4.306 -0.8362 -0.0011  0.4015
   14SAPS   H9Y 1834   3.572   0.623   4.341  2.5688  1.4530  2.7943
   14SAPS  C310 1835   3.529   0.740   4.512  0.5016  0.1673 -0.4811
   14SAPS  H10X 1836   3.472   0.829   4.545 -1.4245 -0.6075 -1.5565
   14SAPS  H10Y 1837   3.634   0.759   4.541  0.2672 -0.7649  1.1166
   14SAPS  C311 1838   3.473   0.623   4.597 -0.3882 -0.1306  0.2014
   14SAPS  H11X 1839   3.517   0.528   4.560 -1.1534  0.3669 -2.1721
   14SAPS  H11Y 1840   3.367   0.598   4.578 -0.0956 -2.1211  0.9313
   14SAPS  C312 1841   3.513   0.632   4.748 -0.4808 -0.5035  0.7155
   14SAPS  H12X 1842   3.621   0.660   4.746 -1.0756  2.1074 -1.1280
   14SAPS  H12Y 1843   3.499   0.531   4.792  0.9833 -0.1601  2.0603
   14SAPS  C313 1844   3.434   0.728   4.832 -0.4355  0.0690  0.0283
   14SAPS  H13X 1845   3.326   0.699   4.827  0.3384 -3.0976 -0.6296
   14SAPS  H13Y 1846   3.438   0.832   4.793 -1.7321  0.4611  0.8644
   14SAPS  C314 1847   3.473   0.733   4.978 -0.0009 -0.5107 -0.0220
   14SAPS  H14X 1848   3.579   0.765   4.981 -0.3079  0.7038 -1.1763
   14SAPS  H14Y 1849   3.451   0.632   5.020 -4.2128  0.4339  0.4652
   14SAPS  C315 1850   3.393   0.835   5.060 -1.0177  0.0546  0.8075
   14SAPS  H15X 1851   3.285   0.819   5.040 -0.4121 -0.2414 -3.0778
   14SAPS  H15Y 1852   3.417   0.932   5.011  1.5532 -1.0687 -0.3545
   14SAPS  C316 1853   3.419   0.835   5.209  0.3090  0.0083 -0.1827
   14SAPS  H16X 1854   3.523   0.872   5.224  0.7623  0.1723 -3.1340
   14SAPS  H16Y 1855   3.412   0.731   5.250 -2.1677  0.0442 -0.3516
   14SAPS  C317 1856   3.316   0.922   5.287 -0.2058 -0.2152 -0.2402
   14SAPS  H17X 1857   3.210   0.894   5.268 -0.8395  1.0026  1.3452
   14SAPS  H17Y 1858   3.319   1.027   5.252 -3.8281 -0.2462 -1.0142
   14SAPS  C318 1859   3.334   0.911   5.439 -0.6996 -0.1621  0.7211
   14SAPS  H18X 1860   3.249   0.962   5.489  0.4595  1.5910  0.9838
   14SAPS  H18Y 1861   3.431   0.942   5.482 -1.7033  2.7929  1.0823
   14SAPS  H18Z 1862   3.328   0.801   5.456 -1.7851 -0.2487 -0.1198
   15SAPS     N 1863   1.782   2.952   2.681 -0.1900 -0.7067 -0.6677
   15SAPS   HN1 1864   1.687   2.914   2.657 -1.3722  2.6955 -1.9325
   15SAPS   HN2 1865   1.854   2.879   2.663  2.1729  1.8377 -2.3295
   15SAPS   HN3 1866   1.780   2.965   2.784  1.3485  0.8662 -0.8035
   15SAPS   C12 1867   1.809   3.081   2.620 -0.0989  0.4658  0.5894
   15SAPS  H12A 1868   1.805   3.067   2.513  2.6859 -0.5918  0.5237
   15SAPS   C13 1869   1.718   3.199   2.672 -1.0495  0.4448  0.0620
   15SAPS  O13A 1870   1.626   3.186   2.764 -0.2374  0.0851 -1.5363
   15SAPS  O13B 1871   1.752   3.308   2.619 -0.2615 -0.2675  0.3489
   15SAPS   C11 1872   1.956   3.118   2.620 -1.4847 -1.0640  0.0415
   15SAPS  H11A 1873   1.972   3.153   2.724  0.6290 -0.7923 -0.3331
   15SAPS  H11B 1874   1.982   3.193   2.543  1.2069 -3.1825 -1.2827
   15SAPS     P 1875   2.190   3.019   2.584 -0.2359  0.3874  0.1122
   15SAPS   O13 1876   2.261   2.890   2.553 -0.0782  0.6753  0.2669
   15SAPS   O14 1877   2.223   3.134   2.498  0.0446 -0.1210  0.0399
   15SAPS   O12 1878   2.035   3.004   2.588 -0.5002  0.5255 -0.7475
   15SAPS   O11 1879   2.214   3.070   2.733 -0.6276  0.3296  0.5853
   15SAPS    C1 1880   2.191   2.965   2.829  0.4255  0.3959  0.3031
   15SAPS    HA 1881   2.085   2.981   2.856 -0.0063  2.2573 -2.0939
   15SAPS    HB 1882   2.202   2.860   2.795 -0.2341  0.7211 -0.9757
   15SAPS    C2 1883   2.272   2.987   2.962 -0.6713 -0.5813 -0.3601
   15SAPS    HS 1884   2.237   2.912   3.036 -3.0229 -0.0655 -0.8569
   15SAPS   O21 1885   2.252   3.124   3.005  0.0111 -0.1492 -0.1923
   15SAPS   C21 1886   2.133   3.167   3.046 -0.3150  0.4078 -0.3305
   15SAPS   O22 1887   2.034   3.098   3.067  0.2031  0.4206  0.2117
   15SAPS   C22 1888   2.127   3.323   3.050  0.5672  0.3457  0.6910
   15SAPS   H2R 1889   2.186   3.359   2.964  1.0471  0.8891  1.2390
   15SAPS   H2S 1890   2.027   3.364   3.024  0.7070  0.9716  1.1304
   15SAPS    C3 1891   2.423   2.955   2.933  0.5710 -0.0693 -0.8499
   15SAPS    HX 1892   2.462   3.010   2.845  2.5395 -0.2153 -0.1165
   15SAPS    HY 1893   2.426   2.846   2.909 -2.5004 -0.1960 -1.1657
   15SAPS   O31 1894   2.511   2.982   3.050 -0.0007  0.3121  0.1202
   15SAPS   C31 1895   2.527   2.886   3.144  0.0680  0.1082 -1.0626
   15SAPS   O32 1896   2.458   2.787   3.152  0.3468 -0.0160 -0.1352
   15SAPS   C32 1897   2.631   2.928   3.250 -0.8214 -0.1513  0.1617
   15SAPS   H2X 1898   2.647   3.035   3.223  0.2065 -0.0132  1.2393
   15SAPS   H2Y 1899   2.721   2.865   3.237  1.8407  3.2496  0.5577
   15SAPS   C23 1900   2.155   3.389   3.189 -0.0171  0.0955  0.4517
   15SAPS   H3R 1901   2.089   3.341   3.265 -0.2769  2.3822  1.7675
   15SAPS   H3S 1902   2.111   3.491   3.181  0.2438  0.1239 -0.7743
   15SAPS   C24 1903   2.303   3.402   3.234  0.2369  0.4557  0.0885
   15SAPS   H4R 1904   2.345   3.300   3.248  2.1049  1.2756  0.7484
   15SAPS   H4S 1905   2.310   3.454   3.331 -0.6087 -0.3588  0.6043
   15SAPS   C25 1906   2.387   3.473   3.129 -0.0656  0.4807  1.1795
   15SAPS   H5R 1907   2.343   3.562   3.081  0.4503 -0.0305 -0.2678
   15SAPS   C26 1908   2.514   3.457   3.101  0.0239 -0.3081  0.1071
   15SAPS   H6R 1909   2.560   3.505   3.014 -0.1457  0.8546  0.6445
   15SAPS   C27 1910   2.601   3.346   3.157  0.5174 -1.0077 -0.1961
   15SAPS   H7R 1911   2.558   3.251   3.119 -0.4859 -0.8134  0.4037
   15SAPS   H7S 1912   2.586   3.345   3.267  2.8513 -0.9248  0.1712
   15SAPS   C28 1913   2.755   3.354   3.123  0.0104  0.8411 -0.2737
   15SAPS   H8R 1914   2.787   3.339   3.019  3.3079 -0.5704  0.7972
   15SAPS   C29 1915   2.851   3.360   3.218  0.2693 -0.4705 -0.3215
   15SAPS   H9R 1916   2.956   3.362   3.186  0.9770 -1.7957  1.7142
   15SAPS  C210 1917   2.833   3.373   3.367  0.5539  0.2821  0.1092
   15SAPS  H10R 1918   2.741   3.434   3.375 -0.5994 -1.3149 -0.5714
   15SAPS  H10S 1919   2.920   3.431   3.404 -0.1770  1.1162  0.5401
   15SAPS  C211 1920   2.815   3.244   3.444  0.1856 -0.6248  0.1502
   15SAPS  H11R 1921   2.819   3.156   3.378 -0.0362 -0.2807 -0.3267
   15SAPS  C212 1922   2.791   3.231   3.576  0.0575 -0.7866  0.0941
   15SAPS  H12R 1923   2.770   3.132   3.619 -0.2781 -0.9853 -0.5221
   15SAPS  C213 1924   2.791   3.349   3.666  0.1996 -0.0039 -0.0961
   15SAPS  H13R 1925   2.695   3.354   3.721 -0.3698 -1.0346 -0.9724
   15SAPS  H13S 1926   2.809   3.445   3.614  0.9193  1.0226  1.9450
   15SAPS  C214 1927   2.907   3.315   3.763 -0.1937 -0.7856  0.2412
   15SAPS  H14R 1928   2.996   3.290   3.703 -1.3429 -0.3207 -1.7439
   15SAPS  C215 1929   2.919   3.321   3.894 -0.2395 -0.4456  0.2328
   15SAPS  H15R 1930   3.020   3.293   3.925  1.1792  2.1954 -1.6427
   15SAPS  C216 1931   2.807   3.371   3.988  0.7253  0.6362 -1.1145
   15SAPS  H16R 1932   2.728   3.421   3.927 -1.3461 -1.9927 -0.7765
   15SAPS  H16S 1933   2.852   3.448   4.054  0.3861 -0.6080  0.6249
   15SAPS  C217 1934   2.745   3.262   4.078 -0.1824 -0.3701 -0.0172
   15SAPS  H17R 1935   2.825   3.226   4.147  0.3754  0.8725  0.0005
   15SAPS  H17S 1936   2.704   3.179   4.015  0.6450  1.0845 -2.5986
   15SAPS  C218 1937   2.644   3.320   4.174  0.5107  0.0007  0.4589
   15SAPS  H18R 1938   2.558   3.252   4.195  1.5019 -1.1775  0.8115
   15SAPS  H18S 1939   2.598   3.391   4.101  3.5481  1.7851  0.1243
   15SAPS  C219 1940   2.697   3.418   4.277  0.4864 -0.3318 -0.0313
   15SAPS  H19R 1941   2.769   3.492   4.238  0.9816  0.2304  1.8234
   15SAPS  H19S 1942   2.739   3.361   4.363 -0.6120  1.9220  2.1136
   15SAPS  C220 1943   2.582   3.483   4.354  0.5757  0.1630  0.2586
   15SAPS  H20R 1944   2.618   3.534   4.446 -0.6732  0.8129  0.4147
   15SAPS  H20S 1945   2.531   3.395   4.399 -2.0058  1.5933  0.3426
   15SAPS  H20T 1946   2.504   3.554   4.317  0.4445 -0.3370 -0.4225
   15SAPS   C33 1947   2.579   2.916   3.394 -0.3080  0.6772  0.1838
   15SAPS   H3X 1948   2.668   2.921   3.460 -0.1711  1.4523 -0.0520
   15SAPS   H3Y 1949   2.532   2.816   3.410 -0.7969  0.4571 -2.2420
   15SAPS   C34 1950   2.489   3.036   3.419  0.1672 -1.2422  0.0775
   15SAPS   H4X 1951   2.407   3.058   3.347 -0.2522 -0.6769  0.7096
   15SAPS   H4Y 1952   2.558   3.124   3.418 -0.1503 -0.9951 -0.2570
   15SAPS   C35 1953   2.432   3.025   3.561 -0.4750 -0.1251  0.4625
   15SAPS   H5X 1954   2.515   3.025   3.635  1.6113 -0.0802 -1.7825
   15SAPS   H5Y 1955   2.389   2.923   3.571 -0.1412 -0.8475 -3.7263
   15SAPS   C36 1956   2.339   3.145   3.591 -0.5857 -0.0589 -0.7970
   15SAPS   H6X 1957   2.245   3.154   3.532 -0.3379  2.6185 -0.8631
   15SAPS   H6Y 1958   2.390   3.240   3.567 -0.6235  0.6941  1.8073
   15SAPS   C37 1959   2.295   3.151   3.738 -0.1225  0.3359  0.5018
   15SAPS   H7X 1960   2.298   3.046   3.775 -3.6623  0.4267  1.3378
   15SAPS   H7Y 1961   2.189   3.182   3.729  0.1075  0.8476 -0.6967
   15SAPS   C38 1962   2.387   3.246   3.815  0.5369  0.2808 -0.4550
   15SAPS   H8X 1963   2.382   3.344   3.762 -0.4403  2.1154  2.7925
   15SAPS   H8Y 1964   2.490   3.204   3.814 -0.2794 -1.7931 -0.4994
   15SAPS   C39 1965   2.321   3.276   3.951  0.4059 -0.1528 -0.4814
   15SAPS   H9X 1966   2.211   3.289   3.943  0.2472 -0.6318  0.7242
   15SAPS   H9Y 1967   2.379   3.361   3.992 -1.4369  0.1333  1.7348
   15SAPS  C310 1968   2.329   3.160   4.049 -0.1543  0.0687 -0.0984
   15SAPS  H10X 1969   2.437   3.135   4.055 -0.7361 -2.6216  0.6719
   15SAPS  H10Y 1970   2.266   3.073   4.021 -0.7006  0.1668  0.7727
   15SAPS  C311 1971   2.289   3.208   4.188  0.2164 -0.6141 -0.3178
   15SAPS  H11X 1972   2.181   3.234   4.193  0.4786  0.3791  0.7416
   15SAPS  H11Y 1973   2.338   3.307   4.205 -1.6240  0.8812 -3.0628
   15SAPS  C312 1974   2.317   3.103   4.292 -0.2997 -0.0013  0.6566
   15SAPS  H12X 1975   2.421   3.064   4.279 -0.1420  0.8085 -0.7176
   15SAPS  H12Y 1976   2.247   3.020   4.265 -1.9492  1.4081  0.4523
   15SAPS  C313 1977   2.295   3.145   4.435 -0.2117 -0.0531  0.7935
   15SAPS  H13X 1978   2.190   3.178   4.451 -0.7923 -0.9394 -1.0176
   15SAPS  H13Y 1979   2.366   3.225   4.463 -0.6235  0.7539 -0.4028
   15SAPS  C314 1980   2.310   3.028   4.539 -0.4350 -0.0368  0.2925
   15SAPS  H14X 1981   2.296   3.067   4.642  0.3705  2.6738 -0.5642
   15SAPS  H14Y 1982   2.416   2.995   4.539 -0.3948  0.0681 -0.5548
   15SAPS  C315 1983   2.214   2.909   4.511 -0.4545  0.1454 -0.5478
   15SAPS  H15X 1984   2.247   2.822   4.572  0.6424 -0.1543 -1.5408
   15SAPS  H15Y 1985   2.226   2.871   4.408 -1.6630  1.1081 -1.0618
   15SAPS  C316 1986   2.068   2.926   4.550  0.0707  0.6541 -0.6431
   15SAPS  H16X 1987   2.004   2.842   4.516 -2.0075  0.9887  2.0506
   15SAPS  H16Y 1988   2.030   3.017   4.499  0.0637  1.7555  1.2237
   15SAPS  C317 1989   2.056   2.933   4.707 -0.5971 -0.0605  0.0902
   15SAPS  H17X 1990   2.156   2.966   4.741 -0.8246  0.3313  0.3929
   15SAPS  H17Y 1991   2.030   2.833   4.748  0.3092 -2.1709 -3.9336
   15SAPS  C318 1992   1.954   3.045   4.737 -0.6559 -0.1587 -0.5446
   15SAPS  H18X 1993   1.991   3.149   4.719 -0.3585  0.2015  1.8573
   15SAPS  H18Y 1994   1.913   3.047   4.840  0.1786  0.1940 -0.2073
   15SAPS  H18Z 1995   1.872   3.026   4.665  0.1353  0.0300 -1.5228
   16SAPS     N 1996   3.324   1.905   2.404 -0.1163 -0.1517  0.4213
   16SAPS   HN1 1997   3.294   1.991   2.455 -0.8081  1.4856 -2.5177
   16SAPS   HN2 1998   3.296   1.930   2.307  1.5818  0.4873  0.0598
   16SAPS   HN3 1999   3.264   1.828   2.441  0.4878 -0.5657  0.5392
   16SAPS   C12 2000   3.467   1.891   2.394  0.3502  0.5465 -0.8168
   16SAPS  H12A 2001   3.487   1.795   2.347 -0.3967 -0.0039 -0.0360
   16SAPS   C13 2002   3.529   1.999   2.314  0.6681  0.1603  1.0758
   16SAPS  O13A 2003   3.464   2.084   2.251  0.4419 -0.0064  0.1322
   16SAPS  O13B 2004   3.650   2.008   2.304  0.0452 -0.5497  0.0027
   16SAPS   C11 2005   3.517   1.888   2.536 -0.6084  0.3274  0.2006
   16SAPS  H11A 2006   3.473   1.970   2.596 -0.4166  0.9737 -0.5166
   16SAPS  H11B 2007   3.627   1.905   2.540 -0.4779 -0.7705  2.2752
   16SAPS     P 2008   3.541   1.705   2.721  0.2674 -0.1636 -0.1709
   16SAPS   O13 2009   3.464   1.581   2.751 -0.2759  0.0901  0.2216
   16SAPS   O14 2010   3.690   1.695   2.722  0.7683 -0.0089 -0.5824
   16SAPS   O12 2011   3.489   1.759   2.589  0.2230 -0.6628  0.5431
   16SAPS   O11 2012   3.486   1.819   2.809  0.8466  0.1376  0.6462
   16SAPS    C1 2013   3.352   1.821   2.850  0.1182  0.3532 -0.9629
   16SAPS    HA 2014   3.289   1.840   2.760  0.1038 -0.5057 -1.1504
   16SAPS    HB 2015   3.319   1.721   2.886  0.8660  0.0550 -1.0786
   16SAPS    C2 2016   3.327   1.922   2.966 -0.0085  0.2988 -0.0767
   16SAPS    HS 2017   3.381   2.015   2.936  0.9840 -0.4244 -0.6110
   16SAPS   O21 2018   3.363   1.858   3.090 -0.9318  0.0908  0.2953
   16SAPS   C21 2019   3.485   1.878   3.133  0.0809 -0.4470  0.0085
   16SAPS   O22 2020   3.576   1.933   3.070  0.3191  0.0698 -0.3908
   16SAPS   C22 2021   3.501   1.806   3.271  0.3762  0.3592 -0.3686
   16SAPS   H2R 2022   3.428   1.854   3.340  2.3234  1.4735  1.0030
   16SAPS   H2S 2023   3.474   1.700   3.255 -2.1029  1.0698 -1.4434
   16SAPS    C3 2024   3.177   1.938   2.982  0.4764  0.0409 -0.1587
   16SAPS    HX 2025   3.138   1.838   3.009 -0.7726  0.7837  0.8967
   16SAPS    HY 2026   3.126   1.975   2.891 -1.8379 -2.8110 -0.1497
   16SAPS   O31 2027   3.154   2.029   3.089  0.8521 -0.0429 -0.1135
   16SAPS   C31 2028   3.037   2.020   3.148  0.3052  0.1574 -0.0835
   16SAPS   O32 2029   2.945   1.942   3.128  0.0472 -0.0275 -0.1245
   16SAPS   C32 2030   3.029   2.117   3.266 -0.0123 -1.0891  0.2961
   16SAPS   H2X 2031   3.028   2.221   3.227 -2.1370 -0.0612  2.7707
   16SAPS   H2Y 2032   3.123   2.103   3.323  0.9517  1.0731 -0.6607
   16SAPS   C23 2033   3.643   1.813   3.329  0.4723 -0.4094 -0.3783
   16SAPS   H3R 2034   3.635   1.790   3.437  0.0089 -1.6638 -0.6560
   16SAPS   H3S 2035   3.691   1.911   3.309 -0.0502  0.0978  0.7706
   16SAPS   C24 2036   3.737   1.700   3.275 -0.5261  0.3735  0.3554
   16SAPS   H4R 2037   3.716   1.690   3.167 -0.0049 -3.5655  0.4796
   16SAPS   H4S 2038   3.699   1.607   3.323 -2.0259  0.9908  0.4078
   16SAPS   C25 2039   3.879   1.733   3.294 -0.6247 -0.6224 -0.0795
   16SAPS   H5R 2040   3.935   1.738   3.200  0.6444  0.1840  0.6886
   16SAPS   C26 2041   3.954   1.720   3.405  0.3146  0.3254  0.0625
   16SAPS   H6R 2042   4.060   1.746   3.395  0.3068 -0.3868 -3.1681
   16SAPS   C27 2043   3.902   1.686   3.544  0.2403  1.0270 -0.0943
   16SAPS   H7R 2044   3.796   1.717   3.554  0.8660  3.2744  0.0357
   16SAPS   H7S 2045   3.954   1.744   3.623  3.0840  0.5901 -1.5340
   16SAPS   C28 2046   3.913   1.540   3.586 -0.7529  0.2131 -0.1889
   16SAPS   H8R 2047   4.017   1.505   3.584 -0.8331 -0.0198 -0.3498
   16SAPS   C29 2048   3.818   1.466   3.644  0.5588  1.1349 -0.2245
   16SAPS   H9R 2049   3.835   1.359   3.662 -1.7353  0.5909 -1.0250
   16SAPS  C210 2050   3.680   1.513   3.675  0.5233  0.2490 -0.0104
   16SAPS  H10R 2051   3.643   1.550   3.577  4.6861  1.0782 -1.4721
   16SAPS  H10S 2052   3.679   1.603   3.741 -0.2997  1.6445 -1.8351
   16SAPS  C211 2053   3.586   1.402   3.711  0.3977  0.1782 -0.0072
   16SAPS  H11R 2054   3.563   1.342   3.621  1.0836 -1.3417  0.7842
   16SAPS  C212 2055   3.523   1.376   3.825 -0.0094 -0.2243  0.6971
   16SAPS  H12R 2056   3.454   1.291   3.819 -1.5833  0.9868  1.0139
   16SAPS  C213 2057   3.535   1.442   3.963  0.0805 -0.2558 -0.0583
   16SAPS  H13R 2058   3.430   1.431   3.999 -0.3863 -0.2772 -1.3566
   16SAPS  H13S 2059   3.536   1.552   3.949  1.6445 -0.4403 -1.7381
   16SAPS  C214 2060   3.650   1.406   4.054 -0.6483  0.0324  0.1746
   16SAPS  H14R 2061   3.694   1.307   4.033  1.1740  0.7564  0.4161
   16SAPS  C215 2062   3.669   1.455   4.174 -0.3276 -0.3207 -0.2264
   16SAPS  H15R 2063   3.755   1.421   4.234  1.3330  0.6301 -1.9522
   16SAPS  C216 2064   3.589   1.578   4.214 -0.0786 -0.1670 -0.1639
   16SAPS  H16R 2065   3.482   1.561   4.237  0.2127  1.0549  2.3558
   16SAPS  H16S 2066   3.602   1.662   4.143  0.7420  0.3034  0.5310
   16SAPS  C217 2067   3.650   1.629   4.353 -0.2434  0.5604  0.8151
   16SAPS  H17R 2068   3.758   1.638   4.329 -0.5988 -1.9599 -2.5736
   16SAPS  H17S 2069   3.627   1.549   4.426 -2.9977  0.1323 -0.3987
   16SAPS  C218 2070   3.590   1.764   4.396 -1.3861 -0.1750 -0.4818
   16SAPS  H18R 2071   3.480   1.758   4.394 -1.3121 -2.5323 -0.1501
   16SAPS  H18S 2072   3.631   1.841   4.328 -0.0132 -0.9888 -0.6176
   16SAPS  C219 2073   3.639   1.809   4.534 -0.4697  0.1718  0.3170
   16SAPS  H19R 2074   3.631   1.724   4.604 -0.0198  0.0110  0.1825
   16SAPS  H19S 2075   3.571   1.890   4.567 -0.4868  0.0060  0.6856
   16SAPS  C220 2076   3.780   1.871   4.536 -0.1136  0.4964 -0.3016
   16SAPS  H20R 2077   3.797   1.954   4.463  1.7632 -0.8543 -1.4635
   16SAPS  H20S 2078   3.848   1.789   4.508 -0.6303 -0.5669  1.4197
   16SAPS  H20T 2079   3.803   1.904   4.639  1.1739 -0.8484 -0.1342
   16SAPS   C33 2080   2.912   2.098   3.365  0.1123  0.2163  0.1957
   16SAPS   H3X 2081   2.890   1.989   3.376 -0.3172  0.3427  0.6112
   16SAPS   H3Y 2082   2.817   2.139   3.325  0.2126  0.9762  0.7352
   16SAPS   C34 2083   2.944   2.164   3.492 -0.2098 -1.0670  0.1886
   16SAPS   H4X 2084   2.852   2.211   3.532 -0.2918 -0.5461 -0.5904
   16SAPS   H4Y 2085   3.012   2.250   3.473 -1.2133 -0.6753 -1.8204
   16SAPS   C35 2086   2.999   2.070   3.598 -0.1292  0.4450  0.1926
   16SAPS   H5X 2087   3.103   2.036   3.581 -0.9937 -1.3081 -2.1887
   16SAPS   H5Y 2088   2.938   1.980   3.573  0.8401 -0.3863  0.7879
   16SAPS   C36 2089   2.997   2.128   3.740  0.5798  0.5446 -0.2499
   16SAPS   H6X 2090   3.032   2.056   3.816 -1.9584  1.4575  1.9727
   16SAPS   H6Y 2091   2.888   2.133   3.763  0.1896  1.3715 -2.0872
   16SAPS   C37 2092   3.065   2.262   3.766 -0.1469 -0.0205 -0.0849
   16SAPS   H7X 2093   3.027   2.331   3.688  2.1707 -0.2928 -1.5669
   16SAPS   H7Y 2094   3.173   2.246   3.744 -0.1625  1.5830 -1.5206
   16SAPS   C38 2095   3.059   2.329   3.909  0.3299  0.3135  0.0252
   16SAPS   H8X 2096   3.104   2.428   3.886  1.1872 -0.4713 -1.8865
   16SAPS   H8Y 2097   3.125   2.275   3.981 -0.3354 -0.5713 -0.0168
   16SAPS   C39 2098   2.917   2.342   3.961  0.1375  0.3221  0.1744
   16SAPS   H9X 2099   2.866   2.243   3.961 -0.8214  0.6964 -3.3318
   16SAPS   H9Y 2100   2.863   2.396   3.880  0.9698 -0.6420 -1.0523
   16SAPS  C310 2101   2.893   2.417   4.089 -0.2539 -0.4120 -0.2801
   16SAPS  H10X 2102   2.783   2.428   4.101 -0.3325 -2.4894  1.4978
   16SAPS  H10Y 2103   2.940   2.518   4.080  0.2192 -0.4475  1.3257
   16SAPS  C311 2104   2.954   2.352   4.219 -0.0083 -0.0654 -0.1284
   16SAPS  H11X 2105   3.060   2.383   4.214  1.1705 -3.8977 -2.2070
   16SAPS  H11Y 2106   2.959   2.242   4.208  4.6585  0.1423 -2.2203
   16SAPS  C312 2107   2.892   2.406   4.346  0.7978 -0.4041  0.2370
   16SAPS  H12X 2108   2.786   2.376   4.335  0.6948 -0.6373  1.7401
   16SAPS  H12Y 2109   2.894   2.517   4.353 -0.6812 -0.4713  2.7036
   16SAPS  C313 2110   2.951   2.350   4.474 -0.0021  0.6523 -0.6068
   16SAPS  H13X 2111   3.015   2.262   4.454  0.7589  0.8114  0.9896
   16SAPS  H13Y 2112   2.876   2.303   4.540 -0.1305  1.3900 -0.2082
   16SAPS  C314 2113   3.048   2.459   4.532  0.2534 -0.3034 -0.3254
   16SAPS  H14X 2114   2.989   2.552   4.544 -0.0434 -0.4276 -0.7985
   16SAPS  H14Y 2115   3.129   2.486   4.461 -0.5620  0.2056 -1.0844
   16SAPS  C315 2116   3.114   2.399   4.663  0.9029  0.3384  0.0367
   16SAPS  H15X 2117   3.159   2.298   4.653  0.4514  0.0180  1.0266
   16SAPS  H15Y 2118   3.028   2.369   4.728  2.3769 -1.2698  1.3469
   16SAPS  C316 2119   3.217   2.489   4.731 -0.7303  0.3438 -0.1883
   16SAPS  H16X 2120   3.273   2.521   4.640 -0.7951 -0.1824 -0.4176
   16SAPS  H16Y 2121   3.279   2.424   4.796 -0.5669  2.0189  1.3927
   16SAPS  C317 2122   3.151   2.596   4.807  0.6097 -0.2812  0.9493
   16SAPS  H17X 2123   3.067   2.557   4.867 -0.3723  1.6996  0.9330
   16SAPS  H17Y 2124   3.113   2.668   4.732  0.7577 -1.5741 -0.4277
   16SAPS  C318 2125   3.238   2.661   4.902 -0.1047 -0.3310 -0.2664
   16SAPS  H18X 2126   3.200   2.762   4.928 -1.5114 -1.1642  1.1119
   16SAPS  H18Y 2127   3.340   2.682   4.864 -0.4354  2.1583  0.0783
   16SAPS  H18Z 2128   3.239   2.600   4.995 -1.3802 -0.4798 -0.3331
   17SAPS     N 2129   1.218   3.586   2.617  0.5382 -0.1738 -0.1470
   17SAPS   HN1 2130   1.221   3.612   2.717  3.5354  0.4728 -0.3130
   17SAPS   HN2 2131   1.126   3.575   2.569  0.8751  1.0647 -1.1460
   17SAPS   HN3 2132   1.259   3.492   2.601 -0.8093 -0.7591 -0.3423
   17SAPS   C12 2133   1.304   3.682   2.542  0.9063  0.4507  0.1940
   17SAPS  H12A 2134   1.359   3.627   2.467  0.4390  0.2573 -0.0049
   17SAPS   C13 2135   1.224   3.783   2.449 -0.0727  0.2402 -0.0737
   17SAPS  O13A 2136   1.099   3.790   2.454 -0.0862  0.7150  0.0183
   17SAPS  O13B 2137   1.283   3.850   2.361 -0.7741 -0.0765  0.6444
   17SAPS   C11 2138   1.401   3.752   2.643  0.5000  0.2418 -0.0049
   17SAPS  H11A 2139   1.346   3.823   2.709  1.8616  0.0418  1.4042
   17SAPS  H11B 2140   1.473   3.817   2.590  0.8287 -0.2124 -0.1185
   17SAPS     P 2141   1.452   3.655   2.873  0.1929 -0.0607 -0.1279
   17SAPS   O13 2142   1.495   3.519   2.915  0.1745 -0.5358  0.2593
   17SAPS   O14 2143   1.518   3.782   2.924 -0.3396  0.2370  0.2073
   17SAPS   O12 2144   1.476   3.657   2.721 -0.2056  0.0399 -0.1157
   17SAPS   O11 2145   1.286   3.655   2.862  0.2600 -0.0802 -0.4933
   17SAPS    C1 2146   1.207   3.636   2.974  0.3028 -0.1069 -0.3368
   17SAPS    HA 2147   1.158   3.536   2.976  0.3064 -0.1155 -0.6355
   17SAPS    HB 2148   1.262   3.652   3.070 -1.3283 -0.6951  0.7502
   17SAPS    C2 2149   1.099   3.744   2.979  0.8224  0.2427 -0.3199
   17SAPS    HS 2150   1.057   3.735   2.877  1.5491  1.9337 -0.8025
   17SAPS   O21 2151   1.169   3.864   3.019 -0.2901 -0.3784 -0.7595
   17SAPS   C21 2152   1.188   3.952   2.913  0.0584  0.9646 -0.3757
   17SAPS   O22 2153   1.144   3.932   2.803 -0.2396 -0.8551  0.3171
   17SAPS   C22 2154   1.273   4.063   2.962  0.3960 -1.2192 -0.4932
   17SAPS   H2R 2155   1.231   4.113   3.052  4.4829  3.5728 -0.7669
   17SAPS   H2S 2156   1.360   4.015   3.011  0.5857 -0.8019 -0.4158
   17SAPS    C3 2157   0.987   3.719   3.088 -0.2135 -0.9358 -0.2966
   17SAPS    HX 2158   0.929   3.631   3.054 -0.7633 -1.0274  0.8642
   17SAPS    HY 2159   0.923   3.810   3.096 -0.2535 -1.1288  2.0514
   17SAPS   O31 2160   1.048   3.692   3.214  0.9499 -0.0279 -0.2591
   17SAPS   C31 2161   0.961   3.677   3.312  0.3996  0.6421 -0.2841
   17SAPS   O32 2162   0.841   3.673   3.302 -0.9967  0.5460  0.0923
   17SAPS   C32 2163   1.034   3.662   3.446 -0.7041 -0.0496 -0.3321
   17SAPS   H2X 2164   1.142   3.646   3.431 -0.1365  0.1134  2.8097
   17SAPS   H2Y 2165   0.999   3.573   3.504 -2.0313  0.3801 -0.4292
   17SAPS   C23 2166   1.301   4.179   2.860 -0.2432  0.8047 -0.6459
   17SAPS   H3R 2167   1.206   4.199   2.804 -0.6089 -0.1460 -0.3837
   17SAPS   H3S 2168   1.366   4.130   2.785 -0.9104 -1.7517  0.3170
   17SAPS   C24 2169   1.365   4.306   2.917 -0.1848 -0.4517  0.3504
   17SAPS   H4R 2170   1.411   4.354   2.828  2.1274 -1.6890  0.7934
   17SAPS   H4S 2171   1.449   4.280   2.985  2.2092  0.9513 -1.8802
   17SAPS   C25 2172   1.286   4.416   2.983  0.3733  0.3190 -0.8334
   17SAPS   H5R 2173   1.218   4.472   2.918  0.4467  0.7666 -0.5267
   17SAPS   C26 2174   1.278   4.441   3.115  0.2620 -0.5589 -0.3246
   17SAPS   H6R 2175   1.209   4.522   3.144  0.6342 -0.6091  0.7621
   17SAPS   C27 2176   1.342   4.366   3.231  0.3394 -0.0209  0.0794
   17SAPS   H7R 2177   1.354   4.447   3.306 -2.0973 -0.0702  0.6099
   17SAPS   H7S 2178   1.439   4.315   3.211  1.0638  1.6166 -0.7418
   17SAPS   C28 2179   1.233   4.277   3.292  0.6081 -0.7712 -0.1894
   17SAPS   H8R 2180   1.147   4.252   3.228  1.0312 -2.7701 -0.0463
   17SAPS   C29 2181   1.239   4.234   3.425  0.0443  0.1990  0.2928
   17SAPS   H9R 2182   1.166   4.163   3.466 -0.2341  1.2682  1.7178
   17SAPS  C210 2183   1.350   4.259   3.526 -0.0472  0.7529  0.4734
   17SAPS  H10R 2184   1.329   4.349   3.587 -2.4564  0.0088  0.8779
   17SAPS  H10S 2185   1.445   4.286   3.476  0.6035 -0.0206  1.2618
   17SAPS  C211 2186   1.384   4.153   3.624 -0.1879  0.1789  0.0666
   17SAPS  H11R 2187   1.481   4.110   3.595  1.0201  1.5157  1.8950
   17SAPS  C212 2188   1.301   4.106   3.721  0.8486  0.0473 -0.0562
   17SAPS  H12R 2189   1.345   4.039   3.796  1.9657 -0.4218 -1.0887
   17SAPS  C213 2190   1.164   4.151   3.757  0.1903  0.1177 -0.4080
   17SAPS  H13R 2191   1.102   4.087   3.691 -0.4502  0.1272  0.1627
   17SAPS  H13S 2192   1.144   4.254   3.721 -1.6595 -0.1600 -0.3211
   17SAPS  C214 2193   1.113   4.132   3.898 -0.3327  0.3123  0.2577
   17SAPS  H14R 2194   1.071   4.032   3.918  1.2810  0.0344  2.6845
   17SAPS  C215 2195   1.129   4.213   4.008  0.3221 -0.2125  0.0399
   17SAPS  H15R 2196   1.091   4.182   4.106  3.2974 -3.8986  0.2705
   17SAPS  C216 2197   1.219   4.341   4.022 -0.1773 -0.2706 -0.2030
   17SAPS  H16R 2198   1.160   4.430   4.053 -2.1108 -1.0210 -1.5448
   17SAPS  H16S 2199   1.266   4.350   3.922 -2.7816 -0.9088 -1.5859
   17SAPS  C217 2200   1.338   4.314   4.115  0.5708  0.2141 -0.2915
   17SAPS  H17R 2201   1.413   4.391   4.089  1.2946  0.1862  1.5663
   17SAPS  H17S 2202   1.385   4.217   4.088 -0.1052 -0.0073 -0.7181
   17SAPS  C218 2203   1.301   4.310   4.263  0.0727  1.4909  0.4493
   17SAPS  H18R 2204   1.242   4.216   4.277  2.2836 -0.1243 -0.4370
   17SAPS  H18S 2205   1.245   4.398   4.299  2.7218  2.6296  2.0916
   17SAPS  C219 2206   1.426   4.297   4.346  0.5097  0.2323  1.1434
   17SAPS  H19R 2207   1.501   4.374   4.319  1.8198 -1.2349  0.4086
   17SAPS  H19S 2208   1.479   4.205   4.314 -1.2485 -1.0477  1.7573
   17SAPS  C220 2209   1.395   4.275   4.489  0.3633 -0.1833  0.4764
   17SAPS  H20R 2210   1.354   4.177   4.522 -0.2868  0.3092  1.1705
   17SAPS  H20S 2211   1.319   4.352   4.514 -0.2013 -0.5574 -0.0600
   17SAPS  H20T 2212   1.475   4.310   4.558 -1.5994  3.0883  1.3502
   17SAPS   C33 2213   1.008   3.778   3.547 -0.1818  0.1771  0.8469
   17SAPS   H3X 2214   0.904   3.818   3.542  0.5066  2.1240  1.0845
   17SAPS   H3Y 2215   1.066   3.865   3.509 -3.8000  1.6409 -1.9080
   17SAPS   C34 2216   1.051   3.743   3.697  0.9590 -0.9181 -0.0789
   17SAPS   H4X 2217   1.017   3.639   3.716  1.1538 -1.2524 -1.4610
   17SAPS   H4Y 2218   0.996   3.817   3.758  2.4372  0.6398 -0.5696
   17SAPS   C35 2219   1.203   3.743   3.718 -0.3288 -0.2079 -0.2813
   17SAPS   H5X 2220   1.255   3.812   3.648 -1.4797 -1.6845 -2.7158
   17SAPS   H5Y 2221   1.244   3.648   3.680 -0.1342 -0.0332 -0.5097
   17SAPS   C36 2222   1.241   3.763   3.868  0.1364  0.0431 -0.5413
   17SAPS   H6X 2223   1.195   3.675   3.918 -1.0500 -1.1609 -3.4920
   17SAPS   H6Y 2224   1.198   3.854   3.914 -0.7337 -0.8232  0.4182
   17SAPS   C37 2225   1.389   3.764   3.917 -0.1387 -0.1392  0.1331
   17SAPS   H7X 2226   1.435   3.841   3.850 -0.1209 -1.1474 -1.0444
   17SAPS   H7Y 2227   1.435   3.664   3.906  1.2724  0.5643 -0.6332
   17SAPS   C38 2228   1.388   3.801   4.061  0.3178  0.0121 -0.6641
   17SAPS   H8X 2229   1.341   3.726   4.128 -0.0687  1.0307  0.2359
   17SAPS   H8Y 2230   1.336   3.898   4.070  1.6812  0.7824 -0.7816
   17SAPS   C39 2231   1.532   3.815   4.108  0.0391 -0.2862 -0.2689
   17SAPS   H9X 2232   1.582   3.901   4.058  2.0172 -3.0738 -3.5744
   17SAPS   H9Y 2233   1.594   3.729   4.075 -0.9373 -1.2203  0.2854
   17SAPS  C310 2234   1.545   3.823   4.262 -0.9277 -1.3432 -0.0901
   17SAPS  H10X 2235   1.487   3.744   4.314 -1.5489  0.0584  1.4088
   17SAPS  H10Y 2236   1.488   3.911   4.299  0.2082 -0.5613 -0.1678
   17SAPS  C311 2237   1.689   3.832   4.308 -0.6391  0.3306 -0.8957
   17SAPS  H11X 2238   1.747   3.916   4.266  2.5070 -0.1660  2.0245
   17SAPS  H11Y 2239   1.748   3.741   4.284  2.5162  1.4820  1.7958
   17SAPS  C312 2240   1.680   3.848   4.459 -0.1822  0.6113 -1.0647
   17SAPS  H12X 2241   1.651   3.751   4.505  0.5813  0.8819  0.0377
   17SAPS  H12Y 2242   1.616   3.936   4.483  1.5585  1.5890  0.2563
   17SAPS  C313 2243   1.826   3.882   4.515 -0.2943  0.3350 -0.8481
   17SAPS  H13X 2244   1.866   3.967   4.456 -2.6021  1.5721 -0.7435
   17SAPS  H13Y 2245   1.886   3.794   4.483  1.0476  0.1020  1.9750
   17SAPS  C314 2246   1.825   3.908   4.665 -0.6846  0.1689 -0.2887
   17SAPS  H14X 2247   1.741   3.844   4.698 -1.9875  0.6115 -2.5740
   17SAPS  H14Y 2248   1.793   4.009   4.696 -0.7656  0.6853 -1.9594
   17SAPS  C315 2249   1.963   3.876   4.723 -0.7275 -0.1416  0.9526
   17SAPS  H15X 2250   2.040   3.923   4.658 -0.7524 -0.3160  0.7964
   17SAPS  H15Y 2251   1.989   3.768   4.725 -0.5102 -0.0968  0.6070
   17SAPS  C316 2252   1.983   3.936   4.867  0.3067  0.1609  0.1268
   17SAPS  H16X 2253   1.913   4.023   4.870 -0.0933 -0.0552 -1.6815
   17SAPS  H16Y 2254   2.083   3.983   4.879  0.5532  0.2907 -2.0241
   17SAPS  C317 2255   1.963   3.830   4.974 -0.1432  0.5483 -0.5721
   17SAPS  H17X 2256   2.062   3.783   4.989 -1.2865 -1.6304  0.6837
   17SAPS  H17Y 2257   1.903   3.747   4.931  1.9730  0.1542 -2.9767
   17SAPS  C318 2258   1.903   3.897   5.095  0.3388 -0.0290  0.0842
   17SAPS  H18X 2259   1.807   3.940   5.059  0.8287 -0.0409 -1.2962
   17SAPS  H18Y 2260   1.969   3.982   5.123  0.2605 -0.3365  1.2772
   17SAPS  H18Z 2261   1.883   3.835   5.185 -1.9809 -0.5705 -0.7299
   18SAPS     N 2262   5.335   5.460   2.486 -0.2391 -0.1727 -0.0662
   18SAPS   HN1 2263   5.278   5.536   2.443  2.2250  1.7053 -0.2565
   18SAPS   HN2 2264   5.422   5.510   2.512  0.0184  0.6344 -2.2520
   18SAPS   HN3 2265   5.363   5.392   2.412 -0.6404  0.5866 -0.9401
   18SAPS   C12 2266   5.257   5.405   2.596 -0.1311  0.5312 -0.5461
   18SAPS  H12A 2267   5.235   5.477   2.673 -0.7428 -1.6845  1.5083
   18SAPS   C13 2268   5.114   5.354   2.564  0.4992 -0.2867 -0.6658
   18SAPS  O13A 2269   5.078   5.349   2.444 -0.7429  0.3184  0.1508
   18SAPS  O13B 2270   5.026   5.337   2.651 -0.1409 -0.1156 -0.6502
   18SAPS   C11 2271   5.337   5.280   2.657 -0.1090 -0.3791  0.4184
   18SAPS  H11A 2272   5.337   5.189   2.593  0.9836 -0.3940  0.4243
   18SAPS  H11B 2273   5.285   5.252   2.751 -0.2834  4.2434  1.9538
   18SAPS     P 2274   5.516   5.384   2.811  0.2278 -0.1696 -0.0125
   18SAPS   O13 2275   5.583   5.268   2.878 -0.1242 -0.7207  0.5283
   18SAPS   O14 2276   5.605   5.500   2.772  0.0950  0.2314 -0.0546
   18SAPS   O12 2277   5.473   5.315   2.678  0.3682 -0.0613 -0.0311
   18SAPS   O11 2278   5.389   5.434   2.884 -0.0605 -0.4356 -0.2076
   18SAPS    C1 2279   5.394   5.522   3.000 -0.6733  0.2053  0.1892
   18SAPS    HA 2280   5.472   5.499   3.075 -0.7636  0.1779  0.2748
   18SAPS    HB 2281   5.397   5.628   2.968  2.3781  0.0477 -0.2923
   18SAPS    C2 2282   5.257   5.514   3.086 -0.2321  0.1187  0.1384
   18SAPS    HS 2283   5.205   5.605   3.050  1.9944  1.1460 -0.6626
   18SAPS   O21 2284   5.287   5.511   3.226  0.1606 -0.2522  0.0417
   18SAPS   C21 2285   5.334   5.614   3.290  0.4491  0.0202  0.1600
   18SAPS   O22 2286   5.342   5.727   3.248 -0.7224  0.4801 -0.0703
   18SAPS   C22 2287   5.381   5.558   3.422 -0.6849 -0.7951 -0.2857
   18SAPS   H2R 2288   5.297   5.566   3.494  0.5776 -1.5227  1.3260
   18SAPS   H2S 2289   5.412   5.453   3.403  2.0069 -0.2654  0.8051
   18SAPS    C3 2290   5.175   5.389   3.042  0.7043 -0.8197 -0.0507
   18SAPS    HX 2291   5.239   5.309   3.084 -0.6004 -0.0489  3.8159
   18SAPS    HY 2292   5.150   5.391   2.934 -4.0713  0.9928  0.8518
   18SAPS   O31 2293   5.040   5.381   3.112 -0.1088  0.1478  0.3790
   18SAPS   C31 2294   4.960   5.481   3.094 -0.6126 -0.3582 -0.2429
   18SAPS   O32 2295   4.978   5.563   3.009  0.8718 -0.1462  1.1341
   18SAPS   C32 2296   4.839   5.469   3.182 -0.1273  0.1326 -0.3007
   18SAPS   H2X 2297   4.840   5.371   3.234  0.2844 -0.0920 -0.7223
   18SAPS   H2Y 2298   4.754   5.463   3.111  1.0700 -1.3231 -1.6883
   18SAPS   C23 2299   5.500   5.634   3.493 -0.0609 -0.0923  0.6612
   18SAPS   H3R 2300   5.467   5.736   3.523  0.9086  0.8097 -1.1352
   18SAPS   H3S 2301   5.580   5.639   3.416 -1.0604 -2.1255 -0.6010
   18SAPS   C24 2302   5.537   5.561   3.611  0.1722  0.0977  0.2372
   18SAPS   H4R 2303   5.596   5.468   3.599 -2.5370 -2.1201  2.7456
   18SAPS   H4S 2304   5.450   5.518   3.664  0.4028  0.5731  1.0148
   18SAPS   C25 2305   5.624   5.650   3.697  0.0286 -0.1889  0.3174
   18SAPS   H5R 2306   5.723   5.671   3.656 -0.5628 -0.5643 -1.3661
   18SAPS   C26 2307   5.585   5.692   3.824 -0.8332 -0.4591  0.3592
   18SAPS   H6R 2308   5.654   5.765   3.868  2.7957 -2.0717 -2.2366
   18SAPS   C27 2309   5.443   5.676   3.878 -0.3267 -0.1207 -0.6792
   18SAPS   H7R 2310   5.375   5.663   3.792 -1.1658 -0.3875  0.0084
   18SAPS   H7S 2311   5.401   5.757   3.942  0.0665 -2.6042  3.0716
   18SAPS   C28 2312   5.441   5.559   3.974  0.4201 -0.0266 -0.8262
   18SAPS   H8R 2313   5.390   5.466   3.944  0.7122 -1.4994  2.8160
   18SAPS   C29 2314   5.487   5.572   4.101  0.2741  0.2167  0.6126
   18SAPS   H9R 2315   5.497   5.482   4.163 -0.6846 -0.8593 -0.7331
   18SAPS  C210 2316   5.559   5.686   4.167 -0.0173  0.5640  0.1581
   18SAPS  H10R 2317   5.625   5.746   4.099 -0.0058  0.4706  0.0859
   18SAPS  H10S 2318   5.628   5.653   4.247  1.4044  2.7545 -0.0728
   18SAPS  C211 2319   5.451   5.775   4.229  0.2159  0.3221  0.1849
   18SAPS  H11R 2320   5.440   5.861   4.163 -0.9169  0.4872  0.5790
   18SAPS  C212 2321   5.382   5.747   4.339 -0.0919 -0.9740  0.0912
   18SAPS  H12R 2322   5.305   5.821   4.368 -0.6898 -0.5853 -2.2168
   18SAPS  C213 2323   5.397   5.623   4.429  0.1925 -0.0695 -0.1398
   18SAPS  H13R 2324   5.384   5.664   4.531  0.1627  2.0410 -0.9527
   18SAPS  H13S 2325   5.497   5.579   4.407 -0.0957 -0.5388 -0.5561
   18SAPS  C214 2326   5.287   5.524   4.399  0.4015  0.0526  0.1521
   18SAPS  H14R 2327   5.249   5.527   4.296 -0.2071  1.5402  0.3901
   18SAPS  C215 2328   5.223   5.444   4.489  0.0273  0.9422 -0.1814
   18SAPS  H15R 2329   5.151   5.369   4.454 -0.2225  1.7988 -1.5895
   18SAPS  C216 2330   5.246   5.437   4.637 -0.1873  0.1423  0.0651
   18SAPS  H16R 2331   5.172   5.502   4.687 -0.8338 -0.3631 -0.2226
   18SAPS  H16S 2332   5.342   5.480   4.674 -0.8564  0.3314  1.6749
   18SAPS  C217 2333   5.208   5.295   4.689 -0.4925  0.0538  0.0917
   18SAPS  H17R 2334   5.099   5.274   4.686 -0.6722  1.0753 -2.3108
   18SAPS  H17S 2335   5.231   5.298   4.798 -2.1891  3.5703  0.4991
   18SAPS  C218 2336   5.283   5.170   4.633 -0.2206 -0.4731 -0.4498
   18SAPS  H18R 2337   5.289   5.089   4.708  0.9855  1.7009  1.9468
   18SAPS  H18S 2338   5.386   5.201   4.605 -0.2964 -0.0872 -0.3071
   18SAPS  C219 2339   5.211   5.114   4.510 -0.0206 -0.2770  0.4685
   18SAPS  H19R 2340   5.206   5.186   4.426 -2.1183 -1.9139 -0.8978
   18SAPS  H19S 2341   5.104   5.116   4.541 -0.4067  4.0064 -0.5287
   18SAPS  C220 2342   5.263   4.972   4.466  0.3725 -0.1917  0.2963
   18SAPS  H20R 2343   5.194   4.911   4.404  0.8291 -2.1304  1.6095
   18SAPS  H20S 2344   5.263   4.907   4.556 -2.0581  1.3175  1.5117
   18SAPS  H20T 2345   5.370   4.967   4.438  0.5363 -0.7214  1.0082
   18SAPS   C33 2346   4.836   5.576   3.291  0.2399 -0.5313 -0.9185
   18SAPS   H3X 2347   4.739   5.577   3.345  0.3550 -1.5018 -0.6791
   18SAPS   H3Y 2348   4.861   5.670   3.238  0.7999  0.4492  0.9944
   18SAPS   C34 2349   4.938   5.554   3.390  0.0014 -0.7143  0.0615
   18SAPS   H4X 2350   5.042   5.561   3.351 -0.5524 -0.7210 -1.4903
   18SAPS   H4Y 2351   4.926   5.454   3.437  0.0880 -0.7531  0.0011
   18SAPS   C35 2352   4.927   5.659   3.500  0.3803  0.4907 -0.6689
   18SAPS   H5X 2353   4.822   5.677   3.533  0.3035 -0.3936 -0.3958
   18SAPS   H5Y 2354   4.963   5.761   3.478 -2.9436  2.2942  1.4777
   18SAPS   C36 2355   5.007   5.613   3.615 -0.1801  0.3592 -0.7412
   18SAPS   H6X 2356   5.114   5.640   3.612  0.3131 -1.3467  0.2355
   18SAPS   H6Y 2357   4.996   5.504   3.636  0.3190  0.8205  2.4160
   18SAPS   C37 2358   4.963   5.676   3.751 -0.1845 -0.2633  0.0389
   18SAPS   H7X 2359   4.856   5.651   3.767  0.2342 -1.3976  1.2576
   18SAPS   H7Y 2360   4.975   5.787   3.752 -2.4274  0.0538 -1.3443
   18SAPS   C38 2361   5.050   5.620   3.863 -0.8172 -0.1718  0.1777
   18SAPS   H8X 2362   5.151   5.666   3.862  0.2084 -2.2858  0.1974
   18SAPS   H8Y 2363   5.043   5.510   3.845 -1.0290 -0.0313 -0.6048
   18SAPS   C39 2364   4.993   5.647   4.003  0.1936  0.2004 -0.1299
   18SAPS   H9X 2365   5.052   5.573   4.062  1.1431 -0.7210 -2.1515
   18SAPS   H9Y 2366   4.883   5.631   4.007 -0.0018  1.6030  2.5619
   18SAPS  C310 2367   5.012   5.792   4.052  0.0279 -0.0113  0.7601
   18SAPS  H10X 2368   4.930   5.852   4.005  0.4476  0.5695  0.7636
   18SAPS  H10Y 2369   5.101   5.819   3.992 -0.6200  2.1049  0.6385
   18SAPS  C311 2370   5.031   5.807   4.203 -0.7543 -0.1589 -0.2708
   18SAPS  H11X 2371   5.038   5.917   4.212 -2.0524  0.3154 -3.7417
   18SAPS  H11Y 2372   5.129   5.762   4.231 -1.7778 -3.4332 -1.4549
   18SAPS  C312 2373   4.931   5.739   4.297 -0.2950  0.1164  0.8715
   18SAPS  H12X 2374   4.933   5.630   4.275 -1.8085  0.4420 -1.0999
   18SAPS  H12Y 2375   4.822   5.756   4.288 -0.4941 -0.8152  1.4266
   18SAPS  C313 2376   4.967   5.739   4.449 -0.1263  0.3256 -0.2582
   18SAPS  H13X 2377   4.949   5.841   4.487 -1.0752  0.2202 -0.4087
   18SAPS  H13Y 2378   5.075   5.719   4.467 -0.1638 -0.9816 -1.3017
   18SAPS  C314 2379   4.880   5.634   4.523 -0.1347 -0.0585  0.5873
   18SAPS  H14X 2380   4.921   5.534   4.499  1.9209  0.9297 -0.3103
   18SAPS  H14Y 2381   4.783   5.648   4.471 -0.9303  0.5247  2.1894
   18SAPS  C315 2382   4.858   5.658   4.673  0.2832 -0.2769  0.3584
   18SAPS  H15X 2383   4.833   5.765   4.690  4.0959  0.8843 -0.4438
   18SAPS  H15Y 2384   4.948   5.636   4.735  0.4233 -2.0690 -0.4194
   18SAPS  C316 2385   4.751   5.576   4.736  0.1158 -0.7442  0.4968
   18SAPS  H16X 2386   4.758   5.469   4.706  0.7115 -0.7072  0.4954
   18SAPS  H16Y 2387   4.651   5.613   4.704 -0.6336 -1.1888  2.2041
   18SAPS  C317 2388   4.753   5.578   4.886  0.2443  0.3656 -0.0140
   18SAPS  H17X 2389   4.750   5.683   4.922 -0.9836  0.3940 -0.1570
   18SAPS  H17Y 2390   4.840   5.520   4.922  0.4306 -0.5906 -1.8876
   18SAPS  C318 2391   4.624   5.505   4.939  0.0446 -0.5544  0.1989
   18SAPS  H18X 2392   4.537   5.549   4.887  1.9562  0.7379 -2.0868
   18SAPS  H18Y 2393   4.607   5.496   5.049 -1.0901  2.2431  0.3248
   18SAPS  H18Z 2394   4.629   5.398   4.912  1.5104 -0.7822  1.2264
   19SAPS     N 2395   5.220   1.030   2.971  0.2397 -0.8294  0.0874
   19SAPS   HN1 2396   5.307   1.085   2.983  0.0198 -0.6686  1.0129
   19SAPS   HN2 2397   5.152   1.068   3.040  0.2139  0.2266 -0.4990
   19SAPS   HN3 2398   5.244   0.930   2.988  1.0755 -0.3292  2.2296
   19SAPS   C12 2399   5.168   1.040   2.828 -0.6273 -0.9564  1.3455
   19SAPS  H12A 2400   5.256   1.055   2.768 -1.4800 -1.6050 -0.1065
   19SAPS   C13 2401   5.096   0.915   2.771 -0.3620  0.2748  0.7517
   19SAPS  O13A 2402   5.078   0.818   2.842 -0.0893 -0.0181 -0.8206
   19SAPS  O13B 2403   5.034   0.924   2.658 -0.4573  0.2776 -0.2718
   19SAPS   C11 2404   5.083   1.173   2.805  0.5902 -0.2414 -0.1127
   19SAPS  H11A 2405   4.977   1.150   2.830 -0.5896  2.1358 -2.5016
   19SAPS  H11B 2406   5.084   1.205   2.699  2.0916  1.0619  0.2538
   19SAPS     P 2407   5.141   1.419   2.844  0.0310 -0.2138  0.4724
   19SAPS   O13 2408   5.231   1.424   2.727  0.3718  0.6135 -0.0409
   19SAPS   O14 2409   5.006   1.471   2.832  0.3619 -0.4798  0.6833
   19SAPS   O12 2410   5.136   1.274   2.892 -0.1663  0.3268 -0.1827
   19SAPS   O11 2411   5.205   1.479   2.964 -0.3545 -0.2324  0.4302
   19SAPS    C1 2412   5.182   1.443   3.104  0.0409  0.0683 -0.4366
   19SAPS    HA 2413   5.077   1.410   3.121 -0.0855  1.1860  1.3182
   19SAPS    HB 2414   5.246   1.353   3.115  1.4890  1.0249 -0.7658
   19SAPS    C2 2415   5.226   1.561   3.199 -0.0768  0.7455 -0.7004
   19SAPS    HS 2416   5.249   1.523   3.301 -0.0327  3.1432  0.2531
   19SAPS   O21 2417   5.129   1.669   3.218 -0.3288  0.2560 -0.3155
   19SAPS   C21 2418   5.024   1.629   3.290 -0.8741 -0.0394 -0.0240
   19SAPS   O22 2419   5.012   1.522   3.344  0.3887  0.8013 -0.6437
   19SAPS   C22 2420   4.924   1.737   3.315 -0.3141  0.5589 -0.2860
   19SAPS   H2R 2421   4.984   1.830   3.323 -2.2352  1.8404 -0.0115
   19SAPS   H2S 2422   4.854   1.743   3.228 -0.8497  0.7458  0.1509
   19SAPS    C3 2423   5.358   1.626   3.153  0.1937  0.5725 -0.0213
   19SAPS    HX 2424   5.348   1.666   3.050  0.7270 -0.2441 -0.3946
   19SAPS    HY 2425   5.432   1.548   3.129 -1.3145 -0.5138 -1.3035
   19SAPS   O31 2426   5.415   1.716   3.250 -0.2248 -0.7308 -0.1954
   19SAPS   C31 2427   5.451   1.831   3.202 -0.1585  0.2112 -0.0615
   19SAPS   O32 2428   5.432   1.874   3.088 -0.5117  0.2027 -0.3898
   19SAPS   C32 2429   5.541   1.895   3.305  0.5335  0.0075 -0.6422
   19SAPS   H2X 2430   5.602   1.967   3.246  0.0942  1.4488  0.5919
   19SAPS   H2Y 2431   5.617   1.830   3.351  0.2837  1.1674  1.5295
   19SAPS   C23 2432   4.841   1.712   3.445 -0.1652  0.2052 -0.9675
   19SAPS   H3R 2433   4.810   1.608   3.470 -0.1350  0.8153  1.9624
   19SAPS   H3S 2434   4.750   1.774   3.440  1.0551  2.8659  3.4619
   19SAPS   C24 2435   4.922   1.777   3.567  0.5531 -0.8186 -0.7739
   19SAPS   H4R 2436   4.957   1.878   3.540  2.9632 -1.8538 -1.7846
   19SAPS   H4S 2437   5.018   1.724   3.580  2.2639  2.2372 -0.0473
   19SAPS   C25 2438   4.838   1.779   3.691 -0.0116 -0.5065  0.1683
   19SAPS   H5R 2439   4.794   1.682   3.721 -1.4206 -1.1513 -3.4670
   19SAPS   C26 2440   4.784   1.890   3.754 -0.5008  1.1418 -0.0936
   19SAPS   H6R 2441   4.711   1.875   3.835 -0.1742  0.4470  0.0746
   19SAPS   C27 2442   4.813   2.035   3.714  0.3199  0.2807 -0.9395
   19SAPS   H7R 2443   4.921   2.055   3.694  0.2554  3.2932  1.1283
   19SAPS   H7S 2444   4.792   2.097   3.804  0.3394 -0.9255 -0.0706
   19SAPS   C28 2445   4.732   2.093   3.607  0.0387 -0.0306  0.2829
   19SAPS   H8R 2446   4.799   2.108   3.521  4.1001 -0.7905  3.0233
   19SAPS   C29 2447   4.602   2.125   3.586 -0.5367 -0.1005  0.9739
   19SAPS   H9R 2448   4.581   2.181   3.493  0.0853  1.4798  1.7539
   19SAPS  C210 2449   4.495   2.097   3.693 -0.4477  0.0585 -0.1803
   19SAPS  H10R 2450   4.532   2.081   3.797  1.6363  0.0935 -0.8757
   19SAPS  H10S 2451   4.427   2.014   3.662 -0.4851  0.7892 -2.1923
   19SAPS  C211 2452   4.408   2.220   3.688 -0.7960  0.5219  0.3881
   19SAPS  H11R 2453   4.352   2.243   3.596 -0.3841  2.5354  0.5960
   19SAPS  C212 2454   4.370   2.288   3.802 -0.2142  0.2826  0.2343
   19SAPS  H12R 2455   4.300   2.373   3.796 -0.3629  0.1198 -0.5234
   19SAPS  C213 2456   4.443   2.277   3.941 -0.0828  0.0727 -0.5878
   19SAPS  H13R 2457   4.439   2.375   3.994 -1.5889  0.7708 -1.8809
   19SAPS  H13S 2458   4.551   2.254   3.937 -0.3369 -1.0092 -2.3699
   19SAPS  C214 2459   4.360   2.175   4.021  0.3226 -0.3715  0.6781
   19SAPS  H14R 2460   4.333   2.085   3.964  1.6253 -0.9315  0.9158
   19SAPS  C215 2461   4.324   2.185   4.143  1.0051 -0.0533  0.9840
   19SAPS  H15R 2462   4.245   2.114   4.173 -1.3491  1.6310 -0.8769
   19SAPS  C216 2463   4.367   2.288   4.247 -0.0946 -0.0731  0.4184
   19SAPS  H16R 2464   4.291   2.314   4.323  0.0165  2.6725 -0.2912
   19SAPS  H16S 2465   4.390   2.377   4.184 -1.2096  0.6671  1.0151
   19SAPS  C217 2466   4.492   2.248   4.320 -0.3281 -0.5833  0.1674
   19SAPS  H17R 2467   4.539   2.327   4.382 -3.8669  1.1982  0.8269
   19SAPS  H17S 2468   4.569   2.209   4.251 -0.3347  0.6838 -0.5727
   19SAPS  C218 2469   4.455   2.141   4.425 -0.8015  0.1649 -0.3898
   19SAPS  H18R 2470   4.550   2.093   4.458 -0.0913  2.3724  1.0249
   19SAPS  H18S 2471   4.389   2.064   4.380 -0.6385  0.6692 -1.5317
   19SAPS  C219 2472   4.417   2.201   4.566 -0.3197 -0.0308  0.7676
   19SAPS  H19R 2473   4.327   2.266   4.552 -1.1773 -1.1192  1.0861
   19SAPS  H19S 2474   4.501   2.269   4.592  0.2134 -1.1591  2.1463
   19SAPS  C220 2475   4.411   2.106   4.681 -0.4117  0.3547  0.4746
   19SAPS  H20R 2476   4.367   2.160   4.768 -1.0952  1.8970 -0.7772
   19SAPS  H20S 2477   4.514   2.070   4.705 -0.3300 -0.8154 -1.4945
   19SAPS  H20T 2478   4.348   2.019   4.654 -1.5549  1.2555  0.1767
   19SAPS   C33 2479   5.449   1.952   3.414 -0.5445  0.2491 -0.7536
   19SAPS   H3X 2480   5.351   1.980   3.370 -1.5664 -1.8250  0.0670
   19SAPS   H3Y 2481   5.509   2.036   3.455  2.3662 -0.7639 -2.6370
   19SAPS   C34 2482   5.423   1.855   3.537 -0.2822  0.2200  0.1575
   19SAPS   H4X 2483   5.519   1.832   3.587  0.4578 -0.8265 -1.6467
   19SAPS   H4Y 2484   5.384   1.755   3.506 -0.7883  0.3183  0.4673
   19SAPS   C35 2485   5.325   1.901   3.643  0.5243  0.4544  0.4411
   19SAPS   H5X 2486   5.224   1.922   3.600  0.6923  1.0564  0.3276
   19SAPS   H5Y 2487   5.355   1.997   3.689 -0.0937  0.2249  1.3519
   19SAPS   C36 2488   5.294   1.800   3.754 -0.3035  0.0937 -0.0464
   19SAPS   H6X 2489   5.382   1.798   3.822  0.5244  1.1755 -1.0447
   19SAPS   H6Y 2490   5.277   1.701   3.708  0.4591  0.6905 -1.6896
   19SAPS   C37 2491   5.181   1.841   3.849  0.6634  0.1705 -0.2964
   19SAPS   H7X 2492   5.143   1.749   3.899  0.8294  0.7123  0.8560
   19SAPS   H7Y 2493   5.106   1.895   3.787  1.3720  2.0055  0.3678
   19SAPS   C38 2494   5.209   1.933   3.973  0.3236  0.4593  0.8403
   19SAPS   H8X 2495   5.114   1.988   3.990 -0.2546  0.2346 -1.4614
   19SAPS   H8Y 2496   5.288   2.008   3.951  0.9294  0.2689  2.2166
   19SAPS   C39 2497   5.265   1.861   4.099  0.2863  0.2622 -0.2027
   19SAPS   H9X 2498   5.350   1.795   4.071  0.4729  0.2509  0.3794
   19SAPS   H9Y 2499   5.188   1.787   4.132  1.5521 -2.1089 -2.1907
   19SAPS  C310 2500   5.312   1.951   4.205 -0.3750 -0.7051 -0.7523
   19SAPS  H10X 2501   5.238   2.033   4.223 -0.4334 -0.7337 -0.8656
   19SAPS  H10Y 2502   5.395   2.009   4.160  0.8194 -1.8299 -0.0412
   19SAPS  C311 2503   5.347   1.866   4.330  0.3492  0.2922 -0.1956
   19SAPS  H11X 2504   5.421   1.789   4.301 -1.4758 -1.5860 -0.1059
   19SAPS  H11Y 2505   5.259   1.809   4.366  0.6902 -0.9842 -1.3278
   19SAPS  C312 2506   5.387   1.957   4.447 -0.5254 -0.5044  0.3628
   19SAPS  H12X 2507   5.311   2.036   4.458  0.6292  0.6619  0.2433
   19SAPS  H12Y 2508   5.489   1.994   4.420  0.0548 -0.2864  2.5984
   19SAPS  C313 2509   5.394   1.873   4.579 -0.3779 -0.2899 -0.1164
   19SAPS  H13X 2510   5.479   1.802   4.587  1.7579  2.1956  0.7807
   19SAPS  H13Y 2511   5.302   1.814   4.598 -0.7564  0.2231 -0.3340
   19SAPS  C314 2512   5.403   1.972   4.694 -0.8148  0.5900  0.2298
   19SAPS  H14X 2513   5.321   2.042   4.667 -1.0460 -0.2040 -1.2276
   19SAPS  H14Y 2514   5.496   2.033   4.703 -0.0821 -0.7281  2.0956
   19SAPS  C315 2515   5.360   1.919   4.829  0.2697  0.1480 -0.4071
   19SAPS  H15X 2516   5.443   1.862   4.877 -0.4355  0.8462  1.7752
   19SAPS  H15Y 2517   5.268   1.857   4.824  0.4936 -0.4523  1.8191
   19SAPS  C316 2518   5.356   2.030   4.945 -0.1414 -0.2321  0.2483
   19SAPS  H16X 2519   5.271   2.091   4.908 -0.8495 -1.1347  0.3478
   19SAPS  H16Y 2520   5.453   2.084   4.945 -0.2137 -0.0802  1.3304
   19SAPS  C317 2521   5.332   1.981   5.090 -0.1462 -0.8391  0.1379
   19SAPS  H17X 2522   5.416   1.923   5.133  1.4201 -0.7917 -2.6471
   19SAPS  H17Y 2523   5.247   1.909   5.102  0.5678 -1.3972  2.1575
   19SAPS  C318 2524   5.300   2.094   5.190 -0.1190 -0.0226 -0.5698
   19SAPS  H18X 2525   5.266   2.049   5.286 -2.2806  0.5708 -0.9991
   19SAPS  H18Y 2526   5.218   2.161   5.157 -0.6573  0.4906  1.6166
   19SAPS  H18Z 2527   5.390   2.158   5.206  0.0624 -0.1870 -0.9315
   20SAPS     N 2528   5.773   5.082   2.858  0.5973  0.1920 -0.0420
   20SAPS   HN1 2529   5.741   5.002   2.916 -0.5873  0.7721  0.1450
   20SAPS   HN2 2530   5.850   5.133   2.905  0.3679  0.5501 -0.0500
   20SAPS   HN3 2531   5.694   5.150   2.856 -0.2214 -0.6385  1.7994
   20SAPS   C12 2532   5.825   5.042   2.725  0.8101  0.5767 -1.0223
   20SAPS  H12A 2533   5.823   5.133   2.666  1.7516  1.5266  0.3513
   20SAPS   C13 2534   5.977   5.008   2.725 -0.4462  0.5097 -0.6501
   20SAPS  O13A 2535   6.046   5.002   2.833 -0.3373  0.2343  0.2930
   20SAPS  O13B 2536   6.027   4.986   2.611 -0.4146  0.2844  0.1526
   20SAPS   C11 2537   5.740   4.927   2.674 -0.3959 -0.0852 -0.3260
   20SAPS  H11A 2538   5.776   4.838   2.730 -0.0750 -0.2905 -0.8492
   20SAPS  H11B 2539   5.765   4.913   2.567  2.4277  0.2035  0.2040
   20SAPS     P 2540   5.491   4.849   2.667 -0.0494 -0.5911  0.0421
   20SAPS   O13 2541   5.389   4.906   2.574 -0.0688 -0.7517 -0.1118
   20SAPS   O14 2542   5.561   4.731   2.619  0.1675  0.2079  0.1355
   20SAPS   O12 2543   5.600   4.960   2.692  0.0532 -0.1975 -0.4352
   20SAPS   O11 2544   5.425   4.815   2.804  0.0456  0.1734  0.0220
   20SAPS    C1 2545   5.331   4.905   2.859 -0.2200  0.6136 -0.0826
   20SAPS    HA 2546   5.326   5.001   2.804 -1.2925  0.0460 -1.0288
   20SAPS    HB 2547   5.225   4.872   2.855 -0.1921  0.5910 -0.6983
   20SAPS    C2 2548   5.364   4.955   2.998 -0.1544  0.6665 -0.3421
   20SAPS    HS 2549   5.435   5.040   2.984  2.2796 -1.5070 -2.2091
   20SAPS   O21 2550   5.424   4.847   3.076  0.2707  0.2543 -0.4930
   20SAPS   C21 2551   5.560   4.845   3.077 -0.0965  0.6894 -0.1997
   20SAPS   O22 2552   5.631   4.934   3.028  0.6255 -0.1706 -0.8567
   20SAPS   C22 2553   5.612   4.720   3.144 -0.1586 -0.0642 -1.2390
   20SAPS   H2R 2554   5.571   4.625   3.105 -1.0351 -1.0181  1.7748
   20SAPS   H2S 2555   5.723   4.714   3.141  0.0478  0.5087  1.9305
   20SAPS    C3 2556   5.241   5.005   3.074  0.1203  0.2607 -0.1185
   20SAPS    HX 2557   5.170   4.920   3.066  4.2102 -3.7457  1.4377
   20SAPS    HY 2558   5.194   5.095   3.030  1.4432  2.2123  2.2312
   20SAPS   O31 2559   5.279   5.048   3.206 -0.4484  0.4960 -0.2661
   20SAPS   C31 2560   5.177   5.056   3.295  0.5265  0.0821 -0.0488
   20SAPS   O32 2561   5.059   5.042   3.264 -0.3828 -0.4171  0.4943
   20SAPS   C32 2562   5.221   5.099   3.428 -0.4257  0.0396  0.4272
   20SAPS   H2X 2563   5.331   5.103   3.445 -0.3415  0.0986 -0.1185
   20SAPS   H2Y 2564   5.192   5.024   3.504 -0.1387  0.1171  0.6141
   20SAPS   C23 2565   5.567   4.701   3.289  0.2190 -0.8976 -0.4028
   20SAPS   H3R 2566   5.457   4.690   3.299 -0.1690  2.1501 -0.3930
   20SAPS   H3S 2567   5.591   4.789   3.353 -1.6958 -0.4491 -0.2520
   20SAPS   C24 2568   5.626   4.583   3.350  0.2184  0.1434 -0.1250
   20SAPS   H4R 2569   5.734   4.580   3.323  0.1724  2.8656 -0.8772
   20SAPS   H4S 2570   5.600   4.493   3.290 -0.6714  1.0943 -1.1944
   20SAPS   C25 2571   5.598   4.566   3.498 -0.3402  0.3454 -0.1175
   20SAPS   H5R 2572   5.492   4.540   3.515 -0.2236 -0.0307  0.0424
   20SAPS   C26 2573   5.691   4.548   3.598 -0.3042 -0.3148 -0.1237
   20SAPS   H6R 2574   5.659   4.542   3.703  0.9161  0.9404  0.3381
   20SAPS   C27 2575   5.841   4.558   3.577 -0.3127 -0.0539 -0.2664
   20SAPS   H7R 2576   5.892   4.503   3.495  1.6332 -0.8077  1.3740
   20SAPS   H7S 2577   5.881   4.514   3.671 -2.0074  0.2900  0.6463
   20SAPS   C28 2578   5.899   4.701   3.571 -0.4951 -0.1026  0.1384
   20SAPS   H8R 2579   5.926   4.739   3.472  1.0971 -0.1439  0.5257
   20SAPS   C29 2580   5.944   4.772   3.678  0.3797 -0.2512 -0.5431
   20SAPS   H9R 2581   5.993   4.869   3.657 -0.8854 -0.1080 -3.2798
   20SAPS  C210 2582   5.929   4.739   3.826 -0.4256 -0.0813 -0.6378
   20SAPS  H10R 2583   6.025   4.755   3.880 -0.6109 -2.8887  0.6596
   20SAPS  H10S 2584   5.907   4.631   3.836 -0.5973 -0.0090 -0.2237
   20SAPS  C211 2585   5.812   4.829   3.876 -0.2255  1.0603 -0.2720
   20SAPS  H11R 2586   5.726   4.835   3.808 -1.6025 -0.8685  1.1730
   20SAPS  C212 2587   5.803   4.902   3.989 -0.1626 -0.2211 -0.3497
   20SAPS  H12R 2588   5.716   4.968   4.006  0.7695  0.4672  2.0895
   20SAPS  C213 2589   5.899   4.909   4.105  0.2861  0.2080  0.0127
   20SAPS  H13R 2590   5.914   5.006   4.155  2.5261 -0.3287  0.4920
   20SAPS  H13S 2591   5.997   4.880   4.061 -0.5773  0.0938 -1.9245
   20SAPS  C214 2592   5.856   4.807   4.212 -0.7846 -0.1373 -0.3261
   20SAPS  H14R 2593   5.852   4.711   4.157 -1.9173  0.2972 -1.0316
   20SAPS  C215 2594   5.836   4.816   4.346  0.0149 -0.7232  0.0710
   20SAPS  H15R 2595   5.801   4.722   4.391  0.6164 -0.8160  0.3673
   20SAPS  C216 2596   5.859   4.937   4.436 -0.0381  0.0049 -0.3969
   20SAPS  H16R 2597   5.761   4.956   4.485 -0.4169 -0.0629 -1.1069
   20SAPS  H16S 2598   5.882   5.029   4.379 -0.3471 -0.5068 -1.3653
   20SAPS  C217 2599   5.972   4.905   4.530  0.0655  0.0248  0.0497
   20SAPS  H17R 2600   6.049   4.864   4.463 -1.1744  1.4157 -2.3580
   20SAPS  H17S 2601   5.935   4.828   4.601  0.0678 -1.3188 -1.3809
   20SAPS  C218 2602   6.034   5.029   4.597  0.6118 -0.5987 -0.2871
   20SAPS  H18R 2603   5.952   5.078   4.653  0.9277  1.4759 -1.5100
   20SAPS  H18S 2604   6.067   5.104   4.521 -2.8289  0.4482 -0.8977
   20SAPS  C219 2605   6.143   4.984   4.693  0.1318 -0.6705 -0.6251
   20SAPS  H19R 2606   6.215   4.918   4.639  0.0295 -1.1301 -0.2115
   20SAPS  H19S 2607   6.097   4.918   4.770 -1.1442 -0.5422 -1.2440
   20SAPS  C220 2608   6.215   5.097   4.756 -0.0487 -0.3944  0.3689
   20SAPS  H20R 2609   6.136   5.167   4.791  2.8580  2.5844  1.5010
   20SAPS  H20S 2610   6.285   5.138   4.681 -1.0740 -4.4905 -3.2241
   20SAPS  H20T 2611   6.267   5.068   4.850 -1.9787 -0.1743  1.5786
   20SAPS   C33 2612   5.166   5.239   3.477  0.7134  0.0433  0.5999
   20SAPS   H3X 2613   5.055   5.239   3.476  0.6684  2.4704  0.1349
   20SAPS   H3Y 2614   5.201   5.320   3.409  0.6205 -0.9873 -0.7346
   20SAPS   C34 2615   5.228   5.272   3.608 -0.5668 -0.4864 -0.6118
   20SAPS   H4X 2616   5.217   5.378   3.637  1.2767 -0.8196  1.5147
   20SAPS   H4Y 2617   5.337   5.264   3.587 -0.1693 -0.2603  1.2421
   20SAPS   C35 2618   5.192   5.184   3.721  0.2293  0.0851 -0.2313
   20SAPS   H5X 2619   5.220   5.079   3.697 -1.6415 -0.6568  0.6114
   20SAPS   H5Y 2620   5.084   5.171   3.742  0.5420 -3.0814 -0.1665
   20SAPS   C36 2621   5.249   5.236   3.853  0.0478 -0.5351 -0.3986
   20SAPS   H6X 2622   5.214   5.334   3.890  3.1416 -0.1216  1.8008
   20SAPS   H6Y 2623   5.355   5.268   3.847  0.2591 -0.8527  1.2491
   20SAPS   C37 2624   5.229   5.127   3.958  0.9013 -0.8676  0.3888
   20SAPS   H7X 2625   5.261   5.032   3.909 -1.7879 -2.4491  1.4822
   20SAPS   H7Y 2626   5.119   5.119   3.971  1.0959 -1.2825  1.9965
   20SAPS   C38 2627   5.296   5.159   4.098  0.0209  0.1272  0.3903
   20SAPS   H8X 2628   5.284   5.071   4.165 -0.8339  0.6567  0.9471
   20SAPS   H8Y 2629   5.238   5.245   4.138  1.1035  0.9726  0.2002
   20SAPS   C39 2630   5.449   5.191   4.090  1.1252  0.2916  0.4066
   20SAPS   H9X 2631   5.452   5.284   4.029 -0.0658  0.0181 -0.0991
   20SAPS   H9Y 2632   5.502   5.112   4.033  1.6883  0.9005  0.0733
   20SAPS  C310 2633   5.504   5.218   4.230 -0.4734  0.0442 -0.0716
   20SAPS  H10X 2634   5.490   5.126   4.291 -0.6119  0.2306  0.1771
   20SAPS  H10Y 2635   5.445   5.296   4.282 -0.9674 -0.1794 -0.2831
   20SAPS  C311 2636   5.653   5.230   4.228 -0.3808 -0.2117 -0.2038
   20SAPS  H11X 2637   5.681   5.306   4.151  0.3659  1.0053  1.2276
   20SAPS  H11Y 2638   5.689   5.125   4.231 -2.1647 -0.9316 -1.7817
   20SAPS  C312 2639   5.716   5.285   4.351 -0.0428  0.1377  0.0395
   20SAPS  H12X 2640   5.682   5.225   4.438  0.1274 -1.6529 -1.0826
   20SAPS  H12Y 2641   5.667   5.383   4.370  0.5865  0.3309  0.7096
   20SAPS  C313 2642   5.869   5.298   4.339 -1.1142 -0.0868 -0.1609
   20SAPS  H13X 2643   5.896   5.358   4.249  1.1655 -2.2201 -1.0276
   20SAPS  H13Y 2644   5.922   5.205   4.311 -0.2122  1.4109 -4.1655
   20SAPS  C314 2645   5.933   5.350   4.470  0.2641  0.2436 -0.7136
   20SAPS  H14X 2646   5.913   5.285   4.558  1.8355  0.5960 -0.0608
   20SAPS  H14Y 2647   5.881   5.444   4.496 -0.9716 -1.0202  1.8242
   20SAPS  C315 2648   6.087   5.379   4.462 -0.2138 -0.5393 -0.1920
   20SAPS  H15X 2649   6.089   5.440   4.370 -0.8855  2.0689  1.4048
   20SAPS  H15Y 2650   6.147   5.286   4.452  0.3798  0.0545 -2.6483
   20SAPS  C316 2651   6.133   5.458   4.586  0.0009 -0.0711  0.8408
   20SAPS  H16X 2652   6.172   5.388   4.663 -1.5038 -0.5014  1.2587
   20SAPS  H16Y 2653   6.043   5.508   4.628 -2.5191 -0.9492 -3.0095
   20SAPS  C317 2654   6.246   5.547   4.555  0.1816  0.4527  0.2747
   20SAPS  H17X 2655   6.221   5.586   4.454 -0.2745 -0.3037  0.0882
   20SAPS  H17Y 2656   6.336   5.482   4.545 -0.5046 -0.5539  0.4930
   20SAPS  C318 2657   6.271   5.668   4.639  0.2615 -0.1447 -0.7263
   20SAPS  H18X 2658   6.268   5.649   4.748  1.4298  2.2145 -0.1980
   20SAPS  H18Y 2659   6.197   5.746   4.612  0.1469 -0.2837 -0.8139
   20SAPS  H18Z 2660   6.372   5.708   4.614  0.4783 -1.0282 -1.2899
   21CHL1    C3 2661   6.840   3.318   6.533 -0.2602 -0.4489  0.1639
   21CHL1    H3 2662   6.763   3.398   6.536  0.8333  0.6348 -0.2462
   21CHL1    O3 2663   6.880   3.306   6.663  0.1011 -0.0921 -0.6182
   21CHL1   H3' 2664   6.809   3.267   6.715 -0.8959  3.0821  0.6449
   21CHL1    C4 2665   6.778   3.188   6.477 -0.4853 -0.4995  0.4286
   21CHL1   H4A 2666   6.832   3.098   6.515 -0.8739 -1.3327 -0.9242
   21CHL1   H4B 2667   6.679   3.191   6.527 -0.7554 -1.0359 -0.0572
   21CHL1    C5 2668   6.757   3.185   6.325  0.8110  0.3189 -0.0935
   21CHL1    C6 2669   6.630   3.158   6.279  0.7752 -0.4098  0.1313
   21CHL1    H6 2670   6.550   3.156   6.355  0.0172  1.4374 -0.5629
   21CHL1    C7 2671   6.600   3.155   6.132  0.9720 -0.6376  0.4443
   21CHL1   H7A 2672   6.529   3.070   6.125  0.7055 -0.3066 -1.3948
   21CHL1   H7B 2673   6.540   3.248   6.117  0.3693 -0.7521  1.9653
   21CHL1    C8 2674   6.722   3.156   6.041  0.4816  0.9413  0.1576
   21CHL1    H8 2675   6.765   3.054   6.043  0.7969  1.0830  0.8476
   21CHL1   C14 2676   6.683   3.193   5.900 -0.1476 -0.0778  0.0836
   21CHL1   H14 2677   6.632   3.292   5.908  0.2742  0.0162  2.8731
   21CHL1   C15 2678   6.578   3.105   5.830  0.4495  0.2102  0.2281
   21CHL1  H15A 2679   6.581   2.994   5.823 -0.5735  0.1792  0.1719
   21CHL1  H15B 2680   6.481   3.132   5.878 -0.9217 -0.6156 -1.9483
   21CHL1   C16 2681   6.561   3.160   5.695  0.4521 -0.1362  0.5271
   21CHL1  H16A 2682   6.557   3.082   5.615 -0.3654  1.5153 -1.1200
   21CHL1  H16B 2683   6.492   3.244   5.675  3.7859  2.4124 -1.2918
   21CHL1   C17 2684   6.693   3.248   5.669  0.0850  0.0837  0.2134
   21CHL1   H17 2685   6.658   3.353   5.681 -0.0124  0.2575 -1.3587
   21CHL1   C13 2686   6.788   3.215   5.793  0.3173  0.3055  0.5128
   21CHL1   C18 2687   6.865   3.085   5.758 -0.2690 -0.5791 -0.3303
   21CHL1  H18A 2688   6.798   3.006   5.719 -0.6782 -0.3768 -0.0380
   21CHL1  H18B 2689   6.938   3.092   5.674 -0.8530 -0.3794 -0.8323
   21CHL1  H18C 2690   6.916   3.063   5.854 -1.2308  1.4859  0.7225
   21CHL1   C12 2691   6.886   3.325   5.850 -0.2501  0.4316  0.3956
   21CHL1  H12A 2692   6.968   3.327   5.775 -2.1661 -1.3027 -1.9152
   21CHL1  H12B 2693   6.826   3.418   5.849 -1.3290 -0.2578 -0.4620
   21CHL1   C11 2694   6.943   3.294   5.988  0.0233  0.8072 -1.8088
   21CHL1  H11A 2695   7.005   3.201   5.988 -0.9589  0.1182 -0.3275
   21CHL1  H11B 2696   7.011   3.377   6.017  1.6023 -0.2564 -2.3264
   21CHL1    C9 2697   6.832   3.262   6.094 -0.1143 -0.5635  0.8727
   21CHL1    H9 2698   6.776   3.357   6.104 -0.7012 -0.8557  0.4421
   21CHL1   C10 2699   6.882   3.231   6.241 -0.4017 -0.1156 -0.1406
   21CHL1   C19 2700   6.981   3.113   6.245 -0.0151  0.0610  0.0237
   21CHL1  H19A 2701   7.073   3.159   6.205 -0.0826  0.2231  0.0541
   21CHL1  H19B 2702   6.996   3.091   6.352 -3.9831  1.5939  1.1012
   21CHL1  H19C 2703   6.949   3.036   6.171  2.9806  0.0526 -1.4153
   21CHL1    C1 2704   6.943   3.364   6.307 -0.2051 -0.6868  0.3302
   21CHL1   H1A 2705   7.040   3.384   6.255 -0.0080  0.6623  1.1498
   21CHL1   H1B 2706   6.875   3.449   6.284 -1.3561 -1.8675 -0.7989
   21CHL1    C2 2707   6.966   3.362   6.459  0.0207  0.5643  0.3762
   21CHL1   H2A 2708   6.998   3.461   6.496  0.1574 -0.2785  2.6566
   21CHL1   H2B 2709   7.042   3.284   6.482 -0.8276 -0.4202 -0.0440
   21CHL1   C20 2710   6.743   3.238   5.527  0.6660  0.5222 -0.0992
   21CHL1   H20 2711   6.773   3.133   5.505  0.1021  0.0154  1.3991
   21CHL1   C21 2712   6.867   3.322   5.493  0.6487  0.0707 -0.1395
   21CHL1  H21A 2713   6.945   3.282   5.561 -0.9140 -1.3679  0.9054
   21CHL1  H21B 2714   6.850   3.429   5.518  0.2205 -0.5414  2.5628
   21CHL1  H21C 2715   6.885   3.306   5.385 -1.9929 -1.2403 -0.4570
   21CHL1   C22 2716   6.633   3.271   5.422  0.2845  0.3065  0.0012
   21CHL1  H22A 2717   6.527   3.259   5.451  0.7702  0.0305  1.7531
   21CHL1  H22B 2718   6.646   3.381   5.413  0.1338  0.2590 -0.9431
   21CHL1   C23 2719   6.651   3.217   5.274  0.0757  0.6060 -0.0641
   21CHL1  H23A 2720   6.748   3.256   5.238  1.1696 -1.0484  0.9261
   21CHL1  H23B 2721   6.671   3.107   5.274 -1.5421  0.2468 -2.0341
   21CHL1   C24 2722   6.537   3.256   5.184 -1.0477  0.0562 -0.0396
   21CHL1  H24A 2723   6.445   3.258   5.246 -0.0268  2.2065  1.5346
   21CHL1  H24B 2724   6.554   3.361   5.152  0.9860 -0.6968 -1.6310
   21CHL1   C25 2725   6.523   3.185   5.050 -0.0971  0.2446  0.2978
   21CHL1   H25 2726   6.617   3.182   4.991  0.3486  0.6395  0.9804
   21CHL1   C26 2727   6.468   3.044   5.059 -0.0022  0.0852 -0.1338
   21CHL1  H26A 2728   6.421   2.996   4.971  0.5467 -0.9803  0.1330
   21CHL1  H26B 2729   6.550   2.972   5.082 -1.9783 -2.1396  0.2924
   21CHL1  H26C 2730   6.386   3.043   5.134  1.5274  2.5153  1.7286
   21CHL1   C27 2731   6.422   3.276   4.971  0.3221  0.6596 -0.0967
   21CHL1  H27A 2732   6.457   3.376   4.939 -1.0486  2.0171  2.2814
   21CHL1  H27B 2733   6.397   3.220   4.879 -1.2058  2.4421 -0.8256
   21CHL1  H27C 2734   6.317   3.279   5.009 -0.8050 -0.5489 -2.8414
   22CHL1    C3 2735   2.215   4.599   6.683 -0.1054  0.3620 -0.2621
   22CHL1    H3 2736   2.263   4.511   6.635  0.4489  0.1683  0.6054
   22CHL1    O3 2737   2.255   4.613   6.817 -0.4328  0.1145  0.1704
   22CHL1   H3' 2738   2.210   4.683   6.865  2.4693  2.5897 -0.4016
   22CHL1    C4 2739   2.252   4.724   6.604  0.2516  0.2225 -0.1884
   22CHL1   H4A 2740   2.195   4.809   6.646 -0.2187  0.5016 -1.3530
   22CHL1   H4B 2741   2.362   4.733   6.607  0.5171 -1.5613 -1.9043
   22CHL1    C5 2742   2.189   4.722   6.463  0.8507  0.0738 -0.2889
   22CHL1    C6 2743   2.267   4.727   6.356 -0.1049 -0.0899 -0.7262
   22CHL1    H6 2744   2.375   4.744   6.367 -0.3412  1.6480 -0.7912
   22CHL1    C7 2745   2.213   4.718   6.209  0.8056  0.6649 -0.5837
   22CHL1   H7A 2746   2.242   4.815   6.163 -2.8724  2.9897  1.4534
   22CHL1   H7B 2747   2.260   4.631   6.158  0.3657  1.2172 -2.0065
   22CHL1    C8 2748   2.059   4.720   6.195 -0.1132  0.3609  0.2490
   22CHL1    H8 2749   2.036   4.828   6.210  0.5010  0.7087 -1.1858
   22CHL1   C14 2750   2.010   4.685   6.059 -0.0358  0.4206 -1.3761
   22CHL1   H14 2751   2.043   4.581   6.038 -2.1724 -0.6881  0.3062
   22CHL1   C15 2752   2.059   4.759   5.937  0.0549 -0.1085  0.9026
   22CHL1  H15A 2753   2.051   4.869   5.945 -1.2900  0.1061 -2.2718
   22CHL1  H15B 2754   2.165   4.735   5.914  0.5414  2.8951 -0.5004
   22CHL1   C16 2755   1.969   4.709   5.824  0.3003 -0.3040  0.5307
   22CHL1  H16A 2756   1.936   4.793   5.759 -0.9092 -0.6722  0.6387
   22CHL1  H16B 2757   2.026   4.633   5.767  1.7472  0.2985  1.1318
   22CHL1   C17 2758   1.845   4.635   5.889 -0.0235  0.5378 -0.2566
   22CHL1   H17 2759   1.875   4.528   5.886  0.5778  0.6198  1.3763
   22CHL1   C13 2760   1.862   4.670   6.040  0.7192  0.2747  0.7206
   22CHL1   C18 2761   1.798   4.810   6.069 -0.7644  0.0499 -0.4487
   22CHL1  H18A 2762   1.844   4.881   5.997 -0.5813 -0.8452 -1.2326
   22CHL1  H18B 2763   1.690   4.803   6.045 -0.5150  0.3308 -1.7092
   22CHL1  H18C 2764   1.818   4.844   6.173 -1.4101  0.5743 -0.4910
   22CHL1   C12 2765   1.824   4.557   6.135 -0.2604 -0.3073 -0.1743
   22CHL1  H12A 2766   1.715   4.539   6.117 -0.3006  1.1507 -1.6000
   22CHL1  H12B 2767   1.884   4.466   6.111 -1.1975 -0.8682 -0.4676
   22CHL1   C11 2768   1.848   4.601   6.280 -0.2372  0.0710 -0.2037
   22CHL1  H11A 2769   1.778   4.685   6.300 -0.8938 -0.8336  1.4816
   22CHL1  H11B 2770   1.823   4.517   6.348 -0.0430  1.2142  1.3490
   22CHL1    C9 2771   2.001   4.636   6.306 -0.4831 -0.0777 -0.4086
   22CHL1    H9 2772   2.045   4.535   6.295 -0.3257  0.0730 -1.2258
   22CHL1   C10 2773   2.031   4.686   6.456  0.1547  0.0167  0.3704
   22CHL1   C19 2774   1.942   4.807   6.497  0.0570 -0.3187 -0.1923
   22CHL1  H19A 2775   1.958   4.895   6.432 -1.5642  0.2350  0.1198
   22CHL1  H19B 2776   1.834   4.785   6.483 -0.7580  1.1040  2.9610
   22CHL1  H19C 2777   1.953   4.831   6.605 -1.0891 -0.3208 -0.0608
   22CHL1    C1 2778   1.993   4.572   6.553  0.3085 -0.4580 -0.0909
   22CHL1   H1A 2779   1.883   4.565   6.562  0.1041 -0.3208 -2.1034
   22CHL1   H1B 2780   2.025   4.472   6.517  0.5849 -0.6738  0.7175
   22CHL1    C2 2781   2.062   4.586   6.695  0.0553  0.3588 -0.4400
   22CHL1   H2A 2782   2.034   4.494   6.750  1.4839 -0.8578 -1.6549
   22CHL1   H2B 2783   2.024   4.681   6.738  1.8068  0.4602  0.9907
   22CHL1   C20 2784   1.710   4.639   5.815 -0.3955  0.4272 -0.5659
   22CHL1   H20 2785   1.675   4.743   5.832  1.1842  1.5807 -3.6787
   22CHL1   C21 2786   1.602   4.548   5.872 -0.2365 -0.0666 -0.6752
   22CHL1  H21A 2787   1.637   4.442   5.883 -0.0917  0.0845  0.5509
   22CHL1  H21B 2788   1.510   4.563   5.812 -0.2335  1.1231 -0.3906
   22CHL1  H21C 2789   1.569   4.582   5.973 -0.8898 -1.3430 -0.4268
   22CHL1   C22 2790   1.724   4.631   5.665 -0.3383  0.3457  0.3494
   22CHL1  H22A 2791   1.818   4.673   5.623 -0.7800  1.0630  0.0773
   22CHL1  H22B 2792   1.728   4.524   5.633 -0.8123  0.7535 -1.1492
   22CHL1   C23 2793   1.620   4.715   5.582 -0.3625  1.2721 -0.2531
   22CHL1  H23A 2794   1.521   4.670   5.602  0.9174 -1.0773  1.1204
   22CHL1  H23B 2795   1.644   4.822   5.601  2.0382  0.9235 -1.0016
   22CHL1   C24 2796   1.648   4.695   5.433  0.2178  0.4270  0.7750
   22CHL1  H24A 2797   1.728   4.767   5.408 -1.4157  1.3050 -2.3677
   22CHL1  H24B 2798   1.681   4.590   5.414 -0.0460  0.4582  0.1437
   22CHL1   C25 2799   1.536   4.715   5.329  0.1765  0.1589  0.7622
   22CHL1   H25 2800   1.484   4.812   5.344 -2.1337 -1.0740  0.9988
   22CHL1   C26 2801   1.594   4.712   5.180  0.2723 -0.3840  0.2942
   22CHL1  H26A 2802   1.695   4.758   5.189 -0.4047  0.9849  1.4146
   22CHL1  H26B 2803   1.596   4.608   5.141 -0.8351 -0.9064  1.5417
   22CHL1  H26C 2804   1.523   4.774   5.122 -0.6795 -0.6260  1.1617
   22CHL1   C27 2805   1.420   4.624   5.345  0.1377 -0.7286  0.2666
   22CHL1  H27A 2806   1.374   4.634   5.446  1.1841  2.6581  0.5423
   22CHL1  H27B 2807   1.356   4.655   5.260  2.7643  0.5171 -1.3762
   22CHL1  H27C 2808   1.454   4.519   5.333  2.0965 -0.2625  1.2372
   23CHL1    C3 2809   6.185   4.306   6.817  0.0610 -0.5767 -0.9704
   23CHL1    H3 2810   6.186   4.197   6.840 -0.9692 -0.4001 -0.0007
   23CHL1    O3 2811   6.193   4.371   6.945  0.2275  0.2652 -0.0283
   23CHL1   H3' 2812   6.167   4.462   6.929 -2.0881 -0.2088  0.5643
   23CHL1    C4 2813   6.313   4.346   6.744 -0.8226  0.4038 -0.5663
   23CHL1   H4A 2814   6.338   4.454   6.754  2.4525 -0.2943 -0.1953
   23CHL1   H4B 2815   6.394   4.290   6.796 -0.9111 -2.4139 -3.1751
   23CHL1    C5 2816   6.327   4.309   6.598  0.0640 -0.4487  0.0597
   23CHL1    C6 2817   6.439   4.251   6.550 -0.2268 -0.4039 -0.0192
   23CHL1    H6 2818   6.532   4.221   6.602 -1.2445 -1.7522  1.1070
   23CHL1    C7 2819   6.450   4.229   6.405  0.4344 -0.1309 -0.1633
   23CHL1   H7A 2820   6.558   4.240   6.379  0.4206 -0.4500 -0.3708
   23CHL1   H7B 2821   6.428   4.121   6.386  0.8196  0.0413 -1.7220
   23CHL1    C8 2822   6.344   4.308   6.316 -0.1455 -0.0152 -0.4989
   23CHL1    H8 2823   6.373   4.416   6.314 -1.0180  0.2298 -2.3461
   23CHL1   C14 2824   6.345   4.249   6.172 -0.2151 -0.0376 -0.5247
   23CHL1   H14 2825   6.306   4.147   6.190  0.5413 -0.6789 -2.3524
   23CHL1   C15 2826   6.482   4.234   6.102  0.2589  0.7671 -0.3380
   23CHL1  H15A 2827   6.546   4.317   6.139  0.9244 -0.8972  2.4797
   23CHL1  H15B 2828   6.526   4.137   6.132 -0.1980  0.3494 -0.9707
   23CHL1   C16 2829   6.448   4.229   5.957  0.3914  0.1208  0.1444
   23CHL1  H16A 2830   6.497   4.312   5.901 -2.4992  0.9625 -1.3163
   23CHL1  H16B 2831   6.481   4.133   5.912 -1.7053 -0.0413 -1.1801
   23CHL1   C17 2832   6.289   4.248   5.946 -0.5521 -0.2978  0.7801
   23CHL1   H17 2833   6.249   4.144   5.938  0.1131 -0.5465  0.6366
   23CHL1   C13 2834   6.249   4.320   6.076 -0.1827 -0.0104  0.8111
   23CHL1   C18 2835   6.285   4.470   6.061 -0.0240  0.0470 -1.0391
   23CHL1  H18A 2836   6.383   4.504   6.019  0.4516 -0.9341 -0.7641
   23CHL1  H18B 2837   6.202   4.510   5.999 -0.2948  1.2820  0.0591
   23CHL1  H18C 2838   6.278   4.515   6.163  2.4324  0.9216 -1.1666
   23CHL1   C12 2839   6.113   4.298   6.136  0.6007  0.4015  0.6981
   23CHL1  H12A 2840   6.025   4.334   6.079  0.5340 -0.7250  0.0489
   23CHL1  H12B 2841   6.097   4.189   6.154  0.2701  0.4206  0.5259
   23CHL1   C11 2842   6.102   4.360   6.274  0.4033 -0.3020  0.0115
   23CHL1  H11A 2843   6.103   4.469   6.256 -1.8449 -0.3153 -0.4205
   23CHL1  H11B 2844   5.999   4.348   6.312  0.7306 -0.6957  0.7968
   23CHL1    C9 2845   6.203   4.300   6.377  0.5830 -0.7330  0.5094
   23CHL1    H9 2846   6.184   4.191   6.387  2.1100 -1.1365 -0.5967
   23CHL1   C10 2847   6.198   4.353   6.516  1.0755 -0.3009 -0.0538
   23CHL1   C19 2848   6.198   4.507   6.504 -0.1871 -0.2183 -0.1873
   23CHL1  H19A 2849   6.200   4.538   6.611 -2.5254  0.3706 -0.2636
   23CHL1  H19B 2850   6.285   4.549   6.450 -0.7394  3.9208  1.7752
   23CHL1  H19C 2851   6.099   4.547   6.476 -1.9119 -2.1110  2.6358
   23CHL1    C1 2852   6.072   4.306   6.589 -0.0580 -0.3098  0.1264
   23CHL1   H1A 2853   5.989   4.350   6.529  1.1461 -0.5934 -1.8613
   23CHL1   H1B 2854   6.060   4.196   6.577 -0.0236 -0.0793 -2.9017
   23CHL1    C2 2855   6.067   4.343   6.742 -0.4749 -0.2096 -0.1047
   23CHL1   H2A 2856   5.975   4.306   6.793  0.4723 -4.2618 -0.9746
   23CHL1   H2B 2857   6.074   4.454   6.744  0.6416 -0.2796  0.7088
   23CHL1   C20 2858   6.245   4.324   5.819 -0.1739 -0.1643  0.1788
   23CHL1   H20 2859   6.286   4.427   5.826  2.5432 -1.2494  1.8302
   23CHL1   C21 2860   6.091   4.327   5.803  0.0092  0.2909 -0.0576
   23CHL1  H21A 2861   6.048   4.230   5.836  2.3158 -0.8601 -0.2088
   23CHL1  H21B 2862   6.062   4.335   5.696 -1.2265 -0.4216  0.1990
   23CHL1  H21C 2863   6.047   4.411   5.860  0.9113  1.2589 -0.7514
   23CHL1   C22 2864   6.313   4.270   5.693  0.5160 -0.4287 -0.0123
   23CHL1  H22A 2865   6.423   4.269   5.713  0.6622 -0.3602 -0.8078
   23CHL1  H22B 2866   6.271   4.168   5.682  1.3988 -0.9535  1.1597
   23CHL1   C23 2867   6.293   4.350   5.566  0.1083 -0.2699  0.2961
   23CHL1  H23A 2868   6.187   4.358   5.533  0.5126  0.3851 -0.9317
   23CHL1  H23B 2869   6.321   4.458   5.573  0.2271 -0.1712 -1.3093
   23CHL1   C24 2870   6.392   4.297   5.458  0.5158  0.6249  0.5610
   23CHL1  H24A 2871   6.501   4.283   5.476  1.0557 -1.2224 -3.0567
   23CHL1  H24B 2872   6.339   4.202   5.434 -1.1260  1.6296  0.1027
   23CHL1   C25 2873   6.382   4.378   5.321 -0.1281  0.0698 -0.1825
   23CHL1   H25 2874   6.275   4.394   5.297 -0.1441 -2.6767 -2.4867
   23CHL1   C26 2875   6.452   4.515   5.333 -0.9456 -0.1993  0.3094
   23CHL1  H26A 2876   6.451   4.574   5.239 -0.2439 -1.3329 -0.4322
   23CHL1  H26B 2877   6.410   4.561   5.425  0.6316 -1.9973  2.0137
   23CHL1  H26C 2878   6.558   4.492   5.355 -1.1388 -2.1039 -0.5645
   23CHL1   C27 2879   6.433   4.296   5.198  0.2138  0.5361  0.4899
   23CHL1  H27A 2880   6.540   4.276   5.220  0.1810  2.7042  3.1160
   23CHL1  H27B 2881   6.390   4.194   5.185 -0.3061  0.8211 -0.0357
   23CHL1  H27C 2882   6.427   4.341   5.097 -1.8479 -3.0018 -1.1786
   24CHL1    C3 2883   2.855   5.457   6.535  0.5101 -0.2943 -0.0301
   24CHL1    H3 2884   2.868   5.365   6.474 -0.8270  0.0418 -0.8604
   24CHL1    O3 2885   2.938   5.455   6.653  0.3103  0.2324  0.0486
   24CHL1   H3' 2886   2.905   5.394   6.719  1.0997 -3.0329 -2.2945
   24CHL1    C4 2887   2.882   5.591   6.461  0.1172 -0.7518 -0.2547
   24CHL1   H4A 2888   2.844   5.667   6.532  1.7454  0.8670 -1.0209
   24CHL1   H4B 2889   2.989   5.620   6.450 -0.7996  2.1641 -2.7799
   24CHL1    C5 2890   2.799   5.608   6.337 -0.8676  0.5908  0.2978
   24CHL1    C6 2891   2.855   5.619   6.218 -0.6045  0.2200 -0.6467
   24CHL1    H6 2892   2.964   5.619   6.206 -0.7610 -0.1357 -2.4525
   24CHL1    C7 2893   2.778   5.633   6.095  0.7549  0.3817  0.0127
   24CHL1   H7A 2894   2.821   5.710   6.027  2.3595  1.1121  1.7561
   24CHL1   H7B 2895   2.797   5.548   6.027  1.3845  0.4656  0.0785
   24CHL1    C8 2896   2.629   5.663   6.111  0.2889  0.0163  0.5061
   24CHL1    H8 2897   2.611   5.771   6.134 -3.3355 -0.2464 -0.4883
   24CHL1   C14 2898   2.562   5.636   5.980  0.4711  0.4526 -0.0658
   24CHL1   H14 2899   2.569   5.529   5.951 -0.6450  1.1973 -3.5323
   24CHL1   C15 2900   2.607   5.689   5.847  0.4066 -0.1361 -0.3427
   24CHL1  H15A 2901   2.636   5.795   5.858  1.2021 -0.1975 -1.5884
   24CHL1  H15B 2902   2.697   5.637   5.808  1.0167 -1.3130  2.4043
   24CHL1   C16 2903   2.485   5.685   5.751 -0.0906  0.1057 -0.2259
   24CHL1  H16A 2904   2.464   5.789   5.719  1.2073  0.2011 -0.8304
   24CHL1  H16B 2905   2.511   5.624   5.662 -0.4922 -0.4333  0.0190
   24CHL1   C17 2906   2.367   5.626   5.836 -0.6528  0.3445 -0.4360
   24CHL1   H17 2907   2.373   5.516   5.823  2.9340  0.1279  1.6361
   24CHL1   C13 2908   2.407   5.650   5.982 -0.5187 -0.3492  1.0831
   24CHL1   C18 2909   2.372   5.798   6.020  0.4328  0.6326  0.0442
   24CHL1  H18A 2910   2.412   5.872   5.947 -0.5729  1.1844  0.0330
   24CHL1  H18B 2911   2.264   5.822   6.021  0.9735  3.7015 -1.9109
   24CHL1  H18C 2912   2.414   5.822   6.121  0.9666  1.1047 -0.2834
   24CHL1   C12 2913   2.352   5.544   6.086  0.4432  0.3730 -0.5331
   24CHL1  H12A 2914   2.241   5.542   6.100  0.7003 -0.6726  1.7674
   24CHL1  H12B 2915   2.381   5.442   6.051  1.8754  0.3639  0.6075
   24CHL1   C11 2916   2.428   5.562   6.223 -0.5073  0.1487 -0.3155
   24CHL1  H11A 2917   2.393   5.655   6.272 -0.2078 -0.8762  1.9967
   24CHL1  H11B 2918   2.398   5.469   6.277  0.8719 -1.3675 -2.0364
   24CHL1    C9 2919   2.584   5.571   6.221 -0.1175 -0.3406 -0.9119
   24CHL1    H9 2920   2.610   5.468   6.187 -1.4898 -1.2238  0.5392
   24CHL1   C10 2921   2.649   5.589   6.360  0.2525 -0.4407 -0.2941
   24CHL1   C19 2922   2.600   5.718   6.429  0.2631  0.5800  0.0387
   24CHL1  H19A 2923   2.657   5.744   6.521  0.2063 -1.8254  0.8457
   24CHL1  H19B 2924   2.611   5.804   6.360 -1.4580  0.0831 -0.9045
   24CHL1  H19C 2925   2.494   5.710   6.462  0.3337  1.2228  0.4321
   24CHL1    C1 2926   2.623   5.463   6.447  0.7527 -0.3371  0.4271
   24CHL1   H1A 2927   2.514   5.472   6.468  0.3491  2.8976 -2.2053
   24CHL1   H1B 2928   2.646   5.374   6.385  2.0392 -0.9783  1.7723
   24CHL1    C2 2929   2.711   5.453   6.575 -0.2087 -0.5185 -0.1930
   24CHL1   H2A 2930   2.688   5.372   6.646  1.6559 -0.2030  0.8319
   24CHL1   H2B 2931   2.697   5.545   6.635  0.1982 -0.3986 -0.2782
   24CHL1   C20 2932   2.230   5.664   5.790 -0.6163 -0.8378 -0.2051
   24CHL1   H20 2933   2.205   5.768   5.821 -0.1964 -1.0979  1.0428
   24CHL1   C21 2934   2.133   5.558   5.837 -0.1849  0.4326 -0.2788
   24CHL1  H21A 2935   2.173   5.455   5.833  0.0760  0.5209 -0.0213
   24CHL1  H21B 2936   2.042   5.566   5.773 -0.7130  0.5585  0.4753
   24CHL1  H21C 2937   2.106   5.571   5.944  0.2189 -0.3858 -0.0731
   24CHL1   C22 2938   2.215   5.672   5.635  0.0875 -0.3654  0.2689
   24CHL1  H22A 2939   2.111   5.700   5.608 -0.5290 -2.1809  0.6057
   24CHL1  H22B 2940   2.289   5.747   5.602  0.8008 -1.6282 -1.1498
   24CHL1   C23 2941   2.247   5.541   5.559 -0.9554  0.2371  0.0946
   24CHL1  H23A 2942   2.345   5.499   5.589 -1.8777 -0.6834  2.0397
   24CHL1  H23B 2943   2.162   5.471   5.575 -1.0790  0.3586 -0.0259
   24CHL1   C24 2944   2.268   5.564   5.406  0.1597 -0.8387  0.6311
   24CHL1  H24A 2945   2.344   5.641   5.383 -1.5159  0.7514  0.1681
   24CHL1  H24B 2946   2.308   5.469   5.363  1.4354  0.1331 -0.3929
   24CHL1   C25 2947   2.143   5.605   5.314 -0.1925  0.2096  0.1486
   24CHL1   H25 2948   2.101   5.693   5.366  0.0500  1.0071 -0.9624
   24CHL1   C26 2949   2.183   5.647   5.174  0.0274  0.2264  0.2564
   24CHL1  H26A 2950   2.090   5.681   5.124  0.8291  2.1812 -0.0048
   24CHL1  H26B 2951   2.270   5.716   5.181  0.6169 -0.5293  0.6210
   24CHL1  H26C 2952   2.214   5.553   5.124 -0.7442 -0.1139  0.4070
   24CHL1   C27 2953   2.042   5.484   5.318 -0.1924  0.6222  0.0576
   24CHL1  H27A 2954   1.941   5.512   5.280  0.0991  0.5683 -0.7813
   24CHL1  H27B 2955   2.076   5.401   5.253  0.4814  1.8892 -1.2610
   24CHL1  H27C 2956   2.033   5.451   5.424 -2.4303  0.3199 -0.1807
   25CHL1    C3 2957   4.293   4.417   6.764  0.3188 -0.2054 -0.6081
   25CHL1    H3 2958   4.353   4.508   6.749 -0.9840  0.5174 -1.7154
   25CHL1    O3 2959   4.271   4.405   6.905  0.3635 -0.0067  1.0688
   25CHL1   H3' 2960   4.356   4.380   6.941  0.8945 -0.8893 -0.6796
   25CHL1    C4 2961   4.162   4.423   6.682 -0.3956  0.6283 -0.1818
   25CHL1   H4A 2962   4.107   4.331   6.711  1.9601 -0.0571  2.6373
   25CHL1   H4B 2963   4.113   4.514   6.721  2.0507  2.0066 -0.1458
   25CHL1    C5 2964   4.185   4.420   6.535 -0.1101 -0.7513  0.0404
   25CHL1    C6 2965   4.133   4.509   6.449  0.3286  0.3533  0.7669
   25CHL1    H6 2966   4.066   4.591   6.480  1.6821  1.2351  1.4474
   25CHL1    C7 2967   4.133   4.476   6.304  0.8581  0.0591 -0.5621
   25CHL1   H7A 2968   4.033   4.488   6.256  0.0072  1.2562  1.3522
   25CHL1   H7B 2969   4.195   4.548   6.247 -0.4245  1.5191 -0.1764
   25CHL1    C8 2970   4.186   4.337   6.255  0.8392  0.0738 -0.4561
   25CHL1    H8 2971   4.106   4.260   6.258  1.6449 -0.7757 -0.4863
   25CHL1   C14 2972   4.231   4.339   6.106 -0.3923 -0.4583  0.0063
   25CHL1   H14 2973   4.316   4.411   6.104 -0.1881 -0.6099  1.6595
   25CHL1   C15 2974   4.126   4.398   6.011  0.2811 -0.8233  0.0887
   25CHL1  H15A 2975   4.040   4.336   6.041  0.4160 -0.6837  0.7818
   25CHL1  H15B 2976   4.119   4.508   6.029 -1.1656 -0.7592 -0.7078
   25CHL1   C16 2977   4.179   4.351   5.870  0.2478 -0.4094 -0.4265
   25CHL1  H16A 2978   4.109   4.296   5.803  0.2400 -0.5026 -0.3430
   25CHL1  H16B 2979   4.220   4.441   5.819 -0.0046 -0.3735 -0.5705
   25CHL1   C17 2980   4.301   4.258   5.900  0.5959  0.1932 -0.5390
   25CHL1   H17 2981   4.396   4.315   5.898 -0.2527  1.6227 -1.5872
   25CHL1   C13 2982   4.288   4.211   6.041  0.4917  0.3103  0.4148
   25CHL1   C18 2983   4.178   4.105   6.053  0.1386  0.2273  0.1836
   25CHL1  H18A 2984   4.135   4.105   6.155  1.7042  0.7850  0.8665
   25CHL1  H18B 2985   4.090   4.117   5.986  0.7955  2.3046 -0.3799
   25CHL1  H18C 2986   4.235   4.010   6.039  3.6334  1.7061  2.8708
   25CHL1   C12 2987   4.413   4.179   6.126  0.5989  0.0454  0.3571
   25CHL1  H12A 2988   4.457   4.085   6.086  1.8015  0.0461  1.5980
   25CHL1  H12B 2989   4.483   4.266   6.133  2.4318 -1.4512  1.5014
   25CHL1   C11 2990   4.378   4.167   6.282  0.3075 -0.5454  0.2816
   25CHL1  H11A 2991   4.308   4.081   6.290  1.9801 -2.2057 -1.8612
   25CHL1  H11B 2992   4.477   4.158   6.332  0.0346 -3.0525  0.5404
   25CHL1    C9 2993   4.304   4.294   6.338  0.2091 -1.2351  0.3315
   25CHL1    H9 2994   4.379   4.375   6.326 -1.1128  0.2866  1.8853
   25CHL1   C10 2995   4.266   4.299   6.491  0.0138  0.5131  0.8029
   25CHL1   C19 2996   4.194   4.163   6.515 -0.3450  0.3200  0.0054
   25CHL1  H19A 2997   4.096   4.156   6.464 -0.2518 -0.9622 -0.0119
   25CHL1  H19B 2998   4.261   4.075   6.502  0.4060  1.1039 -1.8722
   25CHL1  H19C 2999   4.172   4.166   6.624  1.8868 -2.3751  0.6496
   25CHL1    C1 3000   4.397   4.297   6.571  0.3807 -0.4071 -0.0651
   25CHL1   H1A 3001   4.454   4.208   6.538  2.3737  1.1344 -0.9793
   25CHL1   H1B 3002   4.468   4.377   6.541  0.1023  0.7522  2.1562
   25CHL1    C2 3003   4.376   4.294   6.721  0.0296  0.0163 -0.0715
   25CHL1   H2A 3004   4.474   4.305   6.774  0.4558 -4.2093  0.3670
   25CHL1   H2B 3005   4.333   4.199   6.760  0.9497 -0.5304 -0.3521
   25CHL1   C20 3006   4.322   4.150   5.785  0.3173  0.8389 -0.1714
   25CHL1   H20 3007   4.229   4.093   5.763  1.2740 -0.6731 -0.4774
   25CHL1   C21 3008   4.430   4.043   5.818  0.0981 -0.1100  0.6896
   25CHL1  H21A 3009   4.435   3.972   5.732 -0.1170 -0.2716  0.8105
   25CHL1  H21B 3010   4.401   3.993   5.912 -0.5084  0.1924  0.6631
   25CHL1  H21C 3011   4.531   4.087   5.833  0.7481  0.1207 -3.3064
   25CHL1   C22 3012   4.355   4.223   5.658 -0.0010  0.5351 -0.2674
   25CHL1  H22A 3013   4.276   4.299   5.639  0.1791  0.8218  0.0920
   25CHL1  H22B 3014   4.449   4.283   5.663  0.2604  0.0874  0.4334
   25CHL1   C23 3015   4.366   4.126   5.539 -0.3042 -0.6526  0.5526
   25CHL1  H23A 3016   4.463   4.072   5.532 -1.1437 -2.0948 -0.8215
   25CHL1  H23B 3017   4.276   4.061   5.531 -0.9945  0.3060  0.3142
   25CHL1   C24 3018   4.376   4.205   5.409 -0.0146 -0.3852  0.1907
   25CHL1  H24A 3019   4.305   4.290   5.414  2.8014  2.0838  1.4733
   25CHL1  H24B 3020   4.472   4.261   5.400 -0.8400  0.8125 -1.7339
   25CHL1   C25 3021   4.367   4.130   5.273  0.0316  0.1660  0.3354
   25CHL1   H25 3022   4.288   4.052   5.282 -1.4872  1.4662 -1.0854
   25CHL1   C26 3023   4.316   4.219   5.164  0.2000 -0.1109 -0.5473
   25CHL1  H26A 3024   4.406   4.283   5.152  0.3613 -0.5190 -1.5565
   25CHL1  H26B 3025   4.289   4.170   5.068  2.3542 -1.1168 -0.6958
   25CHL1  H26C 3026   4.228   4.278   5.197  0.8336  0.0539  0.9345
   25CHL1   C27 3027   4.502   4.053   5.252  0.1730 -0.0147  0.5284
   25CHL1  H27A 3028   4.518   3.979   5.333 -0.7967 -2.3291 -1.2920
   25CHL1  H27B 3029   4.484   3.998   5.157 -1.0865  1.0995  0.0792
   25CHL1  H27C 3030   4.588   4.120   5.233 -0.6827  0.2964 -2.8819
   26CHL1    C3 3031   0.591   3.038   6.769  0.5289 -0.2269  0.9567
   26CHL1    H3 3032   0.513   3.108   6.732  1.2832 -0.0854 -0.4507
   26CHL1    O3 3033   0.580   3.045   6.910 -0.1847 -0.2616 -0.6049
   26CHL1   H3' 3034   0.623   2.962   6.933 -0.3799 -0.5188 -1.1338
   26CHL1    C4 3035   0.563   2.896   6.720 -0.5338 -0.0037 -1.0056
   26CHL1   H4A 3036   0.630   2.837   6.787 -1.9540  1.3832  1.7924
   26CHL1   H4B 3037   0.462   2.861   6.749  0.2517 -0.9562  0.7635
   26CHL1    C5 3038   0.588   2.888   6.572  0.8191 -0.1376  0.9157
   26CHL1    C6 3039   0.491   2.848   6.485  0.0359  0.1673  0.5280
   26CHL1    H6 3040   0.395   2.804   6.515 -0.1322 -1.6410 -2.2928
   26CHL1    C7 3041   0.516   2.829   6.338 -0.1166  0.5362 -0.5923
   26CHL1   H7A 3042   0.451   2.746   6.302  0.2726 -0.3919  0.7621
   26CHL1   H7B 3043   0.471   2.912   6.280  0.4157  1.7045  0.6180
   26CHL1    C8 3044   0.669   2.822   6.298  0.3527  0.2671 -0.1052
   26CHL1    H8 3045   0.715   2.729   6.338  0.2320  0.9460  1.6920
   26CHL1   C14 3046   0.675   2.833   6.147  0.0188 -0.4015 -0.0183
   26CHL1   H14 3047   0.638   2.934   6.122 -0.8754 -0.8158 -0.4330
   26CHL1   C15 3048   0.587   2.744   6.061  0.3203  0.2826 -0.2950
   26CHL1  H15A 3049   0.607   2.641   6.098 -1.5247  0.5674  1.6903
   26CHL1  H15B 3050   0.480   2.775   6.056  1.0219  2.8814 -1.1824
   26CHL1   C16 3051   0.657   2.755   5.921 -0.4150  0.2110 -0.1163
   26CHL1  H16A 3052   0.676   2.651   5.888 -2.3414 -0.4627  0.7575
   26CHL1  H16B 3053   0.585   2.794   5.846  0.1061 -2.3097 -2.0588
   26CHL1   C17 3054   0.783   2.852   5.938  1.1773  0.0143  0.0450
   26CHL1   H17 3055   0.750   2.957   5.920 -0.5154 -0.3228  0.9691
   26CHL1   C13 3056   0.816   2.839   6.082 -0.7854  0.1154 -0.0191
   26CHL1   C18 3057   0.882   2.707   6.111  0.0604 -0.3193  0.4795
   26CHL1  H18A 3058   0.984   2.717   6.069  0.0839 -1.8306  0.1249
   26CHL1  H18B 3059   0.906   2.679   6.216  2.0628 -0.0604  0.1288
   26CHL1  H18C 3060   0.834   2.617   6.066  0.3765 -0.9864  1.4586
   26CHL1   C12 3061   0.896   2.951   6.149 -0.2660  0.3357 -0.6950
   26CHL1  H12A 3062   1.003   2.950   6.117  1.0772 -3.4109  3.0108
   26CHL1  H12B 3063   0.849   3.049   6.130  0.7831  1.0695  0.3715
   26CHL1   C11 3064   0.890   2.941   6.307 -0.4808  0.1338 -0.4684
   26CHL1  H11A 3065   0.949   2.853   6.341 -0.7669 -0.4406 -1.4308
   26CHL1  H11B 3066   0.930   3.031   6.358 -2.2910  0.6061  0.2040
   26CHL1    C9 3067   0.744   2.926   6.365 -0.4921  0.5230  0.1347
   26CHL1    H9 3068   0.692   3.019   6.334  1.3534  1.9810  1.1861
   26CHL1   C10 3069   0.729   2.919   6.517 -0.3378 -0.7409 -0.2514
   26CHL1   C19 3070   0.831   2.820   6.576  0.3613  0.6574  0.3381
   26CHL1  H19A 3071   0.815   2.714   6.548  1.7358 -0.1645  2.4185
   26CHL1  H19B 3072   0.937   2.854   6.568 -0.2604  2.2152 -2.2447
   26CHL1  H19C 3073   0.810   2.809   6.685 -0.6815 -0.7344  0.0277
   26CHL1    C1 3074   0.757   3.060   6.578 -0.0805  0.5972 -0.4697
   26CHL1   H1A 3075   0.863   3.085   6.560 -0.1987  0.6023 -1.1867
   26CHL1   H1B 3076   0.695   3.137   6.527 -1.7455 -0.0116  0.5330
   26CHL1    C2 3077   0.734   3.070   6.730 -0.1266 -0.4381  0.7404
   26CHL1   H2A 3078   0.747   3.178   6.755  0.4652 -0.7751  1.9308
   26CHL1   H2B 3079   0.804   3.005   6.786  0.3623 -1.3045 -0.8130
   26CHL1   C20 3080   0.885   2.810   5.829 -0.4574 -0.2021 -0.0660
   26CHL1   H20 3081   0.908   2.702   5.838 -0.7783 -0.1391  2.5672
   26CHL1   C21 3082   1.019   2.882   5.844 -0.1347  0.3306  0.5075
   26CHL1  H21A 3083   1.074   2.850   5.935 -0.2573 -0.6743  0.2424
   26CHL1  H21B 3084   1.022   2.993   5.838  0.0588  0.3427  0.7826
   26CHL1  H21C 3085   1.082   2.845   5.759 -0.6677 -2.3139  1.1621
   26CHL1   C22 3086   0.829   2.845   5.688 -0.3019 -0.8015  0.1078
   26CHL1  H22A 3087   0.721   2.866   5.702 -0.0517  0.9295 -0.2753
   26CHL1  H22B 3088   0.880   2.936   5.651 -0.3643 -1.2366 -1.0718
   26CHL1   C23 3089   0.852   2.729   5.587 -0.5247 -0.1574  0.0879
   26CHL1  H23A 3090   0.955   2.747   5.551 -0.8505  1.4623 -0.1341
   26CHL1  H23B 3091   0.844   2.625   5.624 -2.2921  0.2939  1.0862
   26CHL1   C24 3092   0.767   2.745   5.457 -0.1944  0.0433 -0.0257
   26CHL1  H24A 3093   0.699   2.658   5.446 -1.9431  1.2945  0.4497
   26CHL1  H24B 3094   0.699   2.833   5.463 -0.0270  0.1387  0.5219
   26CHL1   C25 3095   0.847   2.769   5.328  0.3082  0.0874  0.1077
   26CHL1   H25 3096   0.935   2.832   5.355  0.9157 -1.1687  1.1499
   26CHL1   C26 3097   0.890   2.637   5.278  0.6304  0.2551 -0.6243
   26CHL1  H26A 3098   0.798   2.585   5.246  1.3680 -0.3398 -1.8311
   26CHL1  H26B 3099   0.947   2.647   5.184  1.3047  0.0070 -0.2517
   26CHL1  H26C 3100   0.942   2.569   5.350 -0.9175  0.0819  0.3743
   26CHL1   C27 3101   0.762   2.844   5.231 -0.0143 -0.2146  0.1161
   26CHL1  H27A 3102   0.724   2.940   5.272  1.9080  0.5843  0.1376
   26CHL1  H27B 3103   0.812   2.873   5.136 -0.5463  1.8047  0.4147
   26CHL1  H27C 3104   0.670   2.792   5.198  1.3078 -0.3225 -3.8838
   27CHL1    C3 3105   6.486   3.769   6.566  0.3426 -0.2512 -0.1365
   27CHL1    H3 3106   6.529   3.868   6.540 -0.6948 -0.2169 -1.9133
   27CHL1    O3 3107   6.472   3.752   6.700  0.1466  0.0930 -0.1138
   27CHL1   H3' 3108   6.563   3.746   6.729  0.4267 -1.6503 -1.2008
   27CHL1    C4 3109   6.349   3.767   6.491 -0.4744 -0.1970 -0.1882
   27CHL1   H4A 3110   6.284   3.685   6.527  1.4044 -1.5659  0.2775
   27CHL1   H4B 3111   6.299   3.863   6.517  0.1184  0.7148 -2.1712
   27CHL1    C5 3112   6.359   3.767   6.339 -0.1679  0.7643 -0.5876
   27CHL1    C6 3113   6.288   3.856   6.273 -0.5515 -0.1908 -0.2271
   27CHL1    H6 3114   6.228   3.927   6.331  0.9813  1.6094 -0.7346
   27CHL1    C7 3115   6.303   3.866   6.124  0.3720 -0.1914 -0.0186
   27CHL1   H7A 3116   6.209   3.871   6.066 -0.1348  0.8857  0.8598
   27CHL1   H7B 3117   6.351   3.961   6.093 -1.0465  0.5699  0.0548
   27CHL1    C8 3118   6.385   3.753   6.057  0.1001  0.2079  0.2281
   27CHL1    H8 3119   6.321   3.662   6.050 -0.0244  0.3921 -1.3854
   27CHL1   C14 3120   6.416   3.793   5.912 -0.0259 -0.5358 -1.0412
   27CHL1   H14 3121   6.482   3.881   5.924  0.0957 -0.9317  2.1592
   27CHL1   C15 3122   6.302   3.833   5.814  0.4005  0.3924 -0.0211
   27CHL1  H15A 3123   6.209   3.773   5.817 -0.9830  2.3286 -1.4113
   27CHL1  H15B 3124   6.270   3.934   5.846 -0.2235  0.1991 -0.0171
   27CHL1   C16 3125   6.368   3.819   5.681 -0.8703  0.2551 -0.7406
   27CHL1  H16A 3126   6.304   3.752   5.619 -1.4407 -0.8260  0.9358
   27CHL1  H16B 3127   6.371   3.918   5.629  0.8507  1.6881  1.8360
   27CHL1   C17 3128   6.513   3.760   5.692 -0.4967 -0.4497  0.4218
   27CHL1   H17 3129   6.586   3.843   5.682  0.2369 -1.1149  0.1088
   27CHL1   C13 3130   6.502   3.693   5.831  0.0645  0.2199 -0.4026
   27CHL1   C18 3131   6.420   3.564   5.819  0.3243 -0.2768 -0.5442
   27CHL1  H18A 3132   6.340   3.570   5.742  0.3079 -1.7959 -0.6724
   27CHL1  H18B 3133   6.485   3.476   5.802  0.9632 -0.2939  1.6291
   27CHL1  H18C 3134   6.377   3.534   5.917  0.5293 -1.0943 -0.6976
   27CHL1   C12 3135   6.635   3.678   5.913 -0.1728 -0.0649 -0.4345
   27CHL1  H12A 3136   6.705   3.604   5.869  0.6553 -0.7500  1.8800
   27CHL1  H12B 3137   6.687   3.776   5.923  0.9585 -0.8141  1.4104
   27CHL1   C11 3138   6.612   3.623   6.055  0.0768  0.5655  1.1909
   27CHL1  H11A 3139   6.569   3.520   6.048  0.6142  0.4073 -0.2122
   27CHL1  H11B 3140   6.716   3.611   6.090  0.0613 -0.1262  1.0217
   27CHL1    C9 3141   6.510   3.711   6.141 -0.5171  0.1011  0.2952
   27CHL1    H9 3142   6.562   3.808   6.155  2.0929 -1.3107  1.0661
   27CHL1   C10 3143   6.469   3.674   6.285  0.0170  0.4160 -0.3635
   27CHL1   C19 3144   6.401   3.532   6.275  0.6180  0.0430 -0.5055
   27CHL1  H19A 3145   6.430   3.473   6.365  0.2969 -2.4537 -1.9395
   27CHL1  H19B 3146   6.290   3.526   6.271  0.6485 -0.9499 -0.1842
   27CHL1  H19C 3147   6.441   3.470   6.193 -0.9548  0.5132 -1.6755
   27CHL1    C1 3148   6.601   3.681   6.358 -0.9875  0.3220 -0.1165
   27CHL1   H1A 3149   6.663   3.597   6.321 -0.4973  0.8655 -0.5390
   27CHL1   H1B 3150   6.651   3.778   6.339 -0.2424 -0.1872 -0.7916
   27CHL1    C2 3151   6.585   3.664   6.511 -0.1700  0.3797 -0.4049
   27CHL1   H2A 3152   6.680   3.653   6.567  0.1117  0.5152 -0.8509
   27CHL1   H2B 3153   6.534   3.568   6.534 -1.1860  0.4470 -2.1704
   27CHL1   C20 3154   6.560   3.666   5.575 -0.2099 -0.2850 -0.5690
   27CHL1   H20 3155   6.539   3.557   5.584  0.5349 -0.5995 -2.2216
   27CHL1   C21 3156   6.718   3.679   5.580  0.3781  0.2242  0.0354
   27CHL1  H21A 3157   6.754   3.639   5.678 -2.0403  2.2096  1.8732
   27CHL1  H21B 3158   6.746   3.785   5.563 -0.9513  0.3148 -1.8516
   27CHL1  H21C 3159   6.762   3.617   5.499 -0.3881 -1.1714  0.6462
   27CHL1   C22 3160   6.512   3.701   5.433 -0.4442  0.7615  0.0834
   27CHL1  H22A 3161   6.568   3.625   5.375 -1.9232 -1.2066  1.1305
   27CHL1  H22B 3162   6.408   3.669   5.411  0.5388 -3.2211  0.4335
   27CHL1   C23 3163   6.556   3.834   5.366  0.3306  0.0203  0.1299
   27CHL1  H23A 3164   6.504   3.917   5.418  1.9776  1.7811 -0.9137
   27CHL1  H23B 3165   6.664   3.854   5.381  0.8170 -0.9350 -1.8400
   27CHL1   C24 3166   6.546   3.845   5.214 -0.6478 -0.0526  0.1052
   27CHL1  H24A 3167   6.576   3.947   5.183  1.8687  0.0917  2.5738
   27CHL1  H24B 3168   6.611   3.768   5.166 -0.0120  0.5366  0.0043
   27CHL1   C25 3169   6.409   3.819   5.156 -0.3465  0.9484  0.4181
   27CHL1   H25 3170   6.388   3.712   5.176 -2.0983  1.1392 -0.1815
   27CHL1   C26 3171   6.285   3.906   5.211 -0.2619  0.1599 -0.7889
   27CHL1  H26A 3172   6.197   3.870   5.154 -0.1753  1.2833 -1.6617
   27CHL1  H26B 3173   6.273   3.888   5.320  1.0562  1.4627 -0.4017
   27CHL1  H26C 3174   6.304   4.014   5.197 -0.7819  0.1726 -1.4253
   27CHL1   C27 3175   6.406   3.826   4.999  0.1055 -0.7275 -0.0892
   27CHL1  H27A 3176   6.498   3.787   4.949  0.2321  0.4750 -0.8226
   27CHL1  H27B 3177   6.392   3.930   4.964 -2.3485 -0.6898  0.8680
   27CHL1  H27C 3178   6.308   3.785   4.967  0.1628 -0.3487 -0.7743
   28CHL1    C3 3179   4.831   3.949   6.546  0.3605  0.3163 -1.1260
   28CHL1    H3 3180   4.790   3.847   6.561 -0.6567  0.9905  1.1770
   28CHL1    O3 3181   4.831   3.999   6.678 -0.0350 -0.7990  0.2297
   28CHL1   H3' 3182   4.805   4.091   6.682  1.6728 -0.2037 -1.2216
   28CHL1    C4 3183   4.972   3.947   6.493  0.4101 -0.3771  0.4506
   28CHL1   H4A 3184   5.018   4.047   6.483  1.7631 -0.9523  0.7045
   28CHL1   H4B 3185   5.046   3.895   6.558  0.9427 -2.3107 -1.5582
   28CHL1    C5 3186   4.982   3.893   6.351  0.0567  0.3737  0.2453
   28CHL1    C6 3187   5.081   3.808   6.300 -0.1457  0.1343  0.3251
   28CHL1    H6 3188   5.165   3.776   6.364 -0.3876 -0.1074  0.5238
   28CHL1    C7 3189   5.085   3.756   6.164  0.2493 -0.4646 -0.8874
   28CHL1   H7A 3190   5.190   3.750   6.127  0.0255  0.9777 -1.8142
   28CHL1   H7B 3191   5.051   3.650   6.166 -1.0206 -0.1885 -3.3654
   28CHL1    C8 3192   4.998   3.824   6.061  0.1454 -0.2087 -0.4198
   28CHL1    H8 3193   5.042   3.922   6.033  2.4658 -0.6364  1.4163
   28CHL1   C14 3194   4.975   3.750   5.928 -0.2194 -0.5290 -0.8690
   28CHL1   H14 3195   4.927   3.655   5.960 -0.9354  0.1162  0.0350
   28CHL1   C15 3196   5.096   3.708   5.846 -0.2496 -0.0806  0.1198
   28CHL1  H15A 3197   5.164   3.794   5.830 -1.5633  0.5583 -2.9124
   28CHL1  H15B 3198   5.145   3.627   5.904  1.0741 -0.7182 -1.7733
   28CHL1   C16 3199   5.037   3.675   5.711 -1.0735  0.3528  0.1173
   28CHL1  H16A 3200   5.085   3.738   5.633 -2.7916 -1.0374 -2.1560
   28CHL1  H16B 3201   5.050   3.566   5.698 -1.2768  0.3746 -0.2806
   28CHL1   C17 3202   4.884   3.707   5.719 -0.3514  0.3418 -0.5118
   28CHL1   H17 3203   4.844   3.605   5.738  0.1363 -0.2884 -2.5948
   28CHL1   C13 3204   4.877   3.803   5.836 -0.5432 -0.2894  0.3904
   28CHL1   C18 3205   4.917   3.946   5.787 -0.5530  0.1447  0.6054
   28CHL1  H18A 3206   4.837   3.979   5.718 -0.2826 -1.6946 -0.6532
   28CHL1  H18B 3207   4.931   4.015   5.873 -1.7482  0.6510  0.4086
   28CHL1  H18C 3208   5.012   3.942   5.729 -0.2670  0.8342  1.0160
   28CHL1   C12 3209   4.745   3.818   5.911  0.0307 -0.3930 -0.8921
   28CHL1  H12A 3210   4.667   3.855   5.841  0.1664 -0.9205 -1.3320
   28CHL1  H12B 3211   4.696   3.723   5.943 -0.3076  0.3743  1.0188
   28CHL1   C11 3212   4.756   3.906   6.032 -0.1324 -0.2184  0.4896
   28CHL1  H11A 3213   4.778   4.011   6.003  0.9547 -0.8535 -1.1436
   28CHL1  H11B 3214   4.662   3.904   6.092 -1.7061  1.2074 -1.7939
   28CHL1    C9 3215   4.861   3.853   6.129  0.9997  0.2651  0.4861
   28CHL1    H9 3216   4.813   3.761   6.168  2.0213  0.0970  1.3947
   28CHL1   C10 3217   4.875   3.946   6.254 -0.2591  0.2163 -0.2154
   28CHL1   C19 3218   4.918   4.090   6.212  0.2858 -0.6883  0.3855
   28CHL1  H19A 3219   4.842   4.150   6.159  1.7008  1.8537  1.0360
   28CHL1  H19B 3220   4.931   4.148   6.306 -0.2031  1.6614 -0.9273
   28CHL1  H19C 3221   5.006   4.083   6.144 -1.3460 -0.1294 -1.9096
   28CHL1    C1 3222   4.730   3.963   6.320  0.1101  0.5491 -0.5403
   28CHL1   H1A 3223   4.662   4.023   6.255  0.0282 -0.3618 -1.3129
   28CHL1   H1B 3224   4.682   3.863   6.327  0.0473  0.5559 -0.8553
   28CHL1    C2 3225   4.735   4.025   6.457  0.3844  0.2034  0.2539
   28CHL1   H2A 3226   4.633   4.036   6.500 -0.4974  1.4538 -1.9605
   28CHL1   H2B 3227   4.781   4.126   6.449 -1.3513  1.0742  0.7434
   28CHL1   C20 3228   4.835   3.741   5.576 -0.4170 -0.1620 -0.4287
   28CHL1   H20 3229   4.882   3.831   5.531 -1.0292  1.2918  1.6700
   28CHL1   C21 3230   4.681   3.765   5.578  0.5475 -0.0465  0.4304
   28CHL1  H21A 3231   4.647   3.783   5.473  0.7214  0.3515  0.4408
   28CHL1  H21B 3232   4.651   3.846   5.647  0.0374 -0.4418  0.6843
   28CHL1  H21C 3233   4.634   3.674   5.621  0.4415 -0.4981 -0.5982
   28CHL1   C22 3234   4.854   3.625   5.478 -0.5160  0.3991 -0.3122
   28CHL1  H22A 3235   4.956   3.583   5.497 -0.6162 -0.8977 -2.2852
   28CHL1  H22B 3236   4.781   3.544   5.501 -2.3206  0.6220 -4.4435
   28CHL1   C23 3237   4.840   3.666   5.329 -0.1132 -0.5381 -0.2436
   28CHL1  H23A 3238   4.739   3.708   5.307 -0.4714 -0.5520  1.2641
   28CHL1  H23B 3239   4.922   3.733   5.296  2.5891 -3.7969 -0.7369
   28CHL1   C24 3240   4.857   3.547   5.234 -0.5073  0.0742 -0.1074
   28CHL1  H24A 3241   4.955   3.497   5.252 -0.2404 -0.2246 -2.1252
   28CHL1  H24B 3242   4.778   3.472   5.259  1.5467 -2.1805  0.0787
   28CHL1   C25 3243   4.842   3.593   5.084 -0.2367 -0.6129  0.7291
   28CHL1   H25 3244   4.784   3.686   5.101  1.0010 -0.1571  2.7960
   28CHL1   C26 3245   4.972   3.612   5.001 -0.3352  0.2506  0.2285
   28CHL1  H26A 3246   5.040   3.686   5.049  3.0183 -0.9596 -2.2947
   28CHL1  H26B 3247   5.024   3.514   4.997 -1.4490 -0.3774  0.7589
   28CHL1  H26C 3248   4.949   3.641   4.896 -1.9352  1.7342  0.9378
   28CHL1   C27 3249   4.743   3.504   5.004  0.0365  0.0169 -0.2973
   28CHL1  H27A 3250   4.647   3.498   5.059 -1.3607  2.8184 -2.1602
   28CHL1  H27B 3251   4.714   3.559   4.912 -1.0298  1.0312  0.6104
   28CHL1  H27C 3252   4.784   3.404   4.977 -2.3515 -0.9175 -0.7945
   29CHL1    C3 3253   0.865   5.278   6.448  0.1939 -0.1190  0.1685
   29CHL1    H3 3254   0.943   5.350   6.481 -0.1844  1.1825 -1.6046
   29CHL1    O3 3255   0.808   5.223   6.567  0.8415 -0.0602 -0.4160
   29CHL1   H3' 3256   0.784   5.134   6.540 -0.5863  0.0520  0.3704
   29CHL1    C4 3257   0.750   5.352   6.365 -0.0190  0.6782  0.3549
   29CHL1   H4A 3258   0.661   5.286   6.359  1.2299 -0.9465 -1.2548
   29CHL1   H4B 3259   0.735   5.441   6.431 -0.5101  1.7935 -1.1941
   29CHL1    C5 3260   0.783   5.384   6.217  0.8837  0.3650 -1.0343
   29CHL1    C6 3261   0.760   5.507   6.166  0.2498  0.2703 -0.2649
   29CHL1    H6 3262   0.703   5.573   6.234 -1.1285 -1.2408  0.1088
   29CHL1    C7 3263   0.780   5.542   6.020  0.7290 -1.0689 -0.4177
   29CHL1   H7A 3264   0.686   5.577   5.973  0.2953 -1.1839  0.3518
   29CHL1   H7B 3265   0.855   5.624   6.007 -0.3952 -0.2906 -2.4162
   29CHL1    C8 3266   0.835   5.433   5.932  0.2956 -0.7413 -0.9533
   29CHL1    H8 3267   0.743   5.376   5.908 -1.6548  1.6048  0.5659
   29CHL1   C14 3268   0.908   5.490   5.807  0.0353  0.0346 -0.3355
   29CHL1   H14 3269   0.990   5.555   5.843 -0.7773  1.0481 -0.2457
   29CHL1   C15 3270   0.830   5.586   5.720 -0.1158 -0.2379 -0.7265
   29CHL1  H15A 3271   0.736   5.529   5.710  1.2955 -3.0882  0.7817
   29CHL1  H15B 3272   0.806   5.684   5.766  0.0504 -1.3564  1.9211
   29CHL1   C16 3273   0.909   5.586   5.586  0.0923 -0.1023  0.4183
   29CHL1  H16A 3274   0.841   5.564   5.500  1.4476  2.5509 -1.4541
   29CHL1  H16B 3275   0.957   5.683   5.561 -1.2465  0.1310 -1.4922
   29CHL1   C17 3276   1.015   5.472   5.595 -0.6509 -0.4964  0.9988
   29CHL1   H17 3277   1.116   5.507   5.626 -0.4764 -2.6858  3.2040
   29CHL1   C13 3278   0.963   5.385   5.715  0.2531  0.0786  0.6913
   29CHL1   C18 3279   0.861   5.286   5.659  1.0110 -0.1814  0.1478
   29CHL1  H18A 3280   0.905   5.210   5.593 -0.7307  0.0382 -1.3450
   29CHL1  H18B 3281   0.794   5.235   5.732 -0.1108  0.6184 -0.2910
   29CHL1  H18C 3282   0.787   5.343   5.598 -1.8032 -2.7388  0.9231
   29CHL1   C12 3283   1.064   5.309   5.799 -0.2535 -0.3605  0.5827
   29CHL1  H12A 3284   1.100   5.222   5.741 -1.3259 -1.3089  1.2921
   29CHL1  H12B 3285   1.151   5.371   5.831  1.6092 -3.2296  1.4525
   29CHL1   C11 3286   1.004   5.246   5.927 -0.5413  0.0232 -0.9076
   29CHL1  H11A 3287   0.946   5.155   5.899  0.8433 -1.4766  0.8006
   29CHL1  H11B 3288   1.092   5.210   5.984 -1.0901  2.3947  1.6352
   29CHL1    C9 3289   0.929   5.346   6.016  0.4721 -0.5493 -0.3046
   29CHL1    H9 3290   0.988   5.426   6.067 -0.8084  1.9044 -2.4690
   29CHL1   C10 3291   0.867   5.280   6.143  0.4072 -0.1938  0.3302
   29CHL1   C19 3292   0.768   5.165   6.098  0.1571  0.7273  0.1652
   29CHL1  H19A 3293   0.809   5.064   6.076  1.3920  1.3329 -0.4071
   29CHL1  H19B 3294   0.693   5.148   6.178  1.1470 -0.7704  0.8222
   29CHL1  H19C 3295   0.708   5.192   6.007  1.4076 -1.3374 -1.3673
   29CHL1    C1 3296   0.982   5.229   6.232  0.0057 -0.0306 -0.0632
   29CHL1   H1A 3297   1.046   5.156   6.179  0.6345  0.8297 -0.5152
   29CHL1   H1B 3298   1.039   5.322   6.256  0.2683 -0.1081 -0.3793
   29CHL1    C2 3299   0.936   5.165   6.367  0.0558 -0.7507  0.2583
   29CHL1   H2A 3300   1.025   5.136   6.427  0.0477  0.7663  1.0479
   29CHL1   H2B 3301   0.868   5.085   6.330 -2.3986  1.5151 -0.4925
   29CHL1   C20 3302   1.045   5.416   5.460  1.1194  1.4410 -0.6378
   29CHL1   H20 3303   0.957   5.363   5.418 -0.3817  0.9611  2.7870
   29CHL1   C21 3304   1.169   5.322   5.471 -0.0629 -0.0630 -0.5821
   29CHL1  H21A 3305   1.161   5.250   5.387  0.9285  0.4498 -1.1387
   29CHL1  H21B 3306   1.181   5.264   5.565 -1.7187 -0.7147 -0.7437
   29CHL1  H21C 3307   1.257   5.391   5.465  0.2189 -0.4866 -1.4637
   29CHL1   C22 3308   1.089   5.534   5.361  0.4174 -0.4864 -0.3738
   29CHL1  H22A 3309   0.990   5.582   5.345 -0.0374 -2.0313 -2.8030
   29CHL1  H22B 3310   1.159   5.605   5.411  0.2803  0.0944 -0.9853
   29CHL1   C23 3311   1.149   5.485   5.224 -0.1897  0.0764 -0.2751
   29CHL1  H23A 3312   1.254   5.449   5.228 -0.2479 -0.0478  0.1948
   29CHL1  H23B 3313   1.091   5.401   5.182  0.9876 -1.2237  0.5909
   29CHL1   C24 3314   1.161   5.601   5.128  0.0413 -0.8308 -0.3257
   29CHL1  H24A 3315   1.054   5.626   5.112 -0.0655 -0.2056  1.1786
   29CHL1  H24B 3316   1.222   5.681   5.175  1.2904 -1.8170 -0.2024
   29CHL1   C25 3317   1.218   5.571   4.985 -0.4699 -0.1834  0.2978
   29CHL1   H25 3318   1.314   5.516   4.995 -0.9930 -1.8427 -2.6358
   29CHL1   C26 3319   1.131   5.479   4.904  0.4636  0.1914 -0.0100
   29CHL1  H26A 3320   1.097   5.394   4.966  0.6221  0.7155  0.8088
   29CHL1  H26B 3321   1.033   5.525   4.881  0.1689  2.5305  4.7681
   29CHL1  H26C 3322   1.190   5.442   4.817  2.4504  0.7257  1.0288
   29CHL1   C27 3323   1.238   5.704   4.908  1.0310  0.1220  0.3854
   29CHL1  H27A 3324   1.153   5.775   4.915  1.0577  0.3384 -1.1697
   29CHL1  H27B 3325   1.325   5.768   4.934 -0.1248  2.6772 -1.6773
   29CHL1  H27C 3326   1.244   5.680   4.800 -0.9107 -0.2645  0.3242
   30CHL1    C3 3327   4.502   4.983   6.768  0.5771  0.5098  0.4172
   30CHL1    H3 3328   4.505   5.093   6.756 -1.8762  0.7999  1.7525
   30CHL1    O3 3329   4.500   4.961   6.901  0.7659 -0.2054 -0.8500
   30CHL1   H3' 3330   4.465   4.874   6.918  0.0403  0.3846  0.9208
   30CHL1    C4 3331   4.380   4.927   6.701  0.0567 -0.6963 -0.1315
   30CHL1   H4A 3332   4.352   4.826   6.739 -2.1602 -0.3060 -0.5836
   30CHL1   H4B 3333   4.303   4.996   6.741  0.3229 -0.6736  0.3460
   30CHL1    C5 3334   4.383   4.931   6.553 -0.3844  0.2774  0.1723
   30CHL1    C6 3335   4.285   4.980   6.479 -0.4045  0.4307 -0.6453
   30CHL1    H6 3336   4.200   5.022   6.535  0.9058  2.6730 -0.1823
   30CHL1    C7 3337   4.274   4.980   6.330 -1.0198  0.2924  0.1322
   30CHL1   H7A 3338   4.181   4.936   6.288 -0.1746 -1.2084 -0.2703
   30CHL1   H7B 3339   4.304   5.080   6.292  1.1535 -0.8112 -1.3195
   30CHL1    C8 3340   4.383   4.876   6.267 -0.0690  0.1371 -0.6678
   30CHL1    H8 3341   4.336   4.776   6.280  0.7369 -0.1100  0.5662
   30CHL1   C14 3342   4.393   4.900   6.114 -0.2644  0.3512 -0.1636
   30CHL1   H14 3343   4.447   4.996   6.104 -1.1880  0.7024 -2.7194
   30CHL1   C15 3344   4.272   4.925   6.025  0.6251  0.2982  0.9919
   30CHL1  H15A 3345   4.198   4.845   6.043 -1.6571  1.6138 -1.7453
   30CHL1  H15B 3346   4.234   5.028   6.038  2.5877  1.1478  0.3856
   30CHL1   C16 3347   4.327   4.904   5.881 -0.2881 -0.0225  0.2900
   30CHL1  H16A 3348   4.273   4.816   5.841 -1.2491  0.9143 -0.5500
   30CHL1  H16B 3349   4.307   4.991   5.815  1.7004  0.7378  0.6265
   30CHL1   C17 3350   4.477   4.869   5.898  0.2786 -0.3053  0.2646
   30CHL1   H17 3351   4.527   4.968   5.905 -1.3123  0.4691  1.4147
   30CHL1   C13 3352   4.492   4.809   6.040  0.8772  0.3163  0.1483
   30CHL1   C18 3353   4.441   4.661   6.031 -0.5826 -0.1442 -0.1089
   30CHL1  H18A 3354   4.499   4.596   5.961 -1.5747  0.9367 -2.0171
   30CHL1  H18B 3355   4.437   4.616   6.132 -0.1403  1.8492  0.8428
   30CHL1  H18C 3356   4.339   4.650   5.988 -0.5583 -1.1242  0.0647
   30CHL1   C12 3357   4.618   4.823   6.118 -0.0641  0.0638  0.5492
   30CHL1  H12A 3358   4.700   4.764   6.073 -0.7665 -1.0178  0.6542
   30CHL1  H12B 3359   4.653   4.929   6.118 -0.1361  0.0983 -0.3444
   30CHL1   C11 3360   4.616   4.781   6.271  0.2800 -0.5588  0.8149
   30CHL1  H11A 3361   4.586   4.674   6.274  0.6325 -0.7377 -1.0653
   30CHL1  H11B 3362   4.723   4.793   6.300  1.2593 -3.1954 -1.2738
   30CHL1    C9 3363   4.516   4.875   6.339 -0.3098  0.3176  0.6937
   30CHL1    H9 3364   4.557   4.976   6.316  0.5814  0.5080  2.8507
   30CHL1   C10 3365   4.508   4.870   6.492 -0.5062  0.8789 -0.0046
   30CHL1   C19 3366   4.503   4.724   6.517 -0.6140  0.0100 -0.9569
   30CHL1  H19A 3367   4.473   4.689   6.618  0.8135  0.4005 -0.3813
   30CHL1  H19B 3368   4.436   4.675   6.443  0.8062  0.7704 -2.8342
   30CHL1  H19C 3369   4.603   4.678   6.506 -0.3048  0.9530 -2.2915
   30CHL1    C1 3370   4.639   4.931   6.562  0.0224 -0.6821  0.7259
   30CHL1   H1A 3371   4.724   4.868   6.529  2.1467  1.8762  1.0059
   30CHL1   H1B 3372   4.651   5.038   6.536  0.4230 -1.1006 -0.8691
   30CHL1    C2 3373   4.633   4.925   6.715  0.2199  0.5907 -0.3776
   30CHL1   H2A 3374   4.722   4.974   6.762 -0.3304  1.1190  0.1445
   30CHL1   H2B 3375   4.638   4.821   6.752 -0.6252  0.4353 -0.6825
   30CHL1   C20 3376   4.529   4.795   5.780 -0.1199 -0.0472  0.1493
   30CHL1   H20 3377   4.507   4.686   5.777  1.4938 -0.4256  1.1806
   30CHL1   C21 3378   4.682   4.804   5.786  0.2836 -0.2553  0.1767
   30CHL1  H21A 3379   4.727   4.719   5.843  0.3776 -1.8441 -2.1441
   30CHL1  H21B 3380   4.719   4.898   5.833  0.4715 -0.3644  0.2498
   30CHL1  H21C 3381   4.717   4.797   5.681  0.3109  1.0081  0.0899
   30CHL1   C22 3382   4.481   4.848   5.642 -0.6929  0.1388  0.2978
   30CHL1  H22A 3383   4.509   4.773   5.565  0.6142 -0.4853  1.3354
   30CHL1  H22B 3384   4.370   4.854   5.644 -0.7409 -0.6860  1.2542
   30CHL1   C23 3385   4.535   4.987   5.603  0.4703 -0.0294 -0.2033
   30CHL1  H23A 3386   4.510   5.059   5.684  3.8365 -0.4570  1.4028
   30CHL1  H23B 3387   4.645   4.977   5.589  0.3197 -0.7740 -0.8791
   30CHL1   C24 3388   4.456   5.030   5.481 -0.2540 -1.2307 -0.2361
   30CHL1  H24A 3389   4.456   4.943   5.413 -0.3313 -0.2668 -1.5120
   30CHL1  H24B 3390   4.354   5.059   5.516  0.7537  2.3287  0.1935
   30CHL1   C25 3391   4.520   5.155   5.420 -0.0681 -0.1488 -0.3105
   30CHL1   H25 3392   4.561   5.216   5.503 -1.7342  0.4431  0.1175
   30CHL1   C26 3393   4.637   5.102   5.330 -0.6061 -0.1612 -0.5695
   30CHL1  H26A 3394   4.715   5.055   5.393  0.4855  1.8615 -0.3508
   30CHL1  H26B 3395   4.607   5.019   5.261  0.1143 -1.1354  0.2557
   30CHL1  H26C 3396   4.691   5.182   5.276  2.6035  0.5503  3.2376
   30CHL1   C27 3397   4.404   5.239   5.344 -0.0751  0.0687  0.1046
   30CHL1  H27A 3398   4.333   5.178   5.285 -0.3124 -0.8734  1.3222
   30CHL1  H27B 3399   4.330   5.283   5.414 -0.9717  0.0765 -0.8406
   30CHL1  H27C 3400   4.452   5.316   5.280 -0.6818  0.1159 -0.2911
   31CHL1    C3 3401   5.778   4.653   6.840 -0.2735 -0.1573  0.3159
   31CHL1    H3 3402   5.882   4.615   6.831 -0.8528 -2.5988  2.6465
   31CHL1    O3 3403   5.772   4.690   6.977 -0.2765 -0.1318  0.2705
   31CHL1   H3' 3404   5.679   4.708   6.995 -0.4589 -0.0270 -0.7271
   31CHL1    C4 3405   5.761   4.784   6.757  0.1748 -0.5112 -0.0475
   31CHL1   H4A 3406   5.666   4.840   6.773  0.0959 -0.8163  0.5917
   31CHL1   H4B 3407   5.840   4.859   6.777 -0.9949  1.1504 -1.3632
   31CHL1    C5 3408   5.773   4.760   6.611 -0.5387 -0.2859  1.1299
   31CHL1    C6 3409   5.852   4.833   6.530 -0.7015  0.3517 -0.0061
   31CHL1    H6 3410   5.904   4.925   6.560 -1.1278  0.3590  0.7245
   31CHL1    C7 3411   5.865   4.810   6.386  0.4516 -0.2151 -0.0835
   31CHL1   H7A 3412   5.856   4.907   6.334 -2.7026 -0.4552 -0.1833
   31CHL1   H7B 3413   5.967   4.773   6.362 -0.4153 -1.2943 -2.4865
   31CHL1    C8 3414   5.753   4.718   6.320  0.3279  0.0334 -0.1297
   31CHL1    H8 3415   5.656   4.770   6.311 -0.9362 -1.7249  2.1804
   31CHL1   C14 3416   5.792   4.676   6.184 -0.2545  0.1445 -0.2509
   31CHL1   H14 3417   5.883   4.616   6.206  2.0583  4.0252  1.7560
   31CHL1   C15 3418   5.844   4.777   6.075  0.2682 -0.2204 -0.4380
   31CHL1  H15A 3419   5.774   4.863   6.083  0.4415 -0.0741 -0.5135
   31CHL1  H15B 3420   5.946   4.811   6.100  0.0123 -1.9614  4.1059
   31CHL1   C16 3421   5.832   4.706   5.939  0.1207 -0.9942 -0.2544
   31CHL1  H16A 3422   5.760   4.755   5.869  0.6820 -0.3953 -0.4252
   31CHL1  H16B 3423   5.933   4.702   5.891 -0.0336  1.8262 -1.0141
   31CHL1   C17 3424   5.773   4.571   5.980 -1.2152 -0.0186 -0.6975
   31CHL1   H17 3425   5.864   4.517   6.013 -0.0454  2.0235 -0.3818
   31CHL1   C13 3426   5.697   4.581   6.113  0.5654  0.0155 -0.0739
   31CHL1   C18 3427   5.556   4.648   6.082 -0.5815 -0.5337  0.2297
   31CHL1  H18A 3428   5.554   4.715   5.994 -0.9075 -0.9833 -0.1120
   31CHL1  H18B 3429   5.481   4.572   6.050 -1.4260  0.4214 -0.1060
   31CHL1  H18C 3430   5.526   4.701   6.175  1.3365 -2.1317  1.8600
   31CHL1   C12 3431   5.672   4.455   6.204 -0.5835 -0.7889 -0.3291
   31CHL1  H12A 3432   5.601   4.396   6.142 -1.8622  1.4729 -1.1360
   31CHL1  H12B 3433   5.774   4.409   6.201 -0.3646 -0.2997 -0.4504
   31CHL1   C11 3434   5.638   4.496   6.347 -0.8351 -0.4803 -1.0198
   31CHL1  H11A 3435   5.529   4.521   6.343 -0.9997 -1.0841 -0.5147
   31CHL1  H11B 3436   5.642   4.404   6.409  1.2098  1.1260  1.4468
   31CHL1    C9 3437   5.728   4.598   6.414  0.6233  0.1945 -0.9109
   31CHL1    H9 3438   5.830   4.556   6.426  0.2967  0.0234  2.5021
   31CHL1   C10 3439   5.693   4.639   6.562  0.2803  0.1270  0.4144
   31CHL1   C19 3440   5.548   4.694   6.569 -0.5088 -0.7941 -0.2589
   31CHL1  H19A 3441   5.533   4.779   6.499 -0.4089 -0.1721  0.4658
   31CHL1  H19B 3442   5.476   4.617   6.536  0.9426 -0.7518 -3.9698
   31CHL1  H19C 3443   5.528   4.740   6.668  0.9674 -0.9733  0.1604
   31CHL1    C1 3444   5.711   4.513   6.652 -0.2548  0.1647 -0.4470
   31CHL1   H1A 3445   5.649   4.424   6.626  0.9262 -0.6851 -0.4340
   31CHL1   H1B 3446   5.817   4.478   6.652 -0.5117 -0.6510  0.4771
   31CHL1    C2 3447   5.684   4.537   6.799 -0.2882 -0.8432  0.5337
   31CHL1   H2A 3448   5.686   4.452   6.870  0.8225 -1.5974 -0.3571
   31CHL1   H2B 3449   5.581   4.578   6.806  0.0533  0.4381 -1.2247
   31CHL1   C20 3450   5.705   4.486   5.874 -0.6192 -0.2535 -0.4287
   31CHL1   H20 3451   5.595   4.484   5.884 -0.6150  1.0937  0.0325
   31CHL1   C21 3452   5.748   4.339   5.889  0.2047  0.8333  0.3527
   31CHL1  H21A 3453   5.703   4.289   5.801  0.2408  0.6762  0.4226
   31CHL1  H21B 3454   5.712   4.297   5.986 -0.3058  1.4556  0.4338
   31CHL1  H21C 3455   5.859   4.337   5.884  0.3105  2.1333  1.5625
   31CHL1   C22 3456   5.736   4.536   5.726  0.1776  0.0708 -0.1966
   31CHL1  H22A 3457   5.671   4.626   5.716 -1.6536 -1.3025 -1.3776
   31CHL1  H22B 3458   5.844   4.558   5.716 -0.2454  1.9416 -1.1747
   31CHL1   C23 3459   5.690   4.438   5.613  0.1250 -0.5274 -0.1556
   31CHL1  H23A 3460   5.762   4.354   5.600 -0.0306 -0.5401 -0.9601
   31CHL1  H23B 3461   5.588   4.397   5.629 -0.1113  0.7151  1.9714
   31CHL1   C24 3462   5.675   4.510   5.477  0.9638  0.8457 -0.0228
   31CHL1  H24A 3463   5.677   4.427   5.403 -0.8729 -0.7793  1.6290
   31CHL1  H24B 3464   5.582   4.571   5.475 -0.1628 -0.8305 -0.8020
   31CHL1   C25 3465   5.793   4.600   5.452 -0.9855 -0.2547 -0.1872
   31CHL1   H25 3466   5.804   4.675   5.533 -0.9374  0.1523 -0.5648
   31CHL1   C26 3467   5.922   4.522   5.437  0.6950  0.3451 -0.1251
   31CHL1  H26A 3468   5.892   4.425   5.391 -0.6943  1.1230 -0.9066
   31CHL1  H26B 3469   5.982   4.578   5.363 -0.9903  0.3593 -1.5351
   31CHL1  H26C 3470   5.969   4.503   5.536 -0.2249  0.1094  0.2872
   31CHL1   C27 3471   5.759   4.671   5.321  0.1343  0.6430  0.4587
   31CHL1  H27A 3472   5.658   4.717   5.327  0.3368  1.0061  1.3207
   31CHL1  H27B 3473   5.829   4.755   5.303  0.0516  0.3394 -1.4917
   31CHL1  H27C 3474   5.774   4.606   5.233  3.2797  0.1623  1.2400
   32CHL1    C3 3475   1.583   3.439   6.191  0.4745  1.3863  0.3152
   32CHL1    H3 3476   1.678   3.394   6.156 -0.3803 -1.3950  1.3149
   32CHL1    O3 3477   1.587   3.427   6.335  0.2730  0.1252  0.4056
   32CHL1   H3' 3478   1.603   3.515   6.372 -2.6143  2.5603 -3.3521
   32CHL1    C4 3479   1.577   3.589   6.161 -0.1158  0.3497 -0.0873
   32CHL1   H4A 3480   1.485   3.625   6.212 -1.1930 -0.4428 -1.4135
   32CHL1   H4B 3481   1.660   3.642   6.213 -1.0278  1.6893  0.0551
   32CHL1    C5 3482   1.578   3.614   6.014  0.2457 -0.3041  0.8307
   32CHL1    C6 3483   1.665   3.704   5.965 -0.5462 -0.0519  0.1180
   32CHL1    H6 3484   1.738   3.754   6.030  2.1893 -1.3311 -1.7773
   32CHL1    C7 3485   1.666   3.755   5.822  0.0036 -0.2258 -0.2341
   32CHL1   H7A 3486   1.666   3.866   5.818  0.6337 -0.0246  2.8193
   32CHL1   H7B 3487   1.744   3.692   5.773 -0.6608  0.3689 -2.1621
   32CHL1    C8 3488   1.538   3.716   5.736  0.2526 -0.0394  0.8885
   32CHL1    H8 3489   1.457   3.784   5.770 -0.0266 -0.3048  0.7603
   32CHL1   C14 3490   1.572   3.716   5.589 -0.0351 -0.1919 -0.0291
   32CHL1   H14 3491   1.650   3.638   5.580 -0.4567 -0.6786  0.4571
   32CHL1   C15 3492   1.630   3.844   5.529  0.0660  0.2807 -0.2869
   32CHL1  H15A 3493   1.589   3.937   5.573  0.9094  0.1119  0.8990
   32CHL1  H15B 3494   1.740   3.853   5.535  0.1329 -0.4938 -0.1650
   32CHL1   C16 3495   1.579   3.838   5.380 -0.2237 -0.4893 -0.6094
   32CHL1  H16A 3496   1.515   3.928   5.369  0.9571  0.3883 -0.4497
   32CHL1  H16B 3497   1.661   3.859   5.308 -0.0731 -0.4788 -0.4349
   32CHL1   C17 3498   1.503   3.708   5.356  0.0100 -0.3471 -0.3817
   32CHL1   H17 3499   1.567   3.617   5.353  0.5005 -0.1834  2.4434
   32CHL1   C13 3500   1.443   3.673   5.502 -0.3490 -1.3672  0.0056
   32CHL1   C18 3501   1.319   3.756   5.541  0.1320 -0.3181  0.6196
   32CHL1  H18A 3502   1.229   3.708   5.497 -0.2560 -0.2678  1.3476
   32CHL1  H18B 3503   1.301   3.774   5.649  0.1752  1.9854  0.2782
   32CHL1  H18C 3504   1.330   3.858   5.499  0.6411 -0.8602 -0.6170
   32CHL1   C12 3505   1.417   3.524   5.535  1.0711 -0.5182  0.6581
   32CHL1  H12A 3506   1.331   3.490   5.474  0.8605 -0.6216  1.0065
   32CHL1  H12B 3507   1.508   3.467   5.506  1.2981  0.2843 -0.2537
   32CHL1   C11 3508   1.391   3.511   5.685 -0.3968  0.4103  0.6872
   32CHL1  H11A 3509   1.288   3.546   5.708 -0.9192 -1.4570  1.4101
   32CHL1  H11B 3510   1.391   3.401   5.700  0.0925  0.2814 -0.1663
   32CHL1    C9 3511   1.498   3.567   5.774  0.5803  0.1190 -0.1818
   32CHL1    H9 3512   1.588   3.505   5.751  1.1211  0.6975  0.3495
   32CHL1   C10 3513   1.471   3.552   5.927  0.0968  0.4593  0.2850
   32CHL1   C19 3514   1.331   3.608   5.961 -0.2211  0.1415  0.2214
   32CHL1  H19A 3515   1.313   3.607   6.071 -0.1686 -0.1488  0.2294
   32CHL1  H19B 3516   1.323   3.715   5.935  1.0583 -0.1003 -1.3333
   32CHL1  H19C 3517   1.248   3.550   5.917  0.5556 -1.2730  0.5286
   32CHL1    C1 3518   1.480   3.396   5.959  0.0761 -0.1783 -0.4689
   32CHL1   H1A 3519   1.406   3.328   5.912 -0.9630  0.4721  0.1782
   32CHL1   H1B 3520   1.584   3.361   5.942 -0.7981 -3.6353  0.4495
   32CHL1    C2 3521   1.478   3.357   6.115  0.2932  0.9467  0.0857
   32CHL1   H2A 3522   1.504   3.250   6.129  0.3195  0.8253 -0.8248
   32CHL1   H2B 3523   1.376   3.369   6.157  1.1581  0.6931  2.3795
   32CHL1   C20 3524   1.402   3.718   5.242  0.0329 -0.0101  0.3693
   32CHL1   H20 3525   1.317   3.783   5.271 -1.0284 -0.9205 -0.6127
   32CHL1   C21 3526   1.336   3.582   5.208  0.4528  0.1297 -0.1844
   32CHL1  H21A 3527   1.247   3.595   5.143 -0.1017  2.8957  0.9792
   32CHL1  H21B 3528   1.284   3.547   5.300  0.0602  1.3549  0.0717
   32CHL1  H21C 3529   1.402   3.499   5.175 -1.5023 -1.3784 -0.4920
   32CHL1   C22 3530   1.470   3.770   5.117  0.5639  0.1121  0.6281
   32CHL1  H22A 3531   1.498   3.877   5.131  0.7955  0.1088  0.2082
   32CHL1  H22B 3532   1.564   3.721   5.086  0.5260 -0.2498  1.0702
   32CHL1   C23 3533   1.378   3.780   4.990 -0.0196 -0.3866 -0.0054
   32CHL1  H23A 3534   1.336   3.681   4.962 -0.4219 -0.3832  0.5728
   32CHL1  H23B 3535   1.291   3.840   5.021  0.7430  0.2087  1.0444
   32CHL1   C24 3536   1.449   3.843   4.869  0.4878  0.0932  0.5283
   32CHL1  H24A 3537   1.473   3.950   4.889  1.7339 -0.1574  0.4543
   32CHL1  H24B 3538   1.548   3.794   4.856  0.0141 -1.3475  2.0282
   32CHL1   C25 3539   1.378   3.822   4.735 -0.2797  0.4940  0.0495
   32CHL1   H25 3540   1.437   3.893   4.673  0.8607  0.4400  1.0350
   32CHL1   C26 3541   1.393   3.684   4.669 -0.2935  0.1804  0.6195
   32CHL1  H26A 3542   1.497   3.675   4.633 -0.4182  0.4720  0.1648
   32CHL1  H26B 3543   1.370   3.604   4.743 -0.4751  0.4228  0.8292
   32CHL1  H26C 3544   1.330   3.672   4.578  1.3960  2.5443 -0.9897
   32CHL1   C27 3545   1.230   3.871   4.744 -0.7597 -0.0889  0.3255
   32CHL1  H27A 3546   1.175   3.809   4.818  1.0120  0.0952  1.8492
   32CHL1  H27B 3547   1.232   3.978   4.774 -1.8283  0.1058 -0.2360
   32CHL1  H27C 3548   1.174   3.863   4.648  1.0533 -0.9443 -0.7099
   33CHL1    C3 3549   4.605   3.183   6.811  0.4200  0.0252 -0.2345
   33CHL1    H3 3550   4.604   3.293   6.790 -1.9660  0.1139  0.0366
   33CHL1    O3 3551   4.587   3.162   6.952 -0.6707 -0.7585 -0.4679
   33CHL1   H3' 3552   4.593   3.066   6.955 -1.2952 -1.0037 -3.5732
   33CHL1    C4 3553   4.488   3.120   6.737 -0.5432  0.1100  0.5094
   33CHL1   H4A 3554   4.494   3.020   6.786  2.3064  0.8552  1.8918
   33CHL1   H4B 3555   4.394   3.171   6.767 -0.8405 -0.3743  0.4136
   33CHL1    C5 3556   4.509   3.121   6.588  0.1253 -0.8324 -0.6633
   33CHL1    C6 3557   4.438   3.187   6.498 -0.1012  0.0480  0.2646
   33CHL1    H6 3558   4.354   3.248   6.534  0.4201  2.7212 -2.5875
   33CHL1    C7 3559   4.456   3.175   6.351  0.7235 -0.2724 -0.1551
   33CHL1   H7A 3560   4.360   3.177   6.296 -0.1551  0.7084  1.3409
   33CHL1   H7B 3561   4.502   3.269   6.315  0.1627  0.6468  1.4467
   33CHL1    C8 3562   4.539   3.055   6.303 -0.0734  0.4991 -0.3534
   33CHL1    H8 3563   4.478   2.966   6.330  1.0234 -0.3198 -0.4815
   33CHL1   C14 3564   4.569   3.050   6.154  0.3085  0.4496  0.7189
   33CHL1   H14 3565   4.620   3.145   6.127 -2.8251  1.6992 -1.4149
   33CHL1   C15 3566   4.450   3.047   6.049  0.3036  0.3127 -0.1011
   33CHL1  H15A 3567   4.371   2.979   6.087 -0.3809  1.4393  0.5549
   33CHL1  H15B 3568   4.410   3.150   6.038  0.6106  0.5092  0.5979
   33CHL1   C16 3569   4.517   3.012   5.913  0.1124 -0.0404 -0.4178
   33CHL1  H16A 3570   4.441   2.952   5.859  0.4629 -0.7692 -0.1254
   33CHL1  H16B 3571   4.532   3.100   5.848  2.1309 -0.1445 -0.1736
   33CHL1   C17 3572   4.653   2.951   5.957  0.2112 -0.4964 -0.0499
   33CHL1   H17 3573   4.717   3.040   5.937  0.2333 -0.9111 -2.0809
   33CHL1   C13 3574   4.660   2.932   6.112  0.0311  0.6126 -0.1816
   33CHL1   C18 3575   4.595   2.798   6.146  0.4851 -0.2704  0.4564
   33CHL1  H18A 3576   4.563   2.794   6.252  0.4922 -0.1151  0.4637
   33CHL1  H18B 3577   4.502   2.787   6.085  0.7984 -0.0679 -0.0675
   33CHL1  H18C 3578   4.658   2.710   6.121 -0.2874 -0.5015 -0.7914
   33CHL1   C12 3579   4.784   2.957   6.183  0.2352 -0.5410  0.0824
   33CHL1  H12A 3580   4.867   2.888   6.157  1.0513  1.2681 -2.4618
   33CHL1  H12B 3581   4.816   3.056   6.145  0.8977 -0.5366  0.6325
   33CHL1   C11 3582   4.775   2.960   6.335 -0.4523 -0.0805  0.5991
   33CHL1  H11A 3583   4.756   2.853   6.358 -1.6276 -0.3073 -1.2191
   33CHL1  H11B 3584   4.872   2.989   6.380 -0.9287 -2.0968  3.1779
   33CHL1    C9 3585   4.669   3.061   6.385 -0.5007  0.0446 -0.6436
   33CHL1    H9 3586   4.716   3.161   6.380  0.1836 -0.2466 -0.2424
   33CHL1   C10 3587   4.638   3.044   6.543 -0.5588 -0.4185  0.3303
   33CHL1   C19 3588   4.620   2.893   6.582 -0.4587  0.6239  0.0931
   33CHL1  H19A 3589   4.587   2.893   6.688  1.1446  3.4613  0.6946
   33CHL1  H19B 3590   4.539   2.849   6.520  0.4167 -2.5498  1.0149
   33CHL1  H19C 3591   4.721   2.845   6.578 -0.6516  0.1855  0.3519
   33CHL1    C1 3592   4.757   3.107   6.622  0.1050 -0.9948 -0.3981
   33CHL1   H1A 3593   4.839   3.035   6.604  0.3261 -0.8911  0.1574
   33CHL1   H1B 3594   4.772   3.207   6.576 -0.8201 -0.9875 -0.6869
   33CHL1    C2 3595   4.737   3.121   6.782 -0.0884  0.4820  0.3824
   33CHL1   H2A 3596   4.821   3.189   6.810  1.1183 -1.3455  1.4491
   33CHL1   H2B 3597   4.730   3.016   6.819  3.4797 -0.3368 -0.8716
   33CHL1   C20 3598   4.722   2.838   5.879  0.0302  0.7063 -0.1090
   33CHL1   H20 3599   4.762   2.754   5.940 -3.0138 -1.2997 -0.6887
   33CHL1   C21 3600   4.832   2.907   5.786  0.2125  0.5384  1.0408
   33CHL1  H21A 3601   4.777   2.985   5.728  0.6287  0.1681  0.1278
   33CHL1  H21B 3602   4.882   2.840   5.713  0.8269 -0.0364  1.9759
   33CHL1  H21C 3603   4.912   2.952   5.848  0.5476  0.3014  0.7891
   33CHL1   C22 3604   4.624   2.764   5.786  0.4959 -0.2483  0.6488
   33CHL1  H22A 3605   4.550   2.723   5.858  2.4132 -0.1099  2.8250
   33CHL1  H22B 3606   4.572   2.826   5.710  0.6819  1.8868  2.1941
   33CHL1   C23 3607   4.691   2.648   5.703  0.4104 -0.3772 -0.0931
   33CHL1  H23A 3608   4.772   2.694   5.643  2.2410 -2.7434  0.4341
   33CHL1  H23B 3609   4.742   2.573   5.766  0.1455 -0.5074 -0.0329
   33CHL1   C24 3610   4.602   2.586   5.600  0.8439  0.3297 -0.3203
   33CHL1  H24A 3611   4.512   2.543   5.650  0.6700 -0.3701 -1.2234
   33CHL1  H24B 3612   4.544   2.658   5.538  1.7894  2.8063  1.5122
   33CHL1   C25 3613   4.670   2.490   5.511 -0.0659  0.0170 -0.2620
   33CHL1   H25 3614   4.597   2.438   5.445 -0.3463 -0.1872  0.2064
   33CHL1   C26 3615   4.776   2.555   5.420  0.2765  0.4298 -0.4264
   33CHL1  H26A 3616   4.743   2.643   5.360  1.5277 -0.0200 -1.8610
   33CHL1  H26B 3617   4.867   2.589   5.474  0.5144 -0.4840 -0.2422
   33CHL1  H26C 3618   4.805   2.470   5.354 -1.0273 -0.2630 -0.1385
   33CHL1   C27 3619   4.724   2.362   5.590  0.0853  0.1936  0.1947
   33CHL1  H27A 3620   4.783   2.298   5.522 -1.7293 -2.2179  0.7654
   33CHL1  H27B 3621   4.781   2.401   5.677  0.4615  2.1464 -0.8687
   33CHL1  H27C 3622   4.636   2.312   5.635 -0.1739  1.0774  0.6967
   34CHL1    C3 3623   1.350   4.863   6.587 -0.0134 -0.3104 -0.0193
   34CHL1    H3 3624   1.282   4.948   6.606  2.2605  1.5942 -0.0049
   34CHL1    O3 3625   1.416   4.823   6.705  0.2828 -0.2379  0.4439
   34CHL1   H3' 3626   1.347   4.797   6.767 -0.3417 -0.1751 -0.2077
   34CHL1    C4 3627   1.264   4.750   6.525  0.6003  0.3384  0.1527
   34CHL1   H4A 3628   1.327   4.659   6.525 -1.8013 -1.4482  0.5655
   34CHL1   H4B 3629   1.179   4.730   6.595 -0.6733 -0.7386 -1.6170
   34CHL1    C5 3630   1.209   4.779   6.382 -0.2649 -0.1401 -0.1171
   34CHL1    C6 3631   1.077   4.768   6.354  0.4228 -0.8020 -0.1305
   34CHL1    H6 3632   1.009   4.732   6.432 -0.1536  3.8237  1.8496
   34CHL1    C7 3633   1.029   4.786   6.209 -0.0616  0.1676  0.0412
   34CHL1   H7A 3634   0.960   4.701   6.190 -0.7729  0.4096  1.4507
   34CHL1   H7B 3635   0.976   4.881   6.190  1.0765  0.6404 -0.8966
   34CHL1    C8 3636   1.141   4.789   6.112 -0.5957 -0.3264 -0.3187
   34CHL1    H8 3637   1.172   4.686   6.086  0.4886 -0.0836 -0.0477
   34CHL1   C14 3638   1.098   4.855   5.983  0.1776  0.1355 -0.2522
   34CHL1   H14 3639   1.087   4.964   5.998  3.6932  0.8076 -1.6222
   34CHL1   C15 3640   0.967   4.797   5.927 -0.7508 -0.2286  0.0919
   34CHL1  H15A 3641   0.963   4.686   5.934  0.5117 -0.3276 -0.6146
   34CHL1  H15B 3642   0.877   4.832   5.983 -1.2944 -1.3494 -0.0527
   34CHL1   C16 3643   0.971   4.818   5.776  0.3338 -0.1681 -0.7365
   34CHL1  H16A 3644   0.969   4.717   5.729  3.0946 -0.5511 -0.2133
   34CHL1  H16B 3645   0.886   4.877   5.737 -0.0875  0.8851  1.6040
   34CHL1   C17 3646   1.105   4.897   5.755 -0.0967  0.5465 -0.4296
   34CHL1   H17 3647   1.079   5.004   5.762 -0.6985  0.3666  0.2003
   34CHL1   C13 3648   1.204   4.852   5.868 -0.0883  0.2959  0.1455
   34CHL1   C18 3649   1.257   4.706   5.844  0.1454 -0.1426  0.0076
   34CHL1  H18A 3650   1.298   4.654   5.933  1.2117 -0.0974 -0.4410
   34CHL1  H18B 3651   1.173   4.643   5.809  0.7303 -0.4318 -0.9140
   34CHL1  H18C 3652   1.340   4.719   5.771  0.3947 -2.1313 -0.1151
   34CHL1   C12 3653   1.315   4.947   5.914 -0.5658 -0.0536 -0.2025
   34CHL1  H12A 3654   1.394   4.973   5.841  0.2776  0.5168  0.8952
   34CHL1  H12B 3655   1.271   5.048   5.928  0.9113  1.0489 -2.7351
   34CHL1   C11 3656   1.382   4.897   6.044  0.1709 -0.1609 -0.1573
   34CHL1  H11A 3657   1.425   4.797   6.021 -1.5273 -0.8452 -0.4633
   34CHL1  H11B 3658   1.445   4.978   6.088  1.4794 -2.4026  2.3525
   34CHL1    C9 3659   1.269   4.866   6.157 -0.3088 -0.0417  0.4267
   34CHL1    H9 3660   1.231   4.968   6.175 -1.0247 -0.4738  1.4490
   34CHL1   C10 3661   1.323   4.817   6.287 -0.2111 -0.5305 -0.4613
   34CHL1   C19 3662   1.402   4.683   6.270  0.1490  0.3071 -0.0307
   34CHL1  H19A 3663   1.493   4.692   6.207  0.4598 -0.1419  0.3447
   34CHL1  H19B 3664   1.457   4.648   6.360  0.3458  0.6250 -0.0256
   34CHL1  H19C 3665   1.340   4.600   6.230 -0.9389 -0.0324  2.2048
   34CHL1    C1 3666   1.415   4.926   6.344 -0.7199  0.3095 -0.5518
   34CHL1   H1A 3667   1.512   4.925   6.291 -0.5709 -1.2490 -0.3092
   34CHL1   H1B 3668   1.365   5.025   6.337  0.9650  1.1095 -1.7625
   34CHL1    C2 3669   1.462   4.907   6.494  0.5618  0.0762  0.0060
   34CHL1   H2A 3670   1.513   5.000   6.526  1.5427 -0.2102 -0.6635
   34CHL1   H2B 3671   1.540   4.827   6.499  0.9200  0.5118  2.0698
   34CHL1   C20 3672   1.161   4.868   5.611 -0.0813 -0.0780 -0.6012
   34CHL1   H20 3673   1.177   4.760   5.594 -1.9444 -0.6127  0.6757
   34CHL1   C21 3674   1.296   4.939   5.596 -0.1138  0.0929 -0.0271
   34CHL1  H21A 3675   1.335   4.934   5.492  0.8683  2.2986  0.1630
   34CHL1  H21B 3676   1.378   4.892   5.655 -1.5903 -1.4818  0.8568
   34CHL1  H21C 3677   1.284   5.049   5.605  2.0198  0.5332 -1.6162
   34CHL1   C22 3678   1.060   4.926   5.509 -0.3102  0.4955  0.8569
   34CHL1  H22A 3679   0.955   4.895   5.526 -1.1450  1.3904 -1.9680
   34CHL1  H22B 3680   1.048   5.035   5.527 -0.2388  0.2993  2.1691
   34CHL1   C23 3681   1.105   4.911   5.367  0.4972  0.5695 -0.1517
   34CHL1  H23A 3682   1.191   4.979   5.352  1.8084 -1.2956 -1.7008
   34CHL1  H23B 3683   1.144   4.808   5.352  1.3405  0.8735 -0.0768
   34CHL1   C24 3684   1.000   4.941   5.256  0.3312  0.0856 -0.3569
   34CHL1  H24A 3685   0.933   4.854   5.268  0.1466  0.2157 -0.4398
   34CHL1  H24B 3686   0.943   5.032   5.287 -2.5365 -1.9218  0.6662
   34CHL1   C25 3687   1.055   4.950   5.111  0.2946 -0.0593 -0.7367
   34CHL1   H25 3688   0.961   4.967   5.054 -1.6105 -0.6984  1.9880
   34CHL1   C26 3689   1.154   5.066   5.095 -0.5243 -0.5743 -0.5902
   34CHL1  H26A 3690   1.251   5.047   5.145  1.4205 -0.9079 -4.1389
   34CHL1  H26B 3691   1.171   5.102   4.991  3.6789  0.3950  0.2467
   34CHL1  H26C 3692   1.103   5.152   5.144  0.4704 -0.9125  1.1252
   34CHL1   C27 3693   1.114   4.820   5.052 -0.6210 -0.0296  0.1048
   34CHL1  H27A 3694   1.038   4.743   5.076 -1.3943  1.0656  1.2449
   34CHL1  H27B 3695   1.114   4.825   4.941  1.2739  0.0986  0.0785
   34CHL1  H27C 3696   1.216   4.795   5.090  0.8320 -1.0238 -3.9150
   35CHL1    C3 3697   3.439   0.985   6.926 -0.1136 -0.3573 -0.3784
   35CHL1    H3 3698   3.481   1.085   6.902  1.7027 -0.8900  0.4296
   35CHL1    O3 3699   3.428   0.985   7.065 -0.2108 -0.4470  0.1142
   35CHL1   H3' 3700   3.380   0.903   7.079 -1.7770  0.3013 -0.6530
   35CHL1    C4 3701   3.300   0.975   6.861  0.6967  0.5987 -0.3609
   35CHL1   H4A 3702   3.239   0.897   6.910  1.4918 -0.5651 -1.1891
   35CHL1   H4B 3703   3.255   1.068   6.903 -1.3317 -0.3443 -0.2956
   35CHL1    C5 3704   3.305   0.967   6.710 -0.0101  0.3980 -0.2179
   35CHL1    C6 3705   3.235   1.051   6.633  0.2720  0.6119 -0.6859
   35CHL1    H6 3706   3.179   1.135   6.678 -1.1051 -0.4774 -0.2708
   35CHL1    C7 3707   3.230   1.050   6.483 -0.1216  0.1737  0.1770
   35CHL1   H7A 3708   3.131   1.072   6.438 -0.3760  2.0619  1.5665
   35CHL1   H7B 3709   3.292   1.136   6.450  2.4673 -1.2666  0.9895
   35CHL1    C8 3710   3.294   0.924   6.423  1.0189  0.7518  0.3767
   35CHL1    H8 3711   3.219   0.844   6.441  1.3992  0.3905  0.3856
   35CHL1   C14 3712   3.324   0.939   6.282 -0.2000 -0.6523 -0.2393
   35CHL1   H14 3713   3.389   1.029   6.274  0.2382 -0.9774 -0.3912
   35CHL1   C15 3714   3.203   0.989   6.197  0.5900  0.3773  0.1904
   35CHL1  H15A 3715   3.112   0.942   6.239  0.6680  0.7424  0.7685
   35CHL1  H15B 3716   3.200   1.100   6.201  4.3027  0.6422 -0.5682
   35CHL1   C16 3717   3.245   0.953   6.049  0.1841 -0.0885 -0.1712
   35CHL1  H16A 3718   3.181   0.873   6.004 -1.1355 -0.1022  1.6351
   35CHL1  H16B 3719   3.260   1.038   5.980 -0.5140  1.1183  1.1175
   35CHL1   C17 3720   3.385   0.872   6.072  0.2561 -0.5777  0.0153
   35CHL1   H17 3721   3.466   0.946   6.087 -0.7342  0.0578  3.0981
   35CHL1   C13 3722   3.382   0.820   6.218  0.4723 -0.0760  0.7027
   35CHL1   C18 3723   3.284   0.704   6.216 -0.3609  0.6085 -0.1898
   35CHL1  H18A 3724   3.193   0.731   6.157 -0.1801  1.7122  0.0044
   35CHL1  H18B 3725   3.336   0.619   6.169 -0.4340  0.9980 -1.0050
   35CHL1  H18C 3726   3.266   0.673   6.321  3.3884 -0.6866  0.1969
   35CHL1   C12 3727   3.509   0.777   6.282 -0.1491 -1.1970  0.1483
   35CHL1  H12A 3728   3.556   0.684   6.243  2.1643  0.3724 -0.9970
   35CHL1  H12B 3729   3.584   0.857   6.265 -2.4604  0.8307 -1.1325
   35CHL1   C11 3730   3.492   0.761   6.434 -0.4621  0.0514  0.2840
   35CHL1  H11A 3731   3.427   0.672   6.452 -0.7136  0.1027 -0.3577
   35CHL1  H11B 3732   3.595   0.742   6.472 -0.5330 -1.1988 -0.0987
   35CHL1    C9 3733   3.422   0.882   6.497  0.6739  0.2870 -0.0077
   35CHL1    H9 3734   3.488   0.971   6.492  0.7585  0.3788  1.8560
   35CHL1   C10 3735   3.399   0.862   6.652 -0.0492  0.6716  0.0882
   35CHL1   C19 3736   3.331   0.720   6.676  0.1264 -0.3650 -0.7555
   35CHL1  H19A 3737   3.295   0.703   6.780 -0.1324  0.3786 -0.7197
   35CHL1  H19B 3738   3.237   0.708   6.617  0.3122 -2.2043 -0.7533
   35CHL1  H19C 3739   3.397   0.636   6.644 -1.5310 -2.5193  1.1399
   35CHL1    C1 3740   3.538   0.867   6.721 -0.8552  0.4910 -0.8207
   35CHL1   H1A 3741   3.591   0.772   6.695 -2.1699 -0.8747  1.2634
   35CHL1   H1B 3742   3.589   0.960   6.688 -0.1075  0.2572 -0.3526
   35CHL1    C2 3743   3.529   0.879   6.874  0.2300 -0.7111 -0.2152
   35CHL1   H2A 3744   3.626   0.909   6.919  0.5252  0.7834 -1.7432
   35CHL1   H2B 3745   3.504   0.780   6.917  1.5882 -0.1979  1.9028
   35CHL1   C20 3746   3.438   0.776   5.964  0.4289 -0.1856  0.5347
   35CHL1   H20 3747   3.501   0.694   6.003  0.6446 -1.7695 -2.7888
   35CHL1   C21 3748   3.530   0.869   5.879 -0.2371 -0.5783  0.4624
   35CHL1  H21A 3749   3.470   0.947   5.828  1.3125 -0.4816 -1.3803
   35CHL1  H21B 3750   3.595   0.833   5.796 -0.0842 -0.7246  0.6431
   35CHL1  H21C 3751   3.613   0.904   5.943 -0.6109  0.0815  0.5882
   35CHL1   C22 3752   3.334   0.719   5.869 -0.9970 -0.0239  0.1177
   35CHL1  H22A 3753   3.265   0.667   5.938  0.4665 -2.6514 -0.2611
   35CHL1  H22B 3754   3.284   0.806   5.821  1.3458  0.9060 -0.7672
   35CHL1   C23 3755   3.392   0.609   5.778  0.1460  0.3460  0.7078
   35CHL1  H23A 3756   3.490   0.626   5.728  0.3315 -3.6758 -0.6548
   35CHL1  H23B 3757   3.403   0.519   5.842  1.6054  1.4461  2.0818
   35CHL1   C24 3758   3.298   0.577   5.668  0.1586 -0.3881  0.7656
   35CHL1  H24A 3759   3.196   0.578   5.711 -0.0108  3.6310  0.6458
   35CHL1  H24B 3760   3.302   0.652   5.586 -2.6008 -1.0944 -0.0989
   35CHL1   C25 3761   3.332   0.441   5.595  0.4393  0.0025  0.1973
   35CHL1   H25 3762   3.440   0.429   5.573  0.0504  0.2818 -2.0853
   35CHL1   C26 3763   3.281   0.326   5.685  0.3639 -0.2420 -0.6590
   35CHL1  H26A 3764   3.172   0.303   5.682 -0.2662  2.2298  0.5406
   35CHL1  H26B 3765   3.333   0.234   5.652 -0.0367  0.0150 -2.0731
   35CHL1  H26C 3766   3.316   0.342   5.789 -2.0084  2.2955 -0.1107
   35CHL1   C27 3767   3.272   0.433   5.450 -0.2012  0.4686 -0.2839
   35CHL1  H27A 3768   3.291   0.327   5.425  0.5890  0.1646  1.4451
   35CHL1  H27B 3769   3.163   0.449   5.444 -0.5585 -1.2655  0.7752
   35CHL1  H27C 3770   3.324   0.507   5.386  1.0136 -1.1352 -1.2173
   36CHL1    C3 3771   4.372   3.863   6.737  0.7078 -0.1141 -0.8413
   36CHL1    H3 3772   4.350   3.960   6.687 -2.9107 -1.0916 -1.3853
   36CHL1    O3 3773   4.381   3.897   6.880 -0.0044 -0.5760 -0.2954
   36CHL1   H3' 3774   4.406   3.814   6.920 -0.3183 -0.4082  0.2648
   36CHL1    C4 3775   4.259   3.764   6.708  0.1817  0.6249 -0.1390
   36CHL1   H4A 3776   4.291   3.669   6.756 -1.0173  0.8865  1.2596
   36CHL1   H4B 3777   4.166   3.792   6.763  0.2189  0.0703  0.2179
   36CHL1    C5 3778   4.237   3.742   6.560 -0.0373  0.0433  0.6096
   36CHL1    C6 3779   4.126   3.785   6.495 -0.1897  0.0415  0.0771
   36CHL1    H6 3780   4.041   3.829   6.550 -1.1086 -0.8800 -0.5712
   36CHL1    C7 3781   4.106   3.764   6.345  0.3236  0.3367 -0.3948
   36CHL1   H7A 3782   4.001   3.736   6.320  1.2370 -2.1502 -1.9167
   36CHL1   H7B 3783   4.120   3.863   6.297  2.0610  1.3734  2.0340
   36CHL1    C8 3784   4.213   3.660   6.282  0.0870 -0.5449  0.1799
   36CHL1    H8 3785   4.188   3.555   6.307 -0.7092 -0.5329 -0.5354
   36CHL1   C14 3786   4.204   3.665   6.126 -0.0833 -0.3325  0.4308
   36CHL1   H14 3787   4.232   3.771   6.108  3.4924 -1.5541 -2.0824
   36CHL1   C15 3788   4.064   3.635   6.061 -0.1937  0.4180  0.2034
   36CHL1  H15A 3789   4.019   3.556   6.124 -1.1701  0.7946  0.0031
   36CHL1  H15B 3790   3.997   3.724   6.059  0.5790  1.1605 -4.5880
   36CHL1   C16 3791   4.098   3.597   5.916  0.5565  0.7639  0.6532
   36CHL1  H16A 3792   4.068   3.490   5.906 -2.3158  1.3673  1.9182
   36CHL1  H16B 3793   4.053   3.655   5.833 -0.1167 -0.2966  0.2521
   36CHL1   C17 3794   4.254   3.607   5.908  0.5524 -0.3177 -0.1660
   36CHL1   H17 3795   4.282   3.712   5.885 -0.6825  0.4067  1.3848
   36CHL1   C13 3796   4.306   3.581   6.058  0.4875 -0.1763  0.2571
   36CHL1   C18 3797   4.289   3.433   6.091 -0.3854  0.3636 -0.3928
   36CHL1  H18A 3798   4.186   3.392   6.096 -0.5416  0.6488 -1.1066
   36CHL1  H18B 3799   4.352   3.357   6.039  0.6524  1.8271 -1.3394
   36CHL1  H18C 3800   4.318   3.424   6.198  0.6843  1.0215 -0.6154
   36CHL1   C12 3801   4.439   3.643   6.091 -0.1816  0.4744  0.1270
   36CHL1  H12A 3802   4.515   3.581   6.039  1.9568  2.7640  0.2928
   36CHL1  H12B 3803   4.461   3.746   6.055  0.9661  0.4559  0.7150
   36CHL1   C11 3804   4.466   3.642   6.243  0.6328  0.0145 -0.0846
   36CHL1  H11A 3805   4.494   3.539   6.277  3.5792  1.1693  1.3630
   36CHL1  H11B 3806   4.557   3.704   6.260  0.5328 -0.1211  1.0761
   36CHL1    C9 3807   4.355   3.700   6.333  0.6194 -0.0533  0.0147
   36CHL1    H9 3808   4.361   3.809   6.311 -2.0026  0.1275 -0.0973
   36CHL1   C10 3809   4.370   3.693   6.487  0.4143  0.0792 -0.3300
   36CHL1   C19 3810   4.382   3.546   6.529  0.3962 -1.1589 -0.5289
   36CHL1  H19A 3811   4.381   3.544   6.640  0.1760  1.4075 -0.4190
   36CHL1  H19B 3812   4.297   3.483   6.494 -0.1619 -0.3401 -0.6939
   36CHL1  H19C 3813   4.472   3.497   6.486  0.4865 -1.8226  0.3866
   36CHL1    C1 3814   4.505   3.765   6.541  0.9965  0.4031 -0.1391
   36CHL1   H1A 3815   4.591   3.696   6.531 -0.2082 -1.7408  2.8891
   36CHL1   H1B 3816   4.525   3.858   6.483  0.5302  1.1470  0.8533
   36CHL1    C2 3817   4.503   3.803   6.687  0.3665  0.6122  0.7270
   36CHL1   H2A 3818   4.583   3.876   6.710  0.4609  0.9205 -0.5239
   36CHL1   H2B 3819   4.516   3.709   6.745 -0.9461 -0.8323 -1.1587
   36CHL1   C20 3820   4.309   3.513   5.794 -0.1792 -0.3057 -0.8561
   36CHL1   H20 3821   4.268   3.410   5.803 -1.9686  0.2590 -1.9331
   36CHL1   C21 3822   4.455   3.527   5.785 -0.1430  0.1697 -0.4510
   36CHL1  H21A 3823   4.486   3.634   5.783  2.6488 -0.5569 -1.0808
   36CHL1  H21B 3824   4.504   3.488   5.693  0.0407 -0.5927 -0.0431
   36CHL1  H21C 3825   4.501   3.477   5.874 -1.0947  1.0456  0.5629
   36CHL1   C22 3826   4.249   3.560   5.650  0.3077  0.8082 -0.0288
   36CHL1  H22A 3827   4.305   3.500   5.576  0.8248  1.5981 -0.2856
   36CHL1  H22B 3828   4.151   3.510   5.636  1.0590 -1.2498  1.5223
   36CHL1   C23 3829   4.233   3.708   5.618 -0.8566 -0.1470  0.1881
   36CHL1  H23A 3830   4.173   3.765   5.692  0.4954  0.7398  0.6470
   36CHL1  H23B 3831   4.333   3.756   5.628 -0.3609 -1.1093 -0.0773
   36CHL1   C24 3832   4.166   3.729   5.482  0.7047 -0.5115  0.1580
   36CHL1  H24A 3833   4.057   3.707   5.482  0.8107 -1.1102  1.0216
   36CHL1  H24B 3834   4.162   3.838   5.459 -1.7729 -0.4585  0.5476
   36CHL1   C25 3835   4.240   3.664   5.368  0.0941  0.6783  0.7483
   36CHL1   H25 3836   4.221   3.554   5.366  1.2694  0.4680 -0.1188
   36CHL1   C26 3837   4.170   3.718   5.241 -0.1348  0.3349 -0.4650
   36CHL1  H26A 3838   4.197   3.657   5.152  1.1312 -0.7351  0.6074
   36CHL1  H26B 3839   4.059   3.714   5.239 -0.1323  0.4673 -1.6483
   36CHL1  H26C 3840   4.200   3.824   5.226 -3.6847  1.7298  1.0875
   36CHL1   C27 3841   4.392   3.665   5.362  0.7976  0.2201 -0.5138
   36CHL1  H27A 3842   4.436   3.640   5.263 -0.8397 -1.7061 -0.8233
   36CHL1  H27B 3843   4.415   3.770   5.391 -6.1385  1.8109  1.3132
   36CHL1  H27C 3844   4.436   3.595   5.436  0.2455 -0.2243 -0.5912
   37CHL1    C3 3845   4.818   6.333   6.595 -0.4395  0.3527  0.0706
   37CHL1    H3 3846   4.886   6.418   6.574  0.9661 -1.0406 -1.2372
   37CHL1    O3 3847   4.802   6.335   6.740  0.0895  0.0995 -0.0824
   37CHL1   H3' 3848   4.777   6.244   6.760  1.6477 -0.7346 -1.6412
   37CHL1    C4 3849   4.685   6.349   6.532 -0.7809  0.2017  0.0164
   37CHL1   H4A 3850   4.612   6.267   6.547 -1.2003  0.8772  2.0506
   37CHL1   H4B 3851   4.634   6.435   6.580  0.8293 -0.3988  3.0738
   37CHL1    C5 3852   4.700   6.346   6.380 -0.7493 -0.0764  0.7306
   37CHL1    C6 3853   4.655   6.449   6.301  0.2464  0.1010  0.1971
   37CHL1    H6 3854   4.622   6.541   6.352  1.1743  0.7382 -0.3224
   37CHL1    C7 3855   4.658   6.451   6.148 -0.0759  0.0672 -0.6830
   37CHL1   H7A 3856   4.569   6.505   6.110 -0.6684  0.1700  0.7910
   37CHL1   H7B 3857   4.752   6.506   6.127  0.4150  1.1405  3.4149
   37CHL1    C8 3858   4.687   6.307   6.092  0.0081  0.7687  0.3685
   37CHL1    H8 3859   4.598   6.242   6.104  0.3094 -0.0549 -1.5676
   37CHL1   C14 3860   4.711   6.316   5.945  0.0661 -0.0704  0.8966
   37CHL1   H14 3861   4.788   6.395   5.929 -0.1848  0.3277  1.6138
   37CHL1   C15 3862   4.586   6.362   5.853 -0.2949  0.0962 -1.1912
   37CHL1  H15A 3863   4.491   6.310   5.880 -0.5345  1.2470  0.3149
   37CHL1  H15B 3864   4.564   6.470   5.868  0.3154 -0.0291  0.8962
   37CHL1   C16 3865   4.630   6.319   5.719 -0.8809  0.2122  0.2419
   37CHL1  H16A 3866   4.543   6.269   5.674  0.0552  0.3383 -1.8220
   37CHL1  H16B 3867   4.651   6.405   5.651  1.2152 -0.9195 -0.6242
   37CHL1   C17 3868   4.747   6.211   5.736 -0.7690 -0.1105  0.8405
   37CHL1   H17 3869   4.837   6.272   5.711 -1.5834  0.9300  0.3722
   37CHL1   C13 3870   4.755   6.179   5.883 -0.7852  0.2698  0.2496
   37CHL1   C18 3871   4.657   6.064   5.905  1.4373 -0.4339  0.2804
   37CHL1  H18A 3872   4.644   6.050   6.014  0.1133 -1.8690 -0.0203
   37CHL1  H18B 3873   4.557   6.096   5.867  0.7857 -1.2347  1.2791
   37CHL1  H18C 3874   4.678   5.963   5.864 -0.8020 -0.8253 -0.0412
   37CHL1   C12 3875   4.894   6.146   5.940 -1.1811 -0.3423  0.1804
   37CHL1  H12A 3876   4.936   6.058   5.887  1.8828  2.1165 -1.8564
   37CHL1  H12B 3877   4.957   6.235   5.916 -0.2837 -0.9390  0.2761
   37CHL1   C11 3878   4.877   6.127   6.092  0.0067 -0.5580 -0.2217
   37CHL1  H11A 3879   4.814   6.035   6.102 -0.4823 -0.3062 -0.8822
   37CHL1  H11B 3880   4.973   6.101   6.141  0.5178 -0.6916 -1.2709
   37CHL1    C9 3881   4.808   6.245   6.167 -0.0234 -0.1560  0.0323
   37CHL1    H9 3882   4.890   6.321   6.168 -1.8741  1.9460  0.3055
   37CHL1   C10 3883   4.772   6.218   6.319 -0.0840 -0.1049 -0.0780
   37CHL1   C19 3884   4.674   6.096   6.340 -0.6323  0.3313  0.2149
   37CHL1  H19A 3885   4.731   6.003   6.318  2.4556  1.9676  0.7841
   37CHL1  H19B 3886   4.641   6.086   6.446  0.7326 -0.9467  0.5519
   37CHL1  H19C 3887   4.581   6.106   6.279 -1.5427 -0.1887  1.4647
   37CHL1    C1 3888   4.903   6.199   6.398 -0.1812  0.9824  0.6638
   37CHL1   H1A 3889   4.938   6.099   6.367 -0.2434 -0.2230  4.0322
   37CHL1   H1B 3890   4.980   6.266   6.355 -1.0351  0.7829 -1.2437
   37CHL1    C2 3891   4.891   6.203   6.554 -0.3206  0.3141  0.9698
   37CHL1   H2A 3892   4.996   6.204   6.590 -0.4378  1.2337  1.3179
   37CHL1   H2B 3893   4.827   6.120   6.590 -0.0614 -1.3014 -1.9375
   37CHL1   C20 3894   4.739   6.099   5.627  0.6110 -0.6859  0.8910
   37CHL1   H20 3895   4.651   6.039   5.656 -1.9299  2.5138  0.3493
   37CHL1   C21 3896   4.867   6.019   5.620 -0.1140  0.1891  0.0421
   37CHL1  H21A 3897   4.955   6.083   5.596  0.5124 -1.2969 -1.8401
   37CHL1  H21B 3898   4.872   5.942   5.541  0.7627  0.6203 -0.3419
   37CHL1  H21C 3899   4.888   5.970   5.718 -2.1146  1.6913  1.3108
   37CHL1   C22 3900   4.695   6.155   5.484 -0.3712  0.1492  0.6409
   37CHL1  H22A 3901   4.593   6.191   5.507  0.9600  2.2496  4.1316
   37CHL1  H22B 3902   4.759   6.238   5.447 -0.6958  0.2217  0.2436
   37CHL1   C23 3903   4.691   6.056   5.365  0.6290 -0.2570  0.3354
   37CHL1  H23A 3904   4.797   6.027   5.348  1.0847  2.1953 -1.5421
   37CHL1  H23B 3905   4.632   5.970   5.404  0.9071 -0.6470 -0.0879
   37CHL1   C24 3906   4.629   6.128   5.243  0.5638 -0.1538 -0.3122
   37CHL1  H24A 3907   4.541   6.188   5.272  0.0098 -0.7106 -0.8256
   37CHL1  H24B 3908   4.703   6.197   5.195  0.7231 -0.2658 -0.2290
   37CHL1   C25 3909   4.575   6.028   5.135  0.2792 -0.4067 -0.2107
   37CHL1   H25 3910   4.565   6.096   5.048  3.1806 -0.9177 -1.0655
   37CHL1   C26 3911   4.678   5.921   5.093  0.0329  0.1816 -0.0219
   37CHL1  H26A 3912   4.700   5.858   5.182  3.5063  2.7095  1.1547
   37CHL1  H26B 3913   4.638   5.858   5.011 -0.3379  0.1263  0.1986
   37CHL1  H26C 3914   4.778   5.966   5.076  1.5486 -2.1963  1.9110
   37CHL1   C27 3915   4.442   5.969   5.177 -0.1114  0.5609 -0.3818
   37CHL1  H27A 3916   4.368   6.048   5.204 -0.1247  0.2856  0.4254
   37CHL1  H27B 3917   4.405   5.902   5.097 -2.3056  2.0921 -0.7490
   37CHL1  H27C 3918   4.464   5.903   5.263  1.9645 -0.4749 -1.6415
   38CHL1    C3 3919   1.112   2.506   6.635 -0.8575 -0.3422  0.1428
   38CHL1    H3 3920   1.043   2.585   6.598 -3.0315 -1.8046  0.8906
   38CHL1    O3 3921   1.112   2.514   6.776 -0.0218  0.3278 -0.2371
   38CHL1   H3' 3922   1.180   2.456   6.811 -0.3966  1.4946  2.7904
   38CHL1    C4 3923   1.060   2.371   6.585 -0.0308  0.2638  0.1303
   38CHL1   H4A 3924   1.123   2.289   6.624  0.4007  1.5361  2.2645
   38CHL1   H4B 3925   0.961   2.354   6.631  0.6886 -3.4763  0.6179
   38CHL1    C5 3926   1.062   2.367   6.431 -0.1602 -0.6517 -0.3413
   38CHL1    C6 3927   0.955   2.345   6.359 -0.2626  0.0984  0.1430
   38CHL1    H6 3928   0.867   2.324   6.423  1.5236 -0.5126  2.5378
   38CHL1    C7 3929   0.943   2.335   6.209 -0.1200 -0.6883 -0.7262
   38CHL1   H7A 3930   0.882   2.248   6.175 -0.4504  0.3885 -3.1090
   38CHL1   H7B 3931   0.893   2.426   6.170  1.0259  1.6396  2.8299
   38CHL1    C8 3932   1.083   2.326   6.140 -0.6010 -0.6135  0.6632
   38CHL1    H8 3933   1.143   2.232   6.147  1.4800  0.5407 -0.6478
   38CHL1   C14 3934   1.070   2.351   5.991 -0.1779 -0.4069  0.0455
   38CHL1   H14 3935   1.026   2.453   5.979  3.3371  1.6339  2.5088
   38CHL1   C15 3936   0.986   2.255   5.909 -0.7608  0.0957 -0.2730
   38CHL1  H15A 3937   1.029   2.155   5.932 -1.9146 -0.5091 -0.6694
   38CHL1  H15B 3938   0.877   2.262   5.931 -1.2178  0.9195 -2.5556
   38CHL1   C16 3939   1.020   2.293   5.766 -0.3904  0.3023 -0.0718
   38CHL1  H16A 3940   1.054   2.207   5.704 -1.7423 -0.8551  0.7286
   38CHL1  H16B 3941   0.939   2.337   5.706  0.5545 -1.3771 -2.7683
   38CHL1   C17 3942   1.134   2.397   5.767 -0.6816  0.9552  0.0169
   38CHL1   H17 3943   1.096   2.502   5.774 -0.0158  1.1754  0.4079
   38CHL1   C13 3944   1.198   2.372   5.905  0.4991  0.3332  0.2396
   38CHL1   C18 3945   1.279   2.240   5.899  0.7726  0.5849 -0.1103
   38CHL1  H18A 3946   1.227   2.152   5.854 -0.8459  1.4251  0.0550
   38CHL1  H18B 3947   1.372   2.250   5.839  1.5051 -0.7192  0.7514
   38CHL1  H18C 3948   1.330   2.222   5.996 -1.7823  0.7630  1.3489
   38CHL1   C12 3949   1.279   2.484   5.969 -0.7819  0.1212  0.5614
   38CHL1  H12A 3950   1.372   2.497   5.910 -1.0204  2.7326  0.6123
   38CHL1  H12B 3951   1.220   2.578   5.954 -0.8933  0.0113  0.3084
   38CHL1   C11 3952   1.311   2.447   6.125 -0.0489 -0.2801 -0.3553
   38CHL1  H11A 3953   1.382   2.363   6.119  0.4387  0.2193 -2.4949
   38CHL1  H11B 3954   1.378   2.531   6.153 -0.9510  0.3378 -0.0045
   38CHL1    C9 3955   1.177   2.430   6.202 -0.1280 -0.6202  0.0527
   38CHL1    H9 3956   1.118   2.523   6.185  1.1254  0.4366  1.2096
   38CHL1   C10 3957   1.193   2.410   6.358  0.4240 -0.1070  0.4222
   38CHL1   C19 3958   1.299   2.298   6.384  0.0553  0.0490 -0.3522
   38CHL1  H19A 3959   1.395   2.333   6.340  1.4751 -0.7094  1.9455
   38CHL1  H19B 3960   1.334   2.285   6.488  0.0658  0.8745 -0.2483
   38CHL1  H19C 3961   1.267   2.200   6.343  1.0003 -0.0343 -0.9186
   38CHL1    C1 3962   1.249   2.534   6.423 -0.4338 -0.6225  0.0444
   38CHL1   H1A 3963   1.356   2.536   6.394 -0.1205 -0.9917  1.1125
   38CHL1   H1B 3964   1.195   2.628   6.400  0.5926  0.1473  0.7042
   38CHL1    C2 3965   1.251   2.529   6.580 -0.6592  0.1135  0.4056
   38CHL1   H2A 3966   1.280   2.632   6.611 -0.9071  0.0370  0.9053
   38CHL1   H2B 3967   1.322   2.453   6.618 -0.3851 -0.5570 -1.3412
   38CHL1   C20 3968   1.226   2.390   5.644  0.0827  0.0196 -0.0299
   38CHL1   H20 3969   1.295   2.304   5.652  0.2546 -0.3540 -3.7298
   38CHL1   C21 3970   1.315   2.516   5.625 -1.0103 -0.6710  0.0805
   38CHL1  H21A 3971   1.383   2.492   5.541 -2.7189  0.5464 -1.7393
   38CHL1  H21B 3972   1.376   2.546   5.713 -1.4554 -0.9301  0.4860
   38CHL1  H21C 3973   1.250   2.597   5.586  0.9336  1.1472  0.4552
   38CHL1   C22 3974   1.138   2.378   5.513 -0.3011 -0.8748 -0.3964
   38CHL1  H22A 3975   1.101   2.274   5.523  0.8016 -1.0619  3.1035
   38CHL1  H22B 3976   1.053   2.450   5.522  0.4066  0.0908 -1.2124
   38CHL1   C23 3977   1.207   2.390   5.376  0.1612  1.3358  0.2626
   38CHL1  H23A 3978   1.216   2.498   5.350  0.3953  1.1573 -0.4013
   38CHL1  H23B 3979   1.310   2.350   5.380  0.4101  1.8416 -0.8312
   38CHL1   C24 3980   1.117   2.322   5.275  0.6237  0.1599 -0.6929
   38CHL1  H24A 3981   1.129   2.211   5.278 -0.8144  0.0123  0.5429
   38CHL1  H24B 3982   1.009   2.343   5.283  1.1286  2.9090 -0.1336
   38CHL1   C25 3983   1.160   2.355   5.127  0.5285  0.3103 -0.6766
   38CHL1   H25 3984   1.139   2.463   5.116 -0.6196  0.2285  0.4188
   38CHL1   C26 3985   1.307   2.345   5.097 -0.3125 -0.0467 -0.8176
   38CHL1  H26A 3986   1.361   2.412   5.166  1.4071 -0.4252 -1.7505
   38CHL1  H26B 3987   1.341   2.241   5.114 -1.0665 -0.0288  1.0304
   38CHL1  H26C 3988   1.335   2.366   4.991  0.7440  0.0588 -0.5191
   38CHL1   C27 3989   1.080   2.265   5.028 -0.0266  0.2909  0.3704
   38CHL1  H27A 3990   1.124   2.272   4.926  0.2441 -0.7186  0.4060
   38CHL1  H27B 3991   1.109   2.158   5.035 -3.1387 -0.6504  0.4417
   38CHL1  H27C 3992   0.971   2.289   5.019 -0.3307 -1.4000 -0.8184
   39CHL1    C3 3993   4.083   0.862   6.932 -1.0832 -0.2442  0.5998
   39CHL1    H3 3994   4.161   0.784   6.925 -0.6226 -0.0613  2.8968
   39CHL1    O3 3995   4.079   0.925   7.055  0.5509 -0.2220  0.6182
   39CHL1   H3' 3996   4.126   1.007   7.044  0.4665 -0.2309  0.1783
   39CHL1    C4 3997   4.135   0.975   6.830  0.7566 -0.3977 -0.2307
   39CHL1   H4A 3998   4.063   1.056   6.853  0.8652 -0.6546  1.1340
   39CHL1   H4B 3999   4.229   1.012   6.876  1.4962 -2.3731 -0.0580
   39CHL1    C5 4000   4.145   0.943   6.686  0.0408  0.1663 -0.3984
   39CHL1    C6 4001   4.251   0.967   6.609 -0.6395  0.8795  0.6125
   39CHL1    H6 4002   4.338   1.016   6.655 -0.9122 -0.7444  3.0486
   39CHL1    C7 4003   4.267   0.940   6.465 -0.9963 -0.4789  0.1506
   39CHL1   H7A 4004   4.302   1.029   6.408  1.8770 -1.9630 -0.5736
   39CHL1   H7B 4005   4.344   0.862   6.448  0.3495  0.8570 -0.1189
   39CHL1    C8 4006   4.129   0.903   6.401 -0.2705 -0.4401 -0.4692
   39CHL1    H8 4007   4.064   0.992   6.385  0.7092 -0.0349 -2.4887
   39CHL1   C14 4008   4.142   0.834   6.259 -0.6762  0.1858  0.0168
   39CHL1   H14 4009   4.217   0.754   6.278  0.5478  1.7967  2.4595
   39CHL1   C15 4010   4.207   0.919   6.144  0.9698 -0.9124 -0.3030
   39CHL1  H15A 4011   4.169   1.023   6.155 -0.5332 -1.3711 -0.8548
   39CHL1  H15B 4012   4.315   0.921   6.168  0.5660 -0.6616  1.7147
   39CHL1   C16 4013   4.169   0.844   6.016 -0.0997 -0.4600  0.0724
   39CHL1  H16A 4014   4.110   0.912   5.951  0.7536  1.3754  1.1132
   39CHL1  H16B 4015   4.263   0.822   5.961 -0.9739 -3.3543 -0.4218
   39CHL1   C17 4016   4.068   0.735   6.058 -0.2244  0.2953 -0.2922
   39CHL1   H17 4017   4.139   0.653   6.085  0.1608  1.3750  2.3026
   39CHL1   C13 4018   4.013   0.784   6.194 -0.5043 -0.2261 -0.3888
   39CHL1   C18 4019   3.902   0.889   6.167  0.0869  0.5936  0.1242
   39CHL1  H18A 4020   3.895   0.960   6.252 -1.7157  1.4193 -0.6414
   39CHL1  H18B 4021   3.917   0.951   6.076  0.6837  2.2729  1.3176
   39CHL1  H18C 4022   3.805   0.836   6.154 -0.2635  1.3795 -0.5933
   39CHL1   C12 4023   3.957   0.675   6.282 -0.1071 -0.5342  0.3579
   39CHL1  H12A 4024   3.869   0.618   6.245  0.4624 -0.9282 -0.4285
   39CHL1  H12B 4025   4.036   0.598   6.296  1.5702  1.1998  0.9677
   39CHL1   C11 4026   3.936   0.731   6.425 -0.3700 -0.5685 -0.0074
   39CHL1  H11A 4027   3.853   0.805   6.422  1.9356  2.1701 -0.5921
   39CHL1  H11B 4028   3.918   0.641   6.487 -0.8667 -1.1037 -0.9063
   39CHL1    C9 4029   4.056   0.805   6.495 -0.2761 -0.2415 -0.4905
   39CHL1    H9 4030   4.127   0.724   6.521  0.1568  0.7121  1.4916
   39CHL1   C10 4031   4.020   0.867   6.629  1.1848  0.5031  0.0117
   39CHL1   C19 4032   3.908   0.977   6.621  0.7719 -0.1797  0.4130
   39CHL1  H19A 4033   3.908   1.031   6.718 -0.1191  0.0465  0.2983
   39CHL1  H19B 4034   3.924   1.050   6.539 -0.1169 -0.4861 -0.0500
   39CHL1  H19C 4035   3.806   0.933   6.609  0.8626 -0.9210  2.1273
   39CHL1    C1 4036   3.979   0.752   6.733  0.3967 -0.2547 -0.0999
   39CHL1   H1A 4037   3.884   0.706   6.697  0.6224 -0.4103 -0.5056
   39CHL1   H1B 4038   4.058   0.675   6.741  1.0457  0.3194 -0.8013
   39CHL1    C2 4039   3.958   0.798   6.875 -0.1212 -0.3632  0.5373
   39CHL1   H2A 4040   3.924   0.710   6.935 -1.5870  0.1204  0.4398
   39CHL1   H2B 4041   3.883   0.878   6.890 -1.0965 -0.9855 -0.8431
   39CHL1   C20 4042   3.974   0.700   5.942 -0.1391  0.4480  0.5899
   39CHL1   H20 4043   3.904   0.786   5.933 -0.9068 -0.3213 -1.5467
   39CHL1   C21 4044   3.890   0.576   5.993 -0.4032 -0.6243  0.1714
   39CHL1  H21A 4045   3.843   0.517   5.912  0.6025 -2.9044  1.1554
   39CHL1  H21B 4046   3.810   0.617   6.058  0.5904  2.8034 -0.5676
   39CHL1  H21C 4047   3.943   0.505   6.060 -1.6385 -1.7560 -0.0225
   39CHL1   C22 4048   4.049   0.672   5.812 -0.0502 -0.5404 -0.3349
   39CHL1  H22A 4049   4.090   0.772   5.785 -1.3606  0.4442  1.1569
   39CHL1  H22B 4050   4.133   0.600   5.825  0.7041 -0.0162 -1.9941
   39CHL1   C23 4051   3.972   0.635   5.683  0.3317  0.0794 -0.7280
   39CHL1  H23A 4052   4.035   0.627   5.592  2.1479 -0.2920  0.5146
   39CHL1  H23B 4053   3.942   0.530   5.701 -1.3452  0.6216 -0.2073
   39CHL1   C24 4054   3.841   0.716   5.652 -0.1725 -0.4955  0.2033
   39CHL1  H24A 4055   3.774   0.700   5.740 -1.6092 -0.0005 -0.7628
   39CHL1  H24B 4056   3.863   0.825   5.653  1.5358 -0.8050  1.4664
   39CHL1   C25 4057   3.762   0.671   5.530 -0.1468 -0.6394 -0.1840
   39CHL1   H25 4058   3.669   0.731   5.513  0.2563 -0.2308 -1.0114
   39CHL1   C26 4059   3.846   0.688   5.399 -0.0595 -0.8077  0.5213
   39CHL1  H26A 4060   3.938   0.628   5.386  0.1751 -0.4567  0.5598
   39CHL1  H26B 4061   3.773   0.658   5.322  1.3953  1.3321 -1.8586
   39CHL1  H26C 4062   3.864   0.796   5.381  2.0343 -1.0579  0.8139
   39CHL1   C27 4063   3.721   0.516   5.536 -0.3415  0.5127 -0.0873
   39CHL1  H27A 4064   3.648   0.502   5.453  0.3374 -1.0715 -0.4613
   39CHL1  H27B 4065   3.810   0.449   5.530 -0.8115  0.0214 -3.7538
   39CHL1  H27C 4066   3.660   0.496   5.627  2.7731 -1.1215  1.8395
   40CHL1    C3 4067   3.441   2.270   6.443 -0.5285 -0.1378  0.6456
   40CHL1    H3 4068   3.487   2.186   6.387  0.1714 -0.0075  1.0141
   40CHL1    O3 4069   3.499   2.315   6.569 -0.0638 -0.4292  0.1769
   40CHL1   H3' 4070   3.426   2.304   6.631 -0.5266  1.6629  0.0772
   40CHL1    C4 4071   3.463   2.395   6.349  0.4942  0.2004 -0.0928
   40CHL1   H4A 4072   3.414   2.479   6.404 -1.2256 -0.4602 -0.5436
   40CHL1   H4B 4073   3.573   2.409   6.349  0.8231 -1.8813  1.5520
   40CHL1    C5 4074   3.400   2.368   6.209  0.2484  0.3389 -0.0760
   40CHL1    C6 4075   3.463   2.363   6.098 -0.2498  1.0910  1.4704
   40CHL1    H6 4076   3.572   2.370   6.089 -0.0883 -1.3604  0.7655
   40CHL1    C7 4077   3.399   2.346   5.966  0.2536  0.3336  0.2408
   40CHL1   H7A 4078   3.427   2.428   5.897  1.1974  0.0202  0.2341
   40CHL1   H7B 4079   3.427   2.247   5.924 -2.8240  0.6183 -2.9420
   40CHL1    C8 4080   3.246   2.349   5.963 -0.4505 -0.7291 -0.0302
   40CHL1    H8 4081   3.212   2.455   5.954 -2.1369 -1.0499  1.9700
   40CHL1   C14 4082   3.193   2.266   5.844  0.1373 -0.2399 -0.1900
   40CHL1   H14 4083   3.216   2.159   5.859 -2.2275 -0.6773  0.6695
   40CHL1   C15 4084   3.240   2.302   5.698  0.1022  0.0609  0.5820
   40CHL1  H15A 4085   3.221   2.408   5.668 -0.1101  0.1016  0.8597
   40CHL1  H15B 4086   3.345   2.272   5.679  0.1087  0.0558  0.6261
   40CHL1   C16 4087   3.156   2.216   5.605  0.5155  0.2769  0.0428
   40CHL1  H16A 4088   3.127   2.275   5.515  0.4459  1.2290  0.6724
   40CHL1  H16B 4089   3.192   2.117   5.572 -0.6312 -1.1441  2.7307
   40CHL1   C17 4090   3.025   2.181   5.683 -0.4679  0.0315 -0.0272
   40CHL1   H17 4091   3.041   2.075   5.712  0.2179  0.1031 -0.1107
   40CHL1   C13 4092   3.035   2.267   5.823 -0.6410  0.4076 -0.2155
   40CHL1   C18 4093   2.977   2.408   5.798 -0.1882 -0.2328 -0.6047
   40CHL1  H18A 4094   2.866   2.408   5.785 -0.5051  2.2511  1.1530
   40CHL1  H18B 4095   2.999   2.481   5.879 -1.0113  0.2458 -0.8026
   40CHL1  H18C 4096   3.018   2.460   5.709 -0.1649 -0.4857 -0.7386
   40CHL1   C12 4097   2.981   2.194   5.948 -0.4386  0.2385  0.3367
   40CHL1  H12A 4098   2.871   2.207   5.940 -0.2988  1.2362 -0.1427
   40CHL1  H12B 4099   3.007   2.086   5.939  0.2548  0.2505  1.9841
   40CHL1   C11 4100   3.038   2.258   6.071  0.4428  0.4078 -0.4337
   40CHL1  H11A 4101   2.984   2.355   6.082  0.6304  0.2966  2.4396
   40CHL1  H11B 4102   3.016   2.198   6.162  0.0783  0.7233 -0.3075
   40CHL1    C9 4103   3.198   2.273   6.081 -0.2235  0.5092 -0.2817
   40CHL1    H9 4104   3.232   2.168   6.069 -0.5668  0.4824 -1.1134
   40CHL1   C10 4105   3.249   2.328   6.214  0.1011  0.1180  0.5301
   40CHL1   C19 4106   3.157   2.449   6.252 -0.6670  0.2453 -0.3032
   40CHL1  H19A 4107   3.202   2.514   6.330 -0.7012  0.4685 -0.4683
   40CHL1  H19B 4108   3.138   2.512   6.162 -2.3695  1.8971  1.1268
   40CHL1  H19C 4109   3.056   2.418   6.285  0.5263 -3.6145  0.2494
   40CHL1    C1 4110   3.230   2.221   6.331  0.0848  1.1852 -0.2456
   40CHL1   H1A 4111   3.123   2.204   6.351 -0.0097  1.8761 -0.1301
   40CHL1   H1B 4112   3.271   2.129   6.284 -1.6056  1.2213 -1.8737
   40CHL1    C2 4113   3.296   2.245   6.466 -0.1941 -0.5488 -0.0548
   40CHL1   H2A 4114   3.299   2.153   6.529 -0.1566 -1.6585 -1.6238
   40CHL1   H2B 4115   3.238   2.329   6.512 -5.2799 -1.7998 -3.3147
   40CHL1   C20 4116   2.901   2.185   5.597  0.1911  0.2258 -0.3710
   40CHL1   H20 4117   2.894   2.287   5.556 -0.1884  1.3552  2.2674
   40CHL1   C21 4118   2.774   2.180   5.688 -0.0507  0.1238  0.1412
   40CHL1  H21A 4119   2.771   2.078   5.732 -0.7732 -0.9080 -2.1679
   40CHL1  H21B 4120   2.684   2.172   5.623  0.2754 -6.2283 -0.1976
   40CHL1  H21C 4121   2.753   2.258   5.765  1.1104  1.2355 -0.6295
   40CHL1   C22 4122   2.896   2.084   5.489  0.4309  0.1792 -0.1823
   40CHL1  H22A 4123   2.994   2.078   5.437 -0.2221 -0.8908 -1.3220
   40CHL1  H22B 4124   2.867   1.985   5.530 -0.3153 -0.1494 -1.4860
   40CHL1   C23 4125   2.791   2.110   5.378 -0.1657 -0.2470  0.1673
   40CHL1  H23A 4126   2.791   2.022   5.312 -1.0842  1.1086 -1.7341
   40CHL1  H23B 4127   2.687   2.124   5.417  0.0257  1.8032  0.0828
   40CHL1   C24 4128   2.832   2.234   5.299 -0.0458  0.2993  0.1520
   40CHL1  H24A 4129   2.786   2.326   5.340  1.7208  1.8385 -1.1211
   40CHL1  H24B 4130   2.940   2.262   5.298 -0.2310  1.0224  0.4069
   40CHL1   C25 4131   2.800   2.224   5.145 -0.8315 -0.3149  0.0744
   40CHL1   H25 4132   2.859   2.145   5.094 -2.9778 -1.8402 -0.1591
   40CHL1   C26 4133   2.651   2.193   5.127 -0.3718  0.2087  0.0419
   40CHL1  H26A 4134   2.591   2.260   5.193 -0.9986 -2.5864  2.5334
   40CHL1  H26B 4135   2.612   2.194   5.023 -1.9342  0.8937  0.6009
   40CHL1  H26C 4136   2.623   2.092   5.164 -1.1516  0.6132  0.5910
   40CHL1   C27 4137   2.840   2.364   5.080 -0.1131  0.1790  0.2802
   40CHL1  H27A 4138   2.787   2.454   5.117 -3.2020 -0.6202 -1.8143
   40CHL1  H27B 4139   2.948   2.379   5.103 -0.6426  0.1595  3.0657
   40CHL1  H27C 4140   2.823   2.367   4.970  0.1631 -2.8625  0.0638
   41CHL1    C3 4141   6.661   6.172   6.954  0.0211 -0.3692  0.2777
   41CHL1    H3 4142   6.553   6.198   6.950  0.5716  2.0465 -0.3384
   41CHL1    O3 4143   6.695   6.161   7.087  0.0973  0.1190  0.1229
   41CHL1   H3' 4144   6.781   6.119   7.092 -0.2795 -0.7712 -0.5612
   41CHL1    C4 4145   6.688   6.042   6.885  0.2533 -0.7300  0.4708
   41CHL1   H4A 4146   6.786   5.999   6.914  0.5878 -0.0633  0.3490
   41CHL1   H4B 4147   6.611   5.977   6.933 -1.7336  1.3105  0.2198
   41CHL1    C5 4148   6.669   6.050   6.736 -0.4954 -0.0056 -0.2839
   41CHL1    C6 4149   6.584   5.978   6.667 -0.0929 -0.3736 -0.1430
   41CHL1    H6 4150   6.527   5.899   6.719 -3.0341 -2.1237 -5.2834
   41CHL1    C7 4151   6.571   5.974   6.518 -0.1591  0.1057 -0.4505
   41CHL1   H7A 4152   6.542   5.872   6.484  0.2261 -0.0147 -0.4287
   41CHL1   H7B 4153   6.478   6.028   6.491 -0.8450  0.4009  2.2753
   41CHL1    C8 4154   6.695   6.033   6.450 -0.0342  0.1015  0.6011
   41CHL1    H8 4155   6.783   5.970   6.475 -0.9417 -1.8383 -0.7752
   41CHL1   C14 4156   6.673   6.055   6.305 -0.2264 -0.6948 -0.6892
   41CHL1   H14 4157   6.592   6.131   6.292  0.8474  1.0003  1.6802
   41CHL1   C15 4158   6.633   5.926   6.230 -0.2000 -0.0602 -0.5573
   41CHL1  H15A 4159   6.702   5.852   6.275  1.1522  0.9565 -0.9114
   41CHL1  H15B 4160   6.527   5.899   6.249 -0.2479  0.2809 -0.3104
   41CHL1   C16 4161   6.665   5.960   6.081  0.5145  0.3932  0.6740
   41CHL1  H16A 4162   6.724   5.881   6.028  0.5649 -1.1775  2.9261
   41CHL1  H16B 4163   6.571   5.975   6.024 -1.2658 -0.6081  3.1613
   41CHL1   C17 4164   6.744   6.096   6.083 -0.2915 -0.6514 -0.0083
   41CHL1   H17 4165   6.663   6.173   6.078 -0.4054 -0.5413  2.2061
   41CHL1   C13 4166   6.792   6.110   6.229 -0.5691  0.1689  0.1192
   41CHL1   C18 4167   6.918   6.021   6.260 -0.5464  0.8479  0.8057
   41CHL1  H18A 4168   7.010   6.063   6.214 -0.1445 -1.3129 -0.5291
   41CHL1  H18B 4169   6.935   6.019   6.370  1.0865  0.1890  0.5726
   41CHL1  H18C 4170   6.902   5.917   6.223  0.3058  1.4397 -1.3610
   41CHL1   C12 4171   6.814   6.258   6.278 -0.1273 -0.1532  0.0467
   41CHL1  H12A 4172   6.904   6.306   6.234 -0.0104 -0.2243  0.2073
   41CHL1  H12B 4173   6.724   6.313   6.243  1.2859  2.4373  0.2383
   41CHL1   C11 4174   6.837   6.254   6.433  0.3700  0.2348 -0.0314
   41CHL1  H11A 4175   6.941   6.227   6.462 -0.1163  1.0780  2.7918
   41CHL1  H11B 4176   6.840   6.361   6.463  1.2828  1.0570 -2.7269
   41CHL1    C9 4177   6.730   6.169   6.514 -0.1292  0.0828 -0.0126
   41CHL1    H9 4178   6.644   6.239   6.508  0.7538  1.1471 -0.5003
   41CHL1   C10 4179   6.765   6.153   6.663 -0.1754 -0.3096 -0.5517
   41CHL1   C19 4180   6.916   6.113   6.684 -0.1274 -0.1457  0.3402
   41CHL1  H19A 4181   6.935   6.066   6.783  0.5900 -2.8727 -1.0006
   41CHL1  H19B 4182   6.944   6.032   6.613  1.8447  0.8054 -0.0355
   41CHL1  H19C 4183   6.978   6.204   6.668  0.7687 -0.8090 -0.0446
   41CHL1    C1 4184   6.737   6.290   6.740  0.2822 -0.0759  0.3452
   41CHL1   H1A 4185   6.813   6.361   6.704  0.8538 -2.0616 -2.6833
   41CHL1   H1B 4186   6.638   6.332   6.713  0.3775 -1.6998 -3.0720
   41CHL1    C2 4187   6.751   6.286   6.897  0.4946  0.2850 -0.7875
   41CHL1   H2A 4188   6.720   6.378   6.951  0.9169  0.7571 -1.3375
   41CHL1   H2B 4189   6.856   6.267   6.930  0.5875  3.3046  1.0410
   41CHL1   C20 4190   6.856   6.099   5.985  0.4743  0.4942 -0.2951
   41CHL1   H20 4191   6.936   6.026   6.011  1.2987  1.5912  0.3349
   41CHL1   C21 4192   6.938   6.233   5.979 -1.1515  0.4689  0.4135
   41CHL1  H21A 4193   6.999   6.248   6.071  2.5269 -2.7793 -1.1526
   41CHL1  H21B 4194   6.886   6.325   5.946  1.0151  1.5286 -0.2540
   41CHL1  H21C 4195   7.021   6.221   5.905 -1.0486 -1.4231  0.7885
   41CHL1   C22 4196   6.821   6.074   5.832  0.3797  0.0456 -0.1223
   41CHL1  H22A 4197   6.901   6.090   5.757 -0.9109 -1.0349 -1.7838
   41CHL1  H22B 4198   6.795   5.966   5.834  0.5381  0.0145  0.8416
   41CHL1   C23 4199   6.702   6.153   5.773 -0.1127 -0.0034 -0.0703
   41CHL1  H23A 4200   6.617   6.134   5.842  1.4672 -0.6733  1.8061
   41CHL1  H23B 4201   6.728   6.261   5.777  3.9782 -0.8265  0.6938
   41CHL1   C24 4202   6.690   6.107   5.630 -0.2847  0.0204 -0.3524
   41CHL1  H24A 4203   6.771   6.136   5.560 -1.7124  0.5110 -1.8798
   41CHL1  H24B 4204   6.691   5.997   5.637 -2.8244 -0.0179  0.6390
   41CHL1   C25 4205   6.569   6.167   5.557  0.2004 -0.1739 -0.0965
   41CHL1   H25 4206   6.586   6.276   5.545  1.7522 -0.2588  1.0250
   41CHL1   C26 4207   6.559   6.114   5.415 -0.0521  0.2858  0.8421
   41CHL1  H26A 4208   6.475   6.162   5.360 -1.0596 -2.5866 -0.3031
   41CHL1  H26B 4209   6.651   6.139   5.359 -1.1230  1.8804 -0.2986
   41CHL1  H26C 4210   6.523   6.010   5.404 -1.0178  0.5598  1.2892
   41CHL1   C27 4211   6.434   6.137   5.629  0.4221 -0.3911 -0.2887
   41CHL1  H27A 4212   6.341   6.171   5.579  0.5458  0.7904  0.2402
   41CHL1  H27B 4213   6.433   6.027   5.635 -1.1668 -0.4832 -1.5432
   41CHL1  H27C 4214   6.431   6.180   5.731  1.3652 -0.2002 -0.3328
   42CHL1    C3 4215   4.937   0.518   6.769 -0.5511 -0.9510  0.4833
   42CHL1    H3 4216   4.852   0.589   6.759  1.5937  1.4864 -2.0755
   42CHL1    O3 4217   4.944   0.470   6.903  0.2957 -0.2234  0.7140
   42CHL1   H3' 4218   4.928   0.376   6.907 -0.3642 -0.1161  0.7530
   42CHL1    C4 4219   4.931   0.403   6.670  0.3260  0.8588  0.7182
   42CHL1   H4A 4220   5.025   0.348   6.692  0.2256  1.2357  2.1369
   42CHL1   H4B 4221   4.837   0.346   6.686  0.3552  0.4109 -0.5625
   42CHL1    C5 4222   4.934   0.437   6.522 -0.6526 -1.1349 -0.2488
   42CHL1    C6 4223   4.825   0.408   6.440 -0.0017 -0.1939 -0.2710
   42CHL1    H6 4224   4.733   0.360   6.476 -1.1794  1.2077 -1.2692
   42CHL1    C7 4225   4.826   0.437   6.292  0.3622  0.9297 -0.8337
   42CHL1   H7A 4226   4.779   0.356   6.232 -1.5179  0.1689  1.5126
   42CHL1   H7B 4227   4.759   0.525   6.280  2.7269  2.6559 -2.0873
   42CHL1    C8 4228   4.966   0.471   6.241 -0.0286  0.3010 -0.4156
   42CHL1    H8 4229   5.021   0.375   6.232  0.5161  0.5272  0.3461
   42CHL1   C14 4230   4.954   0.535   6.104  0.4447  0.6723 -0.0353
   42CHL1   H14 4231   4.886   0.622   6.119  2.1614  1.9405  0.6911
   42CHL1   C15 4232   4.889   0.449   5.989 -0.3949  0.4954  0.8262
   42CHL1  H15A 4233   4.937   0.348   5.991 -0.4658  0.4064 -0.5810
   42CHL1  H15B 4234   4.782   0.433   6.014 -0.6631  0.1193 -0.4789
   42CHL1   C16 4235   4.925   0.521   5.862  0.2887  0.2492 -0.0591
   42CHL1  H16A 4236   4.978   0.452   5.793  2.3094  0.7264  0.9316
   42CHL1  H16B 4237   4.834   0.565   5.816 -0.2235 -0.1787  0.5186
   42CHL1   C17 4238   5.023   0.638   5.892  0.4395 -0.2394 -0.2878
   42CHL1   H17 4239   4.970   0.735   5.901  0.1456 -0.4826  0.7699
   42CHL1   C13 4240   5.080   0.597   6.036 -0.2536  0.4297  0.2592
   42CHL1   C18 4241   5.184   0.486   6.017 -0.3220  0.4120 -0.7511
   42CHL1  H18A 4242   5.206   0.435   6.113  1.8825  2.8032  0.1004
   42CHL1  H18B 4243   5.155   0.405   5.946  0.1413 -1.5267  1.1622
   42CHL1  H18C 4244   5.278   0.526   5.975  0.3209  1.7351  1.7290
   42CHL1   C12 4245   5.124   0.717   6.125  1.2511  0.4677 -0.0051
   42CHL1  H12A 4246   5.210   0.774   6.085 -0.7759  3.2344 -0.7171
   42CHL1  H12B 4247   5.039   0.788   6.139 -1.2266 -2.4318  0.6333
   42CHL1   C11 4248   5.136   0.662   6.275 -0.3583 -0.0605 -0.5361
   42CHL1  H11A 4249   5.232   0.606   6.272  0.1075  0.7163 -2.8631
   42CHL1  H11B 4250   5.150   0.746   6.346  0.5777 -0.9438  0.3513
   42CHL1    C9 4251   5.028   0.573   6.339 -0.2649 -0.4749  0.4716
   42CHL1    H9 4252   4.947   0.649   6.350 -0.1855  0.0394 -1.9348
   42CHL1   C10 4253   5.058   0.525   6.480  0.4210  0.4137 -0.0517
   42CHL1   C19 4254   5.185   0.431   6.472 -0.0588 -0.2935 -0.4760
   42CHL1  H19A 4255   5.185   0.370   6.565  1.1140 -1.7476 -1.3809
   42CHL1  H19B 4256   5.178   0.355   6.391 -3.0800  0.9509 -1.5294
   42CHL1  H19C 4257   5.272   0.498   6.459  0.6100 -1.0609 -0.0384
   42CHL1    C1 4258   5.079   0.632   6.588  0.5929 -0.2387 -0.7533
   42CHL1   H1A 4259   5.173   0.687   6.569 -0.7374  2.0795 -1.0938
   42CHL1   H1B 4260   4.997   0.706   6.571 -0.2814 -0.6100  1.4463
   42CHL1    C2 4261   5.070   0.586   6.740 -0.3824  0.1473  0.3122
   42CHL1   H2A 4262   5.079   0.669   6.813  0.0193 -0.0784  0.5227
   42CHL1   H2B 4263   5.152   0.515   6.761  0.4710  1.5327  1.8474
   42CHL1   C20 4264   5.128   0.655   5.775  0.3314 -0.0421  0.2851
   42CHL1   H20 4265   5.182   0.560   5.762 -3.4074 -2.4718  0.8334
   42CHL1   C21 4266   5.232   0.770   5.798  1.1149  0.4926 -0.2280
   42CHL1  H21A 4267   5.175   0.857   5.839  1.5980 -0.6813  3.3012
   42CHL1  H21B 4268   5.275   0.806   5.702  0.9640 -0.6562 -0.7406
   42CHL1  H21C 4269   5.307   0.742   5.874  1.0401  3.4391  1.0860
   42CHL1   C22 4270   5.063   0.692   5.640  0.1597  0.7003  0.4920
   42CHL1  H22A 4271   5.132   0.701   5.554 -0.3664 -0.6884 -0.0925
   42CHL1  H22B 4272   4.988   0.615   5.612 -0.6222  1.6468 -0.0810
   42CHL1   C23 4273   4.974   0.822   5.640 -0.3565  0.3273 -0.7352
   42CHL1  H23A 4274   4.892   0.816   5.715  0.7286 -1.6201  0.3666
   42CHL1  H23B 4275   5.047   0.899   5.675  1.2946 -2.3272  2.2026
   42CHL1   C24 4276   4.922   0.856   5.498 -0.4767  0.3695 -0.0568
   42CHL1  H24A 4277   5.006   0.866   5.427 -0.2061  0.3085  0.2516
   42CHL1  H24B 4278   4.856   0.772   5.467  1.2471 -0.8807 -0.4545
   42CHL1   C25 4279   4.835   0.982   5.497 -0.3341 -0.1025 -0.1616
   42CHL1   H25 4280   4.746   0.962   5.561 -0.4986 -0.3239 -0.4596
   42CHL1   C26 4281   4.907   1.107   5.550  0.2288 -0.5703 -0.1965
   42CHL1  H26A 4282   4.829   1.185   5.556 -0.6328 -1.4874  1.2389
   42CHL1  H26B 4283   4.944   1.082   5.653 -0.7927  0.0501  0.3300
   42CHL1  H26C 4284   4.992   1.139   5.486  1.1142  0.5053  1.4349
   42CHL1   C27 4285   4.793   1.008   5.356  0.6024  0.2871  0.2199
   42CHL1  H27A 4286   4.734   1.101   5.342  0.9273  0.2278 -1.8992
   42CHL1  H27B 4287   4.883   1.015   5.292 -0.0836 -1.8681 -1.0813
   42CHL1  H27C 4288   4.725   0.933   5.309  0.6849 -0.0327  0.6081
   43CHL1    C3 4289   5.724   1.379   7.044 -0.9404  0.2084 -0.3134
   43CHL1    H3 4290   5.826   1.402   7.083 -0.7240 -0.7285 -0.2992
   43CHL1    O3 4291   5.640   1.416   7.151 -0.1122  0.1360  0.0219
   43CHL1   H3' 4292   5.553   1.392   7.117  0.4531 -2.2470  0.1146
   43CHL1    C4 4293   5.693   1.475   6.927 -0.4717  0.3409  0.0098
   43CHL1   H4A 4294   5.585   1.475   6.902 -0.4401 -0.0369 -0.1427
   43CHL1   H4B 4295   5.707   1.582   6.954 -2.0426  0.6529 -0.3526
   43CHL1    C5 4296   5.774   1.429   6.804 -0.7193  0.0433 -0.4844
   43CHL1    C6 4297   5.864   1.499   6.735 -0.1907 -0.1405 -0.0003
   43CHL1    H6 4298   5.873   1.607   6.755  1.1331 -0.2430  0.0136
   43CHL1    C7 4299   5.935   1.456   6.611  0.4214  0.2377 -0.1009
   43CHL1   H7A 4300   5.944   1.539   6.538 -1.4330 -0.4148 -1.1421
   43CHL1   H7B 4301   6.033   1.421   6.650  0.1297  1.0941  1.4887
   43CHL1    C8 4302   5.858   1.343   6.543  0.1694 -0.2639 -0.3639
   43CHL1    H8 4303   5.761   1.376   6.500 -0.1266  0.8009  1.0802
   43CHL1   C14 4304   5.945   1.285   6.434 -0.5735  0.1912 -0.9556
   43CHL1   H14 4305   6.041   1.242   6.471 -1.8495 -2.5687 -0.5884
   43CHL1   C15 4306   5.985   1.383   6.324 -0.0592 -0.0548  0.7864
   43CHL1  H15A 4307   5.897   1.448   6.305  0.0303 -0.1310  0.1015
   43CHL1  H15B 4308   6.063   1.458   6.352  0.0247 -0.4107  1.5529
   43CHL1   C16 4309   6.024   1.293   6.209  0.0376 -0.5828 -0.6558
   43CHL1  H16A 4310   5.962   1.329   6.124 -0.1386  0.0581 -0.2681
   43CHL1  H16B 4311   6.132   1.298   6.183  1.0251 -1.6311  2.7227
   43CHL1   C17 4312   5.999   1.148   6.254 -0.6555  0.1493 -0.6943
   43CHL1   H17 4313   6.098   1.119   6.296 -0.7219 -3.2814 -2.5660
   43CHL1   C13 4314   5.889   1.162   6.359 -0.3342  0.0484  0.7659
   43CHL1   C18 4315   5.750   1.193   6.295  0.2287  0.0022 -0.0563
   43CHL1  H18A 4316   5.750   1.287   6.234 -4.1618  0.0773 -0.2687
   43CHL1  H18B 4317   5.713   1.109   6.233 -1.6239 -0.6495  1.8328
   43CHL1  H18C 4318   5.673   1.222   6.369  0.8732  0.2068  0.5483
   43CHL1   C12 4319   5.878   1.046   6.467 -0.7920 -0.5903  0.7780
   43CHL1  H12A 4320   5.840   0.949   6.429 -2.0642 -0.0266  0.5644
   43CHL1  H12B 4321   5.984   1.035   6.498 -0.0056 -0.0785 -1.5001
   43CHL1   C11 4322   5.793   1.085   6.585  0.0224  0.4662  0.1322
   43CHL1  H11A 4323   5.690   1.084   6.542 -0.6576  0.4044  1.7080
   43CHL1  H11B 4324   5.797   1.009   6.666  2.3357 -1.2863 -1.4856
   43CHL1    C9 4325   5.835   1.224   6.643  0.5950 -0.5960 -0.0015
   43CHL1    H9 4326   5.935   1.213   6.691 -0.0958  0.1391  1.7033
   43CHL1   C10 4327   5.746   1.277   6.761  0.5391 -0.4284 -0.5395
   43CHL1   C19 4328   5.600   1.266   6.713  1.0930 -0.0560 -0.6404
   43CHL1  H19A 4329   5.582   1.324   6.620 -1.4286  0.6154  0.1790
   43CHL1  H19B 4330   5.585   1.157   6.695  0.5296 -0.1580  0.3397
   43CHL1  H19C 4331   5.525   1.295   6.791  0.3017 -2.1205 -0.5574
   43CHL1    C1 4332   5.766   1.182   6.887 -0.1541  0.1403  0.4604
   43CHL1   H1A 4333   5.726   1.081   6.864 -0.8359 -0.2715  3.1329
   43CHL1   H1B 4334   5.872   1.166   6.916 -0.8702 -0.0568  3.2017
   43CHL1    C2 4335   5.706   1.229   7.020  0.2147  0.4426  0.1661
   43CHL1   H2A 4336   5.737   1.169   7.109 -0.0614 -0.9604 -0.6583
   43CHL1   H2B 4337   5.599   1.209   6.996  0.3313  1.1254 -0.9795
   43CHL1   C20 4338   5.963   1.051   6.138  0.5529  1.0137  0.7274
   43CHL1   H20 4339   5.870   1.088   6.088  1.1390 -0.5547 -1.7289
   43CHL1   C21 4340   5.951   0.907   6.194  0.2866 -0.3289  0.3955
   43CHL1  H21A 4341   5.963   0.841   6.105 -0.6809  0.4291 -0.3091
   43CHL1  H21B 4342   5.854   0.889   6.244  0.0764 -0.9729 -0.2356
   43CHL1  H21C 4343   6.042   0.895   6.257  1.7472 -0.8661 -1.6774
   43CHL1   C22 4344   6.083   1.045   6.044  0.1447 -0.2069 -0.1921
   43CHL1  H22A 4345   6.114   1.143   6.002  0.4193 -1.2844 -2.6138
   43CHL1  H22B 4346   6.175   1.012   6.096  1.1180  0.5118 -1.3923
   43CHL1   C23 4347   6.059   0.971   5.916  0.3824 -0.8714  0.5172
   43CHL1  H23A 4348   6.054   0.861   5.931  2.3826 -1.1112 -0.2753
   43CHL1  H23B 4349   5.964   1.003   5.868  0.6699  1.2550  1.2724
   43CHL1   C24 4350   6.172   1.004   5.812 -0.0330 -0.6873  0.0105
   43CHL1  H24A 4351   6.188   1.113   5.811  0.7412 -0.7946  0.2819
   43CHL1  H24B 4352   6.269   0.955   5.833  0.3787 -0.7165 -1.7799
   43CHL1   C25 4353   6.141   0.951   5.660  0.6784 -0.6992  0.4454
   43CHL1   H25 4354   6.045   1.001   5.639  0.3542 -1.3198  0.4236
   43CHL1   C26 4355   6.246   0.995   5.556 -0.0263  0.3293 -0.6397
   43CHL1  H26A 4356   6.342   0.941   5.571 -0.3205  0.4861  2.2767
   43CHL1  H26B 4357   6.204   0.973   5.455  2.1392 -1.7982 -1.1764
   43CHL1  H26C 4358   6.272   1.102   5.570  0.4730  0.2326 -0.7950
   43CHL1   C27 4359   6.124   0.806   5.646  0.1556 -0.4620  0.8572
   43CHL1  H27A 4360   6.114   0.791   5.536  1.8991 -0.4870  0.6854
   43CHL1  H27B 4361   6.212   0.747   5.678 -0.6180 -2.2546 -0.1366
   43CHL1  H27C 4362   6.024   0.769   5.678  0.3444  0.0611  2.0802
   44CHL1    C3 4363   4.997   1.017   7.041  0.5786  0.2944 -0.0166
   44CHL1    H3 4364   5.096   0.967   7.052  0.3622 -0.2465 -0.4621
   44CHL1    O3 4365   4.926   0.994   7.163  0.0544 -0.7020 -0.1427
   44CHL1   H3' 4366   4.846   1.046   7.170  0.2449 -0.4726  0.3591
   44CHL1    C4 4367   5.019   1.165   6.999 -0.0451  0.4420  0.5507
   44CHL1   H4A 4368   4.930   1.230   7.010 -1.2270 -1.0706  0.2145
   44CHL1   H4B 4369   5.097   1.203   7.069  0.5248 -0.8732  0.6533
   44CHL1    C5 4370   5.079   1.171   6.858  0.3927 -0.3261  0.0160
   44CHL1    C6 4371   5.197   1.231   6.833 -0.7048 -0.4529 -0.5750
   44CHL1    H6 4372   5.250   1.275   6.918 -0.9370 -2.1497  0.4980
   44CHL1    C7 4373   5.263   1.226   6.697  0.0462 -0.6752  0.6959
   44CHL1   H7A 4374   5.317   1.322   6.688 -4.0367  1.8406  0.6435
   44CHL1   H7B 4375   5.340   1.145   6.699  0.5215 -0.2360  0.3090
   44CHL1    C8 4376   5.163   1.202   6.577  0.2208 -0.4426 -0.0257
   44CHL1    H8 4377   5.107   1.298   6.571 -0.0368 -0.3662  2.6453
   44CHL1   C14 4378   5.234   1.176   6.448 -0.0023  0.1749  0.0226
   44CHL1   H14 4379   5.282   1.076   6.452 -2.1644 -0.9071  0.4393
   44CHL1   C15 4380   5.344   1.274   6.408  0.2208  0.5095  0.0640
   44CHL1  H15A 4381   5.317   1.379   6.431 -0.5884 -0.1004  2.1711
   44CHL1  H15B 4382   5.443   1.247   6.451 -0.5019 -0.0488  1.4165
   44CHL1   C16 4383   5.350   1.248   6.247 -0.3811  0.0365  0.2665
   44CHL1  H16A 4384   5.329   1.347   6.201 -1.1946 -0.0186  0.5018
   44CHL1  H16B 4385   5.454   1.227   6.216 -0.6665  0.6016 -1.1489
   44CHL1   C17 4386   5.233   1.161   6.202 -0.4439  0.1919 -0.7106
   44CHL1   H17 4387   5.270   1.056   6.208 -2.1608 -0.3728  2.2776
   44CHL1   C13 4388   5.135   1.172   6.324  0.4085 -0.3346 -0.0217
   44CHL1   C18 4389   5.068   1.312   6.311 -0.6036  0.8716  0.3329
   44CHL1  H18A 4390   5.025   1.344   6.408 -2.2545 -3.3988  1.2431
   44CHL1  H18B 4391   5.142   1.389   6.281  2.4259 -1.7298  0.5593
   44CHL1  H18C 4392   4.992   1.313   6.230 -0.6434 -3.0123  0.1056
   44CHL1   C12 4393   5.036   1.057   6.352  0.2740  0.4031 -0.0567
   44CHL1  H12A 4394   4.956   1.036   6.278 -0.0620 -1.9802  0.8700
   44CHL1  H12B 4395   5.099   0.965   6.348  1.4082  1.1493  0.2847
   44CHL1   C11 4396   4.968   1.061   6.490  0.4018  0.5420 -0.0362
   44CHL1  H11A 4397   4.894   1.143   6.483  1.2477  1.6059  2.3163
   44CHL1  H11B 4398   4.910   0.968   6.511  0.6469  0.9495  2.9734
   44CHL1    C9 4399   5.063   1.093   6.605 -0.3812  0.3679  0.0161
   44CHL1    H9 4400   5.127   1.002   6.612 -3.0582 -1.5911  1.0735
   44CHL1   C10 4401   4.996   1.102   6.745  0.0338  0.1649  0.3980
   44CHL1   C19 4402   4.864   1.185   6.726  0.3336  0.1674 -0.5357
   44CHL1  H19A 4403   4.792   1.136   6.656  0.0735  2.2910 -1.8187
   44CHL1  H19B 4404   4.818   1.191   6.827  0.4210 -0.1805 -0.4733
   44CHL1  H19C 4405   4.882   1.291   6.700  1.3692  0.4601  1.2726
   44CHL1    C1 4406   4.969   0.952   6.789  0.7323 -0.4953 -0.1030
   44CHL1   H1A 4407   4.904   0.900   6.716  0.6836  0.1213 -0.5084
   44CHL1   H1B 4408   5.067   0.899   6.783  0.5064 -0.9271 -0.0250
   44CHL1    C2 4409   4.911   0.940   6.932  0.0234 -1.5390  0.3167
   44CHL1   H2A 4410   4.904   0.837   6.973 -1.0661 -1.2844  0.8229
   44CHL1   H2B 4411   4.809   0.983   6.924  0.3538 -0.8120 -0.0764
   44CHL1   C20 4412   5.189   1.193   6.058  0.7514  0.2759 -0.2577
   44CHL1   H20 4413   5.161   1.300   6.058  2.7007  0.8622  1.5470
   44CHL1   C21 4414   5.074   1.094   6.029  0.0997  0.2232  0.5417
   44CHL1  H21A 4415   4.989   1.131   6.090 -1.4812 -1.0934 -0.7966
   44CHL1  H21B 4416   5.108   0.996   6.067 -0.8888 -0.4653 -0.3240
   44CHL1  H21C 4417   5.052   1.086   5.920  1.4796 -1.1103  0.3213
   44CHL1   C22 4418   5.299   1.165   5.954 -0.4557 -0.0346 -0.4854
   44CHL1  H22A 4419   5.396   1.207   5.988  0.1712 -0.9018 -1.1481
   44CHL1  H22B 4420   5.293   1.054   5.945 -2.0385 -0.3495  2.8760
   44CHL1   C23 4421   5.269   1.225   5.816 -0.8439  0.6956 -0.0230
   44CHL1  H23A 4422   5.163   1.199   5.793 -0.7437  0.5416 -0.3237
   44CHL1  H23B 4423   5.279   1.335   5.805  1.5113  0.8568  2.7546
   44CHL1   C24 4424   5.358   1.163   5.705  0.1397  0.0082 -0.5631
   44CHL1  H24A 4425   5.462   1.202   5.710  0.5894 -1.1277 -0.8319
   44CHL1  H24B 4426   5.366   1.053   5.717  0.3173  0.0050 -0.7000
   44CHL1   C25 4427   5.296   1.178   5.557 -0.3929 -0.0430  0.0688
   44CHL1   H25 4428   5.198   1.125   5.554  0.5562 -1.8640 -0.3629
   44CHL1   C26 4429   5.287   1.320   5.515  0.0447 -0.4866  0.7912
   44CHL1  H26A 4430   5.385   1.367   5.497 -0.3873 -0.2923 -1.3152
   44CHL1  H26B 4431   5.224   1.334   5.424  2.6838  0.5237 -0.9738
   44CHL1  H26C 4432   5.234   1.385   5.588 -3.2081 -0.5711 -1.2675
   44CHL1   C27 4433   5.374   1.094   5.447  0.0624 -0.1436  0.1560
   44CHL1  H27A 4434   5.314   1.092   5.353 -1.2852 -0.6093  0.9821
   44CHL1  H27B 4435   5.479   1.122   5.427  0.4232 -1.5810 -0.1376
   44CHL1  H27C 4436   5.381   0.989   5.484  3.7193 -0.3704 -0.8312
   45CHL1    C3 4437   0.463   3.947   6.715 -0.0013  0.4569  0.1918
   45CHL1    H3 4438   0.366   3.998   6.732  0.3441  0.8659  0.9430
   45CHL1    O3 4439   0.544   3.933   6.829 -0.1082 -0.3675 -0.2182
   45CHL1   H3' 4440   0.505   3.864   6.884 -2.2217  2.1947  1.8071
   45CHL1    C4 4441   0.441   3.810   6.659 -0.2435 -0.1949  0.9818
   45CHL1   H4A 4442   0.540   3.762   6.673  1.1480  2.3440  0.3903
   45CHL1   H4B 4443   0.376   3.756   6.731 -1.4526 -1.1673 -0.7651
   45CHL1    C5 4444   0.393   3.807   6.516  0.4377 -0.5696  0.0557
   45CHL1    C6 4445   0.284   3.740   6.479 -0.2030  0.7899 -0.3824
   45CHL1    H6 4446   0.236   3.677   6.556  2.0484  0.3226  0.7114
   45CHL1    C7 4447   0.228   3.733   6.337 -0.1919  0.2780  0.5145
   45CHL1   H7A 4448   0.220   3.626   6.309  2.2520  0.0777  0.3681
   45CHL1   H7B 4449   0.145   3.804   6.320 -1.6093 -1.7148 -1.3624
   45CHL1    C8 4450   0.341   3.776   6.234 -0.0173 -0.7380 -0.2349
   45CHL1    H8 4451   0.421   3.699   6.223  0.2819 -0.1400 -2.6139
   45CHL1   C14 4452   0.286   3.798   6.095  0.6682  0.2693  0.0566
   45CHL1   H14 4453   0.201   3.868   6.105 -0.5628 -1.1616 -0.1493
   45CHL1   C15 4454   0.211   3.677   6.033 -0.2153 -0.3368 -0.0664
   45CHL1  H15A 4455   0.273   3.586   6.046  0.3116  0.1683  1.1570
   45CHL1  H15B 4456   0.107   3.673   6.073 -1.0294  2.9330 -1.5010
   45CHL1   C16 4457   0.214   3.712   5.881  0.1812  0.3948 -0.6785
   45CHL1  H16A 4458   0.264   3.625   5.832 -1.0140  0.9056 -2.9498
   45CHL1  H16B 4459   0.110   3.733   5.850 -0.2055  3.5372  2.2265
   45CHL1   C17 4460   0.294   3.848   5.867  0.3985 -0.2977  1.0467
   45CHL1   H17 4461   0.230   3.939   5.876  0.4833 -0.0924 -0.2423
   45CHL1   C13 4462   0.385   3.856   5.991 -0.0156 -0.1122  0.7394
   45CHL1   C18 4463   0.503   3.758   5.967 -0.3379 -1.0791  0.5625
   45CHL1  H18A 4464   0.582   3.807   5.906  1.4165 -1.8755  2.0830
   45CHL1  H18B 4465   0.538   3.712   6.062 -0.8181 -2.8744 -0.0865
   45CHL1  H18C 4466   0.467   3.670   5.908 -0.7473  0.2520 -1.2712
   45CHL1   C12 4467   0.436   3.992   6.032 -0.3729  0.5630 -0.1338
   45CHL1  H12A 4468   0.513   4.031   5.962 -0.9747 -0.6032 -1.4944
   45CHL1  H12B 4469   0.357   4.069   6.023 -1.0553 -0.1557 -0.4101
   45CHL1   C11 4470   0.493   3.980   6.169 -0.2087  0.2299  0.1682
   45CHL1  H11A 4471   0.590   3.927   6.160  0.0645  0.9900 -1.6513
   45CHL1  H11B 4472   0.508   4.084   6.203 -3.3760  0.2114  2.0010
   45CHL1    C9 4473   0.403   3.909   6.274 -0.4774 -0.6766  0.0181
   45CHL1    H9 4474   0.312   3.969   6.298 -0.6424 -0.8146 -0.2556
   45CHL1   C10 4475   0.480   3.890   6.416 -0.6521  0.1459  0.0666
   45CHL1   C19 4476   0.616   3.810   6.404 -0.6507 -0.0656  0.6384
   45CHL1  H19A 4477   0.657   3.789   6.505 -0.5147 -0.4547  0.5042
   45CHL1  H19B 4478   0.597   3.714   6.351 -0.1093 -0.0262  0.3619
   45CHL1  H19C 4479   0.695   3.863   6.347 -0.8876  0.5707  0.8952
   45CHL1    C1 4480   0.506   4.027   6.480 -0.2593  0.6373 -0.1450
   45CHL1   H1A 4481   0.575   4.070   6.405 -1.6234 -0.3845 -2.1016
   45CHL1   H1B 4482   0.408   4.078   6.475 -0.8181 -0.5194 -1.7737
   45CHL1    C2 4483   0.558   4.027   6.624  0.2375 -0.6438  0.3372
   45CHL1   H2A 4484   0.551   4.135   6.650 -0.1743 -0.3907 -0.7777
   45CHL1   H2B 4485   0.662   3.991   6.637  0.8649  1.0721  0.3583
   45CHL1   C20 4486   0.357   3.855   5.727 -0.4134  0.4705  0.8098
   45CHL1   H20 4487   0.441   3.784   5.729 -1.1686 -0.5819 -1.5167
   45CHL1   C21 4488   0.397   4.001   5.692 -0.4687  0.4485 -0.4862
   45CHL1  H21A 4489   0.465   4.046   5.768  0.9295  2.6943 -2.8854
   45CHL1  H21B 4490   0.312   4.071   5.682 -1.0826 -0.2480 -0.1540
   45CHL1  H21C 4491   0.461   4.000   5.601  1.9477 -0.8817  1.1235
   45CHL1   C22 4492   0.276   3.804   5.609  0.2347  0.4070  0.4745
   45CHL1  H22A 4493   0.216   3.712   5.626  0.4746  0.2259  0.3375
   45CHL1  H22B 4494   0.194   3.878   5.593 -1.1661 -1.4130 -1.2745
   45CHL1   C23 4495   0.349   3.774   5.478  0.2114 -0.3879  0.1777
   45CHL1  H23A 4496   0.410   3.860   5.441  0.9986 -0.2487  1.7261
   45CHL1  H23B 4497   0.425   3.699   5.507  0.3710  0.9143  3.6177
   45CHL1   C24 4498   0.250   3.714   5.382 -0.5888  0.6936 -0.5163
   45CHL1  H24A 4499   0.214   3.615   5.418 -0.1628 -0.1979 -2.4337
   45CHL1  H24B 4500   0.167   3.785   5.359  0.4199  2.2707  0.4917
   45CHL1   C25 4501   0.305   3.681   5.236 -0.0625  0.2863  0.0373
   45CHL1   H25 4502   0.393   3.613   5.246  1.5934  2.2340 -0.5564
   45CHL1   C26 4503   0.196   3.618   5.143 -0.4871  0.0671 -0.1386
   45CHL1  H26A 4504   0.109   3.685   5.124  0.4592  1.2289 -0.5336
   45CHL1  H26B 4505   0.249   3.585   5.051 -0.4625  0.2194 -0.1798
   45CHL1  H26C 4506   0.172   3.522   5.193 -0.0463  0.3894  0.7153
   45CHL1   C27 4507   0.361   3.808   5.164 -0.4912 -0.0418 -0.8363
   45CHL1  H27A 4508   0.383   3.787   5.057  1.8663  0.2634 -0.4621
   45CHL1  H27B 4509   0.279   3.881   5.177  0.0757  0.1034  2.7610
   45CHL1  H27C 4510   0.458   3.836   5.211 -0.9026  0.3035 -0.1880
   46CHL1    C3 4511   1.463   5.322   6.778 -0.0243  0.0908 -0.5368
   46CHL1    H3 4512   1.458   5.211   6.777  1.0401  0.0214 -0.1423
   46CHL1    O3 4513   1.432   5.363   6.905  0.6870 -0.5813 -0.1364
   46CHL1   H3' 4514   1.458   5.455   6.910 -1.8054  0.1344  1.0855
   46CHL1    C4 4515   1.600   5.378   6.716 -1.0322  0.0512 -0.0931
   46CHL1   H4A 4516   1.607   5.488   6.724  1.5589 -0.0904  0.1818
   46CHL1   H4B 4517   1.681   5.340   6.782  0.0367  2.5284  0.0841
   46CHL1    C5 4518   1.623   5.347   6.565  0.4396  0.2422  0.4982
   46CHL1    C6 4519   1.734   5.286   6.525 -0.1471 -0.1221 -0.0956
   46CHL1    H6 4520   1.810   5.254   6.598 -1.6964 -0.7778  1.3082
   46CHL1    C7 4521   1.763   5.237   6.384  0.1369 -0.0116  0.2987
   46CHL1   H7A 4522   1.869   5.259   6.356 -0.3569 -0.0350 -1.8022
   46CHL1   H7B 4523   1.760   5.127   6.375  2.4572 -0.0783 -0.3650
   46CHL1    C8 4524   1.671   5.306   6.283  0.8193  0.0736 -0.6117
   46CHL1    H8 4525   1.705   5.408   6.257  0.2483 -0.4150 -3.6532
   46CHL1   C14 4526   1.677   5.232   6.145 -0.1239 -0.4849 -0.2201
   46CHL1   H14 4527   1.638   5.129   6.156  3.5039 -2.3149 -2.6591
   46CHL1   C15 4528   1.817   5.199   6.085  0.9466 -0.0809 -0.3947
   46CHL1  H15A 4529   1.892   5.281   6.080  2.0136 -0.8502  1.7111
   46CHL1  H15B 4530   1.864   5.115   6.141 -0.6099 -1.8470 -1.6382
   46CHL1   C16 4531   1.775   5.158   5.937  0.4269  0.1897  0.1261
   46CHL1  H16A 4532   1.843   5.197   5.859  0.7799 -0.6029  0.0286
   46CHL1  H16B 4533   1.771   5.048   5.925  1.4208  0.1596 -0.0188
   46CHL1   C17 4534   1.625   5.203   5.918 -0.4173  0.4267  0.7102
   46CHL1   H17 4535   1.569   5.109   5.938 -1.6146  0.9417 -0.1194
   46CHL1   C13 4536   1.588   5.299   6.032 -0.6165  0.6852 -0.5060
   46CHL1   C18 4537   1.639   5.437   6.002  0.1451  0.3825  0.8592
   46CHL1  H18A 4538   1.620   5.499   6.092 -1.0798 -0.6161  1.3203
   46CHL1  H18B 4539   1.748   5.440   5.985  0.0387  1.0266  0.2069
   46CHL1  H18C 4540   1.581   5.494   5.926 -0.2817  0.5411  1.2992
   46CHL1   C12 4541   1.445   5.296   6.083 -0.2022 -0.0600  0.1937
   46CHL1  H12A 4542   1.371   5.338   6.011  1.0300 -2.0232 -2.3611
   46CHL1  H12B 4543   1.407   5.192   6.088  0.3775 -0.3290 -0.8662
   46CHL1   C11 4544   1.432   5.370   6.213  0.1675 -0.0170 -0.0101
   46CHL1  H11A 4545   1.459   5.477   6.201  0.4864 -0.1413 -0.4209
   46CHL1  H11B 4546   1.328   5.379   6.251  1.1844  1.1915  2.7950
   46CHL1    C9 4547   1.529   5.313   6.330  0.2453  1.0554  0.3776
   46CHL1    H9 4548   1.506   5.205   6.334  2.2500  0.3423 -2.9120
   46CHL1   C10 4549   1.509   5.381   6.469  0.4314 -0.2813  0.3125
   46CHL1   C19 4550   1.504   5.535   6.446 -0.0911 -1.4312  0.4997
   46CHL1  H19A 4551   1.438   5.568   6.363  0.7387 -3.0076 -0.8427
   46CHL1  H19B 4552   1.481   5.587   6.542  0.3115 -4.3591  2.3010
   46CHL1  H19C 4553   1.609   5.563   6.425 -0.1091 -1.6343  0.1315
   46CHL1    C1 4554   1.369   5.333   6.536 -0.0858 -0.6737 -0.0981
   46CHL1   H1A 4555   1.273   5.356   6.485 -0.5141 -0.1477  0.9068
   46CHL1   H1B 4556   1.373   5.222   6.537  0.9566 -0.7140  2.8243
   46CHL1    C2 4557   1.355   5.378   6.687  0.3489  0.8514 -0.1514
   46CHL1   H2A 4558   1.256   5.350   6.729  0.7262 -0.5640 -0.1488
   46CHL1   H2B 4559   1.366   5.488   6.697  5.1018  0.6915 -1.0489
   46CHL1   C20 4560   1.593   5.235   5.775  0.2045  0.1275 -0.4085
   46CHL1   H20 4561   1.648   5.324   5.738 -0.4658  0.0626 -1.5709
   46CHL1   C21 4562   1.451   5.270   5.754  0.0108  0.2118  0.6290
   46CHL1  H21A 4563   1.377   5.189   5.768 -1.2364  1.3069  0.5750
   46CHL1  H21B 4564   1.447   5.283   5.644 -0.6141 -2.5402  0.2682
   46CHL1  H21C 4565   1.417   5.362   5.807 -0.3241  0.1036  0.6005
   46CHL1   C22 4566   1.630   5.132   5.669  0.2101  0.6352 -0.2207
   46CHL1  H22A 4567   1.665   5.031   5.700  1.0884  1.1465  0.5296
   46CHL1  H22B 4568   1.537   5.105   5.616 -0.2836 -0.2590  1.0652
   46CHL1   C23 4569   1.731   5.169   5.558  0.2160  0.1817  0.1201
   46CHL1  H23A 4570   1.833   5.175   5.601  1.8984 -0.1298 -3.4901
   46CHL1  H23B 4571   1.740   5.087   5.484 -0.3523  1.0608 -0.9466
   46CHL1   C24 4572   1.706   5.308   5.478 -0.4983  0.7515  0.4762
   46CHL1  H24A 4573   1.688   5.388   5.553  0.2808  0.3418  1.1177
   46CHL1  H24B 4574   1.796   5.317   5.414 -1.6608 -2.1065 -1.7948
   46CHL1   C25 4575   1.587   5.304   5.377  0.1154 -0.6195  0.2076
   46CHL1   H25 4576   1.514   5.240   5.431  1.0839 -0.3380  1.9184
   46CHL1   C26 4577   1.531   5.448   5.350  0.0656  0.1949 -0.7243
   46CHL1  H26A 4578   1.625   5.494   5.313  1.1549 -1.0958  0.3234
   46CHL1  H26B 4579   1.462   5.450   5.263 -0.2505 -0.9443 -0.5210
   46CHL1  H26C 4580   1.490   5.483   5.447  0.7211 -0.5758 -0.1504
   46CHL1   C27 4581   1.628   5.222   5.246 -0.2843  0.0639 -0.7300
   46CHL1  H27A 4582   1.670   5.126   5.282  2.3277  1.5497  0.4630
   46CHL1  H27B 4583   1.536   5.202   5.187 -0.8791  0.5534  0.0036
   46CHL1  H27C 4584   1.704   5.273   5.183  2.8251 -2.0457  1.0197
   47CHL1    C3 4585   2.838   1.247   6.986  0.0468  0.1722  0.6366
   47CHL1    H3 4586   2.948   1.240   6.976 -0.0223 -0.7789  0.4667
   47CHL1    O3 4587   2.814   1.275   7.126  0.1578 -0.2985  0.4650
   47CHL1   H3' 4588   2.726   1.313   7.123 -0.3871 -1.4916 -1.6803
   47CHL1    C4 4589   2.790   1.358   6.892 -0.0238  0.1980 -0.6767
   47CHL1   H4A 4590   2.687   1.395   6.915 -0.8403 -0.9442 -2.2532
   47CHL1   H4B 4591   2.852   1.442   6.929  0.5835 -1.5136  2.5546
   47CHL1    C5 4592   2.806   1.326   6.746  0.2163 -0.5101  0.0586
   47CHL1    C6 4593   2.883   1.409   6.669 -0.9776 -0.1204 -0.1785
   47CHL1    H6 4594   2.921   1.505   6.705  0.3431 -0.6475 -0.1039
   47CHL1    C7 4595   2.905   1.377   6.524 -0.0760 -0.2997 -0.8079
   47CHL1   H7A 4596   2.913   1.469   6.462  0.8509  0.0063 -0.2609
   47CHL1   H7B 4597   3.001   1.327   6.496  0.0756  0.1932 -1.1690
   47CHL1    C8 4598   2.788   1.293   6.470 -0.2873 -0.6015 -0.3697
   47CHL1    H8 4599   2.697   1.357   6.469  0.6845  0.8425 -0.0711
   47CHL1   C14 4600   2.828   1.245   6.324  0.1164  0.3994  0.1531
   47CHL1   H14 4601   2.921   1.185   6.329 -1.3465 -1.9272  1.0975
   47CHL1   C15 4602   2.862   1.354   6.216  0.1986  0.1804  0.0468
   47CHL1  H15A 4603   2.795   1.443   6.215 -0.2453 -0.1492  0.3970
   47CHL1  H15B 4604   2.962   1.401   6.226  0.1531  0.4012 -0.4737
   47CHL1   C16 4605   2.856   1.269   6.084  0.1664  0.0033  0.3295
   47CHL1  H16A 4606   2.806   1.333   6.008 -2.3429 -1.7978  0.3549
   47CHL1  H16B 4607   2.959   1.251   6.044 -1.3738 -0.9807 -3.6570
   47CHL1   C17 4608   2.783   1.138   6.118 -0.3274 -0.4501 -0.1106
   47CHL1   H17 4609   2.864   1.065   6.142 -0.4287 -0.1035  1.4106
   47CHL1   C13 4610   2.718   1.158   6.261  0.0297  0.2674  0.2239
   47CHL1   C18 4611   2.595   1.253   6.245 -0.1735 -0.1150 -0.1962
   47CHL1  H18A 4612   2.623   1.353   6.207  0.7603 -0.5163 -0.5947
   47CHL1  H18B 4613   2.519   1.201   6.183 -4.2842  1.1849  3.3259
   47CHL1  H18C 4614   2.540   1.269   6.340  0.3865 -1.4766  0.3866
   47CHL1   C12 4615   2.703   1.024   6.344  0.2924 -0.3223 -1.3184
   47CHL1  H12A 4616   2.625   0.959   6.299 -0.4663 -0.9001  0.6906
   47CHL1  H12B 4617   2.797   0.966   6.333 -0.1864 -1.7884  1.3080
   47CHL1   C11 4618   2.680   1.056   6.496  0.1844 -0.9866 -0.3333
   47CHL1  H11A 4619   2.572   1.083   6.500 -0.0332 -1.8634 -0.1188
   47CHL1  H11B 4620   2.687   0.961   6.552 -1.0595 -2.3288 -2.3095
   47CHL1    C9 4621   2.772   1.164   6.557  0.3765  0.6399 -0.6673
   47CHL1    H9 4622   2.878   1.130   6.552  0.4295  0.5279  0.8115
   47CHL1   C10 4623   2.740   1.188   6.704  0.1113  0.7083  0.3336
   47CHL1   C19 4624   2.586   1.203   6.727  0.3270 -0.2541  0.3128
   47CHL1  H19A 4625   2.545   1.271   6.650  0.0788 -0.6048  0.1281
   47CHL1  H19B 4626   2.527   1.109   6.716 -2.5850  1.5705 -1.0175
   47CHL1  H19C 4627   2.562   1.259   6.820 -2.1099  1.1857 -1.0610
   47CHL1    C1 4628   2.804   1.081   6.799  1.0017  0.5277  0.0990
   47CHL1   H1A 4629   2.761   0.982   6.776  1.2403  0.5829 -0.6168
   47CHL1   H1B 4630   2.909   1.061   6.767  0.6722 -1.8997  0.3862
   47CHL1    C2 4631   2.781   1.107   6.948  0.2612  0.1046  0.5283
   47CHL1   H2A 4632   2.829   1.026   7.008 -1.0629 -0.7140  0.5181
   47CHL1   H2B 4633   2.674   1.111   6.978  0.2251 -0.3601  0.4582
   47CHL1   C20 4634   2.700   1.085   5.996 -0.4587 -0.1583  0.0848
   47CHL1   H20 4635   2.621   1.160   5.972 -0.1399 -0.2010 -1.1191
   47CHL1   C21 4636   2.633   0.952   6.034 -0.5546 -0.0416 -0.1595
   47CHL1  H21A 4637   2.581   0.897   5.953 -0.4640  0.9892 -0.9438
   47CHL1  H21B 4638   2.551   0.963   6.108 -1.6735 -1.9764 -1.0363
   47CHL1  H21C 4639   2.711   0.901   6.094 -0.6952 -0.1464 -0.0638
   47CHL1   C22 4640   2.784   1.074   5.860  0.5237  0.9807  0.6014
   47CHL1  H22A 4641   2.820   1.176   5.835  1.2631  0.2131 -1.7610
   47CHL1  H22B 4642   2.871   1.007   5.872 -0.3732 -0.6838 -1.4830
   47CHL1   C23 4643   2.697   1.027   5.735  0.0876  0.2872  0.1560
   47CHL1  H23A 4644   2.685   0.917   5.741  1.0013  0.1208 -0.7194
   47CHL1  H23B 4645   2.599   1.079   5.741 -0.7346 -1.2176  0.1842
   47CHL1   C24 4646   2.764   1.063   5.600  0.1089  0.4933  0.3544
   47CHL1  H24A 4647   2.796   1.169   5.611  0.8234  0.5134 -1.5478
   47CHL1  H24B 4648   2.856   1.001   5.586  0.6050  1.3788 -0.4126
   47CHL1   C25 4649   2.681   1.045   5.470 -0.2606 -0.0164  0.2525
   47CHL1   H25 4650   2.753   1.065   5.388 -1.0820 -0.0522 -0.4886
   47CHL1   C26 4651   2.611   0.905   5.452 -0.1174 -0.5514  0.4345
   47CHL1  H26A 4652   2.541   0.890   5.537 -1.2169  0.1761 -0.3156
   47CHL1  H26B 4653   2.546   0.927   5.364 -1.9305  0.1757  1.8796
   47CHL1  H26C 4654   2.690   0.831   5.430  0.7542  0.7347 -0.9608
   47CHL1   C27 4655   2.576   1.150   5.467  0.1635  0.2758 -0.3957
   47CHL1  H27A 4656   2.498   1.139   5.545 -2.1235  0.8092 -2.4721
   47CHL1  H27B 4657   2.627   1.247   5.486 -0.1673 -0.0701  2.7035
   47CHL1  H27C 4658   2.534   1.157   5.364  1.8523 -0.2491 -1.1482
   48CHL1    C3 4659   3.758   1.874   6.575 -0.1314 -0.6416 -0.2536
   48CHL1    H3 4660   3.738   1.984   6.575  0.7669 -0.4761 -0.3929
   48CHL1    O3 4661   3.790   1.835   6.708  0.2318  0.1458  0.1760
   48CHL1   H3' 4662   3.881   1.859   6.727 -0.9430  3.9326  1.9939
   48CHL1    C4 4663   3.616   1.815   6.529  0.0728  0.2688 -0.1428
   48CHL1   H4A 4664   3.615   1.706   6.550 -0.4015  0.6122  1.8244
   48CHL1   H4B 4665   3.544   1.861   6.600  0.1748  1.1943 -0.6266
   48CHL1    C5 4666   3.587   1.843   6.382 -0.4032 -0.2725 -0.3171
   48CHL1    C6 4667   3.473   1.901   6.347 -0.4946 -0.0471  0.1050
   48CHL1    H6 4668   3.395   1.937   6.416 -0.8639  1.0908 -0.8704
   48CHL1    C7 4669   3.428   1.920   6.197 -1.0056  0.1275  0.1132
   48CHL1   H7A 4670   3.321   1.896   6.184 -1.6679  1.5538  2.5540
   48CHL1   H7B 4671   3.442   2.023   6.157 -1.8028 -0.6656 -2.4276
   48CHL1    C8 4672   3.523   1.839   6.095  0.5727 -1.2896  0.3658
   48CHL1    H8 4673   3.486   1.735   6.105 -1.0388 -1.0145 -1.9038
   48CHL1   C14 4674   3.509   1.891   5.951  0.6730  0.9730  0.0162
   48CHL1   H14 4675   3.537   1.998   5.948 -0.3848  1.3134 -3.8464
   48CHL1   C15 4676   3.363   1.886   5.903  0.0510  0.1575  0.0516
   48CHL1  H15A 4677   3.321   1.786   5.925 -1.5900  0.7274 -0.3081
   48CHL1  H15B 4678   3.305   1.971   5.945  2.4376  1.2694  1.2683
   48CHL1   C16 4679   3.388   1.894   5.749  0.0077  0.2763 -0.8580
   48CHL1  H16A 4680   3.332   1.807   5.710  1.8653 -1.4118  0.0501
   48CHL1  H16B 4681   3.358   1.992   5.707 -0.5097  0.4232 -0.1664
   48CHL1   C17 4682   3.540   1.888   5.720  0.1856 -0.4282 -0.0862
   48CHL1   H17 4683   3.585   1.990   5.721  2.2415 -1.2729 -0.3187
   48CHL1   C13 4684   3.594   1.816   5.852  0.2425 -0.3475  0.6451
   48CHL1   C18 4685   3.571   1.658   5.850  0.0322  0.2183  0.4291
   48CHL1  H18A 4686   3.465   1.634   5.828 -0.0555  0.7504  0.2811
   48CHL1  H18B 4687   3.624   1.614   5.762 -1.6726  2.4859 -1.8558
   48CHL1  H18C 4688   3.606   1.594   5.934 -0.0350  0.0272  0.3122
   48CHL1   C12 4689   3.740   1.841   5.887  0.5812 -0.3360  0.1776
   48CHL1  H12A 4690   3.811   1.793   5.816  0.0578 -0.5511 -0.2050
   48CHL1  H12B 4691   3.750   1.951   5.872 -0.7519 -0.1266  0.7179
   48CHL1   C11 4692   3.777   1.797   6.032  0.3600 -0.2874 -0.5376
   48CHL1  H11A 4693   3.807   1.691   6.037  0.0201 -0.3567  0.1796
   48CHL1  H11B 4694   3.873   1.844   6.063 -0.1804  0.6350 -0.2071
   48CHL1    C9 4695   3.671   1.848   6.142  0.1083  0.4522  0.2791
   48CHL1    H9 4696   3.693   1.957   6.143  3.7308 -0.1231  1.6961
   48CHL1   C10 4697   3.698   1.797   6.287  0.3753  0.3659 -0.3098
   48CHL1   C19 4698   3.695   1.644   6.283 -0.9915  0.1427 -0.1581
   48CHL1  H19A 4699   3.792   1.614   6.238 -1.0699  0.4900 -0.5608
   48CHL1  H19B 4700   3.704   1.597   6.383 -1.1631 -1.6556 -0.9466
   48CHL1  H19C 4701   3.616   1.607   6.214  1.0809 -1.3565 -1.8894
   48CHL1    C1 4702   3.837   1.855   6.336  0.5131  0.3755  0.7490
   48CHL1   H1A 4703   3.913   1.826   6.260  0.5388  0.4051  0.7632
   48CHL1   H1B 4704   3.825   1.966   6.335 -0.0465  0.3703  2.9614
   48CHL1    C2 4705   3.868   1.831   6.482 -0.1957  1.1719  0.7919
   48CHL1   H2A 4706   3.957   1.886   6.519 -0.3455  1.8375  0.1960
   48CHL1   H2B 4707   3.884   1.722   6.499  1.2971  0.9492 -1.5000
   48CHL1   C20 4708   3.586   1.832   5.584 -0.3216  0.6450  0.0316
   48CHL1   H20 4709   3.575   1.721   5.580 -3.2230  0.8992 -1.3202
   48CHL1   C21 4710   3.729   1.877   5.553 -0.0792  0.5967 -0.5712
   48CHL1  H21A 4711   3.756   1.833   5.455  1.7471 -3.2624  1.4208
   48CHL1  H21B 4712   3.734   1.987   5.551 -0.7495  0.7359  1.8984
   48CHL1  H21C 4713   3.803   1.841   5.628 -0.7760  1.4649  0.5693
   48CHL1   C22 4714   3.493   1.888   5.473 -0.3904  0.3619  0.2476
   48CHL1  H22A 4715   3.398   1.830   5.480  0.9429 -2.0450 -0.6781
   48CHL1  H22B 4716   3.468   1.996   5.482  0.1553  0.5211 -0.1303
   48CHL1   C23 4717   3.533   1.844   5.331 -0.0903  0.2118 -0.2068
   48CHL1  H23A 4718   3.635   1.878   5.304 -0.5104  1.5911 -0.1208
   48CHL1  H23B 4719   3.535   1.733   5.329 -2.7857  0.1118 -1.5101
   48CHL1   C24 4720   3.425   1.887   5.236 -0.1353 -0.9008 -0.3731
   48CHL1  H24A 4721   3.327   1.852   5.274  1.1436 -2.3978  1.7958
   48CHL1  H24B 4722   3.427   1.996   5.215 -0.6752 -0.2682  2.4151
   48CHL1   C25 4723   3.454   1.807   5.103  0.4672 -0.2257 -0.1397
   48CHL1   H25 4724   3.468   1.702   5.137  1.0989 -0.0453  0.1732
   48CHL1   C26 4725   3.338   1.834   5.005  0.1695 -0.7617 -0.1155
   48CHL1  H26A 4726   3.344   1.773   4.912 -1.3139 -0.8605 -0.1655
   48CHL1  H26B 4727   3.239   1.811   5.049 -0.1328  0.5476 -0.0598
   48CHL1  H26C 4728   3.330   1.944   4.987 -3.3428 -0.5457  1.8362
   48CHL1   C27 4729   3.585   1.854   5.034 -0.8334  0.2873  0.2615
   48CHL1  H27A 4730   3.667   1.788   5.071  0.6443 -0.2659 -3.5173
   48CHL1  H27B 4731   3.581   1.838   4.924 -0.8687  0.2274  0.2712
   48CHL1  H27C 4732   3.598   1.962   5.053 -2.5494  0.2672  1.8466
   49CHL1    C3 4733   1.864   4.472   3.464 -0.6649  0.5107  0.1877
   49CHL1    H3 4734   1.911   4.572   3.481  0.9284 -0.1311 -0.3019
   49CHL1    O3 4735   1.820   4.451   3.327 -0.3931 -0.2299 -0.4120
   49CHL1   H3' 4736   1.768   4.528   3.304  2.5463  1.6380 -1.4144
   49CHL1    C4 4737   1.952   4.351   3.507 -0.0681  0.5743 -0.7752
   49CHL1   H4A 4738   1.903   4.254   3.485 -1.9649  1.2368  0.2122
   49CHL1   H4B 4739   2.041   4.349   3.441 -0.6538  2.0575 -1.6654
   49CHL1    C5 4740   1.981   4.351   3.654 -0.5219 -0.6292 -0.1200
   49CHL1    C6 4741   2.114   4.354   3.699 -0.2331 -0.4405  0.4095
   49CHL1    H6 4742   2.189   4.337   3.621  1.0724  1.7343  1.1142
   49CHL1    C7 4743   2.159   4.368   3.843 -0.1187 -0.2127  0.3740
   49CHL1   H7A 4744   2.248   4.304   3.858  1.5264  2.1174  1.0863
   49CHL1   H7B 4745   2.194   4.474   3.852 -0.3757  0.0047 -0.9422
   49CHL1    C8 4746   2.041   4.329   3.938  0.1840 -0.5298  0.1494
   49CHL1    H8 4747   2.036   4.218   3.935 -0.2895 -0.6023  2.1336
   49CHL1   C14 4748   2.071   4.381   4.077 -0.2626  0.2265 -0.3469
   49CHL1   H14 4749   2.087   4.491   4.070  0.4876  0.2665  1.4765
   49CHL1   C15 4750   2.207   4.345   4.142 -0.1766  0.0227 -0.3030
   49CHL1  H15A 4751   2.232   4.241   4.114  3.3249  0.6885 -0.1520
   49CHL1  H15B 4752   2.281   4.422   4.112 -0.5358  1.1071  1.4616
   49CHL1   C16 4753   2.181   4.349   4.293  1.0723 -0.0870 -0.9935
   49CHL1  H16A 4754   2.208   4.247   4.327  3.7994  0.3601 -1.6134
   49CHL1  H16B 4755   2.244   4.427   4.342 -0.2229 -0.2880  1.1165
   49CHL1   C17 4756   2.028   4.383   4.311 -0.4241  0.0648 -0.1216
   49CHL1   H17 4757   2.023   4.494   4.318  0.5464  0.3431 -2.6401
   49CHL1   C13 4758   1.963   4.342   4.181  0.0549 -0.3732 -0.3547
   49CHL1   C18 4759   1.927   4.193   4.184 -0.3832  0.0989  0.2431
   49CHL1  H18A 4760   1.898   4.148   4.086  2.0418 -0.7750 -0.1532
   49CHL1  H18B 4761   2.018   4.136   4.214 -1.8735 -1.2763  2.4396
   49CHL1  H18C 4762   1.857   4.178   4.269  0.0120  0.5084  0.6463
   49CHL1   C12 4763   1.836   4.432   4.147  0.3248  0.3734  1.0085
   49CHL1  H12A 4764   1.755   4.409   4.218  1.5176 -2.8370  1.5221
   49CHL1  H12B 4765   1.873   4.537   4.149  0.4246  0.3404  0.9395
   49CHL1   C11 4766   1.791   4.407   3.999 -0.2529  0.2558 -1.0661
   49CHL1  H11A 4767   1.749   4.304   4.006 -3.6760  1.5929  1.1259
   49CHL1  H11B 4768   1.697   4.456   3.967  0.5865  1.7762 -1.2590
   49CHL1    C9 4769   1.910   4.404   3.900  0.6190 -0.4911  0.2785
   49CHL1    H9 4770   1.937   4.511   3.894 -1.1380 -0.0388 -0.0986
   49CHL1   C10 4771   1.864   4.361   3.758 -0.4586 -0.6093  0.3213
   49CHL1   C19 4772   1.783   4.230   3.766 -0.5626 -0.4004  0.1100
   49CHL1  H19A 4773   1.837   4.169   3.841 -2.0279 -1.0031  0.7127
   49CHL1  H19B 4774   1.682   4.242   3.811  0.1284  0.2643  1.5700
   49CHL1  H19C 4775   1.776   4.173   3.670  0.3304  2.7938 -2.0152
   49CHL1    C1 4776   1.770   4.471   3.696  1.2359 -0.7212  0.0310
   49CHL1   H1A 4777   1.675   4.467   3.752  0.4665  1.8519 -0.9040
   49CHL1   H1B 4778   1.814   4.572   3.709  0.3944 -0.6542  2.8825
   49CHL1    C2 4779   1.738   4.467   3.547  0.7367 -0.1615 -0.1976
   49CHL1   H2A 4780   1.658   4.540   3.523 -0.0026  0.1365  2.7832
   49CHL1   H2B 4781   1.691   4.367   3.536  2.9222 -1.2895  0.1103
   49CHL1   C20 4782   1.969   4.336   4.447 -0.1190  0.6319  0.0208
   49CHL1   H20 4783   1.961   4.225   4.440 -3.7188  0.6883  0.8471
   49CHL1   C21 4784   1.825   4.394   4.471 -0.3158 -0.5481  0.1430
   49CHL1  H21A 4785   1.803   4.388   4.580 -0.4233  0.9968  0.2317
   49CHL1  H21B 4786   1.748   4.347   4.407 -0.8474  2.5510 -1.7163
   49CHL1  H21C 4787   1.827   4.502   4.445  1.0409  0.0360  2.3802
   49CHL1   C22 4788   2.064   4.365   4.568 -0.0806 -0.2173 -0.2743
   49CHL1  H22A 4789   2.164   4.317   4.558 -1.1840 -2.7725  0.3111
   49CHL1  H22B 4790   2.091   4.473   4.560 -0.6581  0.0319  0.9551
   49CHL1   C23 4791   2.011   4.318   4.706  0.0749 -0.5288 -0.5741
   49CHL1  H23A 4792   1.931   4.390   4.735  1.2427  0.1180  1.2322
   49CHL1  H23B 4793   1.963   4.218   4.700 -1.6871 -0.0390  2.7642
   49CHL1   C24 4794   2.113   4.326   4.826  0.7296 -1.1837 -0.0954
   49CHL1  H24A 4795   2.200   4.263   4.797 -0.4300 -2.6831 -0.4280
   49CHL1  H24B 4796   2.150   4.430   4.841 -1.1870 -0.7837  2.5986
   49CHL1   C25 4797   2.050   4.290   4.964  0.0022 -0.1877  0.5112
   49CHL1   H25 4798   1.972   4.213   4.946 -1.5964  1.7798 -1.3738
   49CHL1   C26 4799   2.154   4.212   5.048 -0.8314  0.4258 -0.4082
   49CHL1  H26A 4800   2.095   4.163   5.129 -0.2502  1.2886  0.5608
   49CHL1  H26B 4801   2.199   4.129   4.990 -1.7871  0.3821 -1.1081
   49CHL1  H26C 4802   2.232   4.280   5.088 -2.0594  1.2395  0.6723
   49CHL1   C27 4803   1.976   4.409   5.025  0.0471 -0.5084  0.1511
   49CHL1  H27A 4804   1.922   4.389   5.120 -0.1799 -2.6116 -0.3593
   49CHL1  H27B 4805   2.052   4.483   5.055 -0.6291  0.1886  0.1715
   49CHL1  H27C 4806   1.899   4.452   4.957  0.0019 -0.7560  0.0434
   50CHL1    C3 4807   1.991   1.022   3.912 -0.8176  0.6273 -0.8369
   50CHL1    H3 4808   1.994   1.133   3.910  1.7381  0.6255 -0.5832
   50CHL1    O3 4809   1.995   0.970   3.785  0.4638  0.2644  0.3381
   50CHL1   H3' 4810   1.964   0.881   3.801  0.3794  0.7073  3.2513
   50CHL1    C4 4811   2.111   0.978   3.997 -0.5338 -0.3756 -0.5410
   50CHL1   H4A 4812   2.125   0.869   3.982 -0.1199 -0.6369  1.4742
   50CHL1   H4B 4813   2.194   1.035   3.951 -0.8636  1.4250  0.9834
   50CHL1    C5 4814   2.100   1.012   4.142 -0.0138 -0.4212 -1.2288
   50CHL1    C6 4815   2.198   1.090   4.204 -0.1338  0.1367 -0.6237
   50CHL1    H6 4816   2.286   1.128   4.149  1.0424 -1.0743  0.3690
   50CHL1    C7 4817   2.200   1.117   4.358  0.3467 -0.2724 -0.1445
   50CHL1   H7A 4818   2.297   1.083   4.398 -1.2881 -3.7839  1.2930
   50CHL1   H7B 4819   2.184   1.227   4.363  1.1668 -0.0879 -1.1717
   50CHL1    C8 4820   2.091   1.038   4.434  0.2623 -0.1748  0.1388
   50CHL1    H8 4821   2.123   0.933   4.450 -1.2801 -0.3139  3.0311
   50CHL1   C14 4822   2.078   1.090   4.573  0.2417  0.6361  0.2070
   50CHL1   H14 4823   2.058   1.199   4.570 -0.2630  0.5699  1.0255
   50CHL1   C15 4824   2.206   1.079   4.657 -0.0210  0.0711  0.2338
   50CHL1  H15A 4825   2.269   0.990   4.633 -0.0601 -0.6322  2.4400
   50CHL1  H15B 4826   2.271   1.168   4.643  1.4607 -1.1981 -1.3287
   50CHL1   C16 4827   2.149   1.075   4.799 -0.5706 -1.1635 -0.0882
   50CHL1  H16A 4828   2.176   0.977   4.844  0.8411 -0.2287  1.1553
   50CHL1  H16B 4829   2.173   1.158   4.868 -2.8333 -2.4116  2.4201
   50CHL1   C17 4830   1.995   1.090   4.791 -0.2715 -0.7056  0.4014
   50CHL1   H17 4831   1.973   1.199   4.787  2.1561 -0.1938 -0.5431
   50CHL1   C13 4832   1.959   1.034   4.648 -0.1588  0.6065 -0.2456
   50CHL1   C18 4833   1.955   0.874   4.663 -0.0587 -0.4480  0.4353
   50CHL1  H18A 4834   1.963   0.826   4.563  2.1389 -1.2248  0.9386
   50CHL1  H18B 4835   2.045   0.837   4.716 -0.3610 -2.5179 -0.3730
   50CHL1  H18C 4836   1.856   0.853   4.711 -1.0995 -1.1696 -1.8672
   50CHL1   C12 4837   1.834   1.082   4.581  0.3493  0.1561 -0.0830
   50CHL1  H12A 4838   1.744   1.053   4.640 -0.4057  0.4033 -1.0854
   50CHL1  H12B 4839   1.833   1.193   4.572  0.8278  0.4355  2.4958
   50CHL1   C11 4840   1.824   1.025   4.437 -0.0929 -0.2938 -0.0305
   50CHL1  H11A 4841   1.799   0.917   4.445  0.0895 -0.2912  0.6329
   50CHL1  H11B 4842   1.745   1.081   4.382 -1.8006  0.8609  3.2979
   50CHL1    C9 4843   1.955   1.054   4.357 -0.0315  0.1277 -0.7375
   50CHL1    H9 4844   1.960   1.163   4.336 -0.9699  0.3625  0.2192
   50CHL1   C10 4845   1.969   0.988   4.215 -0.0745  0.3398 -0.4023
   50CHL1   C19 4846   1.967   0.834   4.242  0.5628  0.0747 -0.1617
   50CHL1  H19A 4847   2.038   0.807   4.323  0.6794 -1.2999 -0.7090
   50CHL1  H19B 4848   1.867   0.800   4.275  0.8396 -0.6027 -0.0178
   50CHL1  H19C 4849   1.986   0.776   4.149 -2.2585 -1.3294  0.0479
   50CHL1    C1 4850   1.852   1.037   4.126  0.0542 -0.6780  0.5280
   50CHL1   H1A 4851   1.751   1.003   4.157  0.3006 -1.6799  0.2630
   50CHL1   H1B 4852   1.851   1.147   4.139 -2.8572 -0.5192 -0.4369
   50CHL1    C2 4853   1.859   0.985   3.979  0.4031 -0.1532 -0.4450
   50CHL1   H2A 4854   1.775   1.027   3.918  1.6296  1.5669 -1.0183
   50CHL1   H2B 4855   1.851   0.874   3.981  0.9520 -0.2175 -1.3298
   50CHL1   C20 4856   1.919   1.029   4.912 -0.1799  0.2600 -0.3531
   50CHL1   H20 4857   1.938   0.920   4.920  1.2272  0.6292  4.5407
   50CHL1   C21 4858   1.762   1.046   4.906  0.3134  0.4858  0.4203
   50CHL1  H21A 4859   1.716   1.032   5.006  0.7944  0.2284  0.6125
   50CHL1  H21B 4860   1.717   0.977   4.831  1.2955 -2.1229  2.0746
   50CHL1  H21C 4861   1.739   1.151   4.880 -0.1131 -0.2832 -2.7069
   50CHL1   C22 4862   1.962   1.077   5.049 -0.2404 -0.5999 -1.1852
   50CHL1  H22A 4863   1.909   1.017   5.126 -1.6696  0.6550 -1.1461
   50CHL1  H22B 4864   2.072   1.067   5.063 -0.4971  0.0895  2.2905
   50CHL1   C23 4865   1.930   1.231   5.073 -0.0109 -0.1531  1.2516
   50CHL1  H23A 4866   1.963   1.295   4.988 -3.4282  0.7963  0.4787
   50CHL1  H23B 4867   1.820   1.244   5.082 -0.6583 -2.0222 -2.1134
   50CHL1   C24 4868   1.991   1.277   5.205  0.1300 -0.6794  0.3493
   50CHL1  H24A 4869   1.947   1.376   5.228  1.1863  0.8732 -3.4283
   50CHL1  H24B 4870   1.964   1.207   5.287 -4.7963  0.6920  0.2045
   50CHL1   C25 4871   2.147   1.304   5.201 -0.9603 -0.0053  0.6828
   50CHL1   H25 4872   2.197   1.218   5.151  1.3903  1.3621  0.5413
   50CHL1   C26 4873   2.175   1.428   5.114  0.4307 -0.3939 -0.2463
   50CHL1  H26A 4874   2.128   1.424   5.013  0.2443  1.6901 -0.2797
   50CHL1  H26B 4875   2.122   1.508   5.169 -0.3315 -2.8753  2.9655
   50CHL1  H26C 4876   2.281   1.459   5.097 -0.4262  2.0358 -1.4674
   50CHL1   C27 4877   2.219   1.314   5.335 -0.4728  0.0898 -0.4137
   50CHL1  H27A 4878   2.181   1.234   5.402 -1.7021  0.2032 -0.9418
   50CHL1  H27B 4879   2.328   1.305   5.318 -0.4118 -0.4204  0.2161
   50CHL1  H27C 4880   2.196   1.408   5.391 -0.2317 -2.8013  5.3121
   51CHL1    C3 4881   2.804   3.909   3.124  0.7042 -0.6290 -0.4336
   51CHL1    H3 4882   2.870   3.834   3.174  1.0688  0.4390  0.7330
   51CHL1    O3 4883   2.827   3.902   2.985  0.1007  0.2895 -0.1503
   51CHL1   H3' 4884   2.785   3.978   2.945  1.0062  0.2602 -1.2247
   51CHL1    C4 4885   2.659   3.879   3.155 -0.3085 -0.1881  0.9121
   51CHL1   H4A 4886   2.580   3.942   3.110  0.3169  0.4758  0.7235
   51CHL1   H4B 4887   2.647   3.777   3.112  0.7284 -0.4911  1.3239
   51CHL1    C5 4888   2.633   3.880   3.302  0.0503 -0.0586 -0.1937
   51CHL1    C6 4889   2.589   3.768   3.368  0.1356 -0.2743  0.1246
   51CHL1    H6 4890   2.571   3.674   3.314 -1.4139  0.1270 -0.1095
   51CHL1    C7 4891   2.586   3.759   3.514  0.2432  0.0428 -0.3282
   51CHL1   H7A 4892   2.487   3.720   3.546  1.0019 -0.8451  1.0531
   51CHL1   H7B 4893   2.662   3.686   3.549  1.8201  1.7816 -0.0103
   51CHL1    C8 4894   2.596   3.892   3.596  0.0408 -0.5316  0.2644
   51CHL1    H8 4895   2.494   3.933   3.579  0.2233 -1.2124 -3.5866
   51CHL1   C14 4896   2.620   3.871   3.741 -0.2937 -0.4819  0.2704
   51CHL1   H14 4897   2.724   3.834   3.752  0.1122  0.4883 -0.2254
   51CHL1   C15 4898   2.535   3.767   3.814 -0.5550 -0.6621 -0.1089
   51CHL1  H15A 4899   2.429   3.764   3.780 -0.4480  0.6237 -0.6273
   51CHL1  H15B 4900   2.574   3.663   3.811  0.4658 -0.2712 -0.6967
   51CHL1   C16 4901   2.538   3.811   3.962  0.3112  1.2893 -0.1622
   51CHL1  H16A 4902   2.432   3.837   3.986 -0.4925 -2.7205  1.4878
   51CHL1  H16B 4903   2.562   3.731   4.036 -1.0522 -0.1384 -1.2080
   51CHL1   C17 4904   2.630   3.936   3.974 -0.8225 -0.2515  0.0333
   51CHL1   H17 4905   2.735   3.902   3.981 -0.2504  0.7586 -2.6413
   51CHL1   C13 4906   2.623   4.000   3.828 -0.2867 -0.0642  0.4793
   51CHL1   C18 4907   2.489   4.081   3.816  0.1141 -0.1114  0.5998
   51CHL1  H18A 4908   2.406   4.023   3.861  0.2619 -1.0089 -0.2492
   51CHL1  H18B 4909   2.500   4.178   3.868 -1.1082  1.1935 -1.4421
   51CHL1  H18C 4910   2.471   4.101   3.708  0.3018  0.4459  0.6705
   51CHL1   C12 4911   2.740   4.089   3.770  0.4690 -0.4413  0.3478
   51CHL1  H12A 4912   2.733   4.187   3.821 -1.0370  0.8329 -2.0886
   51CHL1  H12B 4913   2.834   4.037   3.799 -0.3385 -0.5408  2.9770
   51CHL1   C11 4914   2.716   4.115   3.619  0.2767 -0.0178 -0.0096
   51CHL1  H11A 4915   2.619   4.167   3.608 -1.0922 -2.4722 -0.4380
   51CHL1  H11B 4916   2.788   4.189   3.579  2.0683 -1.5481  0.2143
   51CHL1    C9 4917   2.703   3.984   3.537 -0.7986 -0.2773 -0.3006
   51CHL1    H9 4918   2.801   3.931   3.546 -0.3789  0.4178 -0.6235
   51CHL1   C10 4919   2.688   4.005   3.384 -0.8244  0.5665  0.1134
   51CHL1   C19 4920   2.591   4.122   3.358  0.2423 -0.4658 -0.2161
   51CHL1  H19A 4921   2.494   4.093   3.404 -0.8525  2.3083 -0.5760
   51CHL1  H19B 4922   2.621   4.217   3.408 -1.3215 -2.0393  4.2099
   51CHL1  H19C 4923   2.573   4.142   3.250 -0.6903  0.9650  0.1785
   51CHL1    C1 4924   2.836   4.040   3.326  0.8560 -0.0412  0.0845
   51CHL1   H1A 4925   2.881   4.130   3.373  2.8547 -1.3173  0.7307
   51CHL1   H1B 4926   2.899   3.957   3.364  0.0602 -0.1559  1.2392
   51CHL1    C2 4927   2.850   4.048   3.177  0.2057  0.1695  0.4548
   51CHL1   H2A 4928   2.958   4.066   3.158  0.3703 -0.2672  0.9698
   51CHL1   H2B 4929   2.781   4.123   3.133 -2.4940 -1.9032  0.8538
   51CHL1   C20 4930   2.596   4.021   4.091  0.0070  0.1488 -0.0236
   51CHL1   H20 4931   2.495   4.063   4.072 -0.0679 -0.3644 -0.7992
   51CHL1   C21 4932   2.700   4.131   4.105 -0.5207 -0.0295 -0.7830
   51CHL1  H21A 4933   2.683   4.223   4.165 -1.7434 -0.6594 -0.1393
   51CHL1  H21B 4934   2.719   4.190   4.012  0.1099  2.4959  0.8467
   51CHL1  H21C 4935   2.798   4.090   4.136 -0.2227  0.1766 -1.4255
   51CHL1   C22 4936   2.571   3.941   4.222  0.2573  0.9321 -1.2408
   51CHL1  H22A 4937   2.475   3.888   4.202  0.9632 -0.8244 -0.1958
   51CHL1  H22B 4938   2.652   3.869   4.245  0.4203  1.5997  0.4585
   51CHL1   C23 4939   2.552   4.031   4.348  0.6664 -0.0471  0.1500
   51CHL1  H23A 4940   2.636   4.101   4.368  1.0037 -0.8520  1.7608
   51CHL1  H23B 4941   2.466   4.099   4.332 -0.0843 -0.9284  0.3316
   51CHL1   C24 4942   2.530   3.948   4.473 -0.9055  0.3283  0.5017
   51CHL1  H24A 4943   2.458   3.866   4.448  0.1859 -1.0123  1.5702
   51CHL1  H24B 4944   2.626   3.904   4.508 -2.4521 -1.3979  3.0399
   51CHL1   C25 4945   2.483   4.023   4.598 -0.1118 -0.7163 -0.7605
   51CHL1   H25 4946   2.539   4.119   4.605 -0.8908 -0.1992 -1.4737
   51CHL1   C26 4947   2.335   4.058   4.607 -0.7830 -0.8385  0.1784
   51CHL1  H26A 4948   2.258   3.978   4.607 -0.5780 -1.0531  1.1805
   51CHL1  H26B 4949   2.313   4.106   4.705 -2.5741 -1.0257 -0.1076
   51CHL1  H26C 4950   2.310   4.137   4.533 -1.1643  2.3480  3.4296
   51CHL1   C27 4951   2.523   3.947   4.725  0.3978  0.3368  0.8141
   51CHL1  H27A 4952   2.633   3.933   4.731  0.5581  0.3269 -1.4577
   51CHL1  H27B 4953   2.492   3.998   4.819  0.6594  0.3778  0.8782
   51CHL1  H27C 4954   2.469   3.850   4.717 -0.8696  1.1667 -2.3172
   52CHL1    C3 4955   2.861   6.005   3.233 -0.1444  0.1429 -0.6316
   52CHL1    H3 4956   2.760   6.035   3.268  0.2652 -0.0333  0.7593
   52CHL1    O3 4957   2.871   6.024   3.094  0.6527 -0.8666  0.0010
   52CHL1   H3' 4958   2.958   6.064   3.090 -0.0019  0.5480 -1.1635
   52CHL1    C4 4959   2.960   6.101   3.295 -0.3884  0.0602 -0.1506
   52CHL1   H4A 4960   3.066   6.081   3.268  0.2349  2.0026  0.7192
   52CHL1   H4B 4961   2.939   6.205   3.264 -0.9926 -0.6648 -2.3890
   52CHL1    C5 4962   2.957   6.093   3.452  0.4806  0.3631 -0.3063
   52CHL1    C6 4963   2.932   6.195   3.539 -0.3897 -0.2073 -0.1983
   52CHL1    H6 4964   2.914   6.295   3.498  0.7227 -0.9663 -2.7967
   52CHL1    C7 4965   2.942   6.180   3.686 -0.3853 -0.0539  1.1864
   52CHL1   H7A 4966   3.008   6.263   3.719  0.0753  0.5177 -0.9785
   52CHL1   H7B 4967   2.836   6.176   3.721 -0.5572 -0.2099  0.6679
   52CHL1    C8 4968   3.007   6.050   3.735 -0.1691 -0.4563  0.0409
   52CHL1    H8 4969   3.118   6.060   3.739 -0.2583  0.3828  0.7679
   52CHL1   C14 4970   2.963   6.030   3.881 -0.0971 -0.5108  0.1777
   52CHL1   H14 4971   2.853   6.022   3.889 -0.1739  0.3822  0.0797
   52CHL1   C15 4972   2.993   6.144   3.977 -0.4359 -0.0409  0.0952
   52CHL1  H15A 4973   3.094   6.179   3.945 -2.1565  1.6470 -4.1644
   52CHL1  H15B 4974   2.938   6.240   3.968 -0.2998  0.1845  1.4012
   52CHL1   C16 4975   2.994   6.070   4.114 -0.1326 -0.5939  0.2407
   52CHL1  H16A 4976   3.083   6.092   4.177  1.4196  0.7414 -2.2827
   52CHL1  H16B 4977   2.901   6.100   4.169 -1.2748 -2.0012 -0.8437
   52CHL1   C17 4978   2.973   5.918   4.088  0.1809  0.7835  0.5389
   52CHL1   H17 4979   2.863   5.907   4.087  0.1297  1.3026  0.2483
   52CHL1   C13 4980   3.021   5.898   3.944  0.0390 -0.5451  0.0787
   52CHL1   C18 4981   3.176   5.891   3.943  0.1194 -0.5594  0.2355
   52CHL1  H18A 4982   3.212   5.788   3.966 -0.2060 -0.4178  1.4155
   52CHL1  H18B 4983   3.222   5.924   3.847  1.2778 -1.4354  0.4605
   52CHL1  H18C 4984   3.224   5.961   4.014 -0.4036 -0.6393  0.6790
   52CHL1   C12 4985   2.955   5.783   3.868  0.2425 -0.0519  0.4002
   52CHL1  H12A 4986   2.982   5.686   3.914 -1.7126  0.3405  2.5890
   52CHL1  H12B 4987   2.845   5.789   3.885 -0.1516 -1.0590 -1.4690
   52CHL1   C11 4988   2.994   5.791   3.717 -0.0341  0.5539  1.1107
   52CHL1  H11A 4989   3.102   5.768   3.707  0.1302  1.1364  1.4861
   52CHL1  H11B 4990   2.939   5.710   3.665 -0.1764  0.2810  1.6765
   52CHL1    C9 4991   2.954   5.930   3.649  0.2953  0.5751 -0.0994
   52CHL1    H9 4992   2.845   5.947   3.657  0.0068 -1.4183  0.6092
   52CHL1   C10 4993   2.976   5.949   3.499  0.1248  0.7754 -0.2523
   52CHL1   C19 4994   3.126   5.912   3.482 -0.1882 -0.0659  0.5092
   52CHL1  H19A 4995   3.166   5.933   3.380 -1.5678 -1.5600 -0.3903
   52CHL1  H19B 4996   3.187   5.960   3.562 -1.6555  0.7641  1.1683
   52CHL1  H19C 4997   3.139   5.802   3.491  1.6603  0.1468  0.8509
   52CHL1    C1 4998   2.889   5.852   3.417 -0.1549 -0.3118  0.0313
   52CHL1   H1A 4999   2.903   5.746   3.448  1.6084 -0.2526 -0.4417
   52CHL1   H1B 5000   2.783   5.875   3.438 -0.1215 -0.6834  0.6148
   52CHL1    C2 5001   2.900   5.861   3.268  0.2814 -0.7307  0.7575
   52CHL1   H2A 5002   2.817   5.797   3.233  0.3047 -1.0997  1.3588
   52CHL1   H2B 5003   3.000   5.821   3.242 -0.3884 -2.0684  0.1854
   52CHL1   C20 5004   3.036   5.836   4.202 -0.2947  0.3371  0.1509
   52CHL1   H20 5005   3.138   5.876   4.221 -0.3777 -0.1401  1.6516
   52CHL1   C21 5006   3.045   5.690   4.168  0.5412 -0.0991  0.8893
   52CHL1  H21A 5007   3.067   5.614   4.247  3.9081  0.3978  0.5849
   52CHL1  H21B 5008   3.123   5.679   4.089 -0.3108  0.7495 -0.0883
   52CHL1  H21C 5009   2.944   5.660   4.133 -0.1513  1.2361  1.6764
   52CHL1   C22 5010   2.949   5.853   4.330 -0.8689 -0.9893 -0.4968
   52CHL1  H22A 5011   2.906   5.953   4.352 -2.2324 -1.7882  0.6604
   52CHL1  H22B 5012   2.863   5.783   4.324 -0.2774 -1.6621 -1.3035
   52CHL1   C23 5013   3.033   5.822   4.465  0.6181 -0.5015  0.1270
   52CHL1  H23A 5014   3.091   5.729   4.446 -0.5760 -1.5113  1.2128
   52CHL1  H23B 5015   3.109   5.902   4.471 -0.1411  0.4969 -2.4055
   52CHL1   C24 5016   2.955   5.802   4.595 -0.0986  0.7283  0.2994
   52CHL1  H24A 5017   2.888   5.885   4.624 -0.7332  1.0084 -1.8676
   52CHL1  H24B 5018   2.879   5.721   4.600  0.9445 -0.3031 -0.0964
   52CHL1   C25 5019   3.053   5.781   4.706 -0.2915  0.0256 -0.7258
   52CHL1   H25 5020   3.142   5.847   4.698 -1.9379  2.4659 -0.1156
   52CHL1   C26 5021   3.000   5.838   4.843  0.6769  0.4303 -0.0647
   52CHL1  H26A 5022   2.935   5.764   4.894  1.4732 -2.0119 -2.3685
   52CHL1  H26B 5023   3.081   5.867   4.914  1.5326 -2.7089  0.3958
   52CHL1  H26C 5024   2.940   5.929   4.822  0.0732 -0.4678 -2.5863
   52CHL1   C27 5025   3.098   5.634   4.717  0.2685  0.2895  0.2189
   52CHL1  H27A 5026   3.182   5.622   4.788 -0.2705 -1.6036  0.5768
   52CHL1  H27B 5027   3.013   5.574   4.754 -0.4434  0.8150 -0.5212
   52CHL1  H27C 5028   3.130   5.576   4.627 -1.0809  0.1739 -0.2119
   53CHL1    C3 5029   2.080   3.860   3.188 -0.2425 -0.0533 -0.0806
   53CHL1    H3 5030   2.178   3.809   3.179 -0.6465 -0.7173 -0.9248
   53CHL1    O3 5031   2.045   3.901   3.054  0.1336 -0.4222  0.9747
   53CHL1   H3' 5032   1.991   3.979   3.066  0.3763 -0.1856  0.5300
   53CHL1    C4 5033   1.957   3.779   3.241  0.1999 -0.3013 -0.8764
   53CHL1   H4A 5034   1.862   3.835   3.233  0.4279  0.4626  1.1052
   53CHL1   H4B 5035   1.951   3.690   3.175  2.1492  0.5975 -2.3680
   53CHL1    C5 5036   1.989   3.745   3.385 -0.0007  0.0654 -0.0746
   53CHL1    C6 5037   1.980   3.619   3.430 -0.2938 -0.1663  0.0644
   53CHL1    H6 5038   1.969   3.543   3.350  1.2852 -1.7357  1.2496
   53CHL1    C7 5039   1.997   3.576   3.567 -0.5554  0.7783  0.1431
   53CHL1   H7A 5040   1.928   3.492   3.593 -0.6222  0.5189 -0.8283
   53CHL1   H7B 5041   2.098   3.531   3.576 -0.9932 -0.8371 -2.0215
   53CHL1    C8 5042   1.980   3.689   3.677  0.4817 -0.9211  0.2519
   53CHL1    H8 5043   1.876   3.725   3.692  1.2667  1.8245 -0.3476
   53CHL1   C14 5044   2.035   3.651   3.808 -0.1403 -0.2017 -0.3808
   53CHL1   H14 5045   2.146   3.651   3.794 -0.1052 -1.5753 -0.2260
   53CHL1   C15 5046   2.005   3.509   3.854  0.6846 -0.3816  0.3288
   53CHL1  H15A 5047   1.901   3.483   3.822  0.4440  0.5307  0.3353
   53CHL1  H15B 5048   2.074   3.429   3.822  0.6959 -0.4481  0.5174
   53CHL1   C16 5049   2.010   3.517   4.004 -0.1282  0.4361 -0.1152
   53CHL1  H16A 5050   1.918   3.488   4.059  0.2644 -1.3007 -0.2911
   53CHL1  H16B 5051   2.086   3.443   4.038  0.6947  0.1008 -2.5110
   53CHL1   C17 5052   2.070   3.659   4.038 -0.3431  0.0146  0.0461
   53CHL1   H17 5053   2.177   3.637   4.018 -0.2459  1.2547 -0.9394
   53CHL1   C13 5054   2.004   3.738   3.924 -0.7702 -0.2680  0.0668
   53CHL1   C18 5055   1.846   3.759   3.942 -0.7580  0.4455 -0.5999
   53CHL1  H18A 5056   1.826   3.799   4.044  0.7652  0.1267 -0.1495
   53CHL1  H18B 5057   1.822   3.849   3.882 -0.7503  0.3229 -0.7846
   53CHL1  H18C 5058   1.774   3.678   3.918 -1.7252  0.8659  0.7318
   53CHL1   C12 5059   2.075   3.873   3.883  0.3432 -0.1880  0.4479
   53CHL1  H12A 5060   2.039   3.953   3.952 -1.4371  0.6426 -1.3541
   53CHL1  H12B 5061   2.185   3.863   3.884  0.3278 -0.5893 -0.7922
   53CHL1   C11 5062   2.046   3.921   3.743 -0.1653 -0.0035  0.2731
   53CHL1  H11A 5063   1.942   3.961   3.737 -0.0426  0.1969 -0.7250
   53CHL1  H11B 5064   2.110   4.008   3.716  0.6977 -0.4663  0.8142
   53CHL1    C9 5065   2.060   3.817   3.632 -0.8080  0.7154  0.5736
   53CHL1    H9 5066   2.167   3.790   3.630 -0.7943  0.4727  2.6487
   53CHL1   C10 5067   2.020   3.860   3.486  0.4547  0.0678  0.1909
   53CHL1   C19 5068   1.885   3.940   3.480  0.3103 -0.2246 -0.6292
   53CHL1  H19A 5069   1.893   4.033   3.540 -0.9369 -1.2060  1.1921
   53CHL1  H19B 5070   1.855   3.949   3.374  0.5513 -1.5019 -0.8215
   53CHL1  H19C 5071   1.802   3.891   3.536 -2.5094  2.8204 -1.7979
   53CHL1    C1 5072   2.141   3.936   3.419 -0.1599  0.3462  0.6291
   53CHL1   H1A 5073   2.164   4.027   3.478 -1.0018  2.2368 -1.7686
   53CHL1   H1B 5074   2.233   3.873   3.413  0.0811  0.7788 -0.5028
   53CHL1    C2 5075   2.114   3.980   3.276  0.1112 -0.3172  0.3661
   53CHL1   H2A 5076   2.197   4.040   3.231  1.4771 -1.5267  1.1896
   53CHL1   H2B 5077   2.022   4.042   3.286 -0.2982 -1.0547  1.3132
   53CHL1   C20 5078   2.058   3.703   4.189  0.3523 -0.4722  0.4803
   53CHL1   H20 5079   1.956   3.678   4.225  0.3594 -0.4837  0.4926
   53CHL1   C21 5080   2.060   3.851   4.216  0.3203  0.3335 -0.0403
   53CHL1  H21A 5081   2.007   3.905   4.135  0.8508 -0.9278 -1.2613
   53CHL1  H21B 5082   2.168   3.876   4.208  0.9123 -2.4808 -2.6266
   53CHL1  H21C 5083   2.019   3.881   4.315  0.4780 -3.0805  1.1852
   53CHL1   C22 5084   2.168   3.641   4.279  0.0063 -0.3298 -0.0848
   53CHL1  H22A 5085   2.183   3.533   4.259 -1.2223 -0.6107  0.4570
   53CHL1  H22B 5086   2.270   3.682   4.263 -0.6681  0.9678 -1.4101
   53CHL1   C23 5087   2.147   3.648   4.435 -0.0345 -0.0008 -0.3055
   53CHL1  H23A 5088   2.184   3.748   4.465 -0.3786 -0.2659  1.0626
   53CHL1  H23B 5089   2.039   3.648   4.462  0.4058  2.9900  1.9703
   53CHL1   C24 5090   2.226   3.536   4.505  0.0172  0.1672 -0.8657
   53CHL1  H24A 5091   2.197   3.433   4.474 -1.0270 -0.4133  1.7079
   53CHL1  H24B 5092   2.337   3.548   4.506  0.5259 -3.4045 -0.4894
   53CHL1   C25 5093   2.187   3.523   4.654 -1.0038  0.6423 -0.2422
   53CHL1   H25 5094   2.076   3.522   4.659 -0.9417  0.8340  1.8347
   53CHL1   C26 5095   2.232   3.385   4.707 -0.1271 -0.6000  0.0359
   53CHL1  H26A 5096   2.343   3.378   4.700 -0.0036  2.0500 -2.1240
   53CHL1  H26B 5097   2.216   3.374   4.817 -0.7004 -1.8404 -0.1606
   53CHL1  H26C 5098   2.176   3.303   4.657 -2.2948  0.7132  0.1994
   53CHL1   C27 5099   2.232   3.649   4.733 -0.7248 -0.0730 -0.2838
   53CHL1  H27A 5100   2.206   3.746   4.686 -1.2647 -1.0953 -2.1726
   53CHL1  H27B 5101   2.185   3.660   4.833  1.1190 -0.0189  0.6264
   53CHL1  H27C 5102   2.343   3.646   4.739 -0.7005  0.8625 -0.1118
   54CHL1    C3 5103   1.392   5.030   3.223 -0.5952 -0.0767  0.4699
   54CHL1    H3 5104   1.423   5.123   3.276 -0.3869 -0.6303  1.3396
   54CHL1    O3 5105   1.367   5.064   3.081 -0.1887  0.5247  0.3926
   54CHL1   H3' 5106   1.455   5.070   3.044 -1.0049 -0.2700 -1.8810
   54CHL1    C4 5107   1.506   4.928   3.244  0.2213 -0.0117 -0.1492
   54CHL1   H4A 5108   1.488   4.832   3.192  2.3419  0.4875 -1.9446
   54CHL1   H4B 5109   1.596   4.965   3.191  0.2051  2.6917  1.4852
   54CHL1    C5 5110   1.527   4.917   3.399  0.5258  0.1616 -0.2290
   54CHL1    C6 5111   1.645   4.937   3.456 -0.3744  0.5153  0.3733
   54CHL1    H6 5112   1.731   4.968   3.396 -0.2973  0.9688  0.7092
   54CHL1    C7 5113   1.674   4.904   3.603  0.0608  0.4516  0.2479
   54CHL1   H7A 5114   1.763   4.838   3.612 -1.1653 -1.0593  1.7439
   54CHL1   H7B 5115   1.700   4.997   3.658 -0.2368  2.7327 -3.1668
   54CHL1    C8 5116   1.560   4.834   3.677  0.0211  0.6391 -0.0378
   54CHL1    H8 5117   1.579   4.725   3.662 -1.2068  0.3640  0.2335
   54CHL1   C14 5118   1.577   4.854   3.826 -0.0744 -0.2306 -0.0278
   54CHL1   H14 5119   1.571   4.964   3.833  0.6405 -0.2574  1.3966
   54CHL1   C15 5120   1.713   4.812   3.884 -0.6317 -0.4943 -0.6812
   54CHL1  H15A 5121   1.755   4.724   3.831 -0.4007 -0.5749 -0.3735
   54CHL1  H15B 5122   1.785   4.896   3.886 -0.3118 -0.7466  1.3262
   54CHL1   C16 5123   1.680   4.780   4.034  0.5195  0.0685  0.0729
   54CHL1  H16A 5124   1.685   4.672   4.061 -0.7719  0.5542  2.5741
   54CHL1  H16B 5125   1.748   4.829   4.107 -0.3660  2.6604 -0.7466
   54CHL1   C17 5126   1.529   4.807   4.052  0.1887 -0.3370 -0.2605
   54CHL1   H17 5127   1.516   4.917   4.068  0.1341 -0.6111  1.8454
   54CHL1   C13 5128   1.462   4.788   3.912 -0.1579 -0.0954 -0.7017
   54CHL1   C18 5129   1.456   4.633   3.878 -0.5527  0.3551  0.2993
   54CHL1  H18A 5130   1.376   4.588   3.939 -1.2365  0.2804 -0.6264
   54CHL1  H18B 5131   1.431   4.613   3.771  0.0219  1.8662 -0.1536
   54CHL1  H18C 5132   1.556   4.589   3.897 -1.3380 -1.4290  0.4578
   54CHL1   C12 5133   1.333   4.859   3.870 -0.4850  0.2852 -0.7432
   54CHL1  H12A 5134   1.250   4.825   3.937 -0.2607  2.8400  0.9658
   54CHL1  H12B 5135   1.349   4.968   3.885 -1.5384  0.6482 -2.0037
   54CHL1   C11 5136   1.308   4.844   3.720  0.8172 -0.0068  0.5918
   54CHL1  H11A 5137   1.272   4.740   3.705  0.6105 -0.6674  4.5541
   54CHL1  H11B 5138   1.229   4.918   3.695 -0.5406 -1.1192  1.4268
   54CHL1    C9 5139   1.426   4.885   3.627 -0.5183  0.1558  0.5185
   54CHL1    H9 5140   1.431   4.995   3.644 -1.4682  0.1856  0.6439
   54CHL1   C10 5141   1.401   4.871   3.472 -0.5354 -0.3751 -0.3463
   54CHL1   C19 5142   1.374   4.721   3.444  0.1628  0.1787 -0.0604
   54CHL1  H19A 5143   1.462   4.655   3.460 -0.4706 -1.0686 -1.5398
   54CHL1  H19B 5144   1.295   4.677   3.509  0.9677  0.1633  0.9367
   54CHL1  H19C 5145   1.334   4.709   3.341 -0.3593  0.9627  0.0386
   54CHL1    C1 5146   1.279   4.960   3.438 -0.3179  1.0852  0.8949
   54CHL1   H1A 5147   1.192   4.913   3.487 -1.3124  1.9144 -0.0292
   54CHL1   H1B 5148   1.296   5.061   3.480 -1.5086  1.0515  1.4881
   54CHL1    C2 5149   1.264   4.982   3.283 -0.5587  0.0857  0.3312
   54CHL1   H2A 5150   1.174   5.046   3.281 -1.4004 -1.0854 -0.3123
   54CHL1   H2B 5151   1.235   4.892   3.226  1.8243 -0.4196 -0.2070
   54CHL1   C20 5152   1.453   4.742   4.173  0.4449 -0.5393 -0.4828
   54CHL1   H20 5153   1.462   4.632   4.165 -0.5427 -1.0059  3.0233
   54CHL1   C21 5154   1.303   4.772   4.184  0.3742 -0.0738 -0.0126
   54CHL1  H21A 5155   1.287   4.882   4.187  0.2774 -0.1053  2.3837
   54CHL1  H21B 5156   1.264   4.733   4.280 -1.5230 -3.1132 -1.8469
   54CHL1  H21C 5157   1.242   4.716   4.109 -1.4919 -0.1667  1.4969
   54CHL1   C22 5158   1.524   4.780   4.307 -0.2929 -0.1051  0.3763
   54CHL1  H22A 5159   1.634   4.765   4.304 -0.1024  0.5341  2.6597
   54CHL1  H22B 5160   1.499   4.887   4.325 -1.5821 -0.5924  1.7151
   54CHL1   C23 5161   1.477   4.695   4.428  0.1802  0.6382 -0.3978
   54CHL1  H23A 5162   1.380   4.730   4.467  0.3381  1.4711 -0.7238
   54CHL1  H23B 5163   1.486   4.589   4.395  2.0977  0.5700  0.1866
   54CHL1   C24 5164   1.581   4.710   4.544  0.2308 -0.2789 -0.0342
   54CHL1  H24A 5165   1.671   4.669   4.494 -1.3486 -3.5786 -0.4368
   54CHL1  H24B 5166   1.592   4.818   4.569 -0.7624  0.1831 -1.4617
   54CHL1   C25 5167   1.553   4.626   4.677 -0.0772 -0.4459  0.4874
   54CHL1   H25 5168   1.542   4.519   4.648  0.4431 -1.2587  2.9819
   54CHL1   C26 5169   1.673   4.636   4.775  0.1743  0.3805 -0.6392
   54CHL1  H26A 5170   1.758   4.594   4.718  0.0112  0.1938 -0.7460
   54CHL1  H26B 5171   1.695   4.739   4.810  0.4661  0.0091  0.3194
   54CHL1  H26C 5172   1.654   4.577   4.868 -0.7330 -0.8433 -1.5658
   54CHL1   C27 5173   1.421   4.657   4.751 -0.1103  0.2100 -0.0495
   54CHL1  H27A 5174   1.336   4.602   4.703 -0.1953 -0.1853  0.5507
   54CHL1  H27B 5175   1.429   4.615   4.853  1.2878 -3.6780 -1.5658
   54CHL1  H27C 5176   1.404   4.764   4.776  1.8891  0.6269 -0.3214
   55CHL1    C3 5177   3.328   2.541   3.205  0.4050 -0.3699 -0.0297
   55CHL1    H3 5178   3.340   2.650   3.224  2.5128 -0.8308  1.7242
   55CHL1    O3 5179   3.297   2.530   3.073  0.4982 -0.0680 -0.0693
   55CHL1   H3' 5180   3.270   2.437   3.077  0.9319 -0.1693  0.7093
   55CHL1    C4 5181   3.466   2.477   3.231  0.0894  0.2360 -0.3972
   55CHL1   H4A 5182   3.462   2.371   3.200  0.7114 -0.1165  0.6764
   55CHL1   H4B 5183   3.543   2.522   3.165  0.9757  1.2981  1.2702
   55CHL1    C5 5184   3.505   2.494   3.372  0.2923 -0.0053  0.0081
   55CHL1    C6 5185   3.619   2.558   3.402  0.1068  0.2046 -0.0158
   55CHL1    H6 5186   3.692   2.573   3.321  1.8761 -2.0669  1.0676
   55CHL1    C7 5187   3.669   2.571   3.540 -1.0347  0.7490 -0.3364
   55CHL1   H7A 5188   3.775   2.539   3.543 -0.5803  2.1489 -0.6496
   55CHL1   H7B 5189   3.675   2.681   3.555 -0.6705  0.6141  0.5301
   55CHL1    C8 5190   3.587   2.502   3.655  1.0153  0.0671 -0.1523
   55CHL1    H8 5191   3.631   2.401   3.657 -0.1075 -0.4401 -0.0269
   55CHL1   C14 5192   3.611   2.570   3.791  0.3402 -0.2800 -0.2815
   55CHL1   H14 5193   3.574   2.675   3.785  3.5309  1.0866  1.4309
   55CHL1   C15 5194   3.764   2.603   3.841  0.4392  1.2519 -0.6949
   55CHL1  H15A 5195   3.828   2.519   3.807 -1.6282 -0.7049 -0.0355
   55CHL1  H15B 5196   3.785   2.703   3.798  0.9562  0.8235 -1.4642
   55CHL1   C16 5197   3.755   2.604   3.996 -0.4379  0.1585  0.2776
   55CHL1  H16A 5198   3.801   2.518   4.049  0.7949  0.3843 -0.3789
   55CHL1  H16B 5199   3.789   2.701   4.039 -1.2252  0.9119 -0.7458
   55CHL1   C17 5200   3.604   2.593   4.018 -0.0180  0.0101  0.2733
   55CHL1   H17 5201   3.561   2.693   4.000 -0.1189 -0.4785 -2.7246
   55CHL1   C13 5202   3.541   2.506   3.906  0.4898  0.1067  0.1486
   55CHL1   C18 5203   3.605   2.360   3.922 -0.0165  0.2102 -0.2439
   55CHL1  H18A 5204   3.572   2.306   4.013 -2.0871 -1.3629 -1.8347
   55CHL1  H18B 5205   3.572   2.290   3.843  1.3643  0.3536 -0.9585
   55CHL1  H18C 5206   3.715   2.370   3.917  0.0146 -0.5641 -1.4737
   55CHL1   C12 5207   3.388   2.498   3.885 -0.4019 -0.5275 -0.0630
   55CHL1  H12A 5208   3.331   2.433   3.955 -0.0608 -1.0372 -0.2551
   55CHL1  H12B 5209   3.366   2.606   3.900  0.8745 -0.0159 -1.5668
   55CHL1   C11 5210   3.351   2.446   3.742 -0.3573 -0.2816 -0.0299
   55CHL1  H11A 5211   3.365   2.337   3.757  0.6263 -0.2953 -0.9760
   55CHL1  H11B 5212   3.247   2.470   3.709 -0.3115 -1.6697 -1.2827
   55CHL1    C9 5213   3.439   2.501   3.624  0.7595  0.4920  0.5490
   55CHL1    H9 5214   3.411   2.609   3.626  1.3605  0.6771 -0.3692
   55CHL1   C10 5215   3.401   2.446   3.481 -0.3054  0.1697 -0.4716
   55CHL1   C19 5216   3.399   2.290   3.499  0.2999 -0.8008 -0.1276
   55CHL1  H19A 5217   3.492   2.246   3.540 -0.4479 -0.1094  2.5179
   55CHL1  H19B 5218   3.317   2.255   3.567  1.5961 -0.6129  1.6022
   55CHL1  H19C 5219   3.380   2.252   3.396 -2.9973 -0.5544  0.2579
   55CHL1    C1 5220   3.259   2.498   3.432 -0.2637  0.2832  0.5534
   55CHL1   H1A 5221   3.185   2.460   3.506 -1.3759 -2.1511 -1.6642
   55CHL1   H1B 5222   3.246   2.608   3.441 -1.1136  0.2046  0.3131
   55CHL1    C2 5223   3.226   2.469   3.287  0.4240 -0.3289  0.2512
   55CHL1   H2A 5224   3.121   2.498   3.266 -0.0756  0.0834  2.9463
   55CHL1   H2B 5225   3.222   2.359   3.273  1.6696 -0.2263 -1.2233
   55CHL1   C20 5226   3.559   2.548   4.165  0.6240  0.1377  0.1618
   55CHL1   H20 5227   3.581   2.439   4.178  2.7916  0.6789  1.8535
   55CHL1   C21 5228   3.412   2.583   4.197  0.0554 -0.5712 -0.0486
   55CHL1  H21A 5229   3.345   2.546   4.116  0.3215  0.6147 -0.8418
   55CHL1  H21B 5230   3.394   2.691   4.217  2.7795 -0.0106 -0.2315
   55CHL1  H21C 5231   3.383   2.531   4.291 -1.8400 -2.3568 -1.5381
   55CHL1   C22 5232   3.651   2.616   4.268  0.2307 -0.4946 -0.0879
   55CHL1  H22A 5233   3.747   2.561   4.266 -0.2487 -1.4638  1.9617
   55CHL1  H22B 5234   3.673   2.721   4.237  1.1501 -0.6062  0.1671
   55CHL1   C23 5235   3.601   2.620   4.411  0.0320 -0.3598 -0.4169
   55CHL1  H23A 5236   3.526   2.702   4.420 -0.5307 -0.8063 -0.9084
   55CHL1  H23B 5237   3.548   2.523   4.415 -3.1257  0.9450 -3.6948
   55CHL1   C24 5238   3.717   2.651   4.506 -0.9410 -0.1505 -0.5469
   55CHL1  H24A 5239   3.803   2.581   4.496 -0.9070 -0.3335  0.7475
   55CHL1  H24B 5240   3.756   2.752   4.481  0.2512  0.1278  2.1126
   55CHL1   C25 5241   3.682   2.646   4.664 -0.3057  0.0209 -0.6776
   55CHL1   H25 5242   3.648   2.543   4.688 -0.6086  0.2467 -0.1116
   55CHL1   C26 5243   3.795   2.690   4.759  0.1086 -0.2114  0.5709
   55CHL1  H26A 5244   3.889   2.644   4.722  0.4145  1.5322 -0.9342
   55CHL1  H26B 5245   3.816   2.799   4.769  4.3978 -0.6487 -1.3842
   55CHL1  H26C 5246   3.777   2.640   4.857  0.4437 -1.0077  0.2360
   55CHL1   C27 5247   3.557   2.726   4.689 -0.5862  0.3577 -0.7044
   55CHL1  H27A 5248   3.469   2.670   4.651 -0.3656 -0.6360  0.2266
   55CHL1  H27B 5249   3.540   2.757   4.795 -1.8960  0.4868 -0.9282
   55CHL1  H27C 5250   3.560   2.824   4.636 -0.9434 -0.8766 -3.1294
   56CHL1    C3 5251   5.260   5.966   3.554 -0.5080  0.4782  0.6291
   56CHL1    H3 5252   5.198   5.885   3.599 -0.7707  0.8191  0.8914
   56CHL1    O3 5253   5.301   5.925   3.426  0.2043 -0.3034 -0.4894
   56CHL1   H3' 5254   5.390   5.960   3.414 -0.0889  1.9824  2.7728
   56CHL1    C4 5255   5.170   6.089   3.539 -0.0770 -1.0938  0.0819
   56CHL1   H4A 5256   5.216   6.175   3.487 -0.0804 -1.5890 -0.7666
   56CHL1   H4B 5257   5.088   6.063   3.469  0.1349 -1.1481 -0.1485
   56CHL1    C5 5258   5.118   6.132   3.675 -0.0140  0.2433  1.0506
   56CHL1    C6 5259   4.990   6.142   3.699 -0.3388 -0.1293  1.1606
   56CHL1    H6 5260   4.912   6.132   3.622  0.4546 -1.5391  0.4983
   56CHL1    C7 5261   4.931   6.165   3.832  0.4111 -0.8122  0.0565
   56CHL1   H7A 5262   4.850   6.240   3.825 -0.1869 -1.0675  2.9379
   56CHL1   H7B 5263   4.885   6.068   3.861  0.1766 -1.1468 -1.3494
   56CHL1    C8 5264   5.035   6.234   3.923  0.0977  0.4637 -0.3555
   56CHL1    H8 5265   5.051   6.335   3.880 -0.0675  0.2074 -1.0221
   56CHL1   C14 5266   4.980   6.249   4.065  0.7326 -0.4523 -0.2424
   56CHL1   H14 5267   4.979   6.143   4.096  0.1962  0.3488  2.7407
   56CHL1   C15 5268   4.840   6.300   4.091  0.5438  0.2303  0.1535
   56CHL1  H15A 5269   4.812   6.397   4.042 -1.1651 -0.1699  0.2904
   56CHL1  H15B 5270   4.767   6.221   4.065 -1.1588  2.2060 -1.5245
   56CHL1   C16 5271   4.842   6.340   4.246  1.0171  0.5414 -0.6950
   56CHL1  H16A 5272   4.824   6.450   4.250  1.9502  0.6914 -0.4072
   56CHL1  H16B 5273   4.758   6.291   4.300  1.5459  0.0843 -0.2769
   56CHL1   C17 5274   4.988   6.317   4.302  0.5068 -0.2506  0.0215
   56CHL1   H17 5275   4.997   6.211   4.331  0.3820 -0.2567  0.0385
   56CHL1   C13 5276   5.069   6.312   4.173 -0.5696  0.0040 -0.0045
   56CHL1   C18 5277   5.109   6.455   4.130  0.5804  0.2171  0.0136
   56CHL1  H18A 5278   5.180   6.466   4.045 -1.1105  3.1322 -1.1587
   56CHL1  H18B 5279   5.018   6.515   4.109  0.8556  0.1823 -1.4071
   56CHL1  H18C 5280   5.165   6.502   4.214  0.9592 -2.7686  1.5723
   56CHL1   C12 5281   5.191   6.219   4.183 -0.4725 -0.2141  0.5150
   56CHL1  H12A 5282   5.262   6.254   4.261 -0.2635 -1.1265  0.7531
   56CHL1  H12B 5283   5.145   6.120   4.203  0.3745 -0.8449 -0.5618
   56CHL1   C11 5284   5.260   6.198   4.044  0.1920 -0.3374  0.3533
   56CHL1  H11A 5285   5.322   6.285   4.014  2.2859 -1.3564  1.4936
   56CHL1  H11B 5286   5.332   6.113   4.047  0.6251 -0.0718 -1.2266
   56CHL1    C9 5287   5.165   6.159   3.928  0.2982  0.5041 -0.4565
   56CHL1    H9 5288   5.130   6.055   3.944 -0.8181  0.7682 -1.0617
   56CHL1   C10 5289   5.222   6.145   3.783 -0.6150  0.5832 -0.6172
   56CHL1   C19 5290   5.306   6.279   3.755 -0.8550  0.0144  0.8337
   56CHL1  H19A 5291   5.338   6.276   3.649  0.5608  3.0835  1.0601
   56CHL1  H19B 5292   5.240   6.368   3.769 -1.5374 -0.2812 -0.4424
   56CHL1  H19C 5293   5.395   6.287   3.821 -0.9179 -0.0173  0.9237
   56CHL1    C1 5294   5.318   6.022   3.785 -0.2774  0.2763  0.8469
   56CHL1   H1A 5295   5.410   6.046   3.843  1.1722  2.6237 -2.1324
   56CHL1   H1B 5296   5.268   5.935   3.831 -0.2804  0.2139  0.7281
   56CHL1    C2 5297   5.373   5.986   3.648  0.3837 -0.2507 -0.0724
   56CHL1   H2A 5298   5.444   5.900   3.652  3.3078  2.0205  1.1175
   56CHL1   H2B 5299   5.434   6.067   3.602  0.2660 -1.2457 -2.0768
   56CHL1   C20 5300   5.025   6.410   4.421  0.8614  0.2989  0.0699
   56CHL1   H20 5301   5.026   6.515   4.384  3.2169  0.0487 -0.7602
   56CHL1   C21 5302   5.166   6.381   4.466  0.5520 -0.2345  0.2005
   56CHL1  H21A 5303   5.245   6.402   4.390  1.7809  0.3923  1.6088
   56CHL1  H21B 5304   5.169   6.275   4.500 -0.1170 -0.0913  0.7211
   56CHL1  H21C 5305   5.188   6.436   4.560  0.6540  0.5053 -0.2535
   56CHL1   C22 5306   4.928   6.410   4.542  0.2131 -0.3879 -0.0909
   56CHL1  H22A 5307   4.968   6.484   4.614 -3.3819  0.9086  0.8361
   56CHL1  H22B 5308   4.834   6.453   4.500 -0.7694 -3.0368 -0.8411
   56CHL1   C23 5309   4.902   6.272   4.601 -0.2780 -0.6189  0.2980
   56CHL1  H23A 5310   4.854   6.214   4.520 -2.0018 -1.0703  1.5943
   56CHL1  H23B 5311   4.997   6.225   4.634  0.5193  1.7970  1.7260
   56CHL1   C24 5312   4.791   6.280   4.712  0.1783  0.0009 -0.5624
   56CHL1  H24A 5313   4.849   6.328   4.793  0.3146  1.9453 -1.7559
   56CHL1  H24B 5314   4.721   6.359   4.678 -0.3740 -0.7347 -1.1707
   56CHL1   C25 5315   4.719   6.149   4.752  0.7049 -0.0860 -0.5407
   56CHL1   H25 5316   4.665   6.161   4.848  0.6016 -4.4667  0.1325
   56CHL1   C26 5317   4.616   6.102   4.651 -0.9556  0.0678 -0.0225
   56CHL1  H26A 5318   4.560   6.188   4.608  0.0411  0.8815  0.2733
   56CHL1  H26B 5319   4.673   6.065   4.563 -0.4184  0.0206  0.3362
   56CHL1  H26C 5320   4.554   6.017   4.686 -1.0581 -0.7731 -2.0727
   56CHL1   C27 5321   4.821   6.036   4.784  0.4665 -0.1445  0.4662
   56CHL1  H27A 5322   4.902   6.074   4.850 -0.2855  0.6280  0.9652
   56CHL1  H27B 5323   4.768   5.950   4.831 -1.2795  1.4059  1.4638
   56CHL1  H27C 5324   4.879   6.005   4.694  0.4608  1.0724  0.0262
   57CHL1    C3 5325   4.171   3.197   3.071 -0.3102  0.2879 -0.2554
   57CHL1    H3 5326   4.220   3.106   3.111 -3.2309 -0.5988  1.5883
   57CHL1    O3 5327   4.196   3.216   2.936 -0.1883  0.7667  0.2538
   57CHL1   H3' 5328   4.115   3.177   2.901 -0.9105  1.8678  0.6380
   57CHL1    C4 5329   4.023   3.184   3.098  0.4142  0.0145 -0.5836
   57CHL1   H4A 5330   3.964   3.274   3.072 -1.1483 -1.0944 -1.0279
   57CHL1   H4B 5331   3.982   3.102   3.035  1.6396 -1.0241 -0.0717
   57CHL1    C5 5332   4.000   3.163   3.245  0.5295 -0.7976 -1.0656
   57CHL1    C6 5333   3.933   3.056   3.288 -0.6930  0.6529  0.1595
   57CHL1    H6 5334   3.884   2.990   3.215 -0.3581  0.9547 -0.3365
   57CHL1    C7 5335   3.913   3.025   3.432  0.3090  0.1478 -0.4468
   57CHL1   H7A 5336   3.808   2.990   3.444 -0.3550  1.5151 -1.9946
   57CHL1   H7B 5337   3.981   2.955   3.486 -0.2955 -0.7065 -0.7651
   57CHL1    C8 5338   3.924   3.154   3.528  0.6624  0.6836 -0.5531
   57CHL1    H8 5339   3.840   3.222   3.501  0.4073 -0.5597 -3.1762
   57CHL1   C14 5340   3.905   3.120   3.678 -0.1500  0.0362  0.3396
   57CHL1   H14 5341   3.975   3.039   3.705 -0.5002 -0.0770  0.9414
   57CHL1   C15 5342   3.769   3.061   3.722  0.3949  0.1814 -0.4835
   57CHL1  H15A 5343   3.687   3.126   3.686 -1.1986 -1.4375  0.0609
   57CHL1  H15B 5344   3.747   2.956   3.691  0.5660  0.2883 -0.9843
   57CHL1   C16 5345   3.795   3.059   3.874 -0.2635 -0.2280  0.3767
   57CHL1  H16A 5346   3.696   3.091   3.915  0.0573  3.1396 -1.1496
   57CHL1  H16B 5347   3.829   2.960   3.909 -1.0369 -0.2526  1.1082
   57CHL1   C17 5348   3.910   3.163   3.908  0.5989  0.0309  0.7016
   57CHL1   H17 5349   3.999   3.103   3.933  2.0400  0.6360 -2.4564
   57CHL1   C13 5350   3.935   3.233   3.773 -0.2045  0.1920 -0.7438
   57CHL1   C18 5351   3.838   3.352   3.755 -1.1041  0.2566  0.9837
   57CHL1  H18A 5352   3.858   3.376   3.649 -0.6991 -2.1776  0.4430
   57CHL1  H18B 5353   3.733   3.316   3.767 -0.2936 -2.6177  0.1451
   57CHL1  H18C 5354   3.850   3.440   3.821 -2.8328  1.3811 -0.1273
   57CHL1   C12 5355   4.082   3.268   3.743 -0.6240  0.3967  0.4596
   57CHL1  H12A 5356   4.098   3.354   3.812  0.0977  0.0900  0.6824
   57CHL1  H12B 5357   4.142   3.180   3.773  1.0970 -0.0470 -3.6369
   57CHL1   C11 5358   4.111   3.314   3.597 -0.1731 -0.3064  0.0429
   57CHL1  H11A 5359   4.062   3.412   3.582  1.0261  0.5720  1.6353
   57CHL1  H11B 5360   4.212   3.355   3.579 -0.7668  1.6093  0.8036
   57CHL1    C9 5361   4.051   3.219   3.488 -0.1931 -0.0404  0.2215
   57CHL1    H9 5362   4.127   3.138   3.502 -0.5176 -0.3103  0.4549
   57CHL1   C10 5363   4.056   3.266   3.341  0.7325  0.2116  0.0329
   57CHL1   C19 5364   3.969   3.392   3.329  1.1621  0.1264  0.1701
   57CHL1  H19A 5365   3.965   3.439   3.228  0.1182 -1.8262 -0.7523
   57CHL1  H19B 5366   3.864   3.375   3.362  0.6125  0.6773 -1.2246
   57CHL1  H19C 5367   3.996   3.474   3.399 -1.3907  1.6737 -0.5206
   57CHL1    C1 5368   4.197   3.306   3.304  0.2777 -0.5237 -0.3145
   57CHL1   H1A 5369   4.206   3.404   3.356 -1.2325 -1.2040  1.3342
   57CHL1   H1B 5370   4.271   3.230   3.336  0.4756 -0.3717 -0.4091
   57CHL1    C2 5371   4.220   3.325   3.149  0.3795 -0.0739 -0.1664
   57CHL1   H2A 5372   4.328   3.339   3.128  0.0410 -1.7911 -3.6567
   57CHL1   H2B 5373   4.169   3.413   3.105  0.8128  0.4220  0.3138
   57CHL1   C20 5374   3.869   3.241   4.036 -0.9058  0.2349 -0.4674
   57CHL1   H20 5375   3.773   3.292   4.015 -1.6404 -0.5263  0.8653
   57CHL1   C21 5376   3.963   3.369   4.062 -0.7517  0.1394 -0.3022
   57CHL1  H21A 5377   3.924   3.437   4.141 -1.2578  1.0912 -1.3365
   57CHL1  H21B 5378   3.976   3.428   3.968 -0.2940 -0.9065 -0.9147
   57CHL1  H21C 5379   4.063   3.339   4.098 -0.8627  1.3922  1.1355
   57CHL1   C22 5380   3.869   3.149   4.157  0.6368  0.4904  0.4189
   57CHL1  H22A 5381   3.813   3.054   4.146  0.5690 -0.0438  4.2341
   57CHL1  H22B 5382   3.975   3.128   4.185  1.2033  2.3415 -0.2276
   57CHL1   C23 5383   3.801   3.205   4.282  0.2198  0.4820 -0.0514
   57CHL1  H23A 5384   3.848   3.302   4.311  0.0855  0.0415  1.7785
   57CHL1  H23B 5385   3.695   3.221   4.254  0.5301  0.3967 -1.3561
   57CHL1   C24 5386   3.815   3.114   4.404 -0.5301  0.6892 -0.0351
   57CHL1  H24A 5387   3.792   3.008   4.383  0.9186  0.1243  1.0695
   57CHL1  H24B 5388   3.921   3.115   4.439  0.2649 -4.1259 -1.5585
   57CHL1   C25 5389   3.731   3.159   4.529  0.5937 -0.3310 -0.2862
   57CHL1   H25 5390   3.621   3.154   4.514  0.1782  2.0757  1.3465
   57CHL1   C26 5391   3.758   3.079   4.656 -0.1802  0.9967  0.4352
   57CHL1  H26A 5392   3.696   3.116   4.741  0.4681  2.4586  0.3012
   57CHL1  H26B 5393   3.746   2.970   4.641 -2.9271  1.3546 -0.6282
   57CHL1  H26C 5394   3.861   3.109   4.685 -0.5887  1.9881  0.9468
   57CHL1   C27 5395   3.759   3.303   4.561 -0.3304  0.6915  0.3138
   57CHL1  H27A 5396   3.717   3.319   4.663 -2.3785  0.3075 -0.4179
   57CHL1  H27B 5397   3.868   3.326   4.568  0.0561 -0.6353 -0.8385
   57CHL1  H27C 5398   3.716   3.362   4.477  0.4842 -0.0458 -0.6395
   58CHL1    C3 5399   4.682   5.905   3.318  0.3668 -0.2057  0.2529
   58CHL1    H3 5400   4.759   5.830   3.347 -0.6351 -2.1073 -1.6515
   58CHL1    O3 5401   4.695   5.915   3.174  0.1806  0.2003 -0.0357
   58CHL1   H3' 5402   4.691   5.829   3.132  1.7742 -1.0090  2.0816
   58CHL1    C4 5403   4.547   5.840   3.352 -0.6096 -0.0263  0.0679
   58CHL1   H4A 5404   4.463   5.907   3.325  0.1698  2.4391  3.1236
   58CHL1   H4B 5405   4.544   5.753   3.284  1.1418  1.4894 -2.0630
   58CHL1    C5 5406   4.546   5.814   3.505 -0.0055 -0.2261  0.4254
   58CHL1    C6 5407   4.531   5.687   3.549 -0.4973 -0.0781  0.3034
   58CHL1    H6 5408   4.518   5.604   3.477  3.1824 -0.5930  0.0164
   58CHL1    C7 5409   4.533   5.645   3.696  0.9032 -0.2611 -0.4502
   58CHL1   H7A 5410   4.456   5.565   3.708 -0.2778  1.0450  1.0729
   58CHL1   H7B 5411   4.633   5.600   3.715  0.9651 -0.4230 -1.1459
   58CHL1    C8 5412   4.501   5.766   3.787 -0.2231  0.4065 -0.5179
   58CHL1    H8 5413   4.393   5.784   3.767 -0.6392 -1.3621  0.0192
   58CHL1   C14 5414   4.522   5.734   3.943 -0.4676 -0.4105  1.0100
   58CHL1   H14 5415   4.633   5.727   3.943 -0.2239  1.9000  3.6376
   58CHL1   C15 5416   4.478   5.608   4.017 -0.1115 -0.4039 -0.1339
   58CHL1  H15A 5417   4.373   5.582   3.992 -0.9664  1.3217  1.4200
   58CHL1  H15B 5418   4.548   5.527   3.988 -0.1238 -0.0101 -1.3242
   58CHL1   C16 5419   4.470   5.641   4.165  0.2761 -1.3351  0.0224
   58CHL1  H16A 5420   4.363   5.631   4.193 -0.6444  1.5079 -2.0733
   58CHL1  H16B 5421   4.533   5.569   4.222  1.2117 -0.7084 -0.2109
   58CHL1   C17 5422   4.512   5.796   4.175  0.1990 -0.8164 -0.2911
   58CHL1   H17 5423   4.622   5.794   4.186  0.5692  2.1666 -2.4470
   58CHL1   C13 5424   4.491   5.853   4.034 -0.8709 -0.2427  0.5029
   58CHL1   C18 5425   4.341   5.906   4.019 -0.0212 -0.1055 -0.5006
   58CHL1  H18A 5426   4.277   5.844   4.085  0.8372  0.2679  0.7364
   58CHL1  H18B 5427   4.337   6.013   4.050 -2.4351  0.2174 -1.7450
   58CHL1  H18C 5428   4.308   5.910   3.914 -0.4694  0.4809 -0.3433
   58CHL1   C12 5429   4.595   5.962   3.999  0.6792  0.6611  1.3876
   58CHL1  H12A 5430   4.574   6.052   4.060  0.3149  1.7925 -0.3275
   58CHL1  H12B 5431   4.696   5.917   4.012 -0.1208 -1.8640 -0.2603
   58CHL1   C11 5432   4.583   6.010   3.847 -0.2198 -0.1812  0.1286
   58CHL1  H11A 5433   4.486   6.062   3.838 -0.8984 -1.6347 -1.5322
   58CHL1  H11B 5434   4.667   6.079   3.823  1.5565 -2.2277  0.0823
   58CHL1    C9 5435   4.580   5.891   3.746  0.2993  0.0297  1.0073
   58CHL1    H9 5436   4.684   5.854   3.747  0.7091  1.1398  2.2269
   58CHL1   C10 5437   4.566   5.940   3.601  0.8430  0.2825  0.4230
   58CHL1   C19 5438   4.432   6.018   3.586 -0.0779  0.7921  0.0199
   58CHL1  H19A 5439   4.416   6.051   3.482  0.2627 -1.8746 -0.9523
   58CHL1  H19B 5440   4.338   5.966   3.613 -0.4511  1.1234 -0.6131
   58CHL1  H19C 5441   4.430   6.119   3.634  0.8702  1.3380 -1.0335
   58CHL1    C1 5442   4.687   6.025   3.552 -0.1594 -0.0762 -0.5968
   58CHL1   H1A 5443   4.693   6.130   3.588  0.9299 -0.1786 -0.4354
   58CHL1   H1B 5444   4.780   5.975   3.586 -1.5118 -1.5285  1.1727
   58CHL1    C2 5445   4.703   6.035   3.399  0.6546  0.3988  0.0812
   58CHL1   H2A 5446   4.802   6.074   3.365  0.9630 -0.6259 -0.2494
   58CHL1   H2B 5447   4.633   6.109   3.356  1.5285  0.4579 -1.3056
   58CHL1   C20 5448   4.452   5.871   4.298  0.2371 -0.9621 -0.3179
   58CHL1   H20 5449   4.344   5.891   4.281  0.6421  1.5128 -0.3193
   58CHL1   C21 5450   4.513   6.012   4.317  0.2970  0.2750  0.2476
   58CHL1  H21A 5451   4.624   6.018   4.321  0.1944  2.2987  2.8716
   58CHL1  H21B 5452   4.482   6.058   4.413 -0.0448  1.0767 -0.2343
   58CHL1  H21C 5453   4.483   6.087   4.241  0.2659  0.4092  0.3914
   58CHL1   C22 5454   4.461   5.791   4.431 -0.2293 -0.4230 -0.1892
   58CHL1  H22A 5455   4.456   5.682   4.413 -0.2719 -0.6678  1.1957
   58CHL1  H22B 5456   4.564   5.799   4.472 -0.9085 -0.4463  1.6026
   58CHL1   C23 5457   4.359   5.833   4.540 -0.2275  0.3620 -0.0672
   58CHL1  H23A 5458   4.371   5.942   4.558  0.4760  0.5517 -1.4699
   58CHL1  H23B 5459   4.261   5.822   4.490  0.9233  1.9958 -2.9526
   58CHL1   C24 5460   4.372   5.752   4.670 -0.5525 -0.0689  0.6355
   58CHL1  H24A 5461   4.386   5.645   4.642  2.5746  0.6757 -1.1284
   58CHL1  H24B 5462   4.468   5.784   4.716  2.3482 -4.1342 -1.8556
   58CHL1   C25 5463   4.267   5.781   4.777 -0.2323  0.5769 -0.5516
   58CHL1   H25 5464   4.170   5.772   4.724 -0.9853 -1.1148  1.0068
   58CHL1   C26 5465   4.262   5.685   4.902 -0.3242  0.1710  0.5135
   58CHL1  H26A 5466   4.351   5.699   4.967  0.6562  0.3882 -0.8409
   58CHL1  H26B 5467   4.171   5.698   4.964 -1.4151  1.0290 -1.1988
   58CHL1  H26C 5468   4.261   5.578   4.871  0.6038 -0.7987  3.4653
   58CHL1   C27 5469   4.269   5.925   4.831  0.6758  0.9893 -0.1025
   58CHL1  H27A 5470   4.352   5.947   4.901  2.5780  0.3847 -2.0719
   58CHL1  H27B 5471   4.276   6.001   4.751  1.0321  0.5533 -0.4892
   58CHL1  H27C 5472   4.172   5.949   4.880  0.7350 -0.5912  0.8614
   59CHL1    C3 5473   3.846   6.340   3.450 -0.8696  0.4255  0.3270
   59CHL1    H3 5474   3.746   6.382   3.474 -0.3353  2.5056 -0.8129
   59CHL1    O3 5475   3.867   6.369   3.312  0.1913 -0.5026  0.1037
   59CHL1   H3' 5476   3.939   6.314   3.281  0.3026  0.5526 -1.6530
   59CHL1    C4 5477   3.960   6.411   3.535  0.2156  0.6326 -0.3983
   59CHL1   H4A 5478   4.056   6.396   3.481 -0.3495 -0.6592 -1.0850
   59CHL1   H4B 5479   3.944   6.520   3.526  0.7856  0.7837  0.3228
   59CHL1    C5 5480   3.960   6.393   3.683 -0.6467  0.2031 -0.6888
   59CHL1    C6 5481   3.958   6.490   3.771  0.3133 -0.1478 -0.5268
   59CHL1    H6 5482   3.961   6.593   3.733  1.8792 -1.1359 -3.3845
   59CHL1    C7 5483   3.954   6.473   3.921  0.2278 -0.0975 -0.3370
   59CHL1   H7A 5484   4.020   6.536   3.984  2.0831 -0.5191 -1.7682
   59CHL1   H7B 5485   3.852   6.497   3.959  0.9658  0.8385  1.1589
   59CHL1    C8 5486   3.998   6.332   3.962 -0.1283 -0.1958  0.1771
   59CHL1    H8 5487   4.108   6.322   3.951  0.3137  1.9185  2.0055
   59CHL1   C14 5488   3.962   6.315   4.112 -0.2236 -0.5757 -0.3275
   59CHL1   H14 5489   3.851   6.317   4.112 -0.2175  0.1808 -0.0660
   59CHL1   C15 5490   4.004   6.424   4.221 -0.1720 -0.6439 -0.0662
   59CHL1  H15A 5491   4.113   6.447   4.214 -0.1216 -1.2154 -1.6375
   59CHL1  H15B 5492   3.945   6.517   4.209  0.7439 -0.1349 -0.7869
   59CHL1   C16 5493   3.981   6.353   4.348 -0.0699 -0.5504 -0.0795
   59CHL1  H16A 5494   4.067   6.374   4.415 -1.3249  0.9729  1.1389
   59CHL1  H16B 5495   3.893   6.393   4.404  0.9674  1.9467 -0.0998
   59CHL1   C17 5496   3.966   6.203   4.322 -0.2164 -0.0216  0.0811
   59CHL1   H17 5497   3.857   6.180   4.326 -0.5327  1.4623  0.3192
   59CHL1   C13 5498   4.007   6.187   4.176 -0.8194  0.4315 -0.1018
   59CHL1   C18 5499   4.165   6.177   4.165  0.0770 -0.2543 -0.1135
   59CHL1  H18A 5500   4.221   6.256   4.220  3.6078 -2.3451 -0.3747
   59CHL1  H18B 5501   4.199   6.086   4.220  2.0086  2.2258  3.1348
   59CHL1  H18C 5502   4.208   6.166   4.063 -0.0474  2.6780 -0.5502
   59CHL1   C12 5503   3.946   6.074   4.086 -1.2067  0.0314  0.3911
   59CHL1  H12A 5504   3.992   5.977   4.114  1.4553  1.1068  0.0268
   59CHL1  H12B 5505   3.841   6.080   4.122 -0.4669  2.3986  2.3977
   59CHL1   C11 5506   3.964   6.091   3.934  0.1973  0.4585 -0.1921
   59CHL1  H11A 5507   4.074   6.087   3.922  0.3676  3.5208 -0.3613
   59CHL1  H11B 5508   3.912   6.011   3.876  2.5112 -0.8916 -0.5428
   59CHL1    C9 5509   3.930   6.227   3.876  0.6949  0.7907  0.0684
   59CHL1    H9 5510   3.822   6.242   3.895  0.4054 -0.3441 -0.5972
   59CHL1   C10 5511   3.951   6.245   3.720 -0.7033 -0.3141  0.0956
   59CHL1   C19 5512   4.084   6.183   3.680 -0.1463  0.4900 -0.1055
   59CHL1  H19A 5513   4.088   6.073   3.697 -1.5024  0.6389  1.5618
   59CHL1  H19B 5514   4.107   6.200   3.573  3.1433 -1.7544  0.1140
   59CHL1  H19C 5515   4.168   6.219   3.744  0.4383 -0.8442 -0.0947
   59CHL1    C1 5516   3.841   6.168   3.641  0.3932  0.4472  0.6838
   59CHL1   H1A 5517   3.838   6.061   3.672  0.1020  0.6183  1.2693
   59CHL1   H1B 5518   3.739   6.196   3.675  1.0112  0.4312  2.6793
   59CHL1    C2 5519   3.852   6.186   3.490  0.0908 -0.6505  0.8335
   59CHL1   H2A 5520   3.769   6.134   3.437  0.2248 -1.0085  0.9674
   59CHL1   H2B 5521   3.941   6.147   3.437 -1.4193  0.2052 -2.5853
   59CHL1   C20 5522   4.024   6.108   4.427 -0.9812  0.4977 -0.5696
   59CHL1   H20 5523   4.135   6.098   4.421 -0.9185 -1.4086  1.8869
   59CHL1   C21 5524   3.960   5.968   4.408  0.3841  0.2817 -0.1969
   59CHL1  H21A 5525   4.007   5.893   4.476 -2.0094 -0.8236  0.3286
   59CHL1  H21B 5526   3.977   5.937   4.303 -0.2461  0.0018 -0.2171
   59CHL1  H21C 5527   3.853   5.961   4.437  0.1287 -0.3991 -1.2439
   59CHL1   C22 5528   4.009   6.151   4.578  0.5221  0.3307  0.2706
   59CHL1  H22A 5529   4.066   6.074   4.634  0.5712 -0.0956 -0.3511
   59CHL1  H22B 5530   4.067   6.246   4.578  3.0433 -1.0403 -2.3383
   59CHL1   C23 5531   3.871   6.205   4.626  0.3175 -0.4408 -0.0765
   59CHL1  H23A 5532   3.851   6.309   4.593  1.0589  0.0489  0.9706
   59CHL1  H23B 5533   3.796   6.137   4.580  0.0830 -0.6597  0.6213
   59CHL1   C24 5534   3.862   6.198   4.778  0.5080 -0.2697  0.3162
   59CHL1  H24A 5535   3.883   6.098   4.820 -0.1957 -0.1982  0.8451
   59CHL1  H24B 5536   3.933   6.268   4.828  0.4712 -1.5141  2.1935
   59CHL1   C25 5537   3.719   6.241   4.819 -0.3570 -0.6849  0.4766
   59CHL1   H25 5538   3.645   6.193   4.751  0.4136 -2.4215  0.8048
   59CHL1   C26 5539   3.687   6.193   4.962 -0.4275 -0.4229 -0.1978
   59CHL1  H26A 5540   3.645   6.091   4.953  1.5755 -1.6158  2.2843
   59CHL1  H26B 5541   3.786   6.189   5.014 -0.0739  0.4180 -0.7791
   59CHL1  H26C 5542   3.617   6.269   5.004 -0.0931  0.5745 -1.3832
   59CHL1   C27 5543   3.694   6.397   4.805 -0.7128 -0.1332  0.3655
   59CHL1  H27A 5544   3.593   6.427   4.838  0.9544  5.1990  1.5891
   59CHL1  H27B 5545   3.774   6.444   4.867 -0.6878  2.0868 -1.2277
   59CHL1  H27C 5546   3.704   6.429   4.699  1.3213  3.2249  1.4162
   60CHL1    C3 5547   3.083   5.532   3.293  0.4680 -0.6903 -0.4007
   60CHL1    H3 5548   3.067   5.637   3.327  0.2274 -0.2479 -1.8179
   60CHL1    O3 5549   3.063   5.532   3.149  0.1555  0.0397 -0.0580
   60CHL1   H3' 5550   3.116   5.456   3.123 -1.3808  0.0238 -3.6077
   60CHL1    C4 5551   3.225   5.481   3.319  0.0389 -0.8411 -0.1724
   60CHL1   H4A 5552   3.243   5.382   3.272  0.8183 -0.4981 -0.6335
   60CHL1   H4B 5553   3.289   5.556   3.267 -0.7831  0.3366  0.4753
   60CHL1    C5 5554   3.249   5.480   3.470 -0.1100  0.3597 -0.3909
   60CHL1    C6 5555   3.346   5.553   3.526  0.1165  0.5497  0.3877
   60CHL1    H6 5556   3.421   5.592   3.457  1.5905 -2.0727  0.3651
   60CHL1    C7 5557   3.363   5.556   3.673 -0.0375 -0.5307  0.0164
   60CHL1   H7A 5558   3.473   5.565   3.686  0.6581 -1.9146 -3.5039
   60CHL1   H7B 5559   3.319   5.645   3.723  0.8255  0.7543 -1.4088
   60CHL1    C8 5560   3.311   5.430   3.742  0.4531  0.1358  0.1122
   60CHL1    H8 5561   3.371   5.346   3.700 -2.2629 -1.7875 -0.2405
   60CHL1   C14 5562   3.336   5.448   3.887  0.2055  0.5202 -0.1256
   60CHL1   H14 5563   3.281   5.538   3.920 -0.2243  0.1751  0.1078
   60CHL1   C15 5564   3.479   5.458   3.942 -0.4881 -0.9828 -0.0285
   60CHL1  H15A 5565   3.547   5.395   3.880 -1.0515 -0.7926 -0.8643
   60CHL1  H15B 5566   3.504   5.566   3.926 -1.3462 -0.6323  0.8877
   60CHL1   C16 5567   3.458   5.431   4.091 -0.0348 -0.3750 -0.0712
   60CHL1  H16A 5568   3.519   5.344   4.123 -0.0612 -0.1157  0.7083
   60CHL1  H16B 5569   3.492   5.527   4.136 -1.5602  0.3165 -0.3316
   60CHL1   C17 5570   3.308   5.387   4.111 -0.3919  0.1993 -0.9936
   60CHL1   H17 5571   3.267   5.486   4.142  0.3906  0.6136 -1.2427
   60CHL1   C13 5572   3.264   5.345   3.975  0.4396 -0.0069  1.2457
   60CHL1   C18 5573   3.321   5.207   3.942 -0.1163  0.1880  0.1701
   60CHL1  H18A 5574   3.255   5.131   3.989 -4.6896  2.6892 -1.4979
   60CHL1  H18B 5575   3.319   5.186   3.833  0.9747 -1.0344  0.3740
   60CHL1  H18C 5576   3.428   5.195   3.969  0.1237  3.7979  1.3674
   60CHL1   C12 5577   3.113   5.351   3.945  0.3561  0.3928 -0.2982
   60CHL1  H12A 5578   3.065   5.260   3.986 -0.2572 -0.2251 -2.2385
   60CHL1  H12B 5579   3.056   5.437   3.988  3.2357  2.8010 -0.9656
   60CHL1   C11 5580   3.077   5.320   3.796 -0.5769  0.6024  0.1702
   60CHL1  H11A 5581   3.103   5.214   3.773 -1.8638  0.2882  0.0845
   60CHL1  H11B 5582   2.969   5.339   3.779 -0.7871  1.2943  2.0856
   60CHL1    C9 5583   3.166   5.408   3.704  0.2518 -0.0667 -0.4649
   60CHL1    H9 5584   3.131   5.513   3.718  1.2142  0.2999 -0.7121
   60CHL1   C10 5585   3.148   5.389   3.550 -0.4196  0.3769 -0.1366
   60CHL1   C19 5586   3.180   5.242   3.519  0.7219 -0.9157  0.2137
   60CHL1  H19A 5587   3.289   5.219   3.525  0.7731 -0.8384 -0.3410
   60CHL1  H19B 5588   3.129   5.174   3.590  0.7471 -0.8583  0.2876
   60CHL1  H19C 5589   3.149   5.225   3.414  0.0200  1.3805 -0.0073
   60CHL1    C1 5590   3.014   5.432   3.504 -0.1559  0.2481  0.2116
   60CHL1   H1A 5591   2.937   5.358   3.535 -1.0042  0.2960 -1.6626
   60CHL1   H1B 5592   2.996   5.536   3.538 -1.8892  0.2231 -0.5439
   60CHL1    C2 5593   2.984   5.441   3.352  0.7117 -0.2166 -0.4234
   60CHL1   H2A 5594   2.883   5.483   3.331  0.1381 -0.7493  1.1012
   60CHL1   H2B 5595   2.995   5.343   3.299  0.1505 -0.2874 -0.4150
   60CHL1   C20 5596   3.280   5.290   4.230 -0.6485 -0.4279  0.4271
   60CHL1   H20 5597   3.290   5.186   4.193 -0.1531  0.9580 -3.9156
   60CHL1   C21 5598   3.133   5.311   4.283  0.5043  0.2084 -0.4393
   60CHL1  H21A 5599   3.132   5.396   4.354 -0.1209 -0.5405  0.4784
   60CHL1  H21B 5600   3.097   5.217   4.331  0.2703  0.5703  0.1011
   60CHL1  H21C 5601   3.065   5.328   4.197 -1.7724 -0.7780  1.0674
   60CHL1   C22 5602   3.370   5.317   4.356  0.8611 -0.2569  0.0852
   60CHL1  H22A 5603   3.477   5.297   4.335  1.5044  0.4790  2.3121
   60CHL1  H22B 5604   3.363   5.421   4.396  2.1330 -0.1848  0.1879
   60CHL1   C23 5605   3.338   5.225   4.475  0.2106  0.1147 -0.2606
   60CHL1  H23A 5606   3.233   5.246   4.506  0.5203  0.8753  0.2975
   60CHL1  H23B 5607   3.332   5.120   4.438  0.4730 -0.0298  0.0970
   60CHL1   C24 5608   3.421   5.247   4.603  0.2443 -0.0339  0.4538
   60CHL1  H24A 5609   3.531   5.241   4.587  0.1892  1.1155 -0.5204
   60CHL1  H24B 5610   3.384   5.345   4.640 -3.3235 -1.1775  0.2843
   60CHL1   C25 5611   3.380   5.148   4.718 -0.4470  0.6364 -0.4334
   60CHL1   H25 5612   3.269   5.145   4.725 -0.4508  1.3710 -0.0811
   60CHL1   C26 5613   3.444   5.010   4.695  0.2937 -0.1002 -0.5056
   60CHL1  H26A 5614   3.414   4.966   4.598 -4.2067  0.0246  0.5980
   60CHL1  H26B 5615   3.555   5.009   4.701  0.2734 -2.1898  0.3919
   60CHL1  H26C 5616   3.408   4.935   4.769  3.2601 -1.3180 -0.1647
   60CHL1   C27 5617   3.434   5.196   4.852  0.0469  0.0524 -0.1262
   60CHL1  H27A 5618   3.403   5.302   4.865  3.1664  1.1008 -0.5102
   60CHL1  H27B 5619   3.397   5.129   4.933 -1.3407 -2.3387 -2.5502
   60CHL1  H27C 5620   3.544   5.190   4.842  0.0117  1.6087 -1.9502
   61CHL1    C3 5621   0.474   5.989   3.218 -0.1432 -0.5882  0.0516
   61CHL1    H3 5622   0.542   6.057   3.273 -0.1893 -0.3125 -0.2289
   61CHL1    O3 5623   0.496   5.998   3.080 -0.3069 -0.5481  0.0861
   61CHL1   H3' 5624   0.434   5.933   3.045 -0.5496 -1.9546  2.8227
   61CHL1    C4 5625   0.486   5.848   3.261 -0.4902 -0.8123 -0.3357
   61CHL1   H4A 5626   0.416   5.780   3.207 -2.2525 -1.1532  2.2087
   61CHL1   H4B 5627   0.590   5.812   3.242  0.2133 -0.2132  2.1124
   61CHL1    C5 5628   0.453   5.830   3.412  0.5390 -0.4122  0.7519
   61CHL1    C6 5629   0.540   5.773   3.494 -0.2925 -0.8680 -0.3584
   61CHL1    H6 5630   0.627   5.730   3.444 -0.2821 -0.5586 -0.6087
   61CHL1    C7 5631   0.512   5.750   3.640  0.0975  0.5084  0.0774
   61CHL1   H7A 5632   0.539   5.648   3.674 -3.3177  0.2971  2.6680
   61CHL1   H7B 5633   0.555   5.826   3.708 -1.1834 -1.0220  2.7554
   61CHL1    C8 5634   0.362   5.757   3.671 -0.0896 -0.6088 -0.2859
   61CHL1    H8 5635   0.304   5.666   3.646 -3.1925  0.9961  0.5319
   61CHL1   C14 5636   0.347   5.781   3.822  0.1641 -0.0913  0.5460
   61CHL1   H14 5637   0.397   5.877   3.848  0.7142  0.8303 -3.3132
   61CHL1   C15 5638   0.410   5.668   3.914 -0.1680 -0.7314 -0.6698
   61CHL1  H15A 5639   0.396   5.570   3.863 -1.7668 -0.0742 -1.5666
   61CHL1  H15B 5640   0.515   5.688   3.942 -0.4191 -0.2964 -0.0052
   61CHL1   C16 5641   0.317   5.674   4.035  0.2748  0.0666 -0.3731
   61CHL1  H16A 5642   0.269   5.574   4.038  3.4479 -1.7113 -2.6380
   61CHL1  H16B 5643   0.384   5.692   4.122  1.0010  0.7864 -1.0658
   61CHL1   C17 5644   0.217   5.790   4.015  0.2247  0.4609  0.4285
   61CHL1   H17 5645   0.275   5.879   4.049  2.0912 -0.5518  0.0780
   61CHL1   C13 5646   0.202   5.799   3.862  0.1796  0.0401  0.9934
   61CHL1   C18 5647   0.106   5.684   3.808 -0.2256 -0.3726 -0.1042
   61CHL1  H18A 5648   0.091   5.684   3.698 -1.8938  1.2300  0.0715
   61CHL1  H18B 5649   0.133   5.585   3.851 -1.4011 -0.9011 -0.5637
   61CHL1  H18C 5650   0.006   5.689   3.855  0.3419 -3.1499  1.6309
   61CHL1   C12 5651   0.149   5.934   3.799  0.2739 -0.6763  0.0078
   61CHL1  H12A 5652   0.041   5.949   3.821 -0.6067 -2.4535 -2.6413
   61CHL1  H12B 5653   0.212   6.018   3.836  1.4237 -2.0273  1.2223
   61CHL1   C11 5654   0.161   5.928   3.647  0.5962  1.0472 -0.6144
   61CHL1  H11A 5655   0.083   5.858   3.610  0.8654  0.0485  0.6259
   61CHL1  H11B 5656   0.137   6.033   3.617 -0.7403  1.3562  1.3329
   61CHL1    C9 5657   0.299   5.879   3.600 -0.4435  0.5610 -0.0376
   61CHL1    H9 5658   0.358   5.962   3.645 -0.8890  1.2146 -0.6339
   61CHL1   C10 5659   0.323   5.882   3.450 -0.0351 -0.5071 -0.5465
   61CHL1   C19 5660   0.215   5.797   3.382  0.0073  0.6641 -0.1151
   61CHL1  H19A 5661   0.233   5.775   3.275 -0.8188  0.8206 -0.2910
   61CHL1  H19B 5662   0.188   5.705   3.438  0.3951  0.1352 -0.7820
   61CHL1  H19C 5663   0.118   5.849   3.391 -0.4171  0.3087 -2.2980
   61CHL1    C1 5664   0.312   6.028   3.396  0.4488 -0.7079 -0.1599
   61CHL1   H1A 5665   0.213   6.074   3.414  1.4958  1.3874  0.5239
   61CHL1   H1B 5666   0.384   6.089   3.454 -0.5606  0.6066 -0.2675
   61CHL1    C2 5667   0.340   6.038   3.246  0.1644 -0.6966 -0.1609
   61CHL1   H2A 5668   0.339   6.144   3.213  1.3915 -0.3677  0.7956
   61CHL1   H2B 5669   0.259   5.984   3.192  0.7712 -0.7944 -0.9959
   61CHL1   C20 5670   0.098   5.781   4.107  0.4769  0.0742 -0.6371
   61CHL1   H20 5671   0.044   5.685   4.094  0.1262  0.2039 -0.1662
   61CHL1   C21 5672  -0.010   5.889   4.077 -0.0206  0.2194  0.5995
   61CHL1  H21A 5673   0.024   5.993   4.095  0.1505  0.0556  1.2346
   61CHL1  H21B 5674  -0.101   5.864   4.134  0.2536 -1.2335  0.4247
   61CHL1  H21C 5675  -0.036   5.879   3.970  3.3758  0.3011 -0.3748
   61CHL1   C22 5676   0.144   5.781   4.258 -0.5827  0.6441 -0.6561
   61CHL1  H22A 5677   0.196   5.685   4.281 -0.2054  1.0774  0.3791
   61CHL1  H22B 5678   0.216   5.863   4.277  0.5461 -0.3708 -0.4544
   61CHL1   C23 5679   0.027   5.817   4.357  0.6146 -0.9877 -0.6265
   61CHL1  H23A 5680  -0.024   5.911   4.326  2.0834 -0.3581 -1.2655
   61CHL1  H23B 5681  -0.052   5.741   4.337  0.5121 -2.0191  3.0017
   61CHL1   C24 5682   0.069   5.807   4.506 -0.1784 -0.5565  0.3702
   61CHL1  H24A 5683   0.119   5.708   4.518 -0.3341 -0.5728  0.9217
   61CHL1  H24B 5684   0.148   5.884   4.519 -2.3900  1.6825  1.4491
   61CHL1   C25 5685  -0.048   5.828   4.609 -0.0164 -0.4203  0.9634
   61CHL1   H25 5686  -0.104   5.918   4.576  0.1375 -1.1004 -1.2442
   61CHL1   C26 5687  -0.142   5.709   4.616  0.7157  0.4803  0.1755
   61CHL1  H26A 5688  -0.185   5.704   4.514  2.6825  2.4925 -0.8314
   61CHL1  H26B 5689  -0.089   5.615   4.643 -2.9014 -1.7858  0.0727
   61CHL1  H26C 5690  -0.221   5.728   4.692 -0.3832  0.0199 -0.8163
   61CHL1   C27 5691  -0.004   5.879   4.750 -0.0044 -0.3904 -0.4992
   61CHL1  H27A 5692   0.032   5.984   4.742 -0.1485 -0.1282  1.6309
   61CHL1  H27B 5693  -0.084   5.883   4.827 -0.5951 -1.8211 -0.9930
   61CHL1  H27C 5694   0.079   5.814   4.785  0.7111  0.5458 -0.4298
   62CHL1    C3 5695   6.429   3.236   3.584  0.5489  0.1030  0.3069
   62CHL1    H3 5696   6.358   3.159   3.621 -0.3946 -0.3019 -2.1678
   62CHL1    O3 5697   6.387   3.284   3.455 -0.0941  0.2438 -0.6651
   62CHL1   H3' 5698   6.456   3.346   3.430 -0.3584  1.0496  0.5242
   62CHL1    C4 5699   6.429   3.359   3.682  0.2312 -0.0796 -0.0598
   62CHL1   H4A 5700   6.494   3.440   3.642 -0.8721  0.6119 -0.5034
   62CHL1   H4B 5701   6.328   3.403   3.698  0.9641  0.8964  2.4315
   62CHL1    C5 5702   6.477   3.326   3.825  0.4963  0.5908  0.0149
   62CHL1    C6 5703   6.402   3.347   3.933 -0.0024 -0.5510 -0.2247
   62CHL1    H6 5704   6.303   3.392   3.914  0.4417  0.1048 -1.0569
   62CHL1    C7 5705   6.438   3.320   4.072  0.3735  0.0015 -0.0489
   62CHL1   H7A 5706   6.437   3.408   4.140  0.5814  0.4906 -0.6720
   62CHL1   H7B 5707   6.371   3.246   4.121  0.5419  1.0846  1.9255
   62CHL1    C8 5708   6.584   3.277   4.093 -0.2892 -0.6273 -0.6617
   62CHL1    H8 5709   6.647   3.369   4.096 -1.6041  0.2722 -0.0507
   62CHL1   C14 5710   6.607   3.194   4.222 -0.0502 -0.1457  0.3530
   62CHL1   H14 5711   6.550   3.100   4.208 -2.9023  1.6476 -0.8969
   62CHL1   C15 5712   6.553   3.265   4.345 -0.6232  0.0170  0.0829
   62CHL1  H15A 5713   6.592   3.368   4.333  2.0306 -0.9483 -0.2844
   62CHL1  H15B 5714   6.443   3.256   4.358 -0.3195 -2.2763  1.5000
   62CHL1   C16 5715   6.626   3.203   4.460 -0.3092 -0.1788 -0.2474
   62CHL1  H16A 5716   6.677   3.278   4.525  0.9016 -0.4456 -0.8611
   62CHL1  H16B 5717   6.562   3.140   4.525  1.3548 -0.2390  1.4481
   62CHL1   C17 5718   6.735   3.113   4.398 -0.0854 -0.7721  0.4710
   62CHL1   H17 5719   6.694   3.010   4.393  3.6425 -2.3627 -1.0492
   62CHL1   C13 5720   6.752   3.161   4.251  0.3507 -0.4870 -0.2670
   62CHL1   C18 5721   6.848   3.284   4.242  0.3786  1.1057  0.8145
   62CHL1  H18A 5722   6.949   3.241   4.229 -0.6111 -1.1072 -0.1323
   62CHL1  H18B 5723   6.822   3.348   4.155 -1.8602 -1.1140 -0.2858
   62CHL1  H18C 5724   6.852   3.351   4.330  0.8984 -1.4318  2.8177
   62CHL1   C12 5725   6.789   3.055   4.142  0.4457 -0.6329 -0.1578
   62CHL1  H12A 5726   6.891   3.011   4.150 -0.5195 -2.7896  1.5965
   62CHL1  H12B 5727   6.719   2.969   4.150 -2.1455  1.5177  2.4406
   62CHL1   C11 5728   6.768   3.121   4.000  0.1271 -0.0323  0.6875
   62CHL1  H11A 5729   6.848   3.195   3.978  0.5892 -0.8616 -0.5343
   62CHL1  H11B 5730   6.782   3.046   3.919  1.0365  2.1627 -1.3240
   62CHL1    C9 5731   6.633   3.182   3.981  0.2297  0.2250  0.2330
   62CHL1    H9 5732   6.552   3.107   3.989  0.7317 -0.3284  0.1676
   62CHL1   C10 5733   6.612   3.249   3.835 -0.1150  0.1547 -0.6481
   62CHL1   C19 5734   6.723   3.344   3.804  0.0073  0.5065  0.1612
   62CHL1  H19A 5735   6.739   3.408   3.893 -0.9992 -0.6405  1.2121
   62CHL1  H19B 5736   6.818   3.292   3.779  0.6965  1.2658  1.1567
   62CHL1  H19C 5737   6.688   3.412   3.723  1.9812  0.9039 -0.4159
   62CHL1    C1 5738   6.611   3.135   3.726 -0.0525 -0.9387 -0.6102
   62CHL1   H1A 5739   6.712   3.087   3.721  0.6649  0.3506  0.7671
   62CHL1   H1B 5740   6.542   3.058   3.766 -2.0362  0.7537 -0.6292
   62CHL1    C2 5741   6.568   3.173   3.586  0.1395 -0.0395  0.0066
   62CHL1   H2A 5742   6.566   3.087   3.515 -0.8552  0.5843 -0.7568
   62CHL1   H2B 5743   6.634   3.244   3.532 -0.4598 -0.2672 -1.0729
   62CHL1   C20 5744   6.858   3.109   4.488  0.4285  0.0638  0.1728
   62CHL1   H20 5745   6.902   3.209   4.509 -0.6836  0.2633  1.6882
   62CHL1   C21 5746   6.955   3.004   4.422  0.1619  0.1114 -0.5368
   62CHL1  H21A 5747   7.001   3.056   4.335 -1.6061 -0.1188 -1.6456
   62CHL1  H21B 5748   6.901   2.919   4.376 -1.5699  0.4485  0.7798
   62CHL1  H21C 5749   7.023   2.963   4.500 -1.8808 -0.1176  1.2096
   62CHL1   C22 5750   6.828   3.053   4.626  0.0955  0.3163  0.1648
   62CHL1  H22A 5751   6.738   3.107   4.661 -0.4995 -0.6866  0.2261
   62CHL1  H22B 5752   6.795   2.946   4.621 -0.2613  0.4793 -1.7378
   62CHL1   C23 5753   6.944   3.079   4.738 -0.4324  0.7559  0.2956
   62CHL1  H23A 5754   7.032   3.034   4.689 -0.7490  2.1760 -1.7155
   62CHL1  H23B 5755   6.948   3.190   4.748  0.6637  0.7503 -0.0307
   62CHL1   C24 5756   6.910   3.039   4.882 -0.3158 -0.1294  0.3049
   62CHL1  H24A 5757   6.955   3.107   4.957 -1.0312 -1.6636  2.2356
   62CHL1  H24B 5758   6.802   3.064   4.892 -0.3396 -0.7418  1.8599
   62CHL1   C25 5759   6.925   2.887   4.919 -0.5905 -0.4114 -0.9576
   62CHL1   H25 5760   6.866   2.825   4.847 -1.3939 -0.6014 -0.1539
   62CHL1   C26 5761   7.075   2.846   4.913  0.2680 -0.7136  0.6453
   62CHL1  H26A 5762   7.085   2.741   4.950  1.2638 -0.8447  0.0468
   62CHL1  H26B 5763   7.106   2.849   4.807 -2.2670 -0.3083 -0.1353
   62CHL1  H26C 5764   7.140   2.903   4.983 -0.0038 -0.2029  0.4891
   62CHL1   C27 5765   6.866   2.855   5.057  0.6475  0.4271  0.0527
   62CHL1  H27A 5766   6.828   2.751   5.045  0.5828  0.7153 -3.3540
   62CHL1  H27B 5767   6.937   2.855   5.142  0.1945  0.3982  0.4325
   62CHL1  H27C 5768   6.772   2.910   5.079 -1.7117 -3.6949  1.4465
   63CHL1    C3 5769   3.279   4.762   3.556  0.3766 -1.1253  0.0711
   63CHL1    H3 5770   3.179   4.732   3.519 -0.9076  0.8890  1.6537
   63CHL1    O3 5771   3.359   4.795   3.448  0.8341  0.5161  0.6006
   63CHL1   H3' 5772   3.327   4.748   3.371  1.2585  2.2911 -0.7379
   63CHL1    C4 5773   3.260   4.898   3.634  0.6724  0.2659  0.5355
   63CHL1   H4A 5774   3.357   4.951   3.649  0.3522  0.8428  0.6149
   63CHL1   H4B 5775   3.205   4.967   3.566 -0.9437  0.2364  1.7415
   63CHL1    C5 5776   3.185   4.875   3.761  0.3754 -0.1361  0.7240
   63CHL1    C6 5777   3.069   4.941   3.787  0.3335 -0.2007 -0.4097
   63CHL1    H6 5778   3.035   5.020   3.718  3.4117  0.6170 -1.1216
   63CHL1    C7 5779   3.000   4.931   3.926  0.0644 -0.5022  0.2915
   63CHL1   H7A 5780   2.967   5.032   3.958 -0.9926 -1.0801  1.0870
   63CHL1   H7B 5781   2.924   4.850   3.928 -1.4674  0.8795  1.7430
   63CHL1    C8 5782   3.096   4.878   4.032 -0.3662  0.7239  0.3380
   63CHL1    H8 5783   3.171   4.957   4.054 -1.9676  2.2681  0.5394
   63CHL1   C14 5784   3.019   4.848   4.161  0.0547 -0.4492 -0.4898
   63CHL1   H14 5785   2.941   4.774   4.132 -0.9070  0.3280  0.0614
   63CHL1   C15 5786   2.949   4.967   4.229 -0.3081  0.6960  0.3400
   63CHL1  H15A 5787   3.015   5.055   4.240 -2.4265  2.2039  1.8250
   63CHL1  H15B 5788   2.867   4.999   4.161 -1.1025  0.9402  1.3944
   63CHL1   C16 5789   2.892   4.895   4.355  0.4229 -0.7970  0.8981
   63CHL1  H16A 5790   2.906   4.975   4.430 -0.1752 -0.7849  0.9947
   63CHL1  H16B 5791   2.785   4.868   4.344  0.0864  0.2889  1.4103
   63CHL1   C17 5792   2.994   4.781   4.382  0.1558 -0.4564  0.1619
   63CHL1   H17 5793   2.934   4.688   4.373 -0.1404 -0.5327  2.3923
   63CHL1   C13 5794   3.100   4.787   4.273  0.0344 -0.1820  0.1079
   63CHL1   C18 5795   3.220   4.880   4.304  1.0084  0.3176  0.1456
   63CHL1  H18A 5796   3.270   4.916   4.212 -0.0928 -1.0999 -1.0655
   63CHL1  H18B 5797   3.196   4.978   4.350  0.8898  1.0966 -1.5321
   63CHL1  H18C 5798   3.291   4.833   4.376  0.3886 -1.7407 -0.5159
   63CHL1   C12 5799   3.153   4.649   4.225 -0.0542  0.0842  0.0698
   63CHL1  H12A 5800   3.220   4.595   4.295 -1.8793 -2.4961 -0.0429
   63CHL1  H12B 5801   3.067   4.584   4.200 -0.6547  0.5151  0.9589
   63CHL1   C11 5802   3.235   4.667   4.099 -0.7327 -0.4154 -0.0048
   63CHL1  H11A 5803   3.335   4.709   4.125 -0.8306 -0.6559  0.7995
   63CHL1  H11B 5804   3.244   4.563   4.060 -0.9317 -0.9976  1.4235
   63CHL1    C9 5805   3.171   4.751   3.986  0.1213  0.3066 -0.3932
   63CHL1    H9 5806   3.088   4.687   3.948 -0.8685  0.2974  1.6620
   63CHL1   C10 5807   3.258   4.772   3.859  0.3395  0.2605  1.1256
   63CHL1   C19 5808   3.393   4.827   3.901 -0.0890 -0.0752 -0.4550
   63CHL1  H19A 5809   3.453   4.743   3.943  2.5416  1.8933 -0.0125
   63CHL1  H19B 5810   3.456   4.859   3.815 -0.4482  1.0313 -0.3184
   63CHL1  H19C 5811   3.397   4.914   3.970  1.6492 -1.5628  1.4596
   63CHL1    C1 5812   3.272   4.634   3.774 -0.4743  0.2213  0.7180
   63CHL1   H1A 5813   3.329   4.572   3.845  0.7541  1.7513  1.1308
   63CHL1   H1B 5814   3.172   4.587   3.759 -0.0082 -1.1612  1.8046
   63CHL1    C2 5815   3.343   4.655   3.640 -0.0396  0.8847  0.1210
   63CHL1   H2A 5816   3.350   4.560   3.583  1.1362  0.3035  1.1874
   63CHL1   H2B 5817   3.442   4.693   3.674 -0.2943  0.5127  1.3100
   63CHL1   C20 5818   3.041   4.781   4.528 -0.1083 -0.4104  0.0607
   63CHL1   H20 5819   3.104   4.872   4.538 -2.1354  0.9607  1.1747
   63CHL1   C21 5820   3.123   4.659   4.560 -0.4537  0.4578 -0.0239
   63CHL1  H21A 5821   3.214   4.663   4.497  1.2935  0.9309  2.3984
   63CHL1  H21B 5822   3.074   4.561   4.546  3.0147 -1.4742  0.2405
   63CHL1  H21C 5823   3.149   4.662   4.668 -1.1311 -2.0923  0.2597
   63CHL1   C22 5824   2.921   4.797   4.631 -0.1306  0.2018 -0.2111
   63CHL1  H22A 5825   2.844   4.871   4.599  0.0604 -0.7692 -3.2690
   63CHL1  H22B 5826   2.870   4.698   4.630 -0.6423  0.4216  1.4311
   63CHL1   C23 5827   2.962   4.829   4.774 -0.3359  0.4642  0.5326
   63CHL1  H23A 5828   3.005   4.736   4.816  0.1818  0.1384 -0.6523
   63CHL1  H23B 5829   3.045   4.903   4.766  0.2945 -0.1636  1.0987
   63CHL1   C24 5830   2.855   4.890   4.863  0.0479  0.0402  0.7212
   63CHL1  H24A 5831   2.812   4.977   4.810  1.7026  0.8581  0.6526
   63CHL1  H24B 5832   2.776   4.812   4.868  0.8798 -1.0947 -2.0098
   63CHL1   C25 5833   2.882   4.924   5.010  0.3319 -0.1311  0.6462
   63CHL1   H25 5834   2.911   4.824   5.048  0.0910 -1.1767 -1.7832
   63CHL1   C26 5835   2.994   5.030   5.023  0.2128 -0.3915  0.1886
   63CHL1  H26A 5836   2.981   5.110   4.948  2.4634 -1.0991 -1.0845
   63CHL1  H26B 5837   3.015   5.071   5.124 -0.2724 -3.8336  1.8517
   63CHL1  H26C 5838   3.094   4.981   5.009  1.4090  1.4329  1.8092
   63CHL1   C27 5839   2.754   4.964   5.078 -0.4301 -0.9520 -1.1629
   63CHL1  H27A 5840   2.765   4.978   5.187  0.3484 -0.9651 -1.2343
   63CHL1  H27B 5841   2.724   5.064   5.038 -1.7012 -0.1117  1.6588
   63CHL1  H27C 5842   2.673   4.892   5.054 -3.2563  1.4992  0.4091
   64CHL1    C3 5843   1.352   2.739   3.446  0.5854 -0.1568  0.1156
   64CHL1    H3 5844   1.360   2.628   3.445  0.9273 -0.1311 -0.0862
   64CHL1    O3 5845   1.316   2.793   3.322 -0.3232  0.4019 -0.0855
   64CHL1   H3' 5846   1.309   2.886   3.344 -1.0740 -0.3134  3.3412
   64CHL1    C4 5847   1.233   2.765   3.548 -0.7322  0.1928  0.2258
   64CHL1   H4A 5848   1.203   2.870   3.532  1.2739  0.8373  0.4278
   64CHL1   H4B 5849   1.150   2.696   3.520 -0.6071 -0.2232  0.8393
   64CHL1    C5 5850   1.268   2.742   3.698  0.6024  0.4153 -0.0271
   64CHL1    C6 5851   1.193   2.660   3.783  0.1130 -0.3802 -0.1782
   64CHL1    H6 5852   1.108   2.602   3.745 -0.0334 -1.1564  1.2541
   64CHL1    C7 5853   1.225   2.661   3.925  0.3831 -0.9291  1.3149
   64CHL1   H7A 5854   1.139   2.676   3.994 -0.0132  0.4639  0.5826
   64CHL1   H7B 5855   1.260   2.559   3.949 -0.2949 -1.7450 -0.8710
   64CHL1    C8 5856   1.320   2.768   3.977  0.7409 -0.1472  0.3196
   64CHL1    H8 5857   1.264   2.864   3.975 -0.5130 -0.8678 -0.3078
   64CHL1   C14 5858   1.378   2.730   4.115  1.2330 -0.3817  0.4035
   64CHL1   H14 5859   1.438   2.639   4.094  0.7338 -0.6315  0.0239
   64CHL1   C15 5860   1.276   2.693   4.224 -0.1116 -0.0041 -0.1249
   64CHL1  H15A 5861   1.194   2.767   4.235 -0.2173 -0.0168 -0.8229
   64CHL1  H15B 5862   1.236   2.591   4.205 -0.2311  0.2715 -1.3978
   64CHL1   C16 5863   1.366   2.702   4.351 -0.7573  0.8735 -0.4633
   64CHL1  H16A 5864   1.321   2.772   4.424  1.6006 -0.1242  2.1665
   64CHL1  H16B 5865   1.392   2.617   4.418  0.9517  0.1778 -1.9446
   64CHL1   C17 5866   1.503   2.773   4.309  0.0129 -0.1840 -0.3567
   64CHL1   H17 5867   1.575   2.689   4.298  0.9265  0.5662 -0.2211
   64CHL1   C13 5868   1.470   2.832   4.173  0.3973 -0.4107  0.5269
   64CHL1   C18 5869   1.408   2.973   4.188 -0.0854 -0.5723 -0.6676
   64CHL1  H18A 5870   1.363   3.020   4.098 -1.1195 -1.0730 -0.4327
   64CHL1  H18B 5871   1.329   2.981   4.265 -0.7133 -1.2460 -1.2242
   64CHL1  H18C 5872   1.484   3.046   4.221  0.5561 -2.0954  1.4537
   64CHL1   C12 5873   1.590   2.845   4.082 -0.0754  0.5502  0.0549
   64CHL1  H12A 5874   1.656   2.926   4.118 -1.6669  1.5007  0.9906
   64CHL1  H12B 5875   1.663   2.761   4.080  0.7717  1.2973 -1.6094
   64CHL1   C11 5876   1.552   2.882   3.938  0.9217 -0.3696 -0.3014
   64CHL1  H11A 5877   1.521   2.988   3.940  2.2293  0.0375 -0.6505
   64CHL1  H11B 5878   1.635   2.857   3.868 -0.5238 -1.2655 -1.7784
   64CHL1    C9 5879   1.436   2.785   3.883  0.0027 -0.4658  1.1853
   64CHL1    H9 5880   1.487   2.688   3.871  2.7796  0.8455  1.6443
   64CHL1   C10 5881   1.395   2.825   3.738  0.7457  0.2444  0.2183
   64CHL1   C19 5882   1.365   2.979   3.726  0.0628 -0.0920 -0.4687
   64CHL1  H19A 5883   1.310   3.015   3.816  0.4105 -1.5425  0.3505
   64CHL1  H19B 5884   1.459   3.039   3.736 -0.2174  0.1403  1.1507
   64CHL1  H19C 5885   1.308   3.017   3.640 -0.8073  1.6041  0.7897
   64CHL1    C1 5886   1.510   2.783   3.642  0.2927 -0.0498 -0.4773
   64CHL1   H1A 5887   1.601   2.845   3.661  1.4060 -1.1039 -2.0978
   64CHL1   H1B 5888   1.533   2.677   3.667  0.0425  0.0089  0.0125
   64CHL1    C2 5889   1.472   2.809   3.492  0.4352 -0.2022 -0.1221
   64CHL1   H2A 5890   1.551   2.760   3.431  0.6704 -0.6196  0.5107
   64CHL1   H2B 5891   1.473   2.917   3.464  0.8608 -0.3567 -0.7278
   64CHL1   C20 5892   1.565   2.860   4.419 -0.0084 -0.3698 -0.0334
   64CHL1   H20 5893   1.501   2.951   4.424  0.3251  0.0765 -2.5647
   64CHL1   C21 5894   1.710   2.894   4.380  0.1158 -0.0553 -0.7134
   64CHL1  H21A 5895   1.781   2.906   4.464 -0.7233  0.1663 -0.0252
   64CHL1  H21B 5896   1.700   2.985   4.318 -3.0454  0.4393  0.3698
   64CHL1  H21C 5897   1.761   2.821   4.313 -0.2826 -0.4407 -0.6037
   64CHL1   C22 5898   1.555   2.812   4.567  0.3989  0.2967  0.1957
   64CHL1  H22A 5899   1.455   2.773   4.595 -0.5100  1.5803 -1.0774
   64CHL1  H22B 5900   1.630   2.734   4.590 -1.2548 -1.9390 -1.5948
   64CHL1   C23 5901   1.576   2.923   4.669 -0.4719  0.4824 -0.1736
   64CHL1  H23A 5902   1.589   2.872   4.767 -2.3336  0.0721 -0.0926
   64CHL1  H23B 5903   1.657   2.997   4.651 -0.6979  0.8688  0.3334
   64CHL1   C24 5904   1.437   2.989   4.697 -0.7622  0.2169  0.0257
   64CHL1  H24A 5905   1.414   3.025   4.594  3.3425  3.6053  0.0263
   64CHL1  H24B 5906   1.355   2.923   4.731 -0.5477 -0.5883 -0.9718
   64CHL1   C25 5907   1.443   3.110   4.802  0.4168  0.0975  1.1097
   64CHL1   H25 5908   1.473   3.065   4.899  0.7880  1.0664  1.4519
   64CHL1   C26 5909   1.551   3.201   4.753  0.1510  0.4492  0.5141
   64CHL1  H26A 5910   1.650   3.152   4.767  0.3815  1.2307  1.8123
   64CHL1  H26B 5911   1.541   3.246   4.652 -0.0990 -0.4177  0.1389
   64CHL1  H26C 5912   1.536   3.287   4.822  0.4230  1.1559 -0.2909
   64CHL1   C27 5913   1.302   3.176   4.807  0.2908  0.1167 -0.2671
   64CHL1  H27A 5914   1.227   3.095   4.821 -0.2541 -0.0592 -3.4011
   64CHL1  H27B 5915   1.311   3.254   4.885  1.5443 -1.4035  1.1877
   64CHL1  H27C 5916   1.282   3.219   4.707  0.0548 -0.9627 -0.6983
   65CHL1    C3 5917   0.683   2.828   3.319 -0.3944  0.1528 -0.3893
   65CHL1    H3 5918   0.743   2.735   3.308 -0.3498  0.0028  0.8972
   65CHL1    O3 5919   0.595   2.847   3.207 -0.1862  0.3305  0.3608
   65CHL1   H3' 5920   0.519   2.793   3.233 -1.0098  0.1734 -2.1623
   65CHL1    C4 5921   0.595   2.812   3.446  0.6230 -0.2529  0.6904
   65CHL1   H4A 5922   0.511   2.885   3.441 -2.0952 -3.2438 -1.0911
   65CHL1   H4B 5923   0.553   2.709   3.445  1.5386 -0.6724 -1.9676
   65CHL1    C5 5924   0.682   2.828   3.570  0.4400 -0.1630 -0.5133
   65CHL1    C6 5925   0.687   2.733   3.666  0.1899 -0.8796  0.5956
   65CHL1    H6 5926   0.628   2.640   3.655  0.4667 -0.9227 -0.7361
   65CHL1    C7 5927   0.758   2.742   3.795 -0.1440 -0.4820 -0.4345
   65CHL1   H7A 5928   0.704   2.703   3.884 -1.4174 -0.6231 -1.2494
   65CHL1   H7B 5929   0.855   2.691   3.773  0.8007  0.3624  1.5448
   65CHL1    C8 5930   0.795   2.888   3.830  0.0200 -0.6816  0.6818
   65CHL1    H8 5931   0.703   2.949   3.834  1.0897  1.3290 -2.0326
   65CHL1   C14 5932   0.891   2.892   3.948 -0.1754 -0.6231  0.4388
   65CHL1   H14 5933   0.984   2.836   3.925  0.2534 -0.8778  2.5512
   65CHL1   C15 5934   0.849   2.827   4.085 -0.7487  0.5673  0.2611
   65CHL1  H15A 5935   0.739   2.845   4.085 -0.9244 -0.3861  1.2568
   65CHL1  H15B 5936   0.863   2.717   4.086 -3.2463  0.1962  0.4207
   65CHL1   C16 5937   0.914   2.901   4.203  0.7354  0.1208  0.5850
   65CHL1  H16A 5938   0.830   2.939   4.265  0.6968  0.0317  0.5873
   65CHL1  H16B 5939   0.969   2.829   4.268 -0.0490 -2.4936 -1.4862
   65CHL1   C17 5940   0.994   3.011   4.128  0.1879  0.2612  0.0897
   65CHL1   H17 5941   1.096   2.976   4.103  0.3966  2.2494 -2.2638
   65CHL1   C13 5942   0.925   3.034   3.991  0.1753  0.9527  0.0849
   65CHL1   C18 5943   0.800   3.124   4.012  0.1555  0.3921  0.9969
   65CHL1  H18A 5944   0.739   3.084   4.097 -1.0352 -2.1166 -0.8771
   65CHL1  H18B 5945   0.834   3.225   4.042 -1.3901  1.0474  0.6546
   65CHL1  H18C 5946   0.735   3.134   3.923 -0.2117 -1.0554  1.0655
   65CHL1   C12 5947   1.003   3.091   3.879 -0.3162  0.0112 -0.0434
   65CHL1  H12A 5948   1.040   3.195   3.892 -0.8081  0.0764  0.9863
   65CHL1  H12B 5949   1.089   3.021   3.869 -0.1413  0.0621  0.9734
   65CHL1   C11 5950   0.926   3.095   3.749 -0.3716 -0.2131  0.1202
   65CHL1  H11A 5951   0.859   3.183   3.755  0.1306  0.0893  3.4757
   65CHL1  H11B 5952   0.992   3.116   3.663 -3.0900 -2.5597 -2.8170
   65CHL1    C9 5953   0.861   2.958   3.707 -0.1783 -0.0229 -0.1881
   65CHL1    H9 5954   0.944   2.892   3.674 -1.6894 -1.0824 -2.0853
   65CHL1   C10 5955   0.764   2.957   3.584 -0.2695  0.6518  0.2459
   65CHL1   C19 5956   0.675   3.093   3.584 -0.0217 -0.4643 -0.1860
   65CHL1  H19A 5957   0.747   3.177   3.570 -0.5497  0.1101  0.5087
   65CHL1  H19B 5958   0.595   3.108   3.509 -0.6583 -0.8581  0.4134
   65CHL1  H19C 5959   0.626   3.106   3.682  0.9086  1.0544  0.1274
   65CHL1    C1 5960   0.847   2.958   3.453 -0.4726 -0.3393  0.0185
   65CHL1   H1A 5961   0.914   3.046   3.458 -0.4339 -0.3681  0.0110
   65CHL1   H1B 5962   0.922   2.876   3.451 -0.6376 -0.4806 -1.2395
   65CHL1    C2 5963   0.769   2.955   3.324 -0.4387  0.3592 -0.9174
   65CHL1   H2A 5964   0.833   2.961   3.234 -2.0188 -2.6011 -2.4274
   65CHL1   H2B 5965   0.694   3.037   3.326  0.4486  1.1653 -0.5564
   65CHL1   C20 5966   1.006   3.137   4.224 -0.1694 -0.3479 -0.2212
   65CHL1   H20 5967   0.904   3.178   4.240 -0.5546 -1.1671 -0.5304
   65CHL1   C21 5968   1.102   3.236   4.159  0.4090  0.0088  0.3670
   65CHL1  H21A 5969   1.197   3.188   4.127 -0.2810 -1.1395 -0.0009
   65CHL1  H21B 5970   1.135   3.314   4.232  1.7129  0.3446 -0.5393
   65CHL1  H21C 5971   1.059   3.292   4.074 -1.0892  0.8569  1.6392
   65CHL1   C22 5972   1.043   3.095   4.361 -0.1625  0.5904  0.3384
   65CHL1  H22A 5973   0.969   3.024   4.404  1.1614 -0.8520  0.3391
   65CHL1  H22B 5974   1.143   3.048   4.352 -0.5134  0.0048 -0.6521
   65CHL1   C23 5975   1.048   3.215   4.465  0.0001 -0.0426 -0.2981
   65CHL1  H23A 5976   1.083   3.174   4.562  0.2127  1.2523  0.1842
   65CHL1  H23B 5977   1.137   3.278   4.446  0.7922 -0.1804  2.4771
   65CHL1   C24 5978   0.935   3.313   4.464  0.2150  0.4408 -0.1602
   65CHL1  H24A 5979   0.903   3.353   4.366  0.7792 -0.5650 -0.7750
   65CHL1  H24B 5980   0.847   3.273   4.518 -0.0207  1.9115  0.5868
   65CHL1   C25 5981   0.983   3.440   4.538  0.3265  0.6196 -0.0756
   65CHL1   H25 5982   1.069   3.480   4.481 -1.7337  3.5416 -1.4094
   65CHL1   C26 5983   0.874   3.541   4.533  0.1409  0.1275  0.1539
   65CHL1  H26A 5984   0.847   3.568   4.428 -1.0262  1.5062  0.7720
   65CHL1  H26B 5985   0.777   3.501   4.570 -2.3239  0.3625 -5.1346
   65CHL1  H26C 5986   0.908   3.634   4.582  3.2875 -2.1016  2.6382
   65CHL1   C27 5987   1.028   3.415   4.686 -0.1591  0.7339  0.1066
   65CHL1  H27A 5988   1.053   3.511   4.737  0.8067  1.1921 -1.1847
   65CHL1  H27B 5989   0.950   3.370   4.750 -1.5913  2.2462 -0.4960
   65CHL1  H27C 5990   1.120   3.353   4.693 -0.5215  0.2772  0.9653
   66CHL1    C3 5991   5.845   0.682   6.819  0.3978  1.3779 -0.4573
   66CHL1    H3 5992   5.760   0.749   6.794  0.8232  2.7060  1.4344
   66CHL1    O3 5993   5.875   0.696   6.958 -0.0719 -0.0041  0.4411
   66CHL1   H3' 5994   5.963   0.733   6.971 -0.0489  0.1267 -0.0684
   66CHL1    C4 5995   5.824   0.530   6.805 -0.0195 -0.4119  0.2648
   66CHL1   H4A 5996   5.912   0.468   6.832 -0.4051 -1.4132 -0.6945
   66CHL1   H4B 5997   5.748   0.497   6.878  1.0339 -0.5959  1.3082
   66CHL1    C5 5998   5.798   0.505   6.656  0.0174  0.4471 -0.1636
   66CHL1    C6 5999   5.688   0.440   6.618  0.1012 -0.4935 -0.4726
   66CHL1    H6 6000   5.610   0.418   6.693  0.1529  1.3131  0.1487
   66CHL1    C7 6001   5.657   0.399   6.477 -0.1598 -0.4935 -0.7930
   66CHL1   H7A 6002   5.608   0.300   6.470 -2.2015 -0.1040  3.9786
   66CHL1   H7B 6003   5.581   0.471   6.438 -1.2700 -0.7093  0.8492
   66CHL1    C8 6004   5.775   0.410   6.382 -0.4793 -0.6917 -0.0605
   66CHL1    H8 6005   5.834   0.318   6.403  1.4488  0.2144 -1.2413
   66CHL1   C14 6006   5.735   0.424   6.234 -0.1266 -0.0608  0.0138
   66CHL1   H14 6007   5.691   0.526   6.237  2.3135  1.0383  1.2349
   66CHL1   C15 6008   5.621   0.339   6.188  0.2129 -0.3526  0.5281
   66CHL1  H15A 6009   5.631   0.231   6.215 -0.3744 -1.0624 -1.8626
   66CHL1  H15B 6010   5.521   0.370   6.223  0.3512  0.4898  0.2021
   66CHL1   C16 6011   5.623   0.353   6.031 -0.3437  0.0247 -0.1783
   66CHL1  H16A 6012   5.653   0.254   5.991  1.2846  0.5053 -0.2264
   66CHL1  H16B 6013   5.527   0.390   5.988  0.1757 -0.7454 -2.1215
   66CHL1   C17 6014   5.747   0.443   5.997 -0.4078 -0.5989  0.2318
   66CHL1   H17 6015   5.708   0.547   5.989  0.5681 -0.0352  2.2986
   66CHL1   C13 6016   5.837   0.430   6.122  0.0074  0.4009 -0.2356
   66CHL1   C18 6017   5.915   0.294   6.117  0.1073  0.4985 -1.0491
   66CHL1  H18A 6018   5.942   0.277   6.224  1.0596 -2.9038 -1.7171
   66CHL1  H18B 6019   5.852   0.207   6.088  1.0328 -1.3929  2.1347
   66CHL1  H18C 6020   6.015   0.306   6.071  0.9658  0.9436  0.8397
   66CHL1   C12 6021   5.929   0.549   6.163  0.1710 -0.0994 -0.0900
   66CHL1  H12A 6022   6.013   0.539   6.092  0.0373 -2.0417 -0.0329
   66CHL1  H12B 6023   5.871   0.642   6.145 -3.0092 -1.3464  2.5879
   66CHL1   C11 6024   5.977   0.547   6.303  0.3530 -0.8883 -0.2898
   66CHL1  H11A 6025   6.038   0.455   6.318  0.0991 -1.2337 -1.2768
   66CHL1  H11B 6026   6.034   0.641   6.318 -1.0381 -0.1977  0.9191
   66CHL1    C9 6027   5.867   0.534   6.413  0.1148  0.6550  0.8453
   66CHL1    H9 6028   5.803   0.621   6.386  0.4346  0.4226 -0.7795
   66CHL1   C10 6029   5.901   0.553   6.559 -1.0687  0.9550 -0.5852
   66CHL1   C19 6030   6.033   0.465   6.580  0.6409 -0.3064 -0.8408
   66CHL1  H19A 6031   6.061   0.457   6.687 -1.3252 -0.0195 -0.2721
   66CHL1  H19B 6032   6.016   0.362   6.542  0.6010 -0.6287  0.0363
   66CHL1  H19C 6033   6.120   0.509   6.527  0.9256  0.0624 -0.0714
   66CHL1    C1 6034   5.932   0.699   6.585 -0.5369  0.3738  0.1906
   66CHL1   H1A 6035   6.025   0.722   6.529 -0.4332 -1.0005 -0.2367
   66CHL1   H1B 6036   5.849   0.761   6.546 -1.6042 -0.8693  0.4053
   66CHL1    C2 6037   5.965   0.728   6.734  0.5863  0.2862 -0.2581
   66CHL1   H2A 6038   5.982   0.836   6.757  2.0351 -0.0075  0.1882
   66CHL1   H2B 6039   6.059   0.680   6.770  0.5434  0.7686  0.5347
   66CHL1   C20 6040   5.812   0.409   5.859  0.1057  0.0241 -0.0009
   66CHL1   H20 6041   5.855   0.307   5.871  0.0249 -0.0504 -0.3406
   66CHL1   C21 6042   5.924   0.513   5.835 -0.6025  0.6265 -0.1892
   66CHL1  H21A 6043   6.004   0.486   5.907 -0.9811  0.0474  0.0205
   66CHL1  H21B 6044   5.891   0.616   5.862  1.0933  1.6048 -1.6020
   66CHL1  H21C 6045   5.964   0.524   5.732 -0.0401 -0.2019 -0.0681
   66CHL1   C22 6046   5.719   0.406   5.739  0.2239  0.0098  0.1360
   66CHL1  H22A 6047   5.636   0.333   5.752 -0.9855  0.9835 -1.7212
   66CHL1  H22B 6048   5.679   0.506   5.713  1.3059  0.1850 -0.9383
   66CHL1   C23 6049   5.784   0.364   5.606 -0.6915 -0.0705  0.2983
   66CHL1  H23A 6050   5.846   0.452   5.578 -0.8064  0.4915  1.7519
   66CHL1  H23B 6051   5.840   0.272   5.629  0.7880  0.4575 -1.0498
   66CHL1   C24 6052   5.676   0.342   5.493  0.1038  0.0438 -1.1093
   66CHL1  H24A 6053   5.626   0.250   5.529  1.3422 -0.3008 -0.1909
   66CHL1  H24B 6054   5.603   0.424   5.499  0.2855  0.1671 -0.5742
   66CHL1   C25 6055   5.740   0.338   5.350  0.3580  0.1409 -0.0209
   66CHL1   H25 6056   5.791   0.434   5.324  0.2954 -0.2844 -1.8014
   66CHL1   C26 6057   5.853   0.229   5.334  0.2006  0.0929  0.4604
   66CHL1  H26A 6058   5.821   0.129   5.372  1.6499 -0.6099 -0.0768
   66CHL1  H26B 6059   5.886   0.220   5.229 -1.7478  0.3443 -0.2148
   66CHL1  H26C 6060   5.939   0.271   5.389 -0.9069  1.2523  1.3759
   66CHL1   C27 6061   5.633   0.303   5.243  0.0398 -0.5332  0.2212
   66CHL1  H27A 6062   5.674   0.307   5.140 -0.2817  0.9043  0.1289
   66CHL1  H27B 6063   5.558   0.384   5.238  0.9595  0.2703 -1.4977
   66CHL1  H27C 6064   5.582   0.208   5.270 -0.4069 -0.0405  1.1565
   67CHL1    C3 6065   2.505   6.344   3.744 -0.4487 -0.6049 -0.1793
   67CHL1    H3 6066   2.510   6.235   3.727 -0.1788 -0.6643  0.2502
   67CHL1    O3 6067   2.469   6.406   3.621  0.4818 -0.7190 -0.4312
   67CHL1   H3' 6068   2.508   6.492   3.638  1.0070 -0.6057 -2.0837
   67CHL1    C4 6069   2.399   6.377   3.852  0.4093 -0.1530  0.0153
   67CHL1   H4A 6070   2.389   6.488   3.850  1.6149 -0.0152  0.7128
   67CHL1   H4B 6071   2.304   6.339   3.808 -0.5490  0.1624  1.7046
   67CHL1    C5 6072   2.427   6.327   3.986 -0.1004 -0.6141  0.0332
   67CHL1    C6 6073   2.326   6.265   4.044  0.2348  0.9976  0.4348
   67CHL1    H6 6074   2.229   6.263   3.992 -0.3597  0.2806  1.5205
   67CHL1    C7 6075   2.332   6.211   4.186  0.6267 -0.0317  0.1587
   67CHL1   H7A 6076   2.233   6.228   4.232 -0.5189  0.5492 -2.3113
   67CHL1   H7B 6077   2.349   6.101   4.187  1.8293  0.1363  0.0981
   67CHL1    C8 6078   2.448   6.273   4.255 -0.2909  0.3155 -0.3657
   67CHL1    H8 6079   2.413   6.375   4.280 -0.2159  0.7484 -1.9470
   67CHL1   C14 6080   2.480   6.191   4.383  0.0619  0.7032  0.4177
   67CHL1   H14 6081   2.531   6.097   4.352 -2.5038 -0.2598 -1.1829
   67CHL1   C15 6082   2.362   6.143   4.473  0.0196 -0.3689  0.3442
   67CHL1  H15A 6083   2.286   6.224   4.483 -0.0808 -0.2074 -1.4968
   67CHL1  H15B 6084   2.297   6.066   4.427 -1.7581  1.6155 -0.6654
   67CHL1   C16 6085   2.422   6.107   4.608 -0.2111  0.3688  0.2400
   67CHL1  H16A 6086   2.362   6.163   4.683 -2.3611 -1.7617  0.2482
   67CHL1  H16B 6087   2.424   6.001   4.642 -0.8380  0.4671  0.6069
   67CHL1   C17 6088   2.576   6.142   4.594 -0.2650 -0.2316  0.5431
   67CHL1   H17 6089   2.612   6.045   4.553 -0.7161 -0.3003  0.3045
   67CHL1   C13 6090   2.596   6.244   4.474  0.4203  0.4991  0.1449
   67CHL1   C18 6091   2.557   6.383   4.528 -0.0570  0.0583 -0.1047
   67CHL1  H18A 6092   2.542   6.453   4.443  1.3319  0.2334 -0.2345
   67CHL1  H18B 6093   2.470   6.395   4.597  0.3123  3.7063 -0.0838
   67CHL1  H18C 6094   2.643   6.411   4.592 -0.7720  0.0836  0.8748
   67CHL1   C12 6095   2.724   6.240   4.386 -0.5364  0.2588 -0.8066
   67CHL1  H12A 6096   2.811   6.287   4.437 -1.1995  2.3035 -1.4592
   67CHL1  H12B 6097   2.755   6.135   4.372 -0.0981  0.6351 -2.9689
   67CHL1   C11 6098   2.702   6.319   4.262 -0.5770  0.0946  0.0247
   67CHL1  H11A 6099   2.683   6.424   4.292 -0.4358  0.4196 -0.9734
   67CHL1  H11B 6100   2.789   6.317   4.193  1.1744  1.5647  2.0189
   67CHL1    C9 6101   2.579   6.276   4.176 -0.9136  0.2685 -0.5673
   67CHL1    H9 6102   2.608   6.177   4.135 -0.2358  0.1547  0.1577
   67CHL1   C10 6103   2.559   6.361   4.045  0.2799  0.0782  0.0059
   67CHL1   C19 6104   2.560   6.513   4.079  0.1572  0.7083  0.3809
   67CHL1  H19A 6105   2.508   6.528   4.176  0.3638  0.7440  0.4876
   67CHL1  H19B 6106   2.666   6.548   4.084 -0.2806  2.1596  0.1802
   67CHL1  H19C 6107   2.509   6.576   4.003 -0.2578  0.8674  0.7839
   67CHL1    C1 6108   2.667   6.335   3.937  0.6992 -0.1936  0.1640
   67CHL1   H1A 6109   2.765   6.373   3.972  1.2413 -0.0369 -1.4396
   67CHL1   H1B 6110   2.681   6.226   3.919 -0.8352 -0.2553 -0.7776
   67CHL1    C2 6111   2.635   6.408   3.800 -0.3533 -1.0787 -0.1472
   67CHL1   H2A 6112   2.712   6.391   3.723 -1.7630 -2.1166 -1.3903
   67CHL1   H2B 6113   2.631   6.519   3.807  0.5505 -0.8818 -2.1770
   67CHL1   C20 6114   2.654   6.161   4.733 -0.3494  0.1018  0.3859
   67CHL1   H20 6115   2.623   6.254   4.786 -0.7988  0.4499 -0.4438
   67CHL1   C21 6116   2.804   6.189   4.701 -0.0520 -0.1436 -0.3183
   67CHL1  H21A 6117   2.864   6.217   4.790 -0.5650  2.5297 -0.7403
   67CHL1  H21B 6118   2.816   6.276   4.633 -0.8603  0.1753 -0.0550
   67CHL1  H21C 6119   2.859   6.105   4.652  0.0892 -0.6096  0.6282
   67CHL1   C22 6120   2.646   6.041   4.828  0.6789  0.6041  0.8227
   67CHL1  H22A 6121   2.545   5.997   4.839  0.3623  1.6779  2.6796
   67CHL1  H22B 6122   2.712   5.955   4.803 -2.3077 -1.5934  0.0530
   67CHL1   C23 6123   2.686   6.075   4.981  0.0868 -0.2031  1.5931
   67CHL1  H23A 6124   2.790   6.117   4.981  0.1260 -0.2788  0.7997
   67CHL1  H23B 6125   2.626   6.163   5.012 -0.4290  0.4923 -1.1370
   67CHL1   C24 6126   2.673   5.951   5.065 -0.4613  0.4690 -0.5199
   67CHL1  H24A 6127   2.582   5.895   5.033 -0.0168 -0.4163 -0.2704
   67CHL1  H24B 6128   2.768   5.894   5.055 -0.2242  0.6548  0.5367
   67CHL1   C25 6129   2.660   5.988   5.215  0.0152 -0.3720 -0.4354
   67CHL1   H25 6130   2.574   6.054   5.235  0.2048 -0.8940  2.6468
   67CHL1   C26 6131   2.638   5.870   5.307 -0.2381  1.1186 -0.1817
   67CHL1  H26A 6132   2.731   5.808   5.307 -1.4668 -0.8394 -2.0291
   67CHL1  H26B 6133   2.616   5.912   5.408 -0.0987 -0.3423  0.4935
   67CHL1  H26C 6134   2.553   5.811   5.268 -2.8449  1.9676  3.5957
   67CHL1   C27 6135   2.788   6.063   5.254 -0.7149  0.1342  0.3336
   67CHL1  H27A 6136   2.794   6.099   5.359 -0.1300  0.9040  0.0440
   67CHL1  H27B 6137   2.870   5.989   5.236  0.3567  0.6365  2.7918
   67CHL1  H27C 6138   2.819   6.158   5.205  1.4879 -1.4718 -1.6127
   68CHL1    C3 6139   0.920   6.378   3.297  0.6088 -0.9575 -0.0771
   68CHL1    H3 6140   0.973   6.454   3.359  1.9552 -0.2314 -2.0213
   68CHL1    O3 6141   0.943   6.420   3.166  0.0225 -0.7251  0.2774
   68CHL1   H3' 6142   0.917   6.512   3.166 -3.6928 -1.6046  1.5600
   68CHL1    C4 6143   0.990   6.241   3.327  0.5217 -0.4520  0.0683
   68CHL1   H4A 6144   0.936   6.171   3.260  0.1442  0.0743 -0.1863
   68CHL1   H4B 6145   1.095   6.247   3.289  0.5026 -0.0389  0.0835
   68CHL1    C5 6146   0.973   6.201   3.474  0.5994 -0.1312 -0.2453
   68CHL1    C6 6147   1.077   6.173   3.552  0.5875 -0.3120 -0.4023
   68CHL1    H6 6148   1.176   6.165   3.504 -0.2135 -2.5027 -1.8308
   68CHL1    C7 6149   1.065   6.149   3.698  0.3615 -0.1451 -0.0699
   68CHL1   H7A 6150   1.136   6.075   3.740  1.1001 -0.3661 -1.6511
   68CHL1   H7B 6151   1.080   6.244   3.754 -1.1317  0.7100 -1.0337
   68CHL1    C8 6152   0.923   6.101   3.738  0.0233 -0.2809 -0.3770
   68CHL1    H8 6153   0.908   5.998   3.698 -1.4746  0.3196 -1.4590
   68CHL1   C14 6154   0.905   6.105   3.889  0.1574  0.3184 -0.2445
   68CHL1   H14 6155   0.897   6.215   3.905  0.0952  0.5451 -1.7005
   68CHL1   C15 6156   1.009   6.041   3.982  0.2286  0.4669 -0.1415
   68CHL1  H15A 6157   1.047   5.949   3.933 -0.2355  0.4187 -0.4151
   68CHL1  H15B 6158   1.086   6.117   4.010 -0.7395  0.6065  2.4030
   68CHL1   C16 6159   0.934   6.004   4.107 -0.0307 -0.5520 -0.7895
   68CHL1  H16A 6160   0.938   5.894   4.126  1.8990 -0.5279 -0.8674
   68CHL1  H16B 6161   0.975   6.058   4.195 -0.1198 -1.2837 -0.2943
   68CHL1   C17 6162   0.794   6.049   4.087 -0.5381 -0.4367 -0.8416
   68CHL1   H17 6163   0.797   6.151   4.131  1.4203 -2.1333  3.4716
   68CHL1   C13 6164   0.768   6.050   3.938 -0.8881 -0.5033  0.1280
   68CHL1   C18 6165   0.757   5.903   3.886 -0.5948  0.0624  0.1737
   68CHL1  H18A 6166   0.744   5.903   3.776  0.9263  0.3851 -0.0236
   68CHL1  H18B 6167   0.848   5.845   3.913  0.8323  1.1670 -1.9479
   68CHL1  H18C 6168   0.668   5.855   3.931 -1.3120  1.2977  0.1354
   68CHL1   C12 6169   0.662   6.155   3.891  0.8834  0.3716  0.3314
   68CHL1  H12A 6170   0.558   6.135   3.927  1.3490 -0.7248  1.1252
   68CHL1  H12B 6171   0.697   6.249   3.938  4.1000  0.2173 -1.5061
   68CHL1   C11 6172   0.670   6.180   3.735  0.0807 -0.1492 -0.7250
   68CHL1  H11A 6173   0.626   6.082   3.705  0.5114 -0.3508 -0.7092
   68CHL1  H11B 6174   0.605   6.261   3.697  0.4868  0.3049 -0.4496
   68CHL1    C9 6175   0.814   6.197   3.677 -0.0542  0.5132 -0.7788
   68CHL1    H9 6176   0.845   6.294   3.722  0.8453  0.9547 -2.2688
   68CHL1   C10 6177   0.821   6.213   3.526 -0.1356  0.1312 -0.2294
   68CHL1   C19 6178   0.745   6.092   3.461  0.6166  0.0601 -0.0897
   68CHL1  H19A 6179   0.789   5.998   3.502  0.3263 -0.5350 -1.0880
   68CHL1  H19B 6180   0.639   6.100   3.490  0.3454  0.1431 -1.0738
   68CHL1  H19C 6181   0.750   6.079   3.350  1.2498  0.6524 -0.1396
   68CHL1    C1 6182   0.744   6.337   3.483 -0.4393 -0.0882  0.3876
   68CHL1   H1A 6183   0.635   6.326   3.501 -0.6730 -1.0793 -1.4057
   68CHL1   H1B 6184   0.784   6.420   3.546 -2.3201 -0.1719  1.7546
   68CHL1    C2 6185   0.768   6.380   3.332  0.7113 -0.6706 -0.5943
   68CHL1   H2A 6186   0.737   6.485   3.316  0.3419 -0.9226 -1.6498
   68CHL1   H2B 6187   0.723   6.302   3.266  2.0046 -0.2986 -1.9827
   68CHL1   C20 6188   0.690   5.969   4.176  0.3245 -0.4396 -0.3206
   68CHL1   H20 6189   0.676   5.864   4.141 -0.9338 -0.9678  1.5759
   68CHL1   C21 6190   0.554   6.038   4.184  0.1580 -0.0575  0.2139
   68CHL1  H21A 6191   0.501   6.003   4.275  1.8474 -2.9667  0.1736
   68CHL1  H21B 6192   0.496   6.013   4.093 -0.1536  0.8447  0.1533
   68CHL1  H21C 6193   0.559   6.149   4.189  2.3926 -0.0760 -0.4529
   68CHL1   C22 6194   0.737   5.942   4.327 -0.7482  0.3571  0.3316
   68CHL1  H22A 6195   0.840   5.899   4.322 -1.0099 -0.2446  0.0783
   68CHL1  H22B 6196   0.734   6.045   4.369  0.7046  0.1957  0.8995
   68CHL1   C23 6197   0.659   5.833   4.400  0.0257 -0.4895  0.2963
   68CHL1  H23A 6198   0.591   5.771   4.338  0.1505  0.8309 -1.2126
   68CHL1  H23B 6199   0.734   5.764   4.444  1.0222  0.2106 -0.2688
   68CHL1   C24 6200   0.579   5.891   4.520  0.5441  0.4793 -0.1809
   68CHL1  H24A 6201   0.638   5.948   4.596 -2.4400  0.8615  2.0436
   68CHL1  H24B 6202   0.515   5.971   4.479  2.9707  3.6126  1.6525
   68CHL1   C25 6203   0.511   5.789   4.611  0.5219  0.4811  0.4040
   68CHL1   H25 6204   0.432   5.744   4.547  1.1187  0.2243 -0.1600
   68CHL1   C26 6205   0.615   5.692   4.671  0.4843 -0.4108  0.5280
   68CHL1  H26A 6206   0.692   5.756   4.720 -0.2212  0.2677  0.7932
   68CHL1  H26B 6207   0.566   5.643   4.758 -1.7757 -0.6310 -0.7740
   68CHL1  H26C 6208   0.657   5.628   4.592 -0.4284  1.4198 -1.5600
   68CHL1   C27 6209   0.428   5.869   4.717  0.1954  0.2936 -0.2939
   68CHL1  H27A 6210   0.355   5.812   4.777 -0.9089  2.0944  0.1582
   68CHL1  H27B 6211   0.498   5.917   4.788 -0.3452 -1.6503  1.6601
   68CHL1  H27C 6212   0.381   5.944   4.650 -0.0325  1.0156  0.6643
   69CHL1    C3 6213   2.142   2.162   3.555  0.4456  0.1177  0.4187
   69CHL1    H3 6214   2.213   2.083   3.522 -2.0924 -2.5678  0.9796
   69CHL1    O3 6215   2.051   2.189   3.447  0.1705 -0.2378  0.7606
   69CHL1   H3' 6216   2.084   2.254   3.384 -0.5951 -0.2533  0.3306
   69CHL1    C4 6217   2.067   2.098   3.673 -0.2455  0.0987  0.6129
   69CHL1   H4A 6218   1.986   2.164   3.710  0.3004  1.3551 -0.3662
   69CHL1   H4B 6219   2.014   2.010   3.630  3.3859 -1.7028 -0.5767
   69CHL1    C5 6220   2.162   2.055   3.786  0.7562 -0.1080 -0.3557
   69CHL1    C6 6221   2.165   1.925   3.822  0.3407 -0.4978 -0.1935
   69CHL1    H6 6222   2.090   1.855   3.781  1.5940 -1.7617 -0.4271
   69CHL1    C7 6223   2.266   1.866   3.918  0.6928  0.1431  0.0668
   69CHL1   H7A 6224   2.215   1.798   3.989  0.1716 -0.2816 -0.7000
   69CHL1   H7B 6225   2.341   1.800   3.870  2.1865  1.5476  0.3757
   69CHL1    C8 6226   2.340   1.970   3.998  0.4936  0.4304  0.6536
   69CHL1    H8 6227   2.276   1.999   4.084 -1.4773  1.3366 -1.0404
   69CHL1   C14 6228   2.468   1.916   4.050  0.1934  0.6848 -0.5279
   69CHL1   H14 6229   2.530   1.895   3.959  1.3360 -1.3059  0.6371
   69CHL1   C15 6230   2.464   1.779   4.126  0.1261 -0.2865  0.4759
   69CHL1  H15A 6231   2.376   1.779   4.194 -0.3787 -2.8628 -0.0790
   69CHL1  H15B 6232   2.446   1.694   4.057 -0.0143  0.7794 -0.8420
   69CHL1   C16 6233   2.597   1.780   4.200  0.2885 -0.0805  0.1738
   69CHL1  H16A 6234   2.581   1.776   4.309 -0.1428 -0.8028  0.0887
   69CHL1  H16B 6235   2.667   1.702   4.164 -1.3446 -0.8310 -1.5537
   69CHL1   C17 6236   2.664   1.917   4.169 -0.1208  0.5372 -0.5574
   69CHL1   H17 6237   2.718   1.896   4.074  0.4685 -2.6245  0.3531
   69CHL1   C13 6238   2.547   2.009   4.131 -0.1006 -0.3083  0.9581
   69CHL1   C18 6239   2.472   2.041   4.260  0.1939 -0.0351 -0.1868
   69CHL1  H18A 6240   2.530   2.108   4.326 -2.3711 -0.2893  2.5012
   69CHL1  H18B 6241   2.373   2.085   4.237 -0.4130 -1.5471 -0.5868
   69CHL1  H18C 6242   2.454   1.951   4.323  1.4741 -1.7076 -2.0718
   69CHL1   C12 6243   2.591   2.141   4.057  0.7772  0.6722  0.1064
   69CHL1  H12A 6244   2.631   2.214   4.130 -2.2010  2.5377  0.0316
   69CHL1  H12B 6245   2.673   2.111   3.989  1.1496  0.0326  0.8074
   69CHL1   C11 6246   2.469   2.200   3.996 -0.3803 -0.9354 -0.6809
   69CHL1  H11A 6247   2.403   2.247   4.072 -1.1312 -1.3795 -1.0492
   69CHL1  H11B 6248   2.505   2.282   3.930 -0.5606  0.0153  0.3611
   69CHL1    C9 6249   2.379   2.098   3.919  0.1847 -0.1433  0.3517
   69CHL1    H9 6250   2.421   2.050   3.828 -3.0226 -0.9884 -0.8304
   69CHL1   C10 6251   2.253   2.166   3.845 -0.3563  0.0004  0.4223
   69CHL1   C19 6252   2.178   2.261   3.943  0.5396 -0.4077 -0.4029
   69CHL1  H19A 6253   2.239   2.349   3.972 -0.1418  0.2137 -0.8137
   69CHL1  H19B 6254   2.082   2.294   3.898  0.1159 -2.5864 -1.2126
   69CHL1  H19C 6255   2.163   2.208   4.039  0.6571 -2.0975 -1.2844
   69CHL1    C1 6256   2.305   2.250   3.721 -0.2456  0.1286  0.2784
   69CHL1   H1A 6257   2.349   2.341   3.767 -0.5519  0.5521 -0.2497
   69CHL1   H1B 6258   2.391   2.202   3.670 -2.3000 -0.5431 -2.7998
   69CHL1    C2 6259   2.209   2.290   3.609 -0.6451 -0.2315  0.2349
   69CHL1   H2A 6260   2.267   2.350   3.536 -2.8279  2.1646  0.3382
   69CHL1   H2B 6261   2.126   2.349   3.654 -0.1468 -0.4098  1.4285
   69CHL1   C20 6262   2.776   1.967   4.260  0.1415  0.0917  0.1321
   69CHL1   H20 6263   2.772   2.078   4.265 -2.5492  0.0736 -0.0707
   69CHL1   C21 6264   2.911   1.926   4.207  0.3976  0.4448 -0.0278
   69CHL1  H21A 6265   2.988   1.961   4.278 -3.2504  1.1525  3.9967
   69CHL1  H21B 6266   2.932   1.985   4.115  0.4256  2.5167  1.2462
   69CHL1  H21C 6267   2.912   1.818   4.179 -0.8441  0.6606 -1.0161
   69CHL1   C22 6268   2.756   1.909   4.401  0.4047 -0.8325 -0.3948
   69CHL1  H22A 6269   2.651   1.921   4.434  0.9938 -2.4721  2.4002
   69CHL1  H22B 6270   2.768   1.798   4.401 -0.7906 -0.9903 -1.7243
   69CHL1   C23 6271   2.845   1.985   4.502 -0.3973 -0.0298  0.1923
   69CHL1  H23A 6272   2.951   1.986   4.468 -0.6429  2.3933 -0.7230
   69CHL1  H23B 6273   2.818   2.091   4.526  0.4458 -0.3594  2.9869
   69CHL1   C24 6274   2.835   1.914   4.641 -0.2026 -0.0614  0.4074
   69CHL1  H24A 6275   2.734   1.922   4.685 -0.1131  0.0299  0.5964
   69CHL1  H24B 6276   2.852   1.805   4.625 -0.9128  0.2429 -3.6733
   69CHL1   C25 6277   2.933   1.976   4.736  0.1118 -1.0772  0.2638
   69CHL1   H25 6278   3.016   2.013   4.673 -1.6489  2.1030 -0.4112
   69CHL1   C26 6279   2.875   2.096   4.804 -0.0813  0.4660  0.2782
   69CHL1  H26A 6280   2.951   2.155   4.860 -1.8014  0.3589  2.9347
   69CHL1  H26B 6281   2.831   2.164   4.727  1.2885  1.2144  0.1268
   69CHL1  H26C 6282   2.798   2.066   4.878 -0.2363  1.2241  0.4363
   69CHL1   C27 6283   2.983   1.874   4.841 -0.1500  0.7080 -0.2807
   69CHL1  H27A 6284   3.046   1.923   4.918  1.6444 -1.8632  0.0092
   69CHL1  H27B 6285   2.904   1.826   4.902  1.4230  2.2210  3.2256
   69CHL1  H27C 6286   3.036   1.791   4.789 -1.6426 -2.2661  2.6021
   70CHL1    C3 6287   2.674   1.149   3.601  0.3858 -0.1644  0.7046
   70CHL1    H3 6288   2.784   1.161   3.604  0.2540  1.2146  0.4211
   70CHL1    O3 6289   2.641   1.119   3.465 -1.0383 -0.2656  0.5308
   70CHL1   H3' 6290   2.683   1.190   3.415 -0.1704 -0.4907  0.9249
   70CHL1    C4 6291   2.635   1.042   3.704 -0.2386  0.2631  0.7218
   70CHL1   H4A 6292   2.526   1.038   3.686 -0.0401  0.3562 -0.5891
   70CHL1   H4B 6293   2.678   0.943   3.676  0.1085  0.5316  0.2991
   70CHL1    C5 6294   2.663   1.076   3.847 -0.4700  0.2486 -0.3309
   70CHL1    C6 6295   2.744   0.997   3.925  0.6604 -0.3674 -0.8284
   70CHL1    H6 6296   2.773   0.900   3.882  1.2033 -0.1750 -0.8953
   70CHL1    C7 6297   2.787   1.023   4.065  0.1247  0.3737  0.1884
   70CHL1   H7A 6298   2.793   0.923   4.114  1.6448  0.3049 -0.0988
   70CHL1   H7B 6299   2.894   1.052   4.062  0.4398 -0.7947 -3.3359
   70CHL1    C8 6300   2.698   1.137   4.123  0.1624  0.1738 -0.2464
   70CHL1    H8 6301   2.597   1.097   4.147 -0.3351  1.3494 -0.2811
   70CHL1   C14 6302   2.759   1.188   4.259  0.1307  0.2064 -0.2752
   70CHL1   H14 6303   2.862   1.225   4.240 -0.9072  3.3373 -0.3570
   70CHL1   C15 6304   2.777   1.081   4.373 -0.2035 -0.6317  0.0455
   70CHL1  H15A 6305   2.682   1.023   4.375 -1.7394  1.7298  1.9310
   70CHL1  H15B 6306   2.869   1.019   4.359  0.3134 -0.3187  1.8133
   70CHL1   C16 6307   2.809   1.178   4.483 -0.3938 -0.1447 -0.3166
   70CHL1  H16A 6308   2.751   1.143   4.572 -1.1681 -1.2174 -1.2068
   70CHL1  H16B 6309   2.917   1.174   4.511  0.0386 -0.0312 -1.8850
   70CHL1   C17 6310   2.766   1.330   4.451  0.4388  0.0980  0.0559
   70CHL1   H17 6311   2.866   1.369   4.423  0.1323 -1.0025 -2.9035
   70CHL1   C13 6312   2.686   1.309   4.319 -0.4177 -0.4242  0.0398
   70CHL1   C18 6313   2.536   1.286   4.343 -0.2727 -0.5196  0.4707
   70CHL1  H18A 6314   2.491   1.386   4.358 -1.0741 -0.5943 -1.1740
   70CHL1  H18B 6315   2.486   1.243   4.254 -2.9235 -0.0825  1.6688
   70CHL1  H18C 6316   2.509   1.232   4.436  0.0442 -1.0061  0.2857
   70CHL1   C12 6317   2.693   1.433   4.221  0.0662 -0.3713 -0.0850
   70CHL1  H12A 6318   2.612   1.501   4.254 -0.8312 -2.1128  1.4493
   70CHL1  H12B 6319   2.795   1.477   4.214  1.0026 -2.6564 -2.0009
   70CHL1   C11 6320   2.632   1.391   4.086 -0.7209 -0.4697 -0.0002
   70CHL1  H11A 6321   2.523   1.379   4.100 -0.8409 -1.3849 -1.4704
   70CHL1  H11B 6322   2.656   1.471   4.013 -0.9275 -0.6777 -0.3006
   70CHL1    C9 6323   2.689   1.257   4.031 -0.0412 -0.0381 -0.5151
   70CHL1    H9 6324   2.797   1.267   4.009  0.1041 -2.2378 -1.0102
   70CHL1   C10 6325   2.618   1.216   3.898  0.5363  0.5817 -0.2782
   70CHL1   C19 6326   2.465   1.205   3.930 -0.5385  0.8761  0.3760
   70CHL1  H19A 6327   2.419   1.167   3.835  0.0298 -1.0647  0.8352
   70CHL1  H19B 6328   2.446   1.132   4.011  1.1650 -0.7788 -0.6502
   70CHL1  H19C 6329   2.424   1.307   3.946 -0.8720  0.7226  0.5152
   70CHL1    C1 6330   2.652   1.324   3.789  0.1536  0.0050  0.3266
   70CHL1   H1A 6331   2.592   1.415   3.812  2.7499  1.9520 -0.1862
   70CHL1   H1B 6332   2.761   1.343   3.791 -0.1803  2.2218  2.7059
   70CHL1    C2 6333   2.614   1.283   3.641 -0.9062  0.3343 -0.3247
   70CHL1   H2A 6334   2.654   1.363   3.575 -0.5542  1.1165  0.7947
   70CHL1   H2B 6335   2.506   1.276   3.616 -0.3116 -0.1679 -3.0804
   70CHL1   C20 6336   2.703   1.412   4.560 -0.7523 -0.2485  0.5379
   70CHL1   H20 6337   2.596   1.384   4.573 -0.6885 -1.4364 -1.1543
   70CHL1   C21 6338   2.713   1.561   4.524 -0.4451 -0.0945 -0.4443
   70CHL1  H21A 6339   2.815   1.599   4.545 -1.3075  1.3065  1.6771
   70CHL1  H21B 6340   2.645   1.622   4.589  1.2551 -0.3395  1.6767
   70CHL1  H21C 6341   2.683   1.576   4.418  0.1660 -3.1996 -1.1528
   70CHL1   C22 6342   2.780   1.390   4.696  0.0451 -0.0090 -0.5183
   70CHL1  H22A 6343   2.764   1.286   4.734 -2.3276  0.3596 -0.3563
   70CHL1  H22B 6344   2.887   1.416   4.685 -0.3016  0.7500 -2.5699
   70CHL1   C23 6345   2.736   1.468   4.827  0.1207  0.7207  0.2777
   70CHL1  H23A 6346   2.767   1.574   4.814  3.1392  0.2416  2.6343
   70CHL1  H23B 6347   2.625   1.463   4.834  0.1640  0.8017  1.1197
   70CHL1   C24 6348   2.798   1.419   4.956 -0.4785  0.7620 -0.0573
   70CHL1  H24A 6349   2.907   1.400   4.952 -0.1877  2.4181 -2.1707
   70CHL1  H24B 6350   2.785   1.503   5.027 -1.3718 -0.3835  1.1928
   70CHL1   C25 6351   2.735   1.286   5.017 -0.0936  0.4023  0.3104
   70CHL1   H25 6352   2.717   1.227   4.924  2.2795  2.5633 -1.6660
   70CHL1   C26 6353   2.829   1.216   5.122 -0.0772  0.7558 -0.1431
   70CHL1  H26A 6354   2.833   1.280   5.213  0.5462  0.0380  0.3432
   70CHL1  H26B 6355   2.784   1.118   5.146  0.9694  0.5539  1.0576
   70CHL1  H26C 6356   2.929   1.191   5.081  0.0159 -0.9712  1.0703
   70CHL1   C27 6357   2.587   1.306   5.072 -0.2474 -0.2868  0.1112
   70CHL1  H27A 6358   2.543   1.211   5.110 -0.3822 -1.1576 -2.1091
   70CHL1  H27B 6359   2.600   1.382   5.152 -0.5436  2.1030 -2.0069
   70CHL1  H27C 6360   2.523   1.344   4.990  1.6724  0.4398 -1.0974
   71CHL1    C3 6361   4.701   5.008   3.479 -0.0241  0.2309  0.7171
   71CHL1    H3 6362   4.601   5.057   3.480  0.6397  1.6089  1.1274
   71CHL1    O3 6363   4.735   4.983   3.340  0.2557  0.6128  0.1793
   71CHL1   H3' 6364   4.812   4.925   3.348  0.6322  0.8653 -1.2570
   71CHL1    C4 6365   4.812   5.100   3.536  0.1353 -0.1728 -0.4193
   71CHL1   H4A 6366   4.915   5.058   3.527  0.2413  0.3522 -1.9337
   71CHL1   H4B 6367   4.812   5.189   3.469 -0.2230 -0.8802 -1.3896
   71CHL1    C5 6368   4.783   5.138   3.681  0.4551  0.1814  0.3764
   71CHL1    C6 6369   4.777   5.272   3.717  0.2464  0.7058  0.2547
   71CHL1    H6 6370   4.793   5.338   3.630  3.0466 -0.3013 -0.0847
   71CHL1    C7 6371   4.766   5.318   3.856 -0.3464 -0.4361  0.1508
   71CHL1   H7A 6372   4.829   5.409   3.869 -0.5472 -0.2401 -0.2187
   71CHL1   H7B 6373   4.661   5.344   3.881  0.0128 -0.2480  1.5900
   71CHL1    C8 6374   4.808   5.212   3.962  0.2965 -0.0281 -0.2584
   71CHL1    H8 6375   4.919   5.208   3.959  0.4887  2.2523  1.5487
   71CHL1   C14 6376   4.763   5.239   4.106 -0.6399 -0.0654 -1.1406
   71CHL1   H14 6377   4.653   5.248   4.100 -1.0813 -1.9604  1.7594
   71CHL1   C15 6378   4.796   5.369   4.181 -0.4935 -0.0249  0.0670
   71CHL1  H15A 6379   4.896   5.405   4.147  0.0420 -1.1471  0.3933
   71CHL1  H15B 6380   4.723   5.450   4.163  0.7475  1.3481  0.9987
   71CHL1   C16 6381   4.804   5.337   4.329 -0.6391  0.2156  0.2490
   71CHL1  H16A 6382   4.908   5.353   4.364 -0.1137  1.2550 -1.6337
   71CHL1  H16B 6383   4.731   5.408   4.374  0.9564  1.7268  0.5433
   71CHL1   C17 6384   4.751   5.194   4.343 -0.8398  0.5849 -0.4913
   71CHL1   H17 6385   4.641   5.201   4.330 -0.7925 -1.4816 -2.6331
   71CHL1   C13 6386   4.793   5.130   4.213 -0.2068 -0.2393 -0.4654
   71CHL1   C18 6387   4.953   5.104   4.224  0.7886 -0.0285  0.1678
   71CHL1  H18A 6388   5.001   5.195   4.266  1.6028 -0.8812  1.1437
   71CHL1  H18B 6389   4.974   5.014   4.284  2.6218 -0.5913 -1.2036
   71CHL1  H18C 6390   5.001   5.077   4.127 -0.4113  1.0367 -0.7658
   71CHL1   C12 6391   4.721   5.003   4.175  0.4612  0.7058 -0.0003
   71CHL1  H12A 6392   4.742   4.919   4.244  0.7572  1.3683  0.7335
   71CHL1  H12B 6393   4.612   5.021   4.173  0.6156  1.9462  1.4416
   71CHL1   C11 6394   4.766   4.960   4.026  0.5283 -0.8328 -0.4188
   71CHL1  H11A 6395   4.871   4.931   4.049  0.5333  0.6190  1.7250
   71CHL1  H11B 6396   4.710   4.868   3.999  0.7191 -1.4591  1.1896
   71CHL1    C9 6397   4.743   5.072   3.918 -0.0375 -0.0953 -0.0378
   71CHL1    H9 6398   4.633   5.084   3.920 -0.2098 -1.4441  2.8558
   71CHL1   C10 6399   4.779   5.021   3.775  0.7355 -0.2303 -0.0029
   71CHL1   C19 6400   4.923   4.954   3.779  0.0812  0.1241 -0.5214
   71CHL1  H19A 6401   5.002   5.009   3.835 -0.8207  1.0530 -0.1491
   71CHL1  H19B 6402   4.916   4.857   3.833  0.3534  0.5110  0.2334
   71CHL1  H19C 6403   4.960   4.940   3.675  0.7986  2.1429 -0.5797
   71CHL1    C1 6404   4.669   4.926   3.713 -0.1750 -0.3973 -0.9106
   71CHL1   H1A 6405   4.663   4.840   3.783  0.8538  0.1816 -0.0652
   71CHL1   H1B 6406   4.574   4.982   3.723 -1.3229 -2.6440  2.3397
   71CHL1    C2 6407   4.700   4.883   3.564 -0.4601  0.7380  0.0385
   71CHL1   H2A 6408   4.616   4.815   3.537  1.1905 -1.4678  0.2579
   71CHL1   H2B 6409   4.796   4.829   3.561 -1.9370 -2.0752 -0.0824
   71CHL1   C20 6410   4.778   5.114   4.470 -0.2172 -0.2481 -0.3531
   71CHL1   H20 6411   4.866   5.050   4.450 -0.4172 -0.0238 -2.1251
   71CHL1   C21 6412   4.660   5.023   4.500 -0.4806 -0.6152 -0.0769
   71CHL1  H21A 6413   4.634   4.964   4.410  0.2194 -1.0683  0.0126
   71CHL1  H21B 6414   4.571   5.073   4.546 -0.7092  0.6747 -1.8149
   71CHL1  H21C 6415   4.690   4.948   4.576 -2.4966 -0.0756  1.3331
   71CHL1   C22 6416   4.807   5.207   4.591  0.7905  0.6079  0.6888
   71CHL1  H22A 6417   4.894   5.273   4.571  0.0282  1.3585 -0.2903
   71CHL1  H22B 6418   4.721   5.274   4.614 -0.1665 -0.7931  1.3123
   71CHL1   C23 6419   4.840   5.126   4.718  0.2141 -0.1813  0.3594
   71CHL1  H23A 6420   4.756   5.060   4.749 -0.7295  1.1691  0.7407
   71CHL1  H23B 6421   4.936   5.072   4.704  0.7693  0.8117  0.2633
   71CHL1   C24 6422   4.872   5.225   4.829  0.2346 -0.1700  0.7301
   71CHL1  H24A 6423   4.943   5.308   4.807 -1.3716  1.2604  0.7186
   71CHL1  H24B 6424   4.777   5.279   4.845  0.5620  0.3070  1.1055
   71CHL1   C25 6425   4.896   5.165   4.966 -0.3414  0.2771  0.4898
   71CHL1   H25 6426   4.809   5.098   4.983 -1.4498  1.2581 -1.0423
   71CHL1   C26 6427   5.025   5.094   4.980 -0.1078 -0.7437  0.3817
   71CHL1  H26A 6428   5.026   5.051   5.082 -2.7550 -1.0170  0.3631
   71CHL1  H26B 6429   5.031   5.008   4.910  1.9852 -0.7664  0.5168
   71CHL1  H26C 6430   5.107   5.161   4.947 -0.6017 -1.0115 -1.5503
   71CHL1   C27 6431   4.890   5.277   5.076 -0.0747  0.1957  0.3667
   71CHL1  H27A 6432   4.976   5.348   5.075  0.1347 -0.0598 -0.5364
   71CHL1  H27B 6433   4.795   5.331   5.059  0.4338  0.7282 -0.9299
   71CHL1  H27C 6434   4.887   5.233   5.178 -2.0429  1.5650  0.9637
   72CHL1    C3 6435   0.172   1.822   3.939 -0.0203  0.5669 -0.1339
   72CHL1    H3 6436   0.092   1.898   3.949 -2.7355 -2.0874 -0.1775
   72CHL1    O3 6437   0.149   1.748   3.818 -0.0734 -0.1875  0.1769
   72CHL1   H3' 6438   0.220   1.684   3.827 -0.2170 -0.2188  1.2464
   72CHL1    C4 6439   0.316   1.875   3.937  0.1573 -0.3429 -1.2377
   72CHL1   H4A 6440   0.392   1.799   3.911  2.0492  0.4687  1.4568
   72CHL1   H4B 6441   0.317   1.942   3.849 -0.0178  1.0238 -0.2327
   72CHL1    C5 6442   0.374   1.937   4.070  0.2444  0.0787 -0.3366
   72CHL1    C6 6443   0.436   2.057   4.071 -0.7034  0.2211 -0.4338
   72CHL1    H6 6444   0.445   2.100   3.970  1.1769 -1.4598 -1.0493
   72CHL1    C7 6445   0.495   2.125   4.192 -0.1088 -0.2669  0.5603
   72CHL1   H7A 6446   0.601   2.149   4.169 -0.7109  0.0055 -2.2897
   72CHL1   H7B 6447   0.433   2.210   4.226 -0.7055 -0.6350  0.3999
   72CHL1    C8 6448   0.502   2.023   4.313 -0.4024  0.5720  0.0839
   72CHL1    H8 6449   0.594   1.962   4.302 -0.4689  0.2043  1.4499
   72CHL1   C14 6450   0.514   2.099   4.442  0.1259  0.6121  0.3446
   72CHL1   H14 6451   0.427   2.166   4.458  0.5218  1.3854 -0.6512
   72CHL1   C15 6452   0.628   2.202   4.454 -0.1686 -0.4321  0.0076
   72CHL1  H15A 6453   0.717   2.141   4.428 -0.7688 -2.1668  1.7373
   72CHL1  H15B 6454   0.622   2.288   4.385  2.4653  0.4248  0.7540
   72CHL1   C16 6455   0.619   2.239   4.603 -0.5175  0.4295 -0.0286
   72CHL1  H16A 6456   0.723   2.243   4.640 -0.6390  2.8814  0.1800
   72CHL1  H16B 6457   0.584   2.343   4.618  2.7490  1.5963  0.2918
   72CHL1   C17 6458   0.539   2.125   4.675 -0.7195 -0.8996 -0.3504
   72CHL1   H17 6459   0.441   2.176   4.691  0.4104  1.2459  0.1714
   72CHL1   C13 6460   0.517   2.016   4.567 -0.4736 -0.3403  0.5871
   72CHL1   C18 6461   0.637   1.915   4.574  0.2223 -0.0880 -0.1416
   72CHL1  H18A 6462   0.620   1.846   4.660 -1.6405  0.2955 -0.1600
   72CHL1  H18B 6463   0.637   1.864   4.476  2.4612 -1.8859  0.7177
   72CHL1  H18C 6464   0.736   1.965   4.580 -0.2126  0.6422  2.2862
   72CHL1   C12 6465   0.390   1.941   4.578  0.1074  0.2606 -1.0319
   72CHL1  H12A 6466   0.370   1.886   4.672 -1.4896 -0.1332 -1.5768
   72CHL1  H12B 6467   0.315   2.022   4.587 -1.2328 -1.1925  2.3599
   72CHL1   C11 6468   0.364   1.860   4.455 -0.1146 -0.6632  0.2453
   72CHL1  H11A 6469   0.439   1.778   4.445 -0.9119 -1.3545 -0.1608
   72CHL1  H11B 6470   0.263   1.816   4.471 -0.6835  0.0094 -1.3249
   72CHL1    C9 6471   0.374   1.945   4.322  0.4451  0.2213  0.6514
   72CHL1    H9 6472   0.283   2.008   4.336 -1.7167 -2.4686 -0.4187
   72CHL1   C10 6473   0.352   1.860   4.194  0.6796  0.2445  0.9169
   72CHL1   C19 6474   0.435   1.731   4.192  0.4455 -0.0801 -0.8969
   72CHL1  H19A 6475   0.404   1.671   4.280  4.4277 -0.6627  0.3261
   72CHL1  H19B 6476   0.440   1.669   4.099  0.6891  0.2950 -1.1357
   72CHL1  H19C 6477   0.531   1.764   4.236 -1.1362  1.6087  1.5127
   72CHL1    C1 6478   0.202   1.801   4.193 -0.0248 -0.5725 -0.6749
   72CHL1   H1A 6479   0.180   1.729   4.274 -1.7414 -0.6921 -1.1898
   72CHL1   H1B 6480   0.143   1.895   4.197  0.0541 -0.4989 -1.1637
   72CHL1    C2 6481   0.156   1.733   4.063  0.5531 -0.3578 -0.5346
   72CHL1   H2A 6482   0.047   1.719   4.073  0.1582  2.1516 -0.7774
   72CHL1   H2B 6483   0.205   1.634   4.048 -3.0122 -2.5599  1.0669
   72CHL1   C20 6484   0.601   2.084   4.813  0.5241 -0.0348 -0.1656
   72CHL1   H20 6485   0.689   2.017   4.804  1.1159  0.5299  1.2158
   72CHL1   C21 6486   0.485   2.014   4.896 -0.5763 -1.2193  0.3344
   72CHL1  H21A 6487   0.478   1.909   4.859  2.8893 -0.7860 -2.0338
   72CHL1  H21B 6488   0.385   2.059   4.880 -1.0981 -2.2868  0.4796
   72CHL1  H21C 6489   0.507   2.019   5.005 -1.3728 -2.2577  0.5571
   72CHL1   C22 6490   0.665   2.197   4.899  0.5263 -0.3615  0.0187
   72CHL1  H22A 6491   0.693   2.161   5.000 -0.5686 -1.0945  0.0831
   72CHL1  H22B 6492   0.754   2.237   4.846 -0.2871  1.5667  0.0263
   72CHL1   C23 6493   0.572   2.312   4.932  0.0108 -0.0293  0.2904
   72CHL1  H23A 6494   0.535   2.358   4.838 -1.5603 -0.3501  0.7241
   72CHL1  H23B 6495   0.486   2.272   4.990 -0.7775  2.2691  0.7986
   72CHL1   C24 6496   0.649   2.425   4.990  0.6919 -0.3303 -0.5588
   72CHL1  H24A 6497   0.698   2.380   5.080 -1.5701 -0.4771  0.6837
   72CHL1  H24B 6498   0.723   2.466   4.918 -0.8654  1.3685 -1.2698
   72CHL1   C25 6499   0.564   2.546   5.033 -0.5371 -0.9717 -0.0535
   72CHL1   H25 6500   0.630   2.612   5.093 -0.3631  1.0271 -2.2825
   72CHL1   C26 6501   0.524   2.639   4.915  0.4355 -0.2740 -0.0692
   72CHL1  H26A 6502   0.609   2.704   4.884  1.1439  0.0426  2.3695
   72CHL1  H26B 6503   0.466   2.588   4.835  2.1949 -0.4950 -1.2523
   72CHL1  H26C 6504   0.449   2.704   4.964 -0.8700 -0.9066 -1.1577
   72CHL1   C27 6505   0.441   2.513   5.115 -0.1091  0.2908 -0.2363
   72CHL1  H27A 6506   0.360   2.453   5.066 -0.4159 -0.3205  0.9705
   72CHL1  H27B 6507   0.478   2.448   5.197 -0.0451  0.2558 -0.2935
   72CHL1  H27C 6508   0.411   2.606   5.168  3.5453  0.9512  0.9266
   73CHL1    C3 6509   1.067   6.589   3.921 -0.6407 -1.1694 -0.2809
   73CHL1    H3 6510   1.092   6.694   3.944 -0.7594 -0.6831 -2.2007
   73CHL1    O3 6511   1.020   6.590   3.790  0.5249 -0.3944  0.1729
   73CHL1   H3' 6512   1.051   6.514   3.740 -0.6270 -0.2341 -0.8310
   73CHL1    C4 6513   1.187   6.496   3.943 -0.7447  0.5869 -0.8528
   73CHL1   H4A 6514   1.147   6.395   3.922 -1.5432  0.5758  0.5897
   73CHL1   H4B 6515   1.268   6.515   3.869  0.9871  0.9673  1.0317
   73CHL1    C5 6516   1.235   6.510   4.088 -0.2574 -0.0917 -0.2066
   73CHL1    C6 6517   1.363   6.542   4.110 -0.0190 -0.2000 -0.6355
   73CHL1    H6 6518   1.431   6.566   4.027 -0.7027  2.2560 -0.5768
   73CHL1    C7 6519   1.416   6.563   4.247 -0.0849 -0.2398  0.7947
   73CHL1   H7A 6520   1.512   6.507   4.252  0.7693  1.1400  0.4427
   73CHL1   H7B 6521   1.437   6.671   4.259 -0.3225 -0.0828 -0.1248
   73CHL1    C8 6522   1.320   6.501   4.360 -0.3291  0.0139  0.3052
   73CHL1    H8 6523   1.326   6.390   4.363 -0.1845  0.0419  1.6617
   73CHL1   C14 6524   1.362   6.551   4.494 -0.0236  0.6228 -0.0019
   73CHL1   H14 6525   1.340   6.660   4.484 -0.9283  0.3296 -1.4152
   73CHL1   C15 6526   1.509   6.536   4.525 -0.0661 -0.0392 -0.2865
   73CHL1  H15A 6527   1.547   6.433   4.511  0.5504  0.1594 -0.1310
   73CHL1  H15B 6528   1.559   6.605   4.452  0.3752  1.6544  1.5334
   73CHL1   C16 6529   1.522   6.575   4.675 -0.1784  0.0787  0.2794
   73CHL1  H16A 6530   1.578   6.494   4.726  0.1475 -0.1820 -0.4796
   73CHL1  H16B 6531   1.563   6.676   4.697  0.4567  0.3586 -1.8903
   73CHL1   C17 6532   1.377   6.580   4.730  0.3875 -0.7360 -0.5691
   73CHL1   H17 6533   1.338   6.684   4.726  0.2729 -0.6093  2.0710
   73CHL1   C13 6534   1.289   6.508   4.627 -0.0246 -0.0776  0.3688
   73CHL1   C18 6535   1.305   6.359   4.643 -0.2412  0.2950  0.2381
   73CHL1  H18A 6536   1.411   6.325   4.651 -0.3198 -0.7409 -2.1566
   73CHL1  H18B 6537   1.261   6.328   4.740  1.2052 -0.8727  0.5652
   73CHL1  H18C 6538   1.268   6.303   4.554 -0.7368  1.8196 -0.5442
   73CHL1   C12 6539   1.147   6.534   4.605  0.8875  0.2421 -0.8829
   73CHL1  H12A 6540   1.084   6.474   4.673  1.1906  0.9115  0.0012
   73CHL1  H12B 6541   1.123   6.641   4.623  1.0231 -0.1317  1.8851
   73CHL1   C11 6542   1.096   6.495   4.460 -0.1263 -0.1885 -0.0043
   73CHL1  H11A 6543   1.105   6.384   4.462  3.2775 -0.0071  0.2755
   73CHL1  H11B 6544   0.991   6.524   4.440  0.2991  2.4072  1.0791
   73CHL1    C9 6545   1.180   6.542   4.341 -0.1541  0.0031  0.4731
   73CHL1    H9 6546   1.177   6.653   4.341 -0.7585 -0.0102  0.2781
   73CHL1   C10 6547   1.127   6.493   4.199  0.1581 -0.0245  0.1091
   73CHL1   C19 6548   1.076   6.342   4.206 -0.0848 -0.1821 -0.4025
   73CHL1  H19A 6549   1.032   6.304   4.111  1.6486 -0.0069 -1.3123
   73CHL1  H19B 6550   1.164   6.283   4.238  0.7291  0.8824 -0.6063
   73CHL1  H19C 6551   1.004   6.346   4.290 -0.2463  1.3452 -0.5817
   73CHL1    C1 6552   0.998   6.578   4.162  0.0337  0.3176  0.0195
   73CHL1   H1A 6553   0.912   6.547   4.224 -1.0605  2.2749 -0.4320
   73CHL1   H1B 6554   1.025   6.683   4.187 -0.0850  0.5376 -0.7441
   73CHL1    C2 6555   0.957   6.567   4.014  0.9714  0.0410  0.5870
   73CHL1   H2A 6556   0.881   6.648   4.004  0.1597 -0.7694 -0.0393
   73CHL1   H2B 6557   0.912   6.466   4.000  0.1596 -0.0097  3.0469
   73CHL1   C20 6558   1.365   6.538   4.879 -0.7984 -0.8088 -0.2367
   73CHL1   H20 6559   1.385   6.429   4.892  0.6565 -0.3364  2.1092
   73CHL1   C21 6560   1.225   6.571   4.929  0.2553  0.2501 -0.0632
   73CHL1  H21A 6561   1.195   6.676   4.904  1.4619  0.5841 -0.1551
   73CHL1  H21B 6562   1.217   6.560   5.039  0.1659 -1.9972 -0.2553
   73CHL1  H21C 6563   1.154   6.501   4.879  0.0277 -0.1390  0.7949
   73CHL1   C22 6564   1.464   6.615   4.966  0.6624  0.1423  0.0595
   73CHL1  H22A 6565   1.488   6.718   4.932  2.6305 -0.4075 -0.3804
   73CHL1  H22B 6566   1.418   6.630   5.066  0.5985 -0.5001  0.1333
   73CHL1   C23 6567   1.602   6.552   4.990  0.1820 -0.8324  0.8120
   73CHL1  H23A 6568   1.590   6.444   4.967  0.8437 -0.3306 -2.2988
   73CHL1  H23B 6569   1.673   6.595   4.916  1.9822 -1.0815  2.3216
   73CHL1   C24 6570   1.661   6.575   5.126 -0.3060  0.1334  0.2519
   73CHL1  H24A 6571   1.657   6.685   5.143 -0.9568  0.3101 -0.9341
   73CHL1  H24B 6572   1.611   6.517   5.206 -0.2123 -1.2251 -0.6414
   73CHL1   C25 6573   1.811   6.535   5.131  0.8297  0.0413 -0.2134
   73CHL1   H25 6574   1.853   6.573   5.035 -1.9640 -0.5212 -1.7359
   73CHL1   C26 6575   1.870   6.593   5.262 -0.4514 -0.7116 -0.7459
   73CHL1  H26A 6576   1.943   6.525   5.310 -1.5209 -0.9240  0.6464
   73CHL1  H26B 6577   1.924   6.687   5.238 -0.3673 -0.2246  1.1782
   73CHL1  H26C 6578   1.784   6.626   5.324  0.8572  3.1936 -0.7444
   73CHL1   C27 6579   1.836   6.385   5.127  0.0022  0.3042  0.8128
   73CHL1  H27A 6580   1.761   6.335   5.192 -1.2319  0.0614 -0.7500
   73CHL1  H27B 6581   1.833   6.353   5.021 -1.2843 -0.8261  1.1665
   73CHL1  H27C 6582   1.935   6.367   5.175  0.8269  1.2428 -0.4697
   74CHL1    C3 6583   5.013   2.696   2.969 -0.0213  0.0672  0.0500
   74CHL1    H3 6584   4.960   2.607   3.010 -0.1444 -0.1644 -0.6071
   74CHL1    O3 6585   5.011   2.677   2.823 -0.2941 -0.4745  0.2130
   74CHL1   H3' 6586   5.010   2.769   2.793 -1.0421 -1.1124 -1.9158
   74CHL1    C4 6587   4.927   2.814   3.013  0.5197 -0.2540  0.1725
   74CHL1   H4A 6588   4.968   2.909   2.973  0.2295 -1.3780 -3.1438
   74CHL1   H4B 6589   4.826   2.796   2.971  0.7601 -0.0282 -0.5183
   74CHL1    C5 6590   4.922   2.813   3.167  0.1786 -0.5292  0.2882
   74CHL1    C6 6591   4.808   2.826   3.229 -0.0095 -0.3387 -0.1189
   74CHL1    H6 6592   4.714   2.832   3.171  0.1231 -1.6427 -0.4849
   74CHL1    C7 6593   4.799   2.845   3.378 -0.5916 -0.1922  0.2405
   74CHL1   H7A 6594   4.722   2.921   3.405 -1.3385 -0.6467 -0.5687
   74CHL1   H7B 6595   4.780   2.751   3.433  1.1061 -0.7993 -0.1481
   74CHL1    C8 6596   4.933   2.899   3.437 -0.8862  0.2354 -0.4134
   74CHL1    H8 6597   4.940   3.006   3.408 -1.5325  0.6337  0.7993
   74CHL1   C14 6598   4.924   2.892   3.590  0.7877  0.1278  0.2166
   74CHL1   H14 6599   4.906   2.783   3.605 -1.4055  0.2945 -0.6517
   74CHL1   C15 6600   4.800   2.948   3.668  0.4296 -0.2982  0.5316
   74CHL1  H15A 6601   4.763   3.048   3.638 -0.7931 -1.0961 -0.7236
   74CHL1  H15B 6602   4.722   2.873   3.641  3.0031 -2.9311 -0.1662
   74CHL1   C16 6603   4.837   2.956   3.814 -0.3979  0.0624 -0.4889
   74CHL1  H16A 6604   4.843   3.063   3.845 -0.4087 -0.6107  2.0908
   74CHL1  H16B 6605   4.770   2.897   3.880 -1.3511  1.4072 -0.2026
   74CHL1   C17 6606   4.984   2.894   3.822 -0.1025 -0.1734 -0.0571
   74CHL1   H17 6607   4.955   2.787   3.826 -1.1752  0.1137  0.2832
   74CHL1   C13 6608   5.039   2.929   3.681 -0.2485  0.6601 -0.1369
   74CHL1   C18 6609   5.078   3.071   3.682 -0.6707  0.0199  0.2759
   74CHL1  H18A 6610   5.153   3.086   3.763 -0.3876 -1.8490  0.4101
   74CHL1  H18B 6611   5.144   3.099   3.597 -0.8164  1.2894  0.5631
   74CHL1  H18C 6612   4.990   3.138   3.694 -0.1585  1.0128 -1.2124
   74CHL1   C12 6613   5.158   2.844   3.625  0.1414  0.1675  0.7395
   74CHL1  H12A 6614   5.246   2.876   3.684 -2.3840  0.9498  4.4279
   74CHL1  H12B 6615   5.137   2.739   3.657  0.8323  0.1457  1.1432
   74CHL1   C11 6616   5.181   2.851   3.471 -0.8621  0.1366 -0.7924
   74CHL1  H11A 6617   5.228   2.948   3.445  2.2282 -0.5053  1.8335
   74CHL1  H11B 6618   5.254   2.776   3.436  0.2904  0.8253  0.0743
   74CHL1    C9 6619   5.052   2.808   3.393 -0.2411 -0.5303  0.0391
   74CHL1    H9 6620   5.020   2.708   3.429  0.1086 -0.9876 -0.8954
   74CHL1   C10 6621   5.057   2.803   3.239 -0.9381 -0.2096 -0.0107
   74CHL1   C19 6622   5.129   2.931   3.200 -0.1330 -0.1263 -0.3972
   74CHL1  H19A 6623   5.072   3.025   3.219 -0.2946 -0.2876 -0.0663
   74CHL1  H19B 6624   5.230   2.945   3.244 -0.4245  0.9435 -0.0172
   74CHL1  H19C 6625   5.157   2.920   3.093  0.2516  0.8514 -0.4097
   74CHL1    C1 6626   5.140   2.678   3.186 -0.0431  0.1578  0.5721
   74CHL1   H1A 6627   5.239   2.685   3.235  1.5216 -0.6801 -2.2588
   74CHL1   H1B 6628   5.093   2.582   3.219 -0.9189 -0.5272 -2.4192
   74CHL1    C2 6629   5.153   2.681   3.035  0.5626 -0.2336 -0.0470
   74CHL1   H2A 6630   5.205   2.587   3.007  0.7586 -0.1243 -0.0459
   74CHL1   H2B 6631   5.216   2.761   2.992 -0.5290 -0.0451 -1.3689
   74CHL1   C20 6632   5.066   2.931   3.951  0.3380  0.0802 -0.3774
   74CHL1   H20 6633   5.078   3.042   3.951  1.2941 -0.0205 -0.5665
   74CHL1   C21 6634   5.201   2.867   3.952  0.9623 -0.0804  0.5944
   74CHL1  H21A 6635   5.234   2.855   4.058 -0.3841  0.3776  1.0872
   74CHL1  H21B 6636   5.280   2.913   3.890  0.2493  1.6130  0.8785
   74CHL1  H21C 6637   5.193   2.762   3.917  2.0247 -0.1728  0.6043
   74CHL1   C22 6638   4.985   2.892   4.073  0.7768  0.7247  0.0439
   74CHL1  H22A 6639   4.882   2.934   4.065  1.2868  1.6714 -2.5158
   74CHL1  H22B 6640   4.973   2.781   4.075  1.5108  0.6501  1.1663
   74CHL1   C23 6641   5.033   2.945   4.208 -0.0633  0.1472  0.2723
   74CHL1  H23A 6642   5.141   2.921   4.224  0.0206  0.0024 -0.4385
   74CHL1  H23B 6643   5.033   3.056   4.203 -1.4600  0.2633  2.1121
   74CHL1   C24 6644   4.959   2.901   4.333 -0.3253 -0.0870  0.2410
   74CHL1  H24A 6645   4.858   2.948   4.332 -1.2949 -2.0582  0.4020
   74CHL1  H24B 6646   4.939   2.792   4.324 -3.0008  0.2929  0.8802
   74CHL1   C25 6647   5.021   2.921   4.471 -0.3248 -0.3815  0.3719
   74CHL1   H25 6648   5.061   3.023   4.490 -0.0061 -0.4665  0.1657
   74CHL1   C26 6649   4.914   2.890   4.574  0.3254  0.1371  0.4099
   74CHL1  H26A 6650   4.827   2.950   4.541 -0.7090 -0.6723  1.5706
   74CHL1  H26B 6651   4.890   2.781   4.567  2.7855 -0.4313 -0.4855
   74CHL1  H26C 6652   4.948   2.910   4.678 -1.8470 -1.7280  1.5815
   74CHL1   C27 6653   5.147   2.835   4.483 -0.0312  0.1157 -0.1865
   74CHL1  H27A 6654   5.132   2.725   4.482  0.1224  0.1008 -0.7377
   74CHL1  H27B 6655   5.214   2.861   4.398 -1.9018 -0.7322 -1.9915
   74CHL1  H27C 6656   5.189   2.857   4.584  0.0495  0.6576 -0.3372
   75CHL1    C3 6657   1.954   5.770   3.251  1.0431 -0.6909  0.6924
   75CHL1    H3 6658   1.861   5.712   3.262  1.8538 -2.5852 -1.7119
   75CHL1    O3 6659   1.996   5.787   3.113  0.1937  0.6253 -0.4045
   75CHL1   H3' 6660   2.075   5.841   3.116 -0.0955  1.0675 -0.5207
   75CHL1    C4 6661   1.930   5.914   3.311 -0.6116  1.1482  0.0323
   75CHL1   H4A 6662   2.010   5.989   3.291 -0.0370  0.4970 -0.1640
   75CHL1   H4B 6663   1.842   5.946   3.251 -2.8041 -0.1062  2.3730
   75CHL1    C5 6664   1.914   5.910   3.461  0.1814  0.3953  0.5433
   75CHL1    C6 6665   1.815   5.972   3.522  0.5187  0.1903 -0.0582
   75CHL1    H6 6666   1.752   6.039   3.461 -0.3787  0.5445  1.2197
   75CHL1    C7 6667   1.799   5.983   3.668 -0.2580  0.1156  0.2015
   75CHL1   H7A 6668   1.794   6.090   3.696 -0.2495 -0.1432  1.2347
   75CHL1   H7B 6669   1.719   5.915   3.703  0.5221 -0.8777  0.1373
   75CHL1    C8 6670   1.919   5.933   3.753  0.5829  0.6684  1.0118
   75CHL1    H8 6671   1.999   6.010   3.749  0.4974  0.7050 -0.3780
   75CHL1   C14 6672   1.878   5.905   3.893 -0.4022  0.0568  0.1862
   75CHL1   H14 6673   1.809   5.817   3.887 -0.9543  0.4093  1.1083
   75CHL1   C15 6674   1.796   6.012   3.967  0.1173 -0.8322  0.3092
   75CHL1  H15A 6675   1.849   6.109   3.964 -0.1622 -0.6999 -2.0882
   75CHL1  H15B 6676   1.690   6.016   3.932 -0.5641  0.0390  2.3139
   75CHL1   C16 6677   1.809   5.957   4.114  0.0183  0.5165  0.0404
   75CHL1  H16A 6678   1.851   6.041   4.174  3.2193  2.1520 -3.9863
   75CHL1  H16B 6679   1.710   5.930   4.154  0.9995  1.4944  3.4927
   75CHL1   C17 6680   1.899   5.827   4.104 -0.2953 -0.1345  0.0618
   75CHL1   H17 6681   1.834   5.738   4.087  0.0227 -0.3094 -0.2364
   75CHL1   C13 6682   1.987   5.851   3.983 -0.8515 -0.1267 -0.1276
   75CHL1   C18 6683   2.085   5.957   4.010 -0.6860  0.3662  0.0289
   75CHL1  H18A 6684   2.132   6.006   3.921 -2.0532  0.2719 -0.7755
   75CHL1  H18B 6685   2.046   6.041   4.071  0.1563  0.4711  0.4390
   75CHL1  H18C 6686   2.165   5.909   4.071 -1.8946  2.0466  3.1538
   75CHL1   C12 6687   2.047   5.725   3.924  0.3244 -0.3935 -0.0856
   75CHL1  H12A 6688   2.132   5.695   3.990 -0.3929  2.0625  2.0997
   75CHL1  H12B 6689   1.975   5.641   3.910 -1.7231  1.5128 -1.6161
   75CHL1   C11 6690   2.094   5.745   3.778  0.7239  0.7553  0.1814
   75CHL1  H11A 6691   2.182   5.811   3.763  1.3137  0.2601  1.3185
   75CHL1  H11B 6692   2.126   5.644   3.747  0.9373  0.5760  0.9578
   75CHL1    C9 6693   1.978   5.803   3.690  0.4028 -0.3631 -0.2287
   75CHL1    H9 6694   1.892   5.732   3.697  0.5896 -0.4704  1.5202
   75CHL1   C10 6695   2.025   5.823   3.538 -0.4494 -0.5016  0.2049
   75CHL1   C19 6696   2.160   5.898   3.534  0.4440  0.1810  0.0465
   75CHL1  H19A 6697   2.177   5.949   3.437  1.0457 -0.6403 -0.2935
   75CHL1  H19B 6698   2.175   5.978   3.609  2.4380 -0.7893  0.7549
   75CHL1  H19C 6699   2.244   5.827   3.550 -0.1505 -0.6656 -0.5190
   75CHL1    C1 6700   2.031   5.680   3.473 -0.3964 -0.1313 -0.9537
   75CHL1   H1A 6701   2.111   5.621   3.522 -0.6723 -0.6884 -1.1631
   75CHL1   H1B 6702   1.941   5.625   3.508 -0.8712  2.3606  2.2641
   75CHL1    C2 6703   2.056   5.689   3.323 -0.3487  0.4878  0.3024
   75CHL1   H2A 6704   2.074   5.586   3.288 -1.0384  0.7033 -0.7196
   75CHL1   H2B 6705   2.161   5.721   3.305 -0.4380 -0.1067 -1.3896
   75CHL1   C20 6706   1.976   5.782   4.225 -0.4825 -0.5045  0.0199
   75CHL1   H20 6707   2.085   5.802   4.214 -0.3649 -1.0553  0.1474
   75CHL1   C21 6708   1.966   5.622   4.244 -0.0129 -0.2894 -0.6279
   75CHL1  H21A 6709   2.017   5.592   4.150 -0.2984 -1.3743 -0.4469
   75CHL1  H21B 6710   1.864   5.579   4.254 -0.2843  0.6758  1.3317
   75CHL1  H21C 6711   2.031   5.587   4.327  0.3992  2.3882  0.2776
   75CHL1   C22 6712   1.934   5.852   4.361 -0.3842 -0.3074  0.5678
   75CHL1  H22A 6713   1.970   5.957   4.354 -1.2026  0.0428  1.3620
   75CHL1  H22B 6714   1.824   5.845   4.377 -0.6920  2.5511  0.2106
   75CHL1   C23 6715   2.014   5.775   4.480  0.6115  0.0676 -0.7782
   75CHL1  H23A 6716   1.961   5.678   4.487  1.3295 -0.4354 -2.1272
   75CHL1  H23B 6717   2.117   5.756   4.444  2.0240  3.1255  1.1865
   75CHL1   C24 6718   2.041   5.860   4.608  0.5449  0.3466 -0.2224
   75CHL1  H24A 6719   2.118   5.935   4.579  2.1052  0.1282  2.9086
   75CHL1  H24B 6720   1.946   5.907   4.642  0.0768 -0.5894 -0.2116
   75CHL1   C25 6721   2.096   5.781   4.724  0.2683  0.3978 -0.3772
   75CHL1   H25 6722   2.177   5.723   4.674 -0.6860  0.8126 -2.5153
   75CHL1   C26 6723   2.164   5.863   4.833 -0.4748  0.4019 -1.2463
   75CHL1  H26A 6724   2.213   5.803   4.913 -1.1344  0.8051 -0.5273
   75CHL1  H26B 6725   2.237   5.935   4.790  1.5954 -0.2837  0.8997
   75CHL1  H26C 6726   2.082   5.919   4.883 -0.5587 -0.4415 -0.3915
   75CHL1   C27 6727   1.997   5.690   4.801  0.1657 -0.0470 -0.2912
   75CHL1  H27A 6728   1.919   5.754   4.846  1.7174  1.1158  0.8708
   75CHL1  H27B 6729   1.942   5.626   4.729 -0.7689 -2.0017  2.0149
   75CHL1  H27C 6730   2.028   5.619   4.881 -0.7066  2.1341  2.1242
   76CHL1    C3 6731   6.579   2.731   3.660 -0.1534  0.0673 -0.1178
   76CHL1    H3 6732   6.646   2.817   3.684 -0.4302  0.6301 -1.2732
   76CHL1    O3 6733   6.575   2.703   3.521  0.3020  0.0263  0.0603
   76CHL1   H3' 6734   6.665   2.694   3.490  0.5649  0.4752  0.6880
   76CHL1    C4 6735   6.630   2.600   3.734 -0.3600 -0.4192 -0.5964
   76CHL1   H4A 6736   6.556   2.523   3.703 -0.0979 -0.0924 -2.1307
   76CHL1   H4B 6737   6.728   2.590   3.681  0.1107  1.1326 -0.0704
   76CHL1    C5 6738   6.642   2.618   3.884 -0.1344  0.4777  0.3406
   76CHL1    C6 6739   6.756   2.605   3.945 -0.6196 -0.1767 -0.5266
   76CHL1    H6 6740   6.847   2.573   3.891  1.6976 -0.2030  3.0621
   76CHL1    C7 6741   6.776   2.613   4.094  0.3028  0.3073  0.0007
   76CHL1   H7A 6742   6.835   2.528   4.133 -0.3897 -0.4742 -0.6149
   76CHL1   H7B 6743   6.827   2.709   4.120 -0.6203  0.5252  1.0707
   76CHL1    C8 6744   6.643   2.611   4.166 -0.5588  0.2860  0.1435
   76CHL1    H8 6745   6.600   2.508   4.163  0.5039 -0.1533 -1.9505
   76CHL1   C14 6746   6.658   2.661   4.307  0.4281  0.1893 -0.3829
   76CHL1   H14 6747   6.683   2.769   4.306 -1.6272  0.6946 -0.3977
   76CHL1   C15 6748   6.766   2.592   4.398  0.1489 -0.5378  0.0066
   76CHL1  H15A 6749   6.771   2.484   4.374 -1.1066 -0.4846 -0.5659
   76CHL1  H15B 6750   6.861   2.645   4.376  1.1623 -1.5054  1.8451
   76CHL1   C16 6751   6.720   2.633   4.543 -0.7232  0.1167  0.5138
   76CHL1  H16A 6752   6.725   2.537   4.598 -0.2059  0.0780  0.4071
   76CHL1  H16B 6753   6.787   2.714   4.579  0.9000 -1.1904  0.5499
   76CHL1   C17 6754   6.574   2.695   4.538 -0.6581  0.5378 -0.5879
   76CHL1   H17 6755   6.578   2.805   4.526  0.8315  0.4705 -0.9229
   76CHL1   C13 6756   6.526   2.652   4.396  0.1779  0.4000  0.4275
   76CHL1   C18 6757   6.480   2.502   4.404 -0.2008  0.4125 -0.6105
   76CHL1  H18A 6758   6.378   2.490   4.445 -0.4999 -0.3123 -1.5276
   76CHL1  H18B 6759   6.465   2.453   4.305  0.8651 -1.6019  0.1749
   76CHL1  H18C 6760   6.557   2.450   4.464 -1.0095 -2.8202 -2.1252
   76CHL1   C12 6761   6.419   2.741   4.324  0.0574 -0.4539  0.0728
   76CHL1  H12A 6762   6.326   2.752   4.383 -0.7396  1.0195 -1.3608
   76CHL1  H12B 6763   6.459   2.844   4.320  0.3775 -0.5933 -0.4008
   76CHL1   C11 6764   6.401   2.704   4.177 -0.2838 -0.4524 -0.3228
   76CHL1  H11A 6765   6.347   2.607   4.178  1.7618 -1.7551 -2.9052
   76CHL1  H11B 6766   6.336   2.778   4.126  2.4705  0.8995 -2.1926
   76CHL1    C9 6767   6.532   2.691   4.094  0.1531  0.1363  0.1445
   76CHL1    H9 6768   6.578   2.792   4.088 -2.0973  1.2111 -0.3911
   76CHL1   C10 6769   6.500   2.650   3.949 -0.1931 -0.4060  0.0737
   76CHL1   C19 6770   6.417   2.520   3.937 -0.0063 -0.7813  0.1513
   76CHL1  H19A 6771   6.468   2.426   3.966  1.9994  0.7252  1.8296
   76CHL1  H19B 6772   6.320   2.520   3.990  0.2008  0.5430  0.5629
   76CHL1  H19C 6773   6.392   2.513   3.829 -1.2491 -1.8696  0.4924
   76CHL1    C1 6774   6.441   2.773   3.873  1.1509  0.1707 -0.2395
   76CHL1   H1A 6775   6.337   2.790   3.909  0.7188 -0.8961 -0.9198
   76CHL1   H1B 6776   6.495   2.864   3.904  0.5685 -0.4028  2.6970
   76CHL1    C2 6777   6.444   2.770   3.723  0.0247 -0.3199  0.3518
   76CHL1   H2A 6778   6.407   2.862   3.673 -2.0944 -1.3012 -0.0326
   76CHL1   H2B 6779   6.368   2.699   3.683  1.2870 -1.3557 -0.2467
   76CHL1   C20 6780   6.503   2.664   4.668 -0.1547 -1.0646 -0.3249
   76CHL1   H20 6781   6.494   2.554   4.678 -3.7008 -0.7464  1.7883
   76CHL1   C21 6782   6.356   2.720   4.669  0.1066  0.1650 -0.2754
   76CHL1  H21A 6783   6.301   2.690   4.577  0.6219 -1.7644 -0.0068
   76CHL1  H21B 6784   6.355   2.831   4.665 -0.1164  0.1180 -2.2254
   76CHL1  H21C 6785   6.298   2.664   4.747  0.0568  0.3557 -0.1745
   76CHL1   C22 6786   6.571   2.722   4.793  0.2016 -0.2059 -0.5047
   76CHL1  H22A 6787   6.682   2.709   4.791  0.2317 -0.8546  1.8576
   76CHL1  H22B 6788   6.559   2.833   4.790 -0.4407 -0.2154  0.9435
   76CHL1   C23 6789   6.517   2.655   4.918 -0.2118  0.1255 -0.7522
   76CHL1  H23A 6790   6.574   2.692   5.006 -0.1033 -1.7481  0.0304
   76CHL1  H23B 6791   6.410   2.678   4.935 -0.7884 -1.2580 -2.2698
   76CHL1   C24 6792   6.530   2.504   4.924  1.1718 -0.1847 -0.5338
   76CHL1  H24A 6793   6.472   2.450   4.845  2.5677  0.9330 -2.4112
   76CHL1  H24B 6794   6.631   2.459   4.911  0.9211 -1.1153  0.6356
   76CHL1   C25 6795   6.470   2.453   5.056  1.0126 -0.3029 -0.4053
   76CHL1   H25 6796   6.520   2.507   5.139 -0.0852  0.8452 -0.4481
   76CHL1   C26 6797   6.325   2.489   5.074  0.4667 -0.2180  0.8388
   76CHL1  H26A 6798   6.272   2.460   4.980  2.2273  3.2492 -1.4526
   76CHL1  H26B 6799   6.274   2.444   5.162  1.0512 -0.4648  1.0515
   76CHL1  H26C 6800   6.306   2.598   5.081 -0.1451 -0.1968 -0.6156
   76CHL1   C27 6801   6.493   2.305   5.075 -0.3364 -0.1679  0.2221
   76CHL1  H27A 6802   6.451   2.242   4.993 -0.7448  1.8303 -1.1732
   76CHL1  H27B 6803   6.599   2.275   5.089 -0.3005 -2.1216 -3.0219
   76CHL1  H27C 6804   6.439   2.279   5.169 -0.8838 -0.5409 -0.1831
   77SOPE     N 6805   4.652   5.362   7.116  0.4383 -0.7511  0.5197
   77SOPE   HN1 6806   4.687   5.288   7.180 -0.9376 -2.2906 -0.4557
   77SOPE   HN2 6807   4.702   5.352   7.026 -0.8174  0.1088 -0.3036
   77SOPE   HN3 6808   4.685   5.450   7.162 -3.4843  0.4198  1.4337
   77SOPE   C12 6809   4.503   5.353   7.104  0.4904  0.3779  0.9315
   77SOPE  H12A 6810   4.460   5.318   7.200 -1.3589 -1.5207 -0.5036
   77SOPE  H12B 6811   4.472   5.278   7.028 -3.1070 -0.5000  2.9873
   77SOPE   C11 6812   4.440   5.493   7.059 -0.1234  0.1086 -0.2573
   77SOPE  H11A 6813   4.503   5.532   6.977 -1.4352  1.0748 -0.8525
   77SOPE  H11B 6814   4.454   5.554   7.152  1.2105  0.4310 -0.6600
   77SOPE     P 6815   4.189   5.440   7.104 -0.2303 -0.2555  0.3993
   77SOPE   O13 6816   4.224   5.473   7.244  0.2876  0.2045  0.4010
   77SOPE   O14 6817   4.162   5.299   7.070 -0.2408 -0.5201 -0.3691
   77SOPE   O12 6818   4.306   5.501   7.013  0.3403  0.4859  0.4566
   77SOPE   O11 6819   4.067   5.527   7.058 -0.2700  0.0495  0.0322
   77SOPE    C1 6820   4.078   5.642   6.980  0.5855  0.1066 -0.3044
   77SOPE    HA 6821   4.176   5.693   6.994  1.5488 -0.8555 -2.9291
   77SOPE    HB 6822   3.993   5.709   7.004  0.5412 -0.3624  0.8932
   77SOPE    C2 6823   4.044   5.611   6.828  0.6771  0.3270  0.0508
   77SOPE    HS 6824   3.961   5.536   6.824  1.4883 -0.5535 -0.8379
   77SOPE   O21 6825   4.171   5.570   6.767  0.3316  0.0462 -0.4218
   77SOPE   C21 6826   4.163   5.447   6.734  0.7987  0.9244 -0.2725
   77SOPE   O22 6827   4.064   5.373   6.721  0.5465 -0.1856 -0.1074
   77SOPE   C22 6828   4.308   5.396   6.708  0.5531 -0.2515 -0.5909
   77SOPE   H2R 6829   4.320   5.324   6.792 -1.6205  0.0571  0.0459
   77SOPE   H2S 6830   4.380   5.480   6.719  0.0012 -0.0045  1.8009
   77SOPE    C3 6831   4.001   5.735   6.751  0.2571  0.4963 -0.2825
   77SOPE    HX 6832   4.090   5.799   6.767  0.6970 -0.4673  1.3688
   77SOPE    HY 6833   3.915   5.796   6.784 -0.3871 -0.0055 -1.0069
   77SOPE   O31 6834   3.997   5.714   6.609 -0.0045  0.1457 -0.8998
   77SOPE   C31 6835   3.887   5.668   6.556 -0.0527  0.0663 -0.0395
   77SOPE   O32 6836   3.781   5.652   6.616  0.3805 -0.0989  0.2716
   77SOPE   C32 6837   3.901   5.650   6.402  0.0887  0.1140 -0.3798
   77SOPE   H2X 6838   3.952   5.551   6.400 -0.7327 -0.4043  1.7996
   77SOPE   H2Y 6839   3.971   5.728   6.365 -0.6854  1.6750  1.2848
   77SOPE   C23 6840   4.330   5.319   6.587 -1.0660 -0.4716  0.1742
   77SOPE   H3R 6841   4.242   5.260   6.552 -0.1106 -1.2767 -0.9412
   77SOPE   H3S 6842   4.416   5.250   6.594 -0.6631  0.0485  0.3952
   77SOPE   C24 6843   4.363   5.409   6.469  0.5103  0.1833  0.0629
   77SOPE   H4R 6844   4.280   5.482   6.455  0.9505  1.1075  2.0142
   77SOPE   H4S 6845   4.454   5.467   6.494  1.1797 -0.2159 -1.3674
   77SOPE   C25 6846   4.401   5.338   6.332 -0.1860 -0.3145 -0.3511
   77SOPE   H5R 6847   4.478   5.261   6.354 -1.4184 -1.7850 -0.9407
   77SOPE   H5S 6848   4.311   5.277   6.307 -0.4370 -0.4873  0.8772
   77SOPE   C26 6849   4.441   5.440   6.221 -0.2553 -0.2607  0.6306
   77SOPE   H6R 6850   4.366   5.522   6.225 -2.7594 -2.1907 -1.7953
   77SOPE   H6S 6851   4.539   5.484   6.246  0.0983 -1.3763  1.2641
   77SOPE   C27 6852   4.443   5.374   6.077  0.2427 -0.1881 -0.3849
   77SOPE   H7R 6853   4.544   5.327   6.071  0.0305 -0.5121 -1.5991
   77SOPE   H7S 6854   4.379   5.284   6.074  2.6676 -1.9903 -1.8302
   77SOPE   C28 6855   4.424   5.476   5.960 -0.7888 -0.3393  0.2960
   77SOPE   H8R 6856   4.318   5.507   5.951 -0.5710 -0.0061 -1.5756
   77SOPE   H8S 6857   4.477   5.569   5.990  0.6048 -0.4748 -1.4858
   77SOPE   C29 6858   4.471   5.418   5.829 -1.0671 -0.0187 -0.6895
   77SOPE   H91 6859   4.457   5.309   5.824 -0.2641 -0.2459  1.1194
   77SOPE  C210 6860   4.533   5.476   5.727  0.3074 -0.1638 -0.0055
   77SOPE  H101 6861   4.560   5.423   5.635  0.7895  0.0697 -0.0036
   77SOPE  C211 6862   4.565   5.621   5.711 -0.5391 -0.6947  0.3370
   77SOPE  H11R 6863   4.671   5.628   5.675 -1.1204  2.2938 -1.1545
   77SOPE  H11S 6864   4.547   5.681   5.802  0.5251  0.2074 -0.0236
   77SOPE  C212 6865   4.484   5.691   5.603  0.0096  0.3492  1.1911
   77SOPE  H12R 6866   4.516   5.645   5.507 -2.3231  0.1857  0.4262
   77SOPE  H12S 6867   4.504   5.801   5.604 -0.9738  0.5950 -0.7997
   77SOPE  C213 6868   4.333   5.677   5.609 -0.5864  0.4644 -0.0792
   77SOPE  H13R 6869   4.296   5.733   5.697 -3.7470  0.3418 -1.2255
   77SOPE  H13S 6870   4.305   5.571   5.621 -1.2911  0.5697 -0.7218
   77SOPE  C214 6871   4.270   5.738   5.481  0.4965 -0.0448 -0.2201
   77SOPE  H14R 6872   4.291   5.671   5.395  0.3013 -0.9939  0.4622
   77SOPE  H14S 6873   4.311   5.840   5.465  0.1987  0.1265  0.0965
   77SOPE  C215 6874   4.112   5.743   5.481  0.3464  0.1518 -0.0513
   77SOPE  H15R 6875   4.086   5.809   5.566  0.0476 -0.8639  0.6625
   77SOPE  H15S 6876   4.064   5.643   5.488  0.1064  0.0815 -1.9604
   77SOPE  C216 6877   4.066   5.800   5.349  0.1460 -0.4623  0.3180
   77SOPE  H16R 6878   4.120   5.741   5.272 -0.1970 -1.9946  1.2174
   77SOPE  H16S 6879   4.106   5.904   5.348 -1.3114  0.1813  2.2004
   77SOPE  C217 6880   3.914   5.799   5.335 -0.1448 -0.4445 -0.0473
   77SOPE  H17R 6881   3.867   5.846   5.424 -1.3751  0.3717 -1.0900
   77SOPE  H17S 6882   3.891   5.691   5.337 -2.9212  0.0465 -0.0500
   77SOPE  C218 6883   3.863   5.871   5.208  0.1254 -0.0561  0.2778
   77SOPE  H18R 6884   3.755   5.847   5.197 -0.6504  2.6006  1.3524
   77SOPE  H18S 6885   3.922   5.823   5.126  2.1254 -2.4667  2.9312
   77SOPE  H18T 6886   3.874   5.981   5.214 -0.4262  0.0150  0.0812
   77SOPE   C33 6887   3.772   5.643   6.315  0.0524 -0.1373  0.0867
   77SOPE   H3X 6888   3.726   5.743   6.331  0.2589 -0.2502  1.4808
   77SOPE   H3Y 6889   3.699   5.569   6.354 -0.1524  0.1817  0.3088
   77SOPE   C34 6890   3.803   5.632   6.163 -0.4548  0.0715  0.6085
   77SOPE   H4X 6891   3.890   5.563   6.152 -1.0541 -0.4168 -1.6464
   77SOPE   H4Y 6892   3.844   5.732   6.136 -2.4510  0.3316 -1.7966
   77SOPE   C35 6893   3.687   5.609   6.067  0.2302  0.6526 -0.6855
   77SOPE   H5X 6894   3.594   5.664   6.095  0.1218  0.3443 -0.4253
   77SOPE   H5Y 6895   3.659   5.502   6.082 -0.7373  1.2423  2.8535
   77SOPE   C36 6896   3.720   5.618   5.920  0.2372  0.0761  0.0179
   77SOPE   H6X 6897   3.804   5.550   5.893 -0.1720  0.2440 -1.7971
   77SOPE   H6Y 6898   3.755   5.722   5.910  0.4182  0.1370  1.1009
   77SOPE   C37 6899   3.602   5.591   5.834  0.4476  0.5862  0.9511
   77SOPE   H7X 6900   3.522   5.665   5.854 -0.0541  0.2000  0.3740
   77SOPE   H7Y 6901   3.557   5.492   5.852 -0.7714  1.3570  2.3271
   77SOPE   C38 6902   3.627   5.589   5.682  0.0330 -0.4539  0.2136
   77SOPE   H8X 6903   3.721   5.533   5.666  0.8552  1.5236 -2.7113
   77SOPE   H8Y 6904   3.653   5.690   5.643  0.2647 -0.9691 -1.0207
   77SOPE   C39 6905   3.520   5.515   5.598 -0.6291 -0.6812  0.0984
   77SOPE   H9X 6906   3.429   5.579   5.593  0.2260  0.5338 -0.5115
   77SOPE   H9Y 6907   3.489   5.414   5.632  0.0109 -0.3958  1.5771
   77SOPE  C310 6908   3.565   5.502   5.454  0.7045 -0.3828  0.1397
   77SOPE  H10X 6909   3.612   5.402   5.442 -1.2191 -1.7926  3.0840
   77SOPE  H10Y 6910   3.633   5.583   5.422 -2.3995  0.9382 -3.8247
   77SOPE  C311 6911   3.437   5.501   5.365 -0.0263  0.3032  0.4146
   77SOPE  H11X 6912   3.392   5.602   5.375  0.5615  0.5796  0.3418
   77SOPE  H11Y 6913   3.365   5.428   5.406  0.8926 -0.8146  0.0783
   77SOPE  C312 6914   3.470   5.461   5.217 -0.2967 -0.0734 -0.1953
   77SOPE  H12X 6915   3.512   5.358   5.213  0.0744  0.0461  0.4936
   77SOPE  H12Y 6916   3.549   5.534   5.188 -2.1806  2.5137  0.8970
   77SOPE  C313 6917   3.354   5.495   5.124 -0.4179  0.2471 -0.1007
   77SOPE  H13X 6918   3.375   5.468   5.018  0.2900  0.1480  0.0631
   77SOPE  H13Y 6919   3.325   5.602   5.132  2.1251  0.9293  0.6545
   77SOPE  C314 6920   3.230   5.406   5.148 -0.2784  0.4204 -0.0078
   77SOPE  H14X 6921   3.228   5.355   5.246 -1.4452 -1.1132 -0.7878
   77SOPE  H14Y 6922   3.232   5.328   5.069  1.9243  1.1624 -0.7736
   77SOPE  C315 6923   3.093   5.480   5.124 -0.0557 -0.4074 -0.0901
   77SOPE  H15X 6924   3.010   5.406   5.126 -3.4467  2.9979 -2.0467
   77SOPE  H15Y 6925   3.096   5.502   5.015 -1.6433 -1.8285 -0.4716
   77SOPE  C316 6926   3.060   5.600   5.212  0.2314  0.5922  0.3753
   77SOPE  H16X 6927   3.138   5.675   5.185 -1.4046  2.3008  0.1888
   77SOPE  H16Y 6928   3.075   5.567   5.317 -0.9070 -1.6509 -0.0989
   77SOPE  C317 6929   2.920   5.656   5.191 -0.4911  0.1427  0.9143
   77SOPE  H17X 6930   2.913   5.683   5.083  1.0895 -0.0002  0.7477
   77SOPE  H17Y 6931   2.912   5.757   5.236 -1.8721 -0.2540  1.5964
   77SOPE  C318 6932   2.815   5.561   5.261  0.2564  0.2008 -0.0097
   77SOPE  H18X 6933   2.808   5.554   5.372 -2.2987 -0.5576 -0.1523
   77SOPE  H18Y 6934   2.820   5.456   5.226  0.9420  0.4370 -0.6392
   77SOPE  H18Z 6935   2.715   5.598   5.232  0.6324  0.4593 -1.0181
   78SOPE     N 6936   0.673   3.242   7.080 -0.1143 -0.2865  0.1863
   78SOPE   HN1 6937   0.650   3.177   7.002  0.8103 -0.1328 -0.2301
   78SOPE   HN2 6938   0.602   3.236   7.155 -2.5185  0.6584 -1.8708
   78SOPE   HN3 6939   0.657   3.328   7.023 -0.9354 -0.8260 -0.4225
   78SOPE   C12 6940   0.820   3.231   7.117 -0.3307 -0.1815  0.3718
   78SOPE  H12A 6941   0.838   3.127   7.150 -1.4127  0.0478  1.7598
   78SOPE  H12B 6942   0.834   3.295   7.206  0.0086 -1.0675  0.9645
   78SOPE   C11 6943   0.901   3.290   7.002  0.6436 -0.4297 -0.0523
   78SOPE  H11A 6944   0.899   3.229   6.910  1.9963  1.9303 -1.7438
   78SOPE  H11B 6945   1.007   3.297   7.035  0.4966  0.1914  0.3117
   78SOPE     P 6946   0.876   3.546   7.033  0.3617  0.3208  0.2270
   78SOPE   O13 6947   1.016   3.551   7.074 -0.6041  0.2555 -0.1882
   78SOPE   O14 6948   0.776   3.560   7.138 -0.5530 -0.4811  0.6857
   78SOPE   O12 6949   0.853   3.415   6.954 -0.0466  0.6106  0.0071
   78SOPE   O11 6950   0.846   3.652   6.921 -1.0241  0.3522 -0.0396
   78SOPE    C1 6951   0.813   3.624   6.791  0.2411  0.0481  0.4057
   78SOPE    HA 6952   0.759   3.715   6.755  1.1941  1.4579  2.3676
   78SOPE    HB 6953   0.739   3.542   6.784  0.2762  0.1479 -2.2279
   78SOPE    C2 6954   0.928   3.600   6.692 -0.3956  0.6222  0.9836
   78SOPE    HS 6955   0.985   3.513   6.731  0.1109 -0.5759 -2.1442
   78SOPE   O21 6956   1.006   3.717   6.663 -0.2120 -0.2547  0.0299
   78SOPE   C21 6957   1.129   3.690   6.616 -0.4005 -0.2032 -0.4174
   78SOPE   O22 6958   1.188   3.582   6.621  0.2177  0.2733  0.7951
   78SOPE   C22 6959   1.194   3.816   6.551  0.2633 -0.0996  0.2387
   78SOPE   H2R 6960   1.300   3.815   6.583  0.3345 -1.4399  0.0414
   78SOPE   H2S 6961   1.150   3.909   6.593  1.2370 -0.3206  1.8039
   78SOPE    C3 6962   0.868   3.541   6.555  0.2805 -1.1429 -0.1878
   78SOPE    HX 6963   0.790   3.617   6.530  2.3904  1.9809  1.9364
   78SOPE    HY 6964   0.811   3.448   6.574  1.3798 -1.6814  0.5624
   78SOPE   O31 6965   0.962   3.532   6.445  0.2744  0.0549  0.3590
   78SOPE   C31 6966   0.997   3.408   6.396 -0.4985 -0.5700 -0.2350
   78SOPE   O32 6967   0.951   3.309   6.442  0.1567  0.0890  0.3908
   78SOPE   C32 6968   1.116   3.424   6.306  0.7044  0.4648  0.7195
   78SOPE   H2X 6969   1.184   3.348   6.349 -0.8187 -1.0493  0.5218
   78SOPE   H2Y 6970   1.157   3.527   6.319  1.6713  0.0091  1.4156
   78SOPE   C23 6971   1.197   3.817   6.391 -0.0988 -0.1715  0.6722
   78SOPE   H3R 6972   1.259   3.738   6.344 -0.4912  0.4517 -0.9816
   78SOPE   H3S 6973   1.240   3.909   6.345  1.4706 -3.2590 -4.9897
   78SOPE   C24 6974   1.055   3.825   6.328 -0.1160  0.0962  0.2094
   78SOPE   H4R 6975   1.016   3.721   6.327 -1.6431  0.6225  1.4177
   78SOPE   H4S 6976   0.991   3.892   6.388  1.8464  1.1661  1.2272
   78SOPE   C25 6977   1.046   3.868   6.181  0.6000  0.2554  0.0276
   78SOPE   H5R 6978   1.099   3.966   6.179  3.7218 -1.0993  4.0018
   78SOPE   H5S 6979   1.099   3.808   6.104 -1.0143  0.0214 -0.9439
   78SOPE   C26 6980   0.900   3.867   6.130  0.0345 -0.4949  0.4759
   78SOPE   H6R 6981   0.853   3.768   6.144  1.0696 -1.5029 -2.4611
   78SOPE   H6S 6982   0.837   3.944   6.181 -1.6168  0.1122 -2.2621
   78SOPE   C27 6983   0.898   3.897   5.979 -0.1896  0.2760  0.6608
   78SOPE   H7R 6984   0.794   3.923   5.951 -0.3202 -0.0260  0.8631
   78SOPE   H7S 6985   0.970   3.982   5.971  2.5969 -1.7625  2.3642
   78SOPE   C28 6986   0.939   3.784   5.881  0.0700  0.1171 -0.1428
   78SOPE   H8R 6987   0.938   3.826   5.779  2.6660  1.9762  0.5056
   78SOPE   H8S 6988   1.045   3.762   5.905  0.1926  0.8844  0.0440
   78SOPE   C29 6989   0.852   3.656   5.885  0.6583 -0.1426 -0.3557
   78SOPE   H91 6990   0.832   3.627   5.990 -0.6172  0.5560 -0.3859
   78SOPE  C210 6991   0.777   3.600   5.784 -0.2571 -0.1958  0.1522
   78SOPE  H101 6992   0.719   3.510   5.808 -0.3629  0.1508  1.2241
   78SOPE  C211 6993   0.777   3.647   5.639 -0.6104 -0.2371  0.7486
   78SOPE  H11R 6994   0.759   3.756   5.629  0.7466 -0.2201 -2.4045
   78SOPE  H11S 6995   0.699   3.598   5.577 -0.2010 -0.2776  0.2606
   78SOPE  C212 6996   0.908   3.613   5.561  0.3349  0.3242 -0.3085
   78SOPE  H12R 6997   0.914   3.512   5.515  0.8428 -0.5946  1.6780
   78SOPE  H12S 6998   0.992   3.615   5.634  1.1561 -0.6301 -1.2056
   78SOPE  C213 6999   0.929   3.717   5.449  0.0755  0.2490  0.1521
   78SOPE  H13R 7000   1.037   3.725   5.422  0.2678  0.2736  0.9050
   78SOPE  H13S 7001   0.898   3.814   5.493  0.3161 -0.2660  1.4919
   78SOPE  C214 7002   0.853   3.680   5.326 -0.6779 -0.5345  0.9733
   78SOPE  H14R 7003   0.748   3.691   5.359 -0.3479 -0.9312  2.2068
   78SOPE  H14S 7004   0.865   3.573   5.297  0.3750 -0.0301 -0.6254
   78SOPE  C215 7005   0.889   3.781   5.205  0.0171  0.1546  0.1532
   78SOPE  H15R 7006   0.996   3.757   5.191  0.0979 -0.9778  2.2279
   78SOPE  H15S 7007   0.880   3.881   5.252  1.1390 -0.3710  1.5428
   78SOPE  C216 7008   0.801   3.764   5.081  0.0647  0.3058 -1.2555
   78SOPE  H16R 7009   0.822   3.845   5.008 -2.8966  1.5835 -0.8493
   78SOPE  H16S 7010   0.695   3.772   5.112  0.8495  0.4494  1.6090
   78SOPE  C217 7011   0.811   3.625   5.008  0.0379  0.2649 -0.2814
   78SOPE  H17R 7012   0.792   3.536   5.071  1.4428  0.4720  0.4775
   78SOPE  H17S 7013   0.921   3.614   4.993  0.3638  1.4700  0.9859
   78SOPE  C218 7014   0.733   3.614   4.874 -0.2740  0.1067  0.1929
   78SOPE  H18R 7015   0.774   3.686   4.800 -0.7059  0.2336  0.0772
   78SOPE  H18S 7016   0.623   3.623   4.890 -0.4512 -1.0356 -0.3383
   78SOPE  H18T 7017   0.748   3.513   4.833  1.6846  0.6522 -0.5397
   78SOPE   C33 7018   1.069   3.403   6.160  0.2784  0.1571 -0.3255
   78SOPE   H3X 7019   1.157   3.442   6.104  0.4093  2.8262  1.5607
   78SOPE   H3Y 7020   0.985   3.466   6.123 -1.5448 -1.7241  0.3787
   78SOPE   C34 7021   1.052   3.257   6.115 -0.1707  0.0744  0.6012
   78SOPE   H4X 7022   0.989   3.205   6.189 -1.5173  1.6650  0.6291
   78SOPE   H4Y 7023   1.146   3.197   6.112 -0.1943  0.0627 -0.7616
   78SOPE   C35 7024   0.980   3.255   5.977  0.3216 -0.4062  0.8423
   78SOPE   H5X 7025   0.910   3.341   5.988  1.0879  0.2138  1.0069
   78SOPE   H5Y 7026   0.917   3.166   5.961 -0.5606  0.5935 -1.8937
   78SOPE   C36 7027   1.063   3.286   5.853  0.1589 -0.5380  0.1889
   78SOPE   H6X 7028   1.152   3.220   5.866 -0.1185 -0.7975  0.8297
   78SOPE   H6Y 7029   1.098   3.390   5.872  1.5924 -0.1450 -3.7376
   78SOPE   C37 7030   0.990   3.264   5.721 -0.4662  0.2235  0.1365
   78SOPE   H7X 7031   0.904   3.332   5.706  0.2314  1.2899  0.8546
   78SOPE   H7Y 7032   0.937   3.167   5.739 -1.9651  1.6034  4.5225
   78SOPE   C38 7033   1.083   3.263   5.598  0.2383  0.8306 -0.9665
   78SOPE   H8X 7034   1.170   3.200   5.627  0.4461  0.2142 -2.8142
   78SOPE   H8Y 7035   1.116   3.369   5.590  0.0899  0.8527 -1.3028
   78SOPE   C39 7036   1.028   3.216   5.464 -0.3862  0.5257  0.7582
   78SOPE   H9X 7037   0.948   3.289   5.442  0.7573  1.0114 -2.3194
   78SOPE   H9Y 7038   0.969   3.122   5.469 -2.7718  1.9811  1.1941
   78SOPE  C310 7039   1.130   3.216   5.353  0.6590 -0.2474  0.3445
   78SOPE  H10X 7040   1.205   3.137   5.377  0.8246 -0.5436 -1.0501
   78SOPE  H10Y 7041   1.179   3.316   5.353  0.8517 -0.3305  1.5456
   78SOPE  C311 7042   1.086   3.199   5.208  0.1002  0.5984  0.2366
   78SOPE  H11X 7043   1.043   3.097   5.209 -0.9426  1.0386  0.6274
   78SOPE  H11Y 7044   1.169   3.198   5.133 -1.5325 -2.4848 -1.7076
   78SOPE  C312 7045   0.978   3.302   5.154  0.1027 -0.0332 -0.4269
   78SOPE  H12X 7046   1.030   3.400   5.165 -1.7453  1.2349 -2.3571
   78SOPE  H12Y 7047   0.895   3.295   5.228 -0.0174 -1.7231 -0.6820
   78SOPE  C313 7048   0.937   3.267   5.010 -0.4258  0.0388 -0.6312
   78SOPE  H13X 7049   1.024   3.233   4.950  0.0171 -0.2033  0.1292
   78SOPE  H13Y 7050   0.889   3.360   4.973  0.1025  2.0801  3.2959
   78SOPE  C314 7051   0.831   3.151   4.977  0.5643 -0.7569 -0.0204
   78SOPE  H14X 7052   0.732   3.189   5.011  2.2639  1.6084  2.6752
   78SOPE  H14Y 7053   0.842   3.055   5.032  0.1699  0.7160  2.7905
   78SOPE  C315 7054   0.828   3.116   4.828  0.6804 -0.7150 -0.0784
   78SOPE  H15X 7055   0.920   3.076   4.781  0.3978 -1.3455 -0.1039
   78SOPE  H15Y 7056   0.798   3.204   4.767 -1.9409 -0.2548  1.6737
   78SOPE  C316 7057   0.726   3.003   4.801  0.2503  0.0606  0.2724
   78SOPE  H16X 7058   0.633   3.017   4.860  0.2258 -1.3682  0.6139
   78SOPE  H16Y 7059   0.771   2.914   4.851  0.3200  1.2295  2.4433
   78SOPE  C317 7060   0.703   2.967   4.654  0.3597  0.4854  0.0384
   78SOPE  H17X 7061   0.804   2.940   4.619 -0.4265 -0.0422 -1.9630
   78SOPE  H17Y 7062   0.683   3.058   4.594  0.2413  0.1386 -0.4479
   78SOPE  C318 7063   0.606   2.857   4.618  0.0954 -0.3228  0.2699
   78SOPE  H18X 7064   0.618   2.855   4.507 -1.1293  0.1803  0.1118
   78SOPE  H18Y 7065   0.506   2.878   4.661  0.1823 -0.1148  0.3701
   78SOPE  H18Z 7066   0.649   2.767   4.666  3.2999  1.2456  0.6380
   79SOPE     N 7067   3.810   2.791   7.640  0.3972 -0.1299  0.0385
   79SOPE   HN1 7068   3.756   2.708   7.609  1.8911 -1.2992  0.4566
   79SOPE   HN2 7069   3.865   2.749   7.717 -0.6572 -0.8939  0.3987
   79SOPE   HN3 7070   3.738   2.858   7.675 -0.2686 -0.9267  0.2282
   79SOPE   C12 7071   3.894   2.862   7.541 -0.4260  0.3007 -0.3098
   79SOPE  H12A 7072   3.986   2.801   7.526 -0.1663  0.3717  0.8438
   79SOPE  H12B 7073   3.919   2.962   7.582 -4.1177  1.2940 -0.1816
   79SOPE   C11 7074   3.822   2.897   7.411 -0.1485  0.0159 -0.1917
   79SOPE  H11A 7075   3.778   2.806   7.366 -2.3068 -0.4100  2.5057
   79SOPE  H11B 7076   3.891   2.949   7.341 -1.6855  0.5125 -1.3841
   79SOPE     P 7077   3.584   2.998   7.379  0.4307 -0.4072 -0.1412
   79SOPE   O13 7078   3.529   3.128   7.410  0.0319  0.2792  0.1108
   79SOPE   O14 7079   3.510   2.884   7.429  0.3846 -0.6221 -1.2943
   79SOPE   O12 7080   3.726   3.001   7.444 -0.4729  0.0606  0.5183
   79SOPE   O11 7081   3.604   2.991   7.224 -0.2209  0.1963  0.5621
   79SOPE    C1 7082   3.695   3.080   7.149 -0.5921  0.2183  0.0383
   79SOPE    HA 7083   3.791   3.097   7.201 -1.9655  2.9677  1.9159
   79SOPE    HB 7084   3.645   3.179   7.148 -0.8920  0.1106 -2.5252
   79SOPE    C2 7085   3.731   3.040   7.002  0.1024 -0.7548  0.7799
   79SOPE    HS 7086   3.786   3.125   6.956 -2.1247  0.3000 -0.0944
   79SOPE   O21 7087   3.610   3.016   6.925  0.3267  0.2118 -0.8767
   79SOPE   C21 7088   3.560   3.132   6.878  0.2003  0.5948 -0.2325
   79SOPE   O22 7089   3.607   3.245   6.894  0.0039 -0.1136  0.7992
   79SOPE   C22 7090   3.421   3.103   6.816 -1.1923  0.6592 -0.2681
   79SOPE   H2R 7091   3.349   3.124   6.898  0.4458  1.9071  0.9133
   79SOPE   H2S 7092   3.420   2.996   6.786  1.1203 -0.2335  2.4209
   79SOPE    C3 7093   3.806   2.906   6.992  0.2932  0.1887 -0.0214
   79SOPE    HX 7094   3.742   2.819   7.018 -0.4732  1.3411  2.1996
   79SOPE    HY 7095   3.888   2.896   7.067 -0.6112 -0.5878  0.8916
   79SOPE   O31 7096   3.854   2.878   6.857  0.4729  0.4234  0.1191
   79SOPE   C31 7097   3.964   2.939   6.825  0.1648  0.0698 -0.6306
   79SOPE   O32 7098   4.013   3.034   6.880  0.4303 -0.0544 -0.2824
   79SOPE   C32 7099   4.000   2.894   6.688  0.1158  0.2642  0.6406
   79SOPE   H2X 7100   3.940   2.958   6.621 -0.3125 -0.9755 -0.1867
   79SOPE   H2Y 7101   3.976   2.786   6.676  0.0284  0.3876 -0.3309
   79SOPE   C23 7102   3.380   3.206   6.714  0.2928 -0.3036  0.3368
   79SOPE   H3R 7103   3.393   3.304   6.763 -0.5935 -0.6108  1.2241
   79SOPE   H3S 7104   3.270   3.220   6.698  0.7140  2.4923 -0.7248
   79SOPE   C24 7105   3.452   3.202   6.576 -0.0614 -0.2924  0.6448
   79SOPE   H4R 7106   3.562   3.202   6.588 -0.1448 -0.0072  1.4402
   79SOPE   H4S 7107   3.420   3.111   6.520 -2.0173  1.3295 -1.0174
   79SOPE   C25 7108   3.408   3.323   6.496  0.1504 -0.0833  0.6569
   79SOPE   H5R 7109   3.297   3.329   6.494  0.2061  0.8779 -0.5754
   79SOPE   H5S 7110   3.453   3.418   6.532  2.3840 -1.0352  0.5364
   79SOPE   C26 7111   3.449   3.299   6.349 -0.0625  0.0460 -0.2393
   79SOPE   H6R 7112   3.557   3.284   6.326 -0.1251  0.9700 -1.2137
   79SOPE   H6S 7113   3.394   3.210   6.311 -1.3001  0.8611 -0.4253
   79SOPE   C27 7114   3.419   3.420   6.260 -0.2205 -1.2878 -0.5403
   79SOPE   H7R 7115   3.410   3.394   6.152 -3.3886 -4.3395  0.2567
   79SOPE   H7S 7116   3.321   3.454   6.301  0.2590 -1.1379  0.5215
   79SOPE   C28 7117   3.508   3.538   6.284 -0.1582 -0.0438  0.0793
   79SOPE   H8R 7118   3.464   3.632   6.244  1.3350  0.5787 -0.1778
   79SOPE   H8S 7119   3.525   3.550   6.394  0.8866  0.1539 -0.0928
   79SOPE   C29 7120   3.653   3.529   6.235 -0.2904 -0.2080 -0.1973
   79SOPE   H91 7121   3.728   3.536   6.316  1.0786  0.1642 -1.4476
   79SOPE  C210 7122   3.695   3.503   6.114 -0.1799 -0.4416 -0.2219
   79SOPE  H101 7123   3.802   3.505   6.090 -0.2090  0.1584 -0.2969
   79SOPE  C211 7124   3.605   3.478   5.995 -0.2088  0.1108  0.4758
   79SOPE  H11R 7125   3.502   3.516   6.009  0.4761  2.1014  0.4318
   79SOPE  H11S 7126   3.600   3.367   5.992  0.5710  0.0675  0.5866
   79SOPE  C212 7127   3.651   3.538   5.859 -0.3726  0.0749 -0.4128
   79SOPE  H12R 7128   3.672   3.643   5.891 -3.2751 -0.2506  3.1939
   79SOPE  H12S 7129   3.562   3.537   5.792  1.0260 -0.6311 -2.3221
   79SOPE  C213 7130   3.764   3.460   5.803  0.4172  0.2707  0.2270
   79SOPE  H13R 7131   3.733   3.354   5.803  0.6048  0.2132  0.6521
   79SOPE  H13S 7132   3.859   3.477   5.859 -0.0232  2.0114  0.5151
   79SOPE  C214 7133   3.784   3.506   5.654 -0.3880 -0.2965 -0.2177
   79SOPE  H14R 7134   3.872   3.443   5.629 -0.8530 -1.4367  0.8823
   79SOPE  H14S 7135   3.808   3.615   5.658  0.2951 -0.4645  1.5299
   79SOPE  C215 7136   3.673   3.456   5.555 -0.1077  0.2901 -0.1881
   79SOPE  H15R 7137   3.580   3.516   5.561 -1.6748 -2.0069 -0.1983
   79SOPE  H15S 7138   3.653   3.349   5.578 -0.1433  0.1241 -0.9696
   79SOPE  C216 7139   3.722   3.454   5.408 -0.8004 -0.0346 -0.3990
   79SOPE  H16R 7140   3.652   3.412   5.333 -0.8921 -0.4264 -0.0943
   79SOPE  H16S 7141   3.813   3.391   5.399 -1.2874 -0.8956  0.5115
   79SOPE  C217 7142   3.768   3.593   5.355 -0.0146  0.3035 -0.1218
   79SOPE  H17R 7143   3.809   3.572   5.254 -0.3656 -1.0978  0.0037
   79SOPE  H17S 7144   3.861   3.619   5.411 -0.5816 -0.6565  1.3153
   79SOPE  C218 7145   3.673   3.706   5.342 -0.0797 -0.3310 -0.0253
   79SOPE  H18R 7146   3.599   3.683   5.263 -2.2935  1.7938  1.2894
   79SOPE  H18S 7147   3.727   3.801   5.323  0.6186 -0.8452 -0.6911
   79SOPE  H18T 7148   3.612   3.717   5.434  0.3747 -0.1545  0.2630
   79SOPE   C33 7149   4.151   2.885   6.655  0.3498 -0.5524  0.0423
   79SOPE   H3X 7150   4.208   2.863   6.747  1.9174  0.0275 -0.7583
   79SOPE   H3Y 7151   4.180   2.989   6.628  1.2097 -1.0541 -1.0705
   79SOPE   C34 7152   4.183   2.798   6.538 -0.3275 -0.8991  0.0451
   79SOPE   H4X 7153   4.151   2.692   6.549 -0.2649 -0.6798  3.5563
   79SOPE   H4Y 7154   4.293   2.788   6.536 -0.0536  1.5661 -0.5453
   79SOPE   C35 7155   4.141   2.860   6.398 -0.2861  0.5478  0.0582
   79SOPE   H5X 7156   4.192   2.958   6.387 -1.1251  0.8967 -0.9395
   79SOPE   H5Y 7157   4.030   2.871   6.391 -0.4160 -1.1836 -1.6280
   79SOPE   C36 7158   4.176   2.767   6.278 -0.0139  0.7292  0.2501
   79SOPE   H6X 7159   4.126   2.671   6.302 -1.6179  1.7445  1.1709
   79SOPE   H6Y 7160   4.287   2.761   6.270  0.0727 -0.5948  1.7985
   79SOPE   C37 7161   4.127   2.806   6.141 -0.0738 -0.6907 -0.3285
   79SOPE   H7X 7162   4.174   2.902   6.111 -0.7212 -0.4343 -0.5446
   79SOPE   H7Y 7163   4.018   2.826   6.154 -0.0302 -1.0625  0.6911
   79SOPE   C38 7164   4.160   2.703   6.028  0.2729  0.0412 -0.5117
   79SOPE   H8X 7165   4.103   2.608   6.044 -1.2446  1.2890  2.1744
   79SOPE   H8Y 7166   4.267   2.679   6.048  0.0274  0.6895  1.8687
   79SOPE   C39 7167   4.133   2.751   5.887  0.4058 -0.1936  0.9690
   79SOPE   H9X 7168   4.205   2.833   5.865  0.1616 -0.5224 -1.2866
   79SOPE   H9Y 7169   4.028   2.784   5.873  0.1434 -2.1649 -3.2549
   79SOPE  C310 7170   4.163   2.639   5.787 -0.3477  0.1372  0.8613
   79SOPE  H10X 7171   4.095   2.553   5.804 -1.0443  0.3755 -0.5410
   79SOPE  H10Y 7172   4.269   2.609   5.804  0.6819  1.6744 -2.0902
   79SOPE  C311 7173   4.145   2.683   5.644  0.0010  0.0257  0.2179
   79SOPE  H11X 7174   4.209   2.772   5.626  1.9240 -0.3466  4.1517
   79SOPE  H11Y 7175   4.041   2.716   5.626  0.7714  1.6472 -1.6366
   79SOPE  C312 7176   4.167   2.577   5.536  0.4151 -0.4215  0.5069
   79SOPE  H12X 7177   4.094   2.499   5.566 -1.6511  1.7909  1.5317
   79SOPE  H12Y 7178   4.271   2.537   5.532  1.0948  1.3194 -0.6074
   79SOPE  C313 7179   4.135   2.635   5.393 -0.3174  0.1839  0.1742
   79SOPE  H13X 7180   4.214   2.712   5.382 -0.0760  0.0342  0.7946
   79SOPE  H13Y 7181   4.039   2.691   5.396 -1.3503 -1.5415  1.0058
   79SOPE  C314 7182   4.143   2.537   5.276 -0.2870  0.3849  0.2743
   79SOPE  H14X 7183   4.135   2.582   5.175 -0.0323 -1.2564 -0.5054
   79SOPE  H14Y 7184   4.073   2.451   5.277  0.6196 -0.3896 -0.3839
   79SOPE  C315 7185   4.285   2.474   5.287  0.1428  0.9612  0.2762
   79SOPE  H15X 7186   4.285   2.393   5.362 -0.8762  1.6345  1.0483
   79SOPE  H15Y 7187   4.365   2.548   5.310  1.8822 -0.6411 -0.4299
   79SOPE  C316 7188   4.313   2.406   5.155  0.6928 -0.0962  0.0523
   79SOPE  H16X 7189   4.328   2.489   5.082 -2.9221  1.3750  0.7227
   79SOPE  H16Y 7190   4.222   2.349   5.127  0.3728 -0.2897  1.3813
   79SOPE  C317 7191   4.435   2.313   5.159  0.2689 -0.0628  0.2350
   79SOPE  H17X 7192   4.507   2.374   5.218  1.2338 -1.9576  1.1006
   79SOPE  H17Y 7193   4.481   2.275   5.065  0.2494 -0.5703  0.4251
   79SOPE  C318 7194   4.417   2.192   5.257 -0.0569 -0.1979 -0.4680
   79SOPE  H18X 7195   4.343   2.122   5.213  0.3448 -2.5334  2.2472
   79SOPE  H18Y 7196   4.387   2.225   5.359 -2.3196 -0.3898 -1.0185
   79SOPE  H18Z 7197   4.515   2.140   5.255 -0.1618 -0.4309  0.1338
   80SOPE     N 7198   1.703   5.215   7.215 -0.2624 -0.2726  0.0172
   80SOPE   HN1 7199   1.728   5.155   7.296  1.5901 -1.9299 -1.6851
   80SOPE   HN2 7200   1.664   5.300   7.260  1.8993 -0.5334  2.6100
   80SOPE   HN3 7201   1.626   5.170   7.162  1.6158  0.3221 -3.4995
   80SOPE   C12 7202   1.806   5.259   7.119 -0.0228  0.1223  0.7008
   80SOPE  H12A 7203   1.767   5.339   7.051  1.0572 -0.9915 -1.3078
   80SOPE  H12B 7204   1.821   5.165   7.062 -0.5121 -2.5753  4.6390
   80SOPE   C11 7205   1.933   5.308   7.181  0.3387 -0.5041 -0.0515
   80SOPE  H11A 7206   1.921   5.402   7.240 -2.1876  0.3684 -1.7547
   80SOPE  H11B 7207   2.006   5.324   7.099  2.5938 -2.9014  1.3286
   80SOPE     P 7208   2.132   5.163   7.279  0.0280 -0.2118 -0.4163
   80SOPE   O13 7209   2.140   5.022   7.276  0.1129  0.0326  0.0822
   80SOPE   O14 7210   2.193   5.229   7.397 -0.7495 -0.4615 -0.7122
   80SOPE   O12 7211   1.983   5.208   7.271  0.0212  0.0675 -0.4830
   80SOPE   O11 7212   2.195   5.226   7.152 -0.5722  0.3379  0.3287
   80SOPE    C1 7213   2.232   5.146   7.037  0.2635  0.1294  0.0746
   80SOPE    HA 7214   2.147   5.118   6.972  1.9056  1.4577 -2.8706
   80SOPE    HB 7215   2.279   5.051   7.070  5.2619  2.2953  0.2168
   80SOPE    C2 7216   2.340   5.214   6.945 -0.5562  0.0984  0.3121
   80SOPE    HS 7217   2.417   5.253   7.015  1.0093 -1.2109 -0.6087
   80SOPE   O21 7218   2.281   5.330   6.866 -0.6502  0.2723 -0.3736
   80SOPE   C21 7219   2.380   5.418   6.847 -0.0099  1.2250 -0.0138
   80SOPE   O22 7220   2.497   5.394   6.870  0.3838 -0.3037 -0.2527
   80SOPE   C22 7221   2.318   5.540   6.776 -0.3590  0.0426 -0.4092
   80SOPE   H2R 7222   2.405   5.605   6.752  1.3653 -2.2035 -0.6274
   80SOPE   H2S 7223   2.242   5.585   6.842 -1.1255 -1.6390 -0.0925
   80SOPE    C3 7224   2.397   5.105   6.846 -0.7407 -1.0491 -0.1634
   80SOPE    HX 7225   2.428   5.015   6.904 -3.1584 -1.2914  0.8606
   80SOPE    HY 7226   2.494   5.138   6.802 -1.0111  0.9044  0.6029
   80SOPE   O31 7227   2.297   5.066   6.748 -0.2860  0.2475  0.0533
   80SOPE   C31 7228   2.299   5.142   6.638  0.5151 -0.2430 -0.0508
   80SOPE   O32 7229   2.384   5.222   6.602  0.1486  0.5434  0.2171
   80SOPE   C32 7230   2.170   5.116   6.561  0.6751  0.6178  0.0407
   80SOPE   H2X 7231   2.103   5.201   6.585  1.5086  1.8988 -1.8516
   80SOPE   H2Y 7232   2.124   5.023   6.599  1.0764  0.4681  0.1654
   80SOPE   C23 7233   2.249   5.513   6.639  0.3120  0.0379 -1.1732
   80SOPE   H3R 7234   2.168   5.438   6.647  1.0053 -0.6569 -0.4396
   80SOPE   H3S 7235   2.328   5.467   6.576  1.5352 -0.7105  0.8138
   80SOPE   C24 7236   2.197   5.640   6.580 -0.2865  0.0446  0.1089
   80SOPE   H4R 7237   2.120   5.681   6.648 -1.3267  1.6988 -1.9323
   80SOPE   H4S 7238   2.277   5.716   6.562 -0.1055  0.4481  2.3835
   80SOPE   C25 7239   2.125   5.597   6.445  0.0862 -0.3077  0.2127
   80SOPE   H5R 7240   2.199   5.542   6.384 -0.5317 -1.8379  0.7959
   80SOPE   H5S 7241   2.040   5.529   6.466 -0.5148  0.6172  0.8681
   80SOPE   C26 7242   2.056   5.710   6.366  0.3693  0.3950  0.1450
   80SOPE   H6R 7243   1.991   5.767   6.436 -1.1271  0.3649 -1.1611
   80SOPE   H6S 7244   2.136   5.775   6.325  0.8084 -0.4046 -0.2919
   80SOPE   C27 7245   1.960   5.670   6.250  0.1970  0.2549 -0.3450
   80SOPE   H7R 7246   1.996   5.593   6.179 -0.1765 -0.3931  0.1574
   80SOPE   H7S 7247   1.869   5.627   6.297  0.1691 -0.1365 -0.7505
   80SOPE   C28 7248   1.927   5.795   6.174 -0.5541  0.6243 -0.2300
   80SOPE   H8R 7249   1.866   5.865   6.235 -0.9468  0.0350  0.0634
   80SOPE   H8S 7250   2.022   5.848   6.151 -2.3824  3.4345 -1.9739
   80SOPE   C29 7251   1.874   5.765   6.040  0.2957 -0.2896  0.0374
   80SOPE   H91 7252   1.940   5.705   5.976  1.7358  1.3158 -0.0442
   80SOPE  C210 7253   1.748   5.791   6.008  0.6023 -0.2576  0.4614
   80SOPE  H101 7254   1.702   5.778   5.908 -2.3788  2.5295  1.2952
   80SOPE  C211 7255   1.644   5.854   6.094  0.1813  0.0870 -0.2080
   80SOPE  H11R 7256   1.645   5.806   6.195  2.0664 -0.0015 -0.2234
   80SOPE  H11S 7257   1.543   5.826   6.057  0.4972 -2.0490  0.4064
   80SOPE  C212 7258   1.654   6.010   6.110  0.2300 -1.0271  0.1265
   80SOPE  H12R 7259   1.754   6.028   6.156 -0.1385 -2.0719  1.3691
   80SOPE  H12S 7260   1.581   6.055   6.181  0.2571  1.4135 -1.2619
   80SOPE  C213 7261   1.649   6.094   5.975 -0.1781  0.3775 -0.0201
   80SOPE  H13R 7262   1.548   6.096   5.931  0.5048  2.1919 -1.6412
   80SOPE  H13S 7263   1.723   6.044   5.908 -1.4210 -2.7275  0.7534
   80SOPE  C214 7264   1.688   6.235   6.012  0.2165 -0.6978  0.5556
   80SOPE  H14R 7265   1.796   6.239   6.039 -0.2477  0.3051  2.4745
   80SOPE  H14S 7266   1.631   6.251   6.106  0.3991 -0.1358  0.5774
   80SOPE  C215 7267   1.656   6.342   5.908 -0.0663 -0.2113 -0.6549
   80SOPE  H15R 7268   1.694   6.440   5.944  0.2166  0.6422 -3.1418
   80SOPE  H15S 7269   1.546   6.350   5.913  0.1189  2.4540  0.9812
   80SOPE  C216 7270   1.718   6.311   5.767  0.5813  0.4736 -0.1966
   80SOPE  H16R 7271   1.692   6.206   5.741  0.4196  0.5106 -0.1871
   80SOPE  H16S 7272   1.828   6.309   5.780  0.3518 -1.4986  2.3232
   80SOPE  C217 7273   1.673   6.400   5.650  0.3379 -0.2777  0.2058
   80SOPE  H17R 7274   1.718   6.500   5.669 -1.4262  0.3145  1.5178
   80SOPE  H17S 7275   1.562   6.407   5.650  0.3313 -0.2170 -0.5434
   80SOPE  C218 7276   1.706   6.345   5.508 -0.9260 -0.7549  1.1478
   80SOPE  H18R 7277   1.805   6.295   5.500 -0.8835 -0.8436  2.1318
   80SOPE  H18S 7278   1.717   6.423   5.430  1.9175 -2.4355 -0.2900
   80SOPE  H18T 7279   1.618   6.280   5.488 -0.8281 -0.5984  0.1889
   80SOPE   C33 7280   2.190   5.111   6.407 -0.3578  0.0817 -0.2622
   80SOPE   H3X 7281   2.104   5.066   6.354 -2.0884  2.1096  0.6350
   80SOPE   H3Y 7282   2.271   5.042   6.376 -0.7184 -0.7548  0.6051
   80SOPE   C34 7283   2.192   5.247   6.335 -0.3078  0.4045  1.0417
   80SOPE   H4X 7284   2.294   5.289   6.348  0.0678 -0.2901  0.4219
   80SOPE   H4Y 7285   2.114   5.319   6.367 -0.1141  0.3285  1.6892
   80SOPE   C35 7286   2.186   5.239   6.185  1.7243 -0.5254 -0.7033
   80SOPE   H5X 7287   2.187   5.342   6.142 -1.4376 -0.6533 -1.3345
   80SOPE   H5Y 7288   2.088   5.195   6.156  0.8344 -0.0792  1.4291
   80SOPE   C36 7289   2.286   5.155   6.114 -0.3461  0.9374  0.2880
   80SOPE   H6X 7290   2.272   5.057   6.165 -3.6119  0.5133 -1.1517
   80SOPE   H6Y 7291   2.389   5.184   6.140 -0.2184 -0.4841  1.5044
   80SOPE   C37 7292   2.252   5.161   5.962 -0.3690  0.1778  0.3078
   80SOPE   H7X 7293   2.259   5.268   5.933  2.8514  0.1270  0.5276
   80SOPE   H7Y 7294   2.148   5.126   5.939  0.3939 -1.8944 -0.3032
   80SOPE   C38 7295   2.350   5.079   5.874 -0.2435 -0.0795 -0.5478
   80SOPE   H8X 7296   2.336   4.971   5.893  0.4475 -0.2477 -0.9693
   80SOPE   H8Y 7297   2.454   5.115   5.889  0.0528 -0.2675 -2.0527
   80SOPE   C39 7298   2.325   5.116   5.726 -0.4777 -0.3396  0.2858
   80SOPE   H9X 7299   2.409   5.080   5.663  1.9967  1.4146  2.3468
   80SOPE   H9Y 7300   2.346   5.225   5.716  0.4704 -0.6338 -1.3990
   80SOPE  C310 7301   2.197   5.066   5.656  0.6111  0.3390 -0.7698
   80SOPE  H10X 7302   2.120   5.130   5.704  0.0385 -0.9884  0.1386
   80SOPE  H10Y 7303   2.166   4.967   5.695  3.6989  0.6294  3.0265
   80SOPE  C311 7304   2.194   5.075   5.500  0.3980 -0.1137 -0.5972
   80SOPE  H11X 7305   2.285   5.030   5.455  0.1312  1.5624 -3.0148
   80SOPE  H11Y 7306   2.196   5.179   5.461  2.9905 -0.9928 -3.1296
   80SOPE  C312 7307   2.063   5.023   5.441  0.8949  0.4498 -0.1448
   80SOPE  H12X 7308   1.977   5.087   5.469 -0.8465 -2.5786  1.9874
   80SOPE  H12Y 7309   2.046   4.920   5.477 -0.3977  0.6754 -0.0549
   80SOPE  C313 7310   2.075   4.994   5.292  0.8029 -0.7442 -0.0804
   80SOPE  H13X 7311   2.173   4.942   5.281  1.9989  1.0460  1.5379
   80SOPE  H13Y 7312   2.081   5.091   5.238 -3.3819 -0.8910 -1.1426
   80SOPE  C314 7313   1.948   4.926   5.240 -0.0427  0.3610  0.2370
   80SOPE  H14X 7314   1.860   4.981   5.279 -1.6382 -1.0594 -1.1921
   80SOPE  H14Y 7315   1.948   4.822   5.280  2.2790 -1.6913 -4.2582
   80SOPE  C315 7316   1.947   4.916   5.085 -0.0903  0.8241 -0.4665
   80SOPE  H15X 7317   1.951   5.015   5.036  3.1110  0.1198 -1.9186
   80SOPE  H15Y 7318   1.842   4.893   5.058 -0.6514  4.6443 -2.2501
   80SOPE  C316 7319   2.055   4.826   5.026 -0.3062  0.0458 -0.0214
   80SOPE  H16X 7320   2.041   4.728   5.076 -0.1006  1.1841  2.4330
   80SOPE  H16Y 7321   2.150   4.868   5.066 -0.0294 -0.4102 -0.1904
   80SOPE  C317 7322   2.032   4.801   4.877  0.2770 -0.0763  0.1549
   80SOPE  H17X 7323   1.926   4.773   4.858  0.0014  1.2589 -0.3907
   80SOPE  H17Y 7324   2.096   4.715   4.850  0.4820  0.1651 -0.1389
   80SOPE  C318 7325   2.069   4.930   4.794  1.0507  0.0140  0.5263
   80SOPE  H18X 7326   2.175   4.963   4.786  1.4458 -1.3135  0.1012
   80SOPE  H18Y 7327   2.016   5.017   4.837  0.0321  0.3009 -1.2078
   80SOPE  H18Z 7328   2.044   4.927   4.686 -1.3600  1.2416  0.9803
   81SOPE     N 7329   5.041   6.200   7.316 -0.8339 -0.2157  0.3832
   81SOPE   HN1 7330   4.941   6.172   7.326 -0.4703 -1.1359  1.8488
   81SOPE   HN2 7331   5.101   6.119   7.341  0.7053  0.6748 -0.3280
   81SOPE   HN3 7332   5.068   6.269   7.388 -0.2677 -0.5828  0.5258
   81SOPE   C12 7333   5.070   6.239   7.178 -0.3766  0.2978 -0.0129
   81SOPE  H12A 7334   5.178   6.262   7.164 -0.0975 -0.7068  0.4134
   81SOPE  H12B 7335   5.010   6.327   7.150  0.8853  2.0395  2.4253
   81SOPE   C11 7336   5.040   6.114   7.088 -0.1504 -0.1981  0.4850
   81SOPE  H11A 7337   5.098   6.028   7.125 -0.3775  0.1877  1.7805
   81SOPE  H11B 7338   5.054   6.136   6.979 -2.4710 -0.9127 -0.0220
   81SOPE     P 7339   4.782   6.124   7.046  0.1774 -0.3821 -0.1131
   81SOPE   O13 7340   4.779   6.266   7.076  0.4977 -0.7462 -0.2802
   81SOPE   O14 7341   4.662   6.047   7.088 -0.5338  0.4643  0.5064
   81SOPE   O12 7342   4.909   6.054   7.111 -0.2104  0.1142 -0.5722
   81SOPE   O11 7343   4.810   6.101   6.891 -0.1251  0.3635 -0.3649
   81SOPE    C1 7344   4.830   5.969   6.839 -0.2342 -0.2864  0.2820
   81SOPE    HA 7345   4.840   5.884   6.909 -0.4078 -1.6884 -1.3068
   81SOPE    HB 7346   4.915   5.968   6.767 -1.2988 -1.1898 -1.0312
   81SOPE    C2 7347   4.706   5.913   6.761  0.1194  0.5429 -0.1209
   81SOPE    HS 7348   4.665   5.818   6.802  1.2375  0.2689  0.4076
   81SOPE   O21 7349   4.745   5.903   6.623 -0.2746  0.9085  0.4873
   81SOPE   C21 7350   4.795   5.785   6.598  0.6952  1.0564  0.0500
   81SOPE   O22 7351   4.813   5.693   6.676 -0.4200 -0.3049  0.6413
   81SOPE   C22 7352   4.829   5.778   6.447  0.4987 -0.6140  0.1278
   81SOPE   H2R 7353   4.906   5.857   6.429 -1.4941  1.4644  0.2388
   81SOPE   H2S 7354   4.741   5.803   6.384  1.3830 -0.4451 -1.0964
   81SOPE    C3 7355   4.596   6.016   6.751  0.0179 -0.0820 -0.4481
   81SOPE    HX 7356   4.635   6.118   6.731 -0.5636  0.1696 -0.3178
   81SOPE    HY 7357   4.561   6.026   6.856  2.1330 -4.3196  0.9067
   81SOPE   O31 7358   4.498   5.968   6.663  0.0421 -0.6041 -0.3950
   81SOPE   C31 7359   4.378   5.949   6.707  0.4613 -0.1161  0.1073
   81SOPE   O32 7360   4.338   5.977   6.815  0.6265 -0.8067 -0.3610
   81SOPE   C32 7361   4.297   5.879   6.601 -0.4261  0.2459 -0.4236
   81SOPE   H2X 7362   4.190   5.909   6.605  0.1953  2.6003  0.0761
   81SOPE   H2Y 7363   4.299   5.773   6.634  0.5242  0.4141  0.0900
   81SOPE   C23 7364   4.872   5.641   6.406 -0.1786  0.4041  0.1067
   81SOPE   H3R 7365   4.791   5.569   6.428  0.1847  0.0757  0.3939
   81SOPE   H3S 7366   4.953   5.597   6.469 -0.9778  0.9077  1.5231
   81SOPE   C24 7367   4.927   5.637   6.259  0.0738  0.4508  0.3445
   81SOPE   H4R 7368   5.027   5.684   6.262  0.5582 -0.3119 -1.8103
   81SOPE   H4S 7369   4.931   5.529   6.235 -0.7081  0.4001  0.3958
   81SOPE   C25 7370   4.848   5.709   6.148 -0.2935  0.9645 -0.0821
   81SOPE   H5R 7371   4.757   5.654   6.117  2.2299 -2.3675 -2.4437
   81SOPE   H5S 7372   4.821   5.812   6.179  0.2849  1.3159 -0.7013
   81SOPE   C26 7373   4.912   5.722   6.008  0.3021  0.3709 -0.3109
   81SOPE   H6R 7374   4.878   5.820   5.970 -0.4736 -0.0359 -0.6829
   81SOPE   H6S 7375   5.023   5.725   6.012  0.2997 -0.2942  0.9685
   81SOPE   C27 7376   4.886   5.593   5.921  0.2789  0.0131 -0.6811
   81SOPE   H7R 7377   4.873   5.509   5.992 -0.5070  1.2635  0.7006
   81SOPE   H7S 7378   4.788   5.597   5.869 -0.2221 -1.9921  0.0266
   81SOPE   C28 7379   5.005   5.547   5.832  0.5513  0.3362 -0.1303
   81SOPE   H8R 7380   5.082   5.536   5.911 -0.0086 -0.6113  0.3079
   81SOPE   H8S 7381   4.988   5.447   5.786  1.1085  0.5611 -0.8342
   81SOPE   C29 7382   5.032   5.654   5.732  0.4883 -0.3515 -0.7068
   81SOPE   H91 7383   4.950   5.726   5.721  0.9751  0.1794 -0.9572
   81SOPE  C210 7384   5.144   5.671   5.658  0.4713 -0.1684  0.0055
   81SOPE  H101 7385   5.148   5.758   5.591 -1.0521 -0.5538 -0.6289
   81SOPE  C211 7386   5.270   5.592   5.676 -0.2773  0.1567 -0.0936
   81SOPE  H11R 7387   5.289   5.569   5.783  3.1362 -1.2216 -0.8440
   81SOPE  H11S 7388   5.357   5.653   5.643  1.3863 -3.2741 -2.8036
   81SOPE  C212 7389   5.281   5.457   5.609 -0.1559  0.5272  0.5417
   81SOPE  H12R 7390   5.192   5.396   5.636 -0.8192  2.0256  1.8583
   81SOPE  H12S 7391   5.368   5.403   5.654  1.5545  1.8837 -0.9763
   81SOPE  C213 7392   5.304   5.470   5.455 -0.3890 -0.3940  0.0229
   81SOPE  H13R 7393   5.404   5.519   5.450  0.4812 -1.8248  1.9101
   81SOPE  H13S 7394   5.230   5.538   5.408 -1.6826 -1.2066  0.8324
   81SOPE  C214 7395   5.308   5.334   5.380  0.3540 -0.0349 -0.2967
   81SOPE  H14R 7396   5.205   5.293   5.390  0.4019  0.2061  1.5312
   81SOPE  H14S 7397   5.376   5.272   5.441  1.6216  3.1198  1.7914
   81SOPE  C215 7398   5.342   5.349   5.232 -0.2882  0.0958 -0.3549
   81SOPE  H15R 7399   5.444   5.391   5.220 -1.7503  4.6873  1.2231
   81SOPE  H15S 7400   5.267   5.419   5.189  0.8798  0.6046 -1.6244
   81SOPE  C216 7401   5.321   5.208   5.164  0.0518  0.3528 -0.3934
   81SOPE  H16R 7402   5.337   5.214   5.055  1.0103 -0.8957 -0.3546
   81SOPE  H16S 7403   5.216   5.178   5.183 -0.0967  1.7918  1.3200
   81SOPE  C217 7404   5.420   5.102   5.217 -0.6039  0.0961 -0.9575
   81SOPE  H17R 7405   5.424   5.105   5.328  0.1350  0.3437 -0.9853
   81SOPE  H17S 7406   5.522   5.123   5.178  0.3209 -0.7136  0.9035
   81SOPE  C218 7407   5.376   4.962   5.179  1.0517 -0.0729  0.2639
   81SOPE  H18R 7408   5.395   4.943   5.072 -0.9808  0.2860 -0.2011
   81SOPE  H18S 7409   5.267   4.945   5.193  1.3079 -5.7871 -2.0282
   81SOPE  H18T 7410   5.445   4.892   5.231  3.2109  1.4466 -0.3949
   81SOPE   C33 7411   4.346   5.902   6.457 -0.1156 -0.2230 -0.5784
   81SOPE   H3X 7412   4.454   5.875   6.456  0.6506  2.5272 -1.3776
   81SOPE   H3Y 7413   4.342   6.007   6.421 -0.5205  0.1931  0.6156
   81SOPE   C34 7414   4.272   5.813   6.356 -0.0377  0.0275  0.5541
   81SOPE   H4X 7415   4.170   5.857   6.361 -0.0403 -0.1449  3.8743
   81SOPE   H4Y 7416   4.283   5.713   6.402 -1.3393 -0.4402 -0.0953
   81SOPE   C35 7417   4.334   5.822   6.208  0.6959  0.3778  0.5758
   81SOPE   H5X 7418   4.292   5.733   6.158 -0.6050  0.5484  1.3229
   81SOPE   H5Y 7419   4.444   5.807   6.214  1.4037  3.4743 -1.9466
   81SOPE   C36 7420   4.302   5.953   6.132  0.5183 -0.2032  0.1217
   81SOPE   H6X 7421   4.365   6.038   6.164  1.1879  0.4691 -2.7494
   81SOPE   H6Y 7422   4.194   5.977   6.142  0.5970 -0.0359  0.6029
   81SOPE   C37 7423   4.328   5.941   5.983  0.7853 -0.5071  0.7365
   81SOPE   H7X 7424   4.266   5.852   5.958  0.4908 -0.0515 -0.1855
   81SOPE   H7Y 7425   4.431   5.908   5.960  0.4125 -1.5329  0.4822
   81SOPE   C38 7426   4.278   6.058   5.899 -0.2074 -0.5047  0.2343
   81SOPE   H8X 7427   4.329   6.155   5.911 -0.5892 -0.2004 -0.5075
   81SOPE   H8Y 7428   4.174   6.079   5.932  0.5204 -0.0336  2.3704
   81SOPE   C39 7429   4.279   6.025   5.746  0.1073 -0.1741 -0.3555
   81SOPE   H9X 7430   4.206   5.948   5.716  0.0530  0.1343 -1.0276
   81SOPE   H9Y 7431   4.382   5.990   5.724  0.1281 -0.0744 -0.4181
   81SOPE  C310 7432   4.251   6.150   5.660  1.4140 -0.1876 -0.3684
   81SOPE  H10X 7433   4.347   6.205   5.667  0.5502  1.2370  1.2000
   81SOPE  H10Y 7434   4.170   6.204   5.714  0.4687 -1.2751 -0.6453
   81SOPE  C311 7435   4.219   6.119   5.514 -0.0746 -0.2950  0.2267
   81SOPE  H11X 7436   4.130   6.056   5.489  0.8468 -0.8061 -1.9678
   81SOPE  H11Y 7437   4.314   6.069   5.488  0.5861  1.0949 -0.1202
   81SOPE  C312 7438   4.223   6.250   5.429  0.3344 -0.7304 -0.1940
   81SOPE  H12X 7439   4.234   6.225   5.321 -2.0050  1.5544 -1.0891
   81SOPE  H12Y 7440   4.304   6.321   5.455 -0.0213 -0.7697  1.0528
   81SOPE  C313 7441   4.081   6.311   5.431 -0.1910 -0.3913 -0.4387
   81SOPE  H13X 7442   4.085   6.341   5.538  1.7761  0.1476 -0.6222
   81SOPE  H13Y 7443   4.003   6.233   5.418 -0.7121 -0.3610  1.9260
   81SOPE  C314 7444   4.061   6.431   5.334 -0.0473 -0.4436 -0.3871
   81SOPE  H14X 7445   4.064   6.386   5.232  0.3919 -2.2019  0.3652
   81SOPE  H14Y 7446   4.148   6.497   5.357 -0.1789 -0.1531 -0.7062
   81SOPE  C315 7447   3.934   6.518   5.355  0.1007  0.1154 -0.0914
   81SOPE  H15X 7448   3.958   6.613   5.304 -2.7912  1.0874  0.1548
   81SOPE  H15Y 7449   3.908   6.543   5.460 -2.0203  0.9438 -0.7636
   81SOPE  C316 7450   3.812   6.454   5.282 -0.1870 -0.1311  0.4146
   81SOPE  H16X 7451   3.788   6.357   5.330 -1.9414  0.7232  1.3388
   81SOPE  H16Y 7452   3.848   6.441   5.177  1.0726 -1.7770  0.9920
   81SOPE  C317 7453   3.678   6.537   5.285 -0.6018 -0.2918 -0.8145
   81SOPE  H17X 7454   3.698   6.635   5.237  3.6620 -0.7872 -0.4726
   81SOPE  H17Y 7455   3.655   6.548   5.393  1.0624 -1.2462 -0.3266
   81SOPE  C318 7456   3.569   6.467   5.211 -0.0962  0.3017  0.2472
   81SOPE  H18X 7457   3.540   6.372   5.260 -1.0710  0.6211  0.3060
   81SOPE  H18Y 7458   3.611   6.433   5.113  1.9938 -0.5223  1.3625
   81SOPE  H18Z 7459   3.475   6.523   5.192  0.1457  1.5740  2.4539
   82SOPE     N 7460   0.676   0.495   8.138 -0.3346 -0.0373  0.1322
   82SOPE   HN1 7461   0.728   0.467   8.224 -1.6504 -1.7791  0.4187
   82SOPE   HN2 7462   0.588   0.541   8.168 -0.4311 -1.0914  1.5922
   82SOPE   HN3 7463   0.650   0.408   8.087 -0.8409  0.7479 -0.9545
   82SOPE   C12 7464   0.775   0.580   8.061  0.2740 -0.1052  0.4751
   82SOPE  H12A 7465   0.876   0.540   8.085 -0.1058 -0.2901  1.8784
   82SOPE  H12B 7466   0.763   0.683   8.101 -1.5947  0.4289 -1.2584
   82SOPE   C11 7467   0.754   0.576   7.911  0.8314 -0.7638  0.2622
   82SOPE  H11A 7468   0.810   0.661   7.867 -0.4576  0.0036  0.0559
   82SOPE  H11B 7469   0.650   0.599   7.879  0.9790  0.5711  0.6970
   82SOPE     P 7470   0.732   0.362   7.759  0.4289 -0.0075  0.1116
   82SOPE   O13 7471   0.599   0.318   7.804  0.4764  0.5386 -0.3517
   82SOPE   O14 7472   0.826   0.260   7.725 -0.2086  0.0469 -0.5274
   82SOPE   O12 7473   0.802   0.452   7.866  0.5346  0.5080  0.2889
   82SOPE   O11 7474   0.710   0.453   7.642 -0.4583 -0.2821  0.3179
   82SOPE    C1 7475   0.667   0.399   7.513 -0.0903 -0.5537  0.1180
   82SOPE    HA 7476   0.567   0.353   7.523  0.6433 -1.7046  3.0979
   82SOPE    HB 7477   0.730   0.315   7.477 -0.9891 -1.4676  0.6236
   82SOPE    C2 7478   0.687   0.505   7.396  0.3023 -0.4525  0.0851
   82SOPE    HS 7479   0.609   0.583   7.401  0.6247 -0.1183 -0.0221
   82SOPE   O21 7480   0.711   0.437   7.270  0.1364 -0.4115  0.1834
   82SOPE   C21 7481   0.591   0.403   7.214 -0.9560  0.1778  0.1224
   82SOPE   O22 7482   0.483   0.430   7.256 -0.1789 -0.7676 -0.6573
   82SOPE   C22 7483   0.621   0.334   7.082  0.1976  0.7377 -0.1152
   82SOPE   H2R 7484   0.524   0.334   7.027  0.3792 -1.1656 -0.5097
   82SOPE   H2S 7485   0.663   0.233   7.102  1.0400  0.8138 -1.3470
   82SOPE    C3 7486   0.811   0.593   7.423  0.0717 -0.3604 -0.0831
   82SOPE    HX 7487   0.900   0.527   7.427  0.4056  0.0946  0.2314
   82SOPE    HY 7488   0.810   0.641   7.524 -1.3415  0.3179 -0.3951
   82SOPE   O31 7489   0.822   0.697   7.324 -0.1250  0.1857  0.0601
   82SOPE   C31 7490   0.917   0.683   7.233  0.2467  0.5011  0.5900
   82SOPE   O32 7491   1.010   0.598   7.230  0.0618 -0.9983 -0.0230
   82SOPE   C32 7492   0.897   0.799   7.138  0.0765  0.2908  0.3750
   82SOPE   H2X 7493   0.986   0.862   7.157 -0.1517  0.0712  2.2895
   82SOPE   H2Y 7494   0.803   0.855   7.158 -0.5082 -0.2517 -0.7417
   82SOPE   C23 7495   0.710   0.413   6.983 -0.6570 -0.3608  0.2599
   82SOPE   H3R 7496   0.812   0.422   7.026  0.3789 -3.1967 -1.3372
   82SOPE   H3S 7497   0.666   0.515   6.981  0.7517  0.4186  3.4153
   82SOPE   C24 7498   0.721   0.358   6.842  0.0225  0.1783  0.0125
   82SOPE   H4R 7499   0.763   0.255   6.841 -2.0683 -0.7844 -2.5436
   82SOPE   H4S 7500   0.623   0.364   6.790 -0.0072  1.3691  0.1796
   82SOPE   C25 7501   0.817   0.458   6.756 -0.2448 -0.0375 -0.0673
   82SOPE   H5R 7502   0.784   0.564   6.769  0.1789  0.2271 -1.0662
   82SOPE   H5S 7503   0.920   0.449   6.796 -0.3691  0.4262  0.3779
   82SOPE   C26 7504   0.813   0.411   6.612 -0.7161  0.0058 -0.2840
   82SOPE   H6R 7505   0.855   0.309   6.616  2.2189  1.0969 -1.1067
   82SOPE   H6S 7506   0.713   0.416   6.564 -0.1111  3.1486 -1.4597
   82SOPE   C27 7507   0.910   0.497   6.527  0.7262  0.0058  0.3864
   82SOPE   H7R 7508   0.880   0.602   6.550  2.6036  0.3276  1.5810
   82SOPE   H7S 7509   1.018   0.490   6.552  0.6038 -0.8719  0.6785
   82SOPE   C28 7510   0.868   0.491   6.368 -0.0079  0.1048  0.3059
   82SOPE   H8R 7511   0.764   0.531   6.360  0.5962  1.8078  0.4866
   82SOPE   H8S 7512   0.932   0.564   6.313  0.0006  0.2239  0.4734
   82SOPE   C29 7513   0.881   0.349   6.312  0.3795 -0.2308 -0.4521
   82SOPE   H91 7514   0.823   0.278   6.372  1.1952 -0.6638 -0.1622
   82SOPE  C210 7515   0.932   0.306   6.195 -0.0093 -0.3232  0.5418
   82SOPE  H101 7516   0.959   0.199   6.192  2.2519  0.2018  0.6768
   82SOPE  C211 7517   1.010   0.379   6.084 -0.2929 -0.4102  0.7393
   82SOPE  H11R 7518   1.091   0.316   6.041  0.7874  2.7373 -2.4262
   82SOPE  H11S 7519   1.060   0.473   6.117 -0.0919 -0.8696  1.7784
   82SOPE  C212 7520   0.910   0.409   5.975  0.5440  0.3249 -0.8334
   82SOPE  H12R 7521   0.831   0.475   6.016  1.3631  1.0515 -0.3809
   82SOPE  H12S 7522   0.855   0.319   5.942  1.5636 -0.6092 -0.0646
   82SOPE  C213 7523   0.978   0.462   5.850 -0.4247  0.2428 -0.2996
   82SOPE  H13R 7524   1.043   0.384   5.805 -2.1710 -0.9640 -0.8439
   82SOPE  H13S 7525   1.043   0.549   5.873  0.0919  0.5593 -2.6450
   82SOPE  C214 7526   0.874   0.513   5.757  0.8415 -0.6346 -0.2373
   82SOPE  H14R 7527   0.825   0.611   5.779 -1.3524 -1.7782  0.2099
   82SOPE  H14S 7528   0.789   0.443   5.772  0.6695 -0.1913  1.0109
   82SOPE  C215 7529   0.913   0.525   5.607 -0.6541  0.2689  0.3856
   82SOPE  H15R 7530   0.979   0.440   5.581 -2.0412 -0.3535 -1.2704
   82SOPE  H15S 7531   0.968   0.620   5.592  0.2417  0.1320  2.4822
   82SOPE  C216 7532   0.791   0.536   5.513 -0.1621  0.0551  0.3391
   82SOPE  H16R 7533   0.723   0.456   5.548 -0.9645  1.1980  1.4570
   82SOPE  H16S 7534   0.817   0.525   5.406 -0.9325  1.5938 -0.0367
   82SOPE  C217 7535   0.714   0.665   5.520 -0.0029 -0.7149 -0.5987
   82SOPE  H17R 7536   0.765   0.759   5.492 -1.8364  0.1934 -1.0453
   82SOPE  H17S 7537   0.678   0.683   5.624  0.6859  0.1581 -0.5023
   82SOPE  C218 7538   0.599   0.638   5.426 -0.6504 -0.0360  0.4587
   82SOPE  H18R 7539   0.596   0.537   5.379 -0.6544  0.1504  0.0575
   82SOPE  H18S 7540   0.612   0.719   5.352  0.3505  0.4593  1.1533
   82SOPE  H18T 7541   0.503   0.652   5.480 -1.1405 -1.7046  0.0793
   82SOPE   C33 7542   0.893   0.749   6.988 -0.1429  0.5754 -0.5253
   82SOPE   H3X 7543   0.792   0.707   6.967  0.2748  0.1847 -1.9032
   82SOPE   H3Y 7544   0.973   0.681   6.952  0.9153  1.1313  0.7353
   82SOPE   C34 7545   0.905   0.865   6.883 -0.3135  0.2830  0.4803
   82SOPE   H4X 7546   1.004   0.909   6.909  0.5623 -1.7684  0.8365
   82SOPE   H4Y 7547   0.827   0.944   6.890 -0.8180  0.0162 -1.5339
   82SOPE   C35 7548   0.909   0.823   6.737  0.4600 -0.2899 -0.4273
   82SOPE   H5X 7549   0.818   0.768   6.704  0.8245 -1.5034  0.5216
   82SOPE   H5Y 7550   0.991   0.749   6.724 -2.1887 -3.1294 -2.6619
   82SOPE   C36 7551   0.928   0.937   6.633  0.2562 -0.8749 -0.1910
   82SOPE   H6X 7552   1.008   0.998   6.680 -1.2760  1.1127 -0.0352
   82SOPE   H6Y 7553   0.844   1.010   6.637  1.3254  0.3763  0.3711
   82SOPE   C37 7554   0.963   0.881   6.495 -0.3699 -0.0807 -0.0111
   82SOPE   H7X 7555   0.975   0.973   6.433 -2.3841 -0.1916 -0.6348
   82SOPE   H7Y 7556   0.874   0.832   6.450 -0.5243  1.1637 -1.1265
   82SOPE   C38 7557   1.095   0.794   6.484  0.0451 -0.4364  0.5513
   82SOPE   H8X 7558   1.073   0.696   6.531 -2.3357 -1.0011 -1.5536
   82SOPE   H8Y 7559   1.168   0.859   6.538 -0.6018  0.7217  0.0762
   82SOPE   C39 7560   1.141   0.772   6.343 -0.7627  1.3625 -0.5696
   82SOPE   H9X 7561   1.163   0.872   6.299  0.0119  1.7641  0.6910
   82SOPE   H9Y 7562   1.054   0.735   6.285 -2.4935 -0.1442  2.7382
   82SOPE  C310 7563   1.254   0.674   6.330 -0.5323  0.1639  0.6972
   82SOPE  H10X 7564   1.284   0.689   6.224  1.1668  0.1990  1.1543
   82SOPE  H10Y 7565   1.216   0.570   6.318 -1.2777  0.6851 -2.1835
   82SOPE  C311 7566   1.368   0.687   6.436 -0.2745 -0.4989  0.3080
   82SOPE  H11X 7567   1.443   0.615   6.397 -0.8433 -0.4093 -0.9951
   82SOPE  H11Y 7568   1.325   0.649   6.531 -1.4979 -0.1417 -0.0744
   82SOPE  C312 7569   1.426   0.826   6.438 -0.4689  0.5518  0.2936
   82SOPE  H12X 7570   1.343   0.899   6.451 -2.5900 -1.3107 -1.8203
   82SOPE  H12Y 7571   1.471   0.851   6.340 -0.5854 -0.9056 -0.1609
   82SOPE  C313 7572   1.534   0.831   6.547  0.1443 -0.4006  0.0491
   82SOPE  H13X 7573   1.622   0.768   6.521  2.0625  1.4977  1.6159
   82SOPE  H13Y 7574   1.495   0.788   6.642 -1.3395  2.9718  1.1146
   82SOPE  C314 7575   1.578   0.969   6.581 -0.1667 -0.3440  0.6580
   82SOPE  H14X 7576   1.490   1.020   6.623  1.3499  0.1818  3.4493
   82SOPE  H14Y 7577   1.631   1.031   6.506 -2.8645  2.5714  0.9838
   82SOPE  C315 7578   1.685   0.950   6.694  0.8523  0.1180  0.1398
   82SOPE  H15X 7579   1.773   0.902   6.644 -0.6636 -3.0773  0.3381
   82SOPE  H15Y 7580   1.655   0.880   6.774 -0.6153  0.4170 -0.1297
   82SOPE  C316 7581   1.723   1.086   6.759 -0.6641  0.2881  0.4402
   82SOPE  H16X 7582   1.743   1.160   6.678 -0.0753 -1.8536 -1.5007
   82SOPE  H16Y 7583   1.823   1.065   6.803  0.7032  1.2362 -1.9968
   82SOPE  C317 7584   1.622   1.132   6.867 -0.0913  0.2238  0.0905
   82SOPE  H17X 7585   1.667   1.102   6.964  5.2257 -0.4615 -2.2574
   82SOPE  H17Y 7586   1.532   1.070   6.845  2.3133 -2.7079 -2.4519
   82SOPE  C318 7587   1.600   1.288   6.868 -0.1855 -0.5536  0.0768
   82SOPE  H18X 7588   1.535   1.327   6.786  0.3333  4.0749  1.6035
   82SOPE  H18Y 7589   1.702   1.330   6.867 -0.3167 -0.0841  2.3725
   82SOPE  H18Z 7590   1.550   1.315   6.963  1.1539  1.8049  0.1787
   83SOPE     N 7591   0.173   4.087   2.957 -0.7601 -0.1173 -0.4898
   83SOPE   HN1 7592   0.095   4.030   2.917 -0.2634 -1.4217  0.3396
   83SOPE   HN2 7593   0.174   4.082   3.061  0.2639 -0.1622 -0.4911
   83SOPE   HN3 7594   0.169   4.184   2.920  2.0077  0.3014  0.1482
   83SOPE   C12 7595   0.310   4.032   2.919  0.1634 -0.1569 -0.4881
   83SOPE  H12A 7596   0.315   4.047   2.809 -2.7405 -0.0451 -0.6642
   83SOPE  H12B 7597   0.307   3.926   2.952 -1.2865  0.2090  0.6551
   83SOPE   C11 7598   0.436   4.100   2.991  0.1387  0.2888 -0.3579
   83SOPE  H11A 7599   0.533   4.047   2.973  2.1292  1.9445  4.1228
   83SOPE  H11B 7600   0.421   4.090   3.100  1.0355  0.9169 -0.1672
   83SOPE     P 7601   0.561   4.280   2.842 -0.0186 -0.0920  0.2338
   83SOPE   O13 7602   0.560   4.426   2.823  0.1447  0.0290 -0.3236
   83SOPE   O14 7603   0.543   4.202   2.721 -0.0165 -0.4301 -0.0492
   83SOPE   O12 7604   0.456   4.236   2.948 -0.3798  0.3491  0.3820
   83SOPE   O11 7605   0.691   4.240   2.917  0.3696  0.1392  0.0335
   83SOPE    C1 7606   0.824   4.285   2.864  0.2740  0.4232 -0.3991
   83SOPE    HA 7607   0.813   4.346   2.772 -1.6065  1.2100  0.3165
   83SOPE    HB 7608   0.879   4.193   2.833 -1.1611 -0.3738 -0.6504
   83SOPE    C2 7609   0.901   4.366   2.975  0.2303 -0.1074  0.1083
   83SOPE    HS 7610   1.007   4.339   2.957 -0.5377 -2.5713 -1.1466
   83SOPE   O21 7611   0.874   4.334   3.117 -0.0957 -0.1723  0.1715
   83SOPE   C21 7612   0.867   4.205   3.140  0.6683 -1.2607  0.4716
   83SOPE   O22 7613   0.917   4.116   3.068  0.7952 -0.2587 -0.0684
   83SOPE   C22 7614   0.798   4.195   3.272  0.6454 -0.0966 -0.3529
   83SOPE   H2R 7615   0.692   4.214   3.246  0.9284 -0.1073 -1.5395
   83SOPE   H2S 7616   0.834   4.275   3.341  0.1247  0.7106 -1.0071
   83SOPE    C3 7617   0.886   4.517   2.948 -0.4905 -0.3764 -0.4898
   83SOPE    HX 7618   0.780   4.547   2.934  0.0471  1.1510 -1.5787
   83SOPE    HY 7619   0.939   4.531   2.851  0.6305  3.1538  0.4774
   83SOPE   O31 7620   0.966   4.598   3.039  0.0645  0.1899 -0.0628
   83SOPE   C31 7621   0.894   4.686   3.107  0.0543  0.2693 -0.3229
   83SOPE   O32 7622   0.776   4.709   3.091  0.0265  0.8705 -0.0733
   83SOPE   C32 7623   0.977   4.754   3.205 -0.7754  0.5871 -0.3429
   83SOPE   H2X 7624   0.965   4.865   3.208  0.1024  0.6837  0.1140
   83SOPE   H2Y 7625   1.084   4.730   3.186 -0.8923  0.9608 -1.5830
   83SOPE   C23 7626   0.810   4.051   3.328 -0.4006  0.6387 -0.0889
   83SOPE   H3R 7627   0.920   4.044   3.345 -0.5731  1.1270  1.2983
   83SOPE   H3S 7628   0.787   3.991   3.237  1.1380 -1.0850  0.6046
   83SOPE   C24 7629   0.714   4.027   3.451  0.1133  0.2740 -0.0277
   83SOPE   H4R 7630   0.611   4.048   3.414  0.6791  1.1701 -1.1766
   83SOPE   H4S 7631   0.716   3.917   3.469  0.1498 -0.4545 -3.6587
   83SOPE   C25 7632   0.731   4.111   3.582  0.2076  0.0412  0.7170
   83SOPE   H5R 7633   0.817   4.180   3.574 -0.0425  0.1909 -1.2217
   83SOPE   H5S 7634   0.651   4.188   3.587  2.5109  2.7099 -0.5785
   83SOPE   C26 7635   0.734   4.031   3.715  0.4426 -0.1316  0.0216
   83SOPE   H6R 7636   0.649   3.960   3.704  0.6584 -0.6087  1.2711
   83SOPE   H6S 7637   0.827   3.970   3.722  0.5279  0.1157  1.1467
   83SOPE   C27 7638   0.735   4.111   3.837 -1.1250 -0.0301 -0.0087
   83SOPE   H7R 7639   0.842   4.128   3.859 -1.3054 -0.4131  1.2021
   83SOPE   H7S 7640   0.691   4.213   3.828  1.6383  1.1168 -1.6093
   83SOPE   C28 7641   0.681   4.038   3.962 -0.2577  0.7833  0.7957
   83SOPE   H8R 7642   0.727   3.937   3.961  1.0310  1.3506  0.9273
   83SOPE   H8S 7643   0.713   4.087   4.057 -1.1405 -0.0757  1.5558
   83SOPE   C29 7644   0.528   4.035   3.960 -0.0859  0.9591  0.6567
   83SOPE   H91 7645   0.495   4.069   3.861  1.4069 -1.4677 -0.7802
   83SOPE  C210 7646   0.443   3.991   4.050  0.0330 -0.6775 -0.3232
   83SOPE  H101 7647   0.335   3.990   4.030  0.1180  0.2665 -0.8957
   83SOPE  C211 7648   0.485   3.940   4.191  1.2444  0.2188 -0.6710
   83SOPE  H11R 7649   0.594   3.943   4.214  0.9414 -1.1269  1.1672
   83SOPE  H11S 7650   0.456   3.834   4.206  1.8530 -0.0162 -1.1146
   83SOPE  C212 7651   0.413   4.014   4.310 -0.3290  0.3337 -0.5981
   83SOPE  H12R 7652   0.303   4.004   4.296 -0.7037  0.9435  1.5881
   83SOPE  H12S 7653   0.442   4.121   4.308  1.0338  0.0337  1.2457
   83SOPE  C213 7654   0.451   3.965   4.455 -0.2509  0.0007  0.5671
   83SOPE  H13R 7655   0.522   4.037   4.500  0.7958 -0.5542 -0.1520
   83SOPE  H13S 7656   0.505   3.868   4.449 -0.9044 -0.6699  3.8063
   83SOPE  C214 7657   0.323   3.931   4.542  0.5733  0.0037 -0.3526
   83SOPE  H14R 7658   0.362   3.913   4.644  0.3956  0.0679 -0.2724
   83SOPE  H14S 7659   0.285   3.830   4.513 -3.1651  0.6520  1.6088
   83SOPE  C215 7660   0.209   4.040   4.540  0.2528  0.1289 -0.1109
   83SOPE  H15R 7661   0.161   4.059   4.442 -1.2867  2.5122  1.0085
   83SOPE  H15S 7662   0.229   4.143   4.577 -2.8922  1.2796 -1.2334
   83SOPE  C216 7663   0.097   3.996   4.635 -0.0426  0.4170  0.4825
   83SOPE  H16R 7664   0.070   3.895   4.596  0.1810  1.2191 -1.9566
   83SOPE  H16S 7665   0.001   4.049   4.618 -0.6514 -0.0114  2.3860
   83SOPE  C217 7666   0.129   3.977   4.788  0.6698 -0.0158  1.0788
   83SOPE  H17R 7667   0.173   4.074   4.820  1.1841  0.6781 -1.5122
   83SOPE  H17S 7668   0.198   3.891   4.798 -0.4661 -0.7894  2.8712
   83SOPE  C218 7669   0.006   3.954   4.880 -0.4367  0.4150  0.4306
   83SOPE  H18R 7670  -0.013   3.847   4.903 -0.4177  0.3628  0.1954
   83SOPE  H18S 7671  -0.076   4.018   4.840 -0.1059  0.5871  0.0248
   83SOPE  H18T 7672   0.025   3.999   4.980 -0.1347  1.1047  0.0731
   83SOPE   C33 7673   0.946   4.711   3.353  0.2468 -0.3242  0.2929
   83SOPE   H3X 7674   0.840   4.736   3.376  1.5930  4.5045  2.6400
   83SOPE   H3Y 7675   1.004   4.783   3.415  3.1818 -0.1838 -2.3635
   83SOPE   C34 7676   0.991   4.565   3.388 -0.1562  0.0791  1.2480
   83SOPE   H4X 7677   1.101   4.556   3.400 -0.0748  0.8042  1.0761
   83SOPE   H4Y 7678   0.967   4.505   3.297  2.5504 -2.7685  2.2457
   83SOPE   C35 7679   0.914   4.502   3.506  0.5283  0.5136 -0.1129
   83SOPE   H5X 7680   0.969   4.406   3.516 -0.1262  0.2283  0.8916
   83SOPE   H5Y 7681   0.808   4.483   3.479  0.5559  1.6929 -1.1362
   83SOPE   C36 7682   0.921   4.570   3.639  0.0960 -1.1494 -0.1155
   83SOPE   H6X 7683   0.892   4.674   3.615  3.6438 -0.4083 -1.7026
   83SOPE   H6Y 7684   1.025   4.581   3.677 -0.4692 -2.6461  2.0849
   83SOPE   C37 7685   0.830   4.508   3.753 -0.2292  0.0598  0.1656
   83SOPE   H7X 7686   0.851   4.399   3.747  3.2527  0.4573  2.4124
   83SOPE   H7Y 7687   0.724   4.535   3.734 -0.1328  0.5482  0.2894
   83SOPE   C38 7688   0.876   4.550   3.895 -0.1391  0.7619  0.0542
   83SOPE   H8X 7689   0.857   4.658   3.910 -1.7633  0.6870 -1.1735
   83SOPE   H8Y 7690   0.981   4.523   3.917 -0.4074  0.6653  1.2947
   83SOPE   C39 7691   0.796   4.476   4.006  0.2458 -0.0748  1.3788
   83SOPE   H9X 7692   0.808   4.367   3.988  0.4737 -0.2511  2.5665
   83SOPE   H9Y 7693   0.692   4.515   4.005  0.1014 -0.3923  2.6896
   83SOPE  C310 7694   0.861   4.507   4.138  0.3950 -0.0286 -0.1210
   83SOPE  H10X 7695   0.851   4.608   4.184 -0.6075 -0.7606  1.3237
   83SOPE  H10Y 7696   0.969   4.485   4.124  0.5444  1.1593 -1.0416
   83SOPE  C311 7697   0.796   4.416   4.245 -0.5394 -0.6807  0.2705
   83SOPE  H11X 7698   0.864   4.431   4.332 -0.8637  0.4480  0.3413
   83SOPE  H11Y 7699   0.802   4.309   4.216 -0.5235  0.0098 -2.5269
   83SOPE  C312 7700   0.660   4.451   4.304  0.0944 -1.0830  0.1130
   83SOPE  H12X 7701   0.609   4.365   4.354  1.4544 -1.1604  1.4288
   83SOPE  H12Y 7702   0.599   4.482   4.216  2.5188  1.2139 -0.8891
   83SOPE  C313 7703   0.662   4.558   4.404  0.6589  0.7916 -0.6929
   83SOPE  H13X 7704   0.692   4.653   4.354  1.4107  0.9237 -0.0174
   83SOPE  H13Y 7705   0.741   4.528   4.476 -1.0590 -1.6330  0.2999
   83SOPE  C314 7706   0.536   4.576   4.491 -0.1508  0.2630 -0.3872
   83SOPE  H14X 7707   0.507   4.475   4.527 -1.6147  1.1121  0.9594
   83SOPE  H14Y 7708   0.467   4.633   4.425 -1.1255  1.0456  1.2427
   83SOPE  C315 7709   0.554   4.673   4.609 -0.1811  0.2337  0.6005
   83SOPE  H15X 7710   0.454   4.689   4.653 -0.4269 -0.5073  0.3169
   83SOPE  H15Y 7711   0.607   4.762   4.567  0.0951 -0.6103 -0.9069
   83SOPE  C316 7712   0.633   4.614   4.725 -0.9421  0.5946 -0.8222
   83SOPE  H16X 7713   0.731   4.575   4.688  0.3467  0.8518  2.0443
   83SOPE  H16Y 7714   0.569   4.528   4.755 -0.3831  0.6676  0.6690
   83SOPE  C317 7715   0.642   4.716   4.837  0.1148 -0.3211  0.6608
   83SOPE  H17X 7716   0.542   4.737   4.880 -0.2095  1.0442 -0.6862
   83SOPE  H17Y 7717   0.669   4.810   4.785  2.5243 -1.9526 -1.3110
   83SOPE  C318 7718   0.749   4.683   4.938  0.1197  0.1713  0.4410
   83SOPE  H18X 7719   0.747   4.575   4.964 -1.7906  0.0615  0.0435
   83SOPE  H18Y 7720   0.742   4.749   5.027 -0.2261 -0.3166  0.7835
   83SOPE  H18Z 7721   0.849   4.712   4.900 -0.3943  1.5730  0.1011
   84SOPE     N 7722   1.040   1.756   2.951  0.2259  0.1037 -0.3598
   84SOPE   HN1 7723   0.986   1.837   2.913  0.0715 -0.0858 -0.5447
   84SOPE   HN2 7724   1.138   1.789   2.965  0.2885 -0.6210  0.9674
   84SOPE   HN3 7725   1.033   1.667   2.898 -0.9000 -1.2193  1.8720
   84SOPE   C12 7726   0.987   1.751   3.093 -0.2074 -0.4823 -0.7251
   84SOPE  H12A 7727   1.068   1.795   3.154 -1.0423  1.2357 -0.8073
   84SOPE  H12B 7728   0.962   1.646   3.122 -1.1274 -0.0993 -0.0877
   84SOPE   C11 7729   0.867   1.838   3.114  0.4022  0.5873 -0.4823
   84SOPE  H11A 7730   0.835   1.826   3.220 -0.0194 -0.4386 -0.7123
   84SOPE  H11B 7731   0.780   1.808   3.051 -0.1275  0.3193  0.3588
   84SOPE     P 7732   0.954   2.067   3.203 -0.0455 -0.0343 -0.3288
   84SOPE   O13 7733   0.919   2.203   3.159 -0.0703 -0.1068  0.3783
   84SOPE   O14 7734   1.101   2.043   3.228 -0.2808  0.1197  0.4322
   84SOPE   O12 7735   0.900   1.971   3.085 -0.2687 -0.1118 -0.0109
   84SOPE   O11 7736   0.870   2.026   3.331 -0.2479 -0.2538  0.7969
   84SOPE    C1 7737   0.726   2.036   3.345 -0.6754  0.8688 -0.6707
   84SOPE    HA 7738   0.669   1.961   3.287 -2.6719 -0.0117  2.2293
   84SOPE    HB 7739   0.683   2.122   3.289 -2.7816  1.0528  1.1172
   84SOPE    C2 7740   0.672   2.028   3.492 -0.5630  0.3671 -0.6227
   84SOPE    HS 7741   0.564   2.050   3.491 -0.4554  0.9148 -0.4884
   84SOPE   O21 7742   0.746   2.111   3.586 -0.1664 -0.8356  0.2578
   84SOPE   C21 7743   0.734   2.233   3.564 -0.1438  0.1085  0.7559
   84SOPE   O22 7744   0.679   2.286   3.469  0.5225  0.2309  0.2902
   84SOPE   C22 7745   0.803   2.307   3.673 -0.6504  0.6463  0.5386
   84SOPE   H2R 7746   0.824   2.408   3.632  1.6614 -0.6227 -1.6868
   84SOPE   H2S 7747   0.900   2.255   3.692 -0.4371  0.8710  0.0778
   84SOPE    C3 7748   0.688   1.881   3.540  0.2478  0.3087  0.3451
   84SOPE    HX 7749   0.793   1.859   3.509  0.6510  1.2373  1.0357
   84SOPE    HY 7750   0.624   1.815   3.477 -0.1456  1.1236 -0.1244
   84SOPE   O31 7751   0.679   1.861   3.683 -0.6011 -0.0356 -0.0178
   84SOPE   C31 7752   0.789   1.878   3.760  0.4569  0.6379  0.2240
   84SOPE   O32 7753   0.899   1.890   3.716  0.1200  0.7561 -0.0585
   84SOPE   C32 7754   0.759   1.861   3.908 -0.0594 -0.1448 -0.0954
   84SOPE   H2X 7755   0.704   1.766   3.928 -3.0680  0.7447 -3.1357
   84SOPE   H2Y 7756   0.704   1.950   3.945 -1.2359 -1.5370  1.6670
   84SOPE   C23 7757   0.710   2.327   3.798  0.5059 -0.0117 -0.0383
   84SOPE   H3R 7758   0.679   2.224   3.824  0.2385 -0.2009 -1.0641
   84SOPE   H3S 7759   0.614   2.380   3.780 -0.0205 -0.9204  0.0224
   84SOPE   C24 7760   0.789   2.392   3.911 -0.2599 -0.0995  0.5417
   84SOPE   H4R 7761   0.851   2.478   3.878  2.5916 -1.7746  1.2508
   84SOPE   H4S 7762   0.717   2.420   3.992 -1.1966 -2.0419  0.4379
   84SOPE   C25 7763   0.892   2.299   3.976 -0.6314  0.2272  0.3514
   84SOPE   H5R 7764   0.843   2.211   4.023  1.1642  0.3113  2.5626
   84SOPE   H5S 7765   0.968   2.267   3.901  0.3400  1.5782  0.7251
   84SOPE   C26 7766   0.973   2.371   4.090 -0.6632  0.4371  0.4332
   84SOPE   H6R 7767   1.057   2.306   4.123  0.2647  1.6951  0.6025
   84SOPE   H6S 7768   1.020   2.452   4.031  0.0845 -2.2924 -3.0474
   84SOPE   C27 7769   0.888   2.409   4.211 -0.5272  0.0389 -0.3786
   84SOPE   H7R 7770   0.803   2.468   4.172 -0.3591 -0.4015 -1.4523
   84SOPE   H7S 7771   0.848   2.313   4.250 -0.9638 -0.6557 -2.3921
   84SOPE   C28 7772   0.961   2.491   4.314 -0.0273  0.5826 -0.0562
   84SOPE   H8R 7773   1.020   2.573   4.269  0.2997 -0.4430 -1.5714
   84SOPE   H8S 7774   0.882   2.538   4.377  0.8394  3.1660 -0.7826
   84SOPE   C29 7775   1.052   2.411   4.402 -0.0341 -0.3827  0.0784
   84SOPE   H91 7776   1.133   2.354   4.355  0.3804 -0.0640  0.4067
   84SOPE  C210 7777   1.031   2.397   4.534 -0.0882  1.0690 -0.3723
   84SOPE  H101 7778   1.105   2.348   4.600 -0.0599  0.9848 -0.4665
   84SOPE  C211 7779   0.916   2.454   4.619  0.1709  0.0927  0.2483
   84SOPE  H11R 7780   0.891   2.388   4.704 -1.7843 -0.5594 -0.7791
   84SOPE  H11S 7781   0.824   2.449   4.557 -0.0000 -0.7810  0.5634
   84SOPE  C212 7782   0.940   2.598   4.670 -0.0610 -0.7206 -0.0517
   84SOPE  H12R 7783   0.838   2.623   4.706  0.2374  2.4081 -1.1211
   84SOPE  H12S 7784   0.974   2.663   4.586  0.7923  0.0611  0.8823
   84SOPE  C213 7785   1.058   2.609   4.776  0.1086  1.0849  0.1554
   84SOPE  H13R 7786   1.160   2.604   4.730 -0.7652 -1.1863 -1.7451
   84SOPE  H13S 7787   1.058   2.515   4.834 -1.5235 -1.0823 -3.0689
   84SOPE  C214 7788   1.048   2.734   4.863 -0.0908  0.0467  0.6878
   84SOPE  H14R 7789   0.946   2.722   4.903  0.0225 -1.3159  0.6281
   84SOPE  H14S 7790   1.047   2.822   4.796 -0.8919 -0.2625  0.2830
   84SOPE  C215 7791   1.158   2.739   4.974  0.2405  0.2576 -0.1525
   84SOPE  H15R 7792   1.254   2.718   4.923 -0.3311  1.0216 -1.6024
   84SOPE  H15S 7793   1.150   2.658   5.050 -4.3612  0.3226 -0.2508
   84SOPE  C216 7794   1.162   2.875   5.046  0.5788  0.4159  0.1537
   84SOPE  H16R 7795   1.077   2.872   5.117  0.5014 -2.8033  0.1080
   84SOPE  H16S 7796   1.154   2.970   4.989 -1.6741 -0.7133 -1.5965
   84SOPE  C217 7797   1.298   2.900   5.128  1.1204  0.3291 -0.2606
   84SOPE  H17R 7798   1.298   3.003   5.170  0.2630  0.2913 -0.1426
   84SOPE  H17S 7799   1.376   2.891   5.050  1.0634 -0.0968 -0.2681
   84SOPE  C218 7800   1.304   2.810   5.255  0.0889 -0.1010 -0.0605
   84SOPE  H18R 7801   1.203   2.818   5.302  0.5498 -0.1688  0.9727
   84SOPE  H18S 7802   1.386   2.849   5.319  0.2192  1.3083 -1.0418
   84SOPE  H18T 7803   1.310   2.706   5.215 -3.4810  0.6212 -2.9693
   84SOPE   C33 7804   0.896   1.865   3.990 -0.7951 -0.0736 -0.1334
   84SOPE   H3X 7805   0.966   1.945   3.958  0.7140 -1.6955 -1.0237
   84SOPE   H3Y 7806   0.943   1.767   3.971  1.9396  0.7508  1.8769
   84SOPE   C34 7807   0.866   1.879   4.143 -0.0817 -0.5952  0.2697
   84SOPE   H4X 7808   0.817   1.790   4.188 -0.0925 -1.8537 -2.1030
   84SOPE   H4Y 7809   0.799   1.964   4.170 -0.5086 -0.9055  0.1962
   84SOPE   C35 7810   0.995   1.910   4.231 -0.8200 -0.0593 -0.1860
   84SOPE   H5X 7811   1.042   2.008   4.206 -0.1575 -0.6401 -1.2585
   84SOPE   H5Y 7812   1.066   1.832   4.197  1.4840  1.4385  0.9005
   84SOPE   C36 7813   0.970   1.907   4.382  0.0776 -0.2980 -0.5868
   84SOPE   H6X 7814   0.925   1.811   4.417  0.4053  0.1312  1.0782
   84SOPE   H6Y 7815   0.906   1.992   4.413 -0.1677 -0.4774 -0.5967
   84SOPE   C37 7816   1.100   1.932   4.461 -0.3709  0.4842 -0.8972
   84SOPE   H7X 7817   1.149   2.019   4.413  1.6493  0.1049  0.3455
   84SOPE   H7Y 7818   1.173   1.848   4.467 -0.2737  0.6355  0.2950
   84SOPE   C38 7819   1.050   1.983   4.604 -0.6680 -0.2624 -0.4440
   84SOPE   H8X 7820   0.970   2.059   4.591 -1.4169 -1.1501 -1.2547
   84SOPE   H8Y 7821   1.139   2.032   4.649 -1.8548 -0.5923  2.4779
   84SOPE   C39 7822   0.995   1.883   4.696 -0.3947  0.3665 -0.4183
   84SOPE   H9X 7823   1.052   1.788   4.691  0.7579  1.0216 -0.1449
   84SOPE   H9Y 7824   0.891   1.855   4.669 -0.0712  0.4972 -1.9137
   84SOPE  C310 7825   0.997   1.931   4.840 -0.4814  0.3452 -0.4090
   84SOPE  H10X 7826   0.943   2.028   4.844  0.3423  0.8398 -1.0407
   84SOPE  H10Y 7827   1.096   1.969   4.873 -1.5147  1.6627  1.3363
   84SOPE  C311 7828   0.936   1.823   4.932 -0.5023  0.1629 -1.1895
   84SOPE  H11X 7829   1.004   1.736   4.942 -0.0350  0.3072 -2.9073
   84SOPE  H11Y 7830   0.843   1.791   4.881 -0.0096  1.0885 -2.7211
   84SOPE  C312 7831   0.907   1.879   5.070  0.9249 -0.1816 -0.0249
   84SOPE  H12X 7832   0.827   1.956   5.064  1.5891  0.4363 -2.6827
   84SOPE  H12Y 7833   1.000   1.918   5.118  1.5286  0.7314 -1.8200
   84SOPE  C313 7834   0.847   1.772   5.172 -0.0734  0.1762  0.2297
   84SOPE  H13X 7835   0.905   1.678   5.160  2.0330  1.1646  1.9168
   84SOPE  H13Y 7836   0.744   1.753   5.135 -0.6830 -2.3319  2.8946
   84SOPE  C314 7837   0.861   1.824   5.311 -0.2340  0.4368 -0.5560
   84SOPE  H14X 7838   0.814   1.923   5.331 -0.0853  0.4241 -0.1235
   84SOPE  H14Y 7839   0.967   1.829   5.345 -0.3484 -1.0148  0.0701
   84SOPE  C315 7840   0.810   1.717   5.403 -0.7425  0.1974  0.1242
   84SOPE  H15X 7841   0.724   1.663   5.358 -2.6601  0.8224  2.8337
   84SOPE  H15Y 7842   0.764   1.763   5.492  1.9172 -0.1666  1.7940
   84SOPE  C316 7843   0.914   1.615   5.456 -0.5804 -0.1032  0.0426
   84SOPE  H16X 7844   0.996   1.672   5.505  0.5466 -1.0009 -0.7494
   84SOPE  H16Y 7845   0.946   1.562   5.364 -0.1521  1.7195 -0.9075
   84SOPE  C317 7846   0.853   1.514   5.553 -0.1831 -0.1024 -0.2749
   84SOPE  H17X 7847   0.783   1.452   5.494 -0.0877 -2.2993  1.7703
   84SOPE  H17Y 7848   0.798   1.564   5.635  2.7710  1.2079  1.0671
   84SOPE  C318 7849   0.948   1.395   5.590  0.3632 -0.0947  0.4038
   84SOPE  H18X 7850   1.043   1.433   5.634 -0.5168 -0.0318  2.3472
   84SOPE  H18Y 7851   0.978   1.334   5.502 -0.2846 -0.8278  0.6738
   84SOPE  H18Z 7852   0.899   1.324   5.660  1.7371 -1.8280 -0.3117
   85SOPE     N 7853   4.371   1.602   3.030  0.1826  0.2165  0.2025
   85SOPE   HN1 7854   4.429   1.524   3.068 -1.5415 -0.5836  1.2941
   85SOPE   HN2 7855   4.325   1.577   2.940  1.9760  2.2755 -1.4185
   85SOPE   HN3 7856   4.432   1.686   3.023 -1.5005  1.5250  0.6384
   85SOPE   C12 7857   4.287   1.618   3.151  0.5699 -0.0014 -0.5297
   85SOPE  H12A 7858   4.230   1.713   3.143 -0.8121 -0.8365 -0.9500
   85SOPE  H12B 7859   4.366   1.616   3.229  0.1963  1.9197 -0.0598
   85SOPE   C11 7860   4.190   1.504   3.178  0.5193 -0.2926  0.2591
   85SOPE  H11A 7861   4.152   1.508   3.282  1.1997  2.3014  0.4914
   85SOPE  H11B 7862   4.241   1.409   3.153  0.7178  0.5229 -2.8461
   85SOPE     P 7863   4.010   1.400   3.015  0.5250  0.2899  0.3410
   85SOPE   O13 7864   4.097   1.353   2.909  0.1041 -0.0297 -0.1248
   85SOPE   O14 7865   3.872   1.439   2.988  0.3744  0.6276 -0.2881
   85SOPE   O12 7866   4.080   1.525   3.087 -0.2437  0.2051 -0.2143
   85SOPE   O11 7867   4.019   1.286   3.126  0.5367 -0.3758  0.5358
   85SOPE    C1 7868   3.916   1.279   3.230 -0.7109 -0.0590  0.5273
   85SOPE    HA 7869   3.824   1.234   3.186  0.4089 -1.1609 -0.7880
   85SOPE    HB 7870   3.898   1.382   3.266 -0.6901  0.3911 -0.6953
   85SOPE    C2 7871   3.962   1.179   3.344 -0.4180 -0.6730  0.3025
   85SOPE    HS 7872   3.979   1.080   3.295 -0.7832 -0.9855  0.7947
   85SOPE   O21 7873   3.851   1.185   3.434  0.3415  0.0502 -0.6870
   85SOPE   C21 7874   3.848   1.070   3.510 -0.6190  0.6187 -0.0170
   85SOPE   O22 7875   3.929   0.979   3.506 -0.4313  0.0907  0.8589
   85SOPE   C22 7876   3.714   1.065   3.584 -0.4802 -0.3073  0.6245
   85SOPE   H2R 7877   3.635   1.076   3.507 -0.3745  0.9074  0.6702
   85SOPE   H2S 7878   3.722   1.148   3.658 -1.7802 -1.3731  2.0244
   85SOPE    C3 7879   4.096   1.235   3.399  0.4406  0.0346  0.3653
   85SOPE    HX 7880   4.081   1.344   3.414 -2.9756 -0.3264  0.2522
   85SOPE    HY 7881   4.179   1.225   3.326  0.0698  0.5908 -0.1409
   85SOPE   O31 7882   4.121   1.187   3.528  0.2442 -0.3150 -0.1555
   85SOPE   C31 7883   4.208   1.093   3.548 -0.0867  0.1138 -0.2337
   85SOPE   O32 7884   4.266   1.040   3.453 -0.1724 -0.2636 -0.0418
   85SOPE   C32 7885   4.208   1.059   3.695 -0.1658 -0.0657 -1.0108
   85SOPE   H2X 7886   4.314   1.037   3.719 -0.4004 -1.2766 -1.0412
   85SOPE   H2Y 7887   4.150   0.965   3.709 -3.6246  1.7331 -2.1522
   85SOPE   C23 7888   3.699   0.931   3.664  0.7396 -0.2934  0.4031
   85SOPE   H3R 7889   3.723   0.840   3.604 -2.9591 -1.2813  0.1881
   85SOPE   H3S 7890   3.597   0.930   3.707  0.8070  0.2684  0.5763
   85SOPE   C24 7891   3.794   0.943   3.781  0.4016  0.1316 -0.0584
   85SOPE   H4R 7892   3.901   0.939   3.751  1.4693  1.6224  3.1142
   85SOPE   H4S 7893   3.780   1.038   3.837  0.4418 -0.0293  0.2306
   85SOPE   C25 7894   3.778   0.826   3.882 -0.4181  0.1120  0.5461
   85SOPE   H5R 7895   3.673   0.803   3.911  0.3673 -2.3288  1.6968
   85SOPE   H5S 7896   3.821   0.734   3.839  1.2513  0.9667  0.3212
   85SOPE   C26 7897   3.863   0.848   4.006  0.3291 -1.1308  0.4242
   85SOPE   H6R 7898   3.861   0.758   4.071 -1.8107  0.1123  2.2145
   85SOPE   H6S 7899   3.969   0.879   3.994 -0.1797  1.6954  2.0930
   85SOPE   C27 7900   3.817   0.959   4.110 -0.0021  0.1174  0.5000
   85SOPE   H7R 7901   3.834   1.053   4.053 -0.7776 -0.5564 -0.8937
   85SOPE   H7S 7902   3.711   0.937   4.136 -0.4137  0.7883 -0.5150
   85SOPE   C28 7903   3.905   0.968   4.232 -0.4320  0.2938  0.0419
   85SOPE   H8R 7904   4.012   0.970   4.203 -0.7196  0.5483 -1.0266
   85SOPE   H8S 7905   3.877   1.067   4.274 -1.9470  0.7301 -1.8554
   85SOPE   C29 7906   3.885   0.864   4.341  0.5682  0.0374 -1.2231
   85SOPE   H91 7907   3.796   0.805   4.314 -1.0753  2.0803 -0.5561
   85SOPE  C210 7908   3.971   0.833   4.444  0.2918  0.9508  0.7953
   85SOPE  H101 7909   3.953   0.737   4.494 -0.5225 -1.7110 -3.9649
   85SOPE  C211 7910   4.111   0.892   4.469 -0.4990 -0.3738  0.4409
   85SOPE  H11R 7911   4.107   0.983   4.406  0.3090 -0.8773 -0.3551
   85SOPE  H11S 7912   4.192   0.823   4.439  0.0077 -0.0932  1.1510
   85SOPE  C212 7913   4.143   0.931   4.613 -0.1223 -0.3240  0.5273
   85SOPE  H12R 7914   4.048   0.968   4.657  0.3213 -1.7224  2.8709
   85SOPE  H12S 7915   4.218   1.011   4.598  0.2078 -0.6811  0.2514
   85SOPE  C213 7916   4.206   0.820   4.696 -0.9623  0.6100  0.0472
   85SOPE  H13R 7917   4.298   0.780   4.650  0.6964  4.8285 -0.8103
   85SOPE  H13S 7918   4.141   0.731   4.702  1.0971 -0.9703 -0.0077
   85SOPE  C214 7919   4.259   0.870   4.829 -0.2441  0.5799 -0.6272
   85SOPE  H14R 7920   4.166   0.897   4.883  0.6264 -0.6567  1.6257
   85SOPE  H14S 7921   4.329   0.956   4.825 -0.8543  1.3688  2.8809
   85SOPE  C215 7922   4.336   0.769   4.908  0.5546 -0.3937  0.5162
   85SOPE  H15R 7923   4.285   0.671   4.921 -0.8617  0.3856  1.0208
   85SOPE  H15S 7924   4.346   0.809   5.011  1.1731  0.8188 -0.0037
   85SOPE  C216 7925   4.474   0.736   4.845  0.4986  1.1953 -0.3161
   85SOPE  H16R 7926   4.540   0.820   4.814  3.0029 -0.5426  0.0414
   85SOPE  H16S 7927   4.470   0.680   4.749  0.5872  1.7738 -0.6639
   85SOPE  C217 7928   4.566   0.649   4.941 -0.3045  0.8808  0.1180
   85SOPE  H17R 7929   4.525   0.547   4.959  0.5640  0.6300  0.7447
   85SOPE  H17S 7930   4.564   0.706   5.037  0.7690  0.7333  0.2445
   85SOPE  C218 7931   4.711   0.649   4.900  0.0286  0.3422  0.1351
   85SOPE  H18R 7932   4.761   0.581   4.972 -1.3495 -0.7531  0.1036
   85SOPE  H18S 7933   4.756   0.750   4.891  0.0469  0.1515 -2.7337
   85SOPE  H18T 7934   4.723   0.606   4.798 -2.8124  0.6022 -0.4031
   85SOPE   C33 7935   4.154   1.172   3.796  0.0703  0.6690  0.0374
   85SOPE   H3X 7936   4.047   1.195   3.774  0.2327  2.1189  0.6589
   85SOPE   H3Y 7937   4.216   1.262   3.777  0.0365  0.5589 -0.6106
   85SOPE   C34 7938   4.170   1.138   3.940  0.4446  0.2144  0.0182
   85SOPE   H4X 7939   4.270   1.099   3.966 -0.3272 -2.5053 -0.7176
   85SOPE   H4Y 7940   4.107   1.053   3.973  1.1044  0.2107  1.2842
   85SOPE   C35 7941   4.128   1.261   4.026  0.5502  0.1101  0.0175
   85SOPE   H5X 7942   4.026   1.299   4.005  1.0707  2.3618  1.1944
   85SOPE   H5Y 7943   4.191   1.352   4.011 -1.0425  1.6259  1.9374
   85SOPE   C36 7944   4.144   1.235   4.182  0.4904  0.0471 -0.8585
   85SOPE   H6X 7945   4.249   1.268   4.199 -0.5153  3.0044  0.3443
   85SOPE   H6Y 7946   4.130   1.127   4.204 -2.9308  0.5665  0.1393
   85SOPE   C37 7947   4.059   1.318   4.271  1.2290  0.1440  0.1426
   85SOPE   H7X 7948   3.949   1.302   4.268  1.2789 -0.2565  0.3180
   85SOPE   H7Y 7949   4.077   1.424   4.243  3.7686 -0.3329 -0.1966
   85SOPE   C38 7950   4.088   1.319   4.419  0.2059  0.6811  0.4292
   85SOPE   H8X 7951   4.199   1.326   4.428  0.6070 -1.0506 -2.2285
   85SOPE   H8Y 7952   4.071   1.217   4.459 -0.8421 -0.3540 -2.4616
   85SOPE   C39 7953   4.027   1.433   4.498 -0.1795 -0.3194  0.5859
   85SOPE   H9X 7954   3.918   1.410   4.506 -0.1894 -0.0533  1.3637
   85SOPE   H9Y 7955   4.023   1.530   4.444 -0.4276 -0.8444 -0.3687
   85SOPE  C310 7956   4.109   1.484   4.623  0.0771  0.0673  0.4626
   85SOPE  H10X 7957   4.102   1.589   4.657 -1.1555 -0.4873  2.0405
   85SOPE  H10Y 7958   4.213   1.462   4.591 -0.1170 -0.0320 -0.1275
   85SOPE  C311 7959   4.087   1.392   4.745 -0.2523  0.1638  0.4638
   85SOPE  H11X 7960   4.092   1.287   4.709 -1.4795 -0.4441  1.9628
   85SOPE  H11Y 7961   3.985   1.402   4.787  0.3313  2.6456  1.4878
   85SOPE  C312 7962   4.201   1.411   4.844  0.1080 -0.4852 -0.0786
   85SOPE  H12X 7963   4.177   1.508   4.893 -0.3888 -0.0564 -1.1491
   85SOPE  H12Y 7964   4.301   1.421   4.796  0.3327  0.3715  0.5375
   85SOPE  C313 7965   4.206   1.285   4.942 -0.0253 -0.1292  0.7666
   85SOPE  H13X 7966   4.221   1.191   4.884 -1.8356 -0.8450  1.3870
   85SOPE  H13Y 7967   4.108   1.279   4.995  0.4115 -1.7978  1.4409
   85SOPE  C314 7968   4.308   1.311   5.059 -0.0151  0.0649  0.1891
   85SOPE  H14X 7969   4.279   1.411   5.098 -0.5909  0.3017 -0.8205
   85SOPE  H14Y 7970   4.413   1.332   5.029  0.0657  0.4757  0.7601
   85SOPE  C315 7971   4.304   1.191   5.152 -0.3024  0.1587  0.2064
   85SOPE  H15X 7972   4.355   1.103   5.107  2.0245  1.6433 -0.2478
   85SOPE  H15Y 7973   4.201   1.167   5.183 -0.3875 -0.8527 -0.7803
   85SOPE  C316 7974   4.395   1.222   5.272 -0.2012  0.5332 -0.6167
   85SOPE  H16X 7975   4.495   1.210   5.226 -0.6470  0.7828 -1.6722
   85SOPE  H16Y 7976   4.396   1.131   5.337  3.2447  0.2937 -0.8585
   85SOPE  C317 7977   4.376   1.354   5.349  0.1501 -0.0684 -0.7384
   85SOPE  H17X 7978   4.294   1.334   5.421 -0.1756 -2.2565 -1.6373
   85SOPE  H17Y 7979   4.349   1.443   5.287  0.9257  1.4004  0.9594
   85SOPE  C318 7980   4.495   1.385   5.433 -0.0582 -0.1549 -0.3431
   85SOPE  H18X 7981   4.587   1.382   5.370  2.0522 -2.0549  2.5618
   85SOPE  H18Y 7982   4.510   1.309   5.512  0.5425  0.2574 -0.0507
   85SOPE  H18Z 7983   4.489   1.486   5.480  3.2949  0.5068 -1.0302
   86SOPE     N 7984   4.450   5.106   2.333  0.2110  0.7418  0.2317
   86SOPE   HN1 7985   4.513   5.185   2.358 -0.3050  0.8689  1.1850
   86SOPE   HN2 7986   4.473   5.079   2.236 -0.2828  2.8428 -0.5174
   86SOPE   HN3 7987   4.350   5.127   2.349  0.0931  1.2817 -1.0831
   86SOPE   C12 7988   4.473   4.980   2.415 -0.1898 -0.3884 -0.0632
   86SOPE  H12A 7989   4.536   5.009   2.502  0.0181 -2.7376  0.6499
   86SOPE  H12B 7990   4.527   4.915   2.343 -0.1396  0.0125 -0.3933
   86SOPE   C11 7991   4.342   4.909   2.454  0.0187 -0.5060 -0.2351
   86SOPE  H11A 7992   4.363   4.818   2.514  0.0505 -0.7842 -0.6639
   86SOPE  H11B 7993   4.305   4.862   2.360  1.5244 -0.4906 -0.8758
   86SOPE     P 7994   4.252   5.031   2.664  0.2038  0.4931  0.0875
   86SOPE   O13 7995   4.135   5.099   2.714  0.1855 -0.6135 -0.4247
   86SOPE   O14 7996   4.381   5.099   2.690  0.0393  0.2213  0.4389
   86SOPE   O12 7997   4.241   4.991   2.513 -0.1612 -0.2389  0.1930
   86SOPE   O11 7998   4.258   4.885   2.725  0.2053 -0.3958 -0.3450
   86SOPE    C1 7999   4.135   4.809   2.753 -0.0378  0.1205  0.1389
   86SOPE    HA 8000   4.161   4.701   2.743  2.6402  0.6373  0.5480
   86SOPE    HB 8001   4.047   4.831   2.690  0.1714 -1.8720 -0.9459
   86SOPE    C2 8002   4.095   4.823   2.897  0.1058  0.3807 -1.1739
   86SOPE    HS 8003   4.026   4.910   2.901 -1.0901 -0.5171 -1.7848
   86SOPE   O21 8004   4.214   4.827   2.979  0.2104  0.0395  0.5143
   86SOPE   C21 8005   4.201   4.898   3.091 -0.5979  0.2035 -0.2405
   86SOPE   O22 8006   4.107   4.965   3.129 -0.4082  0.3280 -0.0328
   86SOPE   C22 8007   4.327   4.880   3.173 -0.2559  0.6319  0.3354
   86SOPE   H2R 8008   4.391   4.964   3.138  0.3265 -0.0267 -0.2020
   86SOPE   H2S 8009   4.391   4.793   3.148 -0.5896  0.2410  0.8185
   86SOPE    C3 8010   3.999   4.716   2.961  0.4402  0.9838 -0.1480
   86SOPE    HX 8011   4.073   4.633   2.966  0.7523  1.1511 -1.4908
   86SOPE    HY 8012   3.920   4.697   2.886  1.0459  0.8825 -0.7732
   86SOPE   O31 8013   3.932   4.760   3.077 -0.2053  0.3514 -0.3047
   86SOPE   C31 8014   3.880   4.650   3.145 -0.8026 -0.3197  0.2734
   86SOPE   O32 8015   3.861   4.540   3.094  0.2747 -0.0164  0.0817
   86SOPE   C32 8016   3.854   4.691   3.291 -0.2601  0.2372  0.4962
   86SOPE   H2X 8017   3.823   4.798   3.288 -0.8033  0.0948  1.0161
   86SOPE   H2Y 8018   3.949   4.672   3.345 -0.3917 -1.5873  0.1641
   86SOPE   C23 8019   4.309   4.889   3.328 -1.1013  0.3590 -0.0557
   86SOPE   H3R 8020   4.256   4.983   3.353 -0.5731  0.6121  0.1063
   86SOPE   H3S 8021   4.411   4.894   3.372 -0.4293 -1.3246 -1.3265
   86SOPE   C24 8022   4.234   4.765   3.382  0.5636  0.3153  0.5376
   86SOPE   H4R 8023   4.138   4.750   3.328  0.2860  1.0286  0.8237
   86SOPE   H4S 8024   4.299   4.677   3.362  0.4367  0.6372 -1.4677
   86SOPE   C25 8025   4.214   4.756   3.529  0.8158  0.5162 -0.1836
   86SOPE   H5R 8026   4.131   4.821   3.563  1.4670  1.5602 -0.5562
   86SOPE   H5S 8027   4.203   4.652   3.566  0.6801  0.4681 -0.3572
   86SOPE   C26 8028   4.334   4.799   3.617 -0.3751  0.9440  0.8283
   86SOPE   H6R 8029   4.428   4.744   3.597 -1.2952 -0.9718  1.5650
   86SOPE   H6S 8030   4.355   4.908   3.605  1.1664  0.4594 -1.5986
   86SOPE   C27 8031   4.291   4.782   3.770  0.5033 -0.3293  0.1661
   86SOPE   H7R 8032   4.345   4.861   3.826 -0.4551  0.6167 -0.2204
   86SOPE   H7S 8033   4.182   4.797   3.781  0.3406 -0.8717 -0.6313
   86SOPE   C28 8034   4.316   4.643   3.838  0.5065 -1.3633 -0.5315
   86SOPE   H8R 8035   4.255   4.637   3.930  0.9549 -0.2467 -0.1402
   86SOPE   H8S 8036   4.266   4.563   3.779 -1.9300  2.0176 -3.5070
   86SOPE   C29 8037   4.462   4.624   3.868  1.0002 -0.2816 -0.1219
   86SOPE   H91 8038   4.526   4.601   3.782  1.5621 -1.4328  0.5831
   86SOPE  C210 8039   4.523   4.615   3.989  0.4445  0.1444 -0.8588
   86SOPE  H101 8040   4.633   4.615   3.991  0.4532  0.5961 -1.1793
   86SOPE  C211 8041   4.459   4.648   4.126  0.1846  0.1239 -0.0566
   86SOPE  H11R 8042   4.351   4.674   4.122  0.5310  1.5739 -0.5067
   86SOPE  H11S 8043   4.505   4.739   4.170 -2.6124  0.8640  1.5308
   86SOPE  C212 8044   4.491   4.529   4.220 -0.2032  0.0049 -0.1125
   86SOPE  H12R 8045   4.598   4.502   4.213  0.0667  1.2070 -0.9789
   86SOPE  H12S 8046   4.435   4.439   4.186  0.5574 -1.0052  1.2026
   86SOPE  C213 8047   4.461   4.556   4.367 -0.1680 -0.5837 -0.0793
   86SOPE  H13R 8048   4.352   4.549   4.388  0.0225 -1.2059  0.7604
   86SOPE  H13S 8049   4.492   4.660   4.391  1.2667 -0.7355 -1.0980
   86SOPE  C214 8050   4.540   4.449   4.450 -0.6685 -0.8651 -0.0013
   86SOPE  H14R 8051   4.644   4.487   4.458 -1.6355  1.9510  0.6478
   86SOPE  H14S 8052   4.541   4.355   4.391  2.9621  0.1865 -1.8765
   86SOPE  C215 8053   4.487   4.415   4.588  0.4803  0.0706  0.3205
   86SOPE  H15R 8054   4.382   4.380   4.585  0.3254  0.5612 -0.0839
   86SOPE  H15S 8055   4.487   4.507   4.649 -3.1224 -0.0612  0.7477
   86SOPE  C216 8056   4.565   4.299   4.655  0.7309  0.1717  0.6208
   86SOPE  H16R 8057   4.673   4.312   4.632  0.0646  1.3964 -2.1819
   86SOPE  H16S 8058   4.533   4.207   4.601  0.2972  1.6934 -1.8841
   86SOPE  C217 8059   4.539   4.282   4.806  0.1655  1.0145 -0.8403
   86SOPE  H17R 8060   4.430   4.267   4.820  0.2568  1.9802  1.3364
   86SOPE  H17S 8061   4.571   4.371   4.865  1.5040  0.0984 -0.1120
   86SOPE  C218 8062   4.618   4.167   4.871 -0.4400 -0.1975  0.0542
   86SOPE  H18R 8063   4.728   4.182   4.864 -0.4051 -0.2466  0.4562
   86SOPE  H18S 8064   4.591   4.071   4.824  1.1137 -1.9256  2.4278
   86SOPE  H18T 8065   4.590   4.146   4.977 -2.6049 -1.6585 -0.7559
   86SOPE   C33 8066   3.743   4.590   3.355 -0.0638 -1.0421  0.2027
   86SOPE   H3X 8067   3.785   4.489   3.339  1.2948 -1.0788  3.2908
   86SOPE   H3Y 8068   3.644   4.594   3.305  0.6176 -2.2142 -1.3033
   86SOPE   C34 8069   3.720   4.618   3.508  0.2721  0.9887 -0.3826
   86SOPE   H4X 8070   3.654   4.536   3.543  1.4445 -1.2218 -3.0531
   86SOPE   H4Y 8071   3.668   4.716   3.511  0.1562  0.9112  0.3665
   86SOPE   C35 8072   3.844   4.630   3.601 -0.0866  0.1564 -0.2639
   86SOPE   H5X 8073   3.916   4.709   3.569 -2.0106  2.7469  1.3786
   86SOPE   H5Y 8074   3.901   4.535   3.607  1.1726  0.9385  0.5094
   86SOPE   C36 8075   3.812   4.675   3.742  0.5935 -0.1156 -0.1672
   86SOPE   H6X 8076   3.746   4.764   3.742  0.8363  0.1003  1.7605
   86SOPE   H6Y 8077   3.897   4.708   3.806  1.0810 -1.8400  0.1424
   86SOPE   C37 8078   3.751   4.558   3.824  0.2563  0.0183 -0.9024
   86SOPE   H7X 8079   3.832   4.482   3.829 -0.6990 -0.9688  1.3821
   86SOPE   H7Y 8080   3.661   4.512   3.777  0.5524  0.0537 -1.5035
   86SOPE   C38 8081   3.726   4.590   3.975  0.2847  0.4208  0.0763
   86SOPE   H8X 8082   3.666   4.683   3.985 -0.1721  0.3045 -1.3241
   86SOPE   H8Y 8083   3.827   4.599   4.021  0.0054 -0.1836  0.8143
   86SOPE   C39 8084   3.668   4.465   4.037  0.3862 -0.8700  0.1425
   86SOPE   H9X 8085   3.733   4.376   4.024  1.9346  0.1770  0.4026
   86SOPE   H9Y 8086   3.568   4.445   3.992  0.6106 -0.2680 -0.6634
   86SOPE  C310 8087   3.666   4.472   4.196 -0.3541  0.3865  1.0610
   86SOPE  H10X 8088   3.773   4.477   4.224 -0.2686  0.0075  0.8046
   86SOPE  H10Y 8089   3.622   4.373   4.222  0.1743 -0.4794 -1.1627
   86SOPE  C311 8090   3.568   4.585   4.245 -0.3071  0.0461 -1.0014
   86SOPE  H11X 8091   3.466   4.565   4.206 -0.3911 -1.1972 -0.2006
   86SOPE  H11Y 8092   3.594   4.683   4.198  0.8934  0.3838  0.3049
   86SOPE  C312 8093   3.560   4.598   4.399  0.1372 -0.5350 -0.3197
   86SOPE  H12X 8094   3.506   4.692   4.423 -1.1911 -0.7428 -2.3303
   86SOPE  H12Y 8095   3.665   4.611   4.436  0.1288 -2.0854  0.3556
   86SOPE  C313 8096   3.503   4.472   4.471  0.0434 -0.8170 -0.3711
   86SOPE  H13X 8097   3.558   4.383   4.433 -2.8783 -2.7556 -0.4262
   86SOPE  H13Y 8098   3.398   4.455   4.438 -0.6185 -1.2446  1.7757
   86SOPE  C314 8099   3.508   4.482   4.625 -0.1014 -0.4204  0.6234
   86SOPE  H14X 8100   3.493   4.588   4.655  3.1487  0.2560  0.2757
   86SOPE  H14Y 8101   3.615   4.462   4.647  0.0545 -1.1555 -0.7227
   86SOPE  C315 8102   3.399   4.402   4.689  0.2655  0.3824 -0.3566
   86SOPE  H15X 8103   3.427   4.295   4.675  0.3549  0.4866 -0.9852
   86SOPE  H15Y 8104   3.299   4.414   4.643 -1.7868 -0.1905  3.4835
   86SOPE  C316 8105   3.375   4.440   4.837 -0.7036 -0.2099  0.0417
   86SOPE  H16X 8106   3.278   4.400   4.875 -1.0347 -0.3050 -0.8859
   86SOPE  H16Y 8107   3.364   4.550   4.831  2.2791  0.0937 -1.7364
   86SOPE  C317 8108   3.481   4.422   4.946  0.0463  0.2362  0.1561
   86SOPE  H17X 8109   3.571   4.482   4.921  1.2950 -1.7827 -0.4533
   86SOPE  H17Y 8110   3.515   4.316   4.943 -1.2896 -0.2189  0.3677
   86SOPE  C318 8111   3.429   4.452   5.089 -0.3697  0.3765  0.3879
   86SOPE  H18X 8112   3.504   4.442   5.170  0.7484 -2.1492 -0.8270
   86SOPE  H18Y 8113   3.345   4.380   5.106  0.2974 -1.0922 -1.9879
   86SOPE  H18Z 8114   3.387   4.554   5.083 -2.1144 -0.3748 -1.4493
   87SOPE     N 8115   6.759   4.797   3.005  0.3242  0.3378  0.1258
   87SOPE   HN1 8116   6.801   4.708   2.970 -0.2574  0.4249 -0.8114
   87SOPE   HN2 8117   6.728   4.769   3.100  1.9425 -1.0045  0.3090
   87SOPE   HN3 8118   6.679   4.809   2.940 -0.2835 -0.5611  0.6851
   87SOPE   C12 8119   6.859   4.917   3.002 -0.1086  0.2905  1.0414
   87SOPE  H12A 8120   6.961   4.879   3.021 -0.0054 -1.5132 -2.3677
   87SOPE  H12B 8121   6.830   4.988   3.082 -1.5962 -0.2015  0.9742
   87SOPE   C11 8122   6.863   4.990   2.869  0.0403 -0.0333  0.1671
   87SOPE  H11A 8123   6.908   4.910   2.806  0.1459 -0.1073  0.3375
   87SOPE  H11B 8124   6.935   5.074   2.868  0.9000 -0.6977  2.1439
   87SOPE     P 8125   6.653   5.143   2.848  0.0827  0.4525  0.1608
   87SOPE   O13 8126   6.514   5.119   2.812 -0.0082 -0.0207  0.4940
   87SOPE   O14 8127   6.714   5.263   2.787 -0.0827  0.0770 -0.0735
   87SOPE   O12 8128   6.736   5.014   2.811  0.5908  0.5406  0.2213
   87SOPE   O11 8129   6.667   5.139   3.004 -0.1332  0.2851 -0.1330
   87SOPE    C1 8130   6.671   5.247   3.091  0.2931  0.1580 -0.7200
   87SOPE    HA 8131   6.584   5.315   3.076 -0.4415 -0.6569 -0.2541
   87SOPE    HB 8132   6.760   5.308   3.066 -0.7045  1.7776 -0.4560
   87SOPE    C2 8133   6.671   5.207   3.247  0.0077 -0.0829 -0.3352
   87SOPE    HS 8134   6.622   5.285   3.309  1.2931  0.2153  0.3428
   87SOPE   O21 8135   6.807   5.189   3.304 -0.0284 -0.3209  0.2456
   87SOPE   C21 8136   6.868   5.302   3.322 -0.5550 -0.2133  0.2551
   87SOPE   O22 8137   6.835   5.413   3.284 -0.0092  0.2201  0.4342
   87SOPE   C22 8138   6.992   5.267   3.403  0.8935  0.5146  0.5593
   87SOPE   H2R 8139   7.049   5.192   3.345 -1.1669  0.6677 -1.8489
   87SOPE   H2S 8140   6.953   5.223   3.497  0.3194 -2.8748 -1.1060
   87SOPE    C3 8141   6.585   5.084   3.267  0.7753  0.1121 -0.4015
   87SOPE    HX 8142   6.642   4.993   3.239 -1.8732 -2.0209  0.6531
   87SOPE    HY 8143   6.500   5.100   3.198 -0.1424  2.3148  1.1297
   87SOPE   O31 8144   6.532   5.086   3.404 -0.2699  0.3636 -0.9513
   87SOPE   C31 8145   6.460   4.983   3.432  0.3856  0.4259 -0.4680
   87SOPE   O32 8146   6.444   4.886   3.360 -0.2075  0.6354 -0.5039
   87SOPE   C32 8147   6.403   4.997   3.572  1.1530  0.6813 -0.7474
   87SOPE   H2X 8148   6.480   5.058   3.625  2.7331  0.0049 -2.1659
   87SOPE   H2Y 8149   6.401   4.897   3.620  1.1073  1.6235  1.3303
   87SOPE   C23 8150   7.079   5.386   3.437 -0.0302  0.1786  0.2100
   87SOPE   H3R 8151   7.015   5.468   3.475  2.8460  2.6172  0.1205
   87SOPE   H3S 8152   7.112   5.426   3.339  1.3996  1.7681  1.2759
   87SOPE   C24 8153   7.202   5.356   3.524  0.0358  0.1695 -0.6304
   87SOPE   H4R 8154   7.238   5.256   3.492 -0.6762 -0.6406  1.0027
   87SOPE   H4S 8155   7.272   5.443   3.517 -0.6318  0.7517 -0.1710
   87SOPE   C25 8156   7.162   5.340   3.675 -0.3453  0.0745 -0.1910
   87SOPE   H5R 8157   7.124   5.432   3.725  3.5534  1.6799  0.1828
   87SOPE   H5S 8158   7.096   5.253   3.698 -0.4157 -0.3585 -1.9231
   87SOPE   C26 8159   7.290   5.308   3.757  0.5971  0.2337 -0.4713
   87SOPE   H6R 8160   7.329   5.211   3.718  0.4360  0.2871 -0.7632
   87SOPE   H6S 8161   7.365   5.390   3.757  0.6507  0.2815  2.0339
   87SOPE   C27 8162   7.246   5.277   3.907  0.1316 -0.6107  0.3769
   87SOPE   H7R 8163   7.212   5.365   3.965  2.3106  1.6537 -1.5429
   87SOPE   H7S 8164   7.167   5.200   3.891 -0.8625  0.4050  0.2357
   87SOPE   C28 8165   7.373   5.228   3.979  0.4677  0.0065  0.4964
   87SOPE   H8R 8166   7.354   5.168   4.070 -1.6026  0.0826  0.1658
   87SOPE   H8S 8167   7.429   5.165   3.907  0.1032  2.3046 -1.9594
   87SOPE   C29 8168   7.475   5.342   4.007 -0.1362  0.3532  0.4372
   87SOPE   H91 8169   7.542   5.372   3.925  1.2779 -0.3039  1.3112
   87SOPE  C210 8170   7.489   5.409   4.119 -0.4150  0.3974 -0.2999
   87SOPE  H101 8171   7.580   5.470   4.121  0.2430 -0.5553  0.5731
   87SOPE  C211 8172   7.412   5.401   4.248 -0.3126 -0.6668 -0.1637
   87SOPE  H11R 8173   7.338   5.318   4.257 -1.2952  0.2640  0.6315
   87SOPE  H11S 8174   7.352   5.494   4.255 -0.5039 -0.8627  0.8975
   87SOPE  C212 8175   7.510   5.410   4.368  0.2106 -0.2400  0.4774
   87SOPE  H12R 8176   7.454   5.428   4.462 -2.6419  0.3866 -1.2221
   87SOPE  H12S 8177   7.585   5.491   4.352  0.5136 -0.6971 -0.4899
   87SOPE  C213 8178   7.591   5.280   4.388 -0.5308 -0.3258 -0.5217
   87SOPE  H13R 8179   7.657   5.278   4.299 -2.8530 -0.7298 -2.3373
   87SOPE  H13S 8180   7.531   5.187   4.387 -0.9148 -0.0746 -1.0052
   87SOPE  C214 8181   7.667   5.283   4.514 -0.2418 -1.1537 -0.3918
   87SOPE  H14R 8182   7.704   5.385   4.538  0.1164 -0.7992 -2.3191
   87SOPE  H14S 8183   7.753   5.213   4.516  1.4112  0.7882  0.0276
   87SOPE  C215 8184   7.573   5.262   4.637  0.3127  0.6547  0.3541
   87SOPE  H15R 8185   7.516   5.170   4.611 -0.2824  1.5807 -1.8754
   87SOPE  H15S 8186   7.507   5.351   4.652  0.7262  1.0538 -0.1525
   87SOPE  C216 8187   7.654   5.248   4.771 -0.3650  0.4764  0.0054
   87SOPE  H16R 8188   7.743   5.314   4.773 -1.8158  2.6079 -1.2162
   87SOPE  H16S 8189   7.678   5.139   4.768  0.3309  0.6412 -0.4319
   87SOPE  C217 8190   7.567   5.281   4.898  0.4328 -0.8822 -0.0662
   87SOPE  H17R 8191   7.479   5.213   4.904 -0.1815 -0.0661  0.3906
   87SOPE  H17S 8192   7.526   5.382   4.877  1.0464 -0.1097  2.2468
   87SOPE  C218 8193   7.632   5.291   5.036 -0.0738 -0.2169  0.0086
   87SOPE  H18R 8194   7.551   5.317   5.108 -0.4447  0.6175 -0.7003
   87SOPE  H18S 8195   7.709   5.371   5.040  0.9170 -1.0829 -1.0151
   87SOPE  H18T 8196   7.664   5.188   5.062 -3.7292 -1.0268  1.9612
   87SOPE   C33 8197   6.258   5.052   3.585 -0.4788  0.4077  0.0748
   87SOPE   H3X 8198   6.176   5.002   3.530 -2.3611  2.8166  0.5036
   87SOPE   H3Y 8199   6.254   5.159   3.555 -1.6389  0.9855  2.1339
   87SOPE   C34 8200   6.211   5.029   3.732  0.4848 -0.0749 -0.0609
   87SOPE   H4X 8201   6.191   4.921   3.747 -1.9253  0.1749 -1.0039
   87SOPE   H4Y 8202   6.111   5.076   3.739  0.0229 -0.8738 -1.0594
   87SOPE   C35 8203   6.299   5.097   3.839 -0.1278  0.0854 -0.6470
   87SOPE   H5X 8204   6.310   5.205   3.819  1.6622  0.2604  1.0036
   87SOPE   H5Y 8205   6.400   5.053   3.854  0.0364  1.2308  2.2502
   87SOPE   C36 8206   6.226   5.059   3.976 -0.1968  0.3161 -0.2734
   87SOPE   H6X 8207   6.198   4.951   3.980  1.6227 -0.1746 -0.0803
   87SOPE   H6Y 8208   6.134   5.120   3.991 -1.0405 -0.6498 -1.3540
   87SOPE   C37 8209   6.322   5.099   4.091  0.3298 -0.0849 -0.1257
   87SOPE   H7X 8210   6.338   5.209   4.091  1.8571 -0.2680 -2.0247
   87SOPE   H7Y 8211   6.419   5.047   4.083  1.2178  1.0274  2.3030
   87SOPE   C38 8212   6.258   5.072   4.223  0.4952 -0.8638 -0.4773
   87SOPE   H8X 8213   6.224   4.967   4.211  1.2441 -0.9736 -1.7278
   87SOPE   H8Y 8214   6.162   5.128   4.233  0.4710 -0.9864  0.0055
   87SOPE   C39 8215   6.345   5.090   4.343 -0.2946 -0.0520  0.2635
   87SOPE   H9X 8216   6.276   5.072   4.428 -2.2916 -0.5212 -1.3881
   87SOPE   H9Y 8217   6.394   5.189   4.358  1.5804 -0.6718 -1.3460
   87SOPE  C310 8218   6.452   4.985   4.353  0.6634 -0.3066  0.3645
   87SOPE  H10X 8219   6.515   4.992   4.262  0.9368 -0.7200  0.5206
   87SOPE  H10Y 8220   6.408   4.884   4.343  1.1814 -0.5722  0.7320
   87SOPE  C311 8221   6.537   4.980   4.484  0.2487  0.2383  0.1524
   87SOPE  H11X 8222   6.468   5.001   4.568 -1.0445 -2.8154 -0.0103
   87SOPE  H11Y 8223   6.617   5.057   4.494  2.5399 -1.4082 -3.4621
   87SOPE  C312 8224   6.602   4.842   4.512 -0.2892 -0.1798  0.3245
   87SOPE  H12X 8225   6.673   4.823   4.429 -0.6735 -1.1303  0.2096
   87SOPE  H12Y 8226   6.523   4.764   4.516  1.1850 -1.6949  1.1034
   87SOPE  C313 8227   6.691   4.851   4.643  0.4235  0.5328 -0.0974
   87SOPE  H13X 8228   6.723   4.746   4.657  0.7838  0.8890  2.2065
   87SOPE  H13Y 8229   6.626   4.882   4.727  1.0462 -0.8083  0.9184
   87SOPE  C314 8230   6.806   4.949   4.641  0.0378  0.3206  0.4952
   87SOPE  H14X 8231   6.762   5.051   4.637 -1.3353 -0.2767 -1.1943
   87SOPE  H14Y 8232   6.868   4.922   4.553  0.8198  2.4186  0.3279
   87SOPE  C315 8233   6.896   4.948   4.766  0.7241  0.3004  0.3875
   87SOPE  H15X 8234   6.927   4.842   4.776 -2.1541 -1.0309 -2.8425
   87SOPE  H15Y 8235   6.847   5.000   4.851 -2.1270  2.0649 -2.1416
   87SOPE  C316 8236   7.029   5.021   4.747  0.5423  0.1924  1.2353
   87SOPE  H16X 8237   7.077   5.040   4.845 -0.2603  0.1835  1.6394
   87SOPE  H16Y 8238   7.008   5.123   4.709 -3.1642 -0.8655 -0.0218
   87SOPE  C317 8239   7.127   4.955   4.646  0.4069 -0.2264  0.1754
   87SOPE  H17X 8240   7.088   4.989   4.548 -2.4670  0.1912  1.3502
   87SOPE  H17Y 8241   7.121   4.844   4.651 -0.0614 -0.2104  0.0188
   87SOPE  C318 8242   7.266   4.996   4.665  0.0011 -0.2235 -0.3620
   87SOPE  H18X 8243   7.315   4.963   4.571  0.3525  2.0788 -1.0544
   87SOPE  H18Y 8244   7.311   4.957   4.759  0.5435  0.1850 -0.4449
   87SOPE  H18Z 8245   7.277   5.107   4.670 -1.8230 -0.0042 -0.7904
   88SOPE     N 8246   1.755   0.853   2.752  0.1068  0.0068 -0.3727
   88SOPE   HN1 8247   1.757   0.907   2.662 -0.3949  1.1045  0.2503
   88SOPE   HN2 8248   1.834   0.887   2.810 -1.0765  2.2315  0.0627
   88SOPE   HN3 8249   1.773   0.759   2.711 -0.9994  0.5023 -2.0962
   88SOPE   C12 8250   1.616   0.869   2.815 -0.0761  0.0264 -0.0520
   88SOPE  H12A 8251   1.621   0.936   2.903 -1.3314 -1.5481  1.2716
   88SOPE  H12B 8252   1.589   0.767   2.849  0.2863 -0.0368  0.0492
   88SOPE   C11 8253   1.509   0.908   2.710  0.2245 -0.3117  0.3218
   88SOPE  H11A 8254   1.411   0.927   2.759  0.7395  2.6405  0.3505
   88SOPE  H11B 8255   1.501   0.820   2.643  1.2065 -0.2612  0.1113
   88SOPE     P 8256   1.543   1.177   2.669  0.3244  0.2605  0.0318
   88SOPE   O13 8257   1.451   1.254   2.589 -0.4372  1.0717  0.1491
   88SOPE   O14 8258   1.681   1.233   2.675  0.1282  0.5517  0.4332
   88SOPE   O12 8259   1.556   1.023   2.629  0.2660  0.7849 -0.4480
   88SOPE   O11 8260   1.495   1.165   2.822  0.0682 -0.3439 -0.3192
   88SOPE    C1 8261   1.497   1.278   2.911 -0.3659  0.3941  0.2382
   88SOPE    HA 8262   1.393   1.317   2.918  0.0526  1.5653  0.2528
   88SOPE    HB 8263   1.554   1.364   2.869 -0.6143 -0.0124 -0.9491
   88SOPE    C2 8264   1.559   1.247   3.049  0.8448 -0.4576  0.0402
   88SOPE    HS 8265   1.663   1.213   3.029 -0.1251 -3.3328 -0.6518
   88SOPE   O21 8266   1.476   1.137   3.106 -0.4848 -0.5409 -0.3244
   88SOPE   C21 8267   1.551   1.047   3.165  0.1450  0.3691 -0.2434
   88SOPE   O22 8268   1.673   1.048   3.170 -0.0694 -0.4950 -0.2558
   88SOPE   C22 8269   1.464   0.930   3.213  0.5917 -0.6903 -0.2456
   88SOPE   H2R 8270   1.419   0.879   3.126 -0.4565 -0.9691  0.4411
   88SOPE   H2S 8271   1.378   0.968   3.272  1.5079  1.5760 -0.2794
   88SOPE    C3 8272   1.560   1.369   3.148  0.6661  0.2230 -0.2407
   88SOPE    HX 8273   1.457   1.410   3.158  0.2054 -0.6350 -1.2994
   88SOPE    HY 8274   1.621   1.450   3.105 -1.7300  1.0314 -2.3813
   88SOPE   O31 8275   1.613   1.320   3.278  0.0018 -0.7493  0.5618
   88SOPE   C31 8276   1.577   1.403   3.378 -0.9243 -0.4042  0.8279
   88SOPE   O32 8277   1.510   1.504   3.364 -0.2110  0.2602 -0.2957
   88SOPE   C32 8278   1.624   1.336   3.518  0.5716  0.2186 -0.1496
   88SOPE   H2X 8279   1.594   1.414   3.591 -0.2293 -0.2112 -0.0099
   88SOPE   H2Y 8280   1.732   1.313   3.509  0.6036  0.5113 -0.5880
   88SOPE   C23 8281   1.538   0.824   3.300 -0.0548 -0.7554 -0.6971
   88SOPE   H3R 8282   1.573   0.880   3.390 -2.9432 -1.3834  0.9360
   88SOPE   H3S 8283   1.616   0.772   3.241  0.3775 -1.0958  0.1451
   88SOPE   C24 8284   1.446   0.707   3.340 -0.5824 -0.0588 -0.1040
   88SOPE   H4R 8285   1.376   0.688   3.256 -2.2086 -0.0793  1.1970
   88SOPE   H4S 8286   1.519   0.625   3.357  1.1966  1.4031 -0.4022
   88SOPE   C25 8287   1.367   0.730   3.467 -0.9822 -0.4181 -0.4213
   88SOPE   H5R 8288   1.298   0.814   3.448 -0.4986  0.1557  0.3107
   88SOPE   H5S 8289   1.317   0.636   3.500  1.4237 -0.6039  3.3750
   88SOPE   C26 8290   1.452   0.777   3.594 -0.4833  0.0747 -0.2082
   88SOPE   H6R 8291   1.538   0.707   3.593 -0.1186  0.4963  0.4966
   88SOPE   H6S 8292   1.496   0.879   3.589 -0.2884  0.0444  0.7621
   88SOPE   C27 8293   1.385   0.754   3.731 -0.1240 -0.1477 -0.0177
   88SOPE   H7R 8294   1.292   0.814   3.730 -0.8058 -1.1740 -0.1175
   88SOPE   H7S 8295   1.354   0.647   3.724 -0.7063  0.0579 -0.7836
   88SOPE   C28 8296   1.475   0.772   3.855  0.3741 -0.2867  0.2336
   88SOPE   H8R 8297   1.509   0.878   3.853 -0.4167 -0.0280 -1.0894
   88SOPE   H8S 8298   1.402   0.770   3.939 -1.0958 -1.8416 -1.0111
   88SOPE   C29 8299   1.588   0.679   3.856 -0.5168  0.0579 -0.1592
   88SOPE   H91 8300   1.635   0.667   3.757  0.0419 -1.0858  0.2173
   88SOPE  C210 8301   1.640   0.615   3.964  0.0685 -0.1730 -0.1078
   88SOPE  H101 8302   1.714   0.535   3.948  0.8945  0.7137 -0.8030
   88SOPE  C211 8303   1.599   0.633   4.109 -0.1863 -0.1404  0.1947
   88SOPE  H11R 8304   1.557   0.735   4.123 -0.9943 -0.3192 -0.8243
   88SOPE  H11S 8305   1.696   0.619   4.162 -0.2212 -1.6806 -0.0931
   88SOPE  C212 8306   1.509   0.530   4.173 -0.6161  0.0801 -0.0917
   88SOPE  H12R 8307   1.538   0.427   4.144  0.3628  0.2923  0.0853
   88SOPE  H12S 8308   1.407   0.552   4.135  0.5784  3.7130 -1.6873
   88SOPE  C213 8309   1.512   0.532   4.322  0.1612  0.7334 -0.6225
   88SOPE  H13R 8310   1.423   0.484   4.366  2.6544  0.0843  4.3523
   88SOPE  H13S 8311   1.489   0.631   4.368 -2.1892 -0.3244  0.6307
   88SOPE  C214 8312   1.638   0.472   4.386  0.5764  0.3538 -0.5810
   88SOPE  H14R 8313   1.729   0.527   4.357  0.8237 -1.1017 -2.8648
   88SOPE  H14S 8314   1.648   0.363   4.364  1.1351  0.0643  0.9882
   88SOPE  C215 8315   1.621   0.485   4.539 -0.2086  0.7914 -0.2682
   88SOPE  H15R 8316   1.582   0.388   4.577 -0.8038  1.2298  0.2579
   88SOPE  H15S 8317   1.536   0.551   4.565 -0.2444  0.6615 -0.0533
   88SOPE  C216 8318   1.740   0.526   4.623  0.2690  0.1420  0.1504
   88SOPE  H16R 8319   1.780   0.628   4.603 -3.3828  1.4766 -1.2481
   88SOPE  H16S 8320   1.818   0.456   4.588  0.6907  0.3001  0.7665
   88SOPE  C217 8321   1.719   0.531   4.780  0.2000 -0.7880  0.2961
   88SOPE  H17R 8322   1.672   0.440   4.821  0.7357 -0.4373  1.7287
   88SOPE  H17S 8323   1.654   0.620   4.794  2.4180  1.1985 -1.2693
   88SOPE  C218 8324   1.853   0.567   4.848 -0.2417  0.0466  0.1366
   88SOPE  H18R 8325   1.902   0.657   4.805  1.7952  0.3647  2.7958
   88SOPE  H18S 8326   1.925   0.482   4.841  3.9768  3.3366 -0.8138
   88SOPE  H18T 8327   1.855   0.590   4.957  0.8868 -1.0505  0.3765
   88SOPE   C33 8328   1.548   1.211   3.560  0.3017 -0.1618  0.3691
   88SOPE   H3X 8329   1.551   1.121   3.494  3.2546  0.4454 -0.4599
   88SOPE   H3Y 8330   1.439   1.234   3.566  0.2560 -0.6272  1.6752
   88SOPE   C34 8331   1.578   1.157   3.704  0.3588  0.1864  0.6106
   88SOPE   H4X 8332   1.688   1.149   3.714  0.2611 -0.8223  1.0591
   88SOPE   H4Y 8333   1.532   1.055   3.704 -2.5329  1.3767 -0.6789
   88SOPE   C35 8334   1.508   1.241   3.815  0.3990 -0.0497 -0.3444
   88SOPE   H5X 8335   1.401   1.210   3.818  0.2954  0.3339 -0.0386
   88SOPE   H5Y 8336   1.511   1.343   3.772 -0.2821  0.1226  0.0006
   88SOPE   C36 8337   1.573   1.227   3.952  0.7552  0.4368 -0.5203
   88SOPE   H6X 8338   1.682   1.242   3.938  0.9642 -0.9426 -0.5272
   88SOPE   H6Y 8339   1.576   1.117   3.967 -0.2591  0.0214 -2.8807
   88SOPE   C37 8340   1.494   1.306   4.063  0.0913  0.7637 -0.0063
   88SOPE   H7X 8341   1.389   1.274   4.045 -0.2964  3.3154 -3.4274
   88SOPE   H7Y 8342   1.482   1.414   4.037 -2.8258  0.6496  0.5112
   88SOPE   C38 8343   1.561   1.292   4.201 -1.4026  0.3169  0.2943
   88SOPE   H8X 8344   1.665   1.326   4.186 -1.8156  1.3293 -0.3587
   88SOPE   H8Y 8345   1.563   1.184   4.228 -0.7036  0.7019  1.9193
   88SOPE   C39 8346   1.498   1.376   4.310  0.2001  0.7178 -0.2420
   88SOPE   H9X 8347   1.401   1.325   4.330  0.3290  1.3405  2.3789
   88SOPE   H9Y 8348   1.490   1.479   4.271  1.8531  1.5063  1.3491
   88SOPE  C310 8349   1.569   1.378   4.451  0.1591  0.5228 -0.5692
   88SOPE  H10X 8350   1.655   1.447   4.444  0.0463  0.5340 -3.0513
   88SOPE  H10Y 8351   1.610   1.276   4.468  0.6089  1.0788  2.0780
   88SOPE  C311 8352   1.463   1.383   4.565  0.0491  0.4091 -1.0875
   88SOPE  H11X 8353   1.392   1.299   4.548 -0.1833 -0.0122  1.5072
   88SOPE  H11Y 8354   1.406   1.478   4.561 -1.5885 -0.1076  3.4922
   88SOPE  C312 8355   1.513   1.338   4.710 -0.9712 -1.0001  0.7635
   88SOPE  H12X 8356   1.596   1.412   4.714 -1.4032 -0.3731 -1.0179
   88SOPE  H12Y 8357   1.558   1.236   4.710  2.1639  0.2481 -0.4277
   88SOPE  C313 8358   1.411   1.354   4.820  0.0917 -0.1669  0.4975
   88SOPE  H13X 8359   1.328   1.284   4.799  0.6573 -0.6631 -0.1649
   88SOPE  H13Y 8360   1.379   1.460   4.811 -0.0971 -0.3248 -0.8700
   88SOPE  C314 8361   1.473   1.329   4.961 -0.3152  0.0271 -0.3899
   88SOPE  H14X 8362   1.547   1.406   4.992  1.8026 -2.0221 -0.0538
   88SOPE  H14Y 8363   1.519   1.228   4.960 -2.7556 -1.1907  1.5020
   88SOPE  C315 8364   1.363   1.304   5.066  0.0028  0.6799  0.4416
   88SOPE  H15X 8365   1.285   1.236   5.024 -0.2598  0.5599  1.1074
   88SOPE  H15Y 8366   1.306   1.397   5.085 -0.5865  0.5027 -0.4034
   88SOPE  C316 8367   1.414   1.234   5.193 -0.2785 -0.6912  0.8761
   88SOPE  H16X 8368   1.503   1.290   5.231 -1.7459  1.4557  1.3186
   88SOPE  H16Y 8369   1.453   1.134   5.164 -1.1876 -0.0902 -2.8494
   88SOPE  C317 8370   1.296   1.228   5.295  0.0627  0.2795 -0.3207
   88SOPE  H17X 8371   1.211   1.182   5.241  0.1535  0.4416 -0.6050
   88SOPE  H17Y 8372   1.259   1.331   5.318 -1.3394 -0.4464  0.8549
   88SOPE  C318 8373   1.326   1.147   5.420 -0.1274 -0.7152  0.3711
   88SOPE  H18X 8374   1.401   1.203   5.479 -0.6668  1.2040 -0.6360
   88SOPE  H18Y 8375   1.370   1.050   5.390 -0.0566 -0.2687 -1.0454
   88SOPE  H18Z 8376   1.239   1.128   5.487  1.5142 -1.5654  2.3677
   89SAPC     N 8377   3.440   4.728   7.308  0.0140 -0.5896 -0.1828
   89SAPC   C12 8378   3.492   4.607   7.230 -0.4008 -0.1945  0.3635
   89SAPC  H12A 8379   3.569   4.636   7.160 -1.1198  1.1825  0.1087
   89SAPC  H12B 8380   3.404   4.567   7.183  0.0426  0.8484 -1.4665
   89SAPC   C13 8381   3.553   4.804   7.364 -0.5980  0.0549  0.2757
   89SAPC  H13A 8382   3.581   4.873   7.286 -0.8857 -0.5829 -0.4143
   89SAPC  H13B 8383   3.524   4.867   7.446  0.1025  0.8743 -0.0970
   89SAPC  H13C 8384   3.641   4.744   7.379 -0.4062  0.6810  1.8358
   89SAPC   C14 8385   3.362   4.820   7.220 -0.1812 -0.9061  0.0755
   89SAPC  H14A 8386   3.295   4.882   7.278 -0.0394 -0.4691 -0.2286
   89SAPC  H14B 8387   3.421   4.885   7.157 -2.8065  0.0036 -1.5793
   89SAPC  H14C 8388   3.291   4.759   7.166 -1.3919  0.3128  0.2259
   89SAPC   C15 8389   3.363   4.683   7.430  0.2490  0.9220 -0.1783
   89SAPC  H15A 8390   3.427   4.639   7.504  0.5997 -0.8787 -1.4958
   89SAPC  H15B 8391   3.308   4.766   7.473  1.1353  1.3458  0.1501
   89SAPC  H15C 8392   3.282   4.617   7.403  0.6550  0.4107 -0.1490
   89SAPC   C11 8393   3.552   4.494   7.320  0.0186 -0.1134  0.0371
   89SAPC  H11A 8394   3.581   4.402   7.265  0.8516 -1.1395  2.1200
   89SAPC  H11B 8395   3.475   4.452   7.388 -0.4760  0.4717 -0.1428
   89SAPC     P 8396   3.803   4.545   7.363 -0.6459 -0.3081  0.0591
   89SAPC   O13 8397   3.880   4.631   7.458  0.4484 -0.5938 -0.5248
   89SAPC   O14 8398   3.854   4.406   7.345 -0.2424  0.1082 -0.0984
   89SAPC   O12 8399   3.656   4.539   7.407  0.1391 -0.3320 -0.3256
   89SAPC   O11 8400   3.793   4.624   7.228 -0.6493  0.4532  0.0627
   89SAPC    C1 8401   3.868   4.596   7.112 -0.3551 -0.5673 -0.1671
   89SAPC    HA 8402   3.974   4.628   7.121 -0.5422  0.2738 -0.8231
   89SAPC    HB 8403   3.859   4.489   7.084 -0.1573 -0.1696 -1.8720
   89SAPC    C2 8404   3.824   4.679   6.999 -0.3807 -0.4891 -0.3875
   89SAPC    HS 8405   3.856   4.784   7.017  3.4607 -1.5593 -0.2265
   89SAPC   O21 8406   3.684   4.665   6.978 -0.5388 -0.1468 -0.2005
   89SAPC   C21 8407   3.623   4.769   6.926  0.8060  0.0667 -0.2440
   89SAPC   O22 8408   3.671   4.878   6.899 -0.3650 -0.7108 -0.6391
   89SAPC   C22 8409   3.483   4.727   6.890 -0.2551 -0.6923 -0.3798
   89SAPC   H2R 8410   3.444   4.655   6.965 -0.1599  0.0731  0.4346
   89SAPC   H2S 8411   3.412   4.810   6.910  1.8202  1.4733 -1.3878
   89SAPC    C3 8412   3.893   4.632   6.866  1.0082 -0.8940 -0.4302
   89SAPC    HX 8413   3.863   4.526   6.856 -0.3134 -0.9088  2.4860
   89SAPC    HY 8414   4.002   4.647   6.882  0.7846 -1.6267  2.2886
   89SAPC   O31 8415   3.850   4.693   6.746 -0.4388 -0.6145 -0.2723
   89SAPC   C31 8416   3.901   4.819   6.723  0.3675 -0.5412 -0.2089
   89SAPC   O32 8417   3.980   4.878   6.790  0.2082 -0.3297 -0.3985
   89SAPC   C32 8418   3.835   4.877   6.596 -0.9002 -0.2051  0.6649
   89SAPC   H2X 8419   3.835   4.988   6.600  2.1215 -0.0426 -0.9824
   89SAPC   H2Y 8420   3.730   4.843   6.599 -0.1971 -3.2966 -2.7837
   89SAPC   C23 8421   3.465   4.678   6.741 -0.4501  0.7078 -0.5673
   89SAPC   H3R 8422   3.557   4.622   6.716 -0.1856  0.9939 -0.2532
   89SAPC   H3S 8423   3.465   4.767   6.675  0.3390  2.3706  1.5668
   89SAPC   C24 8424   3.348   4.575   6.716  0.5652  0.0485  0.4784
   89SAPC   H4R 8425   3.354   4.497   6.796 -2.3276 -1.6291 -0.8042
   89SAPC   H4S 8426   3.363   4.514   6.624 -1.3207 -0.2707  0.3541
   89SAPC   C25 8427   3.207   4.636   6.708  0.3540 -0.4345  0.0891
   89SAPC   H5R 8428   3.157   4.647   6.806 -2.2006 -1.2764 -1.0273
   89SAPC   C26 8429   3.133   4.670   6.596 -0.6658  0.2955 -0.0868
   89SAPC   H6R 8430   3.033   4.713   6.612 -0.7831 -0.1429  0.3863
   89SAPC   C27 8431   3.181   4.662   6.452 -0.9085  0.5624  0.9941
   89SAPC   H7R 8432   3.190   4.562   6.405 -0.7576  1.0429 -0.0179
   89SAPC   H7S 8433   3.288   4.692   6.449 -1.2665  1.7799 -1.1685
   89SAPC   C28 8434   3.094   4.759   6.372  0.7739 -0.2704 -0.2008
   89SAPC   H8R 8435   3.048   4.845   6.423  0.8441 -0.2780 -0.1243
   89SAPC   C29 8436   3.064   4.753   6.241  0.2852  0.4475  0.1509
   89SAPC   H9R 8437   2.982   4.820   6.212  1.9568  2.5039 -0.0594
   89SAPC  C210 8438   3.111   4.652   6.139 -0.0424  0.3893  0.0213
   89SAPC  H10R 8439   3.035   4.577   6.110 -0.8314  0.5394  1.6352
   89SAPC  H10S 8440   3.189   4.589   6.187 -1.6428 -1.4283  0.3353
   89SAPC  C211 8441   3.166   4.710   6.010  0.5572  0.7108  0.5451
   89SAPC  H11R 8442   3.140   4.663   5.914 -0.0271  2.1144 -0.0163
   89SAPC  C212 8443   3.256   4.807   5.998  0.8983 -1.0569  0.0628
   89SAPC  H12R 8444   3.271   4.854   5.900  0.1969  1.6864  1.1826
   89SAPC  C213 8445   3.316   4.896   6.101 -0.4257 -0.0615  0.6280
   89SAPC  H13R 8446   3.275   4.872   6.201 -0.7374  2.4889  1.1791
   89SAPC  H13S 8447   3.266   4.993   6.083  1.0224  0.6443  0.2466
   89SAPC  C214 8448   3.466   4.909   6.104 -0.5378  1.1815  0.1929
   89SAPC  H14R 8449   3.519   4.872   6.193  0.1620 -0.4503 -0.8560
   89SAPC  C215 8450   3.532   4.990   6.030 -0.6387  0.2096  0.2984
   89SAPC  H15R 8451   3.642   4.987   6.029 -0.5211  0.6391 -3.3661
   89SAPC  C216 8452   3.470   5.078   5.920 -0.3160  0.3758  0.0914
   89SAPC  H16R 8453   3.445   5.173   5.972 -1.5395 -0.3633  0.8989
   89SAPC  H16S 8454   3.377   5.024   5.893  0.6046 -2.6173  2.3201
   89SAPC  C217 8455   3.546   5.098   5.791 -0.3912 -0.9570 -0.3564
   89SAPC  H17R 8456   3.471   5.144   5.724 -0.0257 -1.5114 -1.1530
   89SAPC  H17S 8457   3.584   5.003   5.749  3.6447  0.1139  0.4293
   89SAPC  C218 8458   3.655   5.206   5.789  0.0572 -0.4284  0.5813
   89SAPC  H18R 8459   3.637   5.261   5.883  1.0714 -1.1391  1.2170
   89SAPC  H18S 8460   3.632   5.269   5.700 -0.1032 -1.6838 -0.3011
   89SAPC  C219 8461   3.803   5.171   5.770 -0.1176 -0.1574 -1.3604
   89SAPC  H19R 8462   3.850   5.108   5.848  0.8930 -1.9561 -3.2985
   89SAPC  H19S 8463   3.858   5.267   5.766 -0.6027  0.1465 -0.8681
   89SAPC  C220 8464   3.841   5.089   5.640  0.7692 -0.1145 -0.2457
   89SAPC  H20R 8465   3.949   5.062   5.628  0.4185 -1.7478  0.0650
   89SAPC  H20S 8466   3.796   5.139   5.551 -0.7882 -2.4589 -0.8668
   89SAPC  H20T 8467   3.791   4.991   5.636  0.0573  0.2736 -2.6347
   89SAPC   C33 8468   3.901   4.815   6.473  0.8422 -0.9663  0.1189
   89SAPC   H3X 8469   3.894   4.705   6.478  2.6872 -1.3256 -2.8934
   89SAPC   H3Y 8470   4.005   4.853   6.465 -0.0940  2.1977  1.0709
   89SAPC   C34 8471   3.829   4.850   6.335 -0.7377 -0.7031 -1.3792
   89SAPC   H4X 8472   3.860   4.950   6.298  1.9367 -0.8009  0.2829
   89SAPC   H4Y 8473   3.720   4.831   6.346 -0.9344  0.5123 -1.1019
   89SAPC   C35 8474   3.880   4.763   6.222  0.3639  0.6311  0.2247
   89SAPC   H5X 8475   3.831   4.665   6.240 -0.5720  1.2739  1.2998
   89SAPC   H5Y 8476   3.988   4.744   6.240  0.2368 -1.2790 -0.7111
   89SAPC   C36 8477   3.857   4.810   6.074  0.0016 -1.0951 -0.5422
   89SAPC   H6X 8478   3.893   4.911   6.044 -0.8006 -0.8760 -0.7901
   89SAPC   H6Y 8479   3.750   4.797   6.047 -0.7049  2.3316  0.1883
   89SAPC   C37 8480   3.933   4.711   5.972 -0.2613  0.6283 -0.1449
   89SAPC   H7X 8481   3.868   4.622   5.961 -0.7877  1.1722 -1.7395
   89SAPC   H7Y 8482   4.028   4.674   6.017 -0.4302 -0.8749 -0.9949
   89SAPC   C38 8483   3.939   4.779   5.835 -0.2201 -0.4228 -0.4526
   89SAPC   H8X 8484   3.979   4.882   5.846 -2.9251  0.7525 -0.8930
   89SAPC   H8Y 8485   3.839   4.790   5.789 -0.3188  0.8419  0.0308
   89SAPC   C39 8486   4.021   4.703   5.729 -0.7050  0.4912 -0.0148
   89SAPC   H9X 8487   3.981   4.601   5.710  0.4731  0.1485 -0.7517
   89SAPC   H9Y 8488   4.129   4.706   5.755 -0.5134 -2.3261 -0.1746
   89SAPC  C310 8489   4.025   4.776   5.596  0.1119  0.2361  0.5936
   89SAPC  H10X 8490   4.056   4.882   5.612 -1.3194  1.0766 -1.7159
   89SAPC  H10Y 8491   3.918   4.769   5.565  0.3773 -1.2058 -0.0534
   89SAPC  C311 8492   4.105   4.702   5.490  0.3181  0.5300  0.2997
   89SAPC  H11X 8493   4.080   4.593   5.493  0.3454  0.5028 -0.4037
   89SAPC  H11Y 8494   4.211   4.712   5.521  0.2355  2.1085  0.1228
   89SAPC  C312 8495   4.087   4.775   5.354  0.5029 -0.0965  0.0317
   89SAPC  H12X 8496   4.124   4.880   5.360 -0.7022  0.3339  0.0665
   89SAPC  H12Y 8497   3.978   4.781   5.334  0.5177  0.8486  0.1999
   89SAPC  C313 8498   4.145   4.698   5.235 -0.2769 -0.8623  0.2021
   89SAPC  H13X 8499   4.110   4.592   5.235  2.7959 -1.9821 -1.1963
   89SAPC  H13Y 8500   4.254   4.706   5.256 -0.4308  2.8540  0.1475
   89SAPC  C314 8501   4.108   4.766   5.104 -0.3365  0.7105 -0.3224
   89SAPC  H14X 8502   4.161   4.707   5.027 -1.1315  0.4085 -0.6491
   89SAPC  H14Y 8503   4.142   4.872   5.097 -2.2307  1.2394 -2.8804
   89SAPC  C315 8504   3.960   4.787   5.076 -0.4446 -0.4904 -0.0173
   89SAPC  H15X 8505   3.922   4.868   5.142  0.5201 -0.8860  1.0533
   89SAPC  H15Y 8506   3.901   4.693   5.088 -1.4123 -0.0601 -1.2242
   89SAPC  C316 8507   3.931   4.844   4.937  0.0828 -0.3357 -0.1787
   89SAPC  H16X 8508   3.951   4.761   4.866  1.0339 -2.1838  2.0925
   89SAPC  H16Y 8509   4.017   4.912   4.916  1.0180 -1.1068  0.9771
   89SAPC  C317 8510   3.788   4.889   4.894 -0.2927  0.1993  0.1025
   89SAPC  H17X 8511   3.779   4.904   4.784 -0.7286  0.7661  0.2058
   89SAPC  H17Y 8512   3.772   4.987   4.944 -2.0671  0.0741 -0.1443
   89SAPC  C318 8513   3.676   4.798   4.933  0.0316 -0.3261 -0.1342
   89SAPC  H18X 8514   3.680   4.701   4.879  0.9845  1.1432 -2.8929
   89SAPC  H18Y 8515   3.582   4.852   4.908  1.8377  1.7280 -3.1338
   89SAPC  H18Z 8516   3.685   4.770   5.041 -1.4521  0.7814  0.3092
   90SAPC     N 8517   6.338   6.517   7.745 -0.1522  0.5395  0.0304
   90SAPC   C12 8518   6.386   6.550   7.603 -0.0732 -0.7780  0.3850
   90SAPC  H12A 8519   6.423   6.461   7.555 -1.1939  0.1515 -2.4283
   90SAPC  H12B 8520   6.474   6.611   7.615 -0.3301 -0.6216  1.5610
   90SAPC   C13 8521   6.458   6.449   7.807  0.2042 -0.2228 -0.0491
   90SAPC  H13A 8522   6.546   6.510   7.812  0.3932 -0.4346 -0.7162
   90SAPC  H13B 8523   6.428   6.442   7.911 -0.0931  2.8861  0.1669
   90SAPC  H13C 8524   6.491   6.353   7.770  1.8029  1.3895 -3.1347
   90SAPC   C14 8525   6.302   6.651   7.812 -0.7909  0.6259 -0.0201
   90SAPC  H14A 8526   6.262   6.632   7.911  0.3813  0.4933  0.4357
   90SAPC  H14B 8527   6.387   6.714   7.832 -1.3554  1.5145 -0.3394
   90SAPC  H14C 8528   6.241   6.711   7.746 -1.2034 -0.0750 -0.2887
   90SAPC   C15 8529   6.219   6.424   7.755  0.6176 -0.6291 -0.0321
   90SAPC  H15A 8530   6.234   6.325   7.796 -0.2256 -0.3260  1.0266
   90SAPC  H15B 8531   6.150   6.463   7.828  1.9637 -0.2158  1.0609
   90SAPC  H15C 8532   6.176   6.411   7.657  1.8743  1.6935 -0.9642
   90SAPC   C11 8533   6.288   6.627   7.510  0.5240  0.2782  0.2760
   90SAPC  H11A 8534   6.191   6.580   7.536  1.0448 -1.1152 -0.2297
   90SAPC  H11B 8535   6.308   6.621   7.401 -0.6444  0.3080  0.0488
   90SAPC     P 8536   6.404   6.860   7.536 -0.4296  0.2390 -0.7267
   90SAPC   O13 8537   6.366   7.000   7.546  0.1587 -0.1522  0.0439
   90SAPC   O14 8538   6.514   6.814   7.626  0.1563 -0.4233 -0.5965
   90SAPC   O12 8539   6.277   6.760   7.544  0.0000 -0.1653  0.1328
   90SAPC   O11 8540   6.453   6.851   7.385  0.0336  0.2771 -0.0986
   90SAPC    C1 8541   6.357   6.894   7.289  0.3248 -0.2180  0.2524
   90SAPC    HA 8542   6.266   6.830   7.297 -0.4134  0.3283 -2.5518
   90SAPC    HB 8543   6.317   6.995   7.313  0.3202  0.2155 -1.4267
   90SAPC    C2 8544   6.418   6.885   7.146 -0.8714  0.0322 -0.6313
   90SAPC    HS 8545   6.351   6.922   7.066  0.2852 -0.0373 -1.6574
   90SAPC   O21 8546   6.440   6.750   7.113  0.2457 -0.1239  0.2223
   90SAPC   C21 8547   6.327   6.682   7.082 -1.2225 -0.6157 -0.4051
   90SAPC   O22 8548   6.220   6.731   7.060 -0.0287 -0.3890  0.8697
   90SAPC   C22 8549   6.350   6.535   7.102  0.1960  0.5680 -0.5189
   90SAPC   H2R 8550   6.440   6.512   7.164 -0.1838  2.5047  0.8307
   90SAPC   H2S 8551   6.260   6.496   7.154 -0.4988  1.6426 -0.8959
   90SAPC    C3 8552   6.554   6.968   7.132  0.1310 -0.3809  0.3141
   90SAPC    HX 8553   6.617   6.948   7.221 -0.5478  3.3399  1.8161
   90SAPC    HY 8554   6.522   7.075   7.137  3.1911  0.6001  1.1527
   90SAPC   O31 8555   6.614   6.936   7.004  1.0710 -0.0882  0.4615
   90SAPC   C31 8556   6.709   6.847   7.012  0.1012  0.6009 -0.7601
   90SAPC   O32 8557   6.766   6.807   7.114  0.5762 -0.3957  0.1050
   90SAPC   C32 8558   6.734   6.798   6.871  0.1045 -0.5756 -0.0650
   90SAPC   H2X 8559   6.749   6.688   6.864  1.4258 -0.3255 -4.4834
   90SAPC   H2Y 8560   6.828   6.848   6.839 -1.1290  1.2864 -0.9666
   90SAPC   C23 8561   6.350   6.455   6.971  0.1794  0.1559  0.1790
   90SAPC   H3R 8562   6.365   6.349   6.998 -0.7476 -0.5619 -1.8615
   90SAPC   H3S 8563   6.439   6.481   6.910  0.6274  0.1637  0.8332
   90SAPC   C24 8564   6.229   6.468   6.883 -0.2425  0.3114  0.1668
   90SAPC   H4R 8565   6.199   6.569   6.849 -0.8459 -0.1633 -0.7554
   90SAPC   H4S 8566   6.146   6.444   6.953 -0.3229 -0.1235 -0.0728
   90SAPC   C25 8567   6.231   6.365   6.774 -0.0660  0.3180 -0.1267
   90SAPC   H5R 8568   6.202   6.267   6.814 -0.0408 -0.9085 -2.9333
   90SAPC   C26 8569   6.256   6.378   6.645 -0.3511  0.4636  0.0795
   90SAPC   H6R 8570   6.271   6.287   6.586 -3.6907 -0.4187  0.3376
   90SAPC   C27 8571   6.294   6.508   6.573  0.4711 -0.0270  0.6775
   90SAPC   H7R 8572   6.300   6.596   6.641 -2.7059  1.5014 -0.7868
   90SAPC   H7S 8573   6.217   6.535   6.498  0.1287 -3.4793 -0.4081
   90SAPC   C28 8574   6.431   6.490   6.511 -0.5198 -0.2817  0.0946
   90SAPC   H8R 8575   6.516   6.497   6.580  0.6234  1.5620 -1.4204
   90SAPC   C29 8576   6.475   6.471   6.383  0.8287  0.4731  1.2511
   90SAPC   H9R 8577   6.582   6.455   6.365  0.9916 -0.6392  3.0026
   90SAPC  C210 8578   6.382   6.457   6.263 -0.0578 -0.1089 -0.2727
   90SAPC  H10R 8579   6.390   6.548   6.200 -0.4232  0.6811  0.7884
   90SAPC  H10S 8580   6.276   6.451   6.296 -0.2749 -0.2719 -0.9764
   90SAPC  C211 8581   6.410   6.343   6.175 -0.1089 -0.6680  0.5924
   90SAPC  H11R 8582   6.507   6.291   6.175 -0.9034 -2.2654 -1.1790
   90SAPC  C212 8583   6.328   6.295   6.081 -0.2871  0.4661 -0.5544
   90SAPC  H12R 8584   6.364   6.211   6.020  0.0106 -0.0828  0.3558
   90SAPC  C213 8585   6.189   6.339   6.046 -0.4941  0.2179 -0.2359
   90SAPC  H13R 8586   6.137   6.409   6.115  0.0587 -0.5211  0.9448
   90SAPC  H13S 8587   6.126   6.249   6.059  2.2373 -1.7222  0.5840
   90SAPC  C214 8588   6.176   6.420   5.916  0.1409  0.3710  0.0908
   90SAPC  H14R 8589   6.240   6.509   5.907 -0.0766  0.6353  1.1105
   90SAPC  C215 8590   6.114   6.375   5.803 -0.8161  0.3625 -0.1845
   90SAPC  H15R 8591   6.125   6.446   5.720  1.4027 -1.6053 -1.6602
   90SAPC  C216 8592   6.035   6.251   5.788  0.1317 -0.1548  0.9932
   90SAPC  H16R 8593   5.934   6.273   5.828 -0.1098 -0.4140  0.5307
   90SAPC  H16S 8594   6.078   6.161   5.838 -1.2213 -0.9195  0.8290
   90SAPC  C217 8595   6.006   6.193   5.651 -0.1715  0.5590  0.3107
   90SAPC  H17R 8596   5.935   6.110   5.669 -1.8110  1.1634 -2.7119
   90SAPC  H17S 8597   6.094   6.140   5.609  0.6485  0.6544  1.8324
   90SAPC  C218 8598   5.958   6.308   5.559 -0.0417  0.4397 -0.2253
   90SAPC  H18R 8599   6.045   6.371   5.531  2.7517 -2.1740  1.8191
   90SAPC  H18S 8600   5.889   6.382   5.605  2.0612  2.8410 -0.7000
   90SAPC  C219 8601   5.894   6.262   5.420  0.2798  0.2238 -0.1779
   90SAPC  H19R 8602   5.862   6.345   5.353  0.8642 -0.7222 -1.6790
   90SAPC  H19S 8603   5.801   6.206   5.445  0.5900 -0.2630 -0.1140
   90SAPC  C220 8604   5.982   6.164   5.344  0.7604 -0.0303 -0.1526
   90SAPC  H20R 8605   6.079   6.217   5.339  0.0125  1.5476  1.0730
   90SAPC  H20S 8606   5.937   6.143   5.244  2.5225  0.5673 -1.1152
   90SAPC  H20T 8607   5.986   6.067   5.398 -1.1191  0.0633  0.2388
   90SAPC   C33 8608   6.632   6.829   6.756  0.4959 -0.1098  0.5361
   90SAPC   H3X 8609   6.527   6.818   6.792 -0.3399 -1.6666 -2.0486
   90SAPC   H3Y 8610   6.643   6.760   6.670 -0.8890 -0.1342  0.3509
   90SAPC   C34 8611   6.655   6.969   6.704 -0.0545 -0.5588  0.2228
   90SAPC   H4X 8612   6.764   6.974   6.686  1.0568 -5.4625  3.7026
   90SAPC   H4Y 8613   6.622   7.042   6.781  0.7721  2.9063 -2.4449
   90SAPC   C35 8614   6.569   7.000   6.583 -0.0555  0.1015 -0.0948
   90SAPC   H5X 8615   6.588   7.105   6.551 -1.0432  0.8138  1.5460
   90SAPC   H5Y 8616   6.461   6.984   6.602 -0.1874 -1.7971 -2.0293
   90SAPC   C36 8617   6.592   6.919   6.454 -0.3029  0.2358 -0.1234
   90SAPC   H6X 8618   6.571   6.811   6.469 -1.3229  0.6079  1.3113
   90SAPC   H6Y 8619   6.698   6.940   6.426 -0.1793 -0.5166 -0.2482
   90SAPC   C37 8620   6.508   6.963   6.338  0.0651  0.0778  0.2688
   90SAPC   H7X 8621   6.535   7.067   6.309 -0.3185 -0.1650 -1.0530
   90SAPC   H7Y 8622   6.399   6.966   6.359  0.2030  0.9671  0.9256
   90SAPC   C38 8623   6.543   6.874   6.211  0.2208 -1.0586 -0.4880
   90SAPC   H8X 8624   6.528   6.764   6.222  2.0465 -1.4291 -1.3165
   90SAPC   H8Y 8625   6.648   6.889   6.178  0.2656 -3.3018 -1.5585
   90SAPC   C39 8626   6.446   6.912   6.091 -0.1490 -0.2112 -1.6672
   90SAPC   H9X 8627   6.439   7.023   6.091 -1.8516 -0.1275  2.4823
   90SAPC   H9Y 8628   6.343   6.872   6.105  0.7147 -2.0483 -0.0150
   90SAPC  C310 8629   6.496   6.850   5.967 -0.2115  0.2420 -1.2146
   90SAPC  H10X 8630   6.491   6.740   5.977  1.2063  0.1362 -1.5007
   90SAPC  H10Y 8631   6.604   6.869   5.951 -0.3288  2.1871 -0.0491
   90SAPC  C311 8632   6.427   6.878   5.834  0.0438  0.2243  0.1055
   90SAPC  H11X 8633   6.460   6.978   5.798  0.0095  0.4513  0.6935
   90SAPC  H11Y 8634   6.320   6.892   5.859  0.2407 -0.4006  1.3254
   90SAPC  C312 8635   6.467   6.787   5.719  0.1037 -0.0913 -0.0545
   90SAPC  H12X 8636   6.577   6.800   5.720 -0.1942  3.2588  0.3269
   90SAPC  H12Y 8637   6.424   6.826   5.624  2.3821  0.9038 -0.7548
   90SAPC  C313 8638   6.422   6.635   5.737  0.3046  0.2947  0.7112
   90SAPC  H13X 8639   6.312   6.636   5.755  0.0581 -0.0563 -0.6387
   90SAPC  H13Y 8640   6.468   6.586   5.825  1.4798  1.0028  0.5123
   90SAPC  C314 8641   6.444   6.541   5.616  0.2046 -0.9361  0.2652
   90SAPC  H14X 8642   6.404   6.445   5.656  0.6251 -0.4232  2.0270
   90SAPC  H14Y 8643   6.554   6.540   5.606  0.2897  0.7401  0.7088
   90SAPC  C315 8644   6.360   6.573   5.490 -0.2250  0.2451 -0.0328
   90SAPC  H15X 8645   6.411   6.663   5.449  0.4923  0.6003  1.5489
   90SAPC  H15Y 8646   6.254   6.600   5.503 -1.0068 -0.8920 -3.1593
   90SAPC  C316 8647   6.391   6.465   5.384 -0.6116  0.0696  0.3210
   90SAPC  H16X 8648   6.402   6.363   5.426 -0.1251  0.4385  1.0990
   90SAPC  H16Y 8649   6.485   6.501   5.337 -0.6202  1.9485  1.6364
   90SAPC  C317 8650   6.283   6.461   5.274  0.3499  0.7057  0.9845
   90SAPC  H17X 8651   6.273   6.566   5.240  0.0909  0.2326 -0.4624
   90SAPC  H17Y 8652   6.189   6.427   5.322  0.1736 -1.9121 -0.9932
   90SAPC  C318 8653   6.309   6.369   5.161  0.2252  0.4373  0.1246
   90SAPC  H18X 8654   6.396   6.384   5.094  2.4232 -0.2164  2.6805
   90SAPC  H18Y 8655   6.219   6.357   5.097  1.2707 -0.8111 -1.1872
   90SAPC  H18Z 8656   6.329   6.266   5.197  2.1320  1.1228  1.1323
   91SAPC     N 8657   6.085   5.309   7.565  0.4113 -0.3596  0.0193
   91SAPC   C12 8658   6.157   5.343   7.433  0.5799 -0.0821  0.6429
   91SAPC  H12A 8659   6.114   5.299   7.344  0.5266  1.7759 -0.3083
   91SAPC  H12B 8660   6.263   5.323   7.434  0.4512 -1.3695 -2.2193
   91SAPC   C13 8661   5.940   5.288   7.530  0.7153  0.2056  1.2713
   91SAPC  H13A 8662   5.879   5.253   7.612 -2.1719 -4.2077 -2.2537
   91SAPC  H13B 8663   5.892   5.376   7.491 -2.3283 -1.2687  1.4485
   91SAPC  H13C 8664   5.920   5.204   7.465 -1.6179 -0.6120  2.9410
   91SAPC   C14 8665   6.144   5.175   7.627  0.3636 -0.5007 -0.3019
   91SAPC  H14A 8666   6.106   5.165   7.727  0.0692  0.3035 -0.3261
   91SAPC  H14B 8667   6.107   5.092   7.569 -0.4404  0.3733 -1.0744
   91SAPC  H14C 8668   6.252   5.173   7.625  0.3737 -2.1057  0.2242
   91SAPC   C15 8669   6.108   5.412   7.664  0.4653  0.4370  0.1691
   91SAPC  H15A 8670   6.066   5.385   7.760  1.7485 -1.1053  0.3345
   91SAPC  H15B 8671   6.212   5.427   7.687  0.4267 -0.0172  0.6636
   91SAPC  H15C 8672   6.058   5.505   7.640  3.0715  1.7653 -0.4242
   91SAPC   C11 8673   6.151   5.496   7.401  0.3950  0.5395 -0.4307
   91SAPC  H11A 8674   6.172   5.551   7.495  0.5006 -0.5503  0.2040
   91SAPC  H11B 8675   6.047   5.514   7.365 -1.0742 -1.4841  2.3631
   91SAPC     P 8676   6.262   5.670   7.235 -0.4448  0.0211  0.0882
   91SAPC   O13 8677   6.276   5.759   7.352 -0.8372  0.8748  0.0617
   91SAPC   O14 8678   6.371   5.664   7.140  0.4488 -0.1206 -0.1625
   91SAPC   O12 8679   6.235   5.522   7.287 -0.5171 -0.2906 -0.2055
   91SAPC   O11 8680   6.128   5.704   7.166 -0.2660  1.0420 -0.7612
   91SAPC    C1 8681   6.064   5.622   7.070 -0.0970 -0.2448 -1.0558
   91SAPC    HA 8682   6.050   5.517   7.101  0.3056 -0.0341 -0.1311
   91SAPC    HB 8683   5.960   5.661   7.065 -0.0766  0.5254  2.2498
   91SAPC    C2 8684   6.132   5.615   6.932 -0.6194  0.0613  0.0218
   91SAPC    HS 8685   6.242   5.612   6.946 -0.6175 -0.5794 -0.1073
   91SAPC   O21 8686   6.086   5.737   6.870 -0.3669  0.6103 -0.3184
   91SAPC   C21 8687   6.185   5.801   6.807 -0.8464  0.5874  0.2803
   91SAPC   O22 8688   6.300   5.764   6.795  0.2452 -0.1160  0.0624
   91SAPC   C22 8689   6.122   5.921   6.733 -0.6744  0.4978  0.5663
   91SAPC   H2R 8690   6.024   5.946   6.779 -1.4741 -0.7984 -0.3740
   91SAPC   H2S 8691   6.196   6.004   6.747 -1.8856  2.2304 -2.4146
   91SAPC    C3 8692   6.078   5.499   6.852 -0.3968  0.5987 -0.3950
   91SAPC    HX 8693   5.968   5.492   6.843 -0.2475 -1.7521 -0.9470
   91SAPC    HY 8694   6.105   5.401   6.897  0.2561  0.3133 -1.3738
   91SAPC   O31 8695   6.133   5.498   6.721  0.4830 -0.2384  0.4629
   91SAPC   C31 8696   6.151   5.386   6.657  0.4748 -0.2446 -0.1275
   91SAPC   O32 8697   6.104   5.278   6.689  0.0015  0.2792  0.0031
   91SAPC   C32 8698   6.231   5.412   6.528  0.3702  0.4416  0.1664
   91SAPC   H2X 8699   6.280   5.317   6.496  1.3715  0.2994  1.9749
   91SAPC   H2Y 8700   6.311   5.486   6.547  1.7675 -0.4708 -1.7885
   91SAPC   C23 8701   6.124   5.913   6.584  0.4477  0.7836 -0.1415
   91SAPC   H3R 8702   6.070   5.821   6.551 -4.7680  2.6152  2.2743
   91SAPC   H3S 8703   6.227   5.891   6.546 -0.5969 -0.1755 -2.6572
   91SAPC   C24 8704   6.073   6.029   6.504 -0.4582 -0.1742 -0.2682
   91SAPC   H4R 8705   6.055   6.121   6.564 -1.6120 -0.6837  0.2071
   91SAPC   H4S 8706   5.969   6.007   6.473 -0.9089  0.1580  0.9278
   91SAPC   C25 8707   6.148   6.062   6.377 -0.0097  0.1813 -0.9934
   91SAPC   H5R 8708   6.222   6.140   6.400 -0.0169 -0.5398  1.9425
   91SAPC   C26 8709   6.136   6.018   6.251  0.0373 -0.3961 -0.5231
   91SAPC   H6R 8710   6.196   6.060   6.169 -0.1000  1.0418  0.0968
   91SAPC   C27 8711   6.049   5.908   6.197  0.4920  0.3798  0.5157
   91SAPC   H7R 8712   5.966   5.883   6.266  0.8149 -0.5512  0.5787
   91SAPC   H7S 8713   6.104   5.811   6.196  1.1078  0.7123  1.2006
   91SAPC   C28 8714   5.982   5.924   6.066 -0.1225 -0.6212 -0.2474
   91SAPC   H8R 8715   5.875   5.948   6.067  0.2929  1.7563  2.4195
   91SAPC   C29 8716   6.039   5.912   5.941 -0.0227 -0.0131 -0.7493
   91SAPC   H9R 8717   5.975   5.936   5.855  0.1632 -2.2674 -1.5727
   91SAPC  C210 8718   6.187   5.878   5.906  0.5110 -0.2549  0.0858
   91SAPC  H10R 8719   6.250   5.917   5.989  0.4410 -0.4849  0.2477
   91SAPC  H10S 8720   6.216   5.943   5.820 -0.3846  0.7234  0.4983
   91SAPC  C211 8721   6.204   5.732   5.880 -0.0585 -0.0088  0.3839
   91SAPC  H11R 8722   6.160   5.668   5.958 -3.3752  1.3922 -0.1776
   91SAPC  C212 8723   6.265   5.678   5.775  0.5291 -0.3097 -0.4597
   91SAPC  H12R 8724   6.256   5.569   5.761 -0.0265 -0.2014 -0.9686
   91SAPC  C213 8725   6.321   5.749   5.654 -0.2456  0.6125  0.4282
   91SAPC  H13R 8726   6.387   5.679   5.598 -1.4294  0.8345 -1.3190
   91SAPC  H13S 8727   6.396   5.820   5.695  1.7241 -2.0402  1.7147
   91SAPC  C214 8728   6.231   5.808   5.546 -0.0656  0.3712 -0.5241
   91SAPC  H14R 8729   6.194   5.912   5.552  1.1524  0.8370 -0.7869
   91SAPC  C215 8730   6.214   5.752   5.430  0.0902 -0.0093 -0.3822
   91SAPC  H15R 8731   6.146   5.801   5.358 -1.1397 -1.9848 -0.6574
   91SAPC  C216 8732   6.272   5.626   5.374  0.1050  0.8299  0.5849
   91SAPC  H16R 8733   6.190   5.579   5.315  2.1065 -1.0126 -0.8813
   91SAPC  H16S 8734   6.297   5.556   5.457  2.4654 -0.3548 -1.0196
   91SAPC  C217 8735   6.391   5.642   5.285 -0.8775 -0.3408  0.0857
   91SAPC  H17R 8736   6.440   5.542   5.281  0.1457  0.1537 -0.1386
   91SAPC  H17S 8737   6.457   5.719   5.331 -2.8177  0.8555  0.9436
   91SAPC  C218 8738   6.369   5.673   5.139  0.6873  0.3631 -0.0518
   91SAPC  H18R 8739   6.305   5.763   5.134 -0.3417 -0.3487  0.0045
   91SAPC  H18S 8740   6.313   5.581   5.111 -1.8133  1.5261  0.8147
   91SAPC  C219 8741   6.495   5.699   5.050 -0.3932  0.0496 -0.3084
   91SAPC  H19R 8742   6.468   5.735   4.948  0.0024 -1.5607 -1.0124
   91SAPC  H19S 8743   6.550   5.605   5.028  2.4241  1.8649 -1.5351
   91SAPC  C220 8744   6.594   5.804   5.095  0.3886 -0.0784  0.1173
   91SAPC  H20R 8745   6.682   5.813   5.029  0.6086  2.5704  0.6406
   91SAPC  H20S 8746   6.631   5.769   5.194  0.4127 -0.6795 -0.1004
   91SAPC  H20T 8747   6.552   5.905   5.117 -1.2139 -1.2226  2.8245
   91SAPC   C33 8748   6.152   5.463   6.411  0.0697 -0.1281 -0.1681
   91SAPC   H3X 8749   6.063   5.519   6.448  0.2607  0.0839 -0.0270
   91SAPC   H3Y 8750   6.106   5.373   6.366  0.2192 -0.5832  0.5760
   91SAPC   C34 8751   6.231   5.552   6.307  0.2546  0.6985 -0.7567
   91SAPC   H4X 8752   6.262   5.644   6.362  0.5137 -0.1123  0.4842
   91SAPC   H4Y 8753   6.159   5.580   6.227 -0.0566  1.9251 -0.0720
   91SAPC   C35 8754   6.357   5.482   6.239  0.1177 -0.5764  0.6226
   91SAPC   H5X 8755   6.434   5.433   6.303  1.5377  0.3227 -0.3288
   91SAPC   H5Y 8756   6.402   5.575   6.198 -0.0253 -0.8754 -0.2354
   91SAPC   C36 8757   6.310   5.389   6.123 -0.5556  0.0819  0.1002
   91SAPC   H6X 8758   6.207   5.412   6.089 -0.2533 -0.6962 -1.3994
   91SAPC   H6Y 8759   6.308   5.285   6.161 -0.0098 -1.0514 -2.7806
   91SAPC   C37 8760   6.399   5.396   6.003 -0.5101 -0.1651  0.1233
   91SAPC   H7X 8761   6.505   5.379   6.033 -0.9954  1.6013  3.2977
   91SAPC   H7Y 8762   6.393   5.502   5.967  1.0190  0.0802  0.5377
   91SAPC   C38 8763   6.353   5.301   5.899 -0.7962 -0.3091  0.1562
   91SAPC   H8X 8764   6.246   5.323   5.875 -0.6116 -0.2788 -0.6910
   91SAPC   H8Y 8765   6.365   5.198   5.936 -1.3865 -1.9344 -3.6495
   91SAPC   C39 8766   6.433   5.306   5.768  0.2902  0.0679 -0.0210
   91SAPC   H9X 8767   6.524   5.242   5.777 -0.1117 -0.5378 -0.2317
   91SAPC   H9Y 8768   6.463   5.413   5.764  2.5540 -0.4156  1.6380
   91SAPC  C310 8769   6.356   5.275   5.639 -0.2260 -0.5543  1.3941
   91SAPC  H10X 8770   6.294   5.362   5.608 -1.2886 -1.7498  0.0789
   91SAPC  H10Y 8771   6.295   5.185   5.664  0.1701 -1.0226  0.6934
   91SAPC  C311 8772   6.438   5.237   5.516 -0.4455  0.6290 -0.5330
   91SAPC  H11X 8773   6.504   5.150   5.532 -0.9473  0.6024  1.5983
   91SAPC  H11Y 8774   6.507   5.322   5.499 -2.1465  1.9804 -0.9540
   91SAPC  C312 8775   6.361   5.233   5.383  0.1729  0.6459  0.1310
   91SAPC  H12X 8776   6.319   5.335   5.373 -0.5714  0.4706  1.2162
   91SAPC  H12Y 8777   6.285   5.152   5.391 -0.0642  0.6544 -1.6362
   91SAPC  C313 8778   6.449   5.200   5.257  0.0803 -0.2835 -0.4539
   91SAPC  H13X 8779   6.481   5.094   5.264 -0.0004 -0.3457 -1.0624
   91SAPC  H13Y 8780   6.539   5.265   5.256  1.0879 -1.6491 -0.7363
   91SAPC  C314 8781   6.383   5.230   5.117 -0.1350 -0.2520 -0.2303
   91SAPC  H14X 8782   6.371   5.340   5.107  0.5462 -0.1087  0.4779
   91SAPC  H14Y 8783   6.284   5.180   5.108 -0.1294  0.1724 -4.1576
   91SAPC  C315 8784   6.474   5.195   4.998 -0.6913 -0.8200  0.0255
   91SAPC  H15X 8785   6.422   5.215   4.902 -1.8099 -1.0469  0.5622
   91SAPC  H15Y 8786   6.474   5.084   4.999 -1.0574 -0.8163  0.9320
   91SAPC  C316 8787   6.610   5.258   5.007  0.2374  0.1117 -0.1532
   91SAPC  H16X 8788   6.679   5.196   5.068 -0.9527  1.2682  2.5198
   91SAPC  H16Y 8789   6.599   5.360   5.049  0.7789 -0.0372  0.3599
   91SAPC  C317 8790   6.669   5.276   4.871  0.2871 -0.1987 -0.3564
   91SAPC  H17X 8791   6.643   5.194   4.801  0.7859 -0.1611 -0.5878
   91SAPC  H17Y 8792   6.778   5.273   4.893  0.5705  2.5346 -0.9703
   91SAPC  C318 8793   6.641   5.414   4.802  0.0123  0.0196  0.5689
   91SAPC  H18X 8794   6.653   5.496   4.876 -0.7603 -0.1428  0.8784
   91SAPC  H18Y 8795   6.532   5.419   4.783 -0.2486 -1.7697  1.4239
   91SAPC  H18Z 8796   6.700   5.433   4.710  0.1578  0.4317  0.7436
   92SAPC     N 8797   4.557   6.522   7.273  0.2829  0.1983  0.5966
   92SAPC   C12 8798   4.531   6.379   7.215 -0.2009 -0.4209  0.3467
   92SAPC  H12A 8799   4.523   6.309   7.297  0.5069 -2.4421 -1.2255
   92SAPC  H12B 8800   4.616   6.348   7.156  0.8582  1.4173  0.8298
   92SAPC   C13 8801   4.453   6.552   7.372  0.2006  0.0786 -0.4851
   92SAPC  H13A 8802   4.449   6.656   7.403  0.7977  0.1036 -0.4716
   92SAPC  H13B 8803   4.358   6.526   7.330  0.4699 -0.8869 -0.5116
   92SAPC  H13C 8804   4.460   6.484   7.456 -3.0787  0.3136  0.0969
   92SAPC   C14 8805   4.691   6.522   7.341 -0.0964 -0.2412  1.1455
   92SAPC  H14A 8806   4.705   6.613   7.398 -1.0306 -0.1895  1.3134
   92SAPC  H14B 8807   4.697   6.449   7.421 -2.0204 -1.4041  0.2902
   92SAPC  H14C 8808   4.772   6.497   7.274  0.8070 -0.1934  2.1747
   92SAPC   C15 8809   4.562   6.616   7.159  0.8384 -1.1448  0.1257
   92SAPC  H15A 8810   4.462   6.621   7.118  1.3876 -0.9081 -1.2193
   92SAPC  H15B 8811   4.579   6.717   7.194 -0.0695 -0.8398 -0.2839
   92SAPC  H15C 8812   4.641   6.594   7.089  2.1294 -0.2038  1.2179
   92SAPC   C11 8813   4.403   6.368   7.126  0.2112 -0.4132 -0.3521
   92SAPC  H11A 8814   4.403   6.265   7.083 -1.3717 -0.2923 -0.6947
   92SAPC  H11B 8815   4.408   6.442   7.044 -0.1810 -2.0040 -1.8676
   92SAPC     P 8816   4.210   6.279   7.276  0.1173  0.2816  0.0851
   92SAPC   O13 8817   4.310   6.190   7.343 -0.1346 -0.0207  0.3041
   92SAPC   O14 8818   4.090   6.330   7.353  0.4708  0.0459 -0.4656
   92SAPC   O12 8819   4.286   6.399   7.205  0.1578  0.1177  0.8909
   92SAPC   O11 8820   4.163   6.199   7.156  0.2105  0.1976  0.0436
   92SAPC    C1 8821   4.053   6.260   7.076 -0.4082 -0.6968 -0.1348
   92SAPC    HA 8822   3.986   6.179   7.039 -0.3606 -0.0914 -1.6314
   92SAPC    HB 8823   3.989   6.332   7.131  0.5085  1.7399 -2.0780
   92SAPC    C2 8824   4.097   6.330   6.946 -0.2897  0.1171 -0.0963
   92SAPC    HS 8825   4.163   6.418   6.962  1.8849 -1.8638  2.8620
   92SAPC   O21 8826   3.982   6.366   6.866 -0.3105 -0.4421  0.1454
   92SAPC   C21 8827   3.935   6.486   6.905  0.3534  0.3506  0.0695
   92SAPC   O22 8828   3.984   6.565   6.982  0.0355 -0.4403 -0.0672
   92SAPC   C22 8829   3.803   6.522   6.821  0.0803  0.5206 -0.1876
   92SAPC   H2R 8830   3.757   6.421   6.810  1.8075 -0.2683 -0.4514
   92SAPC   H2S 8831   3.743   6.587   6.889  0.0483 -0.2689  0.5427
   92SAPC    C3 8832   4.181   6.231   6.857 -0.1504  0.5250  0.0518
   92SAPC    HX 8833   4.106   6.152   6.836  0.5555 -0.2551  0.4245
   92SAPC    HY 8834   4.267   6.195   6.917  0.6599 -1.6088 -2.1989
   92SAPC   O31 8835   4.236   6.295   6.741 -0.4463 -0.1125  0.0217
   92SAPC   C31 8836   4.173   6.276   6.624 -0.3238  0.4676 -0.0274
   92SAPC   O32 8837   4.091   6.186   6.604 -0.2169 -0.5703  0.3678
   92SAPC   C32 8838   4.238   6.364   6.516 -0.2578 -0.4671  0.8463
   92SAPC   H2X 8839   4.348   6.361   6.530  0.0562  0.7899 -0.9751
   92SAPC   H2Y 8840   4.216   6.469   6.541  0.5422  0.2461 -1.2049
   92SAPC   C23 8841   3.830   6.590   6.685  0.7002 -0.1701 -0.5260
   92SAPC   H3R 8842   3.889   6.683   6.700  0.3884  0.0211 -0.4826
   92SAPC   H3S 8843   3.734   6.632   6.648  1.0785 -0.0031 -1.3575
   92SAPC   C24 8844   3.892   6.494   6.583  0.4763  0.3469  0.8235
   92SAPC   H4R 8845   3.819   6.410   6.584 -0.8399  1.4480  0.3566
   92SAPC   H4S 8846   3.993   6.460   6.610  1.2942  0.9078 -1.2854
   92SAPC   C25 8847   3.918   6.555   6.446  0.4939 -0.3636  0.6751
   92SAPC   H5R 8848   4.025   6.571   6.426  0.5475  0.0950  1.3225
   92SAPC   C26 8849   3.824   6.578   6.349  0.2585 -0.1179 -0.7056
   92SAPC   H6R 8850   3.863   6.627   6.259  2.3615 -1.7504 -0.7696
   92SAPC   C27 8851   3.672   6.580   6.374 -0.3433  0.4235  0.3593
   92SAPC   H7R 8852   3.651   6.524   6.467 -2.4397 -3.7382 -2.2919
   92SAPC   H7S 8853   3.629   6.506   6.303  0.2516  2.0576 -1.8016
   92SAPC   C28 8854   3.624   6.721   6.358  0.3556  0.1644  0.2606
   92SAPC   H8R 8855   3.640   6.791   6.441 -0.2129  0.3575  0.2104
   92SAPC   C29 8856   3.538   6.757   6.261  0.2341 -0.0268 -0.4718
   92SAPC   H9R 8857   3.505   6.861   6.254 -0.2596 -0.1596 -0.2030
   92SAPC  C210 8858   3.487   6.665   6.154 -0.2231 -0.6356  0.5459
   92SAPC  H10R 8859   3.429   6.739   6.094  1.2818 -0.1499 -0.3787
   92SAPC  H10S 8860   3.410   6.599   6.197 -1.5991 -0.1326 -1.0334
   92SAPC  C211 8861   3.583   6.600   6.062 -0.5254  0.7802 -0.2018
   92SAPC  H11R 8862   3.663   6.655   6.009 -0.5212  0.8118 -0.1624
   92SAPC  C212 8863   3.590   6.466   6.045  0.1404  0.6555 -0.0940
   92SAPC  H12R 8864   3.653   6.418   5.969  0.6811 -0.9355  1.2795
   92SAPC  C213 8865   3.505   6.361   6.111  0.6977  0.3649 -0.1675
   92SAPC  H13R 8866   3.455   6.392   6.205 -1.4132 -2.0964 -0.3762
   92SAPC  H13S 8867   3.577   6.279   6.135  0.2780  0.7787  2.8870
   92SAPC  C214 8868   3.388   6.317   6.021  0.4589  0.0507 -0.4779
   92SAPC  H14R 8869   3.334   6.403   5.978 -2.6075 -1.7302 -0.5293
   92SAPC  C215 8870   3.342   6.200   5.983 -0.7121  0.0742 -0.2257
   92SAPC  H15R 8871   3.251   6.195   5.921 -0.7305 -2.8955 -0.1130
   92SAPC  C216 8872   3.394   6.064   6.034  0.2075  0.1714  0.2670
   92SAPC  H16R 8873   3.476   6.081   6.107  0.2582 -1.1279  0.5460
   92SAPC  H16S 8874   3.443   6.004   5.954 -1.3902 -2.1139  0.8797
   92SAPC  C217 8875   3.291   5.963   6.090 -0.5697 -0.3447  0.6720
   92SAPC  H17R 8876   3.337   5.862   6.102  0.1302  0.0527  1.4195
   92SAPC  H17S 8877   3.218   5.941   6.009 -2.1879 -0.1784  2.0372
   92SAPC  C218 8878   3.221   6.008   6.212 -0.2876  0.5167 -0.1594
   92SAPC  H18R 8879   3.180   5.914   6.255  1.4104 -0.4885 -0.6349
   92SAPC  H18S 8880   3.143   6.078   6.174 -0.3053 -0.2413 -1.5820
   92SAPC  C219 8881   3.310   6.073   6.328  0.3603 -0.3064  0.2891
   92SAPC  H19R 8882   3.337   6.177   6.301  0.2679 -0.1526  0.7824
   92SAPC  H19S 8883   3.399   6.009   6.342  0.0643 -0.7591  0.1541
   92SAPC  C220 8884   3.225   6.080   6.453 -0.3549 -0.2982  0.2175
   92SAPC  H20R 8885   3.270   6.149   6.528 -0.1102 -0.4985  0.2575
   92SAPC  H20S 8886   3.220   5.977   6.496 -0.9437 -0.2525  0.2696
   92SAPC  H20T 8887   3.124   6.121   6.431 -0.5549  0.2238  1.9868
   92SAPC   C33 8888   4.193   6.328   6.373  0.0369 -0.9714  0.6036
   92SAPC   H3X 8889   4.086   6.359   6.370  0.8848  2.3437 -0.1944
   92SAPC   H3Y 8890   4.201   6.222   6.340  0.1114 -0.4492 -1.1779
   92SAPC   C34 8891   4.260   6.408   6.258 -0.1913 -0.5205 -0.3559
   92SAPC   H4X 8892   4.358   6.361   6.235 -0.0681 -0.3395 -0.2080
   92SAPC   H4Y 8893   4.261   6.514   6.290  0.9401 -0.6257 -0.0223
   92SAPC   C35 8894   4.184   6.390   6.123 -0.2031  0.0848 -0.3845
   92SAPC   H5X 8895   4.078   6.422   6.127  0.4477  2.4207 -0.1502
   92SAPC   H5Y 8896   4.176   6.280   6.114  0.9216 -0.1697  1.2508
   92SAPC   C36 8897   4.262   6.440   5.999  0.4350  0.5200  0.1856
   92SAPC   H6X 8898   4.243   6.359   5.925 -2.3547  0.6796  0.6395
   92SAPC   H6Y 8899   4.369   6.439   6.029  0.3416  0.6885  0.5214
   92SAPC   C37 8900   4.204   6.567   5.948  0.0378 -0.0240  0.2348
   92SAPC   H7X 8901   4.184   6.632   6.036  0.1768 -1.8098  1.6286
   92SAPC   H7Y 8902   4.107   6.550   5.898  1.5510 -0.3805 -2.8154
   92SAPC   C38 8903   4.302   6.629   5.845 -0.6894 -0.4763  0.2234
   92SAPC   H8X 8904   4.396   6.623   5.903 -1.1425 -1.5076  0.8739
   92SAPC   H8Y 8905   4.268   6.731   5.817  1.4158 -0.2479 -1.7777
   92SAPC   C39 8906   4.323   6.563   5.713 -0.0867  0.0849  0.6280
   92SAPC   H9X 8907   4.223   6.563   5.664 -0.1850  0.4300  0.8195
   92SAPC   H9Y 8908   4.346   6.455   5.724  1.2128  0.0472 -1.8000
   92SAPC  C310 8909   4.421   6.638   5.623 -0.2387 -0.0433 -0.3335
   92SAPC  H10X 8910   4.525   6.636   5.662 -1.3445  0.4513  3.0267
   92SAPC  H10Y 8911   4.374   6.738   5.621 -0.6856 -0.2601 -1.6336
   92SAPC  C311 8912   4.418   6.584   5.479  0.0157  0.4529  0.3629
   92SAPC  H11X 8913   4.313   6.584   5.442  1.2191 -0.0621 -3.5931
   92SAPC  H11Y 8914   4.459   6.481   5.470 -0.3675  0.1775  1.5778
   92SAPC  C312 8915   4.498   6.670   5.381  0.2022 -0.0752  0.4301
   92SAPC  H12X 8916   4.597   6.712   5.408  0.6515  0.8556 -2.3391
   92SAPC  H12Y 8917   4.443   6.758   5.341  1.4647  0.7673  0.4808
   92SAPC  C313 8918   4.537   6.596   5.254 -0.0460  0.0254  0.5733
   92SAPC  H13X 8919   4.607   6.512   5.277 -2.4213 -2.9643 -2.2307
   92SAPC  H13Y 8920   4.607   6.661   5.198 -1.2117  2.4939  1.8314
   92SAPC  C314 8921   4.422   6.540   5.161 -0.7176  0.1517 -0.7360
   92SAPC  H14X 8922   4.391   6.634   5.111  0.3556  0.6034 -0.5854
   92SAPC  H14Y 8923   4.346   6.488   5.222  0.8342 -0.6611  0.5764
   92SAPC  C315 8924   4.464   6.435   5.054 -0.7721  0.3315  0.3263
   92SAPC  H15X 8925   4.465   6.336   5.103  1.9170 -1.2050 -2.5151
   92SAPC  H15Y 8926   4.569   6.461   5.027 -0.5396 -2.4397 -1.8996
   92SAPC  C316 8927   4.371   6.442   4.930 -0.1694  0.6529  0.6367
   92SAPC  H16X 8928   4.401   6.370   4.851 -0.9410  2.0083 -0.9520
   92SAPC  H16Y 8929   4.387   6.546   4.896 -0.4676  1.9822  4.1201
   92SAPC  C317 8930   4.223   6.433   4.952 -0.6170  0.1514 -0.6080
   92SAPC  H17X 8931   4.159   6.465   4.867 -2.5397 -1.6217  0.0609
   92SAPC  H17Y 8932   4.190   6.508   5.027 -1.4903  2.4141 -3.0823
   92SAPC  C318 8933   4.180   6.296   4.994  0.3235 -0.5518 -0.4818
   92SAPC  H18X 8934   4.072   6.290   5.017  0.1805  1.1729 -0.5746
   92SAPC  H18Y 8935   4.233   6.269   5.088 -0.1539  3.1784  1.0282
   92SAPC  H18Z 8936   4.203   6.217   4.919  1.5642 -0.4010 -0.2879
   93SAPC     N 8937   0.216   0.278   7.522 -0.2886  0.4464  0.2592
   93SAPC   C12 8938   0.276   0.412   7.466 -0.3658  0.3821  0.0152
   93SAPC  H12A 8939   0.201   0.464   7.408  0.1792  0.6897 -0.4268
   93SAPC  H12B 8940   0.346   0.390   7.387 -0.6792  0.8418 -0.3977
   93SAPC   C13 8941   0.332   0.181   7.547  0.1322 -0.2206 -0.8210
   93SAPC  H13A 8942   0.309   0.110   7.626  1.6986 -0.3205 -0.4196
   93SAPC  H13B 8943   0.358   0.127   7.457  1.5349 -1.2556  0.1503
   93SAPC  H13C 8944   0.418   0.233   7.586 -0.1991 -1.1529  1.3360
   93SAPC   C14 8945   0.132   0.282   7.642 -0.6294  1.1182  0.4404
   93SAPC  H14A 8946   0.168   0.357   7.711 -0.9514 -0.2109  2.1193
   93SAPC  H14B 8947   0.028   0.298   7.616 -0.0759  2.1130 -1.3261
   93SAPC  H14C 8948   0.134   0.184   7.686  0.4519 -0.1524 -2.1935
   93SAPC   C15 8949   0.132   0.210   7.422 -0.3999 -0.2049 -0.2493
   93SAPC  H15A 8950   0.187   0.194   7.331  2.0337  1.7630  0.7605
   93SAPC  H15B 8951   0.094   0.115   7.457 -1.3609 -0.3863 -1.6833
   93SAPC  H15C 8952   0.051   0.279   7.407  0.7707  1.7986  1.9643
   93SAPC   C11 8953   0.337   0.509   7.571 -0.6469 -0.3746  0.1366
   93SAPC  H11A 8954   0.372   0.599   7.516 -1.8240  0.5183  0.7941
   93SAPC  H11B 8955   0.422   0.467   7.628  1.0378  1.8674 -0.5871
   93SAPC     P 8956   0.122   0.648   7.664 -0.0163 -0.2604  0.0408
   93SAPC   O13 8957   0.009   0.584   7.728 -0.3554  0.0451 -0.0889
   93SAPC   O14 8958   0.149   0.788   7.702  0.0643 -0.5096 -0.1079
   93SAPC   O12 8959   0.248   0.545   7.676  0.1268  0.0850 -0.1030
   93SAPC   O11 8960   0.088   0.635   7.507 -0.3715 -0.8752 -0.5601
   93SAPC    C1 8961  -0.044   0.614   7.458 -0.1787 -0.1812 -0.0462
   93SAPC    HA 8962  -0.072   0.506   7.462 -1.9734  0.2776  1.0087
   93SAPC    HB 8963  -0.120   0.655   7.528 -1.7560 -2.6875 -0.1316
   93SAPC    C2 8964  -0.063   0.671   7.313  0.2026  0.3373 -0.7732
   93SAPC    HS 8965  -0.172   0.655   7.300 -0.2862  0.4666  2.3772
   93SAPC   O21 8966   0.026   0.598   7.228  0.5877  0.5518 -0.2288
   93SAPC   C21 8967  -0.001   0.468   7.207  0.4736 -0.4708  0.4884
   93SAPC   O22 8968  -0.092   0.404   7.261  0.1188 -0.2311  0.2610
   93SAPC   C22 8969   0.108   0.415   7.123 -0.2273 -0.5320 -0.4341
   93SAPC   H2R 8970   0.166   0.484   7.058 -0.2171 -0.4732 -0.3629
   93SAPC   H2S 8971   0.183   0.363   7.186  2.4429  2.0693 -1.2422
   93SAPC    C3 8972  -0.040   0.822   7.303  0.5691  0.2716 -0.9062
   93SAPC    HX 8973   0.059   0.837   7.352 -0.3124 -0.6045  1.2592
   93SAPC    HY 8974  -0.118   0.876   7.362  1.6952 -1.1195  2.0717
   93SAPC   O31 8975  -0.038   0.864   7.169  0.1688 -1.0003 -0.4243
   93SAPC   C31 8976   0.013   0.990   7.152 -0.0601  0.2280  0.1877
   93SAPC   O32 8977   0.039   1.064   7.241 -0.6262 -0.6409  0.0128
   93SAPC   C32 8978   0.044   1.021   6.999 -0.5839  0.1614  0.5741
   93SAPC   H2X 8979   0.072   0.919   6.964 -0.9883  0.6257 -1.2144
   93SAPC   H2Y 8980   0.131   1.090   6.990 -1.3913  1.1039 -0.1680
   93SAPC   C23 8981   0.053   0.318   7.023 -0.0687  0.2192  0.2406
   93SAPC   H3R 8982  -0.055   0.333   7.006 -0.3906  1.9353  3.0889
   93SAPC   H3S 8983   0.061   0.220   7.076  1.6479  1.2810  2.1212
   93SAPC   C24 8984   0.126   0.313   6.881 -0.1884 -0.2312  0.2323
   93SAPC   H4R 8985   0.135   0.418   6.846 -1.0245 -0.2749 -0.1296
   93SAPC   H4S 8986   0.071   0.256   6.803  1.0196 -2.0389  0.6205
   93SAPC   C25 8987   0.266   0.261   6.897  0.5211  0.5284 -0.1055
   93SAPC   H5R 8988   0.303   0.252   7.000 -0.2805 -0.6315  0.0975
   93SAPC   C26 8989   0.347   0.225   6.797  0.3169 -0.3840 -0.0851
   93SAPC   H6R 8990   0.441   0.172   6.814  2.6835  2.9906 -1.5882
   93SAPC   C27 8991   0.308   0.228   6.651  0.4592  0.2609 -0.0400
   93SAPC   H7R 8992   0.206   0.273   6.640  1.4079  2.9967  1.3983
   93SAPC   H7S 8993   0.295   0.125   6.612 -1.3251  0.5142 -0.2217
   93SAPC   C28 8994   0.405   0.311   6.569  0.5407  0.0325  0.4193
   93SAPC   H8R 8995   0.447   0.404   6.609  0.6313  1.0371 -1.8694
   93SAPC   C29 8996   0.450   0.278   6.448 -0.0552 -0.2970 -0.4731
   93SAPC   H9R 8997   0.527   0.341   6.401 -0.0328 -1.1265 -1.6062
   93SAPC  C210 8998   0.390   0.172   6.361  0.8796  0.0540  0.1400
   93SAPC  H10R 8999   0.357   0.227   6.270  0.3506 -1.1935 -0.4530
   93SAPC  H10S 9000   0.299   0.126   6.405  0.6502  1.2796  0.9869
   93SAPC  C211 9001   0.479   0.061   6.308  0.5576  0.2166  0.5075
   93SAPC  H11R 9002   0.550   0.018   6.381 -0.1532  1.7815  2.1817
   93SAPC  C212 9003   0.495   0.024   6.177 -0.1002 -0.0512 -0.2282
   93SAPC  H12R 9004   0.574  -0.049   6.158  1.6805  1.7330  0.0265
   93SAPC  C213 9005   0.431   0.085   6.053 -0.4173  0.1705 -0.0261
   93SAPC  H13R 9006   0.339   0.147   6.069 -0.2553  0.4483 -0.1605
   93SAPC  H13S 9007   0.389   0.004   5.989 -1.3170 -0.4020  1.2448
   93SAPC  C214 9008   0.533   0.175   5.989 -0.2144  0.0093 -0.0759
   93SAPC  H14R 9009   0.556   0.272   6.035  1.4942  0.1107 -1.0687
   93SAPC  C215 9010   0.610   0.138   5.879  0.5126  0.0484 -0.0908
   93SAPC  H15R 9011   0.693   0.202   5.850  1.4451 -1.7682 -1.6664
   93SAPC  C216 9012   0.599   0.019   5.790 -0.9967  0.2770  0.0227
   93SAPC  H16R 9013   0.611  -0.080   5.839  0.7781 -0.7729 -2.3394
   93SAPC  H16S 9014   0.681   0.027   5.715 -1.1461  0.4837 -0.1196
   93SAPC  C217 9015   0.471   0.007   5.706  0.2564  0.6406 -0.6454
   93SAPC  H17R 9016   0.456   0.108   5.663  0.6167  0.8260 -0.3358
   93SAPC  H17S 9017   0.390  -0.030   5.773  0.2260  1.0485 -0.4569
   93SAPC  C218 9018   0.472  -0.082   5.579 -0.9675 -0.5050  0.1420
   93SAPC  H18R 9019   0.375  -0.057   5.531 -1.1906 -2.0117 -0.2165
   93SAPC  H18S 9020   0.470  -0.191   5.595  0.2822 -0.5279  0.2345
   93SAPC  C219 9021   0.580  -0.049   5.478 -0.0160 -0.2941 -0.9624
   93SAPC  H19R 9022   0.679  -0.079   5.518 -0.0987  0.2429 -0.3365
   93SAPC  H19S 9023   0.584   0.059   5.452  0.3861 -0.8616 -3.5205
   93SAPC  C220 9024   0.565  -0.118   5.343 -0.2984 -0.3035  0.2590
   93SAPC  H20R 9025   0.647  -0.068   5.286  0.5216  0.2784  1.8749
   93SAPC  H20S 9026   0.470  -0.084   5.296  0.4061  1.5579  0.1035
   93SAPC  H20T 9027   0.589  -0.226   5.349 -0.1151 -0.4347 -2.0712
   93SAPC   C33 9028  -0.080   1.076   6.928  0.2766  0.2098 -0.6307
   93SAPC   H3X 9029  -0.114   1.172   6.973  0.4078  1.0362 -2.2426
   93SAPC   H3Y 9030  -0.172   1.014   6.933 -0.9852  1.9198 -1.8464
   93SAPC   C34 9031  -0.063   1.091   6.777 -0.1982 -0.3555 -0.0306
   93SAPC   H4X 9032  -0.022   0.993   6.744 -1.9788 -1.0324 -0.3319
   93SAPC   H4Y 9033   0.012   1.168   6.751 -2.2429  1.0208 -2.2908
   93SAPC   C35 9034  -0.183   1.122   6.696  0.7699 -0.4145  0.6074
   93SAPC   H5X 9035  -0.218   1.223   6.727  0.1560 -0.3451 -0.2697
   93SAPC   H5Y 9036  -0.265   1.049   6.710  1.9342 -2.0346 -0.6278
   93SAPC   C36 9037  -0.147   1.134   6.552 -0.0734 -0.1726  0.0968
   93SAPC   H6X 9038  -0.125   1.241   6.531 -3.6542  0.5394 -0.6880
   93SAPC   H6Y 9039  -0.244   1.115   6.500  0.2848  0.9023 -1.0151
   93SAPC   C37 9040  -0.045   1.040   6.496  0.1459 -0.3609 -0.1576
   93SAPC   H7X 9041  -0.073   0.941   6.536 -1.9681 -0.0426 -0.7401
   93SAPC   H7Y 9042   0.062   1.056   6.521 -0.7010  3.6053  1.7897
   93SAPC   C38 9043  -0.050   1.028   6.345  0.5508 -0.5794  0.1145
   93SAPC   H8X 9044  -0.044   1.133   6.307 -0.7076 -0.5419 -0.0342
   93SAPC   H8Y 9045  -0.144   0.982   6.307  0.8294 -0.2277 -1.0517
   93SAPC   C39 9046   0.066   0.939   6.301 -0.1811 -0.2180 -0.5239
   93SAPC   H9X 9047   0.051   0.832   6.328 -1.9985 -0.4164 -2.1365
   93SAPC   H9Y 9048   0.164   0.965   6.346 -1.2194  0.6038  1.3925
   93SAPC  C310 9049   0.084   0.934   6.148  0.0264 -0.3706  0.3343
   93SAPC  H10X 9050   0.169   0.864   6.130  1.5862  0.9845  1.9849
   93SAPC  H10Y 9051   0.130   1.030   6.115  1.9354 -0.6479  2.0290
   93SAPC  C311 9052  -0.036   0.902   6.054  0.2675 -0.4939 -0.5481
   93SAPC  H11X 9053  -0.129   0.958   6.076  0.9143  0.1398  0.6796
   93SAPC  H11Y 9054  -0.064   0.796   6.075  1.7068 -0.5422  1.4485
   93SAPC  C312 9055   0.006   0.917   5.913  0.3846 -0.2876 -0.6736
   93SAPC  H12X 9056   0.091   0.847   5.902 -1.2686 -2.5235  0.1398
   93SAPC  H12Y 9057   0.044   1.019   5.889 -0.5153  0.5784  1.3967
   93SAPC  C313 9058  -0.107   0.872   5.819 -0.4263 -0.3132  1.1420
   93SAPC  H13X 9059  -0.198   0.932   5.840 -1.4807 -1.1382 -0.8762
   93SAPC  H13Y 9060  -0.137   0.766   5.833 -0.0414 -0.4270  1.1190
   93SAPC  C314 9061  -0.053   0.889   5.675  0.7029  0.6478 -0.7589
   93SAPC  H14X 9062   0.026   0.811   5.661  0.6321  0.5575 -0.6512
   93SAPC  H14Y 9063  -0.013   0.993   5.669  1.4712  0.5594  1.6506
   93SAPC  C315 9064  -0.151   0.878   5.554 -0.0397  0.5027  0.3464
   93SAPC  H15X 9065  -0.095   0.923   5.469  1.0083  0.6883  1.1141
   93SAPC  H15Y 9066  -0.241   0.939   5.575 -1.7497 -1.2404 -1.5569
   93SAPC  C316 9067  -0.188   0.731   5.522  0.2715  0.4355 -0.4404
   93SAPC  H16X 9068  -0.241   0.690   5.611 -1.0612  1.4175 -0.7537
   93SAPC  H16Y 9069  -0.105   0.663   5.494 -0.1933  0.2562 -1.4171
   93SAPC  C317 9070  -0.286   0.717   5.410  0.2267 -0.1727 -0.6132
   93SAPC  H17X 9071  -0.241   0.745   5.312 -0.7707  2.8339 -0.3121
   93SAPC  H17Y 9072  -0.369   0.784   5.442  1.6021  1.1563  0.3329
   93SAPC  C318 9073  -0.340   0.576   5.399  0.4113  0.5148  0.1169
   93SAPC  H18X 9074  -0.391   0.547   5.494  1.0398  0.4191  0.4333
   93SAPC  H18Y 9075  -0.267   0.493   5.387 -1.6224 -1.3790  0.1858
   93SAPC  H18Z 9076  -0.415   0.570   5.317  1.0348 -1.1626 -0.3808
   94SAPC     N 9077   3.916   1.907   7.605 -0.1200 -0.7322  0.1143
   94SAPC   C12 9078   3.955   1.899   7.459 -0.0866  0.2815 -0.0578
   94SAPC  H12A 9079   3.867   1.899   7.396 -0.0080  4.6585 -0.4709
   94SAPC  H12B 9080   4.012   1.808   7.443  0.2221  0.3854  0.4483
   94SAPC   C13 9081   4.042   1.934   7.683 -0.0418  0.1340 -0.5492
   94SAPC  H13A 9082   4.083   2.025   7.644 -1.9746  0.7391 -1.2988
   94SAPC  H13B 9083   4.024   1.938   7.790 -0.6644 -2.3243 -0.4822
   94SAPC  H13C 9084   4.114   1.855   7.667 -0.6543 -0.5741  0.0648
   94SAPC   C14 9085   3.820   2.026   7.633 -0.2565 -0.2633 -0.7181
   94SAPC  H14A 9086   3.820   2.049   7.738  1.9743 -1.6444 -0.3623
   94SAPC  H14B 9087   3.858   2.107   7.573 -1.2232  0.0067 -0.9963
   94SAPC  H14C 9088   3.723   2.011   7.587 -0.6008  3.6513 -1.5757
   94SAPC   C15 9089   3.849   1.780   7.652 -0.4545  0.1977  0.2014
   94SAPC  H15A 9090   3.758   1.759   7.599 -1.4391 -2.1356  2.5655
   94SAPC  H15B 9091   3.908   1.692   7.628  0.3189  0.5187  0.8649
   94SAPC  H15C 9092   3.836   1.789   7.759 -0.0411  0.4296  0.2348
   94SAPC   C11 9093   4.047   2.009   7.400 -0.2389 -0.7003 -0.7562
   94SAPC  H11A 9094   3.997   2.107   7.418  1.1011  0.0883 -1.1364
   94SAPC  H11B 9095   4.036   1.995   7.290 -1.2149  0.4841 -0.8337
   94SAPC     P 9096   4.292   1.931   7.372 -0.1908  0.0848 -0.1634
   94SAPC   O13 9097   4.415   1.959   7.444 -0.3167 -0.4121  0.0680
   94SAPC   O14 9098   4.253   1.789   7.364  0.7417  0.0256 -0.1290
   94SAPC   O12 9099   4.179   2.008   7.446 -0.1543 -0.2192 -0.4939
   94SAPC   O11 9100   4.291   1.998   7.229 -0.4307 -0.1582 -0.7614
   94SAPC    C1 9101   4.385   1.947   7.130  0.0878 -0.5324  0.6147
   94SAPC    HA 9102   4.412   2.028   7.059 -2.0053 -0.5016 -0.2167
   94SAPC    HB 9103   4.477   1.896   7.166  0.6102 -1.1969 -1.5103
   94SAPC    C2 9104   4.313   1.838   7.044  0.7314  0.5977  0.1120
   94SAPC    HS 9105   4.292   1.748   7.106  0.4446 -0.5615 -1.5932
   94SAPC   O21 9106   4.403   1.801   6.942  0.2832 -0.2979 -0.0224
   94SAPC   C21 9107   4.361   1.692   6.868  0.7045 -0.6705 -0.5056
   94SAPC   O22 9108   4.264   1.622   6.896  0.0896 -0.2349  0.0086
   94SAPC   C22 9109   4.462   1.663   6.753 -0.1090  0.0853 -0.5736
   94SAPC   H2R 9110   4.430   1.709   6.657 -1.8121  1.4701  0.5950
   94SAPC   H2S 9111   4.564   1.699   6.780 -0.1311 -0.8942  0.9505
   94SAPC    C3 9112   4.178   1.899   6.993 -0.4230  0.4171  0.3213
   94SAPC    HX 9113   4.126   1.941   7.082  0.3556  1.0828  0.4808
   94SAPC    HY 9114   4.112   1.818   6.954  0.9190  0.2374 -1.7216
   94SAPC   O31 9115   4.200   2.003   6.892 -0.0209 -0.0839  0.2641
   94SAPC   C31 9116   4.184   1.963   6.766 -0.9657  0.1195  0.4438
   94SAPC   O32 9117   4.152   1.855   6.727  0.3367 -0.0062  0.1286
   94SAPC   C32 9118   4.205   2.086   6.672 -0.5666  0.4866  0.3933
   94SAPC   H2X 9119   4.268   2.167   6.716  0.0535  0.3628 -0.2512
   94SAPC   H2Y 9120   4.105   2.124   6.643 -0.7958  1.3919  2.2177
   94SAPC   C23 9121   4.483   1.510   6.725  1.2332  0.2748 -0.2031
   94SAPC   H3R 9122   4.384   1.461   6.713  2.8914 -3.5834  0.0922
   94SAPC   H3S 9123   4.522   1.477   6.824 -1.4362 -0.0098  0.8395
   94SAPC   C24 9124   4.572   1.465   6.611  0.1815 -0.3814  0.0373
   94SAPC   H4R 9125   4.675   1.476   6.650  1.3437 -1.2931 -2.5517
   94SAPC   H4S 9126   4.556   1.533   6.525  0.7643  0.0158  0.2388
   94SAPC   C25 9127   4.553   1.325   6.562 -0.5057  0.1766  0.2055
   94SAPC   H5R 9128   4.542   1.258   6.649  1.6036  0.1257  0.4963
   94SAPC   C26 9129   4.538   1.261   6.444 -0.3610 -0.6295  0.4555
   94SAPC   H6R 9130   4.509   1.155   6.442  1.3616 -1.1688  1.6179
   94SAPC   C27 9131   4.557   1.317   6.301  0.3904  0.5037  0.3282
   94SAPC   H7R 9132   4.642   1.273   6.245  1.1331  2.6263 -0.3080
   94SAPC   H7S 9133   4.587   1.424   6.309 -0.0079  0.6319  0.1150
   94SAPC   C28 9134   4.436   1.303   6.215  1.0807 -0.0378  0.3674
   94SAPC   H8R 9135   4.427   1.198   6.183  0.1036 -1.0544  3.6131
   94SAPC   C29 9136   4.344   1.389   6.166  0.5374  1.2752 -0.2069
   94SAPC   H9R 9137   4.266   1.350   6.099  1.3501  1.2795 -1.1960
   94SAPC  C210 9138   4.328   1.531   6.195 -0.4302  0.0295 -0.1177
   94SAPC  H10R 9139   4.354   1.580   6.099 -2.5638 -2.8977 -2.3486
   94SAPC  H10S 9140   4.400   1.568   6.272 -0.5169  1.8341 -0.8467
   94SAPC  C211 9141   4.188   1.572   6.246  0.1359  0.1090 -0.5719
   94SAPC  H11R 9142   4.183   1.593   6.354  0.5287 -0.0210 -0.5253
   94SAPC  C212 9143   4.077   1.579   6.171 -0.2726  0.0267  0.7836
   94SAPC  H12R 9144   3.980   1.601   6.216 -1.3298 -0.9440 -0.9105
   94SAPC  C213 9145   4.080   1.548   6.026 -0.3985  0.4121  0.2721
   94SAPC  H13R 9146   3.984   1.498   6.002  0.0910 -0.6461  0.4668
   94SAPC  H13S 9147   4.155   1.470   6.003 -1.8531 -1.3542  1.2616
   94SAPC  C214 9148   4.085   1.666   5.938 -0.1767  0.1701  0.1408
   94SAPC  H14R 9149   4.070   1.761   5.991  3.2957 -0.0650  1.8067
   94SAPC  C215 9150   4.129   1.656   5.809 -0.1807 -0.0060  0.2598
   94SAPC  H15R 9151   4.126   1.745   5.744 -1.8957 -0.3333 -0.1685
   94SAPC  C216 9152   4.163   1.529   5.733 -0.5587 -0.4127  0.1934
   94SAPC  H16R 9153   4.123   1.441   5.788  1.5467  0.2627  3.0682
   94SAPC  H16S 9154   4.272   1.511   5.740 -0.5495 -1.4510 -2.0416
   94SAPC  C217 9155   4.125   1.536   5.584  0.0892 -0.4852 -0.2292
   94SAPC  H17R 9156   4.148   1.437   5.540  2.9450 -0.5822  1.2479
   94SAPC  H17S 9157   4.196   1.603   5.533 -1.3200  0.0003 -1.6344
   94SAPC  C218 9158   3.985   1.584   5.563  0.4575  0.5433 -0.5630
   94SAPC  H18R 9159   3.973   1.694   5.570  0.8822  0.5760 -0.3110
   94SAPC  H18S 9160   3.913   1.548   5.640 -0.0401 -0.7435 -1.5912
   94SAPC  C219 9161   3.932   1.549   5.420 -0.0274 -0.0490  0.0182
   94SAPC  H19R 9162   3.850   1.619   5.396  1.0006  1.3423  0.3646
   94SAPC  H19S 9163   3.890   1.449   5.443  0.9143 -0.6951 -0.9559
   94SAPC  C220 9164   4.033   1.534   5.302 -0.5695  0.4455 -0.5533
   94SAPC  H20R 9165   4.118   1.468   5.329 -1.3450 -0.2361  0.3096
   94SAPC  H20S 9166   4.082   1.631   5.279 -1.3267  1.6097  2.2794
   94SAPC  H20T 9167   3.992   1.475   5.217  1.6016 -2.8356  0.4419
   94SAPC   C33 9168   4.271   2.024   6.547 -0.6074  0.3455  0.6810
   94SAPC   H3X 9169   4.207   1.946   6.501  1.1534 -0.4271 -0.5710
   94SAPC   H3Y 9170   4.375   1.997   6.575 -1.4039 -0.2627  3.4157
   94SAPC   C34 9171   4.279   2.133   6.440 -1.4099  0.2351  0.3061
   94SAPC   H4X 9172   4.379   2.150   6.395 -0.7363 -0.5453  1.4539
   94SAPC   H4Y 9173   4.261   2.228   6.494 -1.3368  0.3243  0.1735
   94SAPC   C35 9174   4.168   2.128   6.327 -0.5487  0.1294 -0.1482
   94SAPC   H5X 9175   4.196   2.214   6.263  0.1075  1.1727  1.4826
   94SAPC   H5Y 9176   4.078   2.143   6.390 -0.3589 -3.4790  1.2396
   94SAPC   C36 9177   4.165   2.000   6.242  1.0891  0.0366  0.5140
   94SAPC   H6X 9178   4.056   1.993   6.221  1.5055 -0.5002 -1.7123
   94SAPC   H6Y 9179   4.190   1.914   6.307  0.1040 -1.0975 -0.5361
   94SAPC   C37 9180   4.244   2.006   6.115 -0.5985  0.8142  0.2486
   94SAPC   H7X 9181   4.266   1.903   6.080 -1.4844  1.2776 -1.8381
   94SAPC   H7Y 9182   4.341   2.056   6.133  0.3587 -1.2548  1.1277
   94SAPC   C38 9183   4.169   2.077   5.993  0.1892 -0.0805 -0.2608
   94SAPC   H8X 9184   4.147   2.184   6.015 -1.4207 -0.4690  0.1162
   94SAPC   H8Y 9185   4.068   2.033   5.982 -1.0975  2.4536  0.6162
   94SAPC   C39 9186   4.237   2.055   5.852  0.1094 -0.0516  0.3122
   94SAPC   H9X 9187   4.272   1.953   5.827  0.4799  0.2158 -0.2855
   94SAPC   H9Y 9188   4.326   2.122   5.844 -0.4189  0.6571  0.2627
   94SAPC  C310 9189   4.142   2.101   5.733 -0.1111 -1.8771 -0.8939
   94SAPC  H10X 9190   4.130   2.211   5.735  1.9031 -1.6109 -1.3946
   94SAPC  H10Y 9191   4.049   2.044   5.755  0.2811 -2.0372  0.4985
   94SAPC  C311 9192   4.195   2.061   5.594  0.3555  0.2585 -0.0232
   94SAPC  H11X 9193   4.278   1.988   5.602 -2.3652 -2.8739  1.7999
   94SAPC  H11Y 9194   4.245   2.146   5.542 -0.1602  0.4606 -0.1925
   94SAPC  C312 9195   4.088   2.007   5.504  0.5076  0.6372 -0.5135
   94SAPC  H12X 9196   3.996   2.068   5.496  0.0159  0.0343  0.3972
   94SAPC  H12Y 9197   4.052   1.916   5.557  0.4288  0.7601 -0.3550
   94SAPC  C313 9198   4.139   1.989   5.362  0.0385  0.3747  0.3954
   94SAPC  H13X 9199   4.229   1.924   5.372 -1.1049 -1.5050 -0.8525
   94SAPC  H13Y 9200   4.174   2.087   5.325  0.2568  0.6939  1.4088
   94SAPC  C314 9201   4.039   1.920   5.266 -0.1684 -0.3720  0.0325
   94SAPC  H14X 9202   3.946   1.981   5.263  0.0501 -0.0649 -1.4125
   94SAPC  H14Y 9203   4.004   1.828   5.318 -0.5287 -0.1176  0.2468
   94SAPC  C315 9204   4.080   1.908   5.120 -0.3259 -0.1764  0.8503
   94SAPC  H15X 9205   4.175   1.852   5.110 -0.9419 -0.8712 -1.7189
   94SAPC  H15Y 9206   4.099   2.012   5.086 -3.4477 -0.0189 -0.8281
   94SAPC  C316 9207   3.981   1.836   5.034  0.1409 -0.2781 -0.5129
   94SAPC  H16X 9208   3.886   1.893   5.024 -0.5330 -1.0975  0.8184
   94SAPC  H16Y 9209   3.945   1.742   5.081 -1.6243  0.3023 -0.6364
   94SAPC  C317 9210   4.036   1.792   4.897  0.0576 -0.5208 -0.2096
   94SAPC  H17X 9211   3.966   1.717   4.856 -1.3787  0.1512  0.9352
   94SAPC  H17Y 9212   4.138   1.747   4.905  0.6083  0.8107  0.6776
   94SAPC  C318 9213   4.041   1.914   4.814  0.3516 -1.1226  0.1128
   94SAPC  H18X 9214   4.082   1.894   4.713 -1.0445  2.2275 -1.2798
   94SAPC  H18Y 9215   4.114   1.982   4.862 -0.1713 -0.3126 -0.2000
   94SAPC  H18Z 9216   3.939   1.958   4.799  0.1502 -1.2634  1.0163
   95SAPC     N 9217   2.367   0.889   3.216  0.3763 -0.0538  0.6967
   95SAPC   C12 9218   2.438   0.753   3.193  0.2183 -0.1103  0.1292
   95SAPC  H12A 9219   2.543   0.780   3.197 -0.0522  0.8773  2.7131
   95SAPC  H12B 9220   2.410   0.720   3.094  1.9394 -0.1014 -0.3905
   95SAPC   C13 9221   2.396   0.927   3.360  0.0957 -0.1421  0.6905
   95SAPC  H13A 9222   2.365   0.852   3.431  1.5432 -1.2733  0.1659
   95SAPC  H13B 9223   2.498   0.962   3.360  0.4952 -1.0096 -2.2663
   95SAPC  H13C 9224   2.342   1.020   3.375  0.5939  0.4126 -0.7810
   95SAPC   C14 9225   2.412   0.995   3.123 -0.0862 -0.3613  0.5410
   95SAPC  H14A 9226   2.512   1.029   3.143  0.3233 -0.1864 -1.5599
   95SAPC  H14B 9227   2.409   0.961   3.020 -0.8914  2.2889 -0.3800
   95SAPC  H14C 9228   2.338   1.073   3.121 -0.3227 -0.5715  1.0119
   95SAPC   C15 9229   2.220   0.870   3.202  0.2130 -0.4466  0.3738
   95SAPC  H15A 9230   2.163   0.953   3.243  1.0999 -0.7843  2.3728
   95SAPC  H15B 9231   2.207   0.855   3.096  2.8566 -1.9037  0.1829
   95SAPC  H15C 9232   2.175   0.785   3.250 -0.1642 -0.5315 -0.1161
   95SAPC   C11 9233   2.424   0.631   3.282  0.0022 -0.8842 -0.0013
   95SAPC  H11A 9234   2.447   0.650   3.389 -0.0672  0.8277 -0.2631
   95SAPC  H11B 9235   2.502   0.564   3.241  0.6265 -1.6199  2.2294
   95SAPC     P 9236   2.246   0.475   3.158  0.3224 -0.3409 -0.1849
   95SAPC   O13 9237   2.125   0.528   3.092 -0.2470  0.8750 -0.2764
   95SAPC   O14 9238   2.364   0.450   3.073  0.2462  0.0623 -0.1898
   95SAPC   O12 9239   2.288   0.575   3.269  0.0051  0.2295  0.8714
   95SAPC   O11 9240   2.207   0.344   3.236 -0.0043 -0.4903  0.5425
   95SAPC    C1 9241   2.312   0.286   3.325  0.0175 -0.0435 -0.1583
   95SAPC    HA 9242   2.355   0.202   3.267  1.7786  0.2965  0.5937
   95SAPC    HB 9243   2.396   0.350   3.359  0.7082 -1.0035 -0.0143
   95SAPC    C2 9244   2.259   0.223   3.451  0.1116 -0.2156 -0.3914
   95SAPC    HS 9245   2.163   0.180   3.414  0.5652 -0.4786 -1.3023
   95SAPC   O21 9246   2.242   0.328   3.548 -0.6340 -0.2113  0.0849
   95SAPC   C21 9247   2.139   0.323   3.635 -0.5400  0.9421  0.7067
   95SAPC   O22 9248   2.054   0.231   3.618  0.2041 -0.2095  0.1843
   95SAPC   C22 9249   2.145   0.436   3.733 -0.1481 -0.0147 -0.1342
   95SAPC   H2R 9250   2.210   0.518   3.695 -1.4572  1.8273  1.4058
   95SAPC   H2S 9251   2.041   0.477   3.731  0.6200  2.1857  1.4027
   95SAPC    C3 9252   2.356   0.119   3.511 -0.2638 -0.2145  0.6948
   95SAPC    HX 9253   2.447   0.182   3.520 -0.3944 -0.0218  0.6719
   95SAPC    HY 9254   2.377   0.042   3.434 -0.1500  1.4807 -1.0585
   95SAPC   O31 9255   2.304   0.060   3.637  0.5359  0.0826 -0.2003
   95SAPC   C31 9256   2.209  -0.041   3.611  0.1478 -0.0586 -0.4975
   95SAPC   O32 9257   2.167  -0.070   3.504  0.1752 -0.3163  1.0191
   95SAPC   C32 9258   2.172  -0.111   3.738 -0.3000  0.9229  0.0093
   95SAPC   H2X 9259   2.244  -0.194   3.754  0.5170  1.2519 -1.6992
   95SAPC   H2Y 9260   2.070  -0.151   3.719  0.4064 -0.2111 -1.6323
   95SAPC   C23 9261   2.184   0.381   3.869 -0.1274 -0.5236  0.7088
   95SAPC   H3R 9262   2.282   0.331   3.859 -0.3574 -0.7763 -0.4943
   95SAPC   H3S 9263   2.115   0.308   3.917  0.9212 -0.7794  1.8742
   95SAPC   C24 9264   2.201   0.499   3.967 -0.1469 -0.0555 -0.1429
   95SAPC   H4R 9265   2.235   0.588   3.910  0.2183 -0.1379 -0.0568
   95SAPC   H4S 9266   2.272   0.474   4.049  0.1333 -0.7367 -0.5823
   95SAPC   C25 9267   2.067   0.534   4.021  0.3630  0.5675  0.4866
   95SAPC   H5R 9268   2.009   0.610   3.967  0.6559 -0.2890 -1.0947
   95SAPC   C26 9269   2.014   0.484   4.129  0.4629 -0.3644 -0.4944
   95SAPC   H6R 9270   1.912   0.517   4.153 -0.1152 -1.6429 -1.0791
   95SAPC   C27 9271   2.090   0.396   4.231 -0.2005  0.2211 -1.0343
   95SAPC   H7R 9272   2.185   0.445   4.261  0.0692  0.0999 -1.6726
   95SAPC   H7S 9273   2.109   0.298   4.181  1.8166 -0.5090  1.0108
   95SAPC   C28 9274   2.007   0.344   4.342 -0.2556 -0.2202 -0.0780
   95SAPC   H8R 9275   1.907   0.307   4.316 -0.4464 -0.9464  1.5453
   95SAPC   C29 9276   2.045   0.367   4.474  0.1903 -0.4619  0.4618
   95SAPC   H9R 9277   1.978   0.330   4.553  2.8032 -2.4501  1.9133
   95SAPC  C210 9278   2.165   0.437   4.523  0.1655 -0.0539  0.4160
   95SAPC  H10R 9279   2.239   0.476   4.450  0.5384  1.4900  1.5730
   95SAPC  H10S 9280   2.233   0.361   4.568  0.8568  1.0696  1.3228
   95SAPC  C211 9281   2.126   0.539   4.627  0.6728  0.6350 -0.4238
   95SAPC  H11R 9282   2.071   0.629   4.597 -2.3355  0.0702  2.8269
   95SAPC  C212 9283   2.151   0.532   4.761 -0.3138  0.0015 -0.5588
   95SAPC  H12R 9284   2.136   0.630   4.809 -1.6271 -0.6170  0.3293
   95SAPC  C213 9285   2.244   0.430   4.825  0.6383  0.3050 -0.1268
   95SAPC  H13R 9286   2.334   0.432   4.759  0.1340  0.3178 -0.8301
   95SAPC  H13S 9287   2.201   0.329   4.809  0.0807  0.7829 -1.8759
   95SAPC  C214 9288   2.270   0.460   4.968 -0.7919 -0.1084  0.3208
   95SAPC  H14R 9289   2.204   0.532   5.017 -1.7596 -1.0928  0.4973
   95SAPC  C215 9290   2.346   0.379   5.048  0.0134  0.2536  0.0523
   95SAPC  H15R 9291   2.370   0.415   5.149  3.0035 -0.6723 -0.2216
   95SAPC  C216 9292   2.426   0.261   5.000 -0.7053 -0.2425  0.5882
   95SAPC  H16R 9293   2.443   0.263   4.890  0.4157  0.7018  0.7475
   95SAPC  H16S 9294   2.382   0.162   5.023  1.2838 -1.0783  0.9776
   95SAPC  C217 9295   2.576   0.270   5.048  0.4714 -0.1769 -0.2529
   95SAPC  H17R 9296   2.623   0.169   5.050  1.3106  0.2092  0.2403
   95SAPC  H17S 9297   2.582   0.296   5.156 -1.9211 -1.9289  0.3764
   95SAPC  C218 9298   2.654   0.366   4.965 -0.2240 -0.3863 -0.7094
   95SAPC  H18R 9299   2.750   0.377   5.020 -1.0891 -1.3294  1.0890
   95SAPC  H18S 9300   2.596   0.460   4.958 -2.5649 -1.7548 -0.8093
   95SAPC  C219 9301   2.693   0.312   4.834  0.1797  0.0051 -0.0322
   95SAPC  H19R 9302   2.605   0.291   4.770  1.1896  1.0687 -1.8772
   95SAPC  H19S 9303   2.751   0.218   4.848  0.8999  0.4268 -0.1382
   95SAPC  C220 9304   2.777   0.415   4.752  0.1511  0.5613  0.8767
   95SAPC  H20R 9305   2.787   0.390   4.644  0.0096  1.9569  0.5302
   95SAPC  H20S 9306   2.880   0.439   4.785  0.6130 -0.5062  0.2790
   95SAPC  H20T 9307   2.723   0.511   4.743  1.5863  1.4227  1.2158
   95SAPC   C33 9308   2.172  -0.016   3.856 -1.3326 -0.1661  0.3687
   95SAPC   H3X 9309   2.106   0.068   3.825 -1.1740 -0.6037 -1.2155
   95SAPC   H3Y 9310   2.274   0.021   3.879 -1.6888 -0.1154  2.0360
   95SAPC   C34 9311   2.122  -0.074   3.982 -0.4254  0.2006 -0.1775
   95SAPC   H4X 9312   2.028  -0.127   3.957  0.3186 -1.0608 -0.3719
   95SAPC   H4Y 9313   2.100   0.001   4.061 -1.4332 -0.9596  0.6799
   95SAPC   C35 9314   2.234  -0.163   4.055  0.3773 -0.7633  0.6269
   95SAPC   H5X 9315   2.324  -0.100   4.039 -2.8226  4.2104 -0.2417
   95SAPC   H5Y 9316   2.253  -0.261   4.006 -1.7155 -0.3875 -1.1508
   95SAPC   C36 9317   2.211  -0.180   4.202 -0.1298  0.0755  0.1302
   95SAPC   H6X 9318   2.292  -0.250   4.233 -0.5401 -0.5829 -0.2566
   95SAPC   H6Y 9319   2.119  -0.236   4.229 -0.2364  0.8474  1.4125
   95SAPC   C37 9320   2.228  -0.051   4.281  0.3116 -0.7750 -0.5412
   95SAPC   H7X 9321   2.133   0.006   4.274  2.3383  2.9440  0.1263
   95SAPC   H7Y 9322   2.306   0.019   4.247 -0.4963  0.4747  0.1176
   95SAPC   C38 9323   2.260  -0.073   4.426  0.1366 -0.0504  0.0003
   95SAPC   H8X 9324   2.363  -0.113   4.414 -0.2857 -0.5247 -2.6229
   95SAPC   H8Y 9325   2.196  -0.151   4.472 -1.5378  0.4537 -1.3907
   95SAPC   C39 9326   2.250   0.057   4.518 -0.2716  0.1568 -0.9499
   95SAPC   H9X 9327   2.145   0.090   4.529 -0.3326 -0.3092 -0.0070
   95SAPC   H9Y 9328   2.301   0.146   4.475  1.0450  0.2786  0.7142
   95SAPC  C310 9329   2.305   0.032   4.659 -0.5212 -0.3630  0.3713
   95SAPC  H10X 9330   2.292   0.127   4.716  1.7600  0.8543 -0.9996
   95SAPC  H10Y 9331   2.412   0.004   4.652 -0.1206  0.9966  0.5876
   95SAPC  C311 9332   2.238  -0.099   4.727  0.6163  0.3413 -0.3833
   95SAPC  H11X 9333   2.273  -0.189   4.672  1.4242  0.6550 -0.3957
   95SAPC  H11Y 9334   2.132  -0.081   4.699  0.6319  0.4498 -0.3735
   95SAPC  C312 9335   2.253  -0.109   4.886  0.8593  0.5906 -0.7275
   95SAPC  H12X 9336   2.169  -0.171   4.925  1.7683 -0.6056 -0.6186
   95SAPC  H12Y 9337   2.251  -0.009   4.933 -0.8997  1.0362 -1.6682
   95SAPC  C313 9338   2.384  -0.165   4.941  0.7617  0.6547 -0.3968
   95SAPC  H13X 9339   2.470  -0.101   4.913  1.0902 -0.7366 -2.9052
   95SAPC  H13Y 9340   2.404  -0.257   4.881 -0.4099  0.8120 -1.0646
   95SAPC  C314 9341   2.390  -0.192   5.092  0.7577  0.3119 -0.3618
   95SAPC  H14X 9342   2.458  -0.279   5.107  0.0041 -0.0285  1.3582
   95SAPC  H14Y 9343   2.286  -0.222   5.117  1.1621 -0.6645  0.2363
   95SAPC  C315 9344   2.428  -0.087   5.194  0.7169  0.6231 -0.5013
   95SAPC  H15X 9345   2.361   0.001   5.183  0.4061  0.5647  0.7047
   95SAPC  H15Y 9346   2.531  -0.043   5.190  0.4443  1.3388  0.0120
   95SAPC  C316 9347   2.399  -0.139   5.340  0.6582  0.0411 -0.3726
   95SAPC  H16X 9348   2.430  -0.246   5.338 -1.4005 -0.6759  1.7255
   95SAPC  H16Y 9349   2.289  -0.127   5.349  0.6553 -0.5125  0.4894
   95SAPC  C317 9350   2.476  -0.053   5.441 -1.0181 -0.0616 -0.2502
   95SAPC  H17X 9351   2.584  -0.075   5.425 -0.8788  0.9887 -0.8617
   95SAPC  H17Y 9352   2.477  -0.089   5.546 -2.2841  2.4665  0.6984
   95SAPC  C318 9353   2.435   0.086   5.468 -0.0911  0.1211 -0.1045
   95SAPC  H18X 9354   2.459   0.148   5.379  1.9585  0.4360  0.6005
   95SAPC  H18Y 9355   2.492   0.131   5.553 -0.9555  1.3416 -0.1449
   95SAPC  H18Z 9356   2.326   0.084   5.488 -0.0574 -0.3800  0.0357
   96SAPC     N 9357   4.233   1.003   2.974  0.2489  0.1310 -0.2798
   96SAPC   C12 9358   4.275   0.867   2.933  0.3706 -0.0531  0.5154
   96SAPC  H12A 9359   4.378   0.856   2.905  0.3013  0.1793  0.1580
   96SAPC  H12B 9360   4.225   0.842   2.841  1.5991 -1.5521  0.2127
   96SAPC   C13 9361   4.296   1.043   3.108  0.5884 -0.1748  0.1537
   96SAPC  H13A 9362   4.257   1.137   3.145  1.2493  0.0063  0.3951
   96SAPC  H13B 9363   4.274   0.966   3.180 -0.8168  1.2803  1.3711
   96SAPC  H13C 9364   4.403   1.049   3.102  0.7941 -2.6358  0.3255
   96SAPC   C14 9365   4.270   1.110   2.884  0.5327 -0.5711  0.3457
   96SAPC  H14A 9366   4.235   1.204   2.924 -2.8805 -0.4848 -2.3298
   96SAPC  H14B 9367   4.376   1.122   2.863  0.4356 -1.8641 -1.0915
   96SAPC  H14C 9368   4.219   1.118   2.789  2.5076  0.3915 -0.6978
   96SAPC   C15 9369   4.090   1.012   2.985  0.3540  0.4324  1.1066
   96SAPC  H15A 9370   4.061   1.108   3.026 -0.9447 -0.0353  1.3360
   96SAPC  H15B 9371   4.041   1.002   2.889  3.1322  3.6474 -0.9033
   96SAPC  H15C 9372   4.058   0.938   3.056 -1.6199  1.4130  1.3134
   96SAPC   C11 9373   4.260   0.749   3.037  0.4706  0.3660  0.3895
   96SAPC  H11A 9374   4.280   0.651   2.988 -0.2086  0.4671 -0.1022
   96SAPC  H11B 9375   4.151   0.744   3.056  0.0034 -5.4695 -1.7298
   96SAPC     P 9376   4.467   0.677   3.177 -0.1298 -0.3792  0.0089
   96SAPC   O13 9377   4.440   0.539   3.142  0.2916  0.3199  0.3906
   96SAPC   O14 9378   4.584   0.738   3.109  0.3328  0.2328 -0.2039
   96SAPC   O12 9379   4.332   0.758   3.159  0.2282 -0.2991 -0.7062
   96SAPC   O11 9380   4.495   0.690   3.332 -0.0877  0.0308 -0.5450
   96SAPC    C1 9381   4.466   0.801   3.415  1.0095  0.5531 -0.3235
   96SAPC    HA 9382   4.556   0.865   3.422 -0.6804  2.9762  1.2877
   96SAPC    HB 9383   4.388   0.870   3.376 -1.0546  0.0647  2.5536
   96SAPC    C2 9384   4.420   0.768   3.558  1.2409 -0.1083  0.0552
   96SAPC    HS 9385   4.416   0.858   3.623 -2.3213  0.2424 -0.4413
   96SAPC   O21 9386   4.511   0.672   3.618 -0.1478 -0.0242 -0.3673
   96SAPC   C21 9387   4.634   0.716   3.646  0.1392  0.0692 -0.2622
   96SAPC   O22 9388   4.684   0.822   3.621  0.0850  0.3731  0.1994
   96SAPC   C22 9389   4.706   0.592   3.720 -0.6029  0.4163  0.4787
   96SAPC   H2R 9390   4.630   0.512   3.738 -0.0566  0.1236  1.5865
   96SAPC   H2S 9391   4.785   0.548   3.656 -2.9183 -2.9590 -0.3265
   96SAPC    C3 9392   4.274   0.714   3.555  0.2895 -0.2710 -0.4645
   96SAPC    HX 9393   4.267   0.614   3.508  2.6061 -0.1875 -1.0907
   96SAPC    HY 9394   4.210   0.783   3.496 -0.9292 -1.6659 -0.8421
   96SAPC   O31 9395   4.216   0.705   3.689  0.5010 -0.4175 -0.1433
   96SAPC   C31 9396   4.211   0.587   3.755 -0.2643  0.2301  0.4779
   96SAPC   O32 9397   4.245   0.482   3.711 -0.4631  1.1563 -0.2511
   96SAPC   C32 9398   4.143   0.597   3.889 -0.9270 -0.1967  0.2401
   96SAPC   H2X 9399   4.139   0.497   3.938  4.8760 -1.7651 -1.6464
   96SAPC   H2Y 9400   4.034   0.608   3.870 -0.8216  0.1930 -0.1486
   96SAPC   C23 9401   4.763   0.629   3.857 -0.3012 -0.2223  0.1190
   96SAPC   H3R 9402   4.686   0.688   3.912 -1.4123 -0.6783 -0.8979
   96SAPC   H3S 9403   4.845   0.703   3.842 -0.0635 -0.0199  2.1136
   96SAPC   C24 9404   4.815   0.517   3.952 -0.1601  0.2595 -0.0543
   96SAPC   H4R 9405   4.859   0.572   4.038  0.6059  0.3894 -0.5209
   96SAPC   H4S 9406   4.895   0.464   3.895 -0.1896 -0.3109  0.4324
   96SAPC   C25 9407   4.708   0.423   4.001  0.1442  0.3041  0.8933
   96SAPC   H5R 9408   4.648   0.379   3.920 -3.0692  1.2780  2.5587
   96SAPC   C26 9409   4.672   0.384   4.125 -0.1721  0.4722 -0.3356
   96SAPC   H6R 9410   4.580   0.325   4.138  0.2619  0.3612  3.2407
   96SAPC   C27 9411   4.735   0.442   4.253  0.0355  0.2168 -0.2032
   96SAPC   H7R 9412   4.763   0.548   4.236  1.1639 -0.3867 -2.5634
   96SAPC   H7S 9413   4.834   0.395   4.268  1.6755  3.0820 -1.2526
   96SAPC   C28 9414   4.654   0.434   4.381 -0.6841 -0.0916 -0.0820
   96SAPC   H8R 9415   4.550   0.401   4.367 -0.9823  0.5081  0.6759
   96SAPC   C29 9416   4.700   0.482   4.501  0.2771 -0.3099  0.0865
   96SAPC   H9R 9417   4.644   0.471   4.595  1.3820  0.9673  0.9462
   96SAPC  C210 9418   4.847   0.528   4.524  0.4081 -0.5791 -0.2153
   96SAPC  H10R 9419   4.852   0.630   4.568  2.5812 -0.1177 -1.3883
   96SAPC  H10S 9420   4.908   0.532   4.432  0.9876  1.0033  0.2069
   96SAPC  C211 9421   4.924   0.445   4.625 -0.2734  0.8343 -0.0470
   96SAPC  H11R 9422   4.870   0.353   4.651  1.8641 -0.4745  0.0135
   96SAPC  C212 9423   5.041   0.473   4.682 -0.6354 -0.1578 -0.7738
   96SAPC  H12R 9424   5.083   0.393   4.745 -0.1384  0.4880 -0.2670
   96SAPC  C213 9425   5.125   0.598   4.673  0.2744  0.4197 -0.6326
   96SAPC  H13R 9426   5.116   0.647   4.773  0.3809  0.9227 -0.8685
   96SAPC  H13S 9427   5.080   0.674   4.607  0.8579 -0.1699 -1.7390
   96SAPC  C214 9428   5.269   0.588   4.627  0.5166  0.3712  0.5552
   96SAPC  H14R 9429   5.270   0.626   4.524 -1.0815 -0.6102  0.1296
   96SAPC  C215 9430   5.375   0.548   4.700  0.2342 -0.2701  0.2755
   96SAPC  H15R 9431   5.474   0.557   4.653  0.1979  1.4907  0.4532
   96SAPC  C216 9432   5.364   0.484   4.843 -0.1467  0.3531  0.7757
   96SAPC  H16R 9433   5.265   0.448   4.877  0.7330 -1.3133  1.7198
   96SAPC  H16S 9434   5.385   0.561   4.920  0.5674 -0.4797  1.4333
   96SAPC  C217 9435   5.451   0.357   4.850  0.7387  0.1309 -0.1661
   96SAPC  H17R 9436   5.558   0.385   4.841  0.4530  1.7457  1.0985
   96SAPC  H17S 9437   5.431   0.291   4.763 -2.1168  1.0393 -0.2712
   96SAPC  C218 9438   5.418   0.276   4.972  0.1803  0.4894  0.1314
   96SAPC  H18R 9439   5.401   0.340   5.060  0.1724  1.5747 -0.6438
   96SAPC  H18S 9440   5.503   0.206   4.992  0.0645  0.0584 -0.8294
   96SAPC  C219 9441   5.293   0.188   4.953 -0.3745 -0.2800 -0.7287
   96SAPC  H19R 9442   5.287   0.150   4.849  0.6742 -0.3440 -0.7761
   96SAPC  H19S 9443   5.202   0.252   4.953 -0.4009 -0.3039  0.2726
   96SAPC  C220 9444   5.290   0.076   5.057  0.1518  0.6473 -0.3094
   96SAPC  H20R 9445   5.376   0.010   5.029 -0.1204  0.3337 -0.4156
   96SAPC  H20S 9446   5.200   0.011   5.052  1.2852 -1.2621  2.1334
   96SAPC  H20T 9447   5.293   0.117   5.160 -0.2696 -2.2456  0.9694
   96SAPC   C33 9448   4.194   0.716   3.984  0.2829  0.6978 -0.2665
   96SAPC   H3X 9449   4.125   0.726   4.071  2.1232  0.2483  1.3229
   96SAPC   H3Y 9450   4.182   0.810   3.928  0.2363  1.8027  1.5163
   96SAPC   C34 9451   4.338   0.698   4.032 -0.1482 -0.3343  0.7140
   96SAPC   H4X 9452   4.398   0.710   3.940 -1.1005  1.9350  0.3134
   96SAPC   H4Y 9453   4.354   0.593   4.063  2.7159 -0.4308 -0.7772
   96SAPC   C35 9454   4.379   0.808   4.135  0.8395  0.3518  0.4355
   96SAPC   H5X 9455   4.284   0.843   4.182  1.0639 -0.6762  1.7002
   96SAPC   H5Y 9456   4.409   0.900   4.080  2.7395  0.7696  2.0463
   96SAPC   C36 9457   4.477   0.766   4.250  0.0765 -0.9234  0.1805
   96SAPC   H6X 9458   4.568   0.713   4.216  0.3653 -1.3660  1.6196
   96SAPC   H6Y 9459   4.421   0.688   4.306 -0.5377 -0.8447 -0.3116
   96SAPC   C37 9460   4.505   0.888   4.345  0.1708  0.2547 -0.9906
   96SAPC   H7X 9461   4.405   0.923   4.378  0.8794 -0.4919  2.3764
   96SAPC   H7Y 9462   4.559   0.971   4.293  3.2176 -1.3443 -0.6297
   96SAPC   C38 9463   4.593   0.859   4.468 -0.1994 -0.0762 -0.6893
   96SAPC   H8X 9464   4.682   0.803   4.432  0.7539  2.9215 -3.5874
   96SAPC   H8Y 9465   4.539   0.800   4.545 -0.3872  1.3270  0.2991
   96SAPC   C39 9466   4.640   0.992   4.534  0.0449  0.2493  0.2379
   96SAPC   H9X 9467   4.685   1.047   4.448  1.0109  0.0089  0.5788
   96SAPC   H9Y 9468   4.727   0.982   4.602  0.6408 -0.0085 -0.5527
   96SAPC  C310 9469   4.522   1.065   4.598 -0.0447 -0.3893 -0.7179
   96SAPC  H10X 9470   4.490   1.011   4.690 -0.5143  1.3855  0.1961
   96SAPC  H10Y 9471   4.434   1.079   4.531  0.1803 -1.2258 -1.2078
   96SAPC  C311 9472   4.563   1.207   4.649  0.9153 -1.0871 -0.2332
   96SAPC  H11X 9473   4.471   1.261   4.678  0.1929 -1.1456 -2.2646
   96SAPC  H11Y 9474   4.604   1.260   4.560 -1.7277 -1.1566 -1.5822
   96SAPC  C312 9475   4.670   1.187   4.763  0.2347 -0.3674  0.6359
   96SAPC  H12X 9476   4.765   1.171   4.708 -0.2201 -1.7602  0.2049
   96SAPC  H12Y 9477   4.627   1.101   4.819 -2.2437 -1.3193 -2.4888
   96SAPC  C313 9478   4.672   1.314   4.857  0.6275  0.3231  0.5152
   96SAPC  H13X 9479   4.570   1.347   4.889  0.0556 -1.1224  0.2677
   96SAPC  H13Y 9480   4.704   1.408   4.806  0.6231 -0.2540 -0.5773
   96SAPC  C314 9481   4.755   1.292   4.980  0.3076 -0.2620 -0.8249
   96SAPC  H14X 9482   4.864   1.289   4.959  0.2639 -2.9114 -0.9170
   96SAPC  H14Y 9483   4.735   1.190   5.020  0.1415 -1.0404 -2.7991
   96SAPC  C315 9484   4.734   1.404   5.080  0.2294 -0.4189  0.4941
   96SAPC  H15X 9485   4.633   1.389   5.124  0.4123  0.3203  1.1901
   96SAPC  H15Y 9486   4.743   1.505   5.035  0.5982  0.1546  1.7980
   96SAPC  C316 9487   4.820   1.417   5.212 -1.1872 -0.5132 -0.6504
   96SAPC  H16X 9488   4.807   1.316   5.259 -5.0509  0.5183  0.8738
   96SAPC  H16Y 9489   4.769   1.486   5.283 -1.0096  1.2146 -2.1487
   96SAPC  C317 9490   4.962   1.462   5.195  0.7317 -0.5009  0.0801
   96SAPC  H17X 9491   4.951   1.554   5.134 -0.9812  0.1908  1.3661
   96SAPC  H17Y 9492   5.010   1.380   5.138  0.5248 -0.4272 -0.2003
   96SAPC  C318 9493   5.040   1.504   5.316 -0.2382  0.0535 -0.3419
   96SAPC  H18X 9494   5.035   1.417   5.385 -0.6770 -1.6235 -2.3611
   96SAPC  H18Y 9495   4.982   1.581   5.370  0.1168 -2.0525  3.3512
   96SAPC  H18Z 9496   5.147   1.527   5.298 -0.1395 -0.7113 -0.7827
   97SAPC     N 9497   0.955   1.183   2.539  0.2252 -0.2113 -0.1434
   97SAPC   C12 9498   1.026   1.308   2.595 -0.4783 -0.1679  0.1984
   97SAPC  H12A 9499   0.941   1.369   2.623 -0.5519  0.3897 -1.1565
   97SAPC  H12B 9500   1.069   1.351   2.505 -0.0161  0.6596  0.8050
   97SAPC   C13 9501   0.860   1.232   2.429  0.9721 -0.1049  0.1393
   97SAPC  H13A 9502   0.914   1.288   2.354 -0.0935 -0.8364 -1.2056
   97SAPC  H13B 9503   0.819   1.145   2.379 -0.1900  1.1749 -1.2323
   97SAPC  H13C 9504   0.786   1.292   2.480  2.5754  2.9538 -0.8580
   97SAPC   C14 9505   1.049   1.087   2.480 -0.2038 -0.1101  1.0444
   97SAPC  H14A 9506   0.993   0.998   2.455 -2.4541  1.1764  1.2965
   97SAPC  H14B 9507   1.104   1.129   2.396 -0.1994 -0.6972  0.7466
   97SAPC  H14C 9508   1.112   1.054   2.561 -1.3324 -0.4670  1.7999
   97SAPC   C15 9509   0.880   1.109   2.645  0.6290  0.2131  0.0643
   97SAPC  H15A 9510   0.941   1.026   2.677 -2.4174 -1.8222  1.0607
   97SAPC  H15B 9511   0.851   1.171   2.729 -1.4108 -0.5562  0.0000
   97SAPC  H15C 9512   0.783   1.071   2.615 -0.5227  1.7114  1.5991
   97SAPC   C11 9513   1.133   1.296   2.707 -0.0571 -0.0960 -0.0790
   97SAPC  H11A 9514   1.201   1.383   2.711 -1.6384  1.1568  2.9141
   97SAPC  H11B 9515   1.198   1.212   2.674 -2.6798 -1.2515 -2.8429
   97SAPC     P 9516   0.970   1.385   2.879  0.0302  0.2547  0.0706
   97SAPC   O13 9517   1.004   1.525   2.835  0.0266  0.1226  0.0073
   97SAPC   O14 9518   0.831   1.334   2.840 -0.2735  0.0907  0.2444
   97SAPC   O12 9519   1.081   1.278   2.830 -0.2976  0.4129 -0.8987
   97SAPC   O11 9520   0.983   1.373   3.035 -0.5279 -0.2043  0.2159
   97SAPC    C1 9521   1.091   1.298   3.087  0.0885  0.0580  0.3545
   97SAPC    HA 9522   1.078   1.194   3.053 -3.0514  1.2072 -2.4652
   97SAPC    HB 9523   1.192   1.333   3.055  0.0558 -1.1371 -1.1400
   97SAPC    C2 9524   1.101   1.310   3.242  0.4816 -0.4320  0.5502
   97SAPC    HS 9525   1.003   1.267   3.272 -0.1239  0.2343 -0.4048
   97SAPC   O21 9526   1.131   1.449   3.272 -0.3287 -0.2011 -0.1597
   97SAPC   C21 9527   1.071   1.474   3.388  0.2247 -0.1287 -0.2585
   97SAPC   O22 9528   0.982   1.407   3.437  0.2810  0.2481  0.4400
   97SAPC   C22 9529   1.129   1.606   3.430  0.1756 -0.0279  0.3536
   97SAPC   H2R 9530   1.237   1.608   3.405  0.1192  0.5143  0.1170
   97SAPC   H2S 9531   1.082   1.680   3.361 -0.8415 -1.8560 -1.0104
   97SAPC    C3 9532   1.207   1.219   3.300 -0.4288  0.0501  0.2650
   97SAPC    HX 9533   1.311   1.243   3.267 -0.7141  1.1156  0.0921
   97SAPC    HY 9534   1.185   1.122   3.249 -1.3958  0.7026 -0.6013
   97SAPC   O31 9535   1.201   1.209   3.446  0.4274 -0.7036 -0.2463
   97SAPC   C31 9536   1.118   1.121   3.492 -0.7426  0.1532  0.1503
   97SAPC   O32 9537   1.062   1.034   3.428 -0.2467  0.3041  0.0425
   97SAPC   C32 9538   1.114   1.158   3.637 -0.2645  0.0366  0.1147
   97SAPC   H2X 9539   1.059   1.253   3.654 -0.2439  0.3830 -1.5538
   97SAPC   H2Y 9540   1.219   1.172   3.671 -0.4637 -0.5940  1.0184
   97SAPC   C23 9541   1.097   1.634   3.573  0.7207 -0.4235  0.5250
   97SAPC   H3R 9542   1.011   1.577   3.611  0.7480 -0.6387  0.2670
   97SAPC   H3S 9543   1.081   1.742   3.593  3.1784  0.0754  0.2007
   97SAPC   C24 9544   1.221   1.584   3.661 -0.0349 -0.7052  0.1845
   97SAPC   H4R 9545   1.308   1.643   3.628 -1.2523 -0.0779 -2.0671
   97SAPC   H4S 9546   1.244   1.478   3.634  0.1908 -0.1374 -2.0305
   97SAPC   C25 9547   1.179   1.570   3.804  0.1546  0.3329  0.7570
   97SAPC   H5R 9548   1.125   1.480   3.837 -0.7731  0.5254 -0.1763
   97SAPC   C26 9549   1.212   1.671   3.893 -0.1233 -0.6142  0.6693
   97SAPC   H6R 9550   1.176   1.657   3.996  1.6082 -2.0033  1.1385
   97SAPC   C27 9551   1.290   1.803   3.858 -1.2020 -0.0034 -0.6215
   97SAPC   H7R 9552   1.244   1.849   3.768  0.2378 -0.1179 -1.4459
   97SAPC   H7S 9553   1.396   1.780   3.834 -1.3744 -3.3592  1.1570
   97SAPC   C28 9554   1.299   1.904   3.970  1.0497 -0.5702  0.1811
   97SAPC   H8R 9555   1.279   2.007   3.938  0.3038  0.0122  2.3811
   97SAPC   C29 9556   1.344   1.886   4.095 -0.2707  0.2215  0.1144
   97SAPC   H9R 9557   1.326   1.972   4.162 -0.2417  0.8093 -0.6243
   97SAPC  C210 9558   1.390   1.753   4.152  0.0711  0.3555  0.1866
   97SAPC  H10R 9559   1.401   1.672   4.077 -0.3779 -2.3294  2.8513
   97SAPC  H10S 9560   1.318   1.714   4.226  0.5303 -2.1914 -0.6056
   97SAPC  C211 9561   1.534   1.757   4.195  0.5403 -1.0317  0.2668
   97SAPC  H11R 9562   1.611   1.760   4.117 -0.6167  0.1098 -0.8726
   97SAPC  C212 9563   1.573   1.759   4.323  0.5673  0.0103  0.0960
   97SAPC  H12R 9564   1.677   1.791   4.341 -0.0982  1.6877  1.2710
   97SAPC  C213 9565   1.493   1.747   4.447 -0.5263 -0.7042  0.5914
   97SAPC  H13R 9566   1.543   1.669   4.508  2.9645 -0.5750 -1.8059
   97SAPC  H13S 9567   1.396   1.709   4.408  0.0805 -0.5915 -1.1157
   97SAPC  C214 9568   1.472   1.893   4.503  0.0338  0.3940 -0.8261
   97SAPC  H14R 9569   1.471   1.983   4.439 -4.7930  2.0322  1.0823
   97SAPC  C215 9570   1.470   1.918   4.633 -0.0664  0.7726  0.1796
   97SAPC  H15R 9571   1.474   2.025   4.660  0.0933  1.1514 -1.2229
   97SAPC  C216 9572   1.471   1.816   4.747  0.1803 -0.7802 -0.5741
   97SAPC  H16R 9573   1.576   1.794   4.776  0.1280 -0.1311  0.1331
   97SAPC  H16S 9574   1.422   1.721   4.717 -1.5283  0.7661 -3.0933
   97SAPC  C217 9575   1.390   1.866   4.873  0.1684  0.0851  0.2587
   97SAPC  H17R 9576   1.296   1.897   4.823 -0.0764  0.4729  0.9409
   97SAPC  H17S 9577   1.437   1.962   4.903 -1.4452  1.4302 -1.3434
   97SAPC  C218 9578   1.377   1.769   4.990  0.0321 -0.4999  1.6289
   97SAPC  H18R 9579   1.480   1.737   5.019  0.6642 -0.4455 -0.3696
   97SAPC  H18S 9580   1.330   1.674   4.955 -0.1232 -0.0023  0.4573
   97SAPC  C219 9581   1.291   1.828   5.096 -0.5451 -0.7766 -0.1930
   97SAPC  H19R 9582   1.194   1.866   5.059 -0.0449  1.7653  0.8403
   97SAPC  H19S 9583   1.332   1.921   5.141 -2.5660  0.1672 -0.1802
   97SAPC  C220 9584   1.289   1.721   5.202 -0.2296 -0.0305 -0.7336
   97SAPC  H20R 9585   1.386   1.688   5.246 -0.8338 -0.1741  0.5615
   97SAPC  H20S 9586   1.239   1.628   5.167  1.5294 -1.6337  0.7765
   97SAPC  H20T 9587   1.238   1.778   5.283  1.0245  3.3484 -2.1755
   97SAPC   C33 9588   1.047   1.052   3.722  0.2794 -0.2569 -0.3473
   97SAPC   H3X 9589   1.096   0.952   3.714 -0.2901 -0.4936 -0.9552
   97SAPC   H3Y 9590   0.946   1.034   3.680  0.9124 -0.2310 -1.9272
   97SAPC   C34 9591   1.039   1.089   3.874 -0.0051  1.0515  0.0481
   97SAPC   H4X 9592   0.936   1.053   3.896  0.2306  0.1299 -0.3197
   97SAPC   H4Y 9593   1.027   1.198   3.890  0.5090  1.0160  0.7486
   97SAPC   C35 9594   1.148   1.018   3.954 -0.9217 -0.1568  0.5299
   97SAPC   H5X 9595   1.241   1.025   3.894 -2.1258 -1.7270 -1.6672
   97SAPC   H5Y 9596   1.143   0.907   3.959 -0.9944 -0.1316  1.0789
   97SAPC   C36 9597   1.168   1.072   4.097  0.3269  0.3725 -0.2322
   97SAPC   H6X 9598   1.069   1.083   4.146  0.0819 -3.1249  0.3068
   97SAPC   H6Y 9599   1.220   1.169   4.088 -0.7897  1.1468  1.1801
   97SAPC   C37 9600   1.254   0.973   4.176 -0.2692 -0.2399  0.5038
   97SAPC   H7X 9601   1.347   0.949   4.119 -0.3288 -0.1599  0.3736
   97SAPC   H7Y 9602   1.200   0.876   4.181 -0.0291 -0.5290 -1.4029
   97SAPC   C38 9603   1.277   1.017   4.319 -0.7311 -0.1066 -0.4056
   97SAPC   H8X 9604   1.179   1.053   4.357  0.5504  1.6700  1.3650
   97SAPC   H8Y 9605   1.342   1.106   4.313  1.5159 -1.6061  0.3709
   97SAPC   C39 9606   1.353   0.921   4.413  0.4879  0.2535 -0.2203
   97SAPC   H9X 9607   1.445   0.889   4.360  0.3306  0.0574 -0.3763
   97SAPC   H9Y 9608   1.307   0.824   4.444  1.5064 -0.0972  0.2474
   97SAPC  C310 9609   1.402   0.986   4.545  0.3735  0.5301  0.5951
   97SAPC  H10X 9610   1.311   1.021   4.598  0.4671  1.2612  0.2941
   97SAPC  H10Y 9611   1.467   1.075   4.532 -2.3088  2.4549 -0.8678
   97SAPC  C311 9612   1.480   0.884   4.634 -0.0922 -0.6741 -0.8648
   97SAPC  H11X 9613   1.543   0.932   4.712  2.0226 -1.7975 -1.7754
   97SAPC  H11Y 9614   1.569   0.836   4.588  1.7419  0.8420  0.9011
   97SAPC  C312 9615   1.403   0.771   4.698  0.5399  0.2899  0.5223
   97SAPC  H12X 9616   1.476   0.698   4.740  0.1062 -0.6131 -0.2600
   97SAPC  H12Y 9617   1.351   0.718   4.615 -2.4295  0.2049  2.2539
   97SAPC  C313 9618   1.314   0.835   4.803  0.0909  0.7279 -0.3317
   97SAPC  H13X 9619   1.235   0.909   4.780  0.1052  1.0537  0.6050
   97SAPC  H13Y 9620   1.376   0.891   4.876  0.0477 -0.3236  0.5413
   97SAPC  C314 9621   1.251   0.725   4.888 -0.2273  0.6262 -0.0767
   97SAPC  H14X 9622   1.325   0.655   4.931 -0.1152 -0.4292 -1.9078
   97SAPC  H14Y 9623   1.191   0.653   4.829 -0.3320  1.6736 -1.2848
   97SAPC  C315 9624   1.142   0.773   4.991  0.1528 -0.6600  0.2896
   97SAPC  H15X 9625   1.050   0.720   4.958  0.4497  0.7814 -3.3127
   97SAPC  H15Y 9626   1.123   0.881   4.973  3.1926 -0.2297 -1.0084
   97SAPC  C316 9627   1.185   0.737   5.136  0.5734 -0.5905  0.0980
   97SAPC  H16X 9628   1.273   0.803   5.152 -0.4567  1.7051 -2.7927
   97SAPC  H16Y 9629   1.188   0.630   5.166 -1.5083 -0.9987 -0.9784
   97SAPC  C317 9630   1.066   0.784   5.231 -0.4936 -0.5744 -0.3501
   97SAPC  H17X 9631   0.973   0.738   5.192 -0.2716 -0.2948 -1.2143
   97SAPC  H17Y 9632   1.054   0.894   5.228  3.2796  0.0099  0.3021
   97SAPC  C318 9633   1.093   0.737   5.376 -1.0219  0.0096  0.7710
   97SAPC  H18X 9634   1.011   0.756   5.448 -0.9279 -1.4876  1.3100
   97SAPC  H18Y 9635   1.183   0.776   5.429 -0.8932 -0.5633  0.9846
   97SAPC  H18Z 9636   1.113   0.628   5.372  2.0187  0.5004 -0.6401
   98SAPC     N 9637   5.071   0.397   3.067  0.3208  0.1735  0.1248
   98SAPC   C12 9638   5.194   0.405   3.154 -0.3265  0.0248 -0.1812
   98SAPC  H12A 9639   5.285   0.382   3.101  0.3321 -1.4845  1.5139
   98SAPC  H12B 9640   5.176   0.327   3.226  0.2545  0.4233  0.4113
   98SAPC   C13 9641   5.051   0.255   3.010 -0.4280  0.3331  0.5798
   98SAPC  H13A 9642   4.982   0.256   2.928 -2.4135  0.2700  2.1736
   98SAPC  H13B 9643   5.146   0.216   2.975 -0.6545  1.5780 -1.5736
   98SAPC  H13C 9644   5.022   0.199   3.098 -0.0345  0.9790  1.1378
   98SAPC   C14 9645   4.936   0.439   3.124  0.1913  0.3131  0.0186
   98SAPC  H14A 9646   4.898   0.368   3.195  0.1829  0.1159 -0.1834
   98SAPC  H14B 9647   4.940   0.537   3.170  1.6553  0.0145  0.5763
   98SAPC  H14C 9648   4.872   0.453   3.038  0.1590 -0.8734 -0.1637
   98SAPC   C15 9649   5.095   0.489   2.951 -0.1931  0.6855 -0.6197
   98SAPC  H15A 9650   5.096   0.590   2.991  1.7014  0.2414  0.6037
   98SAPC  H15B 9651   5.189   0.465   2.903 -0.6086  2.5784 -2.5029
   98SAPC  H15C 9652   5.016   0.478   2.879 -0.4374  0.5442 -0.3307
   98SAPC   C11 9653   5.212   0.536   3.232  0.1808  0.0614 -0.5294
   98SAPC  H11A 9654   5.282   0.527   3.318 -1.7927 -1.1790  1.0262
   98SAPC  H11B 9655   5.121   0.560   3.290  0.9899 -1.4076  1.4547
   98SAPC     P 9656   5.390   0.700   3.117 -0.1312  0.1108 -0.2505
   98SAPC   O13 9657   5.460   0.586   3.063  1.1389  0.2047  0.6873
   98SAPC   O14 9658   5.386   0.823   3.038 -0.0108  0.5161  0.1170
   98SAPC   O12 9659   5.244   0.653   3.150  0.5698  0.5072 -0.2212
   98SAPC   O11 9660   5.452   0.730   3.257  0.4126  0.5593  0.1005
   98SAPC    C1 9661   5.378   0.828   3.336 -0.5233 -0.0551  0.1524
   98SAPC    HA 9662   5.392   0.932   3.300  2.0190 -0.4559 -0.1862
   98SAPC    HB 9663   5.273   0.794   3.350 -1.0540  0.5029 -2.1458
   98SAPC    C2 9664   5.424   0.838   3.489  0.0878  0.1568 -0.4503
   98SAPC    HS 9665   5.426   0.733   3.525  1.3863  0.4235  0.3188
   98SAPC   O21 9666   5.333   0.920   3.571 -0.6453 -0.5324 -0.1723
   98SAPC   C21 9667   5.232   0.858   3.623  0.0868 -0.0173 -0.0559
   98SAPC   O22 9668   5.212   0.740   3.613 -0.1615  1.0136  0.2403
   98SAPC   C22 9669   5.141   0.965   3.678 -0.5476 -0.3778 -0.1760
   98SAPC   H2R 9670   5.205   1.034   3.736  1.2881 -2.9013  1.0157
   98SAPC   H2S 9671   5.104   1.025   3.592 -0.5517  0.1618  0.2007
   98SAPC    C3 9672   5.568   0.895   3.493 -0.6400 -0.1226  0.2988
   98SAPC    HX 9673   5.581   1.003   3.469 -1.6672  0.4432  2.0854
   98SAPC    HY 9674   5.628   0.836   3.421  0.3340  0.4074  0.6567
   98SAPC   O31 9675   5.629   0.882   3.625  0.7324 -0.2165 -0.0125
   98SAPC   C31 9676   5.627   0.987   3.703  0.1833  0.1971 -0.4260
   98SAPC   O32 9677   5.582   1.100   3.677 -0.1839  0.2942 -0.0217
   98SAPC   C32 9678   5.701   0.955   3.829  0.0328  0.7756 -0.1166
   98SAPC   H2X 9679   5.777   0.877   3.809 -1.2018 -0.7356  0.8787
   98SAPC   H2Y 9680   5.635   0.917   3.910  2.2695 -0.0741  1.4215
   98SAPC   C23 9681   5.038   0.910   3.779 -0.3705  0.0306 -0.4305
   98SAPC   H3R 9682   5.093   0.856   3.858 -2.8223 -0.0955  1.3031
   98SAPC   H3S 9683   4.984   0.825   3.732 -0.8130  0.1394 -0.1293
   98SAPC   C24 9684   4.946   1.022   3.827  0.9332  0.3552 -0.1181
   98SAPC   H4R 9685   4.915   1.088   3.743 -0.9764 -1.9210 -1.3141
   98SAPC   H4S 9686   4.992   1.094   3.897 -0.5662  1.2710 -0.0197
   98SAPC   C25 9687   4.818   0.972   3.888 -0.3095 -0.0305 -0.5218
   98SAPC   H5R 9688   4.730   0.963   3.823 -0.9439  0.5919  0.2260
   98SAPC   C26 9689   4.799   0.964   4.020 -0.3112  0.4228 -0.8406
   98SAPC   H6R 9690   4.695   0.942   4.045 -0.1494 -0.1067 -0.6083
   98SAPC   C27 9691   4.906   0.969   4.126 -0.0429 -0.1718  0.1133
   98SAPC   H7R 9692   4.897   1.066   4.180 -1.9856 -1.1697  1.7247
   98SAPC   H7S 9693   5.004   0.949   4.079  0.4881  2.8828 -0.3066
   98SAPC   C28 9694   4.880   0.867   4.234  0.5989 -0.3703  1.1087
   98SAPC   H8R 9695   4.849   0.767   4.199 -0.2260  0.4202 -0.5392
   98SAPC   C29 9696   4.932   0.868   4.359 -0.6196  0.1202 -0.4590
   98SAPC   H9R 9697   4.906   0.789   4.431  1.1388  0.3101  0.4311
   98SAPC  C210 9698   5.008   0.980   4.423 -0.5479 -0.2744 -0.1021
   98SAPC  H10R 9699   4.932   1.031   4.486 -1.4318 -1.1250 -0.4754
   98SAPC  H10S 9700   5.028   1.069   4.358  0.5447 -0.0551  0.5099
   98SAPC  C211 9701   5.134   0.938   4.499 -0.1409 -0.1892 -0.1285
   98SAPC  H11R 9702   5.206   0.885   4.436 -0.4001 -0.8704  0.1403
   98SAPC  C212 9703   5.168   0.966   4.626  0.1404  1.0844 -0.1233
   98SAPC  H12R 9704   5.260   0.918   4.661  0.1444  0.3266 -1.1059
   98SAPC  C213 9705   5.091   1.053   4.722 -0.4285 -0.3042  0.3539
   98SAPC  H13R 9706   5.043   1.129   4.657 -0.9311 -1.4117 -0.6202
   98SAPC  H13S 9707   5.165   1.101   4.790  1.1203 -2.0626 -0.0137
   98SAPC  C214 9708   4.981   0.997   4.809 -0.2472 -0.3960 -0.5057
   98SAPC  H14R 9709   4.886   0.974   4.760 -0.2972 -2.0226  0.2791
   98SAPC  C215 9710   4.976   1.003   4.945  0.0528 -0.3516 -0.7358
   98SAPC  H15R 9711   4.882   0.974   4.994  0.5750 -0.5858  0.1515
   98SAPC  C216 9712   5.078   1.055   5.050 -0.5597  0.3491  0.1527
   98SAPC  H16R 9713   5.025   1.127   5.116 -1.2661  0.0286 -0.0562
   98SAPC  H16S 9714   5.164   1.100   4.995 -1.4849  1.3451 -0.5310
   98SAPC  C217 9715   5.138   0.952   5.145  0.8915  0.5605  0.3067
   98SAPC  H17R 9716   5.059   0.878   5.171  1.3111 -1.0767 -2.6567
   98SAPC  H17S 9717   5.173   1.014   5.230  0.7872  0.6128  0.3118
   98SAPC  C218 9718   5.256   0.872   5.087  0.2969 -0.2400 -0.7401
   98SAPC  H18R 9719   5.347   0.929   5.054  1.0259 -0.6663  0.4900
   98SAPC  H18S 9720   5.222   0.823   4.993 -0.9638  2.8331 -2.0262
   98SAPC  C219 9721   5.301   0.766   5.190  0.5062 -0.3334  0.3769
   98SAPC  H19R 9722   5.285   0.802   5.294 -3.9982  1.2704 -0.6898
   98SAPC  H19S 9723   5.411   0.759   5.172  0.5788  1.2617  0.1084
   98SAPC  C220 9724   5.226   0.630   5.182  1.0660  0.1094  0.5009
   98SAPC  H20R 9725   5.259   0.565   5.098 -0.1182 -0.4935  0.4904
   98SAPC  H20S 9726   5.116   0.643   5.184  0.7431 -1.2942 -2.7823
   98SAPC  H20T 9727   5.244   0.578   5.279  1.6004  0.2907  0.5066
   98SAPC   C33 9728   5.760   1.083   3.896 -0.2169  0.6331 -0.1519
   98SAPC   H3X 9729   5.675   1.143   3.933 -0.4454 -0.8901  1.9830
   98SAPC   H3Y 9730   5.824   1.129   3.817 -0.2751 -0.2401 -0.7268
   98SAPC   C34 9731   5.849   1.072   4.018  0.8323  0.0813  0.6098
   98SAPC   H4X 9732   5.788   1.024   4.097 -0.6507 -2.2938 -1.7801
   98SAPC   H4Y 9733   5.888   1.167   4.060 -0.3959  0.8631  0.0463
   98SAPC   C35 9734   5.973   0.982   3.988 -0.4678  0.0982  0.1304
   98SAPC   H5X 9735   6.046   1.033   3.921 -0.4221 -2.9816 -2.3539
   98SAPC   H5Y 9736   5.947   0.888   3.934 -0.1778 -0.0658  0.2708
   98SAPC   C36 9737   6.043   0.949   4.125 -0.0663  0.8206  1.2362
   98SAPC   H6X 9738   6.132   0.888   4.099  0.0245  0.7361  1.7276
   98SAPC   H6Y 9739   5.985   0.884   4.195 -0.1669 -0.4908 -0.0208
   98SAPC   C37 9740   6.102   1.075   4.195  0.0454 -0.2031 -0.2590
   98SAPC   H7X 9741   6.024   1.151   4.216  1.5656  1.1719  0.5431
   98SAPC   H7Y 9742   6.172   1.119   4.121 -0.0136  0.4489  0.0721
   98SAPC   C38 9743   6.189   1.041   4.321  0.3364  0.5363  0.2010
   98SAPC   H8X 9744   6.282   0.988   4.289  1.9345  3.6352 -0.6588
   98SAPC   H8Y 9745   6.121   0.980   4.385  2.1967 -0.8581  0.9621
   98SAPC   C39 9746   6.234   1.157   4.404 -0.1716  0.3129  0.1636
   98SAPC   H9X 9747   6.153   1.217   4.450 -0.0929 -1.8099  3.3927
   98SAPC   H9Y 9748   6.291   1.219   4.331 -0.9484  0.7320 -0.0961
   98SAPC  C310 9749   6.338   1.128   4.513 -0.1353  0.8002 -0.0508
   98SAPC  H10X 9750   6.426   1.075   4.470  0.3364  0.7526  0.9419
   98SAPC  H10Y 9751   6.286   1.059   4.583 -0.8027  2.3666  1.0688
   98SAPC  C311 9752   6.390   1.252   4.576 -0.0897  0.0990  0.1922
   98SAPC  H11X 9753   6.312   1.294   4.643 -0.2817 -0.3351  0.2392
   98SAPC  H11Y 9754   6.416   1.334   4.505  1.4086  0.1924  0.8170
   98SAPC  C312 9755   6.511   1.232   4.668  0.3424  0.9280 -0.0842
   98SAPC  H12X 9756   6.587   1.173   4.613 -0.0739  0.3576 -0.0605
   98SAPC  H12Y 9757   6.477   1.161   4.747  0.3791  0.9623 -0.0378
   98SAPC  C313 9758   6.572   1.355   4.736  1.0465 -0.5312 -0.2949
   98SAPC  H13X 9759   6.506   1.387   4.820 -0.5282 -2.2913 -0.7965
   98SAPC  H13Y 9760   6.589   1.442   4.669  0.5188  0.0309  0.2937
   98SAPC  C314 9761   6.707   1.314   4.800 -0.6400  0.8996 -0.3317
   98SAPC  H14X 9762   6.755   1.402   4.848  0.0666 -0.9048  2.5306
   98SAPC  H14Y 9763   6.774   1.283   4.718 -1.0655 -1.2317  0.0885
   98SAPC  C315 9764   6.709   1.211   4.917 -0.3101 -0.3628  0.8365
   98SAPC  H15X 9765   6.813   1.210   4.955 -0.3592 -0.1342  0.9751
   98SAPC  H15Y 9766   6.683   1.108   4.884  0.0773 -0.4904  0.9233
   98SAPC  C316 9767   6.610   1.250   5.030  0.0030  0.1992 -0.1972
   98SAPC  H16X 9768   6.507   1.215   5.004  1.2054 -0.9762 -4.1358
   98SAPC  H16Y 9769   6.621   1.360   5.035  1.6664  0.1412 -1.7487
   98SAPC  C317 9770   6.653   1.193   5.166  0.1583  0.2560 -0.7427
   98SAPC  H17X 9771   6.595   1.254   5.239 -0.1896  1.9873 -2.3950
   98SAPC  H17Y 9772   6.761   1.204   5.187 -0.2686  0.5036  1.5510
   98SAPC  C318 9773   6.637   1.042   5.185 -0.4699  0.0938  0.7256
   98SAPC  H18X 9774   6.710   0.977   5.133 -1.7466  0.3135 -1.4498
   98SAPC  H18Y 9775   6.532   1.024   5.155 -0.7004  1.8150  0.3846
   98SAPC  H18Z 9776   6.646   1.008   5.291  0.2480  0.5239  0.8046
   99SAPC     N 9777   4.396   5.984   2.618  0.1546  0.2843 -0.3500
   99SAPC   C12 9778   4.264   6.041   2.588  0.7220  0.1389 -0.3419
   99SAPC  H12A 9779   4.217   5.994   2.504  0.9536 -0.3858 -0.1836
   99SAPC  H12B 9780   4.272   6.145   2.559 -0.9413  0.6016  0.7381
   99SAPC   C13 9781   4.400   5.844   2.669 -0.0209 -0.3173 -0.1561
   99SAPC  H13A 9782   4.495   5.801   2.699 -0.2680  0.7058  2.2818
   99SAPC  H13B 9783   4.325   5.832   2.745  0.6268 -0.5048  0.4612
   99SAPC  H13C 9784   4.363   5.781   2.589 -0.4491  0.6908 -0.7716
   99SAPC   C14 9785   4.493   5.984   2.504 -0.4337 -0.2796  0.2372
   99SAPC  H14A 9786   4.584   5.934   2.535  1.8170  1.6419 -2.7538
   99SAPC  H14B 9787   4.453   5.938   2.415  0.1503 -0.8743  0.2711
   99SAPC  H14C 9788   4.522   6.086   2.483 -2.4700  0.6983  1.7700
   99SAPC   C15 9789   4.465   6.065   2.724 -0.5834  0.1432 -0.6285
   99SAPC  H15A 9790   4.545   6.003   2.761 -0.3560  0.7751 -0.0424
   99SAPC  H15B 9791   4.503   6.161   2.690 -2.5358  1.1002 -0.2911
   99SAPC  H15C 9792   4.403   6.090   2.809 -2.8688 -1.4880 -1.7197
   99SAPC   C11 9793   4.158   6.042   2.699  0.8357  0.7944 -0.3555
   99SAPC  H11A 9794   4.062   6.086   2.665 -0.1501 -2.4323 -2.0839
   99SAPC  H11B 9795   4.192   6.099   2.788 -0.7383  0.7248  0.3237
   99SAPC     P 9796   4.031   5.799   2.685  0.0540  0.1272 -0.0898
   99SAPC   O13 9797   3.907   5.866   2.639  0.0569  0.4612 -0.6938
   99SAPC   O14 9798   4.102   5.705   2.597 -0.3743 -0.2742  0.4723
   99SAPC   O12 9799   4.135   5.906   2.738 -0.0613 -0.1184 -0.5660
   99SAPC   O11 9800   3.993   5.728   2.825  0.2905 -0.8213  0.1599
   99SAPC    C1 9801   4.008   5.789   2.953 -0.8521  0.4086  0.1101
   99SAPC    HA 9802   3.990   5.899   2.946  0.8954  0.6131 -2.2711
   99SAPC    HB 9803   3.921   5.751   3.011 -1.9984  1.4191 -0.8913
   99SAPC    C2 9804   4.140   5.777   3.024 -0.3790  0.0212  0.5843
   99SAPC    HS 9805   4.215   5.806   2.947 -0.0263 -1.3770  0.3673
   99SAPC   O21 9806   4.162   5.638   3.051  0.5392  0.3114 -0.0171
   99SAPC   C21 9807   4.283   5.605   3.101 -0.0059  0.6101  0.3630
   99SAPC   O22 9808   4.373   5.684   3.105 -0.8196 -0.2684 -0.1210
   99SAPC   C22 9809   4.288   5.461   3.124 -0.2775 -0.9289 -0.2715
   99SAPC   H2R 9810   4.190   5.434   3.169 -1.0869 -0.9296 -1.9367
   99SAPC   H2S 9811   4.294   5.405   3.028 -2.7805  1.8542 -2.2300
   99SAPC    C3 9812   4.155   5.863   3.156 -0.0190 -0.0186  0.5939
   99SAPC    HX 9813   4.128   5.966   3.124 -1.7537 -1.2809 -2.3769
   99SAPC    HY 9814   4.262   5.873   3.185  0.0395  0.7397  0.1279
   99SAPC   O31 9815   4.073   5.810   3.253  0.2555  0.0677 -0.3950
   99SAPC   C31 9816   4.111   5.846   3.379 -0.1235  0.0907 -0.2922
   99SAPC   O32 9817   4.212   5.914   3.402  0.3304 -0.1587 -0.2133
   99SAPC   C32 9818   4.027   5.768   3.487 -0.0613 -0.1405 -0.3376
   99SAPC   H2X 9819   3.976   5.682   3.439 -1.9976  0.9118 -0.2549
   99SAPC   H2Y 9820   3.946   5.838   3.517 -0.2266 -0.8740  1.0229
   99SAPC   C23 9821   4.393   5.412   3.221  0.7507 -0.5169 -0.0112
   99SAPC   H3R 9822   4.473   5.489   3.225  0.1560  0.1688 -0.8741
   99SAPC   H3S 9823   4.438   5.316   3.185  0.4969 -0.5699 -0.1875
   99SAPC   C24 9824   4.341   5.391   3.359  0.1328 -0.2424  0.3858
   99SAPC   H4R 9825   4.276   5.476   3.389 -1.8936 -1.9499  1.0508
   99SAPC   H4S 9826   4.426   5.396   3.430 -0.2194  0.3457  0.7807
   99SAPC   C25 9827   4.260   5.263   3.368  0.0283 -0.4391  0.0438
   99SAPC   H5R 9828   4.237   5.196   3.283 -1.5319  0.2741 -0.1196
   99SAPC   C26 9829   4.189   5.229   3.482 -0.6775 -0.8570  0.2021
   99SAPC   H6R 9830   4.121   5.143   3.481 -0.2024 -1.2449  0.6106
   99SAPC   C27 9831   4.205   5.311   3.616 -0.3453 -0.0807  0.8673
   99SAPC   H7R 9832   4.100   5.319   3.652  0.0318 -2.3995  2.6700
   99SAPC   H7S 9833   4.233   5.418   3.606 -1.6171  0.2246  0.2794
   99SAPC   C28 9834   4.304   5.240   3.702  0.0723 -0.1526 -0.5718
   99SAPC   H8R 9835   4.398   5.213   3.651 -0.1011  0.1751 -1.0639
   99SAPC   C29 9836   4.307   5.223   3.834  0.1185 -0.0228 -0.0678
   99SAPC   H9R 9837   4.400   5.184   3.879  0.0539 -0.2044 -0.0886
   99SAPC  C210 9838   4.191   5.253   3.931 -0.2050 -0.2640 -0.8449
   99SAPC  H10R 9839   4.104   5.287   3.872 -0.3719 -0.2059 -0.5680
   99SAPC  H10S 9840   4.220   5.333   4.003 -2.2318 -0.0291 -0.2414
   99SAPC  C211 9841   4.161   5.132   4.020 -0.5748 -0.5312  0.1926
   99SAPC  H11R 9842   4.126   5.046   3.962  0.1017 -0.2308 -0.6692
   99SAPC  C212 9843   4.185   5.119   4.156  0.0944  0.2351 -0.8817
   99SAPC  H12R 9844   4.168   5.018   4.196  0.9993 -0.2290 -1.6497
   99SAPC  C213 9845   4.222   5.225   4.259  0.1415 -0.5412  0.5073
   99SAPC  H13R 9846   4.205   5.184   4.360  2.5086  0.2108  1.2831
   99SAPC  H13S 9847   4.150   5.308   4.243 -0.4082 -1.4032 -2.0063
   99SAPC  C214 9848   4.356   5.278   4.242  0.4187 -0.2948 -0.0117
   99SAPC  H14R 9849   4.416   5.231   4.162 -0.7249 -1.8673  0.0035
   99SAPC  C215 9850   4.407   5.358   4.340  0.2428  0.4668 -0.3248
   99SAPC  H15R 9851   4.511   5.388   4.323  2.3656 -3.9155  2.8656
   99SAPC  C216 9852   4.343   5.397   4.470  0.3922  0.1267  1.0556
   99SAPC  H16R 9853   4.232   5.403   4.467  0.3522  0.4819  2.4765
   99SAPC  H16S 9854   4.383   5.489   4.518  2.7778  0.4185 -1.2661
   99SAPC  C217 9855   4.353   5.285   4.582  1.6262  0.1772  0.2527
   99SAPC  H17R 9856   4.463   5.274   4.589  1.8252  1.3501 -0.7393
   99SAPC  H17S 9857   4.300   5.190   4.561 -1.0060  1.3022  1.3057
   99SAPC  C218 9858   4.306   5.330   4.720  0.6413 -0.5909  0.4134
   99SAPC  H18R 9859   4.201   5.364   4.705  0.3107 -1.2204  1.2348
   99SAPC  H18S 9860   4.370   5.413   4.758 -2.5360  2.8453 -1.0799
   99SAPC  C219 9861   4.294   5.213   4.817 -0.0982  0.6816  0.4193
   99SAPC  H19R 9862   4.208   5.150   4.786  1.2281  0.3729 -3.0347
   99SAPC  H19S 9863   4.287   5.260   4.917  0.6433  2.3561 -0.2657
   99SAPC  C220 9864   4.413   5.116   4.820  0.6043 -0.4924 -0.2591
   99SAPC  H20R 9865   4.511   5.154   4.783  0.3374 -1.0625 -1.5955
   99SAPC  H20S 9866   4.389   5.020   4.769 -1.0575  0.2722 -0.9767
   99SAPC  H20T 9867   4.431   5.095   4.928  0.2356 -0.7230 -0.2401
   99SAPC   C33 9868   4.119   5.733   3.609  0.6022  0.0186  0.0777
   99SAPC   H3X 9869   4.177   5.825   3.630  1.5430 -0.4600 -0.3915
   99SAPC   H3Y 9870   4.191   5.651   3.587 -2.1244 -2.1754 -1.3237
   99SAPC   C34 9871   4.039   5.681   3.736  0.0842 -0.2701  0.0975
   99SAPC   H4X 9872   4.001   5.579   3.711 -0.1468  0.0051 -0.6821
   99SAPC   H4Y 9873   3.956   5.751   3.756 -3.3513 -3.2594 -2.3949
   99SAPC   C35 9874   4.134   5.672   3.859  0.7056  0.9440  0.5183
   99SAPC   H5X 9875   4.164   5.777   3.881 -1.0115  1.4209  0.7126
   99SAPC   H5Y 9876   4.222   5.616   3.820 -0.2787  0.5289 -1.2113
   99SAPC   C36 9877   4.070   5.608   3.985  0.7102 -0.0180  0.2508
   99SAPC   H6X 9878   4.151   5.593   4.060  0.3417  1.3624  0.9700
   99SAPC   H6Y 9879   4.033   5.508   3.954 -0.7614  0.7844 -0.6953
   99SAPC   C37 9880   3.940   5.674   4.038  1.2305  0.5029  0.3464
   99SAPC   H7X 9881   3.869   5.671   3.953  0.7384 -0.0125  0.7741
   99SAPC   H7Y 9882   3.957   5.781   4.062 -0.3389  1.1691 -1.2812
   99SAPC   C38 9883   3.877   5.596   4.154 -0.3150  0.0361  0.3643
   99SAPC   H8X 9884   3.833   5.495   4.141  0.5121 -0.3252  0.2784
   99SAPC   H8Y 9885   3.795   5.669   4.171  0.0305  0.3644  0.6631
   99SAPC   C39 9886   3.977   5.589   4.271 -0.8318 -0.1171 -0.2840
   99SAPC   H9X 9887   4.033   5.684   4.284  1.6388 -1.4898 -0.2354
   99SAPC   H9Y 9888   4.067   5.525   4.257 -0.3313  0.7162 -0.9676
   99SAPC  C310 9889   3.909   5.565   4.408 -0.0163  0.3728  0.1028
   99SAPC  H10X 9890   3.814   5.621   4.415 -0.2159 -0.1165  1.7970
   99SAPC  H10Y 9891   3.978   5.592   4.491  1.3045 -0.2521 -0.7460
   99SAPC  C311 9892   3.876   5.411   4.434  0.9411  0.4488  0.0028
   99SAPC  H11X 9893   3.971   5.353   4.429  0.9001  0.3104  0.7536
   99SAPC  H11Y 9894   3.819   5.387   4.341  0.1290  0.4309  0.4967
   99SAPC  C312 9895   3.797   5.380   4.562  0.2662  0.3746 -0.2425
   99SAPC  H12X 9896   3.760   5.277   4.545 -1.6970  1.0614 -0.3682
   99SAPC  H12Y 9897   3.705   5.443   4.566  0.2891  0.3759  0.4009
   99SAPC  C313 9898   3.886   5.378   4.687  0.5070 -0.8852 -0.2804
   99SAPC  H13X 9899   3.936   5.474   4.712 -1.5935  0.1483  0.1585
   99SAPC  H13Y 9900   3.971   5.313   4.658 -0.9802 -1.5049 -3.7556
   99SAPC  C314 9901   3.813   5.319   4.808 -0.5620  0.1120  0.1510
   99SAPC  H14X 9902   3.777   5.219   4.775 -0.5057  0.6584 -1.6804
   99SAPC  H14Y 9903   3.729   5.388   4.829  1.6617  2.9629  0.3698
   99SAPC  C315 9904   3.896   5.302   4.941  0.0938 -0.1474 -0.6523
   99SAPC  H15X 9905   3.973   5.227   4.915 -1.1582 -1.3614 -0.9333
   99SAPC  H15Y 9906   3.820   5.273   5.017  2.5408 -2.1291  1.1941
   99SAPC  C316 9907   3.963   5.424   5.001 -0.2322  0.1349  0.4566
   99SAPC  H16X 9908   3.883   5.499   5.017 -2.1533 -1.1199 -2.4350
   99SAPC  H16Y 9909   4.029   5.455   4.916 -0.4315 -0.3770  0.1112
   99SAPC  C317 9910   4.053   5.387   5.121  0.3187 -0.0292 -0.0937
   99SAPC  H17X 9911   4.104   5.479   5.155 -1.6289  1.3896 -0.8601
   99SAPC  H17Y 9912   4.125   5.312   5.080  0.8273 -0.0591  0.8244
   99SAPC  C318 9913   3.978   5.314   5.230 -0.4744  0.4080  0.0051
   99SAPC  H18X 9914   3.940   5.215   5.195  0.4735 -0.3885  1.1354
   99SAPC  H18Y 9915   3.895   5.380   5.262 -1.2257  0.7126 -2.3698
   99SAPC  H18Z 9916   4.039   5.301   5.322 -0.2591  0.7417 -0.0920
  100SAPC     N 9917   1.889   0.138   3.159 -0.1108 -0.9025 -0.7437
  100SAPC   C12 9918   1.841   0.177   3.302 -0.8462 -0.7868 -0.2771
  100SAPC  H12A 9919   1.744   0.224   3.292  0.3467  1.9350  0.1384
  100SAPC  H12B 9920   1.899   0.259   3.342 -0.3899 -0.5427 -1.4181
  100SAPC   C13 9921   1.790   0.043   3.101 -0.6856  1.4909 -0.4842
  100SAPC  H13A 9922   1.791  -0.049   3.158 -3.5862  1.6447 -0.0175
  100SAPC  H13B 9923   1.688   0.079   3.105 -0.7492  1.2851 -0.1946
  100SAPC  H13C 9924   1.816   0.023   2.998 -2.1376  0.2141 -0.6344
  100SAPC   C14 9925   1.904   0.257   3.074 -0.6555  0.4045  0.3468
  100SAPC  H14A 9926   1.989   0.318   3.102  0.2192 -0.9178  0.6367
  100SAPC  H14B 9927   1.925   0.233   2.971 -0.5213 -0.3919  0.5577
  100SAPC  H14C 9928   1.812   0.313   3.077 -0.3186  0.9450  0.7468
  100SAPC   C15 9929   2.019   0.059   3.170  0.1339  0.4143  0.2196
  100SAPC  H15A 9930   2.098   0.113   3.219 -0.1279  1.2646 -0.2866
  100SAPC  H15B 9931   2.006  -0.019   3.244 -0.9925  2.1717  1.9607
  100SAPC  H15C 9932   2.038   0.019   3.072  0.0412 -0.4897  0.5524
  100SAPC   C11 9933   1.843   0.063   3.407 -0.0121 -0.0258  0.3718
  100SAPC  H11A 9934   1.822   0.106   3.507  0.4615  0.7302  0.1529
  100SAPC  H11B 9935   1.947   0.024   3.404  0.5671  1.4659  0.4961
  100SAPC     P 9936   1.766  -0.188   3.424 -0.1841 -0.3384 -0.0007
  100SAPC   O13 9937   1.645  -0.259   3.388  0.4989 -0.3775 -0.3887
  100SAPC   O14 9938   1.891  -0.229   3.349  0.0557  0.1934 -0.0663
  100SAPC   O12 9939   1.742  -0.034   3.381 -0.1804  0.2913  0.6797
  100SAPC   O11 9940   1.782  -0.187   3.580 -0.0098  0.3273 -0.6259
  100SAPC    C1 9941   1.698  -0.105   3.658 -0.6961 -0.4877 -0.1046
  100SAPC    HA 9942   1.770  -0.056   3.727 -1.8265  0.4946  0.4052
  100SAPC    HB 9943   1.644  -0.023   3.606  0.6791 -0.9488 -2.3880
  100SAPC    C2 9944   1.595  -0.196   3.738  0.0424  0.6816  0.1015
  100SAPC    HS 9945   1.528  -0.247   3.665  0.7919  0.5284 -0.5000
  100SAPC   O21 9946   1.533  -0.126   3.849  0.3277  0.0823  0.1209
  100SAPC   C21 9947   1.431  -0.057   3.807  0.2732 -0.4220  0.3125
  100SAPC   O22 9948   1.393  -0.046   3.691 -0.2926 -0.0727 -0.2941
  100SAPC   C22 9949   1.361   0.019   3.924 -0.5865  0.1999  0.6717
  100SAPC   H2R 9950   1.312  -0.060   3.984 -2.1402  1.2705  0.8647
  100SAPC   H2S 9951   1.435   0.075   3.984  1.2315 -2.2096  0.8472
  100SAPC    C3 9952   1.677  -0.317   3.795  0.3613 -0.5087  0.2539
  100SAPC    HX 9953   1.743  -0.276   3.874  0.4864 -0.6239  0.2089
  100SAPC    HY 9954   1.740  -0.357   3.714  0.9209  1.3172 -0.2643
  100SAPC   O31 9955   1.591  -0.411   3.867 -0.3361  0.1960 -0.1403
  100SAPC   C31 9956   1.534  -0.505   3.782 -0.4860 -0.0034  0.0570
  100SAPC   O32 9957   1.543  -0.509   3.661 -0.1084  0.2495  0.6473
  100SAPC   C32 9958   1.466  -0.606   3.868  0.0418  0.7971 -0.0371
  100SAPC   H2X 9959   1.495  -0.703   3.821 -2.8475  0.0465 -0.4536
  100SAPC   H2Y 9960   1.357  -0.596   3.852 -0.0071  2.3504  1.0592
  100SAPC   C23 9961   1.253   0.114   3.872  0.6461 -0.3101  0.9061
  100SAPC   H3R 9962   1.175   0.064   3.811  0.1206  0.7959  0.6666
  100SAPC   H3S 9963   1.291   0.190   3.801 -2.7162  1.1130  0.4480
  100SAPC   C24 9964   1.177   0.196   3.980 -0.1711  0.4519 -0.8059
  100SAPC   H4R 9965   1.083   0.229   3.932 -0.0590  0.2802 -1.1458
  100SAPC   H4S 9966   1.230   0.286   4.020 -1.1648  0.1126  1.4608
  100SAPC   C25 9967   1.144   0.105   4.100  0.1268 -0.3321  0.0415
  100SAPC   H5R 9968   1.066   0.030   4.081 -2.0055  1.8220 -0.3563
  100SAPC   C26 9969   1.196   0.108   4.217 -0.7917  0.6909 -1.0231
  100SAPC   H6R 9970   1.171   0.028   4.288  3.0655  0.1499 -0.0217
  100SAPC   C27 9971   1.306   0.195   4.278  0.2818  0.8060 -1.1286
  100SAPC   H7R 9972   1.250   0.261   4.348 -0.8304 -0.7066 -0.5475
  100SAPC   H7S 9973   1.355   0.257   4.200 -1.0552 -0.3613 -2.9633
  100SAPC   C28 9974   1.406   0.124   4.370 -0.5270 -0.2260 -0.0132
  100SAPC   H8R 9975   1.493   0.077   4.322  0.8365  0.6243  1.5071
  100SAPC   C29 9976   1.407   0.117   4.503  0.3270  0.3512  0.5725
  100SAPC   H9R 9977   1.492   0.062   4.547  1.6140  1.2076 -0.7732
  100SAPC  C210 9978   1.302   0.163   4.595  1.0694 -0.2660  0.0244
  100SAPC  H10R 9979   1.253   0.093   4.667  3.0357 -1.9958 -0.2477
  100SAPC  H10S 9980   1.214   0.199   4.538  0.6988  2.5916  2.1406
  100SAPC  C211 9981   1.343   0.290   4.672 -0.3630  0.5545  0.0971
  100SAPC  H11R 9982   1.336   0.385   4.616  0.7753 -0.0552 -1.1270
  100SAPC  C212 9983   1.391   0.297   4.797 -0.4904 -0.3469  0.5340
  100SAPC  H12R 9984   1.422   0.399   4.825  0.2869 -0.7270  1.0901
  100SAPC  C213 9985   1.395   0.183   4.890  0.1661 -0.5618 -0.0215
  100SAPC  H13R 9986   1.498   0.147   4.911 -0.3361 -0.7085  2.6300
  100SAPC  H13S 9987   1.339   0.097   4.848 -1.9150  1.3610 -1.3974
  100SAPC  C214 9988   1.329   0.212   5.029  0.0196 -0.1796  0.1678
  100SAPC  H14R 9989   1.230   0.166   5.047 -1.7686  2.9633 -0.8412
  100SAPC  C215 9990   1.387   0.287   5.121  0.2187  0.3562  0.5479
  100SAPC  H15R 9991   1.327   0.286   5.213 -0.6278 -0.2272  0.0093
  100SAPC  C216 9992   1.510   0.374   5.128  0.0919  0.4844  0.4784
  100SAPC  H16R 9993   1.557   0.378   5.028 -0.3011 -0.5763  0.2350
  100SAPC  H16S 9994   1.590   0.328   5.189  1.7870  1.1881 -1.1251
  100SAPC  C217 9995   1.475   0.520   5.190 -0.3198  0.1340  0.0455
  100SAPC  H17R 9996   1.428   0.502   5.289 -1.0081 -0.2839 -0.3503
  100SAPC  H17S 9997   1.409   0.573   5.118  1.3633  3.4727  0.7668
  100SAPC  C218 9998   1.601   0.597   5.199 -0.1613 -0.3803 -0.0340
  100SAPC  H18R 9999   1.652   0.591   5.101  0.9983 -2.2265  0.6378
  100SAPC  H18S10000   1.674   0.551   5.269  0.1029 -0.2525 -0.2234
  100SAPC  C21910001   1.579   0.747   5.230 -0.2035 -0.6209 -0.4204
  100SAPC  H19R10002   1.528   0.750   5.328  1.4047  0.6001  0.4395
  100SAPC  H19S10003   1.506   0.789   5.158 -0.5189 -0.7245 -0.1585
  100SAPC  C22010004   1.701   0.839   5.223  0.4284  0.8713 -0.3010
  100SAPC  H20R10005   1.780   0.784   5.167 -1.0290 -1.5737 -0.1494
  100SAPC  H20S10006   1.734   0.846   5.328  1.0090 -1.2227 -0.2974
  100SAPC  H20T10007   1.675   0.935   5.175 -2.2589  0.6699  0.5643
  100SAPC   C3310008   1.499  -0.603   4.022 -0.0513  0.3571 -0.4628
  100SAPC   H3X10009   1.454  -0.512   4.068  0.4883 -0.2338  1.3204
  100SAPC   H3Y10010   1.608  -0.609   4.040 -0.3243 -1.4425  0.7473
  100SAPC   C3410011   1.431  -0.722   4.100 -0.5617  0.2306  0.9216
  100SAPC   H4X10012   1.459  -0.823   4.064 -1.2556  0.6931 -1.0186
  100SAPC   H4Y10013   1.322  -0.712   4.085 -0.7842 -0.8937  1.7290
  100SAPC   C3510014   1.467  -0.718   4.250  0.6912 -0.4590 -0.6155
  100SAPC   H5X10015   1.436  -0.617   4.286  2.1099 -0.3585  0.3888
  100SAPC   H5Y10016   1.577  -0.723   4.262  0.7537  2.0650  0.4901
  100SAPC   C3610017   1.399  -0.828   4.336  0.0576 -0.3647 -1.1246
  100SAPC   H6X10018   1.443  -0.925   4.306  2.8131  0.5271 -0.3385
  100SAPC   H6Y10019   1.292  -0.824   4.308  0.1980 -0.0616 -1.6326
  100SAPC   C3710020   1.429  -0.804   4.483 -0.6889  0.1872  0.0190
  100SAPC   H7X10021   1.362  -0.861   4.550 -0.2994 -0.6230 -0.2645
  100SAPC   H7Y10022   1.421  -0.696   4.508 -0.7013  0.6652 -1.9285
  100SAPC   C3810023   1.564  -0.866   4.521  0.7087 -0.1437 -1.3339
  100SAPC   H8X10024   1.654  -0.808   4.491  0.9589 -0.6670 -1.6087
  100SAPC   H8Y10025   1.574  -0.968   4.477 -1.8182 -0.9887 -0.1342
  100SAPC   C3910026   1.567  -0.897   4.675 -0.0807 -0.2367  0.6438
  100SAPC   H9X10027   1.660  -0.948   4.708  1.2924  0.2983 -2.0849
  100SAPC   H9Y10028   1.484  -0.968   4.696 -0.5289 -0.3302 -1.2535
  100SAPC  C31010029   1.540  -0.773   4.755 -0.9920  0.2732 -0.1210
  100SAPC  H10X10030   1.461  -0.706   4.714  0.0871  1.4557 -0.3065
  100SAPC  H10Y10031   1.620  -0.698   4.738 -0.0495 -0.2973  1.6322
  100SAPC  C31110032   1.536  -0.791   4.910 -0.4594  0.2208  0.1029
  100SAPC  H11X10033   1.473  -0.872   4.952  0.7451 -0.4738  0.6182
  100SAPC  H11Y10034   1.493  -0.698   4.954  0.6174  0.4659  0.6656
  100SAPC  C31210035   1.671  -0.821   4.973 -0.6767 -0.5257 -0.8277
  100SAPC  H12X10036   1.736  -0.732   4.960 -3.2256  1.5532 -0.3406
  100SAPC  H12Y10037   1.711  -0.917   4.933  1.7883  0.2286 -0.3585
  100SAPC  C31310038   1.662  -0.841   5.131 -0.0543 -0.0490 -0.0578
  100SAPC  H13X10039   1.579  -0.912   5.151  0.2145 -0.1550  0.7184
  100SAPC  H13Y10040   1.634  -0.748   5.183  1.1074 -0.6377  1.7000
  100SAPC  C31410041   1.793  -0.888   5.191 -0.4175 -0.1491  0.5397
  100SAPC  H14X10042   1.858  -0.797   5.185 -0.8663  0.1077 -0.7447
  100SAPC  H14Y10043   1.843  -0.960   5.123 -1.8376 -0.7256  0.0673
  100SAPC  C31510044   1.773  -0.928   5.337  0.5225 -0.4283  0.0435
  100SAPC  H15X10045   1.703  -0.850   5.374  0.8902  0.9262 -1.9602
  100SAPC  H15Y10046   1.873  -0.918   5.385 -0.0097  0.4255  1.0217
  100SAPC  C31610047   1.705  -1.067   5.366  0.6452  0.0767 -0.1954
  100SAPC  H16X10048   1.702  -1.126   5.272 -0.6504  0.9949 -0.7624
  100SAPC  H16Y10049   1.602  -1.047   5.402  0.5241 -0.0575 -0.4672
  100SAPC  C31710050   1.782  -1.129   5.483 -0.3316 -0.1800 -0.4352
  100SAPC  H17X10051   1.891  -1.120   5.467 -0.2661 -1.3020 -0.6839
  100SAPC  H17Y10052   1.749  -1.235   5.494 -0.7073 -0.0828 -0.6265
  100SAPC  C31810053   1.744  -1.045   5.604  0.0944  0.0812  0.5059
  100SAPC  H18X10054   1.806  -1.078   5.691  0.0450  0.5150  0.7091
  100SAPC  H18Y10055   1.636  -1.051   5.629  0.2817 -2.0430  1.0402
  100SAPC  H18Z10056   1.774  -0.939   5.594  1.2584 -0.3451 -0.7783
  101OSM      N10057   2.627   4.372   7.594 -0.2999 -0.2095  0.3378
  101OSM    C1510058   2.616   4.298   7.725  0.2065 -0.0007  0.7544
  101OSM   H15A10059   2.532   4.335   7.782 -1.9025 -0.8146 -1.5839
  101OSM   H15B10060   2.710   4.314   7.774  1.5055 -0.8815 -1.3017
  101OSM   H15C10061   2.598   4.192   7.712  0.2884 -0.1140  1.5606
  101OSM    C1410062   2.512   4.336   7.508 -0.2764  0.1590  0.5493
  101OSM   H14A10063   2.518   4.230   7.488  1.9813  0.5489 -1.3423
  101OSM   H14B10064   2.519   4.388   7.414 -0.1490 -2.3446 -0.9073
  101OSM   H14C10065   2.416   4.369   7.544 -0.0704 -0.0494  1.3120
  101OSM    C1310066   2.628   4.518   7.613 -0.3037  0.5743 -0.5130
  101OSM   H13A10067   2.548   4.554   7.676 -0.9700  1.6579 -1.9216
  101OSM   H13B10068   2.634   4.573   7.520 -2.2443  0.5297 -0.7128
  101OSM   H13C10069   2.716   4.536   7.672  0.9762 -0.6091 -1.9765
  101OSM    C1210070   2.751   4.329   7.520 -0.7872  0.7659 -0.7502
  101OSM   H12A10071   2.754   4.221   7.515  0.9761  0.5933  1.8600
  101OSM   H12B10072   2.832   4.359   7.585 -0.6709  0.5381 -0.7908
  101OSM    C1110073   2.780   4.387   7.379 -0.1624 -0.0456 -0.2693
  101OSM   H11A10074   2.683   4.382   7.324  0.1122  0.9874 -0.8871
  101OSM   H11B10075   2.862   4.330   7.331  1.8890 -1.2680  4.2109
  101OSM      P10076   2.953   4.591   7.345 -0.3048  0.1477  0.1586
  101OSM    O1310077   2.931   4.732   7.370  0.5133  0.2323 -0.0089
  101OSM    O1410078   3.072   4.536   7.406  0.7864  0.2749  0.2046
  101OSM    O1110079   2.951   4.554   7.193 -0.7661  0.1765  0.3193
  101OSM    O1210080   2.816   4.525   7.390 -0.1138 -0.0066  0.1055
  101OSM    C1S10081   2.836   4.579   7.115 -0.3246 -0.2159 -0.6449
  101OSM    H1S10082   2.790   4.680   7.123  0.4850  0.6959 -5.0502
  101OSM    H1T10083   2.755   4.510   7.146 -0.6157  0.2604 -0.3286
  101OSM     NF10084   2.777   4.622   6.875 -0.3776  0.2482  0.2065
  101OSM    HNF10085   2.724   4.560   6.817 -2.1593  1.4600  0.4707
  101OSM    C2S10086   2.873   4.552   6.965  1.0046  0.5336  0.7698
  101OSM    H2S10087   2.976   4.594   6.955  2.0814 -1.8335  1.4306
  101OSM    C3S10088   2.881   4.408   6.920  0.0405 -0.2637 -0.0881
  101OSM    H3S10089   2.785   4.353   6.908  0.7275 -1.9184  1.5134
  101OSM     O310090   2.955   4.329   7.006 -0.0427 -0.2280 -0.3042
  101OSM    HO310091   2.969   4.384   7.084 -0.8470 -0.2474 -0.1330
  101OSM    C4S10092   2.955   4.382   6.788 -0.6140 -0.2051  0.3463
  101OSM    H4S10093   3.049   4.438   6.776 -1.2582  0.3008 -4.0647
  101OSM    C5S10094   2.922   4.310   6.680  0.1651  0.1492  0.4976
  101OSM    H5S10095   2.818   4.275   6.673 -0.0968  0.9546  0.2849
  101OSM    C6S10096   3.019   4.297   6.569  0.0387 -0.4334 -0.0082
  101OSM    H6S10097   3.085   4.208   6.571  1.1565  0.3901  0.9963
  101OSM    H6T10098   3.090   4.383   6.572 -0.0283 -0.4001  1.9703
  101OSM    C7S10099   2.951   4.325   6.429 -0.4402  1.0398 -0.9292
  101OSM    H7S10100   2.912   4.429   6.420  0.9305  1.7804  1.0062
  101OSM    H7T10101   2.874   4.248   6.408  3.9022 -3.0703 -3.7847
  101OSM    C8S10102   3.051   4.311   6.312  0.1702 -0.7938 -0.7306
  101OSM    H8S10103   3.130   4.234   6.332  0.3418  0.2041  3.2982
  101OSM    H8T10104   3.099   4.411   6.316 -0.3455 -0.5821  2.0616
  101OSM    C9S10105   2.982   4.290   6.175 -0.3860  0.5020  0.5440
  101OSM    H9S10106   2.906   4.371   6.171  0.3153  1.2878  1.9640
  101OSM    H9T10107   2.925   4.195   6.172  0.3770 -0.1112  2.8247
  101OSM   C10S10108   3.069   4.296   6.049 -0.5131  0.6480 -0.1376
  101OSM   H10S10109   3.110   4.195   6.029  0.9036  1.4753 -1.6270
  101OSM   H10T10110   3.154   4.365   6.070 -0.6280  0.3246  1.6069
  101OSM   C11S10111   2.995   4.351   5.927 -0.2741 -0.2199  0.4366
  101OSM   H11S10112   2.961   4.454   5.949 -1.5077 -0.7011  0.8198
  101OSM   H11T10113   2.904   4.289   5.915  1.2112 -2.9844  2.3489
  101OSM   C12S10114   3.091   4.346   5.801 -0.7939  0.0799  0.2592
  101OSM   H12S10115   3.152   4.253   5.805  2.7400  2.2613  1.5169
  101OSM   H12T10116   3.146   4.438   5.830 -1.6522  0.2473  1.4432
  101OSM   C13S10117   3.032   4.370   5.661 -0.5405  0.0262  0.8245
  101OSM   H13S10118   2.958   4.452   5.672 -1.6072 -0.7337 -0.3028
  101OSM   H13T10119   2.984   4.277   5.622  0.1474 -0.1131  0.2821
  101OSM   C14S10120   3.136   4.402   5.546  0.4371  0.3269 -0.3331
  101OSM   H14S10121   3.187   4.313   5.504  0.4194  0.4715 -0.6602
  101OSM   H14T10122   3.211   4.466   5.598  0.3421  0.9717 -0.9684
  101OSM   C15S10123   3.076   4.490   5.436 -0.3284  0.2669  0.0274
  101OSM   H15S10124   3.042   4.584   5.484  1.5203 -0.8481  3.9247
  101OSM   H15T10125   2.984   4.439   5.398 -0.5548 -0.0144  0.9389
  101OSM   C16S10126   3.187   4.509   5.328  0.4457  0.1720 -0.8943
  101OSM   H16S10127   3.203   4.412   5.276 -1.0553  0.5568 -2.1252
  101OSM   H16T10128   3.283   4.530   5.380  1.5865  0.8125 -3.1658
  101OSM   C17S10129   3.149   4.618   5.236 -0.1855 -0.2907 -0.1860
  101OSM   H17S10130   3.242   4.662   5.194  0.0490 -0.7631 -0.1731
  101OSM   H17T10131   3.089   4.697   5.286  0.2037 -1.7119  2.7289
  101OSM   C18S10132   3.064   4.553   5.126 -0.1886 -0.6545 -0.4641
  101OSM   H18S10133   3.116   4.461   5.090  2.0078  0.1278  0.5610
  101OSM   H18T10134   3.049   4.622   5.040 -0.7760  1.0104  0.9220
  101OSM   H18U10135   2.971   4.520   5.177  0.5965 -0.5698  1.0724
  101OSM    C1F10136   2.761   4.753   6.864 -0.4397 -0.5019  0.0657
  101OSM     OF10137   2.827   4.827   6.930 -0.7126 -0.0403 -0.1270
  101OSM    C2F10138   2.664   4.810   6.769 -0.2664  0.5135 -0.4525
  101OSM    H2F10139   2.588   4.862   6.830  1.1037  2.3738 -0.2548
  101OSM    H2G10140   2.631   4.729   6.700 -0.6749  0.4363 -0.1652
  101OSM    C3F10141   2.723   4.902   6.661  0.9388 -0.3821  0.5978
  101OSM    H3F10142   2.816   4.864   6.614  1.3149 -0.2392  1.2149
  101OSM    H3G10143   2.751   4.998   6.709  0.3094 -1.5308  3.4652
  101OSM    C4F10144   2.615   4.924   6.552 -0.4665 -0.2696 -0.1550
  101OSM    H4F10145   2.520   4.969   6.589 -0.3810 -0.5243  0.3728
  101OSM    H4G10146   2.589   4.819   6.527  2.5861 -1.1154 -0.1734
  101OSM    C5F10147   2.641   5.017   6.430 -0.0013  0.2700  0.6060
  101OSM    H5F10148   2.658   5.119   6.471  0.2194  0.9957 -1.1720
  101OSM    H5G10149   2.547   5.027   6.372  0.8542  1.6533 -0.6258
  101OSM    C6F10150   2.763   4.981   6.336  1.2617 -0.6284 -0.5548
  101OSM    H6F10151   2.746   4.890   6.276  0.2435 -0.7479 -0.1006
  101OSM    H6G10152   2.854   4.958   6.397  1.7861 -0.9053 -1.4253
  101OSM    C7F10153   2.804   5.105   6.255 -0.0410 -0.3050  0.2524
  101OSM    H7F10154   2.849   5.184   6.318  0.6818 -0.3782 -0.1620
  101OSM    H7G10155   2.713   5.145   6.204  0.2176 -1.9011 -1.6108
  101OSM    C8F10156   2.910   5.081   6.144  0.5459  0.0621  0.2768
  101OSM    H8F10157   2.877   4.994   6.084 -2.8316  0.7882  0.8878
  101OSM    H8G10158   3.002   5.059   6.202  1.5062  4.6048  0.9271
  101OSM    C9F10159   2.941   5.196   6.050  0.0678 -0.2910 -1.0989
  101OSM    H9F10160   3.044   5.234   6.052 -0.2230  0.4944  0.2295
  101OSM   C10F10161   2.859   5.255   5.965  0.3679 -0.0830  0.0915
  101OSM   H10F10162   2.893   5.347   5.915  1.1135  1.6741  3.5116
  101OSM   C11F10163   2.711   5.227   5.944 -0.2126  0.2657  0.7280
  101OSM   H11F10164   2.654   5.268   6.030 -0.0111  0.3458  0.8253
  101OSM   H11G10165   2.703   5.117   5.936  0.3514  0.2342  0.5382
  101OSM   C12F10166   2.659   5.288   5.811 -0.3655 -0.1070  0.1151
  101OSM   H12F10167   2.670   5.398   5.796 -1.7929  0.2974  1.7330
  101OSM   H12G10168   2.548   5.281   5.805 -0.3235 -0.8862  0.1673
  101OSM   C13F10169   2.723   5.224   5.686  0.2594 -0.0272  0.5448
  101OSM   H13F10170   2.708   5.114   5.688 -0.4410  0.0751  1.0839
  101OSM   H13G10171   2.832   5.247   5.681  0.4408  0.3284  3.7371
  101OSM   C14F10172   2.650   5.271   5.555 -0.2594  0.0981 -0.3642
  101OSM   H14F10173   2.708   5.353   5.509 -0.7790  0.8982  0.3841
  101OSM   H14G10174   2.550   5.314   5.577  0.6206  0.8164  2.8735
  101OSM   C15F10175   2.632   5.158   5.444 -0.1494 -0.3498  0.3975
  101OSM   H15F10176   2.599   5.075   5.509  0.3170  0.7251  2.0624
  101OSM   H15G10177   2.731   5.126   5.404 -0.0274  0.0420  0.3776
  101OSM   C16F10178   2.534   5.189   5.333  0.2092 -0.3901  0.2715
  101OSM   H16F10179   2.434   5.183   5.382  1.3013 -0.9271  2.5908
  101OSM   H16G10180   2.527   5.112   5.253  1.3960  2.2051 -2.5346
  101OSM   C17F10181   2.565   5.317   5.258 -0.6408 -0.2103  0.2043
  101OSM   H17F10182   2.669   5.310   5.220 -0.7635  2.8016 -1.0598
  101OSM   H17G10183   2.564   5.405   5.326 -1.0712  0.5208 -0.7146
  101OSM   C18F10184   2.466   5.351   5.155 -0.1716 -0.3215 -0.1185
  101OSM   H18F10185   2.478   5.453   5.111 -0.7365 -0.0567  0.3254
  101OSM   H18G10186   2.365   5.346   5.200  0.7249 -2.3267  1.8302
  101OSM   H18H10187   2.476   5.271   5.078  1.9124 -1.9845  1.7517
  102OSM      N10188   3.148   3.719   7.819  0.0062 -0.0187  0.2164
  102OSM    C1510189   3.286   3.763   7.860  0.2321  0.3232 -0.8271
  102OSM   H15A10190   3.291   3.781   7.966 -0.1552 -1.4034 -0.4919
  102OSM   H15B10191   3.315   3.852   7.806  1.5777  1.0016  0.9334
  102OSM   H15C10192   3.362   3.689   7.841 -1.9027 -1.6335 -2.3714
  102OSM    C1410193   3.111   3.601   7.903 -0.4179  0.0119  0.2557
  102OSM   H14A10194   3.171   3.513   7.888  0.0199  0.6584 -2.1381
  102OSM   H14B10195   3.009   3.577   7.878 -0.0948  0.7916 -2.0003
  102OSM   H14C10196   3.134   3.628   8.005  1.9017 -1.0728  0.0855
  102OSM    C1310197   3.062   3.831   7.861 -0.3570  0.2024 -0.0111
  102OSM   H13A10198   2.961   3.796   7.875 -0.6761  1.0047 -0.2535
  102OSM   H13B10199   3.075   3.912   7.790  0.8374 -1.1499 -1.4071
  102OSM   H13C10200   3.079   3.869   7.961 -1.1986 -3.5104  1.7115
  102OSM    C1210201   3.140   3.691   7.667  0.2440 -0.2999  0.8165
  102OSM   H12A10202   3.036   3.673   7.642  0.0269  2.6438 -0.9508
  102OSM   H12B10203   3.188   3.598   7.641 -1.1333 -0.0281 -3.5035
  102OSM    C1110204   3.187   3.802   7.567 -0.5584 -0.2770  0.2819
  102OSM   H11A10205   3.202   3.764   7.464 -0.1573  1.0576 -0.1764
  102OSM   H11B10206   3.286   3.832   7.606 -0.5910 -1.1684  1.0789
  102OSM      P10207   2.974   3.940   7.506 -0.1914  0.0285  0.0384
  102OSM    O1310208   2.879   3.833   7.543  0.4012  0.0311  0.2683
  102OSM    O1410209   2.924   4.075   7.523  0.2907 -0.1526  0.2447
  102OSM    O1110210   2.997   3.934   7.351  0.3839 -0.3945  0.2391
  102OSM    O1210211   3.106   3.918   7.574 -0.2913  0.7254  0.0147
  102OSM    C1S10212   3.063   4.035   7.276 -0.6373  0.1900  0.4096
  102OSM    H1S10213   3.162   4.062   7.317  0.5593  1.1334 -2.8509
  102OSM    H1T10214   2.989   4.118   7.271 -1.7315 -0.8072 -0.9778
  102OSM     NF10215   3.176   4.101   7.065 -0.0778  0.1182 -0.5055
  102OSM    HNF10216   3.116   4.164   7.016 -0.7991  0.3328  0.6133
  102OSM    C2S10217   3.104   3.993   7.125 -0.2183 -0.0473 -0.0403
  102OSM    H2S10218   3.174   3.907   7.121  2.1546  1.6461  2.0998
  102OSM    C3S10219   2.983   3.951   7.037  0.5543 -0.1233 -0.0975
  102OSM    H3S10220   2.907   4.032   7.032  2.5923  1.8587 -0.4925
  102OSM     O310221   2.898   3.852   7.097 -0.0603 -0.3796  0.2839
  102OSM    HO310222   2.923   3.859   7.190 -0.5644  1.3764  0.3177
  102OSM    C4S10223   3.019   3.920   6.898  0.2485 -0.8757 -0.8893
  102OSM    H4S10224   3.045   4.010   6.842  0.7929 -0.7323 -0.4070
  102OSM    C5S10225   3.025   3.803   6.836  0.2149 -0.1058  0.3366
  102OSM    H5S10226   2.999   3.707   6.883  0.8364  0.0501  1.0173
  102OSM    C6S10227   3.081   3.785   6.696 -0.0966  0.4601  0.1137
  102OSM    H6S10228   2.998   3.770   6.623  1.2332  0.8079 -1.5101
  102OSM    H6T10229   3.143   3.693   6.696  0.4831  0.7841  2.5389
  102OSM    C7S10230   3.158   3.909   6.644 -0.0588  0.4328  0.6575
  102OSM    H7S10231   3.250   3.921   6.705  1.4337 -2.7668 -0.7407
  102OSM    H7T10232   3.100   4.004   6.645  0.2621  0.8061 -2.9685
  102OSM    C8S10233   3.204   3.875   6.498 -0.9363  0.9016 -0.2726
  102OSM    H8S10234   3.117   3.837   6.441 -0.0982  0.5157 -1.3449
  102OSM    H8T10235   3.288   3.803   6.505  0.0548  2.1357  1.2055
  102OSM    C9S10236   3.249   3.999   6.430  0.0706 -0.3438  0.0624
  102OSM    H9S10237   3.310   4.057   6.503 -1.2326 -0.9001  1.6580
  102OSM    H9T10238   3.148   4.045   6.424  0.5922  2.0135  4.5349
  102OSM   C10S10239   3.320   3.973   6.296  0.0352 -0.1145 -0.3816
  102OSM   H10S10240   3.407   3.907   6.316  0.3259  0.6302  0.9201
  102OSM   H10T10241   3.355   4.076   6.271 -3.0796  1.1506 -0.0217
  102OSM   C11S10242   3.241   3.914   6.182  0.3319 -0.4465  0.5628
  102OSM   H11S10243   3.154   3.978   6.156  0.3742  0.5473  2.6717
  102OSM   H11T10244   3.196   3.817   6.210 -0.9055  0.8000  3.2122
  102OSM   C12S10245   3.333   3.911   6.057  0.0503 -0.1207 -0.1851
  102OSM   H12S10246   3.409   3.830   6.071  0.4689  0.6388  2.4430
  102OSM   H12T10247   3.398   4.001   6.058 -0.0372 -0.0534  1.2647
  102OSM   C13S10248   3.265   3.888   5.924 -0.2605 -0.1091  0.0381
  102OSM   H13S10249   3.231   3.991   5.898  2.9883  1.1366  0.2109
  102OSM   H13T10250   3.172   3.828   5.938  0.5344 -0.9860  1.9309
  102OSM   C14S10251   3.358   3.841   5.816 -0.3058  0.2660  0.1664
  102OSM   H14S10252   3.367   3.731   5.822  1.8148  0.3412 -0.7609
  102OSM   H14T10253   3.455   3.892   5.834 -0.4659  0.9368 -0.7732
  102OSM   C15S10254   3.323   3.869   5.664 -0.5070  1.1964 -0.8279
  102OSM   H15S10255   3.213   3.869   5.649 -0.5849  3.2611 -0.5886
  102OSM   H15T10256   3.368   3.783   5.610  0.2256  2.2470 -1.9523
  102OSM   C16S10257   3.385   4.003   5.624 -0.0536 -0.0408 -0.0879
  102OSM   H16S10258   3.495   3.986   5.633  0.2261  1.9667  1.0116
  102OSM   H16T10259   3.343   4.070   5.702 -0.9832 -1.1090  0.3560
  102OSM   C17S10260   3.361   4.043   5.481  0.0883  0.1914 -0.2948
  102OSM   H17S10261   3.252   4.061   5.482 -0.1702 -1.1267 -1.5899
  102OSM   H17T10262   3.388   3.964   5.407 -0.1381 -1.6081  1.4814
  102OSM   C18S10263   3.430   4.170   5.440  0.2840 -0.2128  0.3471
  102OSM   H18S10264   3.540   4.164   5.457  0.0197  0.1446  2.4414
  102OSM   H18T10265   3.392   4.252   5.503 -1.3117 -0.1235 -0.6896
  102OSM   H18U10266   3.421   4.200   5.333 -0.6068  0.0822  0.4994
  102OSM    C1F10267   3.294   4.145   7.101 -0.2997  0.1465  0.0347
  102OSM     OF10268   3.363   4.076   7.175  0.2515  0.3633  0.6534
  102OSM    C2F10269   3.338   4.278   7.058 -1.1193 -0.4430 -0.4376
  102OSM    H2F10270   3.352   4.343   7.146 -2.0314 -0.7014 -0.0900
  102OSM    H2G10271   3.263   4.324   6.990 -3.3404  1.1368  2.8245
  102OSM    C3F10272   3.479   4.270   6.988  0.1247 -0.4376  0.0969
  102OSM    H3F10273   3.542   4.257   7.079 -0.1327 -0.3369  0.2904
  102OSM    H3G10274   3.500   4.376   6.960 -0.4810 -0.3629 -0.0879
  102OSM    C4F10275   3.502   4.177   6.873  0.3139  0.2768  0.0047
  102OSM    H4F10276   3.418   4.172   6.800  0.0243 -2.0405  0.3985
  102OSM    H4G10277   3.511   4.073   6.912  0.0126 -1.0779 -3.1876
  102OSM    C5F10278   3.636   4.214   6.803 -0.5748  0.6245 -0.5897
  102OSM    H5F10279   3.667   4.120   6.752  0.5963  0.1188  0.9563
  102OSM    H5G10280   3.723   4.244   6.866 -0.1105 -0.2794 -0.7767
  102OSM    C6F10281   3.614   4.332   6.708  0.2142  0.1983  0.0744
  102OSM    H6F10282   3.572   4.423   6.755  1.0980  1.2068 -1.0438
  102OSM    H6G10283   3.535   4.288   6.643  1.0447 -0.2193 -0.6758
  102OSM    C7F10284   3.733   4.362   6.613  0.6971 -0.4738  0.4966
  102OSM    H7F10285   3.783   4.267   6.584 -0.7185 -1.1998  0.3719
  102OSM    H7G10286   3.801   4.436   6.662 -0.4916  0.6060  0.5595
  102OSM    C8F10287   3.695   4.437   6.482  0.1041  0.3500 -0.4459
  102OSM    H8F10288   3.797   4.460   6.443  0.2427  1.9830  0.7751
  102OSM    H8G10289   3.643   4.531   6.510 -0.8780 -0.3633  0.1846
  102OSM    C9F10290   3.622   4.343   6.387  0.2428 -0.0261 -0.0080
  102OSM    H9F10291   3.655   4.239   6.404 -0.3709 -0.1163  0.6898
  102OSM   C10F10292   3.529   4.364   6.292 -0.7187 -0.4918 -0.5008
  102OSM   H10F10293   3.508   4.279   6.225 -0.6920 -0.4520 -0.5601
  102OSM   C11F10294   3.460   4.485   6.232  0.0157 -0.2507  0.1982
  102OSM   H11F10295   3.530   4.571   6.241  1.9139 -1.6167 -0.7242
  102OSM   H11G10296   3.368   4.505   6.291 -0.2080 -1.7022  0.3681
  102OSM   C12F10297   3.433   4.458   6.087 -1.0898  0.3518  0.2774
  102OSM   H12F10298   3.369   4.539   6.046  0.5396 -0.6052 -4.9517
  102OSM   H12G10299   3.384   4.361   6.062  0.7421  0.0060 -2.3204
  102OSM   C13F10300   3.548   4.487   5.991 -1.0619  0.4468  0.3172
  102OSM   H13F10301   3.617   4.400   5.987 -0.7271  0.7417 -2.2798
  102OSM   H13G10302   3.607   4.570   6.034 -2.5760  0.1986  3.1223
  102OSM   C14F10303   3.506   4.505   5.846  0.1248  0.4027 -0.1832
  102OSM   H14F10304   3.442   4.596   5.837  1.4756  1.3668 -0.3019
  102OSM   H14G10305   3.447   4.411   5.837  3.2855 -1.6235 -1.2214
  102OSM   C15F10306   3.623   4.520   5.742  0.2676  0.2443  0.6765
  102OSM   H15F10307   3.687   4.429   5.746  0.3301  0.3129  1.5049
  102OSM   H15G10308   3.678   4.610   5.778 -1.0980  0.5764  2.0954
  102OSM   C16F10309   3.576   4.538   5.599  0.2347 -0.3099 -0.0148
  102OSM   H16F10310   3.540   4.643   5.588  0.9153 -0.0808 -0.0760
  102OSM   H16G10311   3.487   4.471   5.595 -0.0978 -0.0212  1.7665
  102OSM   C17F10312   3.677   4.504   5.494  0.7391  0.0069 -0.1723
  102OSM   H17F10313   3.654   4.398   5.469  0.5772 -0.7143  2.6681
  102OSM   H17G10314   3.770   4.511   5.554  0.4366 -1.5968  0.5404
  102OSM   C18F10315   3.675   4.595   5.373 -0.4109  0.4419  0.2190
  102OSM   H18F10316   3.678   4.702   5.403 -0.3269 -0.0905  2.3137
  102OSM   H18G10317   3.590   4.572   5.306  0.1113 -0.6335 -0.0926
  102OSM   H18H10318   3.766   4.569   5.315 -1.1261  1.8160 -1.6120
  103OSM      N10319   1.164   3.887   7.194  0.3001 -0.1354 -0.2510
  103OSM    C1510320   1.212   4.030   7.207 -0.6480 -0.5471 -0.3447
  103OSM   H15A10321   1.304   4.048   7.152 -2.1515  0.6180 -2.6275
  103OSM   H15B10322   1.222   4.053   7.312 -0.5995 -0.4823 -0.3636
  103OSM   H15C10323   1.139   4.102   7.175 -1.3119 -1.1530 -0.2299
  103OSM    C1410324   1.271   3.799   7.231 -0.1272 -0.3495 -0.3912
  103OSM   H14A10325   1.234   3.705   7.269 -2.3114  0.4077 -0.4684
  103OSM   H14B10326   1.329   3.845   7.310 -0.3785  3.1924 -2.0953
  103OSM   H14C10327   1.342   3.786   7.151  1.5367 -1.2556  1.1678
  103OSM    C1310328   1.048   3.867   7.290  0.4207 -0.9331  0.3243
  103OSM   H13A10329   1.022   3.762   7.292 -2.6965 -0.2371  0.6710
  103OSM   H13B10330   0.967   3.931   7.258  2.2025  0.7226 -1.1357
  103OSM   H13C10331   1.075   3.892   7.392 -2.4910 -0.7416  1.1206
  103OSM    C1210332   1.117   3.854   7.058  0.5754 -0.5586  0.0790
  103OSM   H12A10333   1.037   3.925   7.041  2.8267  1.7753 -1.7619
  103OSM   H12B10334   1.073   3.756   7.057  1.9278 -1.2212  1.5395
  103OSM    C1110335   1.210   3.873   6.936 -0.3482  1.2151 -0.4074
  103OSM   H11A10336   1.244   3.979   6.936  1.5750  0.6373  0.2406
  103OSM   H11B10337   1.148   3.851   6.846 -1.2166  2.0974 -0.0319
  103OSM      P10338   1.464   3.820   6.891  0.2353 -0.2981  0.0786
  103OSM    O1310339   1.516   3.906   7.000  0.6219  0.4457 -0.2511
  103OSM    O1410340   1.550   3.707   6.863  0.0186  0.0936 -0.6882
  103OSM    O1110341   1.434   3.903   6.761  0.3843  0.1613  0.0737
  103OSM    O1210342   1.318   3.770   6.938 -0.1805  0.1278 -0.3813
  103OSM    C1S10343   1.541   3.963   6.689  0.5652 -0.5296  0.1862
  103OSM    H1S10344   1.618   3.886   6.667  1.7918  0.3038  1.3987
  103OSM    H1T10345   1.584   4.047   6.748 -1.7647  1.5686 -0.8926
  103OSM     NF10346   1.620   4.061   6.483  0.6272 -0.3249  0.3255
  103OSM    HNF10347   1.672   4.142   6.510 -1.1269  1.5971 -1.7294
  103OSM    C2S10348   1.497   4.035   6.560  0.3078  0.2166  0.4694
  103OSM    H2S10349   1.442   3.958   6.502  1.2627 -1.5808  1.8903
  103OSM    C3S10350   1.391   4.150   6.574 -1.0979  0.6481  0.2679
  103OSM    H3S10351   1.436   4.226   6.641  0.6974 -0.8703  0.8645
  103OSM     O310352   1.262   4.112   6.628 -0.0641 -0.4904 -0.0592
  103OSM    HO310353   1.282   4.033   6.678 -1.0961 -1.2322 -0.7575
  103OSM    C4S10354   1.394   4.215   6.437  0.2034 -0.3228 -0.2651
  103OSM    H4S10355   1.475   4.289   6.439 -1.5068  1.6125 -0.3395
  103OSM    C5S10356   1.306   4.211   6.332  0.0168  0.6828  0.2938
  103OSM    H5S10357   1.224   4.137   6.330  1.2765 -0.7505 -0.4920
  103OSM    C6S10358   1.319   4.296   6.210 -0.3063  0.3000  0.6514
  103OSM    H6S10359   1.406   4.365   6.202  0.2804 -0.5618 -0.5577
  103OSM    H6T10360   1.230   4.361   6.228  0.3802  1.3874  0.2499
  103OSM    C7S10361   1.285   4.221   6.079  0.4237  0.4224  0.4819
  103OSM    H7S10362   1.180   4.187   6.070 -0.0517  2.3332 -5.1485
  103OSM    H7T10363   1.344   4.128   6.068 -0.7055 -0.6238  2.7662
  103OSM    C8S10364   1.312   4.304   5.953  0.5316  0.0983 -0.1239
  103OSM    H8S10365   1.422   4.319   5.952  0.7791 -1.4494 -1.7920
  103OSM    H8T10366   1.260   4.399   5.975 -0.1949 -0.8227  2.4613
  103OSM    C9S10367   1.275   4.234   5.819 -0.5862 -0.4837  0.0533
  103OSM    H9S10368   1.164   4.227   5.809 -0.4837  0.0801 -1.9020
  103OSM    H9T10369   1.315   4.131   5.823  1.8944  0.4261  1.1290
  103OSM   C10S10370   1.334   4.314   5.697 -0.2062  0.2710 -0.4555
  103OSM   H10S10371   1.365   4.416   5.726 -2.2736  0.3487  1.7515
  103OSM   H10T10372   1.248   4.318   5.628 -0.7262  0.1954  0.1798
  103OSM   C11S10373   1.440   4.235   5.633  0.3621  0.7092  0.5297
  103OSM   H11S10374   1.415   4.127   5.632 -0.1106  0.8150  0.8525
  103OSM   H11T10375   1.532   4.238   5.696  1.1901  1.9927 -0.6671
  103OSM   C12S10376   1.484   4.283   5.495 -0.3544  0.2885  0.5567
  103OSM   H12S10377   1.522   4.388   5.495  2.0249 -0.5122 -0.2072
  103OSM   H12T10378   1.407   4.276   5.416  0.9706  1.0971 -0.8787
  103OSM   C13S10379   1.615   4.217   5.454 -0.1632 -0.6388  0.0973
  103OSM   H13S10380   1.586   4.110   5.448 -1.2590 -0.2738 -2.5874
  103OSM   H13T10381   1.689   4.248   5.530 -0.7202 -2.2348  1.3438
  103OSM   C14S10382   1.667   4.257   5.318 -0.5635  0.1600  0.4948
  103OSM   H14S10383   1.766   4.208   5.317 -0.4558  0.3087 -2.1233
  103OSM   H14T10384   1.689   4.366   5.312 -0.7873  0.1770 -0.1053
  103OSM   C15S10385   1.573   4.199   5.216 -0.2932 -0.5232 -0.0160
  103OSM   H15S10386   1.479   4.256   5.227  0.3715  0.5894  0.0785
  103OSM   H15T10387   1.548   4.090   5.217 -2.3153 -0.1381 -1.7719
  103OSM   C16S10388   1.634   4.232   5.076  0.3545 -0.3039  0.1289
  103OSM   H16S10389   1.716   4.162   5.050  0.9346  0.3999  0.0291
  103OSM   H16T10390   1.683   4.332   5.075 -2.3019  1.1582 -2.4617
  103OSM   C17S10391   1.532   4.219   4.972  0.0571  0.0268 -0.2659
  103OSM   H17S10392   1.453   4.289   5.006 -1.3919 -1.2056 -1.0093
  103OSM   H17T10393   1.484   4.119   4.974  0.5440 -0.2071  1.6164
  103OSM   C18S10394   1.586   4.256   4.832 -0.4394  0.1840  0.0411
  103OSM   H18S10395   1.655   4.178   4.794  0.0021 -0.1139  1.3920
  103OSM   H18T10396   1.651   4.345   4.843  0.2404 -0.5777  2.8960
  103OSM   H18U10397   1.501   4.279   4.764 -1.5455 -2.1138  0.5410
  103OSM    C1F10398   1.685   3.960   6.424 -0.3436 -0.0463 -0.5499
  103OSM     OF10399   1.645   3.845   6.434  0.6275  0.3163 -0.1160
  103OSM    C2F10400   1.808   3.995   6.354  0.3213  0.1863 -0.2721
  103OSM    H2F10401   1.884   3.915   6.365 -0.9904 -1.1020 -0.3445
  103OSM    H2G10402   1.854   4.088   6.394 -0.5244  1.0510 -1.2363
  103OSM    C3F10403   1.793   4.016   6.199  0.0406 -1.0085  0.3714
  103OSM    H3F10404   1.722   3.941   6.158  0.4781 -1.3034  0.1465
  103OSM    H3G10405   1.892   3.994   6.152 -0.9019 -0.3077 -2.1468
  103OSM    C4F10406   1.734   4.151   6.166  0.0105 -0.5516 -0.2049
  103OSM    H4F10407   1.817   4.222   6.185 -0.2619 -0.1232 -0.5934
  103OSM    H4G10408   1.649   4.172   6.234  0.6775  1.3975  0.0767
  103OSM    C5F10409   1.679   4.173   6.030 -0.3161  0.2393  0.4135
  103OSM    H5F10410   1.657   4.281   6.018 -1.2378  0.0525  0.3052
  103OSM    H5G10411   1.587   4.111   6.020  2.1918 -4.1437  1.5865
  103OSM    C6F10412   1.774   4.132   5.912  0.2006 -0.5651  0.2121
  103OSM    H6F10413   1.720   4.150   5.816 -0.4973  0.1108  0.7255
  103OSM    H6G10414   1.775   4.021   5.924 -0.6449 -0.5323  0.6808
  103OSM    C7F10415   1.913   4.207   5.913  0.0907  0.1078 -0.1380
  103OSM    H7F10416   1.996   4.138   5.939 -1.2241 -1.6217 -0.3557
  103OSM    H7G10417   1.910   4.277   5.999 -3.0055 -0.5521  0.4286
  103OSM    C8F10418   1.942   4.272   5.781 -0.1781  0.9721 -0.1494
  103OSM    H8F10419   1.863   4.346   5.757 -1.5725 -0.5025 -0.3493
  103OSM    H8G10420   1.939   4.203   5.693 -3.6742  0.0335  0.5396
  103OSM    C9F10421   2.072   4.346   5.778 -0.6579  0.2453 -0.2623
  103OSM    H9F10422   2.124   4.359   5.875  0.6603 -0.6138 -0.8231
  103OSM   C10F10423   2.141   4.391   5.672 -0.1695  0.0907  0.3240
  103OSM   H10F10424   2.241   4.436   5.681  0.0061  0.6100 -2.9167
  103OSM   C11F10425   2.090   4.370   5.530 -0.8620  0.0769  0.0195
  103OSM   H11F10426   2.023   4.284   5.515 -2.1224  1.2405 -1.2942
  103OSM   H11G10427   2.178   4.346   5.466  0.4719 -1.7265  2.3809
  103OSM   C12F10428   2.027   4.497   5.463 -0.2256  0.1366 -0.1028
  103OSM   H12F10429   1.928   4.514   5.510 -1.3967 -1.6987 -1.7745
  103OSM   H12G10430   2.014   4.470   5.356 -3.7607  1.3627 -0.1106
  103OSM   C13F10431   2.116   4.625   5.463  0.0944 -0.0925  0.4872
  103OSM   H13F10432   2.116   4.673   5.564  0.4479 -2.2249  1.5450
  103OSM   H13G10433   2.061   4.697   5.399 -0.5550 -1.2666 -0.3049
  103OSM   C14F10434   2.261   4.618   5.416  0.3229  0.1103 -0.8150
  103OSM   H14F10435   2.260   4.594   5.308  0.5615 -0.1016 -0.7716
  103OSM   H14G10436   2.311   4.537   5.473 -0.3019  0.1155 -0.2413
  103OSM   C15F10437   2.341   4.753   5.442  0.2456  0.3157 -0.0551
  103OSM   H15F10438   2.323   4.792   5.545  0.9306  1.3435 -0.3036
  103OSM   H15G10439   2.309   4.837   5.376  1.3601  0.0765 -0.9189
  103OSM   C16F10440   2.495   4.730   5.444  0.5373  0.5194  0.0442
  103OSM   H16F10441   2.525   4.645   5.508 -1.4517 -1.4493 -1.5058
  103OSM   H16G10442   2.553   4.814   5.489  3.0171 -0.3105 -1.3679
  103OSM   C17F10443   2.555   4.698   5.303  0.6064 -0.8000 -0.6055
  103OSM   H17F10444   2.524   4.774   5.228  1.4422  0.0375 -0.1193
  103OSM   H17G10445   2.500   4.611   5.260  0.4000 -1.1108  0.2555
  103OSM   C18F10446   2.701   4.666   5.298  0.0908 -0.7581 -0.8842
  103OSM   H18F10447   2.755   4.763   5.307 -1.2477 -0.1262  1.1043
  103OSM   H18G10448   2.716   4.618   5.199  2.0090 -0.0248 -0.9969
  103OSM   H18H10449   2.722   4.593   5.379 -0.9317  1.3793  1.4536
  104OSM      N10450   4.223   5.778   7.431  0.0185 -0.0575 -0.9188
  104OSM    C1510451   4.140   5.703   7.520 -0.5862 -0.0466  0.1715
  104OSM   H15A10452   4.041   5.746   7.521 -0.2441  0.8223 -0.9030
  104OSM   H15B10453   4.179   5.702   7.621  0.4536 -0.1117 -0.2213
  104OSM   H15C10454   4.128   5.600   7.490  1.1101 -1.1004  2.7220
  104OSM    C1410455   4.252   5.911   7.488  0.2278  0.0225  0.6087
  104OSM   H14A10456   4.157   5.947   7.527 -0.0597  1.9131 -1.6341
  104OSM   H14B10457   4.283   5.981   7.412  0.9533 -1.3623 -0.4107
  104OSM   H14C10458   4.331   5.913   7.561  0.5109  3.8120  0.3963
  104OSM    C1310459   4.353   5.713   7.397 -0.1263 -0.0757  0.2508
  104OSM   H13A10460   4.426   5.779   7.353 -0.8653  1.7106  1.5715
  104OSM   H13B10461   4.351   5.622   7.340  0.3988 -1.7076  2.6922
  104OSM   H13C10462   4.405   5.681   7.486  3.7323  0.0290 -1.7311
  104OSM    C1210463   4.149   5.798   7.307  0.4253  0.6692  0.3781
  104OSM   H12A10464   4.121   5.703   7.263  0.6114 -0.4233  2.5049
  104OSM   H12B10465   4.208   5.838   7.226 -0.2797 -3.3341 -2.4221
  104OSM    C1110466   4.026   5.888   7.310  0.0620  0.1446 -0.0329
  104OSM   H11A10467   4.002   5.883   7.201  2.1348 -4.6230 -0.5094
  104OSM   H11B10468   4.057   5.992   7.335  0.1240  0.3393 -0.8722
  104OSM      P10469   3.790   5.933   7.405  0.0443  0.6450 -0.4079
  104OSM    O1310470   3.666   5.853   7.437  0.3972  0.9425 -0.3494
  104OSM    O1410471   3.825   6.037   7.499 -0.1178 -0.1461  0.1112
  104OSM    O1110472   3.789   5.994   7.255 -0.3550 -0.0832 -0.5475
  104OSM    O1210473   3.913   5.839   7.387 -0.0625  0.2581 -0.0513
  104OSM    C1S10474   3.668   6.056   7.214 -0.5519  0.4363 -0.9146
  104OSM    H1S10475   3.665   6.154   7.266  0.0189 -0.4543  0.9048
  104OSM    H1T10476   3.581   5.990   7.231 -0.0775  0.0510  0.1325
  104OSM     NF10477   3.537   6.149   7.028 -0.3026  0.1366  0.3622
  104OSM    HNF10478   3.476   6.088   6.979 -0.8090 -0.1313  1.3054
  104OSM    C2S10479   3.668   6.097   7.065  0.3428 -0.1137 -0.2501
  104OSM    H2S10480   3.753   6.168   7.055  0.9023 -0.3000  2.4236
  104OSM    C3S10481   3.710   5.973   6.980  0.7936  0.1006 -0.2281
  104OSM    H3S10482   3.630   5.897   6.986  0.5304  0.4533  1.0494
  104OSM     O310483   3.827   5.904   7.023  0.3011 -0.3466 -0.3516
  104OSM    HO310484   3.836   5.926   7.116  2.3394 -1.2936 -0.2844
  104OSM    C4S10485   3.726   6.006   6.838  0.0830  0.0301  0.1086
  104OSM    H4S10486   3.808   6.076   6.814  1.4854 -0.7647  2.2316
  104OSM    C5S10487   3.648   5.960   6.741 -0.7845  0.3541  0.1819
  104OSM    H5S10488   3.568   5.886   6.757  1.4571 -1.8669  1.9465
  104OSM    C6S10489   3.656   5.994   6.592  0.6817 -0.0585  0.0795
  104OSM    H6S10490   3.575   6.069   6.582 -0.3880 -1.2519 -0.4774
  104OSM    H6T10491   3.630   5.910   6.523 -1.8819  3.0897 -3.1913
  104OSM    C7S10492   3.788   6.040   6.523 -0.7987  0.6723 -0.2174
  104OSM    H7S10493   3.876   5.974   6.540 -1.7497  0.1113  3.5444
  104OSM    H7T10494   3.828   6.131   6.571  2.9394  0.0502 -1.7855
  104OSM    C8S10495   3.778   6.063   6.371  0.4096  0.7530 -0.3833
  104OSM    H8S10496   3.696   6.128   6.334 -1.7455 -0.9890  1.1304
  104OSM    H8T10497   3.747   5.966   6.328 -3.8442  1.6261  0.3472
  104OSM    C9S10498   3.916   6.098   6.294  0.4829  0.8748 -0.7847
  104OSM    H9S10499   3.996   6.062   6.362 -0.7322 -1.3861 -0.4323
  104OSM    H9T10500   3.923   6.208   6.297  1.6415  0.8011  2.1408
  104OSM   C10S10501   3.943   6.039   6.155 -0.0994 -0.2620 -0.4288
  104OSM   H10S10502   3.958   5.929   6.153 -0.2365 -0.3534  1.6667
  104OSM   H10T10503   4.034   6.091   6.118 -0.3297  0.9528  0.6523
  104OSM   C11S10504   3.822   6.069   6.069  0.3882  0.1222  0.4066
  104OSM   H11S10505   3.795   6.175   6.089  0.8287  0.0502  1.4805
  104OSM   H11T10506   3.738   6.002   6.099  0.1707  1.2438  2.4537
  104OSM   C12S10507   3.843   6.050   5.914  0.0546  0.0445  0.4590
  104OSM   H12S10508   3.833   5.946   5.878 -0.1728 -0.5089  2.0403
  104OSM   H12T10509   3.950   6.077   5.907 -0.4424  2.4697  1.2124
  104OSM   C13S10510   3.757   6.149   5.833  0.4920 -0.1834 -0.0194
  104OSM   H13S10511   3.764   6.251   5.875 -2.9513 -0.5768  1.9467
  104OSM   H13T10512   3.650   6.122   5.852 -0.5355  3.2118 -0.3134
  104OSM   C14S10513   3.802   6.167   5.692  0.3272 -0.4073 -0.1273
  104OSM   H14S10514   3.911   6.170   5.710  0.0656 -1.0008  1.7475
  104OSM   H14T10515   3.771   6.266   5.651  1.3075 -0.3582 -0.8024
  104OSM   C15S10516   3.761   6.056   5.590  0.1364 -0.0128 -0.0354
  104OSM   H15S10517   3.811   5.961   5.618 -2.9813 -1.2177  2.1144
  104OSM   H15T10518   3.793   6.071   5.485  0.4118 -0.9789 -0.0992
  104OSM   C16S10519   3.616   6.013   5.597  0.1608  0.3757  0.6095
  104OSM   H16S10520   3.556   6.106   5.588 -0.4435  0.0014  0.7143
  104OSM   H16T10521   3.595   5.969   5.696  0.4165 -0.7040  0.2027
  104OSM   C17S10522   3.584   5.908   5.493  0.1032  0.0345  0.2475
  104OSM   H17S10523   3.650   5.819   5.478  0.8598  0.3526  1.5161
  104OSM   H17T10524   3.597   5.960   5.396  0.9075  0.6594  0.6737
  104OSM   C18S10525   3.438   5.862   5.508 -0.1457 -1.0062  0.4286
  104OSM   H18S10526   3.434   5.789   5.592  1.4638 -1.0308  0.5216
  104OSM   H18T10527   3.412   5.803   5.418 -0.2992 -0.2126 -0.0545
  104OSM   H18U10528   3.368   5.948   5.521  0.6725 -0.2971  0.2238
  104OSM    C1F10529   3.493   6.263   7.078  0.5163 -0.5482  0.4841
  104OSM     OF10530   3.566   6.330   7.147 -0.0707 -0.4067  0.4809
  104OSM    C2F10531   3.364   6.307   7.023 -0.3937 -0.7701 -0.7185
  104OSM    H2F10532   3.299   6.345   7.105  0.6031  1.5750 -0.9136
  104OSM    H2G10533   3.312   6.226   6.968 -0.8492 -0.9886  0.0169
  104OSM    C3F10534   3.386   6.439   6.946 -0.3807  0.1546 -0.1142
  104OSM    H3F10535   3.467   6.508   6.982 -0.2967 -0.0326  0.0575
  104OSM    H3G10536   3.284   6.481   6.952 -1.1677 -1.2766 -2.2108
  104OSM    C4F10537   3.410   6.408   6.799 -0.0390 -0.4829  0.4190
  104OSM    H4F10538   3.399   6.302   6.768 -1.6718 -0.3937  0.6240
  104OSM    H4G10539   3.519   6.421   6.786  0.2384 -1.5216  1.5526
  104OSM    C5F10540   3.344   6.513   6.705  0.1609 -0.3035  0.0607
  104OSM    H5F10541   3.233   6.513   6.711  0.1766 -0.6198  0.3717
  104OSM    H5G10542   3.380   6.484   6.604 -0.7110  1.9339 -0.9587
  104OSM    C6F10543   3.388   6.656   6.748  0.4400  0.0043  0.0406
  104OSM    H6F10544   3.498   6.666   6.757  0.6861  1.0058 -2.8625
  104OSM    H6G10545   3.333   6.712   6.826 -0.3949  0.2816 -0.7266
  104OSM    C7F10546   3.360   6.743   6.627 -0.4564 -0.2893 -0.1521
  104OSM    H7F10547   3.250   6.746   6.613 -0.5163 -0.9649  0.1093
  104OSM    H7G10548   3.403   6.696   6.536 -1.5375 -1.8872  0.1234
  104OSM    C8F10549   3.413   6.892   6.637 -0.1895 -0.2397  0.8685
  104OSM    H8F10550   3.397   6.945   6.541 -0.7457  0.9833  1.6114
  104OSM    H8G10551   3.522   6.875   6.653 -0.0284 -0.5354 -0.4570
  104OSM    C9F10552   3.346   6.963   6.752  0.6010 -0.5621  0.3963
  104OSM    H9F10553   3.390   6.947   6.852  1.9724  1.7647  0.2258
  104OSM   C10F10554   3.245   7.048   6.734  0.3213 -0.3455 -0.2732
  104OSM   H10F10555   3.197   7.095   6.821  2.6260 -1.8557  1.9394
  104OSM   C11F10556   3.177   7.070   6.603  0.7838  0.4404  0.0158
  104OSM   H11F10557   3.067   7.076   6.618  0.3793 -1.7943 -1.4536
  104OSM   H11G10558   3.186   6.982   6.536 -1.7988 -1.0437  1.4353
  104OSM   C12F10559   3.226   7.191   6.518 -0.5538 -0.0537  0.2174
  104OSM   H12F10560   3.326   7.165   6.477 -1.2463 -1.4191 -0.6463
  104OSM   H12G10561   3.232   7.282   6.583 -1.7540  0.9496 -1.0298
  104OSM   C13F10562   3.135   7.229   6.401  0.1064 -0.0249 -0.0513
  104OSM   H13F10563   3.130   7.339   6.390 -2.1425 -0.0916 -0.0585
  104OSM   H13G10564   3.035   7.210   6.446  0.9882 -1.9438  1.2560
  104OSM   C14F10565   3.151   7.163   6.264 -0.1970 -0.2384 -0.1884
  104OSM   H14F10566   3.137   7.053   6.264  2.1371 -0.6544 -2.8301
  104OSM   H14G10567   3.259   7.173   6.237 -0.0545  0.4579  0.6098
  104OSM   C15F10568   3.058   7.228   6.160  1.0531  0.0420 -0.8233
  104OSM   H15F10569   3.054   7.339   6.172  1.5112  0.0267 -0.4666
  104OSM   H15G10570   2.959   7.188   6.189  0.9512 -0.3285 -1.6593
  104OSM   C16F10571   3.094   7.181   6.023 -0.2946  0.2348  0.5997
  104OSM   H16F10572   3.196   7.218   6.000  0.1430  0.9934  3.4248
  104OSM   H16G10573   3.017   7.221   5.954  0.5475  2.9111  1.0913
  104OSM   C17F10574   3.098   7.027   6.009 -0.2802 -0.1010 -0.2603
  104OSM   H17F10575   3.184   6.994   6.070  2.0858  0.7865 -2.8836
  104OSM   H17G10576   3.115   6.996   5.903  0.1131 -1.2127  0.1182
  104OSM   C18F10577   2.977   6.948   6.072 -0.4364  0.3609  0.7564
  104OSM   H18F10578   2.966   6.969   6.180 -0.4093  1.2436  0.5961
  104OSM   H18G10579   2.984   6.839   6.054 -1.4002  0.7127 -2.3390
  104OSM   H18H10580   2.890   6.985   6.014 -0.2598 -0.4656 -0.0642
  105OSM      N10581   6.699   5.187   7.777  0.8977 -1.0839 -0.0423
  105OSM    C1510582   6.834   5.127   7.796  0.1517 -0.2302 -0.2763
  105OSM   H15A10583   6.830   5.024   7.830  1.8064  0.2843  1.6984
  105OSM   H15B10584   6.899   5.192   7.854  0.4598 -0.4629 -0.3584
  105OSM   H15C10585   6.876   5.123   7.697  0.5886 -0.6903 -0.0791
  105OSM    C1410586   6.629   5.188   7.908  0.1908  0.1559 -0.3803
  105OSM   H14A10587   6.700   5.233   7.976 -1.8141  0.8276  1.3980
  105OSM   H14B10588   6.592   5.092   7.942  0.7994  0.5350  1.4902
  105OSM   H14C10589   6.546   5.256   7.920  1.0063  0.9193  1.1943
  105OSM    C1310590   6.722   5.330   7.737  0.6358  0.9562  0.3577
  105OSM   H13A10591   6.791   5.384   7.800  1.6548 -0.0908  0.1457
  105OSM   H13B10592   6.628   5.385   7.737 -1.1253 -1.8528  0.3096
  105OSM   H13C10593   6.752   5.327   7.633 -2.5560  0.4708 -0.6733
  105OSM    C1210594   6.612   5.109   7.685 -0.0668  0.3563  0.7601
  105OSM   H12A10595   6.514   5.154   7.693  0.1877  1.0826  0.0036
  105OSM   H12B10596   6.624   5.008   7.721 -1.0237  0.4336  1.3302
  105OSM    C1110597   6.635   5.115   7.524 -0.0538  0.2156 -0.0065
  105OSM   H11A10598   6.627   5.223   7.501  1.5596  0.6898  1.3990
  105OSM   H11B10599   6.550   5.064   7.474  0.8768 -0.9820 -0.4351
  105OSM      P10600   6.875   5.112   7.409 -0.1598 -0.1008  0.0947
  105OSM    O1310601   6.926   5.222   7.496 -0.5613 -0.0225 -0.6201
  105OSM    O1410602   6.972   5.006   7.361  0.4288 -0.0296  0.0246
  105OSM    O1110603   6.804   5.173   7.283  0.0299 -0.0968 -0.4910
  105OSM    O1210604   6.759   5.049   7.487 -0.2419 -0.1918  0.7608
  105OSM    C1S10605   6.811   5.312   7.261  0.4294  0.3264 -0.0448
  105OSM    H1S10606   6.909   5.358   7.284 -0.5629  2.4269  0.2324
  105OSM    H1T10607   6.743   5.371   7.326 -0.4894  1.5846 -2.0294
  105OSM     NF10608   6.810   5.481   7.072  0.7584 -0.9620  0.6056
  105OSM    HNF10609   6.755   5.563   7.078  1.2650 -0.6320  0.8538
  105OSM    C2S10610   6.762   5.354   7.113  0.5533  1.2092 -0.0079
  105OSM    H2S10611   6.813   5.284   7.043  1.4442  1.4178  0.4196
  105OSM    C3S10612   6.604   5.348   7.103 -1.5610  0.2526 -0.4842
  105OSM    H3S10613   6.580   5.441   7.158 -0.8209 -0.1416  0.5355
  105OSM     O310614   6.556   5.241   7.179 -0.3623  0.3452  0.3435
  105OSM    HO310615   6.632   5.188   7.204 -0.9421  0.3365  2.2709
  105OSM    C4S10616   6.553   5.350   6.962 -0.2563 -0.2071  0.5148
  105OSM    H4S10617   6.535   5.448   6.915 -0.5475  0.0156  1.0828
  105OSM    C5S10618   6.520   5.241   6.885 -0.3468 -0.0176 -0.4378
  105OSM    H5S10619   6.524   5.140   6.928  0.2698  0.8045  1.5439
  105OSM    C6S10620   6.477   5.262   6.746  0.4312 -0.2471 -0.8071
  105OSM    H6S10621   6.440   5.366   6.730 -0.0485 -0.1063  1.0111
  105OSM    H6T10622   6.384   5.207   6.721 -0.5442  1.2614 -0.6676
  105OSM    C7S10623   6.593   5.233   6.653 -0.7723  0.0393  0.0304
  105OSM    H7S10624   6.634   5.131   6.670  2.2060  1.0985 -0.3042
  105OSM    H7T10625   6.680   5.296   6.679  1.2068 -1.9972 -1.2940
  105OSM    C8S10626   6.577   5.262   6.501  0.0860 -0.2763 -0.8536
  105OSM    H8S10627   6.567   5.369   6.474  0.9169 -0.0561 -0.3428
  105OSM    H8T10628   6.480   5.214   6.477 -0.7145 -0.3269  2.1457
  105OSM    C9S10629   6.677   5.176   6.420  0.1877 -0.0127 -0.1222
  105OSM    H9S10630   6.666   5.072   6.458  0.7207 -0.4068 -1.0045
  105OSM    H9T10631   6.779   5.218   6.437 -0.1563  0.1486  1.8014
  105OSM   C10S10632   6.648   5.191   6.276 -0.2141  0.1871 -0.0988
  105OSM   H10S10633   6.662   5.290   6.229 -1.1727 -0.6731 -2.3284
  105OSM   H10T10634   6.539   5.168   6.267 -0.2583 -1.1359  2.7848
  105OSM   C11S10635   6.740   5.100   6.190  0.6495  0.1758 -0.5241
  105OSM   H11S10636   6.734   4.994   6.222 -0.9759 -0.1808 -1.8708
  105OSM   H11T10637   6.847   5.131   6.194  0.3839  1.0976 -0.1806
  105OSM   C12S10638   6.681   5.108   6.048 -0.1314  0.2414 -0.0793
  105OSM   H12S10639   6.672   5.213   6.014  0.3004 -0.1319 -1.3752
  105OSM   H12T10640   6.574   5.078   6.053 -0.0992 -0.0925 -1.2047
  105OSM   C13S10641   6.747   5.013   5.948  0.2708  0.4065 -0.9832
  105OSM   H13S10642   6.675   4.991   5.867 -1.3893 -0.4370  0.6516
  105OSM   H13T10643   6.761   4.919   6.005  3.3186  0.8484 -0.8161
  105OSM   C14S10644   6.889   5.051   5.894 -0.5565  0.7478 -0.0708
  105OSM   H14S10645   6.941   4.960   5.857 -0.8404  0.6885 -0.3288
  105OSM   H14T10646   6.950   5.079   5.982 -0.0548  3.1606 -1.1157
  105OSM   C15S10647   6.896   5.151   5.787  0.4368 -0.1791  0.5663
  105OSM   H15S10648   7.006   5.169   5.777  0.5280 -0.6985  0.6086
  105OSM   H15T10649   6.857   5.247   5.826  2.5036  0.7090  0.6123
  105OSM   C16S10650   6.839   5.111   5.651  0.6064 -0.4706 -0.2529
  105OSM   H16S10651   6.728   5.100   5.647  0.6251 -0.3518 -1.2406
  105OSM   H16T10652   6.881   5.016   5.613  0.2818 -0.0836 -1.6360
  105OSM   C17S10653   6.876   5.214   5.541  0.8555  0.0150  0.3187
  105OSM   H17S10654   6.986   5.221   5.543  0.8843 -0.1316  2.8103
  105OSM   H17T10655   6.843   5.314   5.578  1.0741  0.6472 -1.1387
  105OSM   C18S10656   6.816   5.197   5.394  0.3282  0.0468  0.0513
  105OSM   H18S10657   6.880   5.248   5.319  2.0054 -0.6932  0.9133
  105OSM   H18T10658   6.713   5.240   5.393  1.8737  4.2249 -1.3169
  105OSM   H18U10659   6.811   5.087   5.382  0.7470 -0.2356  2.0356
  105OSM    C1F10660   6.944   5.501   7.046  0.7313  0.2652  0.0547
  105OSM     OF10661   7.023   5.408   7.056  0.3205  0.0569  0.3492
  105OSM    C2F10662   6.980   5.648   7.005 -0.3827  0.4106  0.2711
  105OSM    H2F10663   7.082   5.645   6.961 -1.8400 -2.3165 -3.4634
  105OSM    H2G10664   6.988   5.708   7.098 -0.0785 -2.6294  2.3590
  105OSM    C3F10665   6.897   5.718   6.898  0.1811  0.3031 -0.2132
  105OSM    H3F10666   6.941   5.819   6.879  2.7005 -0.1548  2.4513
  105OSM    H3G10667   6.795   5.738   6.937  0.0762 -2.0201  0.8610
  105OSM    C4F10668   6.881   5.638   6.770 -0.2262 -0.8614  0.1846
  105OSM    H4F10669   6.858   5.533   6.799 -1.5794 -0.7979 -0.5770
  105OSM    H4G10670   6.977   5.638   6.715 -1.2660  0.8517 -1.7757
  105OSM    C5F10671   6.782   5.695   6.674 -0.4136  0.2872 -0.3348
  105OSM    H5F10672   6.797   5.801   6.643  1.6745  0.5099  1.1867
  105OSM    H5G10673   6.687   5.697   6.731 -0.9482 -0.6992 -1.1787
  105OSM    C6F10674   6.763   5.614   6.550  0.2559 -0.4341  0.7781
  105OSM    H6F10675   6.673   5.652   6.497  2.1424  1.1857 -1.4486
  105OSM    H6G10676   6.758   5.504   6.567  0.6646 -0.3887  1.2423
  105OSM    C7F10677   6.884   5.636   6.451 -0.2043 -0.8042 -0.2886
  105OSM    H7F10678   6.982   5.601   6.489  0.4643  2.1757  1.0031
  105OSM    H7G10679   6.902   5.744   6.433  1.9940 -0.9197  0.9003
  105OSM    C8F10680   6.857   5.547   6.327 -0.6375  0.1989  0.6684
  105OSM    H8F10681   6.860   5.438   6.349  0.0341 -0.1240 -0.8928
  105OSM    H8G10682   6.948   5.563   6.265 -0.1609 -1.3638  0.9169
  105OSM    C9F10683   6.732   5.568   6.248  0.6492 -0.5748 -0.0841
  105OSM    H9F10684   6.632   5.562   6.293 -0.1708  0.1873 -1.7227
  105OSM   C10F10685   6.724   5.600   6.114  0.1409  0.1264  1.0691
  105OSM   H10F10686   6.625   5.619   6.070  1.3488  0.9948 -1.4273
  105OSM   C11F10687   6.845   5.605   6.024 -0.3759  0.3193 -0.5193
  105OSM   H11F10688   6.888   5.504   6.008 -0.7550 -0.0767  0.8464
  105OSM   H11G10689   6.937   5.658   6.060  1.3687 -0.6121 -3.3070
  105OSM   C12F10690   6.833   5.667   5.878  0.4884  0.6104 -0.8418
  105OSM   H12F10691   6.925   5.690   5.820 -0.2106  0.8928 -1.8598
  105OSM   H12G10692   6.758   5.748   5.889 -0.6259 -0.5077  0.2694
  105OSM   C13F10693   6.767   5.560   5.789  0.7151  0.0778 -0.7336
  105OSM   H13F10694   6.680   5.518   5.844  0.6636 -0.2849 -1.0825
  105OSM   H13G10695   6.842   5.484   5.758 -0.3789 -0.8937 -1.0874
  105OSM   C14F10696   6.699   5.628   5.673  0.2673  0.4687  0.1234
  105OSM   H14F10697   6.617   5.693   5.709  0.3321  0.6271 -0.0133
  105OSM   H14G10698   6.655   5.540   5.622 -0.6031  0.3036  1.1237
  105OSM   C15F10699   6.788   5.703   5.586  0.7581 -0.1085  0.0759
  105OSM   H15F10700   6.835   5.787   5.642  0.5233  1.1770 -1.5537
  105OSM   H15G10701   6.717   5.753   5.516 -1.6803 -2.9757  0.3013
  105OSM   C16F10702   6.895   5.628   5.509 -0.2973  0.1273  0.2889
  105OSM   H16F10703   6.893   5.522   5.539  0.0388  0.5864  2.0125
  105OSM   H16G10704   6.992   5.675   5.534 -0.4313 -0.6788  2.4641
  105OSM   C17F10705   6.874   5.637   5.356 -1.0359 -1.0008 -0.1080
  105OSM   H17F10706   6.970   5.629   5.300  0.6861  0.4722  2.4111
  105OSM   H17G10707   6.842   5.743   5.347 -2.4789 -1.4155 -0.0085
  105OSM   C18F10708   6.768   5.548   5.289 -0.7425 -0.2680 -0.1491
  105OSM   H18F10709   6.667   5.564   5.331 -0.2616 -0.2470  1.0585
  105OSM   H18G10710   6.797   5.440   5.289  0.0132 -0.0729 -0.3368
  105OSM   H18H10711   6.750   5.582   5.185  0.5973  0.0230 -0.3087
  106OSM      N10712   2.540   3.924   7.294 -0.2966  0.0525  0.4503
  106OSM    C1510713   2.447   3.899   7.173 -0.0208 -0.6020 -0.4438
  106OSM   H15A10714   2.355   3.844   7.185 -0.7248  0.8229  1.1629
  106OSM   H15B10715   2.497   3.855   7.088 -1.8169 -1.0408 -1.3212
  106OSM   H15C10716   2.424   3.999   7.140 -1.4111 -0.4978  0.7208
  106OSM    C1410717   2.468   3.995   7.401  0.4584  0.0610  0.0017
  106OSM   H14A10718   2.519   3.991   7.496 -0.3628  0.1246  0.4556
  106OSM   H14B10719   2.373   3.948   7.424  0.9619 -0.0172  2.0684
  106OSM   H14C10720   2.447   4.097   7.371 -0.0716 -0.0119  0.1159
  106OSM    C1310721   2.581   3.792   7.339 -0.1182  0.0923  0.0627
  106OSM   H13A10722   2.627   3.731   7.262  0.1634 -1.1828  1.1978
  106OSM   H13B10723   2.493   3.739   7.372  0.3192  0.0234  1.1593
  106OSM   H13C10724   2.659   3.799   7.414  0.6601  2.6323 -0.8810
  106OSM    C1210725   2.664   3.998   7.263 -0.2087 -0.7537  0.1433
  106OSM   H12A10726   2.731   3.924   7.221  1.0251 -0.5103  1.5731
  106OSM   H12B10727   2.710   4.038   7.352 -1.2907  0.5306  0.1540
  106OSM    C1110728   2.655   4.128   7.171  1.2290 -0.2415  0.2774
  106OSM   H11A10729   2.615   4.083   7.077 -1.0009  2.4774 -0.2063
  106OSM   H11B10730   2.753   4.178   7.152  0.7366  0.7197  0.2059
  106OSM      P10731   2.463   4.299   7.125 -0.2461 -0.3072 -0.3011
  106OSM    O1310732   2.332   4.225   7.133  0.8494  0.2747  0.0604
  106OSM    O1410733   2.475   4.444   7.161 -0.2667  0.2429  0.2898
  106OSM    O1110734   2.532   4.263   6.986  0.3726  0.0999 -0.1102
  106OSM    O1210735   2.561   4.222   7.225 -0.9431 -0.6665  0.6558
  106OSM    C1S10736   2.464   4.304   6.865 -0.2287 -0.0850  0.3662
  106OSM    H1S10737   2.473   4.413   6.850  1.1232 -0.5103 -2.5483
  106OSM    H1T10738   2.357   4.272   6.870 -1.2283  2.5275 -1.7491
  106OSM     NF10739   2.493   4.319   6.626 -0.3219 -0.5363  0.1895
  106OSM    HNF10740   2.410   4.293   6.578  0.4380 -0.3009 -1.2903
  106OSM    C2S10741   2.532   4.239   6.741 -0.1266  0.1435  0.6928
  106OSM    H2S10742   2.642   4.249   6.756  0.4011 -1.1894 -1.7484
  106OSM    C3S10743   2.503   4.086   6.744 -0.6234  0.0035 -0.1804
  106OSM    H3S10744   2.393   4.072   6.741 -0.3878 -2.5239  0.1543
  106OSM     O310745   2.546   4.012   6.855  0.1733  0.0641 -0.4757
  106OSM    HO310746   2.564   4.083   6.916 -0.5220  1.3490 -1.7068
  106OSM    C4S10747   2.571   4.030   6.618 -0.1263  1.1533  0.1085
  106OSM    H4S10748   2.504   4.031   6.530 -1.4209  1.5600  1.0724
  106OSM    C5S10749   2.696   3.980   6.606  0.3769  0.4743 -0.4066
  106OSM    H5S10750   2.749   3.969   6.702  0.8998 -0.7131 -0.8202
  106OSM    C6S10751   2.771   3.937   6.488  0.1426 -0.2225 -0.0254
  106OSM    H6S10752   2.801   3.831   6.499  0.5265  0.0911  2.7024
  106OSM    H6T10753   2.864   3.996   6.476  0.7938 -0.5830  2.7381
  106OSM    C7S10754   2.699   3.946   6.355  0.1100 -0.6013 -0.6947
  106OSM    H7S10755   2.659   4.049   6.353 -0.7175 -0.8217  1.4391
  106OSM    H7T10756   2.620   3.869   6.342 -1.2774  0.8054 -0.7800
  106OSM    C8S10757   2.798   3.932   6.238  0.0143 -0.1602  0.4473
  106OSM    H8S10758   2.831   3.827   6.226  0.9903  0.0525  1.1555
  106OSM    H8T10759   2.888   3.994   6.253  0.2055 -0.0047 -1.1621
  106OSM    C9S10760   2.737   3.971   6.104 -0.2793  0.1358  0.4438
  106OSM    H9S10761   2.721   4.081   6.108  1.5515  0.4707 -0.5025
  106OSM    H9T10762   2.640   3.924   6.077 -0.9664  0.9807  1.3838
  106OSM   C10S10763   2.840   3.936   5.992  0.1453 -0.0536 -0.4490
  106OSM   H10S10764   2.835   3.827   5.970  2.1122 -0.1492 -0.5916
  106OSM   H10T10765   2.942   3.968   6.020  0.4966 -0.5310 -1.1521
  106OSM   C11S10766   2.785   3.999   5.864  0.3308  0.3342  0.0518
  106OSM   H11S10767   2.773   4.108   5.881 -1.9214 -0.0264  1.0827
  106OSM   H11T10768   2.682   3.964   5.839  0.9082 -0.2846 -1.6137
  106OSM   C12S10769   2.857   3.971   5.730 -0.0070  0.1314 -0.3443
  106OSM   H12S10770   2.879   3.862   5.733  1.0682  0.3637  1.1041
  106OSM   H12T10771   2.959   4.015   5.722  1.1823 -2.4021 -0.1941
  106OSM   C13S10772   2.763   4.008   5.616 -0.6071 -0.3142 -0.5300
  106OSM   H13S10773   2.767   4.119   5.612 -0.6110 -0.2707  0.3352
  106OSM   H13T10774   2.661   3.972   5.642  0.7368 -3.8178  0.4580
  106OSM   C14S10775   2.797   3.931   5.488  0.2585 -0.1597 -0.0994
  106OSM   H14S10776   2.735   3.985   5.414 -1.5419  0.3385  1.6959
  106OSM   H14T10777   2.757   3.828   5.480  0.1242 -0.2178  1.0886
  106OSM   C15S10778   2.943   3.938   5.426  0.6279  0.1730  0.0799
  106OSM   H15S10779   3.022   3.870   5.465  0.5623 -0.2281 -0.4657
  106OSM   H15T10780   2.967   4.040   5.461 -1.8456  0.6125  0.6662
  106OSM   C16S10781   2.952   3.938   5.267 -0.0681  0.8345 -0.5799
  106OSM   H16S10782   2.864   3.889   5.220 -0.4480  1.0776 -0.1221
  106OSM   H16T10783   3.039   3.876   5.236 -0.2903  1.1086 -1.8440
  106OSM   C17S10784   2.976   4.071   5.194 -0.2121 -1.2059 -0.1315
  106OSM   H17S10785   3.056   4.137   5.233 -0.3141  0.0699 -1.9675
  106OSM   H17T10786   2.891   4.140   5.213  0.5494 -0.1375 -0.4963
  106OSM   C18S10787   3.009   4.056   5.050  0.2593 -0.0472 -0.0131
  106OSM   H18S10788   3.094   3.986   5.037 -0.9949 -1.5963 -0.1056
  106OSM   H18T10789   3.031   4.154   5.002  0.0867  1.2881  2.4839
  106OSM   H18U10790   2.916   4.015   5.005 -1.2557  1.8883  1.1829
  106OSM    C1F10791   2.554   4.435   6.599 -0.2594  0.1726  0.2315
  106OSM     OF10792   2.633   4.483   6.681 -0.0991 -0.1590 -0.0818
  106OSM    C2F10793   2.511   4.505   6.477 -0.3683  1.2433 -0.5839
  106OSM    H2F10794   2.483   4.601   6.526  1.4337  1.5628 -0.1375
  106OSM    H2G10795   2.424   4.458   6.425 -0.4778  1.6867 -0.8104
  106OSM    C3F10796   2.634   4.531   6.383 -0.6671 -0.0455 -0.0357
  106OSM    H3F10797   2.661   4.434   6.338 -0.9908 -0.4994  0.7290
  106OSM    H3G10798   2.722   4.576   6.434  0.1119 -2.3017  0.7324
  106OSM    C4F10799   2.597   4.636   6.280 -0.2441 -0.0024 -0.7991
  106OSM    H4F10800   2.595   4.735   6.330 -0.1785 -0.8831  1.0456
  106OSM    H4G10801   2.495   4.602   6.251 -0.4392 -0.3206  0.2171
  106OSM    C5F10802   2.687   4.641   6.153 -0.8174 -0.2523  0.0758
  106OSM    H5F10803   2.661   4.542   6.110 -0.0442 -1.3165  1.9183
  106OSM    H5G10804   2.794   4.636   6.184 -0.3993  3.8685 -0.1156
  106OSM    C6F10805   2.667   4.759   6.049  0.0787 -0.1937 -0.0272
  106OSM    H6F10806   2.717   4.847   6.094 -0.4906 -0.3516  0.9303
  106OSM    H6G10807   2.557   4.773   6.049  0.0287 -0.5662  0.3251
  106OSM    C7F10808   2.709   4.713   5.904 -0.4019 -0.1272  0.0035
  106OSM    H7F10809   2.627   4.656   5.856 -0.1192 -0.4481 -0.1006
  106OSM    H7G10810   2.803   4.656   5.918  0.1252  0.6359 -0.3703
  106OSM    C8F10811   2.737   4.835   5.818 -1.0101  0.0879 -1.0117
  106OSM    H8F10812   2.800   4.902   5.880 -2.7731  1.1366 -0.2610
  106OSM    H8G10813   2.644   4.892   5.800 -1.5402 -0.1896  0.6921
  106OSM    C9F10814   2.788   4.805   5.685 -0.0539 -0.2210  0.0423
  106OSM    H9F10815   2.723   4.746   5.619 -0.9525  0.1238  0.5928
  106OSM   C10F10816   2.909   4.833   5.637 -0.5055  1.0416  0.1404
  106OSM   H10F10817   2.923   4.808   5.531 -0.7384  2.2349 -0.1867
  106OSM   C11F10818   3.007   4.917   5.719  0.1372  0.1772  0.2823
  106OSM   H11F10819   3.038   4.853   5.804 -0.7016 -2.7627 -1.4880
  106OSM   H11G10820   2.955   5.002   5.769  0.2491  0.9158 -0.7939
  106OSM   C12F10821   3.137   4.967   5.646 -0.6829  0.0123  0.0726
  106OSM   H12F10822   3.198   5.041   5.701  3.2209 -1.1729 -2.2673
  106OSM   H12G10823   3.110   5.027   5.557  2.8272  1.0825 -0.3971
  106OSM   C13F10824   3.249   4.866   5.618  0.4902  0.0637  0.7213
  106OSM   H13F10825   3.190   4.785   5.569 -0.6782  2.1517 -1.5654
  106OSM   H13G10826   3.287   4.816   5.709  0.7242  0.2356  0.7167
  106OSM   C14F10827   3.368   4.925   5.535  0.4373 -0.1796 -0.4903
  106OSM   H14F10828   3.458   4.861   5.546  0.3551 -0.8330 -3.0106
  106OSM   H14G10829   3.382   5.025   5.582  1.9852 -1.0774  1.0667
  106OSM   C15F10830   3.333   4.954   5.384 -0.5233 -0.2140 -0.0306
  106OSM   H15F10831   3.286   5.054   5.380  2.3070  1.1813 -1.4721
  106OSM   H15G10832   3.249   4.887   5.355 -0.4588  0.3046 -1.5197
  106OSM   C16F10833   3.451   4.944   5.286  0.1313 -0.1448  0.7398
  106OSM   H16F10834   3.412   4.952   5.182  2.6240 -0.8214 -0.3176
  106OSM   H16G10835   3.515   4.853   5.289  0.2213 -0.2190 -1.5880
  106OSM   C17F10836   3.544   5.058   5.329 -0.0772  0.5858 -0.0628
  106OSM   H17F10837   3.575   5.044   5.435  0.2744  0.4550 -0.1797
  106OSM   H17G10838   3.486   5.150   5.309 -2.8760 -1.1945 -0.6654
  106OSM   C18F10839   3.679   5.050   5.253 -0.1841  0.0769 -0.3774
  106OSM   H18F10840   3.681   5.088   5.148  0.4570  1.3489  0.0776
  106OSM   H18G10841   3.720   4.947   5.252  1.7656  0.8113  0.0138
  106OSM   H18H10842   3.757   5.103   5.312  1.0318  0.5833 -2.3397
  107OSM      N10843   2.953   3.058   7.268 -0.4178 -0.0702 -0.0384
  107OSM    C1510844   2.965   3.175   7.175 -0.3418  0.7377 -0.2097
  107OSM   H15A10845   2.872   3.229   7.173 -0.4954  0.6447  2.0841
  107OSM   H15B10846   3.002   3.150   7.076 -1.5554  0.6342 -0.6578
  107OSM   H15C10847   3.041   3.243   7.212  1.2553  1.8025 -4.6565
  107OSM    C1410848   3.090   3.033   7.329  1.0604 -0.1429  0.1884
  107OSM   H14A10849   3.126   3.122   7.377 -0.5720  0.9231 -0.4722
  107OSM   H14B10850   3.155   3.009   7.246  1.8463 -2.0391  1.2887
  107OSM   H14C10851   3.091   2.955   7.404 -0.0604  3.7288  4.7139
  107OSM    C1310852   2.850   3.081   7.372 -0.1224  0.2340 -0.0318
  107OSM   H13A10853   2.835   2.988   7.424 -1.6919  0.8719  0.7394
  107OSM   H13B10854   2.757   3.111   7.326 -0.4422 -0.4991  0.1215
  107OSM   H13C10855   2.881   3.166   7.431  3.2434  0.1283 -1.4403
  107OSM    C1210856   2.922   2.931   7.186  0.5412  0.1472  0.3813
  107OSM   H12A10857   2.915   2.852   7.260  1.3875 -1.8905 -1.5786
  107OSM   H12B10858   3.010   2.911   7.126 -0.2539 -1.1958 -0.3631
  107OSM    C1110859   2.793   2.920   7.105  0.4507  0.6246  0.5301
  107OSM   H11A10860   2.790   2.815   7.071  3.6941  1.3726 -2.6033
  107OSM   H11B10861   2.795   2.968   7.005 -0.3936 -2.0796 -0.8852
  107OSM      P10862   2.564   2.863   7.229  0.2293  0.0896  0.2285
  107OSM    O1310863   2.621   2.785   7.339 -0.4457  0.3315  0.4030
  107OSM    O1410864   2.448   2.953   7.260 -0.4222  0.0742 -0.4819
  107OSM    O1110865   2.525   2.765   7.112 -0.2475 -0.0911 -0.3193
  107OSM    O1210866   2.674   2.962   7.172 -0.6021  0.1849  0.2558
  107OSM    C1S10867   2.423   2.798   7.021  0.9341  0.8730  0.2162
  107OSM    H1S10868   2.376   2.898   7.035  1.6956  1.6774 -2.4007
  107OSM    H1T10869   2.340   2.724   7.027  1.8748 -0.1573  0.9301
  107OSM     NF10870   2.382   2.889   6.795 -0.3131 -0.3539  0.4615
  107OSM    HNF10871   2.316   2.831   6.746 -0.3721 -1.0952  1.3838
  107OSM    C2S10872   2.469   2.801   6.873  0.4760 -0.7836  1.2747
  107OSM    H2S10873   2.571   2.844   6.872 -0.0380  0.4829  1.6774
  107OSM    C3S10874   2.485   2.665   6.805 -0.5128 -0.6890  0.0128
  107OSM    H3S10875   2.386   2.620   6.783 -0.9363 -0.1101  0.6437
  107OSM     O310876   2.560   2.577   6.889  0.0844  0.0656  0.2966
  107OSM    HO310877   2.570   2.615   6.976  2.6120  0.4213 -0.0776
  107OSM    C4S10878   2.550   2.666   6.661  0.0314  0.6428 -0.1328
  107OSM    H4S10879   2.472   2.662   6.584  0.3830  0.9894 -0.5132
  107OSM    C5S10880   2.679   2.664   6.628 -0.3471  0.0475  0.2215
  107OSM    H5S10881   2.753   2.648   6.709 -2.0560  0.6701  1.9908
  107OSM    C6S10882   2.729   2.670   6.488 -1.1424 -0.0006  0.2340
  107OSM    H6S10883   2.809   2.593   6.487  0.7909  1.9191 -1.5279
  107OSM    H6T10884   2.778   2.762   6.451 -1.3428 -0.2078 -0.5854
  107OSM    C7S10885   2.625   2.637   6.388 -0.2704  0.0456  0.1527
  107OSM    H7S10886   2.550   2.719   6.378  1.3064  1.4834 -0.4165
  107OSM    H7T10887   2.568   2.545   6.409  1.7899 -1.5832 -0.9538
  107OSM    C8S10888   2.685   2.624   6.243 -0.3739 -0.2330 -1.3720
  107OSM    H8S10889   2.758   2.542   6.257  0.6509  0.9804  1.0583
  107OSM    H8T10890   2.738   2.718   6.213 -1.7033  1.1150  0.2967
  107OSM    C9S10891   2.588   2.589   6.132  0.7246 -0.3017  0.3325
  107OSM    H9S10892   2.504   2.661   6.134  0.8246 -0.1334 -0.8082
  107OSM    H9T10893   2.561   2.483   6.149  1.7082 -0.4934  0.8278
  107OSM   C10S10894   2.659   2.615   6.006 -0.0845  0.1470  0.3888
  107OSM   H10S10895   2.763   2.578   6.008  0.5240  1.7746  0.3804
  107OSM   H10T10896   2.686   2.721   5.988 -0.5908 -0.0269 -1.5393
  107OSM   C11S10897   2.590   2.548   5.884 -0.9484  0.1109 -0.6047
  107OSM   H11S10898   2.480   2.548   5.898 -1.0652  0.0720 -1.4650
  107OSM   H11T10899   2.618   2.440   5.881 -0.1600  0.1069  2.7369
  107OSM   C12S10900   2.619   2.623   5.750 -0.2346  0.4510 -0.5322
  107OSM   H12S10901   2.726   2.649   5.732 -0.9633  0.9267 -5.6044
  107OSM   H12T10902   2.567   2.721   5.755  1.3875  1.3660 -0.9338
  107OSM   C13S10903   2.580   2.560   5.616  0.1736 -0.6054 -0.5431
  107OSM   H13S10904   2.635   2.470   5.583  0.7396  0.1596 -1.7513
  107OSM   H13T10905   2.612   2.630   5.536  0.5916  0.6320  0.6690
  107OSM   C14S10906   2.433   2.531   5.599  0.1902 -0.7494 -0.7057
  107OSM   H14S10907   2.368   2.615   5.632  1.0265  0.8893 -2.9505
  107OSM   H14T10908   2.413   2.458   5.680 -1.3305  0.7371  0.3432
  107OSM   C15S10909   2.390   2.474   5.464  0.9671  0.0512 -0.6405
  107OSM   H15S10910   2.281   2.452   5.469  1.2080 -0.9347  2.8449
  107OSM   H15T10911   2.445   2.380   5.442  0.6950 -0.0689 -0.8268
  107OSM   C16S10912   2.397   2.572   5.349 -0.2912  0.6533 -0.8369
  107OSM   H16S10913   2.506   2.593   5.342 -0.2389  0.9112  0.4379
  107OSM   H16T10914   2.343   2.663   5.382 -0.3049  0.5135 -0.4654
  107OSM   C17S10915   2.368   2.509   5.214  0.1870 -0.2820 -0.0810
  107OSM   H17S10916   2.272   2.453   5.212 -0.7738  1.2243  1.2774
  107OSM   H17T10917   2.445   2.429   5.210  0.2147 -0.1956 -1.9763
  107OSM   C18S10918   2.382   2.595   5.087  0.5522  0.0066 -0.2408
  107OSM   H18S10919   2.293   2.659   5.073  2.4270  2.2177 -2.9339
  107OSM   H18T10920   2.400   2.527   5.001 -1.4298  0.0821 -0.7599
  107OSM   H18U10921   2.472   2.659   5.093  0.1802  0.4341  2.3695
  107OSM    C1F10922   2.384   3.023   6.799 -0.1105  0.0576  0.5923
  107OSM     OF10923   2.464   3.088   6.860  0.0185 -0.1330  0.1303
  107OSM    C2F10924   2.274   3.094   6.726  0.2065  0.6453  0.5735
  107OSM    H2F10925   2.271   3.203   6.750 -0.7513  1.0443 -1.2097
  107OSM    H2G10926   2.180   3.050   6.766 -0.8207  1.6208 -0.6792
  107OSM    C3F10927   2.287   3.083   6.574 -0.7067 -0.2866  0.2179
  107OSM    H3F10928   2.192   3.122   6.533  0.0516 -0.6494 -2.0117
  107OSM    H3G10929   2.300   2.976   6.547 -0.3747  0.3064 -2.2214
  107OSM    C4F10930   2.404   3.154   6.504  0.7356 -0.1188 -0.0175
  107OSM    H4F10931   2.483   3.166   6.581 -0.6232  1.9157  1.1370
  107OSM    H4G10932   2.382   3.254   6.460 -0.0180 -0.2356  0.0808
  107OSM    C5F10933   2.472   3.074   6.395  0.7790  0.5252  0.1362
  107OSM    H5F10934   2.409   3.095   6.305  1.1994  0.0446 -0.2807
  107OSM    H5G10935   2.471   2.964   6.406 -2.2242  0.3294 -1.0378
  107OSM    C6F10936   2.612   3.116   6.348  0.3734 -0.9584  0.0563
  107OSM    H6F10937   2.689   3.120   6.428  1.5976  0.3734 -1.1478
  107OSM    H6G10938   2.602   3.218   6.306  0.4841 -0.5084  1.1076
  107OSM    C7F10939   2.671   3.022   6.243 -0.5355  0.2875  0.7399
  107OSM    H7F10940   2.689   2.928   6.300 -1.2371  0.4825  1.2945
  107OSM    H7G10941   2.763   3.074   6.210  0.9397 -2.0987  0.8326
  107OSM    C8F10942   2.590   2.987   6.114  0.8066 -0.5159  0.3119
  107OSM    H8F10943   2.498   2.932   6.145  0.0295 -0.0150 -1.0144
  107OSM    H8G10944   2.645   2.910   6.055  1.4999 -1.3049  1.9048
  107OSM    C9F10945   2.543   3.105   6.037  0.4065  0.1694 -0.0034
  107OSM    H9F10946   2.509   3.188   6.100 -0.0122 -1.0714  1.4996
  107OSM   C10F10947   2.546   3.120   5.903 -0.1135 -0.3579 -0.2256
  107OSM   H10F10948   2.516   3.217   5.863 -1.4506 -1.2424 -1.4765
  107OSM   C11F10949   2.599   3.021   5.807 -0.0732  0.4921  0.0468
  107OSM   H11F10950   2.541   2.927   5.824  0.1889  0.6486  2.0402
  107OSM   H11G10951   2.706   2.997   5.821 -0.4264 -1.6854 -0.5856
  107OSM   C12F10952   2.583   3.050   5.663 -0.3065  0.0351 -0.4126
  107OSM   H12F10953   2.662   3.124   5.637  0.9858 -1.3179 -0.5101
  107OSM   H12G10954   2.484   3.094   5.640 -1.4077 -2.8374 -1.7337
  107OSM   C13F10955   2.602   2.924   5.569  0.0031 -0.6013 -0.4987
  107OSM   H13F10956   2.510   2.864   5.582 -0.7363  0.4958 -0.4726
  107OSM   H13G10957   2.691   2.866   5.601  0.3062  0.0056 -0.2215
  107OSM   C14F10958   2.624   2.981   5.433 -0.0032 -0.4686  0.2242
  107OSM   H14F10959   2.710   3.050   5.417  0.2543 -1.0765 -1.2096
  107OSM   H14G10960   2.542   3.047   5.397  1.1601 -0.0188 -1.8087
  107OSM   C15F10961   2.661   2.874   5.326  0.1433 -0.1457  0.3513
  107OSM   H15F10962   2.584   2.796   5.312  0.4482 -0.5696  0.9744
  107OSM   H15G10963   2.759   2.824   5.345  2.9033  3.7921 -2.0324
  107OSM   C16F10964   2.682   2.943   5.188 -0.4097 -0.6637  0.6633
  107OSM   H16F10965   2.741   3.037   5.193 -0.2256 -0.8180  1.6408
  107OSM   H16G10966   2.592   2.965   5.127  0.0456  1.6701  0.7549
  107OSM   C17F10967   2.757   2.840   5.089  0.0774  0.5395 -0.0374
  107OSM   H17F10968   2.727   2.737   5.116  2.1857 -0.7571 -2.2234
  107OSM   H17G10969   2.864   2.842   5.120  0.3038  1.1450 -0.8042
  107OSM   C18F10970   2.728   2.862   4.944 -0.8534 -0.8021 -0.1728
  107OSM   H18F10971   2.725   2.973   4.944 -0.5485 -0.7920 -0.6847
  107OSM   H18G10972   2.638   2.820   4.894 -1.0948 -1.4068  0.7345
  107OSM   H18H10973   2.813   2.839   4.876  0.2353  3.5121 -0.5839
  108OSM      N10974   5.377   0.274   7.565 -0.6677  0.1780  0.3327
  108OSM    C1510975   5.496   0.202   7.632 -0.2722  0.3815  0.5795
  108OSM   H15A10976   5.569   0.177   7.557 -2.0811 -2.2793 -0.4614
  108OSM   H15B10977   5.462   0.109   7.676 -0.7480 -1.2919 -2.9706
  108OSM   H15C10978   5.546   0.265   7.704 -1.3853  2.6231 -0.5122
  108OSM    C1410979   5.276   0.322   7.670 -0.5853  0.3961  0.2792
  108OSM   H14A10980   5.264   0.246   7.745 -2.0706  0.2969 -0.0306
  108OSM   H14B10981   5.182   0.342   7.621 -0.4984  2.7115  0.9270
  108OSM   H14C10982   5.310   0.405   7.730 -0.0138 -0.2216  0.8272
  108OSM    C1310983   5.451   0.389   7.505  0.8599  0.1848  0.2606
  108OSM   H13A10984   5.517   0.350   7.428  1.4142 -0.0303  0.8346
  108OSM   H13B10985   5.498   0.445   7.585 -0.3246  1.6102  0.0065
  108OSM   H13C10986   5.379   0.454   7.459 -0.5509 -0.9207  0.8481
  108OSM    C1210987   5.323   0.190   7.453 -0.0149 -0.1224 -0.3059
  108OSM   H12A10988   5.288   0.092   7.483 -0.8176 -0.4886 -2.2967
  108OSM   H12B10989   5.411   0.176   7.392  1.4619 -1.0141  1.9122
  108OSM    C1110990   5.215   0.253   7.354  0.1677  0.4771 -0.5725
  108OSM   H11A10991   5.210   0.194   7.259  0.3822 -1.1468  0.3930
  108OSM   H11B10992   5.240   0.358   7.330 -0.0988  0.7935  0.5016
  108OSM      P10993   4.991   0.146   7.457 -0.0423  0.1991 -0.3166
  108OSM    O1310994   5.026   0.082   7.584 -0.1601 -0.0829  0.2826
  108OSM    O1410995   4.857   0.204   7.442 -1.0869  0.7895  0.3282
  108OSM    O1110996   5.007   0.045   7.335  0.0726 -0.3043 -0.0956
  108OSM    O1210997   5.088   0.270   7.425 -0.3648 -0.2453 -0.5668
  108OSM    C1S10998   4.925   0.041   7.214  0.8036 -0.2210 -0.3171
  108OSM    H1S10999   4.889   0.141   7.184 -0.4128 -0.5505 -0.0298
  108OSM    H1T11000   4.834  -0.023   7.218 -0.3207  1.3864  1.2133
  108OSM     NF11001   4.930  -0.025   6.972 -0.1897  0.0974 -0.1516
  108OSM    HNF11002   4.920  -0.119   6.940  1.0266 -1.3087  3.2378
  108OSM    C2S11003   5.005  -0.018   7.099 -0.7527 -0.0646 -0.2986
  108OSM    H2S11004   5.096   0.044   7.089 -0.5061 -0.1708  1.0381
  108OSM    C3S11005   5.060  -0.165   7.128  0.6624  0.2178  0.3259
  108OSM    H3S11006   4.970  -0.230   7.133  0.0245  1.1279  1.0506
  108OSM     O311007   5.128  -0.178   7.250 -0.8311 -0.2104 -0.4052
  108OSM    HO311008   5.099  -0.104   7.304 -0.4767  0.8103 -1.5585
  108OSM    C4S11009   5.150  -0.209   7.021 -0.1422 -0.0645 -0.4265
  108OSM    H4S11010   5.256  -0.183   7.038 -0.2209  1.6727 -2.2382
  108OSM    C5S11011   5.126  -0.299   6.924  0.2561  0.3844 -0.4994
  108OSM    H5S11012   5.025  -0.342   6.916  0.0138  0.4254  1.6413
  108OSM    C6S11013   5.231  -0.354   6.837 -0.2959  0.2680 -0.2066
  108OSM    H6S11014   5.244  -0.455   6.882 -2.4588 -0.8936 -2.0073
  108OSM    H6T11015   5.327  -0.298   6.841  0.8420 -1.1622 -3.8501
  108OSM    C7S11016   5.194  -0.388   6.692  0.5332  0.0204 -0.7623
  108OSM    H7S11017   5.156  -0.298   6.639  0.2405 -0.8615 -2.0928
  108OSM    H7T11018   5.111  -0.461   6.681  0.6875 -0.1136 -1.0527
  108OSM    C8S11019   5.317  -0.428   6.612 -0.2164  0.0443  0.7072
  108OSM    H8S11020   5.385  -0.498   6.666 -1.2710 -0.5542  1.2833
  108OSM    H8T11021   5.368  -0.332   6.586 -1.8755  1.0664  1.0602
  108OSM    C9S11022   5.277  -0.510   6.485 -0.1319  0.1638 -0.1761
  108OSM    H9S11023   5.195  -0.580   6.510  0.4997  0.2403  2.4064
  108OSM    H9T11024   5.368  -0.568   6.457  2.1944  1.3626  4.1054
  108OSM   C10S11025   5.264  -0.404   6.369  0.4116  0.1712  0.3522
  108OSM   H10S11026   5.350  -0.334   6.374 -0.4672  1.3699 -0.6821
  108OSM   H10T11027   5.171  -0.346   6.387  3.3079  5.9906 -0.9601
  108OSM   C11S11028   5.267  -0.471   6.228  0.3453  0.2242  0.2966
  108OSM   H11S11029   5.221  -0.572   6.227  1.0891 -0.1367 -1.0639
  108OSM   H11T11030   5.374  -0.491   6.201  0.3658  1.7601 -0.8922
  108OSM   C12S11031   5.193  -0.387   6.115 -0.6149  0.6763  0.1389
  108OSM   H12S11032   5.251  -0.293   6.104  3.8747 -1.9481 -0.8204
  108OSM   H12T11033   5.090  -0.355   6.144 -0.7577  0.7156 -0.3814
  108OSM   C13S11034   5.185  -0.455   5.972 -0.7237 -0.2022 -0.0071
  108OSM   H13S11035   5.145  -0.557   5.991 -1.9417  0.3571  0.5300
  108OSM   H13T11036   5.291  -0.460   5.939 -0.5519  1.3954  0.2296
  108OSM   C14S11037   5.111  -0.369   5.870  0.6253 -0.4422 -0.0429
  108OSM   H14S11038   5.146  -0.264   5.860  0.6474 -0.2882  1.4639
  108OSM   H14T11039   5.007  -0.362   5.910  1.7869 -0.1352  3.1980
  108OSM   C15S11040   5.109  -0.422   5.727  0.2360  0.1574 -0.0861
  108OSM   H15S11041   5.085  -0.530   5.722  0.6220  0.1353 -2.4631
  108OSM   H15T11042   5.202  -0.418   5.666 -0.2270  1.5303 -0.7485
  108OSM   C16S11043   5.017  -0.341   5.634  0.0752  0.1712  0.8179
  108OSM   H16S11044   5.056  -0.238   5.626 -0.3948  0.5134  2.5629
  108OSM   H16T11045   4.914  -0.345   5.676 -0.9395  1.9678 -1.2658
  108OSM   C17S11046   5.022  -0.400   5.489 -0.5181 -0.1018 -0.3587
  108OSM   H17S11047   4.996  -0.507   5.497 -0.2929 -0.0894  0.6586
  108OSM   H17T11048   5.118  -0.388   5.435 -0.4436  1.9882  0.1332
  108OSM   C18S11049   4.914  -0.324   5.412 -0.3135 -0.7068  0.6173
  108OSM   H18S11050   4.810  -0.339   5.447 -1.8295  2.4314 -2.0113
  108OSM   H18T11051   4.925  -0.355   5.306  2.4565 -0.5708  0.7978
  108OSM   H18U11052   4.926  -0.213   5.410 -0.0541 -0.7407 -0.7436
  108OSM    C1F11053   4.905   0.080   6.893 -0.2671  0.1475 -0.1660
  108OSM     OF11054   4.925   0.195   6.931  0.0883 -0.2515 -0.0345
  108OSM    C2F11055   4.842   0.046   6.763  0.3156 -0.4101 -0.4790
  108OSM    H2F11056   4.777   0.127   6.725 -0.7728 -0.0963  1.8452
  108OSM    H2G11057   4.770  -0.039   6.767 -0.4281  0.2040 -0.5203
  108OSM    C3F11058   4.956   0.023   6.656 -0.1989 -0.3107 -0.3565
  108OSM    H3F11059   5.032  -0.049   6.693  0.3988  1.1554  1.4305
  108OSM    H3G11060   5.014   0.114   6.632  0.8689 -0.7976  0.3299
  108OSM    C4F11061   4.901  -0.027   6.521 -0.0526  0.8412  0.1402
  108OSM    H4F11062   4.815   0.036   6.490 -0.1039  0.4214 -0.5901
  108OSM    H4G11063   4.854  -0.126   6.536 -0.0488  0.7717 -0.2950
  108OSM    C5F11064   5.011  -0.021   6.408 -0.1131  0.0056 -0.9637
  108OSM    H5F11065   5.082  -0.104   6.425 -2.7341 -2.2799 -0.2872
  108OSM    H5G11066   5.063   0.077   6.403  1.5436 -0.6091  2.2214
  108OSM    C6F11067   4.937  -0.034   6.275 -0.1271 -0.4004  0.4739
  108OSM    H6F11068   4.871   0.056   6.274  0.0676 -0.2323 -1.6023
  108OSM    H6G11069   4.878  -0.127   6.260  0.1503 -0.2086 -2.2822
  108OSM    C7F11070   5.037  -0.016   6.156  0.0794  0.1291 -0.9282
  108OSM    H7F11071   5.071  -0.120   6.138  0.0296 -0.0329 -0.1084
  108OSM    H7G11072   5.126   0.045   6.183  1.2771 -1.9939  0.1617
  108OSM    C8F11073   4.958   0.018   6.028  0.3799  0.5085  1.3089
  108OSM    H8F11074   5.030   0.035   5.945 -0.0839  0.9411  0.9935
  108OSM    H8G11075   4.904   0.114   6.042 -0.1830  0.2429  1.0145
  108OSM    C9F11076   4.851  -0.086   5.983  0.4835  0.3626 -0.0669
  108OSM    H9F11077   4.890  -0.185   5.956  0.7722  0.4407  0.0587
  108OSM   C10F11078   4.716  -0.070   5.972 -0.2275 -0.0562 -0.3531
  108OSM   H10F11079   4.657  -0.159   5.944  1.6908 -1.3925 -0.3280
  108OSM   C11F11080   4.633   0.061   5.995  0.2174 -0.6293 -0.3072
  108OSM   H11F11081   4.603   0.110   5.899 -1.1971  1.7711  1.2541
  108OSM   H11G11082   4.696   0.138   6.043 -1.3730  1.5147 -1.4635
  108OSM   C12F11083   4.504   0.050   6.090 -0.0318  0.1430 -0.0102
  108OSM   H12F11084   4.435  -0.029   6.054  1.2894 -1.3124  0.5410
  108OSM   H12G11085   4.456   0.150   6.096 -1.3053 -0.4984  0.6703
  108OSM   C13F11086   4.544   0.000   6.236  0.5414  0.3041  0.0793
  108OSM   H13F11087   4.610   0.073   6.287  0.5486 -0.3875  1.0884
  108OSM   H13G11088   4.593  -0.099   6.241 -0.7188 -0.3622 -0.1372
  108OSM   C14F11089   4.424  -0.026   6.335 -0.4180  0.6084  0.6103
  108OSM   H14F11090   4.367  -0.112   6.294  0.0720  0.1859  0.7954
  108OSM   H14G11091   4.370   0.070   6.347  0.0888  0.9944 -0.1578
  108OSM   C15F11092   4.481  -0.063   6.473 -0.0600  0.2161 -0.5162
  108OSM   H15F11093   4.564   0.004   6.504 -0.3086  0.2373  0.1264
  108OSM   H15G11094   4.529  -0.164   6.471 -1.3571 -0.4964  1.2007
  108OSM   C16F11095   4.366  -0.068   6.573  0.0838  0.4475 -0.3752
  108OSM   H16F11096   4.286  -0.121   6.517  1.2854 -0.7434 -0.9892
  108OSM   H16G11097   4.328   0.032   6.604 -0.8990 -0.2424  0.7524
  108OSM   C17F11098   4.401  -0.148   6.697 -0.3414 -0.0856 -0.1755
  108OSM   H17F11099   4.471  -0.082   6.754  0.0163 -1.0204  0.4913
  108OSM   H17G11100   4.459  -0.239   6.671 -0.7950 -0.4952  0.2351
  108OSM   C18F11101   4.282  -0.191   6.787 -0.7917  0.2174 -0.0107
  108OSM   H18F11102   4.325  -0.267   6.855 -2.5171 -1.3646 -0.5904
  108OSM   H18G11103   4.195  -0.230   6.729  0.5567 -1.3975 -1.0181
  108OSM   H18H11104   4.253  -0.108   6.856 -0.9133  0.3760 -0.2497
  109OSM      N11105   0.403   3.656   7.571  0.2660 -0.1286  0.0043
  109OSM    C1511106   0.446   3.527   7.634  0.0400 -0.3190  0.1390
  109OSM   H15A11107   0.515   3.560   7.710 -0.7382  0.9017  0.3388
  109OSM   H15B11108   0.498   3.468   7.560  0.5589  0.3806 -0.0661
  109OSM   H15C11109   0.360   3.473   7.672  1.0074 -1.6630  0.5098
  109OSM    C1411110   0.344   3.741   7.681  0.0690 -0.4858  0.3876
  109OSM   H14A11111   0.292   3.821   7.631  0.4320 -0.4095  0.1324
  109OSM   H14B11112   0.419   3.773   7.750 -0.5583  1.5612  0.1771
  109OSM   H14C11113   0.272   3.686   7.740 -1.7540  0.1403 -1.1479
  109OSM    C1311114   0.521   3.739   7.519  0.1136 -0.0123 -0.6317
  109OSM   H13A11115   0.563   3.686   7.434 -1.2126 -0.8687 -0.7812
  109OSM   H13B11116   0.588   3.740   7.604 -2.0415  0.5574  1.1483
  109OSM   H13C11117   0.487   3.840   7.503 -0.4552  0.2823  2.0504
  109OSM    C1211118   0.299   3.623   7.465  0.0738  0.0590  0.2621
  109OSM   H12A11119   0.229   3.704   7.450 -2.3327 -1.4182  2.4789
  109OSM   H12B11120   0.234   3.543   7.498  0.5280 -0.8013 -0.8807
  109OSM    C1111121   0.358   3.573   7.330  0.1553  0.4427  0.1003
  109OSM   H11A11122   0.444   3.633   7.291 -1.6651  1.8706 -1.9671
  109OSM   H11B11123   0.279   3.577   7.252  0.6515 -0.6585 -0.4780
  109OSM      P11124   0.356   3.303   7.315 -0.5064  0.1387  0.3289
  109OSM    O1311125   0.448   3.208   7.248 -0.1134  0.4629  0.0409
  109OSM    O1411126   0.284   3.263   7.434 -0.5038 -0.0598 -0.6297
  109OSM    O1111127   0.252   3.338   7.203  0.4266  0.2655  0.5316
  109OSM    O1211128   0.424   3.441   7.341  0.2918  0.2589 -0.2526
  109OSM    C1S11129   0.287   3.373   7.068  0.0820 -1.0352 -0.3885
  109OSM    H1S11130   0.372   3.443   7.053 -1.3587  0.1775 -4.2987
  109OSM    H1T11131   0.197   3.434   7.042 -0.1186 -0.5242  1.3599
  109OSM     NF11132   0.340   3.314   6.841  0.4093 -0.0699 -0.4621
  109OSM    HNF11133   0.279   3.304   6.763  1.5473  1.6782 -1.6582
  109OSM    C2S11134   0.308   3.260   6.968  0.3226  0.1934 -0.1468
  109OSM    H2S11135   0.392   3.193   7.000 -0.5963  0.1994  2.5934
  109OSM    C3S11136   0.191   3.164   6.958  0.7412 -0.3385 -0.4174
  109OSM    H3S11137   0.099   3.213   6.921  2.3880  1.6501 -2.1959
  109OSM     O311138   0.134   3.117   7.081 -0.1567  0.3121 -0.4129
  109OSM    HO311139   0.181   3.166   7.149 -2.4606  4.0658 -1.2590
  109OSM    C4S11140   0.223   3.048   6.871 -0.0613  0.0478  1.3080
  109OSM    H4S11141   0.305   2.980   6.901  0.2725 -0.4281 -0.5387
  109OSM    C5S11142   0.153   3.011   6.760  0.2482 -0.3310  1.3570
  109OSM    H5S11143   0.074   3.081   6.729  2.2693  1.2262 -0.6317
  109OSM    C6S11144   0.170   2.894   6.668 -0.5492  0.2826 -0.8343
  109OSM    H6S11145   0.221   2.820   6.733  0.9577  1.4692 -0.6218
  109OSM    H6T11146   0.243   2.917   6.588 -2.9557 -0.1724 -3.3357
  109OSM    C7S11147   0.039   2.824   6.609  0.3172 -0.5927 -0.4944
  109OSM    H7S11148  -0.027   2.899   6.560  0.1736  0.2508  0.9307
  109OSM    H7T11149  -0.024   2.774   6.685  2.2090 -1.0633  0.8210
  109OSM    C8S11150   0.061   2.719   6.497 -0.7198  0.6156  0.1160
  109OSM    H8S11151  -0.039   2.674   6.477  0.6757 -3.1694  0.7451
  109OSM    H8T11152   0.128   2.640   6.538  1.8117  2.1919 -0.7220
  109OSM    C9S11153   0.110   2.784   6.363 -0.1690 -0.3135 -0.0516
  109OSM    H9S11154   0.197   2.853   6.370 -1.1382  0.8521  0.9179
  109OSM    H9T11155   0.020   2.841   6.332  0.2762 -0.0234 -0.8320
  109OSM   C10S11156   0.130   2.691   6.247 -0.3430  0.9345  1.2298
  109OSM   H10S11157   0.034   2.640   6.223  1.3375 -1.9879  0.3112
  109OSM   H10T11158   0.190   2.602   6.273 -1.5268 -1.2995 -2.8636
  109OSM   C11S11159   0.190   2.760   6.124 -0.1173  0.1736  0.4279
  109OSM   H11S11160   0.294   2.783   6.156 -0.6954  1.9891  1.1238
  109OSM   H11T11161   0.134   2.853   6.100 -1.1781 -0.7979 -0.9706
  109OSM   C12S11162   0.198   2.660   6.006  0.6792  0.0195  0.4436
  109OSM   H12S11163   0.115   2.586   5.999  2.1829 -1.6113 -1.5816
  109OSM   H12T11164   0.292   2.603   6.022  1.2076 -0.0103 -2.3068
  109OSM   C13S11165   0.214   2.734   5.868  0.1528 -0.4870  0.8664
  109OSM   H13S11166   0.285   2.817   5.887 -0.4830 -0.1131  1.6531
  109OSM   H13T11167   0.115   2.770   5.834  0.9068  0.0656 -0.9031
  109OSM   C14S11168   0.269   2.637   5.756  0.1573 -0.4768 -0.2104
  109OSM   H14S11169   0.215   2.540   5.751  0.4293 -0.6523  0.2085
  109OSM   H14T11170   0.370   2.601   5.785 -0.0591 -1.0001 -0.0909
  109OSM   C15S11171   0.258   2.698   5.617  0.0224 -0.2208  0.5062
  109OSM   H15S11172   0.154   2.721   5.586 -0.1117  1.0214  1.7599
  109OSM   H15T11173   0.298   2.631   5.539  0.5368 -0.0713  0.6361
  109OSM   C16S11174   0.337   2.832   5.612  0.4003  0.2894 -0.0644
  109OSM   H16S11175   0.441   2.821   5.651 -0.1244  1.7428  1.8669
  109OSM   H16T11176   0.286   2.902   5.681  0.7799 -1.3163  1.9675
  109OSM   C17S11177   0.339   2.883   5.469 -0.2147  0.4907 -0.1862
  109OSM   H17S11178   0.377   2.808   5.396 -2.1306  1.3472 -2.1854
  109OSM   H17T11179   0.416   2.963   5.470 -0.5168  0.7870 -0.3994
  109OSM   C18S11180   0.215   2.949   5.415  0.2159 -0.6653 -0.7308
  109OSM   H18S11181   0.174   3.032   5.475 -1.3624 -2.4988  0.8601
  109OSM   H18T11182   0.137   2.869   5.411  1.0470 -1.4685 -1.3790
  109OSM   H18U11183   0.231   2.983   5.310  0.8725 -1.3893 -0.8764
  109OSM    C1F11184   0.445   3.382   6.808 -0.0296 -0.3939 -0.1835
  109OSM     OF11185   0.533   3.401   6.887 -0.7475 -0.5816 -0.5443
  109OSM    C2F11186   0.445   3.444   6.670  0.8346  0.6793  0.1711
  109OSM    H2F11187   0.501   3.540   6.671  0.0566  1.1719  2.7272
  109OSM    H2G11188   0.337   3.463   6.650  0.5502  0.2213  1.1918
  109OSM    C3F11189   0.489   3.348   6.567 -0.4770 -0.3582 -0.6859
  109OSM    H3F11190   0.441   3.248   6.558 -0.8744 -0.0602 -2.2530
  109OSM    H3G11191   0.592   3.316   6.594 -0.0556  1.2625 -0.2265
  109OSM    C4F11192   0.486   3.420   6.427 -0.6987 -0.0993 -0.0687
  109OSM    H4F11193   0.562   3.501   6.423 -1.0927  0.4986  2.7418
  109OSM    H4G11194   0.394   3.470   6.390  0.5067  0.7474 -2.1034
  109OSM    C5F11195   0.523   3.316   6.320 -0.0290  0.1519 -0.1792
  109OSM    H5F11196   0.425   3.265   6.302 -1.1948  2.2884 -0.2718
  109OSM    H5G11197   0.592   3.240   6.362 -1.0684 -0.5876  0.2565
  109OSM    C6F11198   0.574   3.366   6.189  0.1357 -0.6508  0.1621
  109OSM    H6F11199   0.678   3.406   6.194  0.0166  0.2905 -2.7225
  109OSM    H6G11200   0.505   3.439   6.140  2.7656  1.4447 -0.6897
  109OSM    C7F11201   0.593   3.247   6.090 -0.2846 -0.2195  0.5728
  109OSM    H7F11202   0.549   3.157   6.138 -0.7178 -0.0747  0.4536
  109OSM    H7G11203   0.700   3.222   6.079 -0.1656  0.6916 -0.4934
  109OSM    C8F11204   0.528   3.277   5.945  0.2716  0.1196  0.3794
  109OSM    H8F11205   0.599   3.346   5.895  0.9907 -2.9067 -3.2470
  109OSM    H8G11206   0.432   3.329   5.966  0.3254  0.5462 -0.4101
  109OSM    C9F11207   0.498   3.146   5.872 -0.2142 -0.0487 -0.5425
  109OSM    H9F11208   0.436   3.071   5.923 -0.0155 -1.4981 -2.3269
  109OSM   C10F11209   0.560   3.097   5.765  0.3696 -0.5946 -0.2678
  109OSM   H10F11210   0.513   3.009   5.718 -0.6735 -0.2518  0.1071
  109OSM   C11F11211   0.636   3.181   5.669  0.3582  0.2006 -0.0635
  109OSM   H11F11212   0.717   3.120   5.624  0.8556 -0.0777  1.1699
  109OSM   H11G11213   0.691   3.267   5.714  0.9559 -0.4784  0.5373
  109OSM   C12F11214   0.554   3.225   5.545  0.8540  0.4988 -0.7288
  109OSM   H12F11215   0.465   3.285   5.576 -0.9739 -1.1414 -2.4687
  109OSM   H12G11216   0.515   3.139   5.486 -1.4847  1.8325 -1.2668
  109OSM   C13F11217   0.633   3.305   5.435 -0.0002 -0.3094  0.5476
  109OSM   H13F11218   0.698   3.243   5.369 -0.5415 -1.6432  1.2302
  109OSM   H13G11219   0.709   3.370   5.486  2.0748 -1.3637 -1.0330
  109OSM   C14F11220   0.544   3.405   5.352 -0.6056  0.0697 -0.4087
  109OSM   H14F11221   0.603   3.497   5.337  0.0683  0.1090  2.1867
  109OSM   H14G11222   0.449   3.422   5.407 -0.7260  2.6157 -1.3014
  109OSM   C15F11223   0.516   3.339   5.217 -0.0872  0.1917  0.1845
  109OSM   H15F11224   0.596   3.274   5.175 -1.8358 -1.8645 -0.1826
  109OSM   H15G11225   0.514   3.415   5.137  2.2441  0.9095  0.7425
  109OSM   C16F11226   0.384   3.251   5.214  0.2272 -0.0557  0.4784
  109OSM   H16F11227   0.305   3.327   5.226  0.3035 -0.1483  1.6273
  109OSM   H16G11228   0.385   3.187   5.305  1.7458 -2.4857 -1.1302
  109OSM   C17F11229   0.361   3.160   5.087 -0.2527 -0.4280  0.7057
  109OSM   H17F11230   0.261   3.115   5.101 -0.6884 -0.1429 -1.1907
  109OSM   H17G11231   0.439   3.083   5.103  0.0263  0.0680  1.8737
  109OSM   C18F11232   0.381   3.234   4.952  0.4442 -0.1279  0.1440
  109OSM   H18F11233   0.373   3.169   4.862 -0.6495 -0.0369  0.1711
  109OSM   H18G11234   0.477   3.291   4.963 -1.0107  2.0929  2.5834
  109OSM   H18H11235   0.301   3.310   4.938  0.7762  0.3765  0.9218
  110OSM      N11236   3.757   5.508   7.222 -0.8041 -0.4817  0.0974
  110OSM    C1511237   3.785   5.420   7.101  0.7957 -0.4411 -0.2658
  110OSM   H15A11238   3.826   5.320   7.113  4.4721  0.9817  0.3594
  110OSM   H15B11239   3.842   5.482   7.034  0.7649 -0.5292 -0.3740
  110OSM   H15C11240   3.690   5.406   7.052 -0.5819 -0.0640  2.1174
  110OSM    C1411241   3.879   5.509   7.307  0.3690  0.1692 -0.0608
  110OSM   H14A11242   3.886   5.598   7.367 -0.6266  0.8715 -0.9451
  110OSM   H14B11243   3.972   5.511   7.252 -0.6437 -2.7058 -2.1374
  110OSM   H14C11244   3.891   5.418   7.365  0.7482 -0.3068 -0.8717
  110OSM    C1311245   3.720   5.652   7.184  0.3661  0.2981 -0.5676
  110OSM   H13A11246   3.617   5.653   7.151 -0.3201 -1.3199  1.2783
  110OSM   H13B11247   3.790   5.692   7.112 -0.7228  0.8702 -1.3338
  110OSM   H13C11248   3.717   5.721   7.267 -1.4999  2.3856 -2.2364
  110OSM    C1211249   3.646   5.446   7.308 -0.2791 -0.2131  0.0771
  110OSM   H12A11250   3.627   5.523   7.381  0.6482  0.6690 -0.5663
  110OSM   H12B11251   3.689   5.355   7.345  4.1100  0.2709 -3.0130
  110OSM    C1111252   3.511   5.403   7.242  0.0430 -0.3026 -0.3326
  110OSM   H11A11253   3.453   5.353   7.323  0.9587 -3.2703 -1.3821
  110OSM   H11B11254   3.526   5.329   7.160  1.6503  1.5641 -1.8172
  110OSM      P11255   3.353   5.609   7.280 -0.2473  0.3839 -0.1656
  110OSM    O1311256   3.348   5.578   7.426  0.2443  0.6796 -0.4545
  110OSM    O1411257   3.390   5.751   7.245  0.2631  0.1805  0.0952
  110OSM    O1111258   3.217   5.572   7.219 -0.0758  0.1813 -0.1985
  110OSM    O1211259   3.448   5.520   7.190 -0.5525  0.1459 -0.1069
  110OSM    C1S11260   3.186   5.599   7.079  0.3722 -0.1643  0.4560
  110OSM    H1S11261   3.214   5.704   7.052 -0.6297 -0.3401 -1.4703
  110OSM    H1T11262   3.077   5.601   7.057  0.4128  0.6209  0.2653
  110OSM     NF11263   3.212   5.538   6.832  0.7926 -0.5141 -0.2065
  110OSM    HNF11264   3.169   5.473   6.769  1.9867 -1.3625 -0.1893
  110OSM    C2S11265   3.240   5.496   6.973  0.7266 -0.1192  0.0557
  110OSM    H2S11266   3.349   5.474   6.977  0.5622 -1.1565 -0.6929
  110OSM    C3S11267   3.181   5.361   7.014 -0.6426 -0.1440 -0.4193
  110OSM    H3S11268   3.071   5.370   7.001 -0.4668  0.8508 -1.3277
  110OSM     O311269   3.216   5.318   7.145  0.1993 -0.0948 -0.1293
  110OSM    HO311270   3.245   5.392   7.199  0.8084 -1.6815  1.8462
  110OSM    C4S11271   3.230   5.252   6.919 -0.5528  0.3803  0.2019
  110OSM    H4S11272   3.338   5.235   6.926 -0.3422  1.6232  0.1653
  110OSM    C5S11273   3.155   5.172   6.839  0.2232  0.3399  0.0448
  110OSM    H5S11274   3.046   5.185   6.845  0.2091 -0.3636  2.0574
  110OSM    C6S11275   3.205   5.055   6.756 -0.7239 -0.2282 -0.1485
  110OSM    H6S11276   3.134   4.971   6.771  0.0956 -1.0800 -0.9196
  110OSM    H6T11277   3.310   5.030   6.784 -0.4587  0.1256 -0.7977
  110OSM    C7S11278   3.210   5.080   6.608 -0.0696 -0.1467  0.0246
  110OSM    H7S11279   3.108   5.110   6.577 -0.0461  2.5376  2.2462
  110OSM    H7T11280   3.237   4.990   6.548 -1.1843 -0.2733 -0.3071
  110OSM    C8S11281   3.301   5.196   6.558  0.6030 -0.0831  0.0539
  110OSM    H8S11282   3.276   5.286   6.618 -2.2027 -1.3214  0.9023
  110OSM    H8T11283   3.267   5.225   6.456  0.3717 -2.0333 -0.4659
  110OSM    C9S11284   3.452   5.171   6.551  0.6539  0.7876  0.0518
  110OSM    H9S11285   3.476   5.104   6.465 -0.5064  1.1046 -0.5350
  110OSM    H9T11286   3.493   5.128   6.645 -1.6386  1.4695  1.4181
  110OSM   C10S11287   3.529   5.309   6.536 -0.1148  0.0997  0.4933
  110OSM   H10S11288   3.511   5.353   6.636 -1.7171  2.0345 -0.5709
  110OSM   H10T11289   3.485   5.378   6.460  0.5668  0.3022  0.2793
  110OSM   C11S11290   3.682   5.297   6.510 -0.0083  0.0037  0.6137
  110OSM   H11S11291   3.722   5.216   6.574  1.8873 -0.2362 -0.8038
  110OSM   H11T11292   3.729   5.394   6.535 -2.5031  1.2922  0.6584
  110OSM   C12S11293   3.712   5.261   6.366 -0.5534 -0.8526  0.1445
  110OSM   H12S11294   3.675   5.328   6.286  0.1386 -1.5132 -0.7592
  110OSM   H12T11295   3.668   5.161   6.346 -0.5601 -0.8673  0.2275
  110OSM   C13S11296   3.866   5.257   6.350 -0.4468 -0.2510  0.4368
  110OSM   H13S11297   3.919   5.193   6.423  2.6826  2.4301  0.7663
  110OSM   H13T11298   3.896   5.361   6.377  1.3497 -1.2184  2.4763
  110OSM   C14S11299   3.909   5.238   6.204  0.7831 -0.5680 -1.0742
  110OSM   H14S11300   3.861   5.318   6.144  0.0838 -0.6114 -0.5881
  110OSM   H14T11301   3.875   5.136   6.179 -0.8812 -0.4355  0.4194
  110OSM   C15S11302   4.059   5.252   6.171 -0.1758 -0.5198  0.4191
  110OSM   H15S11303   4.116   5.170   6.220  0.0293  0.3839  1.7522
  110OSM   H15T11304   4.095   5.345   6.220 -0.7109 -0.3801  0.5572
  110OSM   C16S11305   4.083   5.253   6.017  0.1226  0.2069  0.2774
  110OSM   H16S11306   4.044   5.166   5.961 -0.6178  2.3640 -2.7703
  110OSM   H16T11307   4.193   5.256   5.999  0.4904 -0.1026  2.2385
  110OSM   C17S11308   4.031   5.378   5.946 -0.5643 -0.1931 -0.8713
  110OSM   H17S11309   4.048   5.474   5.998 -2.3269 -0.4778  0.3047
  110OSM   H17T11310   3.920   5.375   5.941 -0.5220  0.1420 -2.3363
  110OSM   C18S11311   4.065   5.406   5.801  0.0211  0.1334  0.3332
  110OSM   H18S11312   3.985   5.474   5.764 -0.5673 -0.8370 -0.2105
  110OSM   H18T11313   4.071   5.317   5.735  0.2588  0.6324 -0.3262
  110OSM   H18U11314   4.159   5.460   5.778  0.6877 -0.3767  1.7312
  110OSM    C1F11315   3.283   5.642   6.786  0.2205  0.2310  0.4010
  110OSM     OF11316   3.380   5.686   6.851  0.6737  0.8491 -0.2469
  110OSM    C2F11317   3.243   5.702   6.654  0.1572  0.5464 -0.3291
  110OSM    H2F11318   3.312   5.788   6.636  0.1602  0.9657  1.4287
  110OSM    H2G11319   3.135   5.727   6.648 -0.0320 -0.5790 -2.2590
  110OSM    C3F11320   3.262   5.600   6.540  0.7440 -0.2139 -0.3591
  110OSM    H3F11321   3.177   5.529   6.549  0.2742  0.4316  0.4127
  110OSM    H3G11322   3.351   5.536   6.554  0.4793 -0.5526 -0.2055
  110OSM    C4F11323   3.273   5.673   6.409 -0.3564 -0.6125  0.3374
  110OSM    H4F11324   3.352   5.751   6.405  0.5862 -1.5665  0.0556
  110OSM    H4G11325   3.174   5.718   6.387 -0.1940  0.5909  1.9668
  110OSM    C5F11326   3.322   5.589   6.289 -0.1903 -0.1330  0.5050
  110OSM    H5F11327   3.419   5.542   6.318 -1.1082 -2.9113 -0.5657
  110OSM    H5G11328   3.324   5.649   6.195 -1.6180 -2.2759 -0.9965
  110OSM    C6F11329   3.224   5.477   6.255 -0.4391 -0.0332 -0.5391
  110OSM    H6F11330   3.115   5.500   6.251 -0.2514  0.9270 -0.2742
  110OSM    H6G11331   3.227   5.408   6.342 -1.7829 -0.6317 -0.9281
  110OSM    C7F11332   3.261   5.395   6.126  0.6981  0.3396  0.1658
  110OSM    H7F11333   3.213   5.294   6.129 -0.6940  0.8453 -1.9447
  110OSM    H7G11334   3.369   5.373   6.131  0.1608 -3.1236 -0.4030
  110OSM    C8F11335   3.222   5.461   5.988  0.1911  0.4578  0.4619
  110OSM    H8F11336   3.258   5.566   5.982 -2.4574  1.4061  0.0106
  110OSM    H8G11337   3.111   5.465   5.989  0.1218  2.0531 -2.6446
  110OSM    C9F11338   3.275   5.383   5.868  1.5376  0.4055  0.1354
  110OSM    H9F11339   3.373   5.339   5.889  0.9619 -0.0547  1.9716
  110OSM   C10F11340   3.214   5.370   5.748  0.2730 -0.6601  0.9186
  110OSM   H10F11341   3.278   5.311   5.681  1.8640  0.7453  1.1624
  110OSM   C11F11342   3.084   5.428   5.703  0.2533  0.3738 -0.3435
  110OSM   H11F11343   3.036   5.471   5.793  1.0215  3.0925 -1.1427
  110OSM   H11G11344   3.020   5.339   5.681 -0.4862  0.8127 -0.0239
  110OSM   C12F11345   3.073   5.537   5.601  0.0619  0.0643 -0.1431
  110OSM   H12F11346   3.064   5.478   5.506  1.6010 -0.4538  0.0067
  110OSM   H12G11347   3.163   5.600   5.587 -1.6689  2.7557  0.0940
  110OSM   C13F11348   2.945   5.628   5.629 -0.0768  0.4297  0.5970
  110OSM   H13F11349   2.856   5.566   5.652 -0.2064  0.5783  0.4943
  110OSM   H13G11350   2.911   5.689   5.543  1.3716  1.3403  0.6420
  110OSM   C14F11351   2.962   5.722   5.747  0.6941  0.4569  0.1034
  110OSM   H14F11352   2.968   5.658   5.838 -1.3955  0.7595  0.5141
  110OSM   H14G11353   2.868   5.778   5.765  1.5212  1.5824  1.0638
  110OSM   C15F11354   3.075   5.827   5.743  0.9223 -0.1440  0.5564
  110OSM   H15F11355   3.169   5.769   5.747  1.2221  0.3770  1.4714
  110OSM   H15G11356   3.082   5.881   5.840 -0.7113 -0.7342  1.0355
  110OSM   C16F11357   3.062   5.920   5.622  0.0896 -0.4234 -0.2995
  110OSM   H16F11358   2.954   5.942   5.610  0.3424  0.4432 -1.0663
  110OSM   H16G11359   3.100   5.870   5.531  0.0674  1.7586 -1.5802
  110OSM   C17F11360   3.131   6.062   5.631  0.2093  0.0205 -0.0011
  110OSM   H17F11361   3.238   6.040   5.647 -0.2478 -1.1250  1.8275
  110OSM   H17G11362   3.095   6.130   5.712  0.9919  1.2728 -0.6784
  110OSM   C18F11363   3.115   6.146   5.498 -0.5714  0.1776 -0.6580
  110OSM   H18F11364   3.005   6.152   5.482 -0.9289  3.6739  1.9097
  110OSM   H18G11365   3.163   6.099   5.410  2.4600  2.7069 -0.5227
  110OSM   H18H11366   3.154   6.249   5.512  0.1585 -0.4007  2.3513
  111OSM      N11367   6.115   4.164   7.490 -0.9480 -0.4884  0.1026
  111OSM    C1511368   6.157   4.025   7.507 -0.5064  0.9352  0.0957
  111OSM   H15A11369   6.084   3.968   7.563  0.3835 -1.2132 -0.8456
  111OSM   H15B11370   6.260   4.017   7.537 -0.0692  0.6867 -1.3955
  111OSM   H15C11371   6.144   3.966   7.417 -0.3984  1.1619 -0.0684
  111OSM    C1411372   6.120   4.256   7.604  0.5578 -1.4226 -0.1761
  111OSM   H14A11373   6.090   4.358   7.584  2.9538 -0.3509  1.2346
  111OSM   H14B11374   6.222   4.269   7.637  0.5054  1.2506 -0.8285
  111OSM   H14C11375   6.058   4.223   7.686  0.4798  1.1408  0.9058
  111OSM    C1311376   6.222   4.224   7.395  0.7267  0.4460 -0.0117
  111OSM   H13A11377   6.213   4.179   7.298 -1.2262 -0.8994  0.7395
  111OSM   H13B11378   6.324   4.215   7.431 -0.2225 -0.0875  2.8450
  111OSM   H13C11379   6.202   4.330   7.385 -1.5078  0.0262 -0.4692
  111OSM    C1211380   5.980   4.189   7.422  0.1588 -0.4156  0.0502
  111OSM   H12A11381   5.978   4.136   7.328 -0.9288 -0.0318 -0.1544
  111OSM   H12B11382   5.968   4.295   7.406  0.3084 -0.5312 -0.8611
  111OSM    C1111383   5.854   4.138   7.490 -0.9189 -0.5637 -0.1109
  111OSM   H11A11384   5.776   4.153   7.412 -0.3517 -1.1846 -0.8078
  111OSM   H11B11385   5.822   4.201   7.576  2.1575  1.2634 -0.1932
  111OSM      P11386   5.826   3.888   7.423  0.0326  0.3229  0.0982
  111OSM    O1311387   5.893   3.751   7.452  0.1265 -0.2847 -0.0271
  111OSM    O1411388   5.678   3.891   7.418  0.4860 -0.2729  0.2584
  111OSM    O1111389   5.884   3.930   7.282 -0.5262 -0.4130 -0.0976
  111OSM    O1211390   5.869   4.001   7.532 -0.1045 -0.1680 -0.4494
  111OSM    C1S11391   5.963   3.831   7.206 -0.1789 -0.1151 -0.0010
  111OSM    H1S11392   5.967   3.726   7.241  3.2374  0.4355  1.6683
  111OSM    H1T11393   6.072   3.853   7.205 -0.6919  2.8448 -0.0801
  111OSM     NF11394   5.978   3.720   6.982  0.4735 -0.0113 -0.5437
  111OSM    HNF11395   6.054   3.727   6.918  1.1067  1.7128  0.3304
  111OSM    C2S11396   5.926   3.839   7.058 -0.5866 -0.1370  0.5045
  111OSM    H2S11397   5.816   3.835   7.046 -0.4992 -1.3045 -0.0134
  111OSM    C3S11398   5.970   3.976   6.997 -0.0333  0.2011 -0.4793
  111OSM    H3S11399   6.080   3.972   6.989  0.2376  0.8353  2.0198
  111OSM     O311400   5.949   4.086   7.081 -0.5238  0.0216 -0.3443
  111OSM    HO311401   5.916   4.046   7.162 -0.7747 -0.3008 -0.6042
  111OSM    C4S11402   5.913   4.013   6.865  0.6574 -0.3841  0.6584
  111OSM    H4S11403   5.973   3.981   6.779  1.1550  1.8098  0.1255
  111OSM    C5S11404   5.794   4.070   6.838  0.0124  0.4659 -0.0160
  111OSM    H5S11405   5.730   4.101   6.922  0.1784  0.9663 -0.0724
  111OSM    C6S11406   5.738   4.083   6.699 -0.7045 -0.3732  0.0879
  111OSM    H6S11407   5.743   4.186   6.658 -0.8398  0.2673  1.6313
  111OSM    H6T11408   5.632   4.061   6.724 -0.3364 -2.4530  0.0232
  111OSM    C7S11409   5.760   3.967   6.594 -0.7321 -0.2949 -0.0339
  111OSM    H7S11410   5.728   3.869   6.635  0.4446  0.1472  2.0902
  111OSM    H7T11411   5.866   3.955   6.565 -1.3829 -1.4132 -2.1296
  111OSM    C8S11412   5.684   4.000   6.456  0.0382 -0.0413  0.5122
  111OSM    H8S11413   5.678   4.110   6.442  1.7898  0.1547  1.0337
  111OSM    H8T11414   5.580   3.966   6.471  0.1076  0.4021  2.2037
  111OSM    C9S11415   5.758   3.924   6.345 -0.1964  0.3293 -0.2276
  111OSM    H9S11416   5.678   3.909   6.270  0.8360 -0.5288 -1.1922
  111OSM    H9T11417   5.781   3.822   6.380  0.4471  0.8466  0.9219
  111OSM   C10S11418   5.877   4.007   6.298 -0.0225  0.7572  0.0853
  111OSM   H10S11419   5.951   4.011   6.380 -0.0378  1.2400  0.0800
  111OSM   H10T11420   5.832   4.104   6.267 -0.3819 -0.0741 -2.1554
  111OSM   C11S11421   5.941   3.954   6.164  0.1641  0.1665  0.1323
  111OSM   H11S11422   5.928   3.844   6.173  0.0550  0.1799  0.1400
  111OSM   H11T11423   6.048   3.982   6.152  0.3515 -0.3195  0.6061
  111OSM   C12S11424   5.858   3.995   6.037  0.2577 -0.5739  0.7134
  111OSM   H12S11425   5.842   4.105   6.043  1.6853 -0.3257  0.2360
  111OSM   H12T11426   5.763   3.938   6.045  1.1608 -2.2382 -0.0007
  111OSM   C13S11427   5.944   3.965   5.916  0.0971  0.0939  0.1601
  111OSM   H13S11428   5.982   3.862   5.902  3.4754  1.4820 -1.9394
  111OSM   H13T11429   6.039   4.020   5.929  1.2210 -1.9807  1.2792
  111OSM   C14S11430   5.868   3.997   5.786 -0.2323  0.7389 -0.1575
  111OSM   H14S11431   5.839   4.104   5.782 -0.6206  0.6127 -0.9364
  111OSM   H14T11432   5.775   3.936   5.788  0.1152  0.2200  1.2130
  111OSM   C15S11433   5.960   3.970   5.657  0.7143  0.3322 -0.0684
  111OSM   H15S11434   5.959   3.859   5.647  0.0800  0.0865  2.1290
  111OSM   H15T11435   6.066   3.997   5.676  0.6134  0.1337  0.8406
  111OSM   C16S11436   5.918   4.041   5.530  0.6116 -0.0844  0.2783
  111OSM   H16S11437   5.915   4.147   5.561 -2.2552 -0.4120  1.4261
  111OSM   H16T11438   5.815   4.009   5.505  1.5331 -2.0736 -1.2672
  111OSM   C17S11439   6.014   4.041   5.410 -0.3517 -0.2165  0.2214
  111OSM   H17S11440   6.041   3.934   5.405 -1.3943 -0.4355 -1.4156
  111OSM   H17T11441   6.114   4.084   5.432  0.6265 -0.3118 -3.3610
  111OSM   C18S11442   5.958   4.096   5.275 -0.6413 -0.2007  0.0227
  111OSM   H18S11443   5.936   4.205   5.276 -0.9284 -0.2411 -0.8467
  111OSM   H18T11444   5.868   4.040   5.243 -0.0298 -1.6047  0.6540
  111OSM   H18U11445   6.043   4.080   5.205 -0.5689 -2.2108  0.5174
  111OSM    C1F11446   5.922   3.601   7.000 -0.2010  0.5479  1.1295
  111OSM     OF11447   5.818   3.594   7.068 -0.2056  0.5942  0.0660
  111OSM    C2F11448   5.995   3.489   6.938 -0.1025  0.4713  0.3255
  111OSM    H2F11449   6.043   3.428   7.017  1.2435  0.7716 -0.2256
  111OSM    H2G11450   6.083   3.537   6.889  0.0752 -0.4397 -0.2896
  111OSM    C3F11451   5.920   3.406   6.835  0.3624  0.6352  0.6826
  111OSM    H3F11452   5.835   3.360   6.891 -0.4754  0.9056 -0.3231
  111OSM    H3G11453   5.968   3.312   6.799 -1.2210 -0.4877  1.3492
  111OSM    C4F11454   5.845   3.485   6.724  0.3161 -0.1894 -0.0341
  111OSM    H4F11455   5.798   3.577   6.765 -0.3282 -1.0981  1.3310
  111OSM    H4G11456   5.768   3.414   6.686  0.7981  0.1447 -1.7583
  111OSM    C5F11457   5.929   3.520   6.599  0.4057  0.0121 -0.3997
  111OSM    H5F11458   6.005   3.441   6.580 -1.6063 -1.5254 -2.7763
  111OSM    H5G11459   5.972   3.619   6.620  1.6493 -0.3525 -1.1131
  111OSM    C6F11460   5.846   3.539   6.470 -0.2315  1.0513 -0.4719
  111OSM    H6F11461   5.764   3.611   6.491  0.8871  1.8743  1.2992
  111OSM    H6G11462   5.808   3.441   6.434 -0.8391  1.6921 -1.6304
  111OSM    C7F11463   5.941   3.581   6.355 -0.2826 -0.0237 -0.0173
  111OSM    H7F11464   6.023   3.507   6.363  0.5495  1.0164  1.9508
  111OSM    H7G11465   5.967   3.687   6.379 -1.1023  0.0297  0.7142
  111OSM    C8F11466   5.883   3.574   6.208  0.1158  0.2906 -0.6902
  111OSM    H8F11467   5.821   3.663   6.186  0.8881  0.9942 -0.1169
  111OSM    H8G11468   5.815   3.486   6.205 -0.5391  0.7131  0.9008
  111OSM    C9F11469   5.991   3.556   6.108 -0.4172  0.4144  0.7188
  111OSM    H9F11470   6.088   3.605   6.126  1.1450 -2.5113  0.8828
  111OSM   C10F11471   5.973   3.502   5.983 -0.4622  0.5868  0.1532
  111OSM   H10F11472   6.048   3.506   5.903 -2.5819  0.9573 -1.9341
  111OSM   C11F11473   5.846   3.441   5.935  0.6189  0.0549 -0.3670
  111OSM   H11F11474   5.797   3.372   6.007 -0.8287 -1.3176 -2.5511
  111OSM   H11G11475   5.882   3.364   5.864  2.8983 -1.5250  2.2575
  111OSM   C12F11476   5.742   3.529   5.866 -0.8517  0.2653 -0.2082
  111OSM   H12F11477   5.796   3.584   5.786 -0.5256 -1.5862 -1.3143
  111OSM   H12G11478   5.686   3.597   5.934  2.0249 -0.1330  2.8385
  111OSM   C13F11479   5.630   3.457   5.788  0.2961  0.2718  0.3761
  111OSM   H13F11480   5.563   3.412   5.865 -1.3892  0.7298 -0.7560
  111OSM   H13G11481   5.673   3.378   5.723  1.5541  0.8299  0.5037
  111OSM   C14F11482   5.564   3.571   5.716 -0.2806  0.5507  0.4806
  111OSM   H14F11483   5.639   3.621   5.651 -0.2195 -0.9433 -0.6618
  111OSM   H14G11484   5.529   3.655   5.780  0.2031  0.7415  0.4971
  111OSM   C15F11485   5.449   3.522   5.627 -0.6494 -0.4077  0.1915
  111OSM   H15F11486   5.364   3.470   5.678  0.0834 -0.8199  1.0195
  111OSM   H15G11487   5.494   3.449   5.556  0.1648  0.5311 -0.2758
  111OSM   C16F11488   5.387   3.634   5.536  0.2604  0.5750 -0.7819
  111OSM   H16F11489   5.477   3.687   5.498  1.1967 -2.2482 -2.8845
  111OSM   H16G11490   5.333   3.704   5.603 -0.6580 -0.0962 -0.8035
  111OSM   C17F11491   5.306   3.578   5.424 -1.3811 -0.3801 -0.0976
  111OSM   H17F11492   5.233   3.504   5.464 -2.9958 -0.3678 -2.7554
  111OSM   H17G11493   5.375   3.526   5.355 -1.1725  0.1655 -0.3072
  111OSM   C18F11494   5.228   3.691   5.353 -0.3860 -0.4189  0.4883
  111OSM   H18F11495   5.307   3.753   5.305  1.7552 -2.9096  0.5333
  111OSM   H18G11496   5.167   3.744   5.429  2.3327  0.5664  2.1422
  111OSM   H18H11497   5.161   3.660   5.270  0.8474 -2.2009  0.1105
  112OSM      N11498   2.537   2.328   7.288  0.2718  0.3489 -0.0725
  112OSM    C1511499   2.455   2.238   7.366  0.7324  0.0920 -0.3037
  112OSM   H15A11500   2.474   2.240   7.472  0.1882  0.6963 -0.2142
  112OSM   H15B11501   2.459   2.136   7.331 -1.4171 -0.1130 -0.0776
  112OSM   H15C11502   2.350   2.263   7.359  0.4234 -1.1730 -0.5837
  112OSM    C1411503   2.485   2.352   7.147  0.1357  0.2391  0.1715
  112OSM   H14A11504   2.385   2.387   7.168 -0.1043 -1.4521  2.2906
  112OSM   H14B11505   2.493   2.270   7.078  0.2982 -0.1893  0.6900
  112OSM   H14C11506   2.546   2.429   7.102 -0.0489  0.3152  0.0516
  112OSM    C1311507   2.542   2.460   7.355  0.5081  0.1281 -0.2064
  112OSM   H13A11508   2.584   2.536   7.291 -1.1778  0.9865 -0.3631
  112OSM   H13B11509   2.602   2.456   7.444  0.7398 -0.0473 -0.3709
  112OSM   H13C11510   2.443   2.496   7.381  0.4343  0.2075 -0.5905
  112OSM    C1211511   2.677   2.268   7.283  0.0047  0.5368  0.0861
  112OSM   H12A11512   2.740   2.318   7.211 -2.0339  0.5430 -1.7707
  112OSM   H12B11513   2.665   2.166   7.248  0.6585  0.8855 -1.2344
  112OSM    C1111514   2.769   2.259   7.408  0.7611 -1.2608 -0.3141
  112OSM   H11A11515   2.857   2.195   7.386  1.4942 -1.3090  2.4604
  112OSM   H11B11516   2.722   2.194   7.485  4.7067 -1.4523  2.1742
  112OSM      P11517   2.947   2.457   7.411  0.0938 -0.1209 -0.1590
  112OSM    O1311518   2.957   2.600   7.441 -0.8546 -0.1304  0.2932
  112OSM    O1411519   3.055   2.378   7.474  0.1351 -0.0620 -0.6691
  112OSM    O1111520   2.938   2.433   7.257 -0.2476  0.0178  0.0739
  112OSM    O1211521   2.808   2.393   7.447  0.6869  0.0490  0.3542
  112OSM    C1S11522   2.928   2.528   7.146  0.6250  0.8124  0.2380
  112OSM    H1S11523   3.008   2.603   7.164  0.4910  1.6655 -2.3535
  112OSM    H1T11524   2.822   2.562   7.144  0.2457  0.0503 -4.4606
  112OSM     NF11525   2.924   2.564   6.905 -0.0840 -0.0706  0.9201
  112OSM    HNF11526   2.857   2.545   6.834 -1.9512  0.3205  2.4942
  112OSM    C2S11527   2.941   2.464   7.008 -0.8372  0.3494 -0.2850
  112OSM    H2S11528   3.047   2.432   6.999  0.3484  2.8703  2.8901
  112OSM    C3S11529   2.850   2.335   7.000 -0.1118  0.3631 -0.2501
  112OSM    H3S11530   2.745   2.354   7.031 -0.2158 -0.8473  0.2107
  112OSM     O311531   2.894   2.236   7.089  0.3373 -0.0674 -0.0849
  112OSM    HO311532   2.938   2.292   7.154 -0.6524  1.2348 -0.4809
  112OSM    C4S11533   2.847   2.281   6.857  0.8320  0.7045  0.0042
  112OSM    H4S11534   2.931   2.211   6.842 -0.5581 -0.8307 -1.0400
  112OSM    C5S11535   2.746   2.272   6.766  0.4206 -0.2087 -0.5345
  112OSM    H5S11536   2.647   2.319   6.779 -0.7663 -2.7616  0.3400
  112OSM    C6S11537   2.750   2.187   6.637 -0.1073 -0.3159  0.0593
  112OSM    H6S11538   2.647   2.155   6.613  1.1385 -3.4362 -1.7045
  112OSM    H6T11539   2.817   2.102   6.661 -1.4513 -1.2363  0.6116
  112OSM    C7S11540   2.804   2.276   6.523  0.0970  0.6888 -0.3943
  112OSM    H7S11541   2.910   2.303   6.540  0.3122  0.0302 -0.6512
  112OSM    H7T11542   2.737   2.364   6.514  0.5431  1.0940  0.2106
  112OSM    C8S11543   2.801   2.207   6.388 -0.3789 -0.5128  0.0505
  112OSM    H8S11544   2.870   2.120   6.381 -0.5563 -0.5431 -1.7310
  112OSM    H8T11545   2.840   2.279   6.313  0.1139 -2.0675 -1.2324
  112OSM    C9S11546   2.659   2.167   6.344 -0.0563  0.4720 -0.1253
  112OSM    H9S11547   2.588   2.252   6.351 -0.2904  0.2230  0.7093
  112OSM    H9T11548   2.616   2.088   6.410  2.1779 -0.2286  0.5677
  112OSM   C10S11549   2.662   2.132   6.198  0.4605 -0.6829 -0.8961
  112OSM   H10S11550   2.733   2.048   6.182  1.9110  0.2455  0.3738
  112OSM   H10T11551   2.712   2.213   6.142 -1.5932  0.3529 -1.3342
  112OSM   C11S11552   2.518   2.121   6.142 -0.2754 -0.3503  0.4447
  112OSM   H11S11553   2.454   2.201   6.184  0.3244  0.8833 -0.9205
  112OSM   H11T11554   2.471   2.024   6.171 -0.8965 -0.1032  0.2818
  112OSM   C12S11555   2.515   2.132   5.990  0.0597  0.3133  0.2131
  112OSM   H12S11556   2.580   2.051   5.950  1.7046  0.5457  2.2220
  112OSM   H12T11557   2.555   2.231   5.960  0.2655 -0.1065 -0.9681
  112OSM   C13S11558   2.369   2.130   5.947 -0.2801 -0.0633  0.2524
  112OSM   H13S11559   2.302   2.185   6.016 -1.5442  1.0229 -1.7364
  112OSM   H13T11560   2.324   2.029   5.939  2.0045 -1.0878 -0.4950
  112OSM   C14S11561   2.351   2.219   5.827  0.3254 -0.4671  0.1744
  112OSM   H14S11562   2.432   2.193   5.755 -0.0692 -0.7158 -0.1858
  112OSM   H14T11563   2.369   2.325   5.855 -0.1880 -0.2251 -0.3793
  112OSM   C15S11564   2.210   2.187   5.762  0.0021  0.1147 -0.6064
  112OSM   H15S11565   2.134   2.233   5.829 -0.6441  1.2352 -2.0452
  112OSM   H15T11566   2.200   2.077   5.750  2.2575 -0.0078 -1.8154
  112OSM   C16S11567   2.185   2.264   5.635  1.2908  0.3586 -0.7197
  112OSM   H16S11568   2.276   2.237   5.578  0.3027 -2.3066 -1.1877
  112OSM   H16T11569   2.172   2.372   5.659 -2.6195 -0.4013  1.5424
  112OSM   C17S11570   2.058   2.221   5.562 -0.2403 -0.7971 -0.3881
  112OSM   H17S11571   1.972   2.284   5.597  0.2222  0.5326 -1.5453
  112OSM   H17T11572   2.050   2.111   5.577 -1.9370 -0.6168  0.2302
  112OSM   C18S11573   2.071   2.260   5.418  0.3495 -0.2523 -0.4572
  112OSM   H18S11574   2.061   2.370   5.405  0.5715 -0.0867  0.6515
  112OSM   H18T11575   1.991   2.215   5.355  1.4194 -0.5391 -1.6625
  112OSM   H18U11576   2.173   2.232   5.387  1.0284  0.6582  0.8507
  112OSM    C1F11577   3.016   2.656   6.886 -0.4152  0.3849 -0.5585
  112OSM     OF11578   3.097   2.692   6.973 -0.0641 -0.0859 -0.2183
  112OSM    C2F11579   3.025   2.708   6.747 -0.3216 -0.0132 -0.1819
  112OSM    H2F11580   2.931   2.759   6.716  0.2801  1.4265  0.2702
  112OSM    H2G11581   3.047   2.625   6.676 -0.4649  0.0647 -0.3194
  112OSM    C3F11582   3.137   2.812   6.760  0.0554  0.2198  0.3075
  112OSM    H3F11583   3.237   2.767   6.780  0.3775  1.2203  1.0245
  112OSM    H3G11584   3.116   2.892   6.835 -0.2919 -0.5268  1.0315
  112OSM    C4F11585   3.156   2.890   6.617 -0.1579 -0.2539 -0.3042
  112OSM    H4F11586   3.193   2.809   6.552  0.3247 -2.0224  2.0324
  112OSM    H4G11587   3.240   2.960   6.636 -4.0681  4.2291  3.2674
  112OSM    C5F11588   3.035   2.961   6.558 -0.2895 -0.5828  0.3442
  112OSM    H5F11589   3.015   3.050   6.621  1.3636  0.3052 -0.3083
  112OSM    H5G11590   2.951   2.889   6.561 -0.9457  0.1815  0.4397
  112OSM    C6F11591   3.065   3.013   6.418  0.0885 -0.4974 -0.2976
  112OSM    H6F11592   3.162   3.066   6.425 -1.0206  1.6932 -0.7067
  112OSM    H6G11593   2.991   3.091   6.391  0.0723  0.1563  1.5155
  112OSM    C7F11594   3.078   2.903   6.311  0.3996 -0.8166 -0.2656
  112OSM    H7F11595   2.971   2.885   6.287  0.1703 -1.1684  0.9373
  112OSM    H7G11596   3.135   2.812   6.339  0.9130 -0.0805  1.2208
  112OSM    C8F11597   3.160   2.972   6.191 -0.4033  0.2400 -0.0552
  112OSM    H8F11598   3.217   2.890   6.141  0.9787  1.3842 -0.4300
  112OSM    H8G11599   3.237   3.034   6.242 -0.6982  1.9991 -1.6359
  112OSM    C9F11600   3.070   3.044   6.095 -0.5422 -0.0367 -0.1778
  112OSM    H9F11601   3.075   3.153   6.104 -1.6777 -0.0886  1.5146
  112OSM   C10F11602   3.010   2.989   5.989  0.5213 -1.5818  0.0334
  112OSM   H10F11603   2.933   3.045   5.933 -1.0783 -3.2285  0.4755
  112OSM   C11F11604   3.002   2.843   5.967  0.1730  0.4010 -0.3172
  112OSM   H11F11605   2.898   2.807   5.984  1.3297 -1.6608  4.1873
  112OSM   H11G11606   3.056   2.784   6.045 -0.6881 -0.5215 -0.3921
  112OSM   C12F11607   3.047   2.794   5.829  0.9425 -0.1683  0.3013
  112OSM   H12F11608   2.998   2.843   5.742  0.0020 -0.0614  0.8726
  112OSM   H12G11609   3.019   2.687   5.822 -0.6327  0.2481 -0.2743
  112OSM   C13F11610   3.201   2.809   5.819  0.2835 -0.5479 -0.1971
  112OSM   H13F11611   3.244   2.759   5.908 -0.7396  1.4281  1.5136
  112OSM   H13G11612   3.234   2.915   5.814 -2.1582  0.2387 -1.3444
  112OSM   C14F11613   3.269   2.730   5.702  0.1841  0.0413 -0.4156
  112OSM   H14F11614   3.226   2.627   5.704 -0.6690  0.3942 -0.0339
  112OSM   H14G11615   3.373   2.695   5.719 -0.4404 -2.8950 -1.8065
  112OSM   C15F11616   3.263   2.794   5.559 -0.4323 -0.6520 -1.4506
  112OSM   H15F11617   3.354   2.751   5.511 -0.7146  0.2045 -2.8191
  112OSM   H15G11618   3.281   2.903   5.574 -1.9986 -0.6232  0.7065
  112OSM   C16F11619   3.136   2.772   5.471  0.2502  0.4472 -0.2133
  112OSM   H16F11620   3.147   2.791   5.363  0.3670 -1.4115 -0.5699
  112OSM   H16G11621   3.050   2.834   5.504  1.1059  1.9457 -0.6994
  112OSM   C17F11622   3.087   2.628   5.462  0.0091  0.5206 -0.3166
  112OSM   H17F11623   3.071   2.584   5.563  1.2885  0.6698 -0.0405
  112OSM   H17G11624   3.164   2.561   5.419 -1.0814 -0.5766 -0.6399
  112OSM   C18F11625   2.956   2.610   5.382 -0.2425 -0.1544  0.0227
  112OSM   H18F11626   2.870   2.660   5.431  0.7623  0.8613  0.8004
  112OSM   H18G11627   2.932   2.503   5.367 -0.2598 -0.2359  0.6097
  112OSM   H18H11628   2.972   2.643   5.278  1.1675  0.0287  0.2769
  113OSM      N11629   5.285   2.993   8.064  0.2319  0.4176 -0.1574
  113OSM    C1511630   5.363   2.885   7.997  0.2846 -0.5655  0.0916
  113OSM   H15A11631   5.469   2.894   8.016  0.1628  3.0898 -0.1077
  113OSM   H15B11632   5.342   2.890   7.891 -0.1369 -0.3892  0.1777
  113OSM   H15C11633   5.332   2.788   8.031  0.6909 -0.0087  2.1399
  113OSM    C1411634   5.146   3.020   8.006  0.3735  0.0141  0.0917
  113OSM   H14A11635   5.141   3.066   7.908 -2.0721  1.1579  0.6907
  113OSM   H14B11636   5.095   3.074   8.084 -0.5780  2.2500 -1.9444
  113OSM   H14C11637   5.089   2.929   8.003 -1.8283  1.3243 -0.0798
  113OSM    C1311638   5.276   2.956   8.207  0.0902 -0.1440 -0.6744
  113OSM   H13A11639   5.218   3.029   8.262 -0.5513 -2.2572  1.6101
  113OSM   H13B11640   5.369   2.962   8.261  1.0064 -1.0967 -2.0828
  113OSM   H13C11641   5.236   2.858   8.228 -1.1142  0.7685  1.5819
  113OSM    C1211642   5.364   3.128   8.045 -0.0662 -1.2768  0.0056
  113OSM   H12A11643   5.450   3.124   8.111 -0.3525 -1.0280  0.4012
  113OSM   H12B11644   5.312   3.216   8.079  0.3251  0.2551 -3.0073
  113OSM    C1111645   5.406   3.164   7.897  0.0412  0.7157  0.3902
  113OSM   H11A11646   5.437   3.271   7.897  0.4289  0.6080 -0.3498
  113OSM   H11B11647   5.319   3.163   7.829  1.1668 -0.2660 -1.1012
  113OSM      P11648   5.519   3.027   7.721  0.1766  0.2090 -0.0568
  113OSM    O1311649   5.663   3.023   7.675 -0.2883  0.0877 -0.2865
  113OSM    O1411650   5.437   2.905   7.709  0.1534  0.0305  0.3153
  113OSM    O1111651   5.438   3.140   7.639 -0.0222 -0.4730  0.3950
  113OSM    O1211652   5.515   3.082   7.861 -0.4383 -0.6152 -0.3488
  113OSM    C1S11653   5.491   3.193   7.511 -0.5503 -0.4521 -0.1645
  113OSM    H1S11654   5.600   3.212   7.517 -0.8566  1.4051 -0.0017
  113OSM    H1T11655   5.439   3.291   7.503  1.8623  1.1917  2.2865
  113OSM     NF11656   5.532   3.164   7.270  0.9681 -1.1129 -0.0315
  113OSM    HNF11657   5.488   3.236   7.218  1.1194 -0.1536  1.1384
  113OSM    C2S11658   5.461   3.107   7.386 -0.7568 -0.5283  0.7652
  113OSM    H2S11659   5.508   3.008   7.402  0.4573 -0.1854 -0.4921
  113OSM    C3S11660   5.310   3.082   7.376 -0.2622 -0.4900 -0.1880
  113OSM    H3S11661   5.251   3.175   7.387 -0.5606 -0.6418 -0.4972
  113OSM     O311662   5.254   2.980   7.464 -0.7429  0.1855  0.0473
  113OSM    HO311663   5.331   2.948   7.512 -0.1443  0.6267 -0.5999
  113OSM    C4S11664   5.255   3.031   7.241  0.0460  0.2279  0.0889
  113OSM    H4S11665   5.283   2.929   7.214 -2.5940  0.0504 -2.4282
  113OSM    C5S11666   5.178   3.103   7.150 -0.8850 -0.1554 -0.7376
  113OSM    H5S11667   5.144   3.207   7.163  1.0587  0.3433  0.7398
  113OSM    C6S11668   5.127   3.046   7.025  0.0203  0.1357 -0.5334
  113OSM    H6S11669   5.024   3.016   7.053  0.2387  0.8481  1.1307
  113OSM    H6T11670   5.179   2.951   7.001 -0.1677  0.0590 -0.6403
  113OSM    C7S11671   5.137   3.138   6.904  0.1065 -0.1162 -0.5315
  113OSM    H7S11672   5.093   3.236   6.933 -1.4378 -0.8314 -0.3462
  113OSM    H7T11673   5.077   3.103   6.818 -0.3101  1.7604 -1.0588
  113OSM    C8S11674   5.283   3.160   6.867 -0.8660 -0.1706  0.1274
  113OSM    H8S11675   5.320   3.064   6.825  3.7696  1.5522 -0.2905
  113OSM    H8T11676   5.354   3.184   6.949  0.7575  0.1477 -1.3164
  113OSM    C9S11677   5.305   3.263   6.757  0.1675  0.7769 -0.1149
  113OSM    H9S11678   5.412   3.265   6.728  0.2274  0.4949  0.0757
  113OSM    H9T11679   5.287   3.366   6.795 -1.4350  0.8377 -0.9674
  113OSM   C10S11680   5.224   3.224   6.630  0.3656 -0.6327 -0.4944
  113OSM   H10S11681   5.228   3.316   6.568 -0.8916 -1.0075 -1.1572
  113OSM   H10T11682   5.117   3.203   6.651  0.0170 -0.1601 -1.6920
  113OSM   C11S11683   5.273   3.119   6.550  0.3179 -0.4178 -0.5058
  113OSM   H11S11684   5.285   3.022   6.604  0.0588  0.1759  0.6598
  113OSM   H11T11685   5.375   3.154   6.524  0.3418 -1.4376 -1.9055
  113OSM   C12S11686   5.190   3.096   6.418  0.1424  0.3024 -0.7416
  113OSM   H12S11687   5.180   3.190   6.359 -2.1741  1.2917  1.0531
  113OSM   H12T11688   5.089   3.055   6.440 -0.4923  0.8133 -2.5417
  113OSM   C13S11689   5.262   2.991   6.331  0.3464  0.1368  0.4983
  113OSM   H13S11690   5.311   2.916   6.397 -0.6203 -0.7009  0.2824
  113OSM   H13T11691   5.350   3.033   6.277  0.2060  1.8964  1.5733
  113OSM   C14S11692   5.167   2.908   6.232 -0.0622 -0.0722 -0.3946
  113OSM   H14S11693   5.132   2.980   6.155 -1.1574 -1.1450 -0.9288
  113OSM   H14T11694   5.080   2.865   6.286  0.5062 -1.9703 -0.9061
  113OSM   C15S11695   5.226   2.794   6.148 -0.3927 -0.3112  0.4239
  113OSM   H15S11696   5.246   2.707   6.213  1.6103  0.7185  1.2986
  113OSM   H15T11697   5.327   2.824   6.111  0.0539 -1.9819  0.2241
  113OSM   C16S11698   5.141   2.753   6.028  0.1718 -0.4699 -0.2574
  113OSM   H16S11699   5.133   2.842   5.963 -0.8300  0.8131  1.5135
  113OSM   H16T11700   5.044   2.713   6.065  0.5982 -0.3623  1.0441
  113OSM   C17S11701   5.209   2.639   5.949 -0.3438  0.5026  0.1771
  113OSM   H17S11702   5.125   2.576   5.911  1.2273 -1.1606 -0.6993
  113OSM   H17T11703   5.258   2.568   6.019 -0.2329 -0.0445 -0.4396
  113OSM   C18S11704   5.300   2.695   5.831 -0.3829  0.0039  0.3291
  113OSM   H18S11705   5.236   2.746   5.755  3.2542 -0.6605 -3.5518
  113OSM   H18T11706   5.354   2.610   5.784 -0.4385 -2.4336  4.2692
  113OSM   H18U11707   5.372   2.763   5.881 -0.3807 -0.9520  1.6711
  113OSM    C1F11708   5.660   3.145   7.258 -0.3430 -0.3654 -0.4575
  113OSM     OF11709   5.716   3.071   7.336  0.4758  0.6744 -0.3543
  113OSM    C2F11710   5.733   3.213   7.151  0.4639 -0.4902 -0.2828
  113OSM    H2F11711   5.820   3.259   7.202  0.2252 -0.2914 -0.0557
  113OSM    H2G11712   5.676   3.292   7.098  1.7852  0.4611 -0.3379
  113OSM    C3F11713   5.796   3.111   7.064  0.1698  0.6907  0.5580
  113OSM    H3F11714   5.856   3.052   7.137 -2.1122 -0.1666  1.8405
  113OSM    H3G11715   5.856   3.153   6.980  0.5230 -1.3099 -0.2565
  113OSM    C4F11716   5.712   3.007   6.990 -0.0411  0.0560  0.2511
  113OSM    H4F11717   5.642   2.951   7.057 -1.5852  0.3092 -1.0784
  113OSM    H4G11718   5.781   2.933   6.945 -0.2220 -2.5153  3.7598
  113OSM    C5F11719   5.612   3.068   6.893 -0.2659 -0.4477 -0.8797
  113OSM    H5F11720   5.588   3.171   6.929  0.0025  0.0948 -2.1869
  113OSM    H5G11721   5.515   3.014   6.892  0.2979 -1.4869 -2.5799
  113OSM    C6F11722   5.669   3.096   6.754  0.4008  0.1387 -0.1279
  113OSM    H6F11723   5.776   3.127   6.752  0.4702 -0.1300 -0.6634
  113OSM    H6G11724   5.609   3.179   6.711  1.7535  0.0551 -2.3488
  113OSM    C7F11725   5.645   2.987   6.651 -0.2287  0.1653 -0.0454
  113OSM    H7F11726   5.537   2.965   6.645  0.0417 -1.1331 -0.3261
  113OSM    H7G11727   5.695   2.896   6.691  0.7336  0.6319 -0.1506
  113OSM    C8F11728   5.699   3.011   6.509  0.3233  0.1145  0.6038
  113OSM    H8F11729   5.701   2.916   6.451 -0.8829  0.3163  0.2155
  113OSM    H8G11730   5.806   3.044   6.509 -0.1348  1.6781  0.3096
  113OSM    C9F11731   5.621   3.118   6.431 -0.1610 -0.2066 -0.3033
  113OSM    H9F11732   5.606   3.216   6.479  0.7728 -0.1564 -0.0851
  113OSM   C10F11733   5.596   3.109   6.299 -0.0757  1.0806 -0.6375
  113OSM   H10F11734   5.536   3.188   6.251 -0.3877  1.6545  0.6610
  113OSM   C11F11735   5.612   2.989   6.204  0.2708 -0.1209 -0.5959
  113OSM   H11F11736   5.516   2.934   6.194  0.9221 -2.0316  2.1807
  113OSM   H11G11737   5.690   2.924   6.249 -0.0962  0.6236  1.1988
  113OSM   C12F11738   5.656   3.050   6.065 -0.0536  0.0600 -0.4880
  113OSM   H12F11739   5.761   3.083   6.075 -0.3682  0.7149  1.0776
  113OSM   H12G11740   5.593   3.140   6.046 -1.6999 -0.6732  1.1000
  113OSM   C13F11741   5.649   2.955   5.945 -0.0131  0.3929 -0.9927
  113OSM   H13F11742   5.548   2.910   5.939 -0.2375  0.7351  0.0680
  113OSM   H13G11743   5.719   2.870   5.960 -1.0618 -0.1934  1.0019
  113OSM   C14F11744   5.674   3.028   5.818  0.6789 -0.9070  0.3020
  113OSM   H14F11745   5.773   3.078   5.820  1.6112 -2.5919  3.2417
  113OSM   H14G11746   5.604   3.114   5.822  1.4810 -0.2690  1.2798
  113OSM   C15F11747   5.681   2.930   5.696  0.2000  0.1217 -0.6504
  113OSM   H15F11748   5.580   2.894   5.667  0.7561 -0.3940 -2.0570
  113OSM   H15G11749   5.735   2.844   5.741 -2.9120 -1.6521 -0.0714
  113OSM   C16F11750   5.772   2.974   5.583 -0.1458  0.2161 -0.0214
  113OSM   H16F11751   5.788   2.885   5.520 -0.5906  0.5971 -0.6921
  113OSM   H16G11752   5.871   3.021   5.599 -0.2638  0.9196 -1.2665
  113OSM   C17F11753   5.700   3.089   5.500  0.1242  0.4043  0.0081
  113OSM   H17F11754   5.720   3.176   5.566 -1.1238  0.4719  0.3163
  113OSM   H17G11755   5.592   3.063   5.498  0.0008  0.8698  0.3430
  113OSM   C18F11756   5.763   3.108   5.359  0.1321  0.8815  0.0112
  113OSM   H18F11757   5.734   3.209   5.325 -3.0968 -0.1350 -0.5639
  113OSM   H18G11758   5.732   3.028   5.287  1.6185  0.3100 -0.0365
  113OSM   H18H11759   5.872   3.119   5.378 -0.2398  4.8661  0.5848
  114OSM      N11760   0.689   6.191   7.613  0.8226 -0.3240 -0.2563
  114OSM    C1511761   0.790   6.109   7.689  0.3754 -0.0453 -0.4991
  114OSM   H15A11762   0.877   6.099   7.625  1.5488 -0.4482  1.1013
  114OSM   H15B11763   0.753   6.016   7.730  0.4333  0.1243 -0.0570
  114OSM   H15C11764   0.820   6.172   7.771  2.0051  2.1650 -2.6486
  114OSM    C1411765   0.751   6.327   7.581 -0.1333 -0.3697 -0.1427
  114OSM   H14A11766   0.743   6.398   7.662  1.4555  0.0572 -0.3353
  114OSM   H14B11767   0.687   6.383   7.514  2.4431 -0.8685 -3.2777
  114OSM   H14C11768   0.843   6.328   7.526  0.1320 -0.8340  0.2926
  114OSM    C1311769   0.660   6.119   7.487  0.5745  0.1510  0.4249
  114OSM   H13A11770   0.751   6.119   7.429 -0.4244  1.0598 -1.2034
  114OSM   H13B11771   0.580   6.164   7.431 -1.4320 -0.7669  2.3865
  114OSM   H13C11772   0.647   6.014   7.511  0.0987  0.9021  3.9159
  114OSM    C1211773   0.564   6.207   7.687  0.0601 -0.1320 -0.8321
  114OSM   H12A11774   0.568   6.267   7.777 -1.9049 -0.3778 -0.5400
  114OSM   H12B11775   0.520   6.118   7.729  0.2769  1.5751  3.5232
  114OSM    C1111776   0.447   6.271   7.604 -0.3342  0.1415 -0.0002
  114OSM   H11A11777   0.495   6.342   7.533  1.1701 -0.9271 -0.1107
  114OSM   H11B11778   0.381   6.323   7.676 -0.4513 -1.6291  1.2217
  114OSM      P11779   0.239   6.217   7.456 -0.4737  0.0233  0.1041
  114OSM    O1311780   0.165   6.100   7.425 -0.0398 -0.4491 -0.4886
  114OSM    O1411781   0.169   6.314   7.539 -0.1391  0.0905  0.3440
  114OSM    O1111782   0.288   6.295   7.328  0.4348 -0.3870 -0.0207
  114OSM    O1211783   0.376   6.178   7.531  0.0637 -0.3825 -0.0050
  114OSM    C1S11784   0.381   6.254   7.232 -0.2331  0.5347  0.0739
  114OSM    H1S11785   0.405   6.146   7.245  0.9846  0.5677 -1.5625
  114OSM    H1T11786   0.474   6.313   7.246  0.0066 -0.0772  1.2418
  114OSM     NF11787   0.392   6.203   7.001  0.1951  0.2746 -0.1253
  114OSM    HNF11788   0.474   6.239   6.958 -0.3571  2.9993  0.9294
  114OSM    C2S11789   0.321   6.278   7.093 -0.1273 -0.7115  0.5579
  114OSM    H2S11790   0.212   6.257   7.094 -0.9893  3.1678  0.9117
  114OSM    C3S11791   0.314   6.432   7.059  0.7374  0.3890 -0.6218
  114OSM    H3S11792   0.418   6.463   7.035  0.5893  0.6835 -0.9025
  114OSM     O311793   0.266   6.514   7.161  0.0650 -0.2858 -0.4445
  114OSM    HO311794   0.262   6.460   7.239 -1.4183 -0.3484 -0.5271
  114OSM    C4S11795   0.226   6.461   6.942  0.6232 -0.5092 -0.0929
  114OSM    H4S11796   0.117   6.449   6.956  0.0700 -1.0839 -3.6755
  114OSM    C5S11797   0.274   6.514   6.825  0.3009 -0.3151  0.1751
  114OSM    H5S11798   0.380   6.532   6.805 -0.6280  2.3662 -3.2621
  114OSM    C6S11799   0.186   6.549   6.709  0.0045 -1.2040 -0.4139
  114OSM    H6S11800   0.078   6.545   6.738 -0.1959 -2.9880 -1.2562
  114OSM    H6T11801   0.202   6.482   6.621  0.1072 -1.0147 -0.5385
  114OSM    C7S11802   0.209   6.688   6.640  0.3967  0.0228  0.0813
  114OSM    H7S11803   0.308   6.690   6.589  0.6130 -0.1231  0.4962
  114OSM    H7T11804   0.207   6.765   6.720  1.9273  0.1673 -0.0006
  114OSM    C8S11805   0.106   6.723   6.531  0.5745  0.5932 -0.0054
  114OSM    H8S11806   0.098   6.834   6.532 -1.4447  0.5151 -1.1785
  114OSM    H8T11807   0.014   6.674   6.569 -0.7889  2.4896 -0.7406
  114OSM    C9S11808   0.144   6.677   6.387  0.3073 -0.9645 -0.3376
  114OSM    H9S11809   0.160   6.567   6.389 -0.3744 -1.0756 -0.5363
  114OSM    H9T11810   0.247   6.710   6.360  0.7735 -2.9282 -1.0983
  114OSM   C10S11811   0.051   6.727   6.275 -0.4120  0.1629 -0.3971
  114OSM   H10S11812   0.049   6.838   6.273 -2.1116  0.1798  0.4506
  114OSM   H10T11813  -0.051   6.691   6.301 -1.0834  1.4045 -1.2087
  114OSM   C11S11814   0.118   6.692   6.143 -0.3498 -0.0045  0.4507
  114OSM   H11S11815   0.111   6.581   6.134  1.9713 -0.0998 -0.8703
  114OSM   H11T11816   0.223   6.725   6.152 -0.8051  1.2614  1.4537
  114OSM   C12S11817   0.053   6.738   6.017  0.7362 -0.3061 -0.7727
  114OSM   H12S11818   0.073   6.840   5.980 -2.5344 -0.0917 -2.3227
  114OSM   H12T11819  -0.057   6.733   6.029  0.6854  0.7919 -0.7287
  114OSM   C13S11820   0.089   6.644   5.898 -0.4278  0.3748  0.4109
  114OSM   H13S11821   0.056   6.540   5.915 -1.1490  0.2456 -1.5677
  114OSM   H13T11822   0.199   6.651   5.879 -0.5720  2.2899  0.0054
  114OSM   C14S11823   0.039   6.706   5.768 -0.1765  0.1558  0.3717
  114OSM   H14S11824   0.072   6.809   5.745 -0.9970 -0.2683 -3.3734
  114OSM   H14T11825  -0.072   6.704   5.766 -0.2052  1.0582 -1.6698
  114OSM   C15S11826   0.080   6.620   5.641  0.0784 -0.0761 -0.0843
  114OSM   H15S11827   0.032   6.520   5.640 -0.3787  0.1273 -1.6679
  114OSM   H15T11828   0.189   6.598   5.650 -0.3138 -1.4380  1.9081
  114OSM   C16S11829   0.037   6.690   5.507 -0.4771 -0.0177 -0.0698
  114OSM   H16S11830   0.086   6.789   5.515  3.6286 -1.8977  0.7285
  114OSM   H16T11831  -0.073   6.698   5.513 -0.7229 -0.8867 -2.3276
  114OSM   C17S11832   0.093   6.604   5.386 -0.0864 -0.3178 -0.1869
  114OSM   H17S11833   0.204   6.593   5.389 -0.1070 -0.9193 -1.2487
  114OSM   H17T11834   0.058   6.668   5.303  0.2414  0.2752  0.1309
  114OSM   C18S11835   0.027   6.468   5.373 -0.7012 -0.6721 -0.6283
  114OSM   H18S11836   0.072   6.392   5.440  0.8094  0.1163 -0.7210
  114OSM   H18T11837   0.045   6.429   5.271 -2.9330 -0.1405 -1.2977
  114OSM   H18U11838  -0.083   6.470   5.388 -0.3306 -2.5678  4.0530
  114OSM    C1F11839   0.371   6.071   6.976  0.0890 -0.6213 -0.3533
  114OSM     OF11840   0.287   5.999   7.032  0.3683  0.2330  0.1387
  114OSM    C2F11841   0.465   6.014   6.875  0.6698 -0.0320 -0.2764
  114OSM    H2F11842   0.456   5.903   6.884 -1.9137 -0.0319 -1.9576
  114OSM    H2G11843   0.566   6.047   6.909 -0.2467  1.0775  1.4929
  114OSM    C3F11844   0.438   6.043   6.728 -0.1657  0.6313 -0.3640
  114OSM    H3F11845   0.334   6.017   6.702  0.3592 -1.9579 -0.1035
  114OSM    H3G11846   0.495   5.974   6.662 -0.9933  2.0781 -2.7322
  114OSM    C4F11847   0.467   6.189   6.697 -0.0055  0.2320  0.3177
  114OSM    H4F11848   0.571   6.223   6.715 -0.3214  1.2376  0.3284
  114OSM    H4G11849   0.400   6.256   6.754 -2.3723 -0.5922 -1.3131
  114OSM    C5F11850   0.441   6.223   6.547  0.3442  0.3276 -0.7692
  114OSM    H5F11851   0.331   6.228   6.535  0.0387  2.4368  1.8956
  114OSM    H5G11852   0.489   6.140   6.490  0.3584 -0.4532  0.3498
  114OSM    C6F11853   0.491   6.359   6.487  0.1984 -0.4922 -0.5068
  114OSM    H6F11854   0.601   6.358   6.472  0.4193  1.0868  0.7653
  114OSM    H6G11855   0.472   6.445   6.555 -0.5986  0.1646 -1.5341
  114OSM    C7F11856   0.410   6.375   6.357  0.0876 -0.2513 -0.4077
  114OSM    H7F11857   0.302   6.392   6.376 -0.3940 -2.4916 -0.8441
  114OSM    H7G11858   0.408   6.277   6.304 -0.7233 -0.2690 -0.3530
  114OSM    C8F11859   0.466   6.485   6.264 -0.0110 -0.0822  0.7614
  114OSM    H8F11860   0.447   6.584   6.310  2.0620 -0.4852  2.6679
  114OSM    H8G11861   0.401   6.469   6.175  1.4183  0.5625 -0.4385
  114OSM    C9F11862   0.610   6.478   6.218  0.6303 -0.3172  0.3033
  114OSM    H9F11863   0.673   6.536   6.288 -0.0745  0.4207  0.3408
  114OSM   C10F11864   0.667   6.429   6.106 -0.1766  0.6135  0.4201
  114OSM   H10F11865   0.776   6.418   6.105 -0.3647 -1.7127  0.6135
  114OSM   C11F11866   0.602   6.380   5.979  0.2151  0.1559 -0.0063
  114OSM   H11F11867   0.496   6.411   5.964  0.3512 -0.5983 -3.0391
  114OSM   H11G11868   0.591   6.270   5.984  1.7448 -0.0289 -0.3697
  114OSM   C12F11869   0.680   6.407   5.853  0.4668 -0.1981 -0.1568
  114OSM   H12F11870   0.780   6.360   5.869  0.2456 -1.0753 -1.2083
  114OSM   H12G11871   0.706   6.512   5.829  1.3472 -0.3754 -0.0352
  114OSM   C13F11872   0.603   6.348   5.739 -0.0230  0.2798  0.2293
  114OSM   H13F11873   0.508   6.404   5.729 -1.6107 -2.5957 -2.2500
  114OSM   H13G11874   0.562   6.245   5.745 -1.6143  0.7280 -1.8564
  114OSM   C14F11875   0.687   6.358   5.606  0.1689  0.0108  0.8939
  114OSM   H14F11876   0.766   6.280   5.602  0.1235 -0.0005  0.2434
  114OSM   H14G11877   0.739   6.455   5.601  1.6322 -0.7916 -0.1538
  114OSM   C15F11878   0.603   6.336   5.478  0.3052 -0.3899  0.3751
  114OSM   H15F11879   0.535   6.421   5.457  2.4043  0.8752 -1.7414
  114OSM   H15G11880   0.546   6.243   5.502 -0.3847  0.1467  0.8747
  114OSM   C16F11881   0.687   6.314   5.355 -0.3846 -0.4815 -0.7456
  114OSM   H16F11882   0.775   6.249   5.372 -0.5604 -1.1240 -2.1651
  114OSM   H16G11883   0.736   6.407   5.320  1.4761 -0.8602  0.6911
  114OSM   C17F11884   0.618   6.249   5.240 -0.2566  0.3876  0.2170
  114OSM   H17F11885   0.590   6.147   5.274 -1.4950  1.1990  1.7534
  114OSM   H17G11886   0.696   6.246   5.161 -1.7011 -1.8846 -1.2207
  114OSM   C18F11887   0.503   6.322   5.175  0.2215  0.4027  0.2397
  114OSM   H18F11888   0.522   6.431   5.164  1.3040  0.6102  3.2708
  114OSM   H18G11889   0.415   6.318   5.243 -1.3020 -1.2796 -1.6846
  114OSM   H18H11890   0.479   6.268   5.080  2.5415 -0.9426  0.3576
  115OSM      N11891   4.746   3.246   7.313  0.1874 -0.0313  0.4826
  115OSM    C1511892   4.796   3.220   7.171 -0.3449 -0.9178 -0.3162
  115OSM   H15A11893   4.739   3.148   7.114 -0.5505  1.0219 -2.7575
  115OSM   H15B11894   4.901   3.196   7.166 -0.0225  0.4775 -0.9073
  115OSM   H15C11895   4.782   3.314   7.120 -1.2246  0.3715  2.1243
  115OSM    C1411896   4.611   3.302   7.304 -0.0579 -0.3735  0.2070
  115OSM   H14A11897   4.568   3.313   7.403  0.2266 -1.5039  0.4757
  115OSM   H14B11898   4.546   3.228   7.258 -0.8560 -1.6473  3.1187
  115OSM   H14C11899   4.605   3.396   7.251  0.4961  0.6527  1.8801
  115OSM    C1311900   4.729   3.121   7.385 -0.2945 -0.4360  0.5067
  115OSM   H13A11901   4.716   3.146   7.490 -3.5247  0.7848 -0.0824
  115OSM   H13B11902   4.807   3.047   7.379 -0.1328 -0.2247 -0.0053
  115OSM   H13C11903   4.641   3.072   7.347 -1.2995  2.1846 -0.7824
  115OSM    C1211904   4.837   3.348   7.376  0.7116 -0.0152  0.0474
  115OSM   H12A11905   4.787   3.368   7.470  1.6209  0.2089  0.4937
  115OSM   H12B11906   4.835   3.440   7.320  4.1504  1.0783  1.4135
  115OSM    C1111907   4.976   3.296   7.395  0.0114  0.7307 -0.1174
  115OSM   H11A11908   5.024   3.283   7.296  0.3681 -0.5586  0.2081
  115OSM   H11B11909   4.987   3.193   7.435 -1.0364  1.1165  1.2558
  115OSM      P11910   5.116   3.515   7.425  0.0811  0.2626  0.4136
  115OSM    O1311911   5.031   3.632   7.464  0.5492  0.1895 -0.1273
  115OSM    O1411912   5.254   3.528   7.477  0.2509  0.2357  0.0523
  115OSM    O1111913   5.138   3.498   7.266  0.1719 -0.1823 -0.6640
  115OSM    O1211914   5.048   3.388   7.481  0.0766 -0.1619 -0.3589
  115OSM    C1S11915   5.172   3.613   7.191  0.0961 -0.2093  0.2927
  115OSM    H1S11916   5.283   3.627   7.191  0.0404  0.2848 -0.3059
  115OSM    H1T11917   5.130   3.707   7.234 -1.2500 -0.3874 -0.5848
  115OSM     NF11918   5.180   3.702   6.960 -0.3559  0.2737  0.2885
  115OSM    HNF11919   5.115   3.758   6.909 -0.1106 -0.5214 -0.9355
  115OSM    C2S11920   5.122   3.601   7.046  0.4548 -0.1747  0.1332
  115OSM    H2S11921   5.156   3.507   6.997 -0.8510  0.0821 -1.3570
  115OSM    C3S11922   4.965   3.600   7.040 -0.2013  0.1487 -0.3823
  115OSM    H3S11923   4.932   3.693   7.091 -0.0092  1.1906 -2.1046
  115OSM     O311924   4.907   3.495   7.122 -0.4527 -0.4352  0.1725
  115OSM    HO311925   4.983   3.460   7.170 -2.0102 -1.6419  1.9177
  115OSM    C4S11926   4.909   3.592   6.901  0.2575 -0.1072  0.0137
  115OSM    H4S11927   4.844   3.677   6.876  0.3749  0.0467  0.2350
  115OSM    C5S11928   4.918   3.482   6.813  0.5312 -0.2161  0.1923
  115OSM    H5S11929   4.982   3.395   6.833 -0.1200 -0.4465  1.3429
  115OSM    C6S11930   4.846   3.494   6.679  0.1762  0.6668 -0.2176
  115OSM    H6S11931   4.819   3.597   6.646  0.8162  1.9522  2.9309
  115OSM    H6T11932   4.749   3.441   6.672  0.1428  0.9108 -2.1339
  115OSM    C7S11933   4.920   3.426   6.564 -0.3159  0.1970  0.0650
  115OSM    H7S11934   4.940   3.318   6.581  0.7843  0.5295  0.9931
  115OSM    H7T11935   5.023   3.463   6.540 -0.1919 -1.3515 -2.0387
  115OSM    C8S11936   4.835   3.444   6.430  0.6271 -0.2511 -0.7106
  115OSM    H8S11937   4.816   3.553   6.436 -0.8245 -0.5286  0.6667
  115OSM    H8T11938   4.735   3.396   6.442 -1.5050  3.5179 -1.7967
  115OSM    C9S11939   4.909   3.384   6.311  0.2213  0.5484  0.6973
  115OSM    H9S11940   4.928   3.276   6.327 -1.8363 -0.2411 -1.5491
  115OSM    H9T11941   5.008   3.432   6.301  1.6458 -2.2281  0.3818
  115OSM   C10S11942   4.818   3.389   6.190  0.6001 -0.3683 -0.2550
  115OSM   H10S11943   4.782   3.493   6.178 -1.2797 -0.6324  2.2180
  115OSM   H10T11944   4.729   3.322   6.190  0.5210 -0.2630 -0.1700
  115OSM   C11S11945   4.893   3.348   6.065 -0.1589  0.1791  0.1028
  115OSM   H11S11946   4.921   3.242   6.080 -0.7856  0.0667  0.4923
  115OSM   H11T11947   4.990   3.402   6.059  0.3831 -0.8832 -1.2215
  115OSM   C12S11948   4.807   3.353   5.931 -0.1458 -0.5094  0.7135
  115OSM   H12S11949   4.772   3.455   5.905  3.1873  0.6851  0.4848
  115OSM   H12T11950   4.719   3.286   5.947 -0.8182  0.2126  0.1043
  115OSM   C13S11951   4.887   3.300   5.808 -0.3493  0.0503 -0.3432
  115OSM   H13S11952   4.922   3.197   5.834  0.9094  0.8002  1.0845
  115OSM   H13T11953   4.971   3.361   5.769  0.8034 -0.7373  0.8337
  115OSM   C14S11954   4.799   3.296   5.684 -0.8345  0.5377  0.0199
  115OSM   H14S11955   4.760   3.394   5.648  0.4136  0.3581 -2.0223
  115OSM   H14T11956   4.708   3.236   5.705 -1.0986 -0.0804 -2.5103
  115OSM   C15S11957   4.864   3.221   5.561  0.0998  0.5124 -0.5742
  115OSM   H15S11958   4.919   3.132   5.599 -1.5303 -0.2977  0.0052
  115OSM   H15T11959   4.939   3.292   5.520  1.0285 -0.9881 -1.5629
  115OSM   C16S11960   4.767   3.168   5.464 -0.1407  0.5959 -0.5454
  115OSM   H16S11961   4.699   3.247   5.425  0.6147  1.6001  0.1038
  115OSM   H16T11962   4.698   3.102   5.522  0.7446  1.7236  1.9326
  115OSM   C17S11963   4.836   3.085   5.355 -0.6130 -0.0344  0.3057
  115OSM   H17S11964   4.771   3.001   5.320 -1.0843 -0.1452  1.4197
  115OSM   H17T11965   4.921   3.030   5.400 -1.0461  0.3812  1.6656
  115OSM   C18S11966   4.892   3.161   5.232  0.9829 -0.4251 -0.4299
  115OSM   H18S11967   4.948   3.093   5.165  2.6707 -1.1085  1.5483
  115OSM   H18T11968   4.959   3.242   5.270  0.0632 -0.9522  2.5963
  115OSM   H18U11969   4.817   3.211   5.167  2.6739  2.6200 -0.2283
  115OSM    C1F11970   5.312   3.706   6.922 -0.2793 -0.3020  0.1294
  115OSM     OF11971   5.398   3.631   6.966 -0.9737  0.2562 -0.3246
  115OSM    C2F11972   5.343   3.813   6.822  0.0854  0.4788  0.2552
  115OSM    H2F11973   5.388   3.906   6.862 -0.0218  0.4529  0.4407
  115OSM    H2G11974   5.245   3.842   6.781 -0.4718 -1.0465  0.4305
  115OSM    C3F11975   5.438   3.766   6.704 -0.3283  0.0484 -0.5851
  115OSM    H3F11976   5.536   3.732   6.745 -1.4892 -0.8723  1.6028
  115OSM    H3G11977   5.449   3.859   6.645 -1.8170  1.0258  0.6173
  115OSM    C4F11978   5.370   3.660   6.607 -0.4662 -0.7951 -0.2927
  115OSM    H4F11979   5.294   3.724   6.556 -1.0217 -0.8241  0.4883
  115OSM    H4G11980   5.320   3.582   6.668  2.9952  0.0812  4.1773
  115OSM    C5F11981   5.464   3.602   6.502 -0.0985  0.0974 -0.3299
  115OSM    H5F11982   5.540   3.533   6.546 -0.4564  1.0347  1.8713
  115OSM    H5G11983   5.521   3.688   6.461 -0.2853  0.0202 -0.7480
  115OSM    C6F11984   5.381   3.530   6.393  0.1695 -0.0160  0.3342
  115OSM    H6F11985   5.288   3.586   6.369 -0.8313 -2.0916 -1.0170
  115OSM    H6G11986   5.351   3.436   6.444 -1.5768  0.8918  1.0723
  115OSM    C7F11987   5.468   3.498   6.265  0.1092 -0.1661  0.0894
  115OSM    H7F11988   5.547   3.423   6.287  0.2061 -0.3420 -0.7981
  115OSM    H7G11989   5.520   3.595   6.251 -0.8853  0.7503  2.3606
  115OSM    C8F11990   5.384   3.476   6.140  0.0920 -0.3719  0.0037
  115OSM    H8F11991   5.455   3.436   6.065 -0.2229 -1.4742  0.2635
  115OSM    H8G11992   5.349   3.570   6.094 -1.5279 -0.6846  0.5138
  115OSM    C9F11993   5.282   3.370   6.163 -0.7022  0.0534 -0.4681
  115OSM    H9F11994   5.204   3.413   6.229 -2.1358 -0.0522 -2.0293
  115OSM   C10F11995   5.247   3.268   6.080 -0.3135  0.1603  0.8495
  115OSM   H10F11996   5.174   3.193   6.114  0.5888 -1.5637 -0.8124
  115OSM   C11F11997   5.323   3.208   5.961  0.1038 -0.1737  0.2346
  115OSM   H11F11998   5.349   3.101   5.975  0.5628 -0.0894  0.0621
  115OSM   H11G11999   5.424   3.255   5.951 -0.2514  0.8274  1.1407
  115OSM   C12F12000   5.242   3.214   5.826 -0.0686 -0.0345 -0.5544
  115OSM   H12F12001   5.214   3.320   5.806  1.4742  0.7954  1.3754
  115OSM   H12G12002   5.144   3.164   5.844  0.5076 -0.6134  1.1672
  115OSM   C13F12003   5.313   3.149   5.700  0.4072  0.2473  0.2352
  115OSM   H13F12004   5.342   3.046   5.729  1.0743  0.5622  0.7285
  115OSM   H13G12005   5.412   3.200   5.690  1.7433 -2.4601 -1.4067
  115OSM   C14F12006   5.231   3.169   5.574  0.5791  0.3741 -0.3532
  115OSM   H14F12007   5.183   3.269   5.575  2.8119  1.5027  1.4985
  115OSM   H14G12008   5.158   3.085   5.571  1.5646 -0.4878 -2.2802
  115OSM   C15F12009   5.313   3.132   5.441 -0.5616 -0.0569  0.0622
  115OSM   H15F12010   5.422   3.114   5.448 -0.1664  2.2097  0.3809
  115OSM   H15G12011   5.320   3.232   5.392  1.8398 -0.8510 -1.3585
  115OSM   C16F12012   5.259   3.019   5.358 -0.3506  0.5420 -0.4714
  115OSM   H16F12013   5.316   3.017   5.263  1.3676  1.3372  0.5078
  115OSM   H16G12014   5.151   3.033   5.332 -0.8352 -0.5355  0.8628
  115OSM   C17F12015   5.275   2.879   5.428 -0.3735  0.2214 -0.2293
  115OSM   H17F12016   5.287   2.889   5.538  2.2052 -0.5926 -0.3722
  115OSM   H17G12017   5.371   2.834   5.394  0.5053 -1.3101  3.6931
  115OSM   C18F12018   5.165   2.782   5.402  0.9022  0.3945  0.1891
  115OSM   H18F12019   5.134   2.787   5.295 -0.0187  1.1833  0.4794
  115OSM   H18G12020   5.078   2.827   5.455  1.2139  1.4157 -0.1473
  115OSM   H18H12021   5.183   2.680   5.443 -0.7455  0.0503  0.1188
  116OSM      N12022   0.198   2.642   8.008 -0.0959 -0.1040  0.3345
  116OSM    C1512023   0.319   2.724   8.043 -0.3611  0.5330  0.7588
  116OSM   H15A12024   0.312   2.821   7.996 -0.2606  0.5272  0.7336
  116OSM   H15B12025   0.397   2.671   7.991 -2.1198 -1.8496  0.3821
  116OSM   H15C12026   0.352   2.734   8.146  3.3824  2.6436 -0.4395
  116OSM    C1412027   0.213   2.510   8.078  0.1289  0.1543  0.0037
  116OSM   H14A12028   0.204   2.531   8.184 -2.0890 -0.2772 -0.0558
  116OSM   H14B12029   0.302   2.456   8.049  0.7949  0.2620  1.6891
  116OSM   H14C12030   0.133   2.441   8.055  0.1343  0.4798 -1.0121
  116OSM    C1312031   0.086   2.710   8.071  0.0573 -0.4174 -0.7023
  116OSM   H13A12032   0.106   2.736   8.174 -1.5155 -2.7017  0.2649
  116OSM   H13B12033  -0.004   2.650   8.077  0.0081 -0.1928  2.7694
  116OSM   H13C12034   0.066   2.804   8.021  2.1013  0.2378 -0.3549
  116OSM    C1212035   0.185   2.629   7.859 -1.0660  0.1989 -0.5660
  116OSM   H12A12036   0.090   2.579   7.843 -1.0856  0.1121 -0.1760
  116OSM   H12B12037   0.261   2.565   7.816 -1.5102  0.9498 -2.5528
  116OSM    C1112038   0.183   2.762   7.776 -0.1502  0.3549 -0.1235
  116OSM   H11A12039   0.187   2.740   7.667  0.1354  2.6566 -0.6359
  116OSM   H11B12040   0.273   2.827   7.781  0.2186 -0.1033 -0.6609
  116OSM      P12041  -0.060   2.841   7.718  0.5619  0.0003 -0.0536
  116OSM    O1312042  -0.065   2.715   7.639  0.4953 -0.0064 -0.3950
  116OSM    O1412043  -0.181   2.870   7.798  0.3102  0.1664  0.7802
  116OSM    O1112044  -0.034   2.966   7.619  0.5453  0.4823 -0.3511
  116OSM    O1212045   0.064   2.839   7.810  0.7282  0.1843 -1.5076
  116OSM    C1S12046   0.065   2.960   7.517 -0.0813  0.2006 -0.7017
  116OSM    H1S12047   0.158   2.915   7.558 -0.4153 -0.3211 -0.5050
  116OSM    H1T12048   0.091   3.068   7.508  1.0609  0.2902  2.2548
  116OSM     NF12049   0.142   2.908   7.304 -0.0736 -0.3377 -0.2387
  116OSM    HNF12050   0.123   2.951   7.217  2.0835 -0.2742 -0.7429
  116OSM    C2S12051   0.026   2.897   7.387  0.6459  0.2190  1.2489
  116OSM    H2S12052  -0.005   2.791   7.392 -1.7792  0.7784 -0.3764
  116OSM    C3S12053  -0.101   2.972   7.328 -0.0082  0.2689 -0.3180
  116OSM    H3S12054  -0.072   3.077   7.304 -2.6251  0.8595 -1.1812
  116OSM     O312055  -0.199   2.986   7.432 -0.8407  0.0558  0.3297
  116OSM    HO312056  -0.143   2.977   7.509 -0.6564  3.5012  0.7688
  116OSM    C4S12057  -0.147   2.905   7.198 -0.0984 -0.0700  0.4209
  116OSM    H4S12058  -0.125   2.962   7.107  0.1942 -1.7511 -0.5942
  116OSM    C5S12059  -0.234   2.803   7.190 -0.7626 -0.3971 -0.3094
  116OSM    H5S12060  -0.276   2.766   7.284 -0.2249  0.8394  0.4441
  116OSM    C6S12061  -0.289   2.732   7.070 -0.2137 -0.4553 -0.7404
  116OSM    H6S12062  -0.394   2.698   7.085 -0.4844  0.9314  0.7371
  116OSM    H6T12063  -0.237   2.636   7.052  1.0774 -0.2580  1.5329
  116OSM    C7S12064  -0.269   2.823   6.937  0.4903  0.3082 -0.3895
  116OSM    H7S12065  -0.163   2.846   6.912  0.9835  0.9492  2.0456
  116OSM    H7T12066  -0.317   2.922   6.949 -0.6414 -0.3240  0.5709
  116OSM    C8S12067  -0.334   2.777   6.806 -0.1626  0.0203 -0.8685
  116OSM    H8S12068  -0.429   2.731   6.841  1.2976 -2.1934  0.3960
  116OSM    H8T12069  -0.271   2.702   6.753 -0.0262  1.1006 -2.3034
  116OSM    C9S12070  -0.348   2.895   6.715 -0.4910  0.0417  0.5425
  116OSM    H9S12071  -0.250   2.943   6.693 -0.1819 -0.8237 -0.0041
  116OSM    H9T12072  -0.410   2.973   6.764 -0.5352  0.0931  0.4055
  116OSM   C10S12073  -0.423   2.851   6.581  0.1560 -0.1273  0.2239
  116OSM   H10S12074  -0.470   2.943   6.540  1.0659  1.4861  2.5651
  116OSM   H10T12075  -0.499   2.770   6.594  0.8819 -0.8480  0.1080
  116OSM   C11S12076  -0.317   2.801   6.477 -0.2172  0.4867 -0.1592
  116OSM   H11S12077  -0.276   2.704   6.511 -1.4740 -0.1518 -0.4098
  116OSM   H11T12078  -0.240   2.880   6.481  0.9631 -0.5299 -1.7325
  116OSM   C12S12079  -0.373   2.788   6.339 -0.1012  0.2673  0.6731
  116OSM   H12S12080  -0.437   2.874   6.307 -1.3535 -0.5193  0.9949
  116OSM   H12T12081  -0.436   2.697   6.328  0.1760  0.1198  0.2641
  116OSM   C13S12082  -0.263   2.774   6.229 -0.1670 -0.1599  0.2517
  116OSM   H13S12083  -0.200   2.688   6.263 -2.9037 -2.6860 -0.6412
  116OSM   H13T12084  -0.200   2.865   6.221  0.1479 -0.4008 -0.0562
  116OSM   C14S12085  -0.318   2.746   6.084  0.6475  0.5766 -0.6716
  116OSM   H14S12086  -0.384   2.832   6.058 -0.6993 -0.3908 -0.5639
  116OSM   H14T12087  -0.375   2.651   6.081 -1.1917  1.5539  0.7988
  116OSM   C15S12088  -0.207   2.734   5.977 -0.1263 -0.3940 -0.4665
  116OSM   H15S12089  -0.135   2.657   6.010  0.1309  0.3319  0.7827
  116OSM   H15T12090  -0.154   2.832   5.972  1.5472 -1.2623 -0.1823
  116OSM   C16S12091  -0.258   2.696   5.833 -0.5785 -0.1039 -1.1208
  116OSM   H16S12092  -0.317   2.786   5.804  1.0096  2.0076  1.6923
  116OSM   H16T12093  -0.308   2.597   5.834  0.2780 -0.5368 -0.5269
  116OSM   C17S12094  -0.150   2.676   5.723  0.2100  0.0875  0.2920
  116OSM   H17S12095  -0.105   2.575   5.731  2.2916  1.0092  0.8342
  116OSM   H17T12096  -0.083   2.763   5.738  0.8701 -0.1372 -1.1810
  116OSM   C18S12097  -0.198   2.682   5.578 -0.7569 -0.2727  0.1412
  116OSM   H18S12098  -0.290   2.626   5.550 -1.7307  0.1742  2.2200
  116OSM   H18T12099  -0.124   2.641   5.506 -3.0752  0.0695 -2.6327
  116OSM   H18U12100  -0.240   2.781   5.549 -2.6518 -0.1740  2.8303
  116OSM    C1F12101   0.247   2.828   7.328  0.0463  0.2727 -0.4804
  116OSM     OF12102   0.257   2.745   7.412 -0.4221 -0.9522 -0.1020
  116OSM    C2F12103   0.357   2.829   7.223 -0.3906 -0.1559  0.6270
  116OSM    H2F12104   0.461   2.829   7.261  1.0600  0.1148 -2.9518
  116OSM    H2G12105   0.347   2.925   7.169 -0.2839 -0.5228 -0.0516
  116OSM    C3F12106   0.345   2.705   7.134  0.2116 -0.1455  0.0989
  116OSM    H3F12107   0.379   2.613   7.186 -2.3508 -1.0264  0.3845
  116OSM    H3G12108   0.410   2.733   7.048 -0.3996 -0.5305 -0.5024
  116OSM    C4F12109   0.211   2.696   7.060 -0.2863 -0.7591 -0.7575
  116OSM    H4F12110   0.169   2.793   7.026 -0.9103 -1.4474 -2.0115
  116OSM    H4G12111   0.134   2.663   7.132 -0.0390  0.3066  0.0287
  116OSM    C5F12112   0.216   2.606   6.942  0.0712  0.4987 -0.7638
  116OSM    H5F12113   0.258   2.508   6.974  1.2156  0.9658 -0.8138
  116OSM    H5G12114   0.278   2.651   6.862  1.3631 -0.6554 -0.4504
  116OSM    C6F12115   0.078   2.572   6.879 -0.3678 -0.4066 -0.2619
  116OSM    H6F12116   0.085   2.526   6.778 -0.4295 -0.1808 -0.3705
  116OSM    H6G12117   0.023   2.669   6.869 -1.0653 -0.7475  0.1941
  116OSM    C7F12118  -0.019   2.481   6.967 -0.2708 -1.0927  0.1396
  116OSM    H7F12119  -0.071   2.545   7.042 -0.7310 -2.4815  1.0529
  116OSM    H7G12120   0.038   2.401   7.020 -1.3043 -0.2106  2.7170
  116OSM    C8F12121  -0.130   2.415   6.886 -0.1093 -0.9111  0.2252
  116OSM    H8F12122  -0.176   2.482   6.810  2.7942  2.5148  1.2276
  116OSM    H8G12123  -0.213   2.397   6.958  0.9354 -0.9513  1.4482
  116OSM    C9F12124  -0.073   2.292   6.824 -0.8100  0.4723  1.2287
  116OSM    H9F12125  -0.034   2.216   6.894  3.2745  0.3958 -0.8329
  116OSM   C10F12126  -0.066   2.259   6.690  0.0078  0.1117  0.6547
  116OSM   H10F12127  -0.022   2.164   6.656  0.0472  0.4460 -0.2561
  116OSM   C11F12128  -0.112   2.343   6.574  0.3455  0.3472  0.1599
  116OSM   H11F12129  -0.047   2.433   6.563 -1.6707  1.6854 -1.6576
  116OSM   H11G12130  -0.214   2.382   6.597  1.4269  1.9586  2.7505
  116OSM   C12F12131  -0.101   2.270   6.439  0.4151  0.5812  0.6562
  116OSM   H12F12132  -0.190   2.203   6.430  0.7736  0.2639 -0.9320
  116OSM   H12G12133  -0.004   2.217   6.435 -0.1958 -0.4984 -1.2783
  116OSM   C13F12134  -0.084   2.376   6.330  0.2867 -0.0615  0.0426
  116OSM   H13F12135   0.014   2.428   6.333  0.9439 -0.9688 -2.8539
  116OSM   H13G12136  -0.168   2.449   6.340 -0.3337 -0.5374 -1.4208
  116OSM   C14F12137  -0.101   2.317   6.189 -0.0860  1.1242 -0.3598
  116OSM   H14F12138  -0.152   2.388   6.121 -0.7906 -1.1603 -2.3482
  116OSM   H14G12139  -0.159   2.223   6.194  1.2062  0.3624  2.5312
  116OSM   C15F12140   0.035   2.291   6.129  0.2440 -0.4645  0.0055
  116OSM   H15F12141   0.091   2.212   6.183  0.7730  0.6040  1.0586
  116OSM   H15G12142   0.100   2.380   6.137 -0.1474 -0.2157  0.4924
  116OSM   C16F12143   0.023   2.264   5.982 -0.4097  0.0981  0.1104
  116OSM   H16F12144  -0.042   2.346   5.944  1.6955  2.0066  0.3851
  116OSM   H16G12145  -0.027   2.170   5.950  0.4797  0.0116 -1.1015
  116OSM   C17F12146   0.163   2.266   5.907  0.3267  0.3531 -0.9161
  116OSM   H17F12147   0.225   2.184   5.949  0.4378  1.3371  0.9823
  116OSM   H17G12148   0.212   2.364   5.924  3.2083 -1.1053 -0.2294
  116OSM   C18F12149   0.158   2.252   5.757  0.7878 -0.0823  1.0080
  116OSM   H18F12150   0.116   2.342   5.707  0.4457 -0.6058  0.3336
  116OSM   H18G12151   0.106   2.159   5.724  0.1798  0.7618 -0.4959
  116OSM   H18H12152   0.261   2.241   5.718  0.5764 -0.8914  0.6601
  117OSM      N12153   6.723   4.697   7.301  0.6711 -0.0867 -0.3625
  117OSM    C1512154   6.861   4.743   7.271 -0.1605  0.0049 -0.2256
  117OSM   H15A12155   6.933   4.662   7.264 -2.4669 -2.1111 -1.1318
  117OSM   H15B12156   6.900   4.824   7.331  2.7560 -2.8616  2.1363
  117OSM   H15C12157   6.863   4.779   7.170  2.6152 -2.1771 -1.0853
  117OSM    C1412158   6.684   4.608   7.188 -0.1477  0.2512 -0.0090
  117OSM   H14A12159   6.675   4.666   7.097  1.0363  1.9747  0.9138
  117OSM   H14B12160   6.587   4.565   7.208  0.1049  0.3145  1.4642
  117OSM   H14C12161   6.760   4.532   7.178  0.9707  1.5912 -2.8668
  117OSM    C1312162   6.725   4.609   7.428  0.1087 -0.5483  0.1684
  117OSM   H13A12163   6.646   4.535   7.432  0.2599 -0.7541 -0.5214
  117OSM   H13B12164   6.734   4.679   7.510 -0.9999 -1.1316  0.8118
  117OSM   H13C12165   6.811   4.546   7.437 -0.8434 -1.6750  1.9717
  117OSM    C1212166   6.632   4.813   7.323 -0.0975 -0.2796  0.5059
  117OSM   H12A12167   6.683   4.884   7.386  1.4390  0.4153 -1.4152
  117OSM   H12B12168   6.544   4.769   7.367  0.2301 -2.1673 -0.5794
  117OSM    C1112169   6.578   4.888   7.202 -0.0359  0.3824 -0.0275
  117OSM   H11A12170   6.665   4.900   7.133  1.7681 -2.5740  1.5074
  117OSM   H11B12171   6.542   4.990   7.228 -0.8660  0.4305 -1.2549
  117OSM      P12172   6.342   4.782   7.200 -0.2187  0.2548  0.4614
  117OSM    O1312173   6.285   4.659   7.133 -0.1220 -0.0705 -0.7697
  117OSM    O1412174   6.346   4.794   7.346  0.2968 -0.4411  0.1448
  117OSM    O1112175   6.257   4.910   7.148  0.5329  0.1992 -0.1329
  117OSM    O1212176   6.482   4.812   7.141  0.0218 -0.3321  0.2972
  117OSM    C1S12177   6.266   4.962   7.016  0.2691  0.1680  0.1226
  117OSM    H1S12178   6.308   4.888   6.945  1.1840 -0.1407  0.9707
  117OSM    H1T12179   6.341   5.044   7.014  0.5879 -0.1413 -0.6817
  117OSM     NF12180   6.141   5.039   6.816  0.3045 -0.2454  0.0148
  117OSM    HNF12181   6.114   5.131   6.789  1.6926 -0.0834 -0.8768
  117OSM    C2S12182   6.132   4.994   6.959  0.1714 -0.8655  0.0063
  117OSM    H2S12183   6.071   4.901   6.954  0.5087 -1.0202 -2.1159
  117OSM    C3S12184   6.058   5.098   7.055  0.3665 -0.1673  0.5069
  117OSM    H3S12185   6.112   5.193   7.035 -2.0275  0.8328 -1.6544
  117OSM     O312186   6.063   5.083   7.200  0.3939 -0.4157  0.1144
  117OSM    HO312187   6.151   5.049   7.214  1.0174  0.7261 -0.8127
  117OSM    C4S12188   5.913   5.112   7.013  0.1890  0.9842 -0.2928
  117OSM    H4S12189   5.861   5.019   6.985 -2.0742  1.3539  2.2553
  117OSM    C5S12190   5.837   5.220   7.004  1.2206  0.1802 -0.2756
  117OSM    H5S12191   5.875   5.320   7.029 -1.9660  1.6940 -0.9418
  117OSM    C6S12192   5.696   5.218   6.955  0.7066  0.6598  0.1530
  117OSM    H6S12193   5.661   5.320   6.930  0.4689  0.2850 -1.1419
  117OSM    H6T12194   5.620   5.179   7.026  0.4708 -0.2450 -0.5660
  117OSM    C7S12195   5.672   5.145   6.817  0.1595  0.5892 -0.2786
  117OSM    H7S12196   5.569   5.172   6.787 -0.3369 -0.9961 -0.0913
  117OSM    H7T12197   5.679   5.036   6.838 -0.7313  0.2709 -1.5248
  117OSM    C8S12198   5.766   5.197   6.704 -0.6932  0.7259  0.7955
  117OSM    H8S12199   5.862   5.148   6.728 -0.7048  0.6107  0.6082
  117OSM    H8T12200   5.792   5.303   6.723 -0.2645  0.4692  1.7483
  117OSM    C9S12201   5.715   5.177   6.559 -0.3960  0.2274 -0.2859
  117OSM    H9S12202   5.621   5.232   6.539 -0.5337  0.9840  2.0879
  117OSM    H9T12203   5.698   5.067   6.560 -0.9374  0.3042 -0.4290
  117OSM   C10S12204   5.825   5.196   6.460 -0.7638  0.0790 -0.4344
  117OSM   H10S12205   5.904   5.126   6.495  0.2546  1.4239  0.0481
  117OSM   H10T12206   5.860   5.302   6.466  0.3456 -0.2510 -0.8215
  117OSM   C11S12207   5.782   5.170   6.319 -0.1174 -1.0515  0.0905
  117OSM   H11S12208   5.700   5.240   6.293  1.6927  1.8342  1.6014
  117OSM   H11T12209   5.751   5.064   6.309  0.2689 -1.0518 -1.4143
  117OSM   C12S12210   5.909   5.189   6.228  0.6052 -0.5830  0.4724
  117OSM   H12S12211   5.983   5.108   6.243  0.0658 -1.4960 -1.4180
  117OSM   H12T12212   5.957   5.288   6.243 -0.4824 -0.1451  1.2706
  117OSM   C13S12213   5.867   5.184   6.080  0.2238  0.8950 -0.1283
  117OSM   H13S12214   5.802   5.265   6.043  0.2329  1.5832  1.3015
  117OSM   H13T12215   5.806   5.092   6.068  0.4591  0.5748  0.9422
  117OSM   C14S12216   5.990   5.168   5.983 -0.0232 -0.4480  1.3716
  117OSM   H14S12217   6.023   5.063   5.967  1.7594  0.5014 -2.4690
  117OSM   H14T12218   6.067   5.224   6.040 -1.8299  2.1681  1.3959
  117OSM   C15S12219   5.978   5.237   5.842  0.0858 -0.4953  0.2020
  117OSM   H15S12220   5.877   5.209   5.805  0.1089  0.9721 -1.0844
  117OSM   H15T12221   6.061   5.199   5.779  0.4649 -0.0492  0.4248
  117OSM   C16S12222   5.979   5.389   5.853 -0.3333  0.9613  0.5164
  117OSM   H16S12223   6.066   5.427   5.911 -0.6091  0.1206  1.5160
  117OSM   H16T12224   5.887   5.415   5.910  0.1538  1.0506  1.2795
  117OSM   C17S12225   5.967   5.467   5.725 -0.6954 -0.5728  0.3612
  117OSM   H17S12226   6.062   5.446   5.672 -0.4611 -2.1946  1.3336
  117OSM   H17T12227   5.969   5.574   5.756 -0.4200 -0.9169  1.5891
  117OSM   C18S12228   5.840   5.429   5.643 -0.4450  0.0308 -0.3782
  117OSM   H18S12229   5.757   5.458   5.712  0.3589  0.8598  0.2758
  117OSM   H18T12230   5.855   5.324   5.611  1.7066 -0.3761  1.6887
  117OSM   H18U12231   5.829   5.491   5.552  2.3978  2.1784  0.5858
  117OSM    C1F12232   6.164   4.960   6.712  0.3837  0.0446 -0.5905
  117OSM     OF12233   6.176   4.840   6.730 -0.0174 -0.1660  0.0542
  117OSM    C2F12234   6.200   5.018   6.583  0.1838 -0.0189  0.1304
  117OSM    H2F12235   6.279   5.095   6.597  0.5227 -0.6364  1.8407
  117OSM    H2G12236   6.111   5.073   6.543 -0.3538 -2.1759 -1.8909
  117OSM    C3F12237   6.237   4.906   6.475 -0.3650  0.0289  0.1151
  117OSM    H3F12238   6.142   4.848   6.483 -1.0126  1.1217  0.6035
  117OSM    H3G12239   6.324   4.846   6.508 -1.7563 -1.5793  1.0292
  117OSM    C4F12240   6.248   4.957   6.338  0.3376 -0.2886  0.4199
  117OSM    H4F12241   6.341   5.016   6.324 -0.8390  0.9509 -3.2487
  117OSM    H4G12242   6.174   5.034   6.305 -0.2209 -1.3540 -0.8822
  117OSM    C5F12243   6.255   4.850   6.228 -0.1517  0.1226  0.0450
  117OSM    H5F12244   6.158   4.795   6.226  0.1917 -0.5183  0.7083
  117OSM    H5G12245   6.339   4.780   6.247 -0.2550 -0.3410 -1.1304
  117OSM    C6F12246   6.289   4.929   6.100  0.1963  0.7601  0.0099
  117OSM    H6F12247   6.392   4.970   6.102  0.7743 -0.3521 -2.4181
  117OSM    H6G12248   6.222   5.017   6.097  0.5745  1.1974  2.3863
  117OSM    C7F12249   6.279   4.848   5.980  0.7184  0.1329  0.3717
  117OSM    H7F12250   6.173   4.815   5.975  1.3507 -2.2033  1.2069
  117OSM    H7G12251   6.336   4.754   5.993  0.4144  0.0431  1.1097
  117OSM    C8F12252   6.298   4.918   5.843  0.7774 -0.2472 -0.1852
  117OSM    H8F12253   6.402   4.956   5.837  0.5371  0.4325 -0.1242
  117OSM    H8G12254   6.228   5.001   5.820  0.6363 -0.5036 -0.7045
  117OSM    C9F12255   6.288   4.823   5.729 -0.3304  1.4418 -0.2121
  117OSM    H9F12256   6.375   4.756   5.739  0.6974  3.0241  2.7261
  117OSM   C10F12257   6.186   4.803   5.643  0.3453 -0.0522 -0.3729
  117OSM   H10F12258   6.204   4.727   5.566 -0.9008 -0.7743  0.0274
  117OSM   C11F12259   6.057   4.876   5.630  0.8401 -0.3100 -0.3358
  117OSM   H11F12260   6.052   4.964   5.697  0.3757 -1.7940  1.6694
  117OSM   H11G12261   5.958   4.829   5.650  0.8130 -0.8132 -1.5585
  117OSM   C12F12262   6.061   4.929   5.487 -0.6253  0.3561 -0.1683
  117OSM   H12F12263   6.014   4.852   5.422  0.0366  2.0140 -2.7121
  117OSM   H12G12264   6.161   4.947   5.444 -1.0492  1.5666 -0.6970
  117OSM   C13F12265   5.985   5.063   5.474 -0.1129 -0.5139  0.2103
  117OSM   H13F12266   6.015   5.138   5.551  0.9701 -2.1579  1.4575
  117OSM   H13G12267   5.875   5.055   5.478 -0.3365  1.2488 -1.0313
  117OSM   C14F12268   6.003   5.127   5.333  0.3295  0.3801  0.2517
  117OSM   H14F12269   6.006   5.054   5.250  1.0539  1.3921 -0.6302
  117OSM   H14G12270   6.100   5.178   5.317  1.3024 -1.3563  0.3334
  117OSM   C15F12271   5.888   5.224   5.295 -1.2364 -0.2540 -0.5812
  117OSM   H15F12272   5.905   5.311   5.362  0.4355 -1.4615  0.6726
  117OSM   H15G12273   5.785   5.187   5.312 -1.3843 -0.1503 -1.2430
  117OSM   C16F12274   5.894   5.270   5.151 -0.4302 -0.7080 -0.6526
  117OSM   H16F12275   5.810   5.339   5.131 -0.8010 -0.8312  0.4438
  117OSM   H16G12276   5.888   5.187   5.077  3.4733 -0.2159 -1.7568
  117OSM   C17F12277   6.022   5.352   5.125 -0.5334  0.1545 -0.2739
  117OSM   H17F12278   6.114   5.292   5.141  0.8903  2.2611 -0.1736
  117OSM   H17G12279   6.031   5.430   5.203 -0.3545 -0.2019  0.0654
  117OSM   C18F12280   6.033   5.412   4.984 -0.1171  0.1339 -0.6881
  117OSM   H18F12281   5.940   5.469   4.966 -2.1552 -2.9411 -0.6764
  117OSM   H18G12282   6.032   5.320   4.922  0.9458 -0.0020 -0.5223
  117OSM   H18H12283   6.131   5.464   4.978  1.3885 -1.9849  2.6307
  118OSM      N12284   4.212   3.946   7.208 -0.4702 -0.1904  0.2574
  118OSM    C1512285   4.247   4.076   7.149 -0.2099 -0.2156 -0.3459
  118OSM   H15A12286   4.304   4.125   7.226 -2.8905 -0.5687  2.0088
  118OSM   H15B12287   4.172   4.140   7.105  2.1538  2.1562 -1.1414
  118OSM   H15C12288   4.315   4.062   7.066  0.8459  0.8999  0.3068
  118OSM    C1412289   4.342   3.876   7.215 -0.6123  0.6295  0.6072
  118OSM   H14A12290   4.386   3.875   7.116  0.6589  0.0166  1.1518
  118OSM   H14B12291   4.311   3.776   7.240 -1.9568  0.3964 -1.7327
  118OSM   H14C12292   4.406   3.925   7.286 -2.3944  1.0062  2.0233
  118OSM    C1312293   4.144   3.958   7.338 -0.0666 -0.2265 -0.0257
  118OSM   H13A12294   4.213   4.007   7.405  1.3598  0.3921 -1.8605
  118OSM   H13B12295   4.134   3.859   7.379  0.5659 -1.5933 -2.9668
  118OSM   H13C12296   4.050   4.011   7.332  0.7374  1.4985  1.4881
  118OSM    C1212297   4.118   3.885   7.115 -0.5542 -0.3510  0.3731
  118OSM   H12A12298   4.160   3.894   7.016 -0.0436 -0.2682  0.5942
  118OSM   H12B12299   4.021   3.933   7.112 -0.1447  0.5966  1.3997
  118OSM    C1112300   4.078   3.741   7.133  0.4606  0.3816  0.4159
  118OSM   H11A12301   4.158   3.665   7.148 -1.8387 -2.3851 -0.2599
  118OSM   H11B12302   4.039   3.703   7.035  1.2564 -1.7538  0.8742
  118OSM      P12303   3.974   3.634   7.347 -0.3297  0.1663 -0.2584
  118OSM    O1312304   4.109   3.633   7.412 -0.8403 -0.8809 -0.3980
  118OSM    O1412305   3.862   3.674   7.433 -0.3374  0.2262  0.1702
  118OSM    O1112306   3.939   3.495   7.289 -0.4908 -0.1077  0.0807
  118OSM    O1212307   3.976   3.733   7.222 -0.4981  0.0135 -0.1066
  118OSM    C1S12308   3.811   3.464   7.237  0.2092  0.3285 -0.6675
  118OSM    H1S12309   3.722   3.503   7.290 -0.3016  1.9009 -2.5709
  118OSM    H1T12310   3.811   3.353   7.239 -0.7144  0.3270 -0.5171
  118OSM     NF12311   3.652   3.491   7.047 -0.4223  0.1374 -0.2368
  118OSM    HNF12312   3.622   3.408   7.001  2.9205 -1.3968 -0.0005
  118OSM    C2S12313   3.799   3.494   7.086  0.1683 -0.4223  0.0357
  118OSM    H2S12314   3.819   3.602   7.072 -0.6395 -0.0636  1.5029
  118OSM    C3S12315   3.895   3.394   7.011 -0.0100  0.5301  0.4755
  118OSM    H3S12316   3.852   3.294   7.033  1.2144 -0.6905 -2.2789
  118OSM     O312317   4.028   3.392   7.056 -0.4232  0.1262 -0.1940
  118OSM    HO312318   4.009   3.440   7.137  1.0416  0.0408  0.2399
  118OSM    C4S12319   3.885   3.431   6.862 -0.3302 -0.1105 -0.1363
  118OSM    H4S12320   3.780   3.439   6.831 -1.2938 -0.3163  2.7508
  118OSM    C5S12321   3.981   3.452   6.770  0.6131 -1.8005 -0.6936
  118OSM    H5S12322   4.085   3.436   6.802  1.2979  0.6616 -1.4378
  118OSM    C6S12323   3.958   3.478   6.625  0.6879  0.6853 -0.0374
  118OSM    H6S12324   4.015   3.566   6.590  2.3509 -0.1870  0.3408
  118OSM    H6T12325   3.857   3.522   6.616 -0.7135 -2.1543  0.4523
  118OSM    C7S12326   3.981   3.370   6.524  0.1256 -0.4948 -0.0805
  118OSM    H7S12327   4.056   3.303   6.570 -1.0284 -1.8502 -0.1223
  118OSM    H7T12328   4.020   3.415   6.430 -1.4069  2.0623  0.4062
  118OSM    C8S12329   3.858   3.284   6.509  0.9084  0.2325 -0.6140
  118OSM    H8S12330   3.774   3.344   6.467  1.2221  0.2451 -1.2328
  118OSM    H8T12331   3.823   3.255   6.611  0.9238  0.0568 -0.6586
  118OSM    C9S12332   3.876   3.161   6.422 -0.4283  0.1427 -0.3233
  118OSM    H9S12333   3.780   3.106   6.421 -0.2945 -0.5257  4.3636
  118OSM    H9T12334   3.957   3.093   6.459 -0.5516  1.3626  2.3676
  118OSM   C10S12335   3.875   3.203   6.273  0.2955  0.5293 -0.4488
  118OSM   H10S12336   3.924   3.303   6.275  1.3787  0.0313  2.1414
  118OSM   H10T12337   3.772   3.207   6.233  0.7284  0.3662 -1.6018
  118OSM   C11S12338   3.958   3.115   6.180  0.7752  0.4949 -0.5660
  118OSM   H11S12339   3.925   3.009   6.180 -0.5961  0.8535  1.7938
  118OSM   H11T12340   4.060   3.106   6.224  0.4592  0.1546  0.1016
  118OSM   C12S12341   3.963   3.173   6.038 -0.2339 -0.0727 -0.6996
  118OSM   H12S12342   3.992   3.279   6.048 -2.1157  0.3825  0.5108
  118OSM   H12T12343   3.864   3.169   5.988  0.2760  0.9970 -1.8516
  118OSM   C13S12344   4.067   3.108   5.947  0.9572 -0.3340  0.3479
  118OSM   H13S12345   4.032   3.004   5.925  2.2187 -0.6769 -0.1770
  118OSM   H13T12346   4.166   3.100   5.996  1.2211  3.0834  0.5963
  118OSM   C14S12347   4.084   3.172   5.804 -0.7416 -0.3191 -0.4315
  118OSM   H14S12348   4.112   3.278   5.824 -1.2436 -0.3318  0.4001
  118OSM   H14T12349   3.996   3.167   5.736 -1.4608 -2.1847  0.5825
  118OSM   C15S12350   4.207   3.121   5.717  0.1215  0.4752 -0.5813
  118OSM   H15S12351   4.206   3.012   5.698 -1.6980  0.3883 -0.1678
  118OSM   H15T12352   4.296   3.152   5.775 -1.0230  0.9835  0.9681
  118OSM   C16S12353   4.208   3.180   5.580 -0.1082 -0.5370  0.1002
  118OSM   H16S12354   4.182   3.289   5.578  1.3772 -0.1760 -1.0655
  118OSM   H16T12355   4.142   3.128   5.508  0.3792 -1.5769  0.3962
  118OSM   C17S12356   4.348   3.178   5.515 -0.2271 -0.0213 -0.4544
  118OSM   H17S12357   4.379   3.072   5.520  3.2125  0.8613 -0.4497
  118OSM   H17T12358   4.414   3.235   5.584  0.4307  0.5266 -1.5139
  118OSM   C18S12359   4.364   3.227   5.370  0.1661  0.2165 -0.0374
  118OSM   H18S12360   4.364   3.338   5.359 -2.6503  0.1764 -1.1979
  118OSM   H18T12361   4.284   3.181   5.308  1.2828 -0.9208 -0.6738
  118OSM   H18U12362   4.460   3.191   5.327 -0.0253 -1.9068  1.1824
  118OSM    C1F12363   3.565   3.587   7.080 -0.3793 -0.2732 -0.2999
  118OSM     OF12364   3.602   3.683   7.142  0.2379  0.5378 -0.3472
  118OSM    C2F12365   3.422   3.574   7.034  0.0514  1.0954 -0.4130
  118OSM    H2F12366   3.358   3.546   7.120 -0.6784  0.2812 -1.2068
  118OSM    H2G12367   3.406   3.496   6.957 -0.6022 -1.3728  2.0660
  118OSM    C3F12368   3.364   3.708   6.969 -0.3239  0.9599 -0.4583
  118OSM    H3F12369   3.351   3.788   7.045  1.0969  0.8265 -0.0519
  118OSM    H3G12370   3.267   3.681   6.922 -0.3282 -0.6718  0.4255
  118OSM    C4F12371   3.454   3.751   6.853  0.0873  0.0804 -0.1167
  118OSM    H4F12372   3.545   3.787   6.906 -0.1172  0.9534 -0.3471
  118OSM    H4G12373   3.407   3.840   6.807  0.9108 -0.6922 -2.6468
  118OSM    C5F12374   3.482   3.649   6.737  0.2428  0.3510 -0.1627
  118OSM    H5F12375   3.407   3.648   6.655 -0.3756 -1.1493  0.3902
  118OSM    H5G12376   3.483   3.547   6.779  1.4627  0.5617  0.3642
  118OSM    C6F12377   3.627   3.667   6.680  0.5011 -0.3777  0.4358
  118OSM    H6F12378   3.659   3.605   6.593  0.2510  0.9868 -0.6492
  118OSM    H6G12379   3.694   3.638   6.765  1.6772 -0.3023 -0.4401
  118OSM    C7F12380   3.654   3.808   6.625 -0.1688  0.2480 -0.2635
  118OSM    H7F12381   3.739   3.861   6.673  0.8452  1.0122 -2.7204
  118OSM    H7G12382   3.564   3.871   6.613 -0.4412  0.2763  1.6597
  118OSM    C8F12383   3.718   3.800   6.481 -0.3427  0.0626 -0.9810
  118OSM    H8F12384   3.656   3.739   6.412  0.5008 -1.7373 -0.2278
  118OSM    H8G12385   3.799   3.724   6.489  0.2556  0.8946  2.4883
  118OSM    C9F12386   3.760   3.939   6.429 -0.6651  0.7298  0.3191
  118OSM    H9F12387   3.789   4.007   6.511  0.1702  0.3003  0.3924
  118OSM   C10F12388   3.764   3.977   6.300 -0.3602 -0.2972  0.3282
  118OSM   H10F12389   3.800   4.076   6.267 -0.6691 -0.2722  0.0624
  118OSM   C11F12390   3.747   3.875   6.187  0.1373  0.1860 -0.0087
  118OSM   H11F12391   3.639   3.870   6.161  0.0993  0.2828  0.1305
  118OSM   H11G12392   3.789   3.776   6.214  0.7871 -0.1117 -1.9534
  118OSM   C12F12393   3.815   3.925   6.063  0.1937 -0.0631 -0.6906
  118OSM   H12F12394   3.852   3.834   6.012  0.2082 -0.0710 -0.6670
  118OSM   H12G12395   3.901   3.993   6.081 -3.1841  3.8611  2.8535
  118OSM   C13F12396   3.728   4.015   5.974 -0.3911  0.6191 -0.6469
  118OSM   H13F12397   3.704   4.104   6.036  0.2380 -0.7059  1.6189
  118OSM   H13G12398   3.633   3.958   5.960 -0.4348  0.0186  1.6613
  118OSM   C14F12399   3.811   4.050   5.850  0.3654 -0.1799 -0.1961
  118OSM   H14F12400   3.887   4.130   5.864 -1.2620  1.0549  2.3197
  118OSM   H14G12401   3.729   4.089   5.784  0.4472  1.3493  0.5535
  118OSM   C15F12402   3.857   3.927   5.772 -0.5812  0.6556 -0.2251
  118OSM   H15F12403   3.786   3.842   5.774  0.4363 -0.2995 -1.7805
  118OSM   H15G12404   3.949   3.878   5.811 -0.3721 -0.1511 -1.6342
  118OSM   C16F12405   3.873   3.946   5.621  0.3036  0.0270  0.1423
  118OSM   H16F12406   3.771   3.968   5.582  0.6222  1.8722  0.2982
  118OSM   H16G12407   3.915   3.859   5.565  1.6223  1.2515 -0.8426
  118OSM   C17F12408   3.975   4.057   5.595 -0.5054 -0.0768 -0.0493
  118OSM   H17F12409   4.045   4.013   5.520 -0.2447 -1.3007  0.8819
  118OSM   H17G12410   4.042   4.071   5.682  0.6173  0.9265 -1.0389
  118OSM   C18F12411   3.926   4.193   5.551  0.5708 -0.0281 -0.0744
  118OSM   H18F12412   4.015   4.254   5.527  0.5670 -0.4432 -1.1884
  118OSM   H18G12413   3.853   4.252   5.610 -0.7459 -0.1924 -1.4945
  118OSM   H18H12414   3.875   4.185   5.453  1.2503  2.4575 -0.6859
  119OSM      N12415   1.271   0.606   7.852 -0.1636  0.5241  0.3620
  119OSM    C1512416   1.336   0.737   7.827  0.0654  0.4611  0.7058
  119OSM   H15A12417   1.266   0.819   7.836 -0.2282  0.4927 -1.4757
  119OSM   H15B12418   1.389   0.736   7.733 -2.1500 -0.4168 -0.6035
  119OSM   H15C12419   1.416   0.755   7.898  0.2756  0.6091  0.4333
  119OSM    C1412420   1.154   0.600   7.762 -0.6114 -0.6314 -0.6380
  119OSM   H14A12421   1.080   0.663   7.808  2.2419  3.3859 -1.0509
  119OSM   H14B12422   1.129   0.495   7.750  2.3947 -1.3552 -1.5988
  119OSM   H14C12423   1.182   0.636   7.665  3.3278  0.3589  0.6759
  119OSM    C1312424   1.365   0.492   7.829 -0.8101  0.7804  0.0154
  119OSM   H13A12425   1.459   0.522   7.873  0.8163  0.8493 -3.1660
  119OSM   H13B12426   1.402   0.486   7.728  0.8797 -0.0259  0.6426
  119OSM   H13C12427   1.324   0.398   7.861  1.3682 -1.2629 -2.6745
  119OSM    C1212428   1.225   0.591   7.997  0.0080 -0.3169  0.2673
  119OSM   H12A12429   1.302   0.562   8.067  0.2320 -1.5288 -0.4504
  119OSM   H12B12430   1.154   0.510   8.004 -0.6167  0.0284 -1.6080
  119OSM    C1112431   1.165   0.718   8.055 -0.0774 -0.2253  0.2401
  119OSM   H11A12432   1.239   0.801   8.052  1.0201 -1.1790 -1.9326
  119OSM   H11B12433   1.152   0.682   8.159 -0.3513 -0.4143  0.1419
  119OSM      P12434   0.996   0.893   7.956  0.1508  0.0582  0.1956
  119OSM    O1312435   0.899   0.945   8.057 -0.3084  0.6530 -0.1391
  119OSM    O1412436   1.117   0.968   7.927 -0.1724  0.5844  0.2439
  119OSM    O1112437   0.926   0.881   7.813  0.2800  0.3349 -0.0543
  119OSM    O1212438   1.036   0.751   7.993  0.5945  0.2759 -0.5489
  119OSM    C1S12439   0.919   1.001   7.734 -0.3205  0.1083  0.2573
  119OSM    H1S12440   1.012   1.011   7.674  0.6055 -0.2763  1.5874
  119OSM    H1T12441   0.900   1.093   7.794  0.8143 -0.1790  1.0821
  119OSM     NF12442   0.820   1.102   7.525  0.1334  0.5831 -0.1578
  119OSM    HNF12443   0.757   1.175   7.551 -0.1955  1.0291 -2.0766
  119OSM    C2S12444   0.805   0.986   7.620 -0.0138  0.0066  0.4130
  119OSM    H2S12445   0.830   0.897   7.557  1.0307  1.5244 -1.4433
  119OSM    C3S12446   0.659   0.967   7.669 -0.2256  0.4549  0.4980
  119OSM    H3S12447   0.634   1.048   7.742  0.0053  0.2116  0.8519
  119OSM     O312448   0.640   0.848   7.746  0.4882 -0.2704 -0.3308
  119OSM    HO312449   0.725   0.834   7.788 -0.1351  0.7867  1.3724
  119OSM    C4S12450   0.554   0.970   7.553  0.3973 -0.0089  0.2333
  119OSM    H4S12451   0.520   1.071   7.526 -0.7090 -0.9705 -2.3139
  119OSM    C5S12452   0.492   0.867   7.485 -0.0606 -0.0195 -0.3952
  119OSM    H5S12453   0.512   0.760   7.503  3.2410  0.3737 -1.0683
  119OSM    C6S12454   0.403   0.885   7.368 -0.3213 -0.3082  0.5516
  119OSM    H6S12455   0.404   0.988   7.325 -1.1227  0.5029  2.3839
  119OSM    H6T12456   0.296   0.875   7.396 -0.5300  0.4829  0.0537
  119OSM    C7S12457   0.441   0.788   7.256 -0.7972  0.0410  0.1562
  119OSM    H7S12458   0.429   0.687   7.299 -0.4949  0.5041  1.3737
  119OSM    H7T12459   0.547   0.788   7.225 -0.4321 -2.2498  1.2615
  119OSM    C8S12460   0.351   0.805   7.139 -0.4860  1.0634  0.4229
  119OSM    H8S12461   0.350   0.915   7.120  2.6332  1.4290  1.5999
  119OSM    H8T12462   0.249   0.774   7.167 -0.8394  2.7200  1.1207
  119OSM    C9S12463   0.401   0.739   7.012  0.6650 -0.3929 -0.0589
  119OSM    H9S12464   0.410   0.636   7.053 -0.6175 -0.6055 -0.2475
  119OSM    H9T12465   0.499   0.779   6.979 -0.9345  2.3098 -1.9077
  119OSM   C10S12466   0.297   0.756   6.902 -1.1895 -0.3444 -0.1793
  119OSM   H10S12467   0.260   0.859   6.884 -0.9808  0.1135  1.7621
  119OSM   H10T12468   0.219   0.680   6.925 -0.9056 -0.2639  1.1639
  119OSM   C11S12469   0.357   0.699   6.770 -0.3956 -0.6339 -0.2880
  119OSM   H11S12470   0.278   0.686   6.692 -0.1867 -2.1549 -0.2593
  119OSM   H11T12471   0.402   0.602   6.798  0.0174 -0.7803 -1.4106
  119OSM   C12S12472   0.463   0.790   6.711 -0.6129 -0.9828  0.0199
  119OSM   H12S12473   0.543   0.809   6.785 -0.8949  1.4068 -0.2146
  119OSM   H12T12474   0.398   0.877   6.689 -3.3783 -3.0587 -0.6667
  119OSM   C13S12475   0.527   0.734   6.588 -0.2727 -0.4117 -0.8549
  119OSM   H13S12476   0.569   0.636   6.619 -0.9532 -0.4437  0.0225
  119OSM   H13T12477   0.610   0.802   6.558  2.1843 -2.4533  0.9055
  119OSM   C14S12478   0.433   0.725   6.469  0.2217  0.6838 -0.6013
  119OSM   H14S12479   0.386   0.826   6.456  1.2294  1.2831  0.2754
  119OSM   H14T12480   0.351   0.654   6.492  0.5982 -0.0151 -1.3836
  119OSM   C15S12481   0.506   0.688   6.334 -0.5277  0.2567 -0.7427
  119OSM   H15S12482   0.544   0.584   6.332  0.7934  0.1778  5.6725
  119OSM   H15T12483   0.595   0.752   6.316  0.2436 -1.1206 -2.0790
  119OSM   C16S12484   0.406   0.702   6.226  0.0357 -0.3480  0.6228
  119OSM   H16S12485   0.388   0.810   6.210  0.9879  0.2670  3.1993
  119OSM   H16T12486   0.312   0.650   6.252 -1.0052  0.0803 -2.0042
  119OSM   C17S12487   0.458   0.644   6.088 -0.7068  0.1189 -0.2009
  119OSM   H17S12488   0.379   0.663   6.013 -0.3203  2.9286 -0.0126
  119OSM   H17T12489   0.460   0.533   6.086 -0.2711  0.0352  1.8992
  119OSM   C18S12490   0.592   0.712   6.047  0.2043 -0.3503 -0.6776
  119OSM   H18S12491   0.567   0.819   6.034 -4.8851 -1.2444 -0.7127
  119OSM   H18T12492   0.610   0.678   5.943 -0.6201 -0.2479 -0.8602
  119OSM   H18U12493   0.688   0.697   6.100 -0.1304  0.0331  0.0465
  119OSM    C1F12494   0.897   1.112   7.416 -0.3969 -0.2496  0.8896
  119OSM     OF12495   1.003   1.043   7.405  0.7138 -0.7290 -0.0936
  119OSM    C2F12496   0.844   1.201   7.309  0.2483  0.7796  0.5150
  119OSM    H2F12497   0.907   1.216   7.219 -0.7504  2.3246  0.0306
  119OSM    H2G12498   0.833   1.297   7.365 -1.7895  0.4392  0.7870
  119OSM    C3F12499   0.717   1.142   7.249  0.2452  0.2275  0.6754
  119OSM    H3F12500   0.645   1.145   7.334 -1.4768 -1.2100 -0.6491
  119OSM    H3G12501   0.737   1.038   7.216  1.6010  0.1213  1.7604
  119OSM    C4F12502   0.666   1.234   7.139 -0.1177 -0.4115  0.2326
  119OSM    H4F12503   0.653   1.339   7.174  1.2990 -0.1170 -0.0551
  119OSM    H4G12504   0.561   1.204   7.123  0.0004 -0.3374 -0.7387
  119OSM    C5F12505   0.752   1.231   7.013 -0.0166  0.1483  0.3939
  119OSM    H5F12506   0.796   1.130   7.002 -1.0180 -0.0818 -2.2955
  119OSM    H5G12507   0.843   1.288   7.043 -0.2265  0.7206 -0.0426
  119OSM    C6F12508   0.676   1.283   6.890  0.0156 -0.0299 -0.1442
  119OSM    H6F12509   0.747   1.329   6.819 -1.4428  1.6075 -0.6117
  119OSM    H6G12510   0.604   1.359   6.928 -0.8610 -1.3196  0.9048
  119OSM    C7F12511   0.596   1.174   6.816 -0.6065 -0.8905 -0.4425
  119OSM    H7F12512   0.535   1.122   6.894 -1.3871  1.1874  0.4176
  119OSM    H7G12513   0.676   1.112   6.771  0.2138 -1.7533  2.0307
  119OSM    C8F12514   0.514   1.242   6.704 -0.6105 -0.3350  0.2816
  119OSM    H8F12515   0.590   1.305   6.652 -0.4401  0.7813  1.8092
  119OSM    H8G12516   0.439   1.300   6.763 -1.6955 -1.5826  0.1649
  119OSM    C9F12517   0.438   1.146   6.613 -0.2371 -0.0146  0.9572
  119OSM    H9F12518   0.345   1.105   6.655 -1.6445  1.1095 -0.9147
  119OSM   C10F12519   0.456   1.118   6.481 -0.6178 -0.1626 -0.2480
  119OSM   H10F12520   0.375   1.056   6.440 -0.4528  0.1981 -1.1444
  119OSM   C11F12521   0.567   1.172   6.391  0.2289 -0.5568 -0.3700
  119OSM   H11F12522   0.628   1.250   6.441 -0.2351 -0.8823  0.7366
  119OSM   H11G12523   0.527   1.221   6.300 -1.3652 -1.9074 -0.4432
  119OSM   C12F12524   0.645   1.053   6.342 -0.1488 -0.0327  0.3891
  119OSM   H12F12525   0.587   0.990   6.271  2.3153 -1.7568 -0.2240
  119OSM   H12G12526   0.667   0.986   6.428  1.4812 -1.6031 -1.1645
  119OSM   C13F12527   0.772   1.100   6.275 -0.4181  0.5440 -0.5911
  119OSM   H13F12528   0.850   1.123   6.351 -2.1725  0.9262  1.1761
  119OSM   H13G12529   0.752   1.198   6.228  0.2839 -0.1807 -2.5029
  119OSM   C14F12530   0.818   1.000   6.166 -0.6247 -0.0204  0.1517
  119OSM   H14F12531   0.727   1.007   6.102 -1.3737 -1.8986  0.9342
  119OSM   H14G12532   0.834   0.896   6.202  0.6287  0.3985  0.8259
  119OSM   C15F12533   0.940   1.057   6.096  0.3068  0.5883  0.7695
  119OSM   H15F12534   1.014   1.067   6.179  1.2649  1.6297 -0.1751
  119OSM   H15G12535   0.924   1.164   6.072 -1.0986  0.5168  1.3418
  119OSM   C16F12536   0.996   0.988   5.975  0.0740  0.2866 -0.5813
  119OSM   H16F12537   1.048   0.893   6.001 -0.5067  0.2334  0.4485
  119OSM   H16G12538   1.072   1.053   5.929  1.4450 -0.9889 -0.1912
  119OSM   C17F12539   0.896   0.935   5.879  0.0858 -0.2199  0.4419
  119OSM   H17F12540   0.831   1.024   5.864  1.8560  1.0336 -0.1747
  119OSM   H17G12541   0.837   0.854   5.927 -1.0841 -0.8882 -1.9438
  119OSM   C18F12542   0.958   0.877   5.751 -0.1168 -0.0344 -0.2803
  119OSM   H18F12543   0.888   0.870   5.664  0.5986  1.1704 -0.9866
  119OSM   H18G12544   1.001   0.776   5.766  0.6086 -0.2195 -2.9974
  119OSM   H18H12545   1.043   0.937   5.712  0.3077  0.1487  0.8991
  120OSM      N12546   3.364   0.810   7.615 -0.7541 -0.6314 -0.2508
  120OSM    C1512547   3.268   0.720   7.670 -0.3293  0.4447  0.4767
  120OSM   H15A12548   3.259   0.728   7.777  1.0424  1.6440  0.5260
  120OSM   H15B12549   3.300   0.617   7.665  2.8344  1.3106  0.6141
  120OSM   H15C12550   3.172   0.734   7.623  0.6617  2.1570 -1.1691
  120OSM    C1412551   3.304   0.946   7.627  0.7311  0.0728 -0.6279
  120OSM   H14A12552   3.293   0.981   7.729 -0.7511  1.8362 -1.3252
  120OSM   H14B12553   3.203   0.952   7.587 -0.8435 -0.6453  2.8585
  120OSM   H14C12554   3.353   1.029   7.578 -2.4454  2.5096 -0.0170
  120OSM    C1312555   3.486   0.817   7.698  0.1577 -0.8909  0.3484
  120OSM   H13A12556   3.545   0.903   7.670  0.0417 -0.5919  1.0071
  120OSM   H13B12557   3.549   0.730   7.685 -1.2338 -1.9816  0.6030
  120OSM   H13C12558   3.465   0.823   7.803  1.4885 -1.0641  0.6369
  120OSM    C1212559   3.393   0.778   7.471  0.0852 -0.2685 -0.3297
  120OSM   H12A12560   3.451   0.857   7.426  0.2418  0.2819  0.7965
  120OSM   H12B12561   3.298   0.782   7.420 -0.5525  0.7774  0.8841
  120OSM    C1112562   3.462   0.647   7.439  0.7865  0.6433  0.0267
  120OSM   H11A12563   3.558   0.642   7.495 -0.7625 -1.1718  2.7507
  120OSM   H11B12564   3.480   0.653   7.330 -0.9268  1.8267 -0.2266
  120OSM      P12565   3.265   0.489   7.362 -0.1557  0.5992 -0.0393
  120OSM    O1312566   3.205   0.366   7.427  0.3495 -0.0476  0.1793
  120OSM    O1412567   3.176   0.603   7.335  0.6385 -0.2005 -0.1809
  120OSM    O1112568   3.337   0.454   7.225 -1.0335  0.1262 -0.6242
  120OSM    O1212569   3.374   0.536   7.462  0.2338 -0.4826 -0.0916
  120OSM    C1S12570   3.461   0.384   7.221  0.2581  0.6223  0.3292
  120OSM    H1S12571   3.445   0.292   7.282 -1.8805  0.6381 -0.1213
  120OSM    H1T12572   3.548   0.444   7.257 -0.7696  0.4694  3.4026
  120OSM     NF12573   3.611   0.264   7.064  0.3773 -0.0036 -0.2732
  120OSM    HNF12574   3.693   0.315   7.042  1.2235 -2.1724 -2.6565
  120OSM    C2S12575   3.490   0.343   7.070 -0.2053  0.8224 -0.1732
  120OSM    H2S12576   3.406   0.281   7.032 -0.9406  1.1185  0.9127
  120OSM    C3S12577   3.512   0.474   6.996  0.0372  0.0769  0.6194
  120OSM    H3S12578   3.589   0.542   7.037  0.0943  0.3294  0.1004
  120OSM     O312579   3.390   0.542   6.992 -0.1711  0.7353 -0.5314
  120OSM    HO312580   3.344   0.493   7.061 -0.4334 -0.5780 -1.6044
  120OSM    C4S12581   3.556   0.448   6.848  0.3196  0.1320 -0.5058
  120OSM    H4S12582   3.480   0.429   6.771 -2.1542 -1.2189  2.1057
  120OSM    C5S12583   3.679   0.486   6.804  0.4807 -0.1358  0.4293
  120OSM    H5S12584   3.750   0.538   6.870 -1.3106  1.4223  1.1992
  120OSM    C6S12585   3.728   0.466   6.661  0.1485 -0.4692 -0.3691
  120OSM    H6S12586   3.823   0.409   6.666 -0.8053 -2.4880 -3.0129
  120OSM    H6T12587   3.752   0.562   6.609  3.0813 -1.6147 -1.3669
  120OSM    C7S12588   3.630   0.395   6.554 -0.8353  0.1106 -0.3864
  120OSM    H7S12589   3.532   0.448   6.561 -0.9497 -0.2445  1.1016
  120OSM    H7T12590   3.624   0.286   6.571  0.8389 -0.1141 -1.1138
  120OSM    C8S12591   3.668   0.426   6.412  0.1177 -0.7750 -0.2521
  120OSM    H8S12592   3.774   0.404   6.387  0.3866  1.1383 -0.9302
  120OSM    H8T12593   3.658   0.535   6.395  3.8318 -0.6574 -3.2722
  120OSM    C9S12594   3.591   0.341   6.307  0.1955 -0.3842  0.0257
  120OSM    H9S12595   3.483   0.360   6.323  0.4554  1.3729 -0.1296
  120OSM    H9T12596   3.613   0.234   6.329  2.4131 -0.5542 -2.5906
  120OSM   C10S12597   3.634   0.368   6.162  0.3004 -0.5684 -0.0989
  120OSM   H10S12598   3.744   0.357   6.153  0.4185  0.7698 -0.4709
  120OSM   H10T12599   3.612   0.476   6.151  0.6939 -0.4541  0.1986
  120OSM   C11S12600   3.572   0.276   6.060  0.4029 -0.2484  0.1738
  120OSM   H11S12601   3.463   0.296   6.064  0.6591  1.0697  1.4476
  120OSM   H11T12602   3.573   0.171   6.095  0.4933 -0.5249 -0.6409
  120OSM   C12S12603   3.625   0.286   5.915 -0.1642 -0.2355  0.1135
  120OSM   H12S12604   3.735   0.295   5.912  0.0420 -2.4904 -1.0657
  120OSM   H12T12605   3.586   0.381   5.871  3.7269  1.0809 -0.8563
  120OSM   C13S12606   3.592   0.155   5.838 -0.9695 -0.1082 -0.2196
  120OSM   H13S12607   3.481   0.148   5.836 -1.0028 -0.9920  2.1105
  120OSM   H13T12608   3.640   0.073   5.897 -2.6442  0.8103  2.6069
  120OSM   C14S12609   3.638   0.161   5.692 -0.0103 -0.6726  0.3128
  120OSM   H14S12610   3.744   0.192   5.677 -0.7688  1.6601 -0.6705
  120OSM   H14T12611   3.587   0.242   5.635  0.2629 -0.6249  0.1313
  120OSM   C15S12612   3.613   0.033   5.618 -0.9972  0.7900 -0.1659
  120OSM   H15S12613   3.606   0.072   5.514  1.1853  2.0414  0.1109
  120OSM   H15T12614   3.511  -0.010   5.631 -0.2925 -0.5287  1.2892
  120OSM   C16S12615   3.737  -0.068   5.623 -0.0274 -0.3627  0.0464
  120OSM   H16S12616   3.821  -0.005   5.586 -0.9782  2.8243  2.7544
  120OSM   H16T12617   3.715  -0.144   5.546 -0.5810 -2.2244  1.9382
  120OSM   C17S12618   3.756  -0.127   5.763 -0.2694  1.0240 -0.2003
  120OSM   H17S12619   3.651  -0.145   5.797 -0.8564  0.8780 -1.9566
  120OSM   H17T12620   3.810  -0.051   5.824  1.3514 -1.2617  1.3753
  120OSM   C18S12621   3.827  -0.262   5.751  0.4783  0.2471 -0.1702
  120OSM   H18S12622   3.772  -0.322   5.675 -1.8327  1.0862  0.7485
  120OSM   H18T12623   3.830  -0.316   5.848  0.7147  0.4218 -0.0799
  120OSM   H18U12624   3.929  -0.249   5.708  1.0803 -0.2852  1.0448
  120OSM    C1F12625   3.616   0.134   7.088 -0.5838 -0.2915  0.9098
  120OSM     OF12626   3.514   0.081   7.126  0.1341  0.0148 -0.0353
  120OSM    C2F12627   3.751   0.060   7.076 -0.1905 -0.1656 -0.1257
  120OSM    H2F12628   3.738  -0.051   7.070  2.2030 -0.5735  1.0654
  120OSM    H2G12629   3.807   0.087   7.168 -0.6632 -0.9310  0.4008
  120OSM    C3F12630   3.846   0.098   6.970 -0.0007 -0.5280 -0.4515
  120OSM    H3F12631   3.924   0.018   6.973  0.5256 -0.2648 -3.6889
  120OSM    H3G12632   3.888   0.198   6.992 -3.0662  0.3195  2.1841
  120OSM    C4F12633   3.798   0.093   6.819  0.1449 -0.1376 -0.3621
  120OSM    H4F12634   3.705   0.154   6.817 -2.4673 -3.6210  2.2855
  120OSM    H4G12635   3.759  -0.010   6.809 -3.7431  1.0194  0.8824
  120OSM    C5F12636   3.921   0.119   6.735  0.2034  0.5874 -0.4335
  120OSM    H5F12637   4.009   0.061   6.772 -0.9683 -2.2530 -1.7464
  120OSM    H5G12638   3.954   0.224   6.746 -0.7598  0.8123  0.5239
  120OSM    C6F12639   3.909   0.095   6.583  0.2700 -0.4466  0.7774
  120OSM    H6F12640   3.810   0.127   6.544  0.4937 -2.9492 -2.2946
  120OSM    H6G12641   3.916  -0.015   6.570  0.8899 -0.2992 -0.2051
  120OSM    C7F12642   4.029   0.158   6.512 -0.1434 -0.7020  0.7319
  120OSM    H7F12643   4.116   0.146   6.579 -0.1652 -0.0153  0.8875
  120OSM    H7G12644   4.015   0.268   6.518 -1.5147 -0.9336  2.5166
  120OSM    C8F12645   4.057   0.107   6.375 -0.2375 -0.5946 -0.4175
  120OSM    H8F12646   4.055  -0.003   6.366  1.5004 -0.9171  2.0835
  120OSM    H8G12647   4.151   0.158   6.342 -0.4311  0.4770  0.6077
  120OSM    C9F12648   3.951   0.148   6.277 -0.6418  0.1385  1.2265
  120OSM    H9F12649   3.876   0.216   6.319  0.2777  1.3037  1.0050
  120OSM   C10F12650   3.922   0.098   6.153  0.1883 -0.3074  0.3959
  120OSM   H10F12651   3.835   0.135   6.099 -0.9351 -1.3310  1.4359
  120OSM   C11F12652   4.029   0.017   6.089 -0.2754 -0.6771  0.0482
  120OSM   H11F12653   3.993  -0.068   6.028 -3.8663  0.5569  0.2392
  120OSM   H11G12654   4.100  -0.018   6.167 -1.2393  0.9021  1.7097
  120OSM   C12F12655   4.118   0.095   5.995  0.3160 -0.5119 -0.2035
  120OSM   H12F12656   4.208   0.034   5.969 -0.3799 -0.0771 -4.2990
  120OSM   H12G12657   4.151   0.185   6.052  1.1805 -0.3572 -0.9349
  120OSM   C13F12658   4.048   0.138   5.867 -0.5415 -0.2368  0.0054
  120OSM   H13F12659   3.949   0.183   5.891 -0.3003  0.0518  0.4667
  120OSM   H13G12660   4.020   0.046   5.810 -0.1707 -0.0195 -0.5340
  120OSM   C14F12661   4.140   0.243   5.791  0.5527 -0.1133 -0.7726
  120OSM   H14F12662   4.248   0.222   5.776  0.6834  0.8614 -1.2143
  120OSM   H14G12663   4.130   0.347   5.828  2.6718 -0.8550  2.3607
  120OSM   C15F12664   4.099   0.249   5.645 -0.6405 -0.9787  0.0366
  120OSM   H15F12665   4.150   0.335   5.595 -0.5519 -1.2225 -0.2952
  120OSM   H15G12666   3.991   0.275   5.640 -0.7880 -0.9654  2.3744
  120OSM   C16F12667   4.130   0.130   5.557 -0.2591  0.4569  0.3677
  120OSM   H16F12668   4.113   0.038   5.617 -0.2608 -0.0413 -0.3900
  120OSM   H16G12669   4.233   0.130   5.517 -0.4029  0.6511 -0.0018
  120OSM   C17F12670   4.040   0.123   5.426  0.0173  0.2010 -0.3938
  120OSM   H17F12671   3.934   0.145   5.451  0.1659  4.5459 -2.6523
  120OSM   H17G12672   4.061   0.019   5.391  0.2254  0.4238 -0.9489
  120OSM   C18F12673   4.092   0.211   5.309 -0.1223  0.3683  0.3698
  120OSM   H18F12674   4.202   0.203   5.302 -0.2547 -0.7758 -0.8188
  120OSM   H18G12675   4.069   0.320   5.312  0.5380  0.6822 -2.4845
  120OSM   H18H12676   4.056   0.176   5.209  0.8391  0.6910 -0.1014
  121OSM      N12677   6.267   2.156   7.653  0.2708 -0.0566 -0.3770
  121OSM    C1512678   6.284   2.043   7.742 -0.4528  0.1778 -0.0213
  121OSM   H15A12679   6.369   1.987   7.706 -1.3430 -0.8663 -0.6039
  121OSM   H15B12680   6.198   1.979   7.727 -1.9485  2.0331  0.3457
  121OSM   H15C12681   6.303   2.067   7.845 -0.2373  1.7662 -0.4098
  121OSM    C1412682   6.145   2.234   7.699 -0.0647 -0.5816  0.3594
  121OSM   H14A12683   6.148   2.328   7.646  2.7717 -1.1696 -0.7307
  121OSM   H14B12684   6.160   2.252   7.804 -1.2166  0.9225  0.3004
  121OSM   H14C12685   6.051   2.183   7.688 -1.1478  1.4516 -0.4768
  121OSM    C1312686   6.394   2.240   7.651  0.7133  0.5317 -0.4027
  121OSM   H13A12687   6.389   2.305   7.737  0.1981  0.9399 -0.7379
  121OSM   H13B12688   6.398   2.299   7.561  1.4876 -1.0294 -1.4547
  121OSM   H13C12689   6.482   2.178   7.666  0.2021 -0.1424 -0.1379
  121OSM    C1212690   6.241   2.113   7.513 -0.4453  0.1708  0.1740
  121OSM   H12A12691   6.213   2.201   7.456  1.4476 -0.0812 -1.2312
  121OSM   H12B12692   6.156   2.047   7.509 -2.1677  2.2406  0.9333
  121OSM    C1112693   6.348   2.026   7.436 -0.1221 -0.8046 -0.3658
  121OSM   H11A12694   6.431   2.094   7.410  0.8293 -1.6416  0.4310
  121OSM   H11B12695   6.301   2.003   7.337  0.8277  2.3461 -1.6801
  121OSM      P12696   6.292   1.786   7.499 -0.0522  0.1892 -0.0984
  121OSM    O1312697   6.359   1.671   7.565 -0.0832 -0.4192  0.1721
  121OSM    O1412698   6.165   1.836   7.559  0.3797  0.3560  0.6489
  121OSM    O1112699   6.277   1.751   7.347  0.0259 -0.3493 -0.1535
  121OSM    O1212700   6.389   1.909   7.505 -0.0237  0.0125  0.1895
  121OSM    C1S12701   6.382   1.749   7.249 -0.2295 -0.1201  0.3862
  121OSM    H1S12702   6.426   1.649   7.231 -0.6863  0.2485 -3.5742
  121OSM    H1T12703   6.471   1.807   7.281  1.7669 -2.6712 -0.2157
  121OSM     NF12704   6.433   1.872   7.039  0.2263  0.7667 -0.4388
  121OSM    HNF12705   6.422   1.971   7.034  1.1975  0.9036 -0.0946
  121OSM    C2S12706   6.332   1.797   7.111  1.0902 -0.0209  0.1783
  121OSM    H2S12707   6.321   1.706   7.049 -4.0546  0.8246 -0.6081
  121OSM    C3S12708   6.188   1.858   7.113  0.3476 -0.2253  0.0661
  121OSM    H3S12709   6.199   1.946   7.180  7.0923 -0.6685  0.1897
  121OSM     O312710   6.087   1.780   7.166  0.5452  0.0845 -0.3977
  121OSM    HO312711   6.133   1.717   7.220  1.7077  0.6181 -0.7335
  121OSM    C4S12712   6.146   1.905   6.978 -0.0688  0.2960  0.3318
  121OSM    H4S12713   6.155   2.014   6.970 -1.1189  0.6349  2.8214
  121OSM    C5S12714   6.097   1.841   6.865  1.0678  0.1709  0.0507
  121OSM    H5S12715   6.112   1.733   6.849  0.3163  0.1134 -0.2880
  121OSM    C6S12716   6.065   1.900   6.735 -0.6595  0.4896 -0.0779
  121OSM    H6S12717   6.101   2.004   6.724  0.6842 -0.0168 -0.6772
  121OSM    H6T12718   5.955   1.912   6.726 -0.7667  0.6837  1.3137
  121OSM    C7S12719   6.128   1.830   6.621  0.3613  0.9712 -0.4280
  121OSM    H7S12720   6.106   1.722   6.627 -0.7722  1.2550  1.3157
  121OSM    H7T12721   6.238   1.841   6.624  0.1964  3.0025  0.0713
  121OSM    C8S12722   6.073   1.880   6.485  0.1975 -0.2269 -0.2252
  121OSM    H8S12723   6.093   1.989   6.477 -0.9384 -0.0355 -0.7017
  121OSM    H8T12724   5.964   1.860   6.487 -0.1161  1.4230  0.3628
  121OSM    C9S12725   6.127   1.812   6.356  0.1928 -0.9590  0.1389
  121OSM    H9S12726   6.137   1.701   6.360  2.0931 -0.9999 -2.8658
  121OSM    H9T12727   6.221   1.861   6.326 -0.4828  0.7747  0.7194
  121OSM   C10S12728   6.032   1.830   6.231 -0.6592  0.2737  0.3023
  121OSM   H10S12729   6.010   1.937   6.213  1.2605  0.5224 -0.8788
  121OSM   H10T12730   5.944   1.766   6.253 -0.2897 -0.9341 -1.4982
  121OSM   C11S12731   6.088   1.762   6.101  0.2070 -0.2526  0.0506
  121OSM   H11S12732   6.079   1.652   6.115  0.3246 -0.2273  0.3398
  121OSM   H11T12733   6.196   1.791   6.095 -0.1054  1.1473  0.9122
  121OSM   C12S12734   6.021   1.809   5.972  0.7938 -0.1636  0.0487
  121OSM   H12S12735   6.000   1.918   5.972  3.1069  0.3333  0.4731
  121OSM   H12T12736   5.921   1.763   5.955  0.8256  0.4215 -1.8849
  121OSM   C13S12737   6.092   1.765   5.842  0.3465  0.0619 -0.1920
  121OSM   H13S12738   6.115   1.657   5.852  0.8280 -0.1655 -2.9862
  121OSM   H13T12739   6.185   1.825   5.828 -0.6912  1.0080 -4.0959
  121OSM   C14S12740   6.017   1.789   5.710  0.3145  0.3403 -0.6157
  121OSM   H14S12741   5.916   1.746   5.697  1.5185 -3.1903  0.3546
  121OSM   H14T12742   6.077   1.724   5.642  2.4433  0.0665  1.3739
  121OSM   C15S12743   6.017   1.937   5.665 -0.5198 -0.0274  0.1385
  121OSM   H15S12744   6.002   1.999   5.755 -2.8100 -0.6504  0.2517
  121OSM   H15T12745   5.920   1.963   5.618 -0.8772  0.4584  1.1253
  121OSM   C16S12746   6.133   1.974   5.568 -0.0503 -0.8581 -0.8049
  121OSM   H16S12747   6.137   1.907   5.479  0.0199  1.7405 -2.8602
  121OSM   H16T12748   6.231   1.969   5.619 -0.5961 -1.4781  0.2351
  121OSM   C17S12749   6.099   2.112   5.505 -0.1987 -0.2540  0.3178
  121OSM   H17S12750   6.086   2.180   5.592  2.5592 -0.1551  0.7306
  121OSM   H17T12751   5.998   2.115   5.459  0.1323 -2.7059 -0.7044
  121OSM   C18S12752   6.211   2.156   5.403 -0.9030  0.7111  0.4847
  121OSM   H18S12753   6.191   2.252   5.351  3.0565 -0.3535 -3.6770
  121OSM   H18T12754   6.231   2.079   5.326  0.0842  0.3719  1.0622
  121OSM   H18U12755   6.303   2.181   5.460 -0.7320  1.5561 -0.1463
  121OSM    C1F12756   6.545   1.822   6.996 -0.1598 -0.2397 -0.0974
  121OSM     OF12757   6.567   1.705   7.009 -0.0038  0.0886 -0.0930
  121OSM    C2F12758   6.647   1.910   6.936  0.0326 -0.5227 -0.2390
  121OSM    H2F12759   6.738   1.889   6.996 -1.0339  0.2830  1.7493
  121OSM    H2G12760   6.614   2.015   6.954  0.2057  0.0402 -2.7995
  121OSM    C3F12761   6.660   1.877   6.786  0.0709  0.2250 -0.1578
  121OSM    H3F12762   6.676   1.768   6.780  1.6877  0.0314  4.4431
  121OSM    H3G12763   6.753   1.919   6.742  0.5840  0.1665  0.8600
  121OSM    C4F12764   6.544   1.921   6.693  0.0053  0.1722  0.2561
  121OSM    H4F12765   6.536   2.032   6.695 -1.5049  0.0693  1.0129
  121OSM    H4G12766   6.451   1.886   6.742  0.1485 -0.4307  0.0945
  121OSM    C5F12767   6.521   1.864   6.553  0.7984  0.5812  0.0084
  121OSM    H5F12768   6.415   1.875   6.522  1.0830 -0.1165 -1.2786
  121OSM    H5G12769   6.526   1.754   6.548  1.1341  0.6258 -0.6728
  121OSM    C6F12770   6.607   1.924   6.449 -0.4360 -0.0347  0.4590
  121OSM    H6F12771   6.708   1.933   6.495  0.1685 -0.1874 -0.8058
  121OSM    H6G12772   6.563   2.018   6.409  0.4720  0.2546  0.1040
  121OSM    C7F12773   6.623   1.832   6.328 -0.1695 -0.3880  0.0145
  121OSM    H7F12774   6.671   1.740   6.368  0.5117  0.7626  1.9658
  121OSM    H7G12775   6.696   1.861   6.249 -1.6000 -1.1829 -1.6585
  121OSM    C8F12776   6.495   1.791   6.248  0.0274  0.0730 -0.2662
  121OSM    H8F12777   6.434   1.738   6.325  2.1443  1.2936  2.4268
  121OSM    H8G12778   6.522   1.709   6.179 -3.0334 -2.1536  0.9551
  121OSM    C9F12779   6.431   1.911   6.171  0.4933  0.1536 -0.3057
  121OSM    H9F12780   6.348   1.962   6.221 -0.2423  0.2413 -1.5813
  121OSM   C10F12781   6.462   1.944   6.045 -0.3516 -0.4888 -1.1158
  121OSM   H10F12782   6.409   2.031   6.005  1.4150  1.1808  0.0285
  121OSM   C11F12783   6.571   1.900   5.951 -0.2989  0.1967 -0.5468
  121OSM   H11F12784   6.662   1.892   6.014 -1.3596  0.6334  1.1173
  121OSM   H11G12785   6.585   1.969   5.864  0.2341 -0.1978 -0.7781
  121OSM   C12F12786   6.541   1.765   5.897 -0.2592 -0.6010 -0.1307
  121OSM   H12F12787   6.452   1.765   5.831  1.3435 -1.2430 -2.4088
  121OSM   H12G12788   6.518   1.698   5.982 -1.3761  0.7336  0.6592
  121OSM   C13F12789   6.658   1.701   5.821 -0.0233 -0.0523 -0.5471
  121OSM   H13F12790   6.638   1.591   5.820  1.2776 -0.3582  1.2681
  121OSM   H13G12791   6.753   1.705   5.879 -0.6141 -0.1110  0.4417
  121OSM   C14F12792   6.657   1.762   5.678  0.4791  0.0125 -0.1422
  121OSM   H14F12793   6.686   1.868   5.694  1.0974  0.1051 -1.7529
  121OSM   H14G12794   6.553   1.760   5.638  0.5007  2.5914 -0.4918
  121OSM   C15F12795   6.739   1.669   5.588 -0.0380 -0.5604 -0.3449
  121OSM   H15F12796   6.696   1.567   5.588 -1.8152  0.1355  0.2882
  121OSM   H15G12797   6.833   1.659   5.646  0.0309 -2.2928 -0.7004
  121OSM   C16F12798   6.768   1.726   5.449  0.0979 -0.3290 -0.3339
  121OSM   H16F12799   6.824   1.820   5.469  0.5483 -0.6444 -0.0744
  121OSM   H16G12800   6.674   1.763   5.404 -0.7144 -0.6764  0.9926
  121OSM   C17F12801   6.834   1.641   5.346 -1.1591  0.1874 -0.5436
  121OSM   H17F12802   6.929   1.588   5.369 -1.3344 -1.8232 -3.8122
  121OSM   H17G12803   6.858   1.710   5.263 -1.6571 -0.9325 -1.6430
  121OSM   C18F12804   6.746   1.529   5.293  0.4498 -0.2835 -0.5375
  121OSM   H18F12805   6.794   1.477   5.207  0.7237 -0.0111 -0.5508
  121OSM   H18G12806   6.646   1.558   5.256 -0.2996 -0.2117  1.4197
  121OSM   H18H12807   6.727   1.459   5.378  0.9581  0.8120  0.5063
  122OSM      N12808   2.379   0.352   7.702 -0.0877  0.3609 -0.1249
  122OSM    C1512809   2.415   0.223   7.769 -0.3179  0.0765 -0.7552
  122OSM   H15A12810   2.350   0.200   7.852 -1.0879 -1.1302 -1.6562
  122OSM   H15B12811   2.517   0.223   7.803  0.6410  0.4618 -3.4088
  122OSM   H15C12812   2.408   0.143   7.697  2.4136 -1.6368  0.7276
  122OSM    C1412813   2.458   0.366   7.575 -0.4380  0.6251  0.5103
  122OSM   H14A12814   2.467   0.268   7.532 -0.2242  0.0061  1.9122
  122OSM   H14B12815   2.560   0.394   7.600 -0.7715  1.3781  1.0994
  122OSM   H14C12816   2.408   0.438   7.512  3.3745  3.1154 -0.0077
  122OSM    C1312817   2.238   0.349   7.666 -0.1512 -0.3996 -0.0688
  122OSM   H13A12818   2.173   0.336   7.752  1.5532 -0.6024  1.2458
  122OSM   H13B12819   2.215   0.273   7.594 -0.6840 -0.7708  0.4816
  122OSM   H13C12820   2.210   0.441   7.616  0.2791  0.4817  1.2247
  122OSM    C1212821   2.407   0.467   7.790 -0.8670  0.3508  0.2157
  122OSM   H12A12822   2.331   0.454   7.866 -1.7032 -4.1721 -1.1149
  122OSM   H12B12823   2.380   0.555   7.734 -2.3600  0.7903  1.5424
  122OSM    C1112824   2.553   0.486   7.849  0.8382 -0.1222 -0.8719
  122OSM   H11A12825   2.596   0.397   7.899 -0.7446  0.7677  2.3595
  122OSM   H11B12826   2.542   0.566   7.925  1.1769 -0.2396 -0.6979
  122OSM      P12827   2.644   0.681   7.693  0.3199  0.2000  0.2637
  122OSM    O1312828   2.524   0.759   7.742  0.4063  0.4006  0.7703
  122OSM    O1412829   2.780   0.739   7.714  0.0019  1.0422 -0.3762
  122OSM    O1112830   2.619   0.667   7.542 -0.1112 -0.9755  0.4682
  122OSM    O1212831   2.641   0.534   7.744 -0.0668  0.7864 -0.4993
  122OSM    C1S12832   2.725   0.631   7.452 -0.3718  0.2184  0.0938
  122OSM    H1S12833   2.754   0.525   7.471 -1.3040  0.1289  1.1215
  122OSM    H1T12834   2.816   0.694   7.458  0.6773 -0.9556 -2.3238
  122OSM     NF12835   2.794   0.586   7.225 -0.0242  0.3453  0.1660
  122OSM    HNF12836   2.862   0.645   7.182  1.2396 -1.8851 -1.0890
  122OSM    C2S12837   2.685   0.633   7.303  0.3903 -0.0649  1.1004
  122OSM    H2S12838   2.593   0.572   7.293 -0.9503  1.9953  0.4188
  122OSM    C3S12839   2.639   0.773   7.266  0.1956 -1.0007  0.3178
  122OSM    H3S12840   2.716   0.853   7.271 -0.6341 -0.2390  1.7135
  122OSM     O312841   2.526   0.811   7.343 -0.4975 -0.4843 -0.3045
  122OSM    HO312842   2.543   0.776   7.431 -0.3117  2.2172  0.8364
  122OSM    C4S12843   2.599   0.776   7.119  0.1566  0.1465  0.4365
  122OSM    H4S12844   2.678   0.754   7.045  0.1212  2.6187 -0.4347
  122OSM    C5S12845   2.474   0.792   7.060 -0.0097  0.0824  0.7630
  122OSM    H5S12846   2.386   0.809   7.125  0.0814  0.2305  0.8482
  122OSM    C6S12847   2.443   0.760   6.915  0.0734 -0.6607 -0.1168
  122OSM    H6S12848   2.423   0.852   6.857 -3.3059 -1.5574 -0.5944
  122OSM    H6T12849   2.344   0.709   6.913 -0.0685 -0.4409  0.7196
  122OSM    C7S12850   2.529   0.659   6.839 -0.5583  0.0370  0.6337
  122OSM    H7S12851   2.516   0.567   6.899  0.7946  0.8720  2.3082
  122OSM    H7T12852   2.637   0.686   6.831 -0.8488  0.5767 -4.2149
  122OSM    C8S12853   2.473   0.640   6.697  0.2689 -0.1316 -0.1795
  122OSM    H8S12854   2.550   0.577   6.646  1.2859  1.6402 -0.9080
  122OSM    H8T12855   2.466   0.735   6.641  2.0506 -0.1016 -0.4069
  122OSM    C9S12856   2.328   0.585   6.685  0.7937 -0.0441 -0.2629
  122OSM    H9S12857   2.254   0.661   6.717  0.6952 -1.1174  2.3637
  122OSM    H9T12858   2.307   0.508   6.763 -3.1731  0.7727 -0.3449
  122OSM   C10S12859   2.300   0.541   6.545  0.3404  0.4728  0.0969
  122OSM   H10S12860   2.213   0.472   6.548  0.5159  0.2662  0.5162
  122OSM   H10T12861   2.378   0.467   6.518 -0.8072 -1.6313  2.1939
  122OSM   C11S12862   2.287   0.662   6.449  0.3504 -0.0886  0.1623
  122OSM   H11S12863   2.386   0.712   6.443  0.2780 -0.1216 -3.7949
  122OSM   H11T12864   2.228   0.742   6.499 -0.0180  1.8877 -3.1307
  122OSM   C12S12865   2.238   0.630   6.309  0.4611 -0.3079  0.0064
  122OSM   H12S12866   2.128   0.623   6.294  0.8218 -4.2969 -2.1702
  122OSM   H12T12867   2.256   0.525   6.277 -0.7373  0.2295 -2.7338
  122OSM   C13S12868   2.304   0.721   6.199 -0.3898 -0.7065  0.3204
  122OSM   H13S12869   2.412   0.697   6.210  0.0142  1.5253  1.9638
  122OSM   H13T12870   2.277   0.827   6.219  1.7819 -0.1614  0.6680
  122OSM   C14S12871   2.254   0.680   6.053 -0.0798 -0.0432 -0.1416
  122OSM   H14S12872   2.144   0.696   6.049 -0.0401  0.1945 -3.5498
  122OSM   H14T12873   2.287   0.574   6.045  0.4828  0.0894  0.2976
  122OSM   C15S12874   2.326   0.753   5.936 -0.5128  0.2786 -0.1017
  122OSM   H15S12875   2.434   0.727   5.938 -0.0734  1.9970  1.0715
  122OSM   H15T12876   2.322   0.864   5.930 -0.5550  0.2752 -0.1372
  122OSM   C16S12877   2.270   0.694   5.800 -0.0875  0.8713 -0.3842
  122OSM   H16S12878   2.166   0.732   5.786 -0.9054 -1.4181 -1.1132
  122OSM   H16T12879   2.271   0.584   5.817  1.0799  1.0650  0.9830
  122OSM   C17S12880   2.363   0.730   5.685  0.1177  0.0633  0.1072
  122OSM   H17S12881   2.465   0.694   5.713  0.3975 -1.1085 -2.1058
  122OSM   H17T12882   2.365   0.840   5.673 -0.9020  0.1837  0.9896
  122OSM   C18S12883   2.322   0.676   5.548  0.7425  0.8427  0.9491
  122OSM   H18S12884   2.234   0.730   5.508  1.5842  1.0226 -0.7636
  122OSM   H18T12885   2.311   0.565   5.549  2.9432  0.5346 -0.4185
  122OSM   H18U12886   2.407   0.684   5.476  0.5583 -1.7718  0.3567
  122OSM    C1F12887   2.827   0.459   7.209  0.0514 -0.9252  0.1030
  122OSM     OF12888   2.755   0.368   7.245 -0.2309  0.0014  0.5742
  122OSM    C2F12889   2.959   0.434   7.148 -0.4831  1.3090 -0.4585
  122OSM    H2F12890   3.023   0.383   7.223 -1.2444  0.1782 -0.5499
  122OSM    H2G12891   3.010   0.521   7.102  1.9696  0.0217 -0.3295
  122OSM    C3F12892   2.934   0.337   7.028 -0.6155 -0.4478 -0.4365
  122OSM    H3F12893   2.876   0.247   7.056 -1.6838 -0.1360 -1.5625
  122OSM    H3G12894   3.037   0.314   6.992 -0.3067 -1.7144  1.1192
  122OSM    C4F12895   2.849   0.397   6.920 -0.1694 -0.8858  0.7850
  122OSM    H4F12896   2.754   0.445   6.952 -0.2029  0.8519 -1.6435
  122OSM    H4G12897   2.838   0.321   6.839  0.3368 -0.6209  0.4661
  122OSM    C5F12898   2.930   0.511   6.841  0.5287 -0.1084 -0.4433
  122OSM    H5F12899   3.035   0.480   6.822  0.3355 -0.0169 -1.7862
  122OSM    H5G12900   2.942   0.597   6.911  2.1855 -0.3772 -0.3596
  122OSM    C6F12901   2.862   0.540   6.704 -0.3297 -0.2746  0.2297
  122OSM    H6F12902   2.752   0.531   6.714 -0.3969  0.1205 -0.1114
  122OSM    H6G12903   2.895   0.460   6.634  0.5656  2.4586 -2.6724
  122OSM    C7F12904   2.908   0.676   6.643  0.2916  0.5208 -0.0364
  122OSM    H7F12905   3.016   0.697   6.656 -0.1863  3.3904  0.1217
  122OSM    H7G12906   2.853   0.759   6.693  0.3421  1.4277 -1.4074
  122OSM    C8F12907   2.886   0.699   6.494  0.1877  0.1103  0.1382
  122OSM    H8F12908   2.940   0.615   6.445 -2.1296 -1.6675  0.4397
  122OSM    H8G12909   2.925   0.801   6.473 -0.1763  0.4065  0.8650
  122OSM    C9F12910   2.739   0.692   6.455 -0.5868 -0.7597  0.8083
  122OSM    H9F12911   2.672   0.729   6.534  0.1613  1.9239  0.3061
  122OSM   C10F12912   2.680   0.631   6.355  0.4654 -0.0568  0.8350
  122OSM   H10F12913   2.570   0.633   6.350  0.3329 -2.3343  1.4502
  122OSM   C11F12914   2.751   0.570   6.238  0.7242 -0.5463  0.0149
  122OSM   H11F12915   2.784   0.466   6.258 -1.9431 -1.2903  0.8825
  122OSM   H11G12916   2.843   0.632   6.224  1.8686 -2.5739 -2.2057
  122OSM   C12F12917   2.654   0.547   6.116 -0.2239 -0.1682 -0.1054
  122OSM   H12F12918   2.652   0.642   6.058  2.3944  1.0685  1.6495
  122OSM   H12G12919   2.555   0.511   6.152  1.1017 -1.0875  2.9017
  122OSM   C13F12920   2.711   0.456   6.009  0.3732  0.5404 -0.1376
  122OSM   H13F12921   2.740   0.355   6.045  1.8997  1.0389  0.0968
  122OSM   H13G12922   2.808   0.506   5.988 -0.8000  2.3842 -1.4615
  122OSM   C14F12923   2.625   0.446   5.876 -0.1419  0.2134  0.5986
  122OSM   H14F12924   2.541   0.516   5.895  0.3432  0.4020  2.2557
  122OSM   H14G12925   2.593   0.341   5.859  1.7826 -0.6260  1.8447
  122OSM   C15F12926   2.699   0.506   5.757  0.2309 -0.1795 -0.7998
  122OSM   H15F12927   2.804   0.476   5.777 -0.8390 -3.2200  0.9085
  122OSM   H15G12928   2.696   0.617   5.760 -0.9729 -0.1959 -0.6812
  122OSM   C16F12929   2.643   0.467   5.626  0.2127 -0.4566  0.2524
  122OSM   H16F12930   2.540   0.506   5.614  1.3496  2.9623  0.3926
  122OSM   H16G12931   2.639   0.357   5.614 -0.3858 -0.9251  3.8514
  122OSM   C17F12932   2.734   0.522   5.509  0.4432 -0.4183  0.3664
  122OSM   H17F12933   2.833   0.480   5.538  1.3395  2.0262  1.1379
  122OSM   H17G12934   2.736   0.633   5.514 -1.1841 -0.1171 -2.8439
  122OSM   C18F12935   2.684   0.477   5.371  0.1296 -0.0583  0.4048
  122OSM   H18F12936   2.740   0.514   5.283 -1.6272 -0.5877 -0.9939
  122OSM   H18G12937   2.580   0.516   5.358  1.0820  1.8158 -2.5610
  122OSM   H18H12938   2.671   0.366   5.374 -1.6469  0.1354  2.0812
  123OSM      N12939   1.119   2.968   2.876  0.0239 -0.6680  0.2856
  123OSM    C1512940   1.034   3.056   2.964 -0.1468 -0.1604 -0.3773
  123OSM   H15A12941   0.979   3.000   3.038  3.2125  0.4436  2.9242
  123OSM   H15B12942   0.978   3.133   2.913 -1.5706 -1.0014 -0.1330
  123OSM   H15C12943   1.105   3.107   3.028 -0.1546 -2.6976  1.8291
  123OSM    C1412944   1.202   2.898   2.976  0.4339 -0.0417  0.2795
  123OSM   H14A12945   1.143   2.835   3.041  0.7453 -1.1023 -0.4316
  123OSM   H14B12946   1.257   2.973   3.032 -0.7433  2.3555 -1.5932
  123OSM   H14C12947   1.272   2.826   2.936  0.6944 -1.4940  3.1219
  123OSM    C1312948   1.029   2.884   2.792  0.0681  0.3108  0.0715
  123OSM   H13A12949   0.992   2.804   2.855  1.4109  0.1947  0.7565
  123OSM   H13B12950   1.085   2.830   2.717 -0.2906 -0.4926  0.3580
  123OSM   H13C12951   0.940   2.937   2.762  0.5626  1.4506  0.5964
  123OSM    C1212952   1.202   3.066   2.795  0.3631 -0.1947 -0.3602
  123OSM   H12A12953   1.225   3.146   2.864 -2.7355  0.2929  0.2119
  123OSM   H12B12954   1.156   3.104   2.705 -1.7478 -1.6846  0.0395
  123OSM    C1112955   1.331   3.004   2.739 -0.2100 -0.8693 -0.2315
  123OSM   H11A12956   1.402   2.990   2.823 -0.6767  0.0066  0.3316
  123OSM   H11B12957   1.374   3.080   2.669  0.2571 -2.1827 -1.4085
  123OSM      P12958   1.413   2.774   2.671 -0.9609  0.5213 -0.0725
  123OSM    O1312959   1.382   2.657   2.584 -0.4259 -0.5550 -0.0509
  123OSM    O1412960   1.548   2.834   2.656  0.0999 -0.0833 -0.4730
  123OSM    O1112961   1.404   2.731   2.826 -0.4501  0.6035  0.4444
  123OSM    O1212962   1.300   2.882   2.667  0.1938  0.1685 -0.2699
  123OSM    C1S12963   1.524   2.697   2.891  0.9638  0.2312 -0.5301
  123OSM    H1S12964   1.597   2.781   2.890 -0.3991  1.4413 -1.6739
  123OSM    H1T12965   1.578   2.613   2.842 -0.2331  0.0494 -1.5885
  123OSM     NF12966   1.616   2.637   3.116 -0.0296  0.2259  0.6795
  123OSM    HNF12967   1.618   2.554   3.172  1.7370 -0.0754  0.2340
  123OSM    C2S12968   1.489   2.649   3.038 -0.5349 -0.4772  0.6184
  123OSM    H2S12969   1.431   2.736   3.076  0.6785  0.7417 -0.2257
  123OSM    C3S12970   1.399   2.518   3.023 -0.3424  0.3481  0.2069
  123OSM    H3S12971   1.459   2.427   3.003 -1.1157 -0.1998  0.3926
  123OSM     O312972   1.298   2.512   2.928 -0.3674 -0.6235  0.3808
  123OSM    HO312973   1.311   2.588   2.870 -1.6786 -0.5686  0.1128
  123OSM    C4S12974   1.334   2.500   3.156  0.1103  0.3094  0.0437
  123OSM    H4S12975   1.271   2.584   3.186 -0.2437  0.1839 -0.3403
  123OSM    C5S12976   1.341   2.385   3.227 -0.1376 -1.2395  0.2647
  123OSM    H5S12977   1.406   2.301   3.199 -0.3890 -1.0393 -0.9551
  123OSM    C6S12978   1.254   2.348   3.347 -0.3146 -0.6252 -0.3223
  123OSM    H6S12979   1.199   2.251   3.344 -2.9641  0.7628  0.1927
  123OSM    H6T12980   1.185   2.428   3.382 -0.8803 -1.2186 -0.0394
  123OSM    C7S12981   1.353   2.324   3.466 -0.6877 -0.5905 -0.1518
  123OSM    H7S12982   1.433   2.402   3.464  1.0443 -2.0868  2.9639
  123OSM    H7T12983   1.400   2.223   3.469 -0.4081 -0.5602 -2.1409
  123OSM    C8S12984   1.287   2.340   3.608 -0.1635  0.0625  0.0372
  123OSM    H8S12985   1.233   2.243   3.616  2.9791 -1.6837  1.8757
  123OSM    H8T12986   1.208   2.419   3.610  1.0330  1.2899  0.6896
  123OSM    C9S12987   1.392   2.355   3.721  0.6138  0.0174  0.6697
  123OSM    H9S12988   1.383   2.459   3.761 -0.2332 -0.2041  1.0807
  123OSM    H9T12989   1.494   2.331   3.685 -0.2053 -1.5467 -0.7245
  123OSM   C10S12990   1.359   2.263   3.831 -0.2865  0.8506 -0.8801
  123OSM   H10S12991   1.349   2.160   3.789  0.5004  0.7677 -0.8774
  123OSM   H10T12992   1.258   2.283   3.872 -0.7932  0.0747 -1.7272
  123OSM   C11S12993   1.446   2.269   3.951 -0.3750 -0.1492 -0.3324
  123OSM   H11S12994   1.498   2.366   3.967 -3.1021  1.2939  0.3889
  123OSM   H11T12995   1.515   2.182   3.953 -0.4574 -0.2205  1.4866
  123OSM   C12S12996   1.366   2.251   4.079 -0.1216  0.5845 -0.4998
  123OSM   H12S12997   1.296   2.164   4.075  0.4770 -0.0715  1.7315
  123OSM   H12T12998   1.316   2.343   4.116 -0.3306 -0.3073  1.5850
  123OSM   C13S12999   1.455   2.234   4.206 -0.2937 -0.3099  0.2920
  123OSM   H13S13000   1.540   2.175   4.164  0.1192  1.3937 -1.3934
  123OSM   H13T13001   1.398   2.174   4.280 -0.3933 -0.7795 -0.1586
  123OSM   C14S13002   1.499   2.373   4.261 -0.0725  1.5466  0.1480
  123OSM   H14S13003   1.416   2.440   4.292 -1.8798  0.1943 -1.5059
  123OSM   H14T13004   1.562   2.420   4.183 -0.2830  0.5094 -0.6600
  123OSM   C15S13005   1.596   2.360   4.372  0.0427  0.4325  0.0203
  123OSM   H15S13006   1.643   2.460   4.389 -2.3415  1.6938 -0.3425
  123OSM   H15T13007   1.674   2.289   4.339 -1.7112 -1.5145 -0.1649
  123OSM   C16S13008   1.531   2.317   4.503  0.3776  0.8285  0.0372
  123OSM   H16S13009   1.505   2.210   4.519  1.1078  0.4250 -1.2531
  123OSM   H16T13010   1.437   2.374   4.514 -0.3959 -0.2011 -0.9386
  123OSM   C17S13011   1.613   2.353   4.630  0.1614 -0.1883  0.2905
  123OSM   H17S13012   1.608   2.464   4.632  0.9734 -0.1534  2.4060
  123OSM   H17T13013   1.719   2.324   4.611 -0.0702 -0.3016 -0.9043
  123OSM   C18S13014   1.563   2.305   4.761 -0.7954  0.3486 -0.0412
  123OSM   H18S13015   1.582   2.370   4.849 -3.8953  0.6727  0.5106
  123OSM   H18T13016   1.611   2.207   4.781  1.0857  1.3436  0.5822
  123OSM   H18U13017   1.457   2.273   4.770 -0.3438 -0.8376  1.3697
  123OSM    C1F13018   1.696   2.741   3.150 -0.1026  0.0050  0.2561
  123OSM     OF13019   1.662   2.860   3.127  0.0244 -0.5240  0.4511
  123OSM    C2F13020   1.818   2.709   3.233  0.5020  0.1900 -0.0266
  123OSM    H2F13021   1.887   2.632   3.192  0.8842 -0.8635  2.4234
  123OSM    H2G13022   1.781   2.664   3.328  0.7234  2.2081  1.0670
  123OSM    C3F13023   1.905   2.830   3.259  0.6518 -0.1846  0.0967
  123OSM    H3F13024   1.860   2.911   3.320 -0.5281  0.3215 -1.3901
  123OSM    H3G13025   1.938   2.881   3.165  0.5548  1.1402  0.7614
  123OSM    C4F13026   2.038   2.796   3.323 -0.9622  0.1976 -0.8853
  123OSM    H4F13027   2.109   2.880   3.336  1.5441 -1.8381 -0.5677
  123OSM    H4G13028   2.089   2.719   3.260  1.2268  0.1892  0.7725
  123OSM    C5F13029   2.022   2.742   3.469  0.0048  0.5290  0.1189
  123OSM    H5F13030   2.013   2.632   3.458 -2.0387  0.7787 -1.2313
  123OSM    H5G13031   1.932   2.790   3.512 -1.9697 -1.4275 -1.5928
  123OSM    C6F13032   2.149   2.761   3.556  0.1219 -0.6533 -0.1175
  123OSM    H6F13033   2.155   2.866   3.591  2.2055 -0.4245 -1.0311
  123OSM    H6G13034   2.239   2.734   3.496  0.0246 -1.0937 -0.0662
  123OSM    C7F13035   2.152   2.676   3.687 -0.6489  1.0436 -0.1604
  123OSM    H7F13036   2.170   2.569   3.660 -0.1317  1.1415 -0.2059
  123OSM    H7G13037   2.056   2.677   3.743  0.3873  0.4678  1.7241
  123OSM    C8F13038   2.257   2.716   3.793  0.1567  0.6575 -0.2935
  123OSM    H8F13039   2.218   2.670   3.886  2.4573 -1.0566 -0.1029
  123OSM    H8G13040   2.246   2.825   3.813 -0.6789  0.6767 -0.7898
  123OSM    C9F13041   2.394   2.664   3.752  0.7840  0.4790  0.9350
  123OSM    H9F13042   2.416   2.674   3.644  3.1949  0.5995  1.3772
  123OSM   C10F13043   2.485   2.603   3.830 -0.0268  0.4406 -0.3600
  123OSM   H10F13044   2.581   2.569   3.790  0.0856 -2.0686  1.8017
  123OSM   C11F13045   2.475   2.594   3.981  0.3858  0.0454 -0.1520
  123OSM   H11F13046   2.505   2.493   4.018  2.4555  0.2605 -1.1380
  123OSM   H11G13047   2.370   2.615   4.012 -0.1005 -1.0771 -0.9679
  123OSM   C12F13048   2.564   2.706   4.043 -0.5619  0.3715 -0.3487
  123OSM   H12F13049   2.539   2.798   3.986 -0.1066  1.0001  0.4397
  123OSM   H12G13050   2.671   2.676   4.041 -0.3722  0.4580  2.7124
  123OSM   C13F13051   2.515   2.737   4.188 -0.3744 -0.1346  0.8173
  123OSM   H13F13052   2.414   2.783   4.193  0.4179  1.6583  1.0677
  123OSM   H13G13053   2.573   2.818   4.236 -0.8109  0.0149  1.0987
  123OSM   C14F13054   2.537   2.617   4.286 -0.4230  0.2516  0.0814
  123OSM   H14F13055   2.640   2.577   4.275  0.8766  3.2396  0.5288
  123OSM   H14G13056   2.463   2.540   4.256  0.2080 -0.5788  0.6087
  123OSM   C15F13057   2.531   2.665   4.433 -0.3055  0.1305 -0.3226
  123OSM   H15F13058   2.427   2.693   4.458 -1.2709 -1.9283 -1.7170
  123OSM   H15G13059   2.601   2.751   4.436 -1.4435  1.1372 -1.6196
  123OSM   C16F13060   2.575   2.559   4.534  0.2785  0.8369 -0.3517
  123OSM   H16F13061   2.679   2.520   4.522  0.1321 -0.0307  0.9592
  123OSM   H16G13062   2.512   2.474   4.500  0.0926  0.7742  0.1441
  123OSM   C17F13063   2.553   2.598   4.678  0.3909 -0.1774  0.0051
  123OSM   H17F13064   2.447   2.630   4.682 -0.0841 -1.4580 -1.5100
  123OSM   H17G13065   2.616   2.688   4.697  0.5417 -0.1807 -0.4656
  123OSM   C18F13066   2.584   2.489   4.783  0.3122  0.5372 -0.1350
  123OSM   H18F13067   2.685   2.448   4.761 -0.5947 -1.5675 -0.5995
  123OSM   H18G13068   2.510   2.408   4.768  1.2308 -0.2329 -0.6718
  123OSM   H18H13069   2.578   2.528   4.887  1.0281 -0.1908  0.1944
  124OSM      N13070   2.206   4.706   2.357  0.1422  0.8831 -0.0304
  124OSM    C1513071   2.069   4.716   2.325 -0.3218 -0.3936  0.4641
  124OSM   H15A13072   2.012   4.692   2.413 -2.2548  1.4459 -0.2042
  124OSM   H15B13073   2.034   4.661   2.239 -1.3550  0.5977  0.2249
  124OSM   H15C13074   2.040   4.819   2.308 -0.5582 -0.2183  1.7834
  124OSM    C1413075   2.244   4.567   2.377  0.0598 -0.3907 -0.0023
  124OSM   H14A13076   2.233   4.502   2.292 -4.0672  0.4720 -0.3414
  124OSM   H14B13077   2.188   4.528   2.462  2.0997  2.5523  2.9354
  124OSM   H14C13078   2.347   4.562   2.409  0.9608 -2.7893 -2.8666
  124OSM    C1313079   2.286   4.759   2.234 -0.3806 -0.5609  0.3658
  124OSM   H13A13080   2.388   4.786   2.257 -1.0571  3.4259 -0.6137
  124OSM   H13B13081   2.243   4.851   2.199  1.2043 -0.2182 -0.7701
  124OSM   H13C13082   2.286   4.684   2.156 -3.2060 -0.5901  0.2985
  124OSM    C1213083   2.242   4.789   2.472 -0.8492 -0.4884  0.3758
  124OSM   H12A13084   2.218   4.891   2.445 -0.2167 -0.7168 -1.1631
  124OSM   H12B13085   2.350   4.780   2.476 -0.6210 -0.3036 -2.8798
  124OSM    C1113086   2.150   4.770   2.602 -0.3182  0.2574  0.0253
  124OSM   H11A13087   2.198   4.828   2.683 -0.6989  0.0170  0.4306
  124OSM   H11B13088   2.153   4.665   2.638  1.3904  0.7296  1.3897
  124OSM      P13089   1.986   4.974   2.562 -0.3749  0.3104  0.1400
  124OSM    O1313090   2.079   5.033   2.468  0.2091 -0.0131  0.2809
  124OSM    O1413091   1.840   4.986   2.532  0.1377 -0.1711  0.2205
  124OSM    O1113092   2.019   5.026   2.710  0.0738 -0.2346 -0.3256
  124OSM    O1213093   2.020   4.822   2.585  0.2652  0.6029 -0.1696
  124OSM    C1S13094   1.957   5.152   2.750 -0.4521 -0.5016 -0.2917
  124OSM    H1S13095   1.866   5.130   2.809  0.2127  0.4186  1.1193
  124OSM    H1T13096   1.932   5.220   2.666 -1.7649 -0.4461  0.1240
  124OSM     NF13097   1.965   5.327   2.928 -0.2347 -0.4308  0.2698
  124OSM    HNF13098   1.984   5.424   2.911 -0.4651 -0.7240 -2.0569
  124OSM    C2S13099   2.052   5.229   2.855  0.6526 -0.2516 -0.2192
  124OSM    H2S13100   2.080   5.147   2.925 -0.1429 -1.4332 -1.2329
  124OSM    C3S13101   2.183   5.284   2.785 -0.2349 -0.3814  1.1108
  124OSM    H3S13102   2.160   5.334   2.689 -1.2781 -0.6216  1.2268
  124OSM     O313103   2.268   5.174   2.748  0.0151  0.3397  0.1209
  124OSM    HO313104   2.216   5.104   2.787 -0.6976  0.9254  0.2427
  124OSM    C4S13105   2.263   5.363   2.878  0.9991  0.0372  0.0774
  124OSM    H4S13106   2.302   5.300   2.959 -2.6205 -2.4799  0.0743
  124OSM    C5S13107   2.280   5.496   2.866  0.0712 -0.5738  0.0372
  124OSM    H5S13108   2.248   5.554   2.778 -0.0470  1.7307  1.5217
  124OSM    C6S13109   2.349   5.570   2.978 -0.5232 -0.2235  0.0906
  124OSM    H6S13110   2.293   5.663   3.000  0.8194  1.2749 -2.4051
  124OSM    H6T13111   2.450   5.608   2.954 -0.5544  0.2441  0.6862
  124OSM    C7S13112   2.388   5.506   3.115  0.5300  0.3229 -0.2365
  124OSM    H7S13113   2.441   5.408   3.115 -0.7908 -0.4572 -1.7930
  124OSM    H7T13114   2.286   5.485   3.154  0.7269 -0.7317 -0.2518
  124OSM    C8S13115   2.457   5.610   3.204 -0.0893  0.4430  0.8963
  124OSM    H8S13116   2.393   5.699   3.216 -1.2252 -0.2936  0.4015
  124OSM    H8T13117   2.540   5.644   3.138 -1.7411 -2.0770 -2.8247
  124OSM    C9S13118   2.489   5.554   3.345  0.0794  0.4922  0.1907
  124OSM    H9S13119   2.519   5.447   3.333  0.5474  0.7485 -1.2073
  124OSM    H9T13120   2.392   5.549   3.398 -0.3809 -0.9477 -0.7044
  124OSM   C10S13121   2.593   5.629   3.421  0.3412  0.2597  0.5706
  124OSM   H10S13122   2.562   5.730   3.455  0.6984 -0.1810  2.2755
  124OSM   H10T13123   2.685   5.648   3.361 -1.0072  1.4079 -1.2621
  124OSM   C11S13124   2.630   5.559   3.555 -0.0185 -0.0907 -0.1937
  124OSM   H11S13125   2.734   5.592   3.576  0.4404  0.0995 -2.5403
  124OSM   H11T13126   2.635   5.449   3.541  0.3559 -0.0672 -0.2647
  124OSM   C12S13127   2.529   5.586   3.663  0.4505 -0.5467 -0.0810
  124OSM   H12S13128   2.429   5.567   3.618  0.4172 -2.3041  0.6695
  124OSM   H12T13129   2.537   5.695   3.682 -3.9233  0.0156 -0.2454
  124OSM   C13S13130   2.546   5.511   3.801 -0.0828  0.2719 -0.7287
  124OSM   H13S13131   2.523   5.403   3.794  0.9765 -0.1461  1.5389
  124OSM   H13T13132   2.462   5.549   3.863 -0.2251 -3.9153  2.0295
  124OSM   C14S13133   2.684   5.534   3.869  0.1909 -0.5571 -0.1655
  124OSM   H14S13134   2.689   5.632   3.922  1.6435 -1.2805  1.1121
  124OSM   H14T13135   2.762   5.538   3.790  1.4498 -2.5337  0.9091
  124OSM   C15S13136   2.718   5.426   3.975 -0.2729  0.6965  0.4275
  124OSM   H15S13137   2.827   5.443   3.987  0.1449 -2.0214  1.1238
  124OSM   H15T13138   2.728   5.322   3.937  0.3158  0.6882  0.6053
  124OSM   C16S13139   2.663   5.452   4.112 -0.3256  0.1390 -0.1058
  124OSM   H16S13140   2.559   5.413   4.123  0.1175 -0.5170  2.2993
  124OSM   H16T13141   2.649   5.560   4.134 -0.8930  0.5413 -2.1794
  124OSM   C17S13142   2.733   5.364   4.214 -0.1810 -0.6092 -0.1853
  124OSM   H17S13143   2.844   5.359   4.205 -0.0897 -1.6293  1.1699
  124OSM   H17T13144   2.695   5.262   4.194 -1.1300 -0.7159  1.9158
  124OSM   C18S13145   2.687   5.397   4.361  0.4183 -0.2311 -0.4050
  124OSM   H18S13146   2.576   5.390   4.358  0.2282  1.9352  0.0909
  124OSM   H18T13147   2.704   5.502   4.392 -1.2028 -0.1078  0.1792
  124OSM   H18U13148   2.730   5.325   4.434 -1.3328  0.0068  0.9403
  124OSM    C1F13149   1.865   5.290   3.011 -0.4556 -0.3601  1.2023
  124OSM     OF13150   1.845   5.167   3.033  0.9315  0.5837  0.4730
  124OSM    C2F13151   1.781   5.394   3.070  0.1106  0.0471 -0.4893
  124OSM    H2F13152   1.700   5.410   2.996 -3.0067  1.0893  2.8314
  124OSM    H2G13153   1.829   5.494   3.081 -1.3152  0.7399 -0.3441
  124OSM    C3F13154   1.721   5.362   3.208  0.6426 -0.8419  0.4425
  124OSM    H3F13155   1.649   5.277   3.214 -1.3158  0.7996  1.6668
  124OSM    H3G13156   1.664   5.454   3.235  1.8872 -0.2672  1.1726
  124OSM    C4F13157   1.815   5.349   3.326  0.1398 -0.2420 -0.4372
  124OSM    H4F13158   1.864   5.448   3.337 -0.9729  0.1096  1.9345
  124OSM    H4G13159   1.889   5.265   3.323  2.1953  1.3374  2.2405
  124OSM    C5F13160   1.744   5.329   3.459  1.0028 -0.0150  0.6122
  124OSM    H5F13161   1.682   5.238   3.443 -0.1943  0.6061  1.5400
  124OSM    H5G13162   1.675   5.413   3.483  1.8897  0.8666  0.1791
  124OSM    C6F13163   1.838   5.313   3.575 -0.1547  0.2089  0.0914
  124OSM    H6F13164   1.922   5.384   3.555 -0.8805  0.9286 -0.4337
  124OSM    H6G13165   1.862   5.206   3.594 -0.6591 -0.0514 -0.7249
  124OSM    C7F13166   1.768   5.358   3.705 -0.7350 -0.0148 -0.1300
  124OSM    H7F13167   1.682   5.289   3.716  1.1642 -2.8044 -1.6602
  124OSM    H7G13168   1.726   5.460   3.690 -0.1588 -0.1069 -2.7379
  124OSM    C8F13169   1.861   5.329   3.822 -0.3453  0.0841 -0.0120
  124OSM    H8F13170   1.946   5.397   3.805 -2.9603  3.8415  0.7049
  124OSM    H8G13171   1.892   5.222   3.819  0.8745  0.4199  0.0770
  124OSM    C9F13172   1.786   5.379   3.946  0.8160  0.2349 -0.3259
  124OSM    H9F13173   1.764   5.487   3.943 -0.0787  0.0349 -2.1015
  124OSM   C10F13174   1.742   5.302   4.052 -0.0849 -0.0507 -0.3000
  124OSM   H10F13175   1.707   5.348   4.146 -2.5593 -2.0558 -0.1174
  124OSM   C11F13176   1.760   5.152   4.068  0.5000  0.1503  0.1613
  124OSM   H11F13177   1.807   5.104   3.980  3.4772  0.6653  1.3477
  124OSM   H11G13178   1.661   5.103   4.078  0.6003 -0.1895 -0.5128
  124OSM   C12F13179   1.830   5.117   4.202  0.2282  0.3837  0.5647
  124OSM   H12F13180   1.938   5.144   4.202 -0.0170  1.4405  1.1167
  124OSM   H12G13181   1.827   5.006   4.208  0.6454  0.3831  0.7896
  124OSM   C13F13182   1.763   5.166   4.334 -0.2325  0.3881  0.2068
  124OSM   H13F13183   1.653   5.157   4.322 -0.1455  0.7013 -0.9665
  124OSM   H13G13184   1.792   5.272   4.356 -0.2305  0.7208 -1.2816
  124OSM   C14F13185   1.811   5.080   4.455  1.0705  0.2188  0.0200
  124OSM   H14F13186   1.917   5.108   4.472  0.1489  2.6335  2.3428
  124OSM   H14G13187   1.795   4.972   4.431  0.1779  0.5980 -1.1799
  124OSM   C15F13188   1.725   5.096   4.578  1.1136  0.2572 -0.4851
  124OSM   H15F13189   1.764   5.035   4.661 -0.6892  1.0163  0.9966
  124OSM   H15G13190   1.621   5.059   4.561  0.8857  1.1973 -1.2776
  124OSM   C16F13191   1.720   5.245   4.613  0.2869 -0.6781  0.1012
  124OSM   H16F13192   1.658   5.300   4.540  1.7234  1.2940  0.2939
  124OSM   H16G13193   1.825   5.277   4.628  0.6769 -1.7814 -0.2089
  124OSM   C17F13194   1.649   5.277   4.749 -0.3493 -0.1658 -0.8657
  124OSM   H17F13195   1.695   5.241   4.844 -0.3090 -0.5089 -1.0119
  124OSM   H17G13196   1.551   5.224   4.745 -0.3612 -0.1876 -0.3312
  124OSM   C18F13197   1.613   5.426   4.769 -0.7419  1.0681 -0.1323
  124OSM   H18F13198   1.708   5.484   4.768  0.3291 -0.6457 -1.0171
  124OSM   H18G13199   1.554   5.436   4.863  1.5342 -2.0163  1.8280
  124OSM   H18H13200   1.554   5.459   4.680  0.2219  2.2965 -0.3492
  125OSM      N13201   3.104   0.128   3.098 -0.2537  0.0498  0.2017
  125OSM    C1513202   2.978   0.157   3.034  0.0675 -0.1842 -0.2706
  125OSM   H15A13203   2.964   0.264   3.032  3.2781  0.3246  0.2136
  125OSM   H15B13204   2.896   0.105   3.080  1.6248 -2.9666 -0.4580
  125OSM   H15C13205   2.969   0.121   2.932 -0.4653  1.7367 -0.9493
  125OSM    C1413206   3.138  -0.021   3.068  0.9832 -0.6485 -1.1510
  125OSM   H14A13207   3.163  -0.031   2.963  0.6956 -1.1726 -1.1707
  125OSM   H14B13208   3.057  -0.089   3.090  1.0412 -0.3259  0.1127
  125OSM   H14C13209   3.218  -0.049   3.133  1.1997  1.4206 -0.4382
  125OSM    C1313210   3.205   0.222   3.030 -0.1219  0.6007  0.1258
  125OSM   H13A13211   3.301   0.172   3.025 -0.3209 -0.0621  2.1406
  125OSM   H13B13212   3.220   0.319   3.076 -0.0365  0.3650  0.5932
  125OSM   H13C13213   3.183   0.234   2.924  1.9764  0.7224 -0.3401
  125OSM    C1213214   3.105   0.162   3.245  0.4144 -0.2508  0.0195
  125OSM   H12A13215   3.027   0.101   3.289  2.1671 -1.4050  1.7082
  125OSM   H12B13216   3.071   0.261   3.269  0.6940 -0.1296 -0.0775
  125OSM    C1113217   3.238   0.141   3.324  0.0530 -0.4315  0.3314
  125OSM   H11A13218   3.282   0.044   3.290 -0.5871  0.1452 -2.4193
  125OSM   H11B13219   3.218   0.132   3.433 -0.4347  0.3746  0.3179
  125OSM      P13220   3.302   0.395   3.338  0.2040  0.5618 -0.1163
  125OSM    O1313221   3.420   0.483   3.308  0.0554  0.7687  0.2411
  125OSM    O1413222   3.172   0.432   3.280 -0.9615 -0.0677 -0.1683
  125OSM    O1113223   3.288   0.375   3.495  0.1173  0.2877  0.0524
  125OSM    O1213224   3.334   0.246   3.296 -0.3326  0.1755 -0.2598
  125OSM    C1S13225   3.400   0.345   3.586  0.0491 -0.1759 -0.2330
  125OSM    H1S13226   3.477   0.425   3.576 -1.1740  0.8855 -1.4505
  125OSM    H1T13227   3.440   0.245   3.559 -2.2215 -0.8744 -1.1606
  125OSM     NF13228   3.484   0.318   3.813  0.8984  0.1979 -0.6066
  125OSM    HNF13229   3.509   0.227   3.844  1.8274 -0.1593 -2.2987
  125OSM    C2S13230   3.359   0.332   3.736 -1.3807 -0.3098  0.2128
  125OSM    H2S13231   3.308   0.425   3.769 -2.2229 -0.8985  0.6198
  125OSM    C3S13232   3.255   0.220   3.748  0.6564 -0.0042  0.3628
  125OSM    H3S13233   3.308   0.127   3.719 -0.5079 -0.7783  0.6604
  125OSM     O313234   3.136   0.242   3.665 -0.0700  0.0232  0.3622
  125OSM    HO313235   3.154   0.324   3.619 -1.7277  1.3711  1.9766
  125OSM    C4S13236   3.208   0.214   3.882 -0.2719  0.4419 -0.4018
  125OSM    H4S13237   3.133   0.292   3.906 -0.7418  1.0138 -3.3590
  125OSM    C5S13238   3.259   0.132   3.976  0.1136 -0.4853  0.4385
  125OSM    H5S13239   3.351   0.076   3.954  0.1018  0.7106 -3.3308
  125OSM    C6S13240   3.214   0.135   4.119  0.4187 -0.2719  0.1623
  125OSM    H6S13241   3.225   0.030   4.154  0.2917 -0.5068 -0.4969
  125OSM    H6T13242   3.104   0.151   4.129  0.2469 -1.3218  0.0678
  125OSM    C7S13243   3.296   0.233   4.202 -0.3628 -0.3413  0.2587
  125OSM    H7S13244   3.294   0.339   4.170  2.2381 -0.1600  0.4928
  125OSM    H7T13245   3.401   0.198   4.187 -0.0020  0.5515  0.5988
  125OSM    C8S13246   3.268   0.217   4.350  0.7066 -0.0041  0.0109
  125OSM    H8S13247   3.350   0.276   4.397 -0.9604  3.2846 -0.8977
  125OSM    H8T13248   3.281   0.107   4.364  2.6366 -0.0858 -1.8452
  125OSM    C9S13249   3.130   0.265   4.394  0.8238  0.5227 -0.1448
  125OSM    H9S13250   3.056   0.213   4.328  1.8541  0.0894 -0.9790
  125OSM    H9T13251   3.137   0.373   4.370 -1.9992  0.9614  0.5990
  125OSM   C10S13252   3.087   0.239   4.540 -0.2890 -0.5009 -0.2705
  125OSM   H10S13253   3.073   0.129   4.546  1.9261 -0.7962  0.9953
  125OSM   H10T13254   2.999   0.305   4.555  1.1803  1.5512 -0.2575
  125OSM   C11S13255   3.192   0.277   4.650  0.2671  1.3457  0.4581
  125OSM   H11S13256   3.255   0.363   4.618  0.0364  2.0564  1.8408
  125OSM   H11T13257   3.258   0.192   4.676 -2.9734 -1.2186  0.8910
  125OSM   C12S13258   3.123   0.294   4.788  0.1850  0.3500  0.5137
  125OSM   H12S13259   3.062   0.204   4.812 -1.4371  1.4720  0.8053
  125OSM   H12T13260   3.053   0.380   4.776  0.9827  0.7338 -1.9912
  125OSM   C13S13261   3.223   0.328   4.900  0.8194  0.4806 -0.6449
  125OSM   H13S13262   3.300   0.391   4.851  0.0726  1.1653 -0.9436
  125OSM   H13T13263   3.265   0.231   4.935  0.8188  0.0710 -1.7540
  125OSM   C14S13264   3.154   0.391   5.015  0.2288 -0.4408 -0.3838
  125OSM   H14S13265   3.230   0.402   5.095  0.3717 -1.7537 -0.3220
  125OSM   H14T13266   3.074   0.336   5.067  0.1849  1.0483  1.1952
  125OSM   C15S13267   3.103   0.530   4.978 -0.8625 -0.4400 -0.4413
  125OSM   H15S13268   3.028   0.541   4.897 -1.7868  3.8410  0.7671
  125OSM   H15T13269   3.198   0.581   4.951 -2.4499  2.4669 -0.9732
  125OSM   C16S13270   3.052   0.600   5.104 -0.4201 -0.1267 -0.0855
  125OSM   H16S13271   3.128   0.617   5.183 -0.6536  0.6359 -0.0222
  125OSM   H16T13272   2.987   0.521   5.149 -0.9835 -0.9608 -2.2323
  125OSM   C17S13273   2.966   0.726   5.077  0.1426 -0.4829  0.4137
  125OSM   H17S13274   2.882   0.707   5.006 -0.8918  2.6529  0.6575
  125OSM   H17T13275   3.037   0.797   5.029  1.8052 -0.9143  2.0927
  125OSM   C18S13276   2.910   0.785   5.207  0.8674  0.6046 -0.7496
  125OSM   H18S13277   2.863   0.885   5.194  1.0427  0.9507  1.0931
  125OSM   H18T13278   2.992   0.797   5.282 -0.3711 -1.3143  0.9972
  125OSM   H18U13279   2.842   0.716   5.259 -1.1729  2.3659 -0.9407
  125OSM    C1F13280   3.568   0.412   3.834 -0.6699 -0.0667  0.0817
  125OSM     OF13281   3.540   0.526   3.797 -0.0608  0.0237 -0.1791
  125OSM    C2F13282   3.696   0.371   3.901 -0.6020  0.4982  0.0155
  125OSM    H2F13283   3.786   0.395   3.840 -1.3917 -0.1582 -1.4669
  125OSM    H2G13284   3.694   0.260   3.913  1.2735  0.3469 -0.7321
  125OSM    C3F13285   3.708   0.429   4.039 -0.5413 -0.5662 -0.1549
  125OSM    H3F13286   3.607   0.425   4.084 -1.0555 -1.3086 -1.3256
  125OSM    H3G13287   3.740   0.534   4.022  1.7273 -0.9076  1.5399
  125OSM    C4F13288   3.820   0.373   4.133 -0.3968  0.2678  0.0071
  125OSM    H4F13289   3.907   0.371   4.064 -1.7788  1.1947 -1.8552
  125OSM    H4G13290   3.794   0.271   4.169  1.3121  0.4150  1.8159
  125OSM    C5F13291   3.842   0.468   4.251  0.4222 -0.4077  0.1484
  125OSM    H5F13292   3.751   0.480   4.313  0.5763  3.0700 -0.1486
  125OSM    H5G13293   3.862   0.568   4.208 -3.1427 -0.8031 -2.9440
  125OSM    C6F13294   3.962   0.434   4.347 -0.5631  0.4556  0.5475
  125OSM    H6F13295   3.948   0.331   4.386  0.9575  0.0187  0.0430
  125OSM    H6G13296   3.956   0.495   4.439  1.7954 -1.1478  1.8965
  125OSM    C7F13297   4.099   0.431   4.272 -0.2012 -0.0020 -0.0180
  125OSM    H7F13298   4.099   0.510   4.194  0.8240  0.1435  0.1180
  125OSM    H7G13299   4.102   0.337   4.213  0.3786  1.1039 -1.8111
  125OSM    C8F13300   4.228   0.436   4.366  0.7275 -0.1672 -0.4388
  125OSM    H8F13301   4.210   0.526   4.429 -2.6397 -1.4334  0.6241
  125OSM    H8G13302   4.320   0.471   4.314  2.4920  0.7379  2.9669
  125OSM    C9F13303   4.280   0.314   4.438 -0.2259  0.0089 -0.0146
  125OSM    H9F13304   4.297   0.220   4.385  0.9187  1.3372 -2.1290
  125OSM   C10F13305   4.294   0.310   4.569  0.3112  0.0914 -0.7093
  125OSM   H10F13306   4.308   0.209   4.608  1.3722  0.1332 -0.9632
  125OSM   C11F13307   4.267   0.419   4.681  0.1987 -0.0627  0.6393
  125OSM   H11F13308   4.184   0.488   4.654 -0.1538 -0.9481 -0.6310
  125OSM   H11G13309   4.357   0.485   4.685  0.7037 -0.6416 -0.7277
  125OSM   C12F13310   4.231   0.373   4.824  0.7326 -0.7090 -0.0439
  125OSM   H12F13311   4.282   0.445   4.890 -2.0504  0.7759  0.6500
  125OSM   H12G13312   4.281   0.275   4.839  0.8244 -0.5983  0.3819
  125OSM   C13F13313   4.086   0.353   4.854  0.1180 -0.2502 -0.2037
  125OSM   H13F13314   4.075   0.325   4.961  1.3215 -0.5285 -0.1363
  125OSM   H13G13315   4.038   0.273   4.794  0.0951  0.6944 -1.4973
  125OSM   C14F13316   3.998   0.476   4.827 -0.4548  0.3499  0.6631
  125OSM   H14F13317   3.991   0.499   4.719 -0.1888 -0.7568  0.3967
  125OSM   H14G13318   4.041   0.569   4.870 -0.2160  1.3866 -1.6686
  125OSM   C15F13319   3.860   0.454   4.884  0.0099 -0.6809 -0.2566
  125OSM   H15F13320   3.809   0.550   4.864 -0.8840 -1.0326  0.2961
  125OSM   H15G13321   3.857   0.447   4.995 -0.0368  1.3717 -0.0926
  125OSM   C16F13322   3.767   0.343   4.830 -0.0209  0.5494  0.1056
  125OSM   H16F13323   3.665   0.358   4.872 -0.1143  0.5618 -0.1202
  125OSM   H16G13324   3.811   0.246   4.863 -0.3081 -0.7903 -3.0523
  125OSM   C17F13325   3.758   0.339   4.674  0.7476 -0.5420 -0.1412
  125OSM   H17F13326   3.860   0.310   4.639  0.4970  1.0679 -2.4181
  125OSM   H17G13327   3.736   0.437   4.627  1.6563 -0.4872 -0.4820
  125OSM   C18F13328   3.660   0.229   4.627  0.0359 -0.5799  0.5504
  125OSM   H18F13329   3.650   0.241   4.517 -1.7939  1.8374  0.8822
  125OSM   H18G13330   3.563   0.246   4.679 -0.1769 -0.1874  0.0420
  125OSM   H18H13331   3.698   0.127   4.648  1.5196 -0.3580 -0.8892
  126OSM      N13332   0.197   5.964   2.644 -0.0151 -0.5746  0.5063
  126OSM    C1513333   0.172   6.059   2.527  0.9393  0.2235 -0.0507
  126OSM   H15A13334   0.258   6.122   2.508  1.2445  0.0756  0.8123
  126OSM   H15B13335   0.083   6.115   2.552  0.3846 -1.7017  2.6884
  126OSM   H15C13336   0.143   6.006   2.437  2.0239 -0.2877 -0.1246
  126OSM    C1413337   0.064   5.904   2.671  0.0683 -0.6408 -0.0242
  126OSM   H14A13338   0.019   5.865   2.581  0.8221 -2.5150  0.3752
  126OSM   H14B13339  -0.007   5.979   2.704 -0.4817 -1.4170  0.6064
  126OSM   H14C13340   0.075   5.825   2.744 -0.4474 -0.6903  0.0033
  126OSM    C1313341   0.288   5.850   2.606  0.5294 -0.1853  0.6173
  126OSM   H13A13342   0.303   5.780   2.688 -0.4742 -0.6976  0.3766
  126OSM   H13B13343   0.383   5.886   2.570  0.0277  0.5322 -0.0092
  126OSM   H13C13344   0.247   5.792   2.525 -0.4705  2.0495 -0.5638
  126OSM    C1213345   0.256   6.021   2.772 -0.7940 -0.4051  0.1935
  126OSM   H12A13346   0.278   5.944   2.845 -0.7120 -2.1092 -1.5452
  126OSM   H12B13347   0.184   6.081   2.826 -1.2660 -1.6441  0.9904
  126OSM    C1113348   0.375   6.123   2.758 -0.2119 -0.9003  0.1320
  126OSM   H11A13349   0.452   6.077   2.693  0.1126 -2.1197  1.3509
  126OSM   H11B13350   0.410   6.149   2.861  0.4229  0.2034 -0.3367
  126OSM      P13351   0.344   6.386   2.746  0.0840  0.2657  0.0193
  126OSM    O1313352   0.484   6.410   2.780  0.1372 -0.2134 -0.1386
  126OSM    O1413353   0.286   6.477   2.646 -0.0166  0.3536  0.2552
  126OSM    O1113354   0.270   6.388   2.883  0.7270 -0.3768 -0.2396
  126OSM    O1213355   0.327   6.241   2.697  0.4514 -0.1803  0.4544
  126OSM    C1S13356   0.137   6.347   2.899  0.3030 -0.0300 -0.5100
  126OSM    H1S13357   0.109   6.257   2.839 -0.7936  0.2458 -0.4375
  126OSM    H1T13358   0.070   6.434   2.882  1.7403  1.2155 -0.0060
  126OSM     NF13359  -0.017   6.258   3.066 -0.3251 -0.0306 -0.4813
  126OSM    HNF13360  -0.093   6.322   3.076  1.6644  2.0610  3.3681
  126OSM    C2S13361   0.112   6.323   3.056 -0.3040  0.3031  0.9764
  126OSM    H2S13362   0.193   6.259   3.098  0.5897 -0.2617 -1.3939
  126OSM    C3S13363   0.124   6.467   3.123 -0.4002  0.4208  0.2630
  126OSM    H3S13364   0.032   6.523   3.094 -0.7244 -0.5792 -0.6771
  126OSM     O313365   0.241   6.543   3.089  0.1258  0.2940 -0.0036
  126OSM    HO313366   0.293   6.499   3.022 -0.6139 -0.2459 -0.2360
  126OSM    C4S13367   0.127   6.458   3.277  0.1391 -0.2327 -0.0260
  126OSM    H4S13368   0.229   6.441   3.315  0.9309  2.4011 -0.7164
  126OSM    C5S13369   0.017   6.478   3.353  0.1445 -0.1131 -0.8903
  126OSM    H5S13370  -0.081   6.486   3.304 -0.4965  0.5476  0.4287
  126OSM    C6S13371   0.007   6.469   3.504  0.0749  0.0543  0.3337
  126OSM    H6S13372  -0.084   6.409   3.520  0.3122 -1.6593 -3.5041
  126OSM    H6T13373  -0.010   6.572   3.542 -0.2744  0.0745  0.1228
  126OSM    C7S13374   0.122   6.398   3.579  0.7219 -0.0977 -0.0575
  126OSM    H7S13375   0.223   6.427   3.545  1.2105 -0.9466  0.6231
  126OSM    H7T13376   0.120   6.291   3.551 -0.1821  0.1266 -0.9075
  126OSM    C8S13377   0.119   6.411   3.736  0.3307  0.1252  0.1282
  126OSM    H8S13378   0.102   6.516   3.770 -0.7946  0.1520 -0.4500
  126OSM    H8T13379   0.221   6.388   3.773  0.5016 -1.1708 -1.0859
  126OSM    C9S13380   0.027   6.311   3.804 -0.1815 -0.3398  0.2418
  126OSM    H9S13381   0.062   6.210   3.773  1.0435  0.1837 -0.1328
  126OSM    H9T13382  -0.080   6.328   3.779  0.1062  2.2598  0.4935
  126OSM   C10S13383   0.025   6.313   3.959 -0.1610  0.4423  0.3787
  126OSM   H10S13384  -0.049   6.237   3.994  0.3218 -0.7551 -1.1096
  126OSM   H10T13385  -0.031   6.403   3.990 -0.7413  0.0658  0.4564
  126OSM   C11S13386   0.150   6.295   4.038 -1.0331  0.4540  0.1115
  126OSM   H11S13387   0.228   6.350   3.982  0.8483 -1.5371  0.6558
  126OSM   H11T13388   0.189   6.192   4.022  1.2759  1.2113  0.6081
  126OSM   C12S13389   0.145   6.336   4.183  0.6001 -0.3556 -0.2838
  126OSM   H12S13390   0.124   6.445   4.189 -0.2065 -0.5505  0.8378
  126OSM   H12T13391   0.248   6.314   4.219  0.9351  1.1878 -0.2120
  126OSM   C13S13392   0.054   6.250   4.274 -0.6382  0.2235  0.2731
  126OSM   H13S13393   0.094   6.154   4.313 -0.0503  0.3488 -0.0190
  126OSM   H13T13394  -0.042   6.240   4.217  0.5149  1.8857 -2.1393
  126OSM   C14S13395   0.029   6.323   4.410 -0.3073  1.0167  0.0266
  126OSM   H14S13396  -0.026   6.261   4.483 -0.1915 -1.1404 -1.6192
  126OSM   H14T13397  -0.024   6.420   4.399  0.0702  1.0851 -1.5282
  126OSM   C15S13398   0.159   6.341   4.494 -0.1681  0.0186  0.0411
  126OSM   H15S13399   0.230   6.404   4.437 -0.8939  0.5800 -0.2700
  126OSM   H15T13400   0.211   6.245   4.509 -0.0498 -0.2335 -1.7749
  126OSM   C16S13401   0.145   6.401   4.639  0.0678  0.1690  0.9294
  126OSM   H16S13402   0.088   6.496   4.632  2.1860  1.3672 -2.6155
  126OSM   H16T13403   0.242   6.437   4.680 -0.7981  2.1736  1.3254
  126OSM   C17S13404   0.091   6.303   4.737 -0.0555 -0.3122  0.0442
  126OSM   H17S13405   0.138   6.203   4.747 -2.5138 -1.4709  0.8909
  126OSM   H17T13406  -0.015   6.275   4.717 -0.6725  1.6604  0.3494
  126OSM   C18S13407   0.106   6.360   4.882  0.1346 -0.0991 -0.4190
  126OSM   H18S13408   0.209   6.400   4.897 -0.2654  0.4115  1.1936
  126OSM   H18T13409   0.089   6.289   4.966  0.6330  1.4345  1.0404
  126OSM   H18U13410   0.040   6.449   4.898 -2.4173 -1.8598 -0.5834
  126OSM    C1F13411  -0.033   6.126   3.052  0.2250 -0.9054 -0.2388
  126OSM     OF13412   0.061   6.051   3.017  0.1272 -0.4223 -0.3475
  126OSM    C2F13413  -0.165   6.073   3.093 -0.5022 -0.0291  0.4583
  126OSM    H2F13414  -0.201   6.016   3.005 -0.3460  1.4381 -0.5954
  126OSM    H2G13415  -0.234   6.158   3.114  0.6619  0.4891  2.4231
  126OSM    C3F13416  -0.173   5.981   3.216 -0.1898  0.4141  0.2431
  126OSM    H3F13417  -0.115   5.886   3.209 -0.0607  0.4731  0.5142
  126OSM    H3G13418  -0.280   5.952   3.222 -0.0723  0.0267  0.4805
  126OSM    C4F13419  -0.143   6.057   3.341  0.1391  0.8229 -0.1853
  126OSM    H4F13420  -0.195   6.155   3.332 -0.1062  0.5365 -2.2563
  126OSM    H4G13421  -0.033   6.068   3.348  0.0405  0.9154  1.7711
  126OSM    C5F13422  -0.188   5.986   3.465  0.0550  0.1723 -0.1320
  126OSM    H5F13423  -0.118   5.904   3.493  0.6678  0.3289 -1.1452
  126OSM    H5G13424  -0.290   5.942   3.458  0.5148 -0.9201 -0.1712
  126OSM    C6F13425  -0.201   6.076   3.590  0.3427  0.4284  0.3239
  126OSM    H6F13426  -0.263   6.167   3.573  3.3691  2.7287  0.8155
  126OSM    H6G13427  -0.101   6.123   3.587  0.9578 -0.8963 -1.4647
  126OSM    C7F13428  -0.240   6.005   3.727 -0.5882  0.3698 -0.5533
  126OSM    H7F13429  -0.189   6.055   3.812  0.3744  0.3127 -1.0828
  126OSM    H7G13430  -0.190   5.906   3.726 -1.1485  0.0799 -1.2685
  126OSM    C8F13431  -0.391   6.001   3.753 -0.2224  0.5017  0.5859
  126OSM    H8F13432  -0.403   5.925   3.833  1.4544  0.6535  1.0263
  126OSM    H8G13433  -0.461   5.967   3.674 -1.2795  0.7821  1.3873
  126OSM    C9F13434  -0.441   6.129   3.813 -0.2971  0.0521  0.4922
  126OSM    H9F13435  -0.490   6.197   3.741 -1.5078 -0.1901  1.0476
  126OSM   C10F13436  -0.431   6.167   3.941  0.2187  0.1763  0.1016
  126OSM   H10F13437  -0.471   6.262   3.979 -1.5126  0.0208 -1.1905
  126OSM   C11F13438  -0.348   6.104   4.047 -0.0635  0.5743 -0.5180
  126OSM   H11F13439  -0.275   6.182   4.078  1.1246 -0.8100  0.2670
  126OSM   H11G13440  -0.296   6.016   4.004 -1.2292  0.1085 -1.0117
  126OSM   C12F13441  -0.432   6.050   4.164  0.2916  0.2334 -0.0490
  126OSM   H12F13442  -0.494   5.964   4.130 -1.4182  1.7514 -0.9952
  126OSM   H12G13443  -0.502   6.125   4.207  0.7484  0.1748  0.8068
  126OSM   C13F13444  -0.339   6.005   4.286  0.3551 -0.4071 -0.1327
  126OSM   H13F13445  -0.271   6.084   4.324 -2.3908  1.1371  1.9964
  126OSM   H13G13446  -0.276   5.921   4.252  0.9383 -0.8024  1.8135
  126OSM   C14F13447  -0.407   5.951   4.412  0.0173  0.5609  0.3053
  126OSM   H14F13448  -0.335   5.909   4.486 -0.9331  0.8007  1.4097
  126OSM   H14G13449  -0.486   5.879   4.382 -0.5415  2.3962 -3.1429
  126OSM   C15F13450  -0.473   6.058   4.498 -0.3998 -0.1313 -0.4362
  126OSM   H15F13451  -0.573   6.029   4.537 -0.2181 -2.6921 -1.6305
  126OSM   H15G13452  -0.512   6.133   4.426 -0.7958 -0.4763 -0.5838
  126OSM   C16F13453  -0.384   6.139   4.590  0.0865 -0.2421 -0.5966
  126OSM   H16F13454  -0.430   6.238   4.612  1.6202 -0.0356  2.0823
  126OSM   H16G13455  -0.290   6.158   4.533 -0.5625  0.0895 -1.5973
  126OSM   C17F13456  -0.330   6.074   4.724  0.3646  0.4990  0.1195
  126OSM   H17F13457  -0.230   6.122   4.732 -0.5907  2.3761  1.4882
  126OSM   H17G13458  -0.313   5.964   4.720  0.8045  0.5257  1.0093
  126OSM   C18F13459  -0.402   6.102   4.862 -0.0415 -0.2839  0.5255
  126OSM   H18F13460  -0.411   6.211   4.881  0.4449  0.2330 -1.8731
  126OSM   H18G13461  -0.352   6.040   4.939  0.6816 -2.2873 -1.4506
  126OSM   H18H13462  -0.503   6.054   4.858  0.5421 -1.6595  1.5820
  127OSM      N13463   0.553   3.408   2.579 -0.8832  0.2808 -0.1123
  127OSM    C1513464   0.419   3.475   2.613 -0.3945  0.5925 -0.9496
  127OSM   H15A13465   0.345   3.397   2.626  0.2915  0.1196  0.3569
  127OSM   H15B13466   0.392   3.530   2.525 -0.5749  0.3746 -1.0329
  127OSM   H15C13467   0.428   3.538   2.701  0.2283  0.2414 -0.7492
  127OSM    C1413468   0.529   3.306   2.467 -0.2399  0.5879  0.5207
  127OSM   H14A13469   0.618   3.253   2.437 -0.2338  1.3411 -0.9254
  127OSM   H14B13470   0.490   3.344   2.373 -0.4446  3.1307  1.5430
  127OSM   H14C13471   0.460   3.231   2.501 -0.6963  0.5725 -0.3906
  127OSM    C1313472   0.652   3.500   2.541  0.3385 -0.1935 -0.1191
  127OSM   H13A13473   0.618   3.568   2.464 -2.6057 -1.3578  0.0181
  127OSM   H13B13474   0.734   3.455   2.488  2.1700  0.5062  1.9613
  127OSM   H13C13475   0.689   3.564   2.620  1.5754  0.7437 -1.3968
  127OSM    C1213476   0.593   3.332   2.706  0.2327 -0.2270 -0.0655
  127OSM   H12A13477   0.682   3.275   2.684 -0.1503 -1.0071  0.3198
  127OSM   H12B13478   0.519   3.254   2.721 -0.4870  0.6629  1.1712
  127OSM    C1113479   0.603   3.403   2.845  0.1932 -0.3340  0.1070
  127OSM   H11A13480   0.667   3.493   2.831 -0.2838 -0.1645 -1.1228
  127OSM   H11B13481   0.644   3.321   2.907 -2.0114 -1.2344  0.4770
  127OSM      P13482   0.373   3.337   2.940 -0.1500  0.4982 -0.2728
  127OSM    O1313483   0.245   3.398   2.967 -0.1395 -0.6056 -0.2089
  127OSM    O1413484   0.373   3.214   2.849 -0.6818  0.1442 -0.0469
  127OSM    O1113485   0.444   3.302   3.072  0.0869  0.5660  0.1350
  127OSM    O1213486   0.471   3.445   2.879  0.8925 -0.1036 -0.2374
  127OSM    C1S13487   0.478   3.393   3.172  0.3185 -0.0766  0.4834
  127OSM    H1S13488   0.390   3.413   3.237 -0.5434 -0.6442 -0.4725
  127OSM    H1T13489   0.501   3.493   3.129  0.3987 -0.8242 -1.2959
  127OSM     NF13490   0.639   3.461   3.342  0.0917 -0.0525 -0.1418
  127OSM    HNF13491   0.706   3.522   3.302  0.0534 -0.2704 -0.5487
  127OSM    C2S13492   0.603   3.350   3.253  0.0020  0.0346  0.0939
  127OSM    H2S13493   0.570   3.267   3.319  0.1040 -0.0314  0.0631
  127OSM    C3S13494   0.723   3.299   3.162  0.9229 -0.1634 -0.2590
  127OSM    H3S13495   0.738   3.365   3.074 -0.4511  0.8367  0.2225
  127OSM     O313496   0.700   3.170   3.102 -0.5764 -0.6973 -0.1629
  127OSM    HO313497   0.606   3.161   3.118 -0.7593  1.6008  0.3809
  127OSM    C4S13498   0.859   3.300   3.234  0.5245 -0.2832  0.3965
  127OSM    H4S13499   0.858   3.235   3.323  1.2767 -1.1463 -0.2012
  127OSM    C5S13500   0.975   3.358   3.196 -0.3741 -0.9536  0.5601
  127OSM    H5S13501   0.984   3.406   3.097 -1.8730  1.2741  1.4324
  127OSM    C6S13502   1.109   3.345   3.268  1.0102  0.4267  0.3473
  127OSM    H6S13503   1.160   3.443   3.260  0.4130  0.6872 -0.5078
  127OSM    H6T13504   1.180   3.284   3.207  0.2276  1.3637 -1.6052
  127OSM    C7S13505   1.097   3.301   3.415  0.7022 -0.4597  0.0098
  127OSM    H7S13506   1.072   3.193   3.421 -1.6160 -0.1223 -1.7847
  127OSM    H7T13507   1.005   3.352   3.452  1.4769  0.0596  1.2740
  127OSM    C8S13508   1.218   3.340   3.497 -0.3397  0.2989  0.6605
  127OSM    H8S13509   1.229   3.450   3.483 -0.2241  0.2148  0.0822
  127OSM    H8T13510   1.317   3.297   3.470 -0.2088  0.3209  1.0955
  127OSM    C9S13511   1.205   3.314   3.642  0.6288 -0.0829  0.3892
  127OSM    H9S13512   1.172   3.213   3.673  0.0510 -0.5489 -1.6050
  127OSM    H9T13513   1.115   3.368   3.680  2.1889  1.3301  2.3515
  127OSM   C10S13514   1.333   3.359   3.714  1.3224  0.3869  0.0618
  127OSM   H10S13515   1.323   3.470   3.714 -2.2874  0.1932 -0.1538
  127OSM   H10T13516   1.426   3.326   3.662  0.8426 -0.8384 -0.0624
  127OSM   C11S13517   1.348   3.321   3.864  0.4192 -0.6474 -0.0336
  127OSM   H11S13518   1.322   3.214   3.877  2.3012 -1.2199 -0.7111
  127OSM   H11T13519   1.286   3.391   3.924  1.0520 -1.4083  1.5672
  127OSM   C12S13520   1.494   3.330   3.911  0.6221  0.3048 -0.2149
  127OSM   H12S13521   1.546   3.420   3.872  1.0025  0.2960  0.2509
  127OSM   H12T13522   1.539   3.239   3.866 -1.1476 -1.1256  0.7598
  127OSM   C13S13523   1.502   3.336   4.062 -0.0376  0.4604 -0.1509
  127OSM   H13S13524   1.434   3.254   4.094 -1.0713  0.8822 -1.1552
  127OSM   H13T13525   1.486   3.439   4.101  0.7413  0.5074  0.0542
  127OSM   C14S13526   1.652   3.292   4.090 -0.3656 -0.3140 -0.3287
  127OSM   H14S13527   1.731   3.345   4.033  0.3082 -0.7243  0.2058
  127OSM   H14T13528   1.667   3.187   4.059  2.6104  0.5187 -2.1343
  127OSM   C15S13529   1.683   3.304   4.238 -0.3090  0.3322  0.2140
  127OSM   H15S13530   1.641   3.225   4.304 -1.8771  0.4788 -0.5507
  127OSM   H15T13531   1.645   3.402   4.275  1.7216  0.2071  2.9021
  127OSM   C16S13532   1.833   3.315   4.276 -0.0220  0.0974  0.3167
  127OSM   H16S13533   1.872   3.417   4.258  0.0367 -0.0355 -0.3070
  127OSM   H16T13534   1.883   3.241   4.210 -0.0218 -1.1529  1.6564
  127OSM   C17S13535   1.874   3.266   4.418 -0.2089  0.7671 -0.9122
  127OSM   H17S13536   1.982   3.244   4.426 -0.5914 -0.6134  1.2291
  127OSM   H17T13537   1.836   3.163   4.434 -0.4769  0.3871 -3.6032
  127OSM   C18S13538   1.839   3.367   4.525 -0.4923 -0.3275  0.0704
  127OSM   H18S13539   1.850   3.337   4.631  0.8518 -0.5088 -0.1057
  127OSM   H18T13540   1.739   3.413   4.513 -1.7577 -2.8117  0.3622
  127OSM   H18U13541   1.897   3.460   4.508 -1.7087  0.3275 -0.6588
  127OSM    C1F13542   0.571   3.511   3.441 -0.2673  0.5374 -0.1148
  127OSM     OF13543   0.470   3.457   3.481  0.2932 -0.4033 -0.1203
  127OSM    C2F13544   0.621   3.630   3.512  0.4014  0.4502  0.0880
  127OSM    H2F13545   0.619   3.705   3.430  1.1689 -0.9917 -1.2944
  127OSM    H2G13546   0.728   3.620   3.540  0.6264 -0.1742 -0.9576
  127OSM    C3F13547   0.520   3.674   3.619  0.5909  0.3540 -0.2737
  127OSM    H3F13548   0.416   3.660   3.584  1.1950 -1.8090 -1.3561
  127OSM    H3G13549   0.536   3.783   3.638  1.1949  0.2275 -0.0149
  127OSM    C4F13550   0.537   3.606   3.760 -0.3548  0.0299  0.2845
  127OSM    H4F13551   0.524   3.498   3.742 -2.0014  0.1757  0.3952
  127OSM    H4G13552   0.469   3.636   3.843  0.2034 -3.1372  2.0216
  127OSM    C5F13553   0.682   3.629   3.805  0.4560  0.2933  0.2746
  127OSM    H5F13554   0.707   3.738   3.803  1.2546  0.1065 -0.4037
  127OSM    H5G13555   0.753   3.581   3.734 -2.0509  0.2525 -2.3719
  127OSM    C6F13556   0.709   3.586   3.950 -0.3687  0.1697 -0.1021
  127OSM    H6F13557   0.699   3.476   3.957 -2.4516 -0.0714 -3.9862
  127OSM    H6G13558   0.634   3.640   4.012 -0.6948 -0.0097 -0.3381
  127OSM    C7F13559   0.844   3.641   3.996  0.0116  0.2443 -0.2306
  127OSM    H7F13560   0.855   3.750   3.975 -1.2075  0.5640  0.6705
  127OSM    H7G13561   0.915   3.581   3.936  0.5998 -0.5301  1.1813
  127OSM    C8F13562   0.865   3.615   4.149 -0.1168 -0.3542 -0.6330
  127OSM    H8F13563   0.848   3.507   4.170 -2.3352 -0.3311 -1.8829
  127OSM    H8G13564   0.787   3.674   4.202  1.5754  1.6525 -0.2517
  127OSM    C9F13565   1.008   3.648   4.179 -0.4747 -0.4898  0.1076
  127OSM    H9F13566   1.085   3.569   4.189  0.2976  0.2854  0.4688
  127OSM   C10F13567   1.054   3.779   4.206  0.1559  0.0966 -0.2121
  127OSM   H10F13568   1.159   3.789   4.236 -0.2070 -1.6833  1.9228
  127OSM   C11F13569   0.975   3.907   4.200  0.2539  0.4988 -0.1399
  127OSM   H11F13570   0.890   3.901   4.129 -1.2508 -1.1979  1.6876
  127OSM   H11G13571   1.048   3.986   4.172 -1.2080  1.8864 -0.1919
  127OSM   C12F13572   0.920   3.964   4.330  0.0695 -0.8024 -0.7526
  127OSM   H12F13573   0.881   3.882   4.394  1.1149 -1.4752 -0.9450
  127OSM   H12G13574   0.833   4.029   4.307  1.1238  0.3565 -1.6406
  127OSM   C13F13575   1.020   4.038   4.413 -0.0828  0.5041  0.6497
  127OSM   H13F13576   1.055   4.131   4.362 -0.7284  0.7793  0.7055
  127OSM   H13G13577   1.111   3.977   4.431 -0.9521 -1.6103 -1.5410
  127OSM   C14F13578   0.962   4.065   4.554 -0.0934 -0.2292  0.5873
  127OSM   H14F13579   0.963   3.976   4.622 -0.4056 -1.4914 -1.0029
  127OSM   H14G13580   0.856   4.093   4.536 -0.1525  1.0365  2.5948
  127OSM   C15F13581   1.022   4.185   4.628  0.5274 -0.4194 -0.0155
  127OSM   H15F13582   0.992   4.273   4.567 -1.3237 -1.8676 -1.3124
  127OSM   H15G13583   1.132   4.179   4.612  0.4330 -2.2607 -0.2474
  127OSM   C16F13584   0.978   4.198   4.779 -0.4977 -0.3088  0.9480
  127OSM   H16F13585   0.993   4.105   4.837 -0.8240 -1.4955 -0.7882
  127OSM   H16G13586   0.868   4.211   4.769 -0.1356  1.3351 -2.3603
  127OSM   C17F13587   1.040   4.322   4.840  0.3268  0.0438 -0.2916
  127OSM   H17F13588   1.003   4.311   4.944 -1.6430 -3.4118 -1.2200
  127OSM   H17G13589   0.995   4.418   4.804 -1.6339 -0.3690  0.8947
  127OSM   C18F13590   1.190   4.337   4.842 -0.6854 -0.5524 -0.4880
  127OSM   H18F13591   1.214   4.433   4.893  1.0881 -0.3233 -1.6533
  127OSM   H18G13592   1.241   4.311   4.747  0.6518 -1.1864  0.3740
  127OSM   H18H13593   1.229   4.264   4.916  0.7555  1.0077  0.3588
  128OSM      N13594   6.508   3.115   3.032 -0.1267  0.1756  0.6653
  128OSM    C1513595   6.580   3.080   2.906  0.0672 -0.0838  0.2864
  128OSM   H15A13596   6.551   3.139   2.821 -0.5864 -0.1802  0.4373
  128OSM   H15B13597   6.591   2.975   2.883  1.1313  0.6765 -3.2891
  128OSM   H15C13598   6.685   3.100   2.917 -0.0621  1.4857 -0.9460
  128OSM    C1413599   6.540   3.251   3.087 -0.2129 -0.2247  0.2585
  128OSM   H14A13600   6.643   3.258   3.117  0.2385 -2.8936 -0.4352
  128OSM   H14B13601   6.470   3.282   3.164  1.0902 -1.3711  1.9960
  128OSM   H14C13602   6.537   3.333   3.017 -0.6916 -0.1311  0.3807
  128OSM    C1313603   6.367   3.119   2.997  0.0493  0.2508  0.9716
  128OSM   H13A13604   6.347   3.198   2.926 -1.2314 -0.4761  0.4847
  128OSM   H13B13605   6.300   3.128   3.081 -0.5388 -0.9592  0.6531
  128OSM   H13C13606   6.348   3.022   2.951 -1.5750  1.0206 -0.0836
  128OSM    C1213607   6.530   3.006   3.139  0.3063 -0.5367  0.6281
  128OSM   H12A13608   6.506   2.908   3.100 -1.9423  1.2569 -3.1091
  128OSM   H12B13609   6.454   3.033   3.211 -0.2555  1.3768 -0.6241
  128OSM    C1113610   6.657   3.006   3.223 -0.9958  0.5496 -0.4178
  128OSM   H11A13611   6.646   2.908   3.274  3.5113 -1.0037 -1.8967
  128OSM   H11B13612   6.662   3.091   3.295  1.9174 -0.4871  0.7357
  128OSM      P13613   6.927   2.967   3.179  0.2844 -0.1234 -0.1291
  128OSM    O1313614   6.935   2.817   3.203 -0.0292 -0.3213 -0.6811
  128OSM    O1413615   7.007   3.017   3.070  0.2581 -0.8811  0.2450
  128OSM    O1113616   6.954   3.037   3.317 -0.5981  0.3582  0.0613
  128OSM    O1213617   6.777   3.004   3.140  0.1205 -0.3230 -0.1994
  128OSM    C1S13618   6.999   3.173   3.318  0.3045  0.0551  0.3285
  128OSM    H1S13619   6.931   3.235   3.255 -1.2583 -1.1175  0.8114
  128OSM    H1T13620   7.099   3.172   3.270  0.4466  0.0408  0.6259
  128OSM     NF13621   7.027   3.363   3.470  0.3935  0.3347 -0.2070
  128OSM    HNF13622   7.112   3.387   3.515  0.2160 -0.0047  0.3220
  128OSM    C2S13623   7.010   3.226   3.464  0.3814  0.5568 -0.3249
  128OSM    H2S13624   6.910   3.196   3.502  0.5973 -1.2058 -1.0458
  128OSM    C3S13625   7.115   3.144   3.546  0.1462  0.0105  0.2780
  128OSM    H3S13626   7.220   3.160   3.512  0.4754  3.1462  2.2843
  128OSM     O313627   7.097   3.004   3.540 -0.1495 -0.6321  0.0146
  128OSM    HO313628   7.040   3.010   3.463 -1.0540 -1.3257  0.6123
  128OSM    C4S13629   7.098   3.184   3.691 -0.3767  0.1007 -0.0395
  128OSM    H4S13630   7.025   3.125   3.748 -3.8317  2.2875 -1.9034
  128OSM    C5S13631   7.169   3.276   3.761  0.5447 -0.4768  0.1094
  128OSM    H5S13632   7.246   3.331   3.705 -2.2938  2.5148 -1.1977
  128OSM    C6S13633   7.158   3.301   3.910 -0.0508 -0.0743  0.2206
  128OSM    H6S13634   7.084   3.230   3.953  0.3229 -0.5042  0.1551
  128OSM    H6T13635   7.129   3.408   3.921  1.1662  0.4044 -1.0328
  128OSM    C7S13636   7.291   3.289   3.992 -0.3356 -0.2060 -0.2491
  128OSM    H7S13637   7.341   3.384   3.961 -0.1276  0.2345  1.3348
  128OSM    H7T13638   7.355   3.209   3.949  0.4452 -0.4060  1.2340
  128OSM    C8S13639   7.261   3.294   4.142 -0.2119 -0.1924  0.3736
  128OSM    H8S13640   7.199   3.206   4.169 -0.1831  0.4981  2.8648
  128OSM    H8T13641   7.212   3.391   4.166  1.2045  0.3412  1.2038
  128OSM    C9S13642   7.384   3.294   4.238  1.1533 -0.1196  1.3856
  128OSM    H9S13643   7.469   3.350   4.193  1.6208 -0.3650  1.9599
  128OSM    H9T13644   7.419   3.195   4.273  0.4214 -0.1574  2.0347
  128OSM   C10S13645   7.349   3.370   4.361  0.0511 -0.7812  0.0129
  128OSM   H10S13646   7.312   3.468   4.324  2.4084 -0.8048 -2.7958
  128OSM   H10T13647   7.444   3.391   4.415  1.4301 -4.3800 -0.7419
  128OSM   C11S13648   7.252   3.296   4.449  0.9986 -0.3648  0.1232
  128OSM   H11S13649   7.276   3.189   4.466 -1.0996 -0.8090  0.6352
  128OSM   H11T13650   7.151   3.298   4.402  1.1816 -1.2690 -0.3428
  128OSM   C12S13651   7.243   3.357   4.587  0.4420 -0.4182 -0.1145
  128OSM   H12S13652   7.326   3.314   4.647  1.1056 -1.8070 -1.9390
  128OSM   H12T13653   7.143   3.317   4.615 -0.1528 -1.9302 -3.9012
  128OSM   C13S13654   7.225   3.508   4.588 -0.3997 -0.5664  0.2263
  128OSM   H13S13655   7.163   3.546   4.504 -0.6196 -0.7540  0.3019
  128OSM   H13T13656   7.329   3.541   4.568  1.4951 -4.4195  2.4801
  128OSM   C14S13657   7.190   3.563   4.725  0.6087 -0.6849 -0.7128
  128OSM   H14S13658   7.261   3.646   4.744  0.3847 -0.4767 -0.7748
  128OSM   H14T13659   7.212   3.487   4.803 -2.1104 -1.8300 -0.9421
  128OSM   C15S13660   7.047   3.615   4.735  0.0622 -0.1368 -0.8095
  128OSM   H15S13661   7.018   3.680   4.650 -2.6089  0.2043  0.2692
  128OSM   H15T13662   7.030   3.671   4.829 -2.0770 -1.9424 -0.0365
  128OSM   C16S13663   6.940   3.508   4.741 -0.4172 -0.7896 -0.6241
  128OSM   H16S13664   6.992   3.412   4.763  3.7797  0.9198 -1.9967
  128OSM   H16T13665   6.900   3.485   4.640 -0.0513  1.5890 -1.3846
  128OSM   C17S13666   6.833   3.527   4.852 -0.3046 -0.3110 -0.3799
  128OSM   H17S13667   6.767   3.607   4.811  1.8761  0.2729 -3.0620
  128OSM   H17T13668   6.883   3.554   4.947 -2.5420  2.3792  0.1819
  128OSM   C18S13669   6.746   3.398   4.872  0.4446  0.0973 -0.6316
  128OSM   H18S13670   6.719   3.360   4.771  2.9763  0.1412 -1.3881
  128OSM   H18T13671   6.665   3.434   4.940  2.1689  1.7399  0.6594
  128OSM   H18U13672   6.808   3.323   4.926 -2.1265 -0.4106  1.9180
  128OSM    C1F13673   6.944   3.454   3.420  0.0287  0.1926  0.2332
  128OSM     OF13674   6.844   3.421   3.360  0.5280  0.1523  0.0773
  128OSM    C2F13675   6.992   3.602   3.423  0.4993 -0.3514 -0.3946
  128OSM    H2F13676   7.035   3.615   3.322  1.4922 -0.2683  0.0249
  128OSM    H2G13677   7.073   3.628   3.494  0.3657  2.9893 -1.3120
  128OSM    C3F13678   6.887   3.706   3.465 -0.1212 -1.0405  0.4720
  128OSM    H3F13679   6.810   3.723   3.387 -0.5008 -0.2548  1.0018
  128OSM    H3G13680   6.929   3.805   3.490  0.5489 -1.6923  2.0388
  128OSM    C4F13681   6.809   3.666   3.598  0.5009  0.5893  0.2525
  128OSM    H4F13682   6.888   3.637   3.670  0.8940 -0.4587 -0.5641
  128OSM    H4G13683   6.749   3.573   3.589  1.2758  0.0654  0.4054
  128OSM    C5F13684   6.723   3.778   3.652  0.1520  0.2141  0.7078
  128OSM    H5F13685   6.651   3.807   3.572  1.4528  0.9046 -0.2590
  128OSM    H5G13686   6.797   3.857   3.675 -1.3390  1.3904  1.6702
  128OSM    C6F13687   6.636   3.737   3.777 -0.3367 -0.0920  0.0111
  128OSM    H6F13688   6.699   3.715   3.866  1.7390  1.4369 -0.9914
  128OSM    H6G13689   6.579   3.648   3.743 -1.8018  0.0743  1.8744
  128OSM    C7F13690   6.530   3.845   3.801 -0.0466  0.3887 -0.7870
  128OSM    H7F13691   6.451   3.830   3.725  0.9096  0.0960 -1.7486
  128OSM    H7G13692   6.576   3.943   3.779  2.9394 -0.8092 -0.5069
  128OSM    C8F13693   6.478   3.848   3.936 -0.0854  0.1722  0.0881
  128OSM    H8F13694   6.423   3.943   3.957  1.8241  1.4176 -0.2964
  128OSM    H8G13695   6.557   3.838   4.013  0.1152  0.0577 -0.1332
  128OSM    C9F13696   6.374   3.746   3.961  0.0612  1.0213  0.0962
  128OSM    H9F13697   6.352   3.661   3.896 -5.2657  1.2329  1.2064
  128OSM   C10F13698   6.299   3.729   4.072 -0.3341 -0.2060 -0.7128
  128OSM   H10F13699   6.217   3.656   4.073  0.5980 -1.3556 -2.2245
  128OSM   C11F13700   6.300   3.825   4.189  0.5665  0.3239 -0.0982
  128OSM   H11F13701   6.352   3.918   4.156 -1.9622  1.2493 -1.7788
  128OSM   H11G13702   6.351   3.783   4.278 -0.4502  2.0579  1.3912
  128OSM   C12F13703   6.165   3.865   4.235  0.5051  0.0625 -0.4933
  128OSM   H12F13704   6.103   3.799   4.299  0.2476  0.9072  0.1405
  128OSM   H12G13705   6.100   3.885   4.147  1.9722  0.1707 -1.6032
  128OSM   C13F13706   6.177   3.990   4.317  0.3766 -0.0567 -0.0087
  128OSM   H13F13707   6.217   4.064   4.244 -0.5101  1.2942  0.8336
  128OSM   H13G13708   6.235   3.953   4.404  0.6908 -3.7271 -1.5586
  128OSM   C14F13709   6.042   4.050   4.366  0.1626  0.6444  0.6876
  128OSM   H14F13710   5.960   4.057   4.292  0.2053 -0.6413  0.4863
  128OSM   H14G13711   6.062   4.150   4.410  1.5263  0.0694  1.4308
  128OSM   C15F13712   5.981   3.974   4.490  0.0586  0.5432  0.3333
  128OSM   H15F13713   6.068   3.944   4.553  1.9117  0.0282 -2.3161
  128OSM   H15G13714   5.930   3.877   4.471 -0.4955  0.5649  1.5875
  128OSM   C16F13715   5.881   4.060   4.565  0.2188  0.3423  0.4216
  128OSM   H16F13716   5.792   4.088   4.504 -0.1291 -0.2077  0.6755
  128OSM   H16G13717   5.928   4.158   4.591  1.5698  0.5257 -2.3635
  128OSM   C17F13718   5.824   4.008   4.700 -0.6246 -0.5432 -0.4155
  128OSM   H17F13719   5.898   3.992   4.781 -1.6813  0.2598  0.7669
  128OSM   H17G13720   5.777   3.910   4.675 -1.7430  0.6707 -3.5433
  128OSM   C18F13721   5.727   4.113   4.763 -0.3523  0.8056  0.0794
  128OSM   H18F13722   5.797   4.184   4.812  3.2263 -2.6687  0.4945
  128OSM   H18G13723   5.653   4.062   4.829 -0.1654 -1.1889 -1.1751
  128OSM   H18H13724   5.673   4.171   4.685 -0.8588 -1.5298 -1.4213
  129OSM      N13725   1.340   2.099   2.809  0.0083  0.5614 -0.2524
  129OSM    C1513726   1.238   2.070   2.914  0.8042 -0.7920 -0.6244
  129OSM   H15A13727   1.152   2.134   2.901 -0.8536 -3.1733 -2.3927
  129OSM   H15B13728   1.264   2.086   3.017 -0.6112  1.5629 -0.5715
  129OSM   H15C13729   1.219   1.965   2.899  1.6560 -0.9396 -0.7313
  129OSM    C1413730   1.302   2.028   2.679 -0.9962 -0.7757 -0.2573
  129OSM   H14A13731   1.211   2.073   2.641 -1.4467  0.9425  2.5586
  129OSM   H14B13732   1.289   1.921   2.689 -1.2166 -0.6415  1.1446
  129OSM   H14C13733   1.374   2.044   2.600 -1.5910  0.7679 -0.5294
  129OSM    C1313734   1.351   2.244   2.794  0.0846 -0.4762  0.2262
  129OSM   H13A13735   1.371   2.301   2.883  0.1214  1.9909 -1.2713
  129OSM   H13B13736   1.271   2.286   2.736  1.9615  1.0972 -1.3576
  129OSM   H13C13737   1.440   2.273   2.740 -0.3488 -0.9931 -0.8033
  129OSM    C1213738   1.476   2.044   2.863  0.2346  0.2957 -0.5312
  129OSM   H12A13739   1.458   1.942   2.893  1.7628  0.5010  1.2403
  129OSM   H12B13740   1.503   2.089   2.957 -0.2292  0.2837 -0.3913
  129OSM    C1113741   1.602   2.041   2.770 -0.3079 -0.5911 -0.1083
  129OSM   H11A13742   1.564   1.994   2.677  0.4790  0.8577 -1.2066
  129OSM   H11B13743   1.680   1.976   2.816  0.2416 -0.9555 -1.4998
  129OSM      P13744   1.753   2.241   2.840  0.6055 -0.1309  0.0225
  129OSM    O1313745   1.884   2.185   2.814 -0.4228  0.7537 -0.3497
  129OSM    O1413746   1.743   2.388   2.817 -0.4881  0.1718  0.5508
  129OSM    O1113747   1.700   2.189   2.983 -0.0106 -0.1779 -0.5614
  129OSM    O1213748   1.651   2.169   2.740  0.3558 -0.9129 -0.2948
  129OSM    C1S13749   1.765   2.238   3.092  0.2346  0.7578 -0.7833
  129OSM    H1S13750   1.744   2.346   3.106 -0.1697  0.3370  2.9046
  129OSM    H1T13751   1.871   2.206   3.088 -0.7973 -3.4840  0.3815
  129OSM     NF13752   1.787   2.235   3.330  0.0771 -0.6064 -0.0863
  129OSM    HNF13753   1.862   2.194   3.381  0.4487  0.8739  0.6058
  129OSM    C2S13754   1.728   2.166   3.223 -0.3894 -0.3637 -0.2454
  129OSM    H2S13755   1.620   2.171   3.250 -0.2657 -0.4173  0.2700
  129OSM    C3S13756   1.757   2.009   3.220 -0.2815 -0.1946  1.4838
  129OSM    H3S13757   1.866   1.994   3.208 -0.9233 -3.9499 -1.5825
  129OSM     O313758   1.700   1.940   3.110  0.1432  0.3260 -0.1318
  129OSM    HO313759   1.672   2.011   3.051  0.9217 -1.8636 -3.4210
  129OSM    C4S13760   1.718   1.943   3.344  0.0604 -0.3716  0.4343
  129OSM    H4S13761   1.611   1.955   3.366 -0.3225 -0.5556 -1.2108
  129OSM    C5S13762   1.791   1.869   3.430 -0.1396 -1.0143  0.6412
  129OSM    H5S13763   1.897   1.847   3.408 -0.2554  0.4022 -1.6451
  129OSM    C6S13764   1.738   1.813   3.556 -0.1102 -0.1546 -0.6792
  129OSM    H6S13765   1.818   1.813   3.633 -0.6413 -3.2548 -0.0061
  129OSM    H6T13766   1.698   1.712   3.537 -0.2514 -0.4651  1.1340
  129OSM    C7S13767   1.633   1.891   3.644 -0.5454 -0.2538  0.9279
  129OSM    H7S13768   1.580   1.817   3.708 -1.3381 -0.1835  0.3778
  129OSM    H7T13769   1.552   1.927   3.576 -0.4777 -2.3050 -0.3172
  129OSM    C8S13770   1.683   2.009   3.732 -0.2818  0.3448  0.0414
  129OSM    H8S13771   1.588   2.057   3.767 -0.0684 -1.2231  3.0596
  129OSM    H8T13772   1.739   2.091   3.682  2.6579 -0.9904  0.9266
  129OSM    C9S13773   1.761   1.957   3.854  0.4501 -0.3064 -0.4035
  129OSM    H9S13774   1.865   1.950   3.817  1.6211  0.6824  2.4501
  129OSM    H9T13775   1.723   1.854   3.870 -0.8640  0.4399  1.7290
  129OSM   C10S13776   1.753   2.044   3.983 -0.4171 -0.1247  0.1815
  129OSM   H10S13777   1.652   2.054   4.030 -1.4637  1.3398 -2.1989
  129OSM   H10T13778   1.766   2.149   3.950  0.4025 -0.3945 -0.3865
  129OSM   C11S13779   1.862   1.998   4.083  0.6756 -0.3731 -0.3059
  129OSM   H11S13780   1.966   2.015   4.049  0.4152  0.3647 -0.7587
  129OSM   H11T13781   1.860   1.889   4.104  0.8686 -0.9850 -3.0663
  129OSM   C12S13782   1.843   2.078   4.214  0.3622  0.2457  0.0609
  129OSM   H12S13783   1.742   2.057   4.255  0.0330  0.1216 -0.8022
  129OSM   H12T13784   1.859   2.188   4.203  0.7335  0.1461 -0.4082
  129OSM   C13S13785   1.951   2.035   4.317  0.2606  0.1540  0.5527
  129OSM   H13S13786   2.042   2.077   4.271 -0.4472 -1.6517 -2.7932
  129OSM   H13T13787   1.963   1.925   4.312  2.1481  0.3868 -1.5249
  129OSM   C14S13788   1.925   2.095   4.456  0.3458  0.7733  0.1023
  129OSM   H14S13789   1.819   2.069   4.477  0.7129 -0.3782  0.6234
  129OSM   H14T13790   1.935   2.206   4.448  1.2855  0.5985 -1.6397
  129OSM   C15S13791   2.019   2.047   4.569 -0.1251  0.4854  0.5434
  129OSM   H15S13792   2.006   1.938   4.585 -0.0257  0.1171 -1.5926
  129OSM   H15T13793   2.000   2.096   4.667 -0.8828  2.4518 -0.5238
  129OSM   C16S13794   2.164   2.081   4.531 -0.9126 -0.1901  0.3438
  129OSM   H16S13795   2.180   2.188   4.508 -1.5745 -0.3402 -0.8924
  129OSM   H16T13796   2.195   2.032   4.436 -0.0121  0.0597  0.4950
  129OSM   C17S13797   2.263   2.039   4.646 -0.3884 -0.7084 -0.2254
  129OSM   H17S13798   2.260   1.928   4.646  2.0723 -0.9241  3.1325
  129OSM   H17T13799   2.210   2.078   4.735 -1.8752 -1.1996 -0.8523
  129OSM   C18S13800   2.406   2.066   4.613 -0.1883  0.4948 -0.6793
  129OSM   H18S13801   2.423   2.176   4.611  0.3383  0.4358  0.0848
  129OSM   H18T13802   2.443   2.009   4.525  1.6188  0.4632  0.0687
  129OSM   H18U13803   2.478   2.054   4.697 -1.3401  1.7424  0.5490
  129OSM    C1F13804   1.747   2.359   3.368 -0.2420  0.0626  0.0120
  129OSM     OF13805   1.663   2.420   3.301  0.4872 -0.2730 -0.0576
  129OSM    C2F13806   1.811   2.411   3.490  0.5641 -0.7556 -0.4865
  129OSM    H2F13807   1.905   2.467   3.472 -0.1177  0.5958  0.0144
  129OSM    H2G13808   1.835   2.320   3.550  0.7509  0.7445  1.8361
  129OSM    C3F13809   1.716   2.498   3.565 -0.5049 -0.5770  0.2793
  129OSM    H3F13810   1.620   2.444   3.567 -0.7625 -0.2864 -1.6804
  129OSM    H3G13811   1.690   2.585   3.500 -0.6588  0.7589  2.0470
  129OSM    C4F13812   1.778   2.558   3.696  0.3953 -0.1683  0.0057
  129OSM    H4F13813   1.721   2.632   3.756 -1.6459 -1.1367 -0.6493
  129OSM    H4G13814   1.868   2.617   3.667  0.7056 -0.1709  0.9380
  129OSM    C5F13815   1.832   2.453   3.801 -0.0379 -0.1286 -0.0607
  129OSM    H5F13816   1.941   2.441   3.780  0.2528  0.6551  0.9385
  129OSM    H5G13817   1.780   2.358   3.779  0.2803 -1.0167  2.7416
  129OSM    C6F13818   1.805   2.490   3.943  0.6549 -0.2631  0.3644
  129OSM    H6F13819   1.809   2.396   4.002  1.9510 -0.0755  0.6062
  129OSM    H6G13820   1.704   2.537   3.949  0.9824  0.4047  0.7017
  129OSM    C7F13821   1.908   2.590   3.993 -0.1534 -0.1723  0.5451
  129OSM    H7F13822   1.878   2.686   3.946 -1.8304 -1.1915 -0.5985
  129OSM    H7G13823   2.013   2.576   3.959 -0.3046 -1.0266  0.4130
  129OSM    C8F13824   1.900   2.601   4.144 -1.4473  0.0731 -0.3119
  129OSM    H8F13825   1.794   2.602   4.176 -0.8714  0.6211  1.7195
  129OSM    H8G13826   1.948   2.696   4.175  1.7407 -1.6771  0.6246
  129OSM    C9F13827   1.972   2.479   4.210 -0.3892 -0.4937  0.2736
  129OSM    H9F13828   1.970   2.392   4.142 -3.4401 -0.5716  0.3198
  129OSM   C10F13829   2.037   2.475   4.332  0.5082 -0.2105  0.1882
  129OSM   H10F13830   2.089   2.385   4.366  1.5927  1.0475  2.0473
  129OSM   C11F13831   2.060   2.588   4.431  0.4230  0.1243  0.3088
  129OSM   H11F13832   2.017   2.686   4.398 -0.3899 -1.1787 -2.8775
  129OSM   H11G13833   2.169   2.605   4.444  0.0538  1.2921  2.2859
  129OSM   C12F13834   1.975   2.559   4.560  0.3495 -0.2013  0.2067
  129OSM   H12F13835   1.877   2.526   4.519  0.1196 -1.7681  1.9044
  129OSM   H12G13836   1.956   2.650   4.621  1.1039 -0.3432  0.6543
  129OSM   C13F13837   2.028   2.451   4.660  0.2104 -0.3131 -0.1162
  129OSM   H13F13838   2.138   2.449   4.673  0.7197 -2.6292 -3.5027
  129OSM   H13G13839   2.002   2.351   4.622  0.9984  0.4443 -2.8318
  129OSM   C14F13840   1.966   2.464   4.796  0.5070  0.0090 -0.7993
  129OSM   H14F13841   1.855   2.471   4.789  0.2225  2.6686  3.0650
  129OSM   H14G13842   2.001   2.553   4.853 -1.2421  0.0527  0.2823
  129OSM   C15F13843   1.991   2.342   4.889 -0.5146  0.3729  0.1595
  129OSM   H15F13844   1.968   2.244   4.842  1.3962 -0.2666  0.4810
  129OSM   H15G13845   1.927   2.339   4.980 -0.3323 -2.8154  0.2956
  129OSM   C16F13846   2.136   2.318   4.915  0.1441  0.0182 -0.1181
  129OSM   H16F13847   2.163   2.410   4.971 -1.2910  0.5221 -0.2083
  129OSM   H16G13848   2.193   2.320   4.819 -0.4411  2.4305 -0.4835
  129OSM   C17F13849   2.148   2.189   4.996 -0.0987  0.1380  0.3982
  129OSM   H17F13850   2.121   2.101   4.934 -0.0285  0.9384 -0.8085
  129OSM   H17G13851   2.078   2.196   5.082 -2.4462 -0.1343 -1.3952
  129OSM   C18F13852   2.299   2.158   5.034  0.5807 -0.1298  0.2742
  129OSM   H18F13853   2.298   2.110   5.134 -3.2719 -0.2099  0.3342
  129OSM   H18G13854   2.363   2.249   5.035  0.7026 -0.1787 -1.2226
  129OSM   H18H13855   2.333   2.094   4.950 -2.4188  1.8568 -2.7260
  130OSM      N13856   1.948   6.091   2.681 -0.3448  0.4935  0.4198
  130OSM    C1513857   1.977   6.059   2.534 -0.1927  0.4263  0.1192
  130OSM   H15A13858   2.084   6.052   2.524 -0.3038 -1.0457 -0.3364
  130OSM   H15B13859   1.941   6.136   2.467  0.8468 -0.7061 -1.8234
  130OSM   H15C13860   1.942   5.962   2.503  2.6389  0.1312 -2.6937
  130OSM    C1413861   1.972   6.236   2.716  0.4338 -0.6363  0.4663
  130OSM   H14A13862   1.952   6.235   2.822 -0.8520  1.7585  0.3257
  130OSM   H14B13863   1.904   6.313   2.681 -0.7789 -1.9928 -0.2648
  130OSM   H14C13864   2.074   6.268   2.706  0.8750 -2.2065 -0.2882
  130OSM    C1313865   1.805   6.072   2.693 -0.0132 -0.3289 -0.3989
  130OSM   H13A13866   1.769   5.978   2.652 -3.1557  0.0385  1.2264
  130OSM   H13B13867   1.757   6.154   2.642 -0.5282  0.7138  1.6355
  130OSM   H13C13868   1.776   6.079   2.797 -0.5762 -0.7321 -0.5244
  130OSM    C1213869   2.016   5.993   2.780 -0.1396  0.0304  0.3843
  130OSM   H12A13870   1.993   5.892   2.748  0.1703 -0.2788  1.1009
  130OSM   H12B13871   1.979   6.021   2.878 -0.0254  2.0283 -0.1130
  130OSM    C1113872   2.164   6.019   2.795  0.4284 -0.3606 -0.2602
  130OSM   H11A13873   2.204   6.045   2.695  0.2627 -3.6596 -1.3119
  130OSM   H11B13874   2.209   5.925   2.833 -1.1798 -1.2996 -0.5881
  130OSM      P13875   2.152   6.114   3.034  0.2092  0.1064  0.1372
  130OSM    O1313876   2.015   6.166   3.041 -0.0331  0.1856 -0.3304
  130OSM    O1413877   2.175   5.974   3.077  0.6809  0.0871 -0.1941
  130OSM    O1113878   2.268   6.216   3.089 -0.2812  0.5289  0.2436
  130OSM    O1213879   2.188   6.129   2.879 -0.1462  0.0477  0.0775
  130OSM    C1S13880   2.242   6.290   3.206 -0.3324 -0.2576  0.1048
  130OSM    H1S13881   2.134   6.304   3.230 -0.1348  1.5817  0.0518
  130OSM    H1T13882   2.280   6.392   3.184  0.9304 -0.8456 -0.5536
  130OSM     NF13883   2.260   6.302   3.452 -0.0608 -0.2510  0.1247
  130OSM    HNF13884   2.334   6.349   3.500  2.1122 -0.9736 -2.3231
  130OSM    C2S13885   2.310   6.232   3.334  0.1120 -0.0181 -0.1144
  130OSM    H2S13886   2.269   6.130   3.348 -0.8028  0.2868 -0.4862
  130OSM    C3S13887   2.463   6.217   3.326 -0.0066 -0.3311  0.3522
  130OSM    H3S13888   2.505   6.320   3.313 -1.7190  0.7306  2.5830
  130OSM     O313889   2.506   6.145   3.212  0.4784  0.1255 -0.2137
  130OSM    HO313890   2.438   6.163   3.147  1.1616  1.6763 -0.5390
  130OSM    C4S13891   2.531   6.160   3.455 -0.4302  0.9605  0.9698
  130OSM    H4S13892   2.598   6.232   3.505  0.7151 -0.0259  0.8948
  130OSM    C5S13893   2.515   6.038   3.500 -0.4303 -0.5611  0.2895
  130OSM    H5S13894   2.445   5.973   3.446  0.5222 -1.6369  0.3215
  130OSM    C6S13895   2.570   5.991   3.626  0.0543  0.7432  0.0590
  130OSM    H6S13896   2.655   6.051   3.664  1.4837 -0.9317 -0.3469
  130OSM    H6T13897   2.630   5.901   3.600 -0.0705  0.6933 -0.0565
  130OSM    C7S13898   2.482   5.953   3.746  0.4860  0.5459  0.7446
  130OSM    H7S13899   2.419   5.866   3.718  0.8100  1.0231 -1.6462
  130OSM    H7T13900   2.410   6.032   3.775  0.6960  0.9485  0.1995
  130OSM    C8S13901   2.570   5.908   3.867 -0.0998 -0.2732  0.2160
  130OSM    H8S13902   2.630   5.998   3.892  0.0724  0.0380 -1.2614
  130OSM    H8T13903   2.633   5.822   3.835  0.3408  1.1439 -3.0732
  130OSM    C9S13904   2.484   5.886   3.990 -0.4737 -0.2130  0.3089
  130OSM    H9S13905   2.417   5.799   3.977  0.0427 -0.5242 -0.3760
  130OSM    H9T13906   2.428   5.979   4.016  0.3905  1.3337 -2.8296
  130OSM   C10S13907   2.564   5.866   4.117 -0.5957  0.5341  0.2036
  130OSM   H10S13908   2.618   5.960   4.146  0.1894  0.1836 -0.0986
  130OSM   H10T13909   2.640   5.788   4.097 -1.8412 -0.1624 -2.1902
  130OSM   C11S13910   2.481   5.819   4.232  0.3443  0.2882  0.0404
  130OSM   H11S13911   2.451   5.717   4.200 -1.0864  1.5229 -2.9378
  130OSM   H11T13912   2.389   5.878   4.249  0.1923  0.2110 -0.4984
  130OSM   C12S13913   2.570   5.791   4.359 -0.3177 -0.4421 -0.0248
  130OSM   H12S13914   2.630   5.883   4.371  0.7478 -0.8252 -2.0043
  130OSM   H12T13915   2.644   5.715   4.327 -0.6093 -1.2474  1.1038
  130OSM   C13S13916   2.495   5.746   4.483  0.0821  0.0885  0.3473
  130OSM   H13S13917   2.433   5.661   4.451 -0.1591  0.1193  0.7239
  130OSM   H13T13918   2.425   5.823   4.522 -0.7538 -0.6427  0.3106
  130OSM   C14S13919   2.599   5.713   4.587 -1.0041  0.5073 -0.1227
  130OSM   H14S13920   2.661   5.803   4.608  1.9332 -0.7832 -2.3794
  130OSM   H14T13921   2.673   5.642   4.545 -1.1981  0.5091 -0.4680
  130OSM   C15S13922   2.546   5.642   4.715 -0.2737  0.0856  0.4187
  130OSM   H15S13923   2.482   5.560   4.677  0.6666 -0.5753  0.2385
  130OSM   H15T13924   2.476   5.704   4.775 -1.1578 -0.2221 -0.2699
  130OSM   C16S13925   2.657   5.597   4.812  0.0295 -0.0063  0.3946
  130OSM   H16S13926   2.598   5.586   4.905 -2.0288  0.1549 -0.8437
  130OSM   H16T13927   2.734   5.678   4.823  0.4173 -0.1541 -1.0391
  130OSM   C17S13928   2.721   5.460   4.778  0.5120 -0.1478 -0.6379
  130OSM   H17S13929   2.784   5.478   4.688  2.5431 -0.4761  0.6494
  130OSM   H17T13930   2.646   5.383   4.750 -1.1053  0.3251  2.0968
  130OSM   C18S13931   2.805   5.408   4.884 -0.0460  0.5472 -0.2200
  130OSM   H18S13932   2.885   5.482   4.906 -1.2540  0.8660  4.0513
  130OSM   H18T13933   2.848   5.310   4.853 -2.5402  0.1630 -2.8023
  130OSM   H18U13934   2.750   5.394   4.980  0.3649 -1.6512 -0.2467
  130OSM    C1F13935   2.130   6.311   3.486 -0.2693  0.2627 -0.5337
  130OSM     OF13936   2.037   6.258   3.431 -0.0585  0.3950  0.2253
  130OSM    C2F13937   2.102   6.415   3.594  0.6439 -0.1956 -0.6931
  130OSM    H2F13938   2.101   6.519   3.553  3.1566 -0.5147 -1.7607
  130OSM    H2G13939   2.196   6.415   3.653 -0.1149 -1.0889  0.5591
  130OSM    C3F13940   1.998   6.364   3.697 -0.3694  0.0268  0.1350
  130OSM    H3F13941   2.025   6.257   3.708 -0.3349 -0.1059 -1.1038
  130OSM    H3G13942   1.903   6.369   3.640 -1.7941  1.1365  2.4186
  130OSM    C4F13943   2.004   6.440   3.836 -0.0583  0.1340  0.0516
  130OSM    H4F13944   1.959   6.541   3.827  0.4362  0.3813  0.2520
  130OSM    H4G13945   2.111   6.465   3.854 -0.2980  0.4493  1.0627
  130OSM    C5F13946   1.950   6.348   3.947 -0.2924 -0.5528  0.1467
  130OSM    H5F13947   2.020   6.262   3.942  0.9916  0.5144 -1.6410
  130OSM    H5G13948   1.849   6.319   3.912  0.3757  0.1662 -2.6063
  130OSM    C6F13949   1.943   6.412   4.089  0.3500 -0.6096 -0.4118
  130OSM    H6F13950   1.870   6.495   4.076  0.0432 -0.9564 -1.0090
  130OSM    H6G13951   2.043   6.453   4.114 -0.0863 -0.1649  0.6288
  130OSM    C7F13952   1.897   6.320   4.196 -0.3687  0.3433 -0.4105
  130OSM    H7F13953   1.985   6.254   4.214  0.6217  1.4553 -1.0028
  130OSM    H7G13954   1.804   6.269   4.164  0.0444 -0.0046 -1.0817
  130OSM    C8F13955   1.862   6.397   4.327  0.0791  0.5044 -0.0014
  130OSM    H8F13956   1.773   6.454   4.293 -0.3051 -0.8061 -1.2849
  130OSM    H8G13957   1.949   6.460   4.358  2.9564 -3.8690  1.7914
  130OSM    C9F13958   1.825   6.300   4.434  0.1483  0.1323 -0.2215
  130OSM    H9F13959   1.755   6.220   4.408 -0.7640  1.1975 -1.1360
  130OSM   C10F13960   1.869   6.302   4.560  0.1742 -0.1447 -0.4482
  130OSM   H10F13961   1.830   6.225   4.628 -2.6380  0.9673 -0.6425
  130OSM   C11F13962   1.977   6.395   4.619 -0.4152 -0.2428 -0.2916
  130OSM   H11F13963   1.924   6.479   4.668  2.0354  1.0198  0.3826
  130OSM   H11G13964   2.047   6.436   4.543 -0.8978  1.9884  0.3950
  130OSM   C12F13965   2.075   6.311   4.711 -0.3587 -0.2273 -0.7765
  130OSM   H12F13966   2.168   6.370   4.725 -0.0723 -0.7466 -0.4562
  130OSM   H12G13967   2.104   6.217   4.658 -0.5931 -2.5371  2.8554
  130OSM   C13F13968   2.026   6.278   4.856 -0.2391  0.2793  0.5387
  130OSM   H13F13969   1.935   6.215   4.847  0.2856 -0.4961  0.4703
  130OSM   H13G13970   2.001   6.374   4.906  0.5309  0.2817  0.9348
  130OSM   C14F13971   2.134   6.220   4.947  0.3290 -0.3007  0.0731
  130OSM   H14F13972   2.164   6.122   4.902 -1.9182 -2.4625  2.8684
  130OSM   H14G13973   2.087   6.190   5.043 -0.1867  3.2571  1.0729
  130OSM   C15F13974   2.256   6.303   4.978 -0.4196 -0.0158  0.3960
  130OSM   H15F13975   2.210   6.394   5.023 -3.6693 -1.3357  0.0593
  130OSM   H15G13976   2.308   6.334   4.885 -3.2808  0.1782 -1.2721
  130OSM   C16F13977   2.347   6.229   5.082  0.0623  0.1357 -0.2297
  130OSM   H16F13978   2.437   6.291   5.097 -1.3046  1.8612  1.3322
  130OSM   H16G13979   2.383   6.133   5.039  0.2754  0.1817 -0.1532
  130OSM   C17F13980   2.288   6.214   5.222 -0.1339  0.6416  1.0191
  130OSM   H17F13981   2.373   6.177   5.284  0.5798 -0.7483 -0.7021
  130OSM   H17G13982   2.213   6.133   5.218  0.8176 -0.4168  2.9235
  130OSM   C18F13983   2.228   6.340   5.269  0.6645 -0.9769 -0.2662
  130OSM   H18F13984   2.308   6.416   5.276  0.1978 -0.3581 -1.3209
  130OSM   H18G13985   2.177   6.333   5.367 -0.7430  1.8835 -0.6966
  130OSM   H18H13986   2.155   6.386   5.198  0.0654  0.2517  1.1102
  131OSM      N13987   0.595   6.668   2.391 -0.4762  0.2467  0.4124
  131OSM    C1513988   0.512   6.655   2.271 -0.6163 -1.0942  0.4085
  131OSM   H15A13989   0.475   6.750   2.234  1.1204  0.0997  1.5464
  131OSM   H15B13990   0.437   6.577   2.276 -0.3378 -1.4181 -0.3239
  131OSM   H15C13991   0.576   6.623   2.190 -0.3742 -2.1407  1.0065
  131OSM    C1413992   0.677   6.539   2.403  0.4525  0.0767 -0.0809
  131OSM   H14A13993   0.732   6.538   2.495 -0.3106 -0.7747  0.3835
  131OSM   H14B13994   0.749   6.521   2.325  0.4052  0.1124 -0.1331
  131OSM   H14C13995   0.612   6.452   2.402  0.0122  0.4016  0.0299
  131OSM    C1313996   0.687   6.778   2.380 -0.7203  0.1085 -0.0821
  131OSM   H13A13997   0.645   6.864   2.331  1.9343  0.1359 -2.6175
  131OSM   H13B13998   0.781   6.757   2.330 -1.5267  1.8950 -2.5469
  131OSM   H13C13999   0.707   6.819   2.477 -0.6581  0.1337 -0.1051
  131OSM    C1214000   0.508   6.684   2.516 -0.5236 -0.2630  0.3640
  131OSM   H12A14001   0.448   6.595   2.528  0.2915 -0.8940 -0.1201
  131OSM   H12B14002   0.446   6.771   2.506  2.7135  2.0501 -1.4149
  131OSM    C1114003   0.581   6.701   2.655 -0.2250 -0.3714 -0.2221
  131OSM   H11A14004   0.659   6.628   2.685 -0.4327  0.4990  2.8278
  131OSM   H11B14005   0.511   6.678   2.739  0.3232 -0.8707  0.1070
  131OSM      P14006   0.536   6.958   2.711  0.0488  0.1874  0.0681
  131OSM    O1314007   0.626   7.070   2.730 -0.4407 -0.3853  0.3805
  131OSM    O1414008   0.414   6.965   2.622 -0.1020  0.1374 -0.3383
  131OSM    O1114009   0.484   6.906   2.847 -0.3186 -0.0032 -0.0180
  131OSM    O1214010   0.627   6.834   2.669  0.3769  0.2069 -0.3649
  131OSM    C1S14011   0.441   7.012   2.941  0.7008  0.3482 -0.0646
  131OSM    H1S14012   0.358   7.071   2.895  0.4330  0.3247  0.3782
  131OSM    H1T14013   0.518   7.090   2.962  0.0119  0.5896  1.8276
  131OSM     NF14014   0.322   7.066   3.155 -0.8372 -0.1597  0.1212
  131OSM    HNF14015   0.370   7.129   3.215 -0.5827 -0.6956  0.4882
  131OSM    C2S14016   0.396   6.961   3.087  0.2313  0.0241 -0.3858
  131OSM    H2S14017   0.326   6.876   3.069  0.7900 -0.0532 -2.4275
  131OSM    C3S14018   0.522   6.911   3.163  1.2037 -0.3231 -0.3179
  131OSM    H3S14019   0.568   7.004   3.202 -1.3367  1.3630 -1.0655
  131OSM     O314020   0.621   6.858   3.083 -0.6219  0.3118  0.0718
  131OSM    HO314021   0.584   6.851   2.995  1.7480 -0.0209 -0.9571
  131OSM    C4S14022   0.484   6.828   3.281  0.0695 -0.2403 -0.2157
  131OSM    H4S14023   0.431   6.893   3.352  1.2872  0.6112 -0.0681
  131OSM    C5S14024   0.490   6.695   3.300 -0.1356  0.2680  0.5055
  131OSM    H5S14025   0.532   6.625   3.226 -2.1658 -1.6257  1.0468
  131OSM    C6S14026   0.438   6.616   3.419  0.0252 -0.2009 -0.3759
  131OSM    H6S14027   0.444   6.507   3.398  1.2110 -0.1277 -0.4741
  131OSM    H6T14028   0.329   6.633   3.436 -0.4445 -1.7926 -1.5471
  131OSM    C7S14029   0.516   6.653   3.547  0.2280  0.4681  0.8270
  131OSM    H7S14030   0.508   6.762   3.563 -0.0362  0.8680 -1.6455
  131OSM    H7T14031   0.623   6.626   3.540 -0.3209 -1.3693 -2.5297
  131OSM    C8S14032   0.458   6.573   3.666 -0.1933 -0.3060  0.1676
  131OSM    H8S14033   0.455   6.465   3.641  1.7761 -0.0385 -1.4942
  131OSM    H8T14034   0.352   6.602   3.682  0.0190  2.6047 -2.5517
  131OSM    C9S14035   0.534   6.605   3.797 -0.2817 -0.5743  0.2153
  131OSM    H9S14036   0.536   6.716   3.805  0.3114 -0.6566  1.5079
  131OSM    H9T14037   0.638   6.565   3.793  0.0724  0.1864  1.4494
  131OSM   C10S14038   0.471   6.537   3.924 -0.0079  0.5867 -0.8431
  131OSM   H10S14039   0.456   6.428   3.909  0.6841 -0.0223  2.3276
  131OSM   H10T14040   0.371   6.579   3.949 -0.3953 -1.1863  0.7764
  131OSM   C11S14041   0.566   6.552   4.039  0.0022  0.1852 -0.3373
  131OSM   H11S14042   0.569   6.657   4.076  1.0110 -1.1212  3.8214
  131OSM   H11T14043   0.668   6.516   4.014  0.1689  0.9755 -0.8483
  131OSM   C12S14044   0.519   6.460   4.150  0.3246 -0.1497  0.7602
  131OSM   H12S14045   0.517   6.357   4.107  1.0256  0.6924 -1.4237
  131OSM   H12T14046   0.418   6.494   4.182 -0.0972 -0.0712 -0.6165
  131OSM   C13S14047   0.613   6.465   4.271  0.0540  0.1382 -0.1940
  131OSM   H13S14048   0.631   6.568   4.308 -0.1489 -0.9279  3.2240
  131OSM   H13T14049   0.708   6.424   4.233  0.1438 -0.2045  0.3784
  131OSM   C14S14050   0.565   6.392   4.396  0.5115  0.1109  0.5807
  131OSM   H14S14051   0.545   6.286   4.369 -3.5404  0.7747  0.2549
  131OSM   H14T14052   0.468   6.431   4.435  0.4624  0.3719  0.2070
  131OSM   C15S14053   0.660   6.401   4.515  0.0494  0.4798  0.2134
  131OSM   H15S14054   0.680   6.507   4.539 -0.2100  0.6763 -0.4120
  131OSM   H15T14055   0.759   6.360   4.485  0.2443  3.0507 -3.2466
  131OSM   C16S14056   0.612   6.330   4.637 -0.4730  0.1366 -0.0633
  131OSM   H16S14057   0.593   6.229   4.594  1.4126 -1.6004  2.7508
  131OSM   H16T14058   0.528   6.382   4.688 -0.7929 -0.7522  0.3507
  131OSM   C17S14059   0.724   6.314   4.740 -0.3189 -0.2017 -0.4617
  131OSM   H17S14060   0.826   6.313   4.695  0.3997 -1.3612  1.1189
  131OSM   H17T14061   0.717   6.211   4.781 -0.2254 -0.9826 -2.2881
  131OSM   C18S14062   0.715   6.408   4.860  0.3935  0.5754  0.2245
  131OSM   H18S14063   0.750   6.511   4.838  1.4762  0.5499  1.6342
  131OSM   H18T14064   0.757   6.360   4.952 -1.1423 -1.6623 -0.1679
  131OSM   H18U14065   0.608   6.425   4.884  0.2176  0.2858 -0.3490
  131OSM    C1F14066   0.198   7.095   3.132  0.3635 -0.3092 -0.1304
  131OSM     OF14067   0.127   7.047   3.043  0.0494 -0.4254 -0.5914
  131OSM    C2F14068   0.153   7.214   3.208  0.0073 -0.1178  0.3310
  131OSM    H2F14069   0.124   7.287   3.130 -2.4558 -1.1870  0.1528
  131OSM    H2G14070   0.232   7.249   3.278  1.1809 -1.3373 -0.3436
  131OSM    C3F14071   0.027   7.179   3.290 -0.1087  0.1978 -0.3889
  131OSM    H3F14072  -0.049   7.123   3.232 -1.1663 -0.5294  1.5736
  131OSM    H3G14073  -0.009   7.279   3.320  0.9525  0.4143  0.2585
  131OSM    C4F14074   0.046   7.097   3.416 -0.0715 -0.6279 -0.3720
  131OSM    H4F14075  -0.039   7.125   3.482 -0.8200 -2.3610 -0.5588
  131OSM    H4G14076   0.134   7.127   3.478 -1.0910  0.4440  0.6009
  131OSM    C5F14077   0.037   6.939   3.402  0.0480 -0.6257 -0.2378
  131OSM    H5F14078   0.132   6.893   3.365 -0.2902 -0.6436 -1.1053
  131OSM    H5G14079  -0.038   6.905   3.328 -0.8303 -2.1382  1.2883
  131OSM    C6F14080  -0.002   6.887   3.544 -0.4868  0.2566  0.4713
  131OSM    H6F14081   0.002   6.777   3.539  3.5385  0.2984 -0.6666
  131OSM    H6G14082  -0.103   6.924   3.574 -0.0832  2.0271 -0.1870
  131OSM    C7F14083   0.106   6.926   3.651  0.0529 -0.6090  0.2243
  131OSM    H7F14084   0.105   7.037   3.660 -1.6653 -0.5445 -0.5169
  131OSM    H7G14085   0.206   6.883   3.626 -0.3804 -1.5527  0.0808
  131OSM    C8F14086   0.075   6.883   3.796  0.7656  0.1550  0.2982
  131OSM    H8F14087   0.061   6.773   3.802 -1.7701  0.4006  0.0230
  131OSM    H8G14088  -0.025   6.921   3.827  0.3870 -0.8977  0.4147
  131OSM    C9F14089   0.189   6.931   3.882 -0.3218  0.5347  0.0438
  131OSM    H9F14090   0.233   7.028   3.855 -1.9908  1.3424  0.1308
  131OSM   C10F14091   0.228   6.880   3.998  0.6936  0.0031 -0.2990
  131OSM   H10F14092   0.314   6.922   4.052  0.4398  0.4925 -0.2674
  131OSM   C11F14093   0.160   6.768   4.065 -0.8063  0.7533 -0.4744
  131OSM   H11F14094   0.218   6.674   4.067 -1.5164  0.3171  1.5545
  131OSM   H11G14095   0.065   6.743   4.014 -0.4626  0.5691 -1.0448
  131OSM   C12F14096   0.128   6.791   4.216  0.4538 -0.2926  0.4503
  131OSM   H12F14097   0.091   6.695   4.257 -2.1261  0.1816 -0.6266
  131OSM   H12G14098   0.055   6.873   4.234 -2.2546 -2.1374 -1.4191
  131OSM   C13F14099   0.255   6.832   4.295  0.8725  0.1723  0.3964
  131OSM   H13F14100   0.302   6.924   4.256 -1.6587  0.8993 -1.1576
  131OSM   H13G14101   0.333   6.753   4.284  0.0881 -0.5445 -0.1856
  131OSM   C14F14102   0.231   6.859   4.440 -0.1164 -1.0128 -0.5196
  131OSM   H14F14103   0.177   6.775   4.489  0.3722 -1.2489 -0.3750
  131OSM   H14G14104   0.174   6.954   4.453 -1.0650 -1.7984  1.6684
  131OSM   C15F14105   0.369   6.880   4.508  0.6840 -0.0094 -0.0184
  131OSM   H15F14106   0.417   6.970   4.466  1.4028  0.1572  1.1266
  131OSM   H15G14107   0.435   6.793   4.485 -0.3713 -0.4206 -1.6730
  131OSM   C16F14108   0.351   6.901   4.658 -0.0852 -0.3698  0.4745
  131OSM   H16F14109   0.289   6.993   4.668  1.2807  0.4538  1.7716
  131OSM   H16G14110   0.447   6.926   4.709 -0.6188 -1.0680  1.8783
  131OSM   C17F14111   0.290   6.778   4.739 -0.1556  0.0445  0.0336
  131OSM   H17F14112   0.336   6.679   4.722 -4.1463 -2.1750  0.8573
  131OSM   H17G14113   0.182   6.772   4.712  0.4660 -1.2173 -2.4216
  131OSM   C18F14114   0.301   6.811   4.893  0.7874 -0.0006 -0.0321
  131OSM   H18F14115   0.248   6.906   4.913  1.2446 -0.1146  1.9010
  131OSM   H18G14116   0.409   6.837   4.902  0.8403 -0.0431 -0.5128
  131OSM   H18H14117   0.280   6.722   4.957  0.7992  0.4354  0.5804
  132OSM      N14118   0.048   6.775   2.856 -0.0527  0.1025 -0.4466
  132OSM    C1514119   0.196   6.755   2.843 -0.1020  0.6946 -0.6108
  132OSM   H15A14120   0.217   6.656   2.879  1.3717  0.6402 -1.5250
  132OSM   H15B14121   0.254   6.823   2.904 -1.5071  2.2748 -0.9733
  132OSM   H15C14122   0.215   6.769   2.737 -0.9703  2.8156 -0.5295
  132OSM    C1414123   0.003   6.911   2.801 -0.6148 -0.3793 -0.5495
  132OSM   H14A14124   0.026   6.911   2.695 -1.5103 -3.3140 -0.8604
  132OSM   H14B14125   0.042   6.995   2.856 -3.3746  0.5705  0.1328
  132OSM   H14C14126  -0.105   6.916   2.805 -0.5909 -0.3349  0.0315
  132OSM    C1314127  -0.022   6.664   2.776 -0.2958  0.1794  0.4901
  132OSM   H13A14128   0.014   6.664   2.674 -2.0213 -2.9698 -0.2688
  132OSM   H13B14129  -0.127   6.682   2.789 -0.5907 -1.6536  0.8717
  132OSM   H13C14130  -0.007   6.568   2.824  2.7112  0.9169  1.2706
  132OSM    C1214131   0.008   6.776   3.005  0.4301  0.7129  0.0700
  132OSM   H12A14132   0.068   6.848   3.058  0.9008  0.2135  0.2340
  132OSM   H12B14133   0.028   6.675   3.037 -2.9848  0.1075  0.6174
  132OSM    C1114134  -0.137   6.806   3.048  0.1993 -0.3449 -0.1780
  132OSM   H11A14135  -0.156   6.911   3.018 -1.1413 -1.0247 -1.8453
  132OSM   H11B14136  -0.139   6.798   3.159  1.0957  1.5415  0.0319
  132OSM      P14137  -0.386   6.779   2.974  0.4881 -0.4011  0.1574
  132OSM    O1314138  -0.385   6.855   2.846 -0.1585 -0.0932  0.7069
  132OSM    O1414139  -0.481   6.664   2.984 -0.0126 -0.2542  0.6446
  132OSM    O1114140  -0.403   6.882   3.093  0.5679  0.9216  0.6853
  132OSM    O1214141  -0.238   6.719   2.990 -0.3033  0.0690 -0.3156
  132OSM    C1S14142  -0.456   6.843   3.220 -0.6951 -0.7319 -0.3846
  132OSM    H1S14143  -0.445   6.734   3.240 -0.0168 -0.2645  2.1080
  132OSM    H1T14144  -0.565   6.864   3.222 -0.4958  0.6411 -1.7961
  132OSM     NF14145  -0.407   6.837   3.469 -0.1945 -0.4448  0.5945
  132OSM    HNF14146  -0.456   6.881   3.545  0.6128  1.5412  0.0346
  132OSM    C2S14147  -0.393   6.916   3.342 -0.6805  0.5777 -0.1332
  132OSM    H2S14148  -0.284   6.911   3.321 -1.1055 -0.0415 -2.3929
  132OSM    C3S14149  -0.439   7.066   3.345 -0.3180 -0.1753  0.8272
  132OSM    H3S14150  -0.550   7.067   3.358 -0.4721  0.2763 -0.3529
  132OSM     O314151  -0.426   7.117   3.213  0.3137  0.0315 -0.1227
  132OSM    HO314152  -0.396   7.046   3.156 -0.2567  0.0885 -0.5053
  132OSM    C4S14153  -0.357   7.138   3.436 -0.3485 -0.6734 -0.0217
  132OSM    H4S14154  -0.249   7.115   3.438 -0.4705 -1.4346  2.7977
  132OSM    C5S14155  -0.389   7.232   3.527  1.0022 -0.0053  0.6489
  132OSM    H5S14156  -0.491   7.273   3.531  1.1444  0.6799 -1.4701
  132OSM    C6S14157  -0.280   7.277   3.625 -0.4673  0.6723 -0.5746
  132OSM    H6S14158  -0.296   7.379   3.665 -1.4221  0.1911  0.2957
  132OSM    H6T14159  -0.179   7.266   3.580 -0.3456  2.2003 -0.7181
  132OSM    C7S14160  -0.286   7.177   3.742 -0.2108 -0.5507 -0.2613
  132OSM    H7S14161  -0.278   7.067   3.728  2.4775 -0.6212  1.1288
  132OSM    H7T14162  -0.385   7.197   3.789 -0.7015  1.0460 -1.8385
  132OSM    C8S14163  -0.179   7.217   3.842 -0.1472  0.0219 -0.8297
  132OSM    H8S14164  -0.192   7.326   3.860 -2.0951 -0.2954 -0.0819
  132OSM    H8T14165  -0.079   7.206   3.795  0.1848 -2.0523  0.2437
  132OSM    C9S14166  -0.177   7.135   3.969 -0.5592  0.7401  0.5023
  132OSM    H9S14167  -0.150   7.030   3.945 -0.2477  0.8898  0.1995
  132OSM    H9T14168  -0.284   7.127   3.998 -0.4283 -1.4211  0.5767
  132OSM   C10S14169  -0.088   7.188   4.082 -0.4353  0.1927  0.2428
  132OSM   H10S14170  -0.121   7.293   4.099 -0.7792  0.0996  0.1549
  132OSM   H10T14171   0.016   7.202   4.046 -0.4439 -1.0808 -0.3176
  132OSM   C11S14172  -0.097   7.120   4.218  0.1218 -0.0677  0.8714
  132OSM   H11S14173  -0.057   7.016   4.214 -1.7128 -0.7551 -0.9549
  132OSM   H11T14174  -0.205   7.110   4.242 -0.1933 -0.3131 -0.5588
  132OSM   C12S14175  -0.030   7.195   4.339  0.3119  0.3857 -0.1460
  132OSM   H12S14176   0.075   7.218   4.311 -0.1243  0.7273 -1.6264
  132OSM   H12T14177  -0.034   7.115   4.415 -1.2750  0.0221 -0.5800
  132OSM   C13S14178  -0.105   7.322   4.378 -0.3912 -0.6416  0.1154
  132OSM   H13S14179  -0.208   7.299   4.412 -1.4183 -1.5730 -3.1731
  132OSM   H13T14180  -0.101   7.391   4.291 -0.0723 -0.6774  0.1006
  132OSM   C14S14181  -0.044   7.413   4.492 -0.7761 -0.5313  0.2868
  132OSM   H14S14182   0.052   7.457   4.458 -1.0720  0.1241  0.2821
  132OSM   H14T14183  -0.021   7.351   4.581  1.7078 -1.3431 -0.8534
  132OSM   C15S14184  -0.138   7.521   4.530  0.0766 -0.6256  0.1510
  132OSM   H15S14185  -0.237   7.473   4.542 -0.7822  1.2152  0.9467
  132OSM   H15T14186  -0.140   7.592   4.444 -0.7785 -0.4532  0.3059
  132OSM   C16S14187  -0.104   7.590   4.662  0.0250 -0.6236 -0.1711
  132OSM   H16S14188  -0.004   7.638   4.658  1.0329 -2.3307  2.0798
  132OSM   H16T14189  -0.100   7.525   4.752 -1.7626 -1.2689 -0.5182
  132OSM   C17S14190  -0.194   7.711   4.711  0.2658 -0.0481 -0.2880
  132OSM   H17S14191  -0.187   7.791   4.635  1.4489 -0.7521 -0.9457
  132OSM   H17T14192  -0.144   7.753   4.801 -0.0378 -0.2750 -0.0058
  132OSM   C18S14193  -0.340   7.662   4.740  0.3540  0.3821  0.1588
  132OSM   H18S14194  -0.375   7.717   4.830  0.8089 -0.8039  1.1005
  132OSM   H18T14195  -0.352   7.554   4.762 -0.9084  0.4536 -0.0946
  132OSM   H18U14196  -0.405   7.696   4.657  0.6589 -1.3450 -0.8334
  132OSM    C1F14197  -0.353   6.721   3.494  0.0260  0.5799  0.2535
  132OSM     OF14198  -0.298   6.651   3.406 -0.3316 -0.4483 -0.3945
  132OSM    C2F14199  -0.371   6.669   3.629  0.1696 -0.5703  0.3185
  132OSM    H2F14200  -0.477   6.638   3.639 -0.2324  0.3894 -0.7812
  132OSM    H2G14201  -0.364   6.756   3.698 -1.9399  1.8938 -2.3152
  132OSM    C3F14202  -0.294   6.537   3.672 -0.5269  0.3933 -0.1871
  132OSM    H3F14203  -0.186   6.562   3.685 -0.9242  1.1430  2.2829
  132OSM    H3G14204  -0.308   6.474   3.582 -2.4880 -0.6011  0.7574
  132OSM    C4F14205  -0.356   6.477   3.800 -0.6505  0.2410  0.6616
  132OSM    H4F14206  -0.312   6.377   3.818 -0.8080  0.2856  1.3202
  132OSM    H4G14207  -0.463   6.452   3.785 -0.3641 -0.1563 -0.8997
  132OSM    C5F14208  -0.345   6.583   3.909  0.0760  0.5637 -0.0854
  132OSM    H5F14209  -0.426   6.658   3.910  0.3879  0.9395  2.2511
  132OSM    H5G14210  -0.247   6.636   3.905  0.2975  0.3887  1.9617
  132OSM    C6F14211  -0.350   6.530   4.055 -0.9305  0.9440 -0.2312
  132OSM    H6F14212  -0.280   6.443   4.064 -1.4173  0.4231 -1.3297
  132OSM    H6G14213  -0.453   6.499   4.085  0.1477 -0.6628  2.1802
  132OSM    C7F14214  -0.301   6.639   4.147  0.6684 -0.3898  0.0901
  132OSM    H7F14215  -0.368   6.726   4.131 -1.1189 -1.5207  1.0644
  132OSM    H7G14216  -0.193   6.660   4.137  0.4844  0.8096  0.4822
  132OSM    C8F14217  -0.310   6.602   4.301 -0.3510 -0.7767  0.1448
  132OSM    H8F14218  -0.252   6.511   4.327 -2.3187 -1.7327  1.4854
  132OSM    H8G14219  -0.415   6.571   4.324 -0.6586 -0.4460 -0.7511
  132OSM    C9F14220  -0.260   6.733   4.372 -0.7400  0.4537  1.0487
  132OSM    H9F14221  -0.234   6.818   4.309  0.1681 -0.6719 -0.1601
  132OSM   C10F14222  -0.219   6.735   4.496 -0.0751  0.0023  0.8448
  132OSM   H10F14223  -0.161   6.819   4.535  0.9749  1.2599 -2.9753
  132OSM   C11F14224  -0.230   6.625   4.598 -0.0351  0.2858  0.5656
  132OSM   H11F14225  -0.177   6.661   4.689 -0.1297 -1.3252  1.2822
  132OSM   H11G14226  -0.172   6.537   4.563  0.9151  1.2232 -0.2813
  132OSM   C12F14227  -0.375   6.586   4.641  0.0876 -0.4624 -0.2611
  132OSM   H12F14228  -0.419   6.546   4.547 -1.6323  2.0858 -0.6320
  132OSM   H12G14229  -0.435   6.677   4.656  0.6277  0.3821 -2.6839
  132OSM   C13F14230  -0.385   6.483   4.763 -0.3429  0.1828  0.9038
  132OSM   H13F14231  -0.337   6.391   4.726 -1.2129 -0.0836  0.4022
  132OSM   H13G14232  -0.486   6.459   4.802 -0.3946 -0.9937  0.0788
  132OSM   C14F14233  -0.291   6.541   4.874  1.0633  0.4752 -0.3036
  132OSM   H14F14234  -0.184   6.561   4.855  0.6230  1.3501 -2.0331
  132OSM   H14G14235  -0.290   6.459   4.950  0.1535 -0.2179 -1.0153
  132OSM   C15F14236  -0.346   6.668   4.929 -0.4470 -0.1281 -0.0377
  132OSM   H15F14237  -0.456   6.661   4.944 -0.7317 -2.5588 -2.4685
  132OSM   H15G14238  -0.322   6.746   4.854 -0.2752 -1.6060 -1.5738
  132OSM   C16F14239  -0.279   6.689   5.065  0.0277  0.4577 -0.2502
  132OSM   H16F14240  -0.173   6.658   5.066 -0.5765 -1.8498  1.6021
  132OSM   H16G14241  -0.339   6.623   5.132 -1.0904  2.5189  0.9148
  132OSM   C17F14242  -0.288   6.826   5.133  0.3740 -0.0130  0.1846
  132OSM   H17F14243  -0.394   6.841   5.161  0.7475  2.1706  0.6330
  132OSM   H17G14244  -0.252   6.907   5.066 -1.4327 -0.5731 -1.5512
  132OSM   C18F14245  -0.203   6.851   5.255 -0.5557  0.0486 -0.3078
  132OSM   H18F14246  -0.099   6.846   5.216 -1.1344 -0.0789 -1.9050
  132OSM   H18G14247  -0.204   6.770   5.331  0.7406 -0.7914 -1.1468
  132OSM   H18H14248  -0.215   6.949   5.305  0.3481  0.0816 -0.1439
  133OSM      N14249   5.834   0.887   2.952 -0.4071  0.1628 -0.2858
  133OSM    C1514250   5.841   0.767   2.864  0.1908  0.5340  0.5283
  133OSM   H15A14251   5.927   0.760   2.798  0.1159 -0.6936  0.5396
  133OSM   H15B14252   5.749   0.763   2.807  1.7077 -0.0124 -2.0893
  133OSM   H15C14253   5.848   0.676   2.921 -1.4855 -1.3300 -1.9980
  133OSM    C1414254   5.944   0.874   3.043  0.1611 -0.8082  0.0907
  133OSM   H14A14255   5.942   0.781   3.097 -1.8511 -0.6756  0.3218
  133OSM   H14B14256   5.945   0.943   3.126  0.8826 -0.0684 -0.5130
  133OSM   H14C14257   6.037   0.889   2.990  0.2974 -1.9187  0.0062
  133OSM    C1314258   5.847   1.011   2.861 -0.5837 -0.6900 -1.1226
  133OSM   H13A14259   5.750   1.019   2.813 -0.9167  0.6263 -0.3019
  133OSM   H13B14260   5.929   1.002   2.792 -0.7632  1.2534 -1.6510
  133OSM   H13C14261   5.873   1.098   2.919  2.0149  0.2678 -3.5141
  133OSM    C1214262   5.700   0.897   3.027  0.3792  0.5059  0.2299
  133OSM   H12A14263   5.674   0.810   3.086  0.9364  0.1105 -0.1001
  133OSM   H12B14264   5.619   0.912   2.958 -0.6813 -0.6649  1.1647
  133OSM    C1114265   5.680   1.017   3.125 -0.4988  0.3096 -0.2849
  133OSM   H11A14266   5.768   1.027   3.193  0.3496  1.9135 -1.5401
  133OSM   H11B14267   5.593   1.001   3.192  0.3328 -3.2193  0.1739
  133OSM      P14268   5.554   1.233   3.044  0.5011  0.1507 -0.0988
  133OSM    O1314269   5.585   1.375   2.999 -0.8958  0.5388 -0.8663
  133OSM    O1414270   5.453   1.163   2.961  0.4844 -0.0149 -0.5828
  133OSM    O1114271   5.498   1.245   3.190 -0.6118 -0.4655  0.2279
  133OSM    O1214272   5.685   1.144   3.056 -0.2242 -0.6645 -0.7846
  133OSM    C1S14273   5.588   1.275   3.302  0.3105  0.1795 -0.1094
  133OSM    H1S14274   5.667   1.348   3.274 -0.0801  0.6253 -0.0660
  133OSM    H1T14275   5.640   1.182   3.333 -0.2853 -0.6755 -1.5746
  133OSM     NF14276   5.609   1.347   3.533  0.2985  0.5608  0.6674
  133OSM    HNF14277   5.623   1.263   3.584  0.1665 -0.5275 -0.9864
  133OSM    C2S14278   5.511   1.340   3.425  0.5628  0.0949  0.8667
  133OSM    H2S14279   5.476   1.442   3.398  0.2771  0.0710  1.1454
  133OSM    C3S14280   5.380   1.256   3.456  0.3974  0.5082 -0.0126
  133OSM    H3S14281   5.422   1.153   3.459 -2.7419 -0.9114 -0.2153
  133OSM     O314282   5.281   1.253   3.355  0.1137  0.7460  0.3793
  133OSM    HO314283   5.331   1.244   3.274 -0.6669 -0.3847 -0.0012
  133OSM    C4S14284   5.318   1.290   3.589 -0.0395 -0.3705 -0.1887
  133OSM    H4S14285   5.332   1.211   3.664 -0.0451  0.9826  1.2928
  133OSM    C5S14286   5.237   1.389   3.619 -0.0346 -0.0459 -0.5195
  133OSM    H5S14287   5.214   1.464   3.541 -0.4442  0.0400 -0.3198
  133OSM    C6S14288   5.170   1.412   3.756  0.0769 -0.4281  0.2312
  133OSM    H6S14289   5.066   1.396   3.721 -0.0874  0.8881  0.0672
  133OSM    H6T14290   5.178   1.517   3.790  1.9320 -0.7851  1.0231
  133OSM    C7S14291   5.202   1.324   3.870  0.0943 -0.1903  0.0444
  133OSM    H7S14292   5.312   1.317   3.878  0.0998  1.4108  2.4852
  133OSM    H7T14293   5.161   1.225   3.840 -0.1312 -0.2711  0.5958
  133OSM    C8S14294   5.152   1.367   4.004  0.3549 -0.1629 -0.0252
  133OSM    H8S14295   5.216   1.445   4.050  2.8619 -1.1966 -1.5774
  133OSM    H8T14296   5.140   1.279   4.071  1.7246 -1.9933 -2.0497
  133OSM    C9S14297   5.007   1.425   3.996 -0.2254 -0.4801  0.5121
  133OSM    H9S14298   4.939   1.368   3.929 -2.2718  0.8990  1.3332
  133OSM    H9T14299   5.012   1.522   3.941  0.9495 -1.3963 -1.0925
  133OSM   C10S14300   4.942   1.441   4.137 -0.8670 -0.1695  0.2998
  133OSM   H10S14301   4.934   1.340   4.181 -1.4679 -0.9250 -1.4605
  133OSM   H10T14302   4.841   1.485   4.123  0.4717  3.4490  0.8870
  133OSM   C11S14303   5.021   1.518   4.242 -0.3316 -0.2237  0.4313
  133OSM   H11S14304   5.006   1.627   4.226  0.0387 -0.0208  1.4175
  133OSM   H11T14305   5.129   1.489   4.239 -0.3329 -0.1766 -0.4018
  133OSM   C12S14306   4.989   1.471   4.381  0.4053  0.0572  0.4970
  133OSM   H12S14307   5.039   1.374   4.399  2.9504  0.8522 -1.5712
  133OSM   H12T14308   4.882   1.444   4.387  0.5207 -0.4589  0.2575
  133OSM   C13S14309   5.033   1.561   4.494  0.0780 -0.0378  0.7019
  133OSM   H13S14310   4.983   1.657   4.469  0.4860  0.4722  1.7830
  133OSM   H13T14311   5.141   1.575   4.475 -0.2871  1.5530 -0.4161
  133OSM   C14S14312   5.001   1.514   4.633  0.4642 -0.2864  0.2379
  133OSM   H14S14313   5.037   1.412   4.657 -0.7870 -1.1032 -1.2333
  133OSM   H14T14314   4.891   1.516   4.647  0.4435  2.3854  0.2233
  133OSM   C15S14315   5.058   1.613   4.730 -0.1010 -0.1277 -0.0666
  133OSM   H15S14316   5.003   1.709   4.733 -0.0022 -0.0304 -0.9442
  133OSM   H15T14317   5.155   1.660   4.702  0.2199  0.5304  1.9826
  133OSM   C16S14318   5.062   1.562   4.871  0.2431  0.1826  0.3181
  133OSM   H16S14319   4.966   1.508   4.883 -0.2103  0.7169 -0.8134
  133OSM   H16T14320   5.045   1.654   4.931  1.8363  1.1094 -0.5957
  133OSM   C17S14321   5.189   1.478   4.910 -0.1435  0.0485 -0.3462
  133OSM   H17S14322   5.173   1.377   4.866 -0.8600  0.4694 -1.0772
  133OSM   H17T14323   5.182   1.453   5.018  2.9908 -1.9918 -0.4831
  133OSM   C18S14324   5.325   1.547   4.886 -0.7145  0.9591 -0.3961
  133OSM   H18S14325   5.334   1.593   4.785 -0.8287  1.2641 -0.2701
  133OSM   H18T14326   5.406   1.472   4.892 -0.8521  0.7614 -0.9052
  133OSM   H18U14327   5.345   1.624   4.964 -0.1814  1.0242 -0.5923
  133OSM    C1F14328   5.699   1.446   3.524  0.1860 -0.8286  0.0657
  133OSM     OF14329   5.697   1.534   3.438 -0.0539 -0.3622  0.7431
  133OSM    C2F14330   5.807   1.450   3.628  0.8963 -0.1075 -0.2249
  133OSM    H2F14331   5.901   1.453   3.570 -1.5093 -0.1358 -4.5561
  133OSM    H2G14332   5.789   1.358   3.687 -0.2461 -0.9543 -1.8348
  133OSM    C3F14333   5.803   1.579   3.706  0.5724 -0.0259  0.1266
  133OSM    H3F14334   5.832   1.662   3.639 -2.4868 -0.6886 -2.2336
  133OSM    H3G14335   5.884   1.567   3.782  0.6829 -0.7743 -0.0994
  133OSM    C4F14336   5.665   1.609   3.773 -1.2069  0.1765  0.4500
  133OSM    H4F14337   5.592   1.599   3.689 -1.5547 -1.8382  0.9257
  133OSM    H4G14338   5.660   1.712   3.813  0.8492  0.9481 -1.1227
  133OSM    C5F14339   5.607   1.510   3.870  0.4750 -0.4444  0.1092
  133OSM    H5F14340   5.600   1.414   3.815  0.3033 -0.0088 -0.6432
  133OSM    H5G14341   5.505   1.546   3.894 -0.2694 -2.9436  1.0121
  133OSM    C6F14342   5.687   1.507   4.000  0.5978  0.0692  0.6235
  133OSM    H6F14343   5.792   1.479   3.980  0.9437  0.9676  1.1102
  133OSM    H6G14344   5.648   1.430   4.070 -1.0428 -2.4898 -2.8480
  133OSM    C7F14345   5.678   1.643   4.069  0.1159 -0.3120 -0.8333
  133OSM    H7F14346   5.572   1.669   4.088 -0.1085 -0.9493 -1.1883
  133OSM    H7G14347   5.724   1.716   3.999 -2.2250  1.1435 -0.9425
  133OSM    C8F14348   5.740   1.645   4.213  0.5035  0.1564 -0.1714
  133OSM    H8F14349   5.701   1.560   4.273  0.6781  0.3932  0.2877
  133OSM    H8G14350   5.697   1.726   4.276  0.6808 -1.1809  1.7910
  133OSM    C9F14351   5.890   1.654   4.218  0.2048  0.8775 -0.2155
  133OSM    H9F14352   5.948   1.657   4.125 -0.4135  2.0075 -0.5837
  133OSM   C10F14353   5.966   1.624   4.323 -0.0443 -0.4088 -0.3417
  133OSM   H10F14354   6.076   1.628   4.318  0.0508 -2.3680 -4.9173
  133OSM   C11F14355   5.906   1.586   4.460 -0.3223  0.0467 -0.6114
  133OSM   H11F14356   5.799   1.607   4.480 -0.0671 -0.6378  1.6950
  133OSM   H11G14357   5.965   1.651   4.528  0.2190  0.4881 -1.4840
  133OSM   C12F14358   5.933   1.440   4.497 -0.7378  0.1196  0.2224
  133OSM   H12F14359   6.036   1.410   4.467 -0.7259 -1.0319  1.2881
  133OSM   H12G14360   5.859   1.373   4.448 -0.5129  0.4132 -0.5169
  133OSM   C13F14361   5.914   1.412   4.644  0.8480  0.2180  0.1664
  133OSM   H13F14362   5.807   1.414   4.673  0.9711  0.8273  0.5826
  133OSM   H13G14363   5.939   1.498   4.710 -1.4380  1.2832 -0.2623
  133OSM   C14F14364   5.993   1.292   4.690  0.0669 -0.1963  0.8697
  133OSM   H14F14365   6.100   1.293   4.659 -0.1103  3.6034 -0.1847
  133OSM   H14G14366   5.947   1.194   4.663  0.9529 -0.2202 -0.6680
  133OSM   C15F14367   5.998   1.286   4.842  0.1904  0.5699 -0.3448
  133OSM   H15F14368   5.894   1.277   4.879  1.0026  2.4710  2.7757
  133OSM   H15G14369   6.048   1.372   4.892  0.1267 -0.0656  0.8336
  133OSM   C16F14370   6.076   1.160   4.889  0.1435  0.2807 -0.4369
  133OSM   H16F14371   6.174   1.161   4.837  0.5213 -1.0166  0.2089
  133OSM   H16G14372   6.027   1.069   4.849 -0.0447  0.1602  0.0607
  133OSM   C17F14373   6.099   1.146   5.047  0.1934  0.0532  0.4736
  133OSM   H17F14374   6.006   1.115   5.099  0.9016 -1.0217  1.1352
  133OSM   H17G14375   6.136   1.242   5.089 -1.5364  1.4893 -1.0860
  133OSM   C18F14376   6.219   1.050   5.072  0.1969  0.4558 -0.4600
  133OSM   H18F14377   6.185   0.945   5.066 -1.4780  1.0288 -2.6426
  133OSM   H18G14378   6.263   1.063   5.173 -1.6712  0.6769  0.3731
  133OSM   H18H14379   6.310   1.053   5.008  2.2257  1.7255  2.2932
  134OSM      N14380   2.723   4.057   2.421  0.1450 -0.1654 -0.6437
  134OSM    C1514381   2.614   4.050   2.318  0.0284 -0.1962 -0.5075
  134OSM   H15A14382   2.530   3.987   2.344 -0.7278  0.3114 -1.6629
  134OSM   H15B14383   2.648   4.007   2.225 -0.5458 -2.9968  0.4566
  134OSM   H15C14384   2.567   4.145   2.301 -1.2827 -0.6674  0.3582
  134OSM    C1414385   2.795   4.183   2.391 -0.5099 -0.5749  0.4016
  134OSM   H14A14386   2.849   4.170   2.298  0.7502 -3.5091  1.4150
  134OSM   H14B14387   2.870   4.205   2.466 -0.0229  0.3369 -0.3292
  134OSM   H14C14388   2.728   4.267   2.379  1.1513  0.8716  0.6929
  134OSM    C1314389   2.651   4.069   2.554  0.7262  0.2931 -0.6129
  134OSM   H13A14390   2.719   4.084   2.637 -0.0801 -0.5153  0.2127
  134OSM   H13B14391   2.582   3.991   2.581  1.8247 -0.4504  0.0970
  134OSM   H13C14392   2.595   4.161   2.552 -0.7616 -0.5373  0.6797
  134OSM    C1214393   2.808   3.935   2.408 -0.1478 -0.2052 -0.1129
  134OSM   H12A14394   2.851   3.926   2.309 -0.2627 -2.7133 -0.0037
  134OSM   H12B14395   2.743   3.850   2.422  1.5963 -1.4639  0.6404
  134OSM    C1114396   2.919   3.924   2.513 -0.7337 -0.2095 -0.3005
  134OSM   H11A14397   2.971   3.827   2.502  0.7555  0.6428 -0.9246
  134OSM   H11B14398   2.874   3.916   2.615 -1.4437 -0.4889 -0.6262
  134OSM      P14399   3.141   4.045   2.417  0.2386  0.0987 -0.2862
  134OSM    O1314400   3.104   3.978   2.285 -0.0756 -0.4783 -0.5892
  134OSM    O1414401   3.182   4.185   2.421 -0.6490  0.4892  0.5736
  134OSM    O1114402   3.249   3.958   2.489  0.0735  0.4321  0.4032
  134OSM    O1214403   3.010   4.031   2.510  0.2639  0.3457 -0.0639
  134OSM    C1S14404   3.306   4.004   2.610  0.1079  0.1753 -0.2462
  134OSM    H1S14405   3.331   4.112   2.608 -0.2541  0.2512 -1.4758
  134OSM    H1T14406   3.408   3.959   2.617  0.8682  1.8821  0.2044
  134OSM     NF14407   3.279   4.020   2.852  0.4012  0.4824 -0.2731
  134OSM    HNF14408   3.323   3.965   2.924 -1.7260 -0.0053  0.7198
  134OSM    C2S14409   3.229   3.948   2.734 -0.3085 -0.1045 -0.0737
  134OSM    H2S14410   3.120   3.968   2.735 -0.4465 -0.8276  0.5741
  134OSM    C3S14411   3.257   3.798   2.743 -0.4898  0.2521  0.1756
  134OSM    H3S14412   3.363   3.775   2.764 -1.1017 -1.5643  1.5272
  134OSM     O314413   3.238   3.726   2.621  0.3468  0.6303 -0.1769
  134OSM    HO314414   3.240   3.799   2.558 -1.6294 -0.1012 -1.1635
  134OSM    C4S14415   3.166   3.739   2.849 -0.1578  0.4523 -0.5625
  134OSM    H4S14416   3.058   3.737   2.833 -0.4461  1.6841  0.9468
  134OSM    C5S14417   3.214   3.676   2.962  0.2530 -0.3626 -0.5021
  134OSM    H5S14418   3.323   3.662   2.968  0.1791 -0.6463  0.2793
  134OSM    C6S14419   3.133   3.609   3.073  0.2980 -0.6122 -0.9896
  134OSM    H6S14420   3.177   3.514   3.112 -0.6130  0.0552  1.8893
  134OSM    H6T14421   3.027   3.594   3.042 -0.8787  0.4618  2.1486
  134OSM    C7S14422   3.144   3.694   3.207 -0.5247 -0.7943  1.1909
  134OSM    H7S14423   3.091   3.789   3.182  1.3826  0.8718  3.0946
  134OSM    H7T14424   3.253   3.715   3.217 -0.5164  1.0040 -1.4508
  134OSM    C8S14425   3.080   3.642   3.332  0.3921 -0.2581  0.0136
  134OSM    H8S14426   3.123   3.544   3.360  1.0874 -0.3636 -1.3596
  134OSM    H8T14427   2.972   3.620   3.316  0.4984  0.2519 -1.5688
  134OSM    C9S14428   3.096   3.733   3.454 -0.6619 -0.4548 -0.2715
  134OSM    H9S14429   3.047   3.830   3.431  0.0604 -0.1847 -0.7233
  134OSM    H9T14430   3.205   3.755   3.454 -0.5065 -1.1026 -1.9456
  134OSM   C10S14431   3.045   3.674   3.591 -0.5699 -0.4721  0.4059
  134OSM   H10S14432   3.103   3.580   3.607 -1.4346 -0.9720  0.6617
  134OSM   H10T14433   2.935   3.664   3.596 -0.8600  1.3183 -1.3231
  134OSM   C11S14434   3.071   3.775   3.705  0.0991  0.4215 -0.1208
  134OSM   H11S14435   3.023   3.873   3.685 -0.1440 -0.1114 -2.4592
  134OSM   H11T14436   3.181   3.790   3.704  0.4680 -1.7813 -2.0372
  134OSM   C12S14437   3.028   3.710   3.838 -0.1400 -0.2925  0.3919
  134OSM   H12S14438   3.093   3.622   3.862  0.3053  0.5130  2.3591
  134OSM   H12T14439   2.929   3.662   3.830  0.9132 -2.4497 -0.7050
  134OSM   C13S14440   3.034   3.814   3.954 -0.7322  0.7135 -0.9362
  134OSM   H13S14441   2.965   3.899   3.936 -1.0797  1.0580  1.6517
  134OSM   H13T14442   3.133   3.865   3.957 -0.5131  0.3211 -1.3591
  134OSM   C14S14443   3.000   3.745   4.089  0.1171 -0.2064 -0.3855
  134OSM   H14S14444   3.073   3.668   4.121 -1.7507 -1.9048 -0.0612
  134OSM   H14T14445   2.897   3.703   4.084 -0.6860  1.6400 -0.2047
  134OSM   C15S14446   2.999   3.849   4.204 -0.0512  0.5634 -0.7482
  134OSM   H15S14447   2.941   3.936   4.168 -2.0400 -0.4655 -0.2109
  134OSM   H15T14448   3.102   3.883   4.227 -0.3351  1.8678 -1.3358
  134OSM   C16S14449   2.943   3.788   4.335  0.1914 -0.1385  0.0605
  134OSM   H16S14450   2.861   3.714   4.323  1.3479 -1.7117  1.4110
  134OSM   H16T14451   2.898   3.873   4.391  0.6644 -0.8533  1.5684
  134OSM   C17S14452   3.047   3.730   4.428  0.3129  0.7602  0.5293
  134OSM   H17S14453   3.120   3.812   4.448  0.9243 -0.0409  1.7312
  134OSM   H17T14454   3.103   3.650   4.374  0.4446  1.1421  0.0954
  134OSM   C18S14455   2.989   3.677   4.554 -0.0846  0.6333 -0.3664
  134OSM   H18S14456   2.912   3.600   4.530  1.2166 -1.4390  1.7268
  134OSM   H18T14457   2.932   3.754   4.610 -0.1454  1.6046 -1.7249
  134OSM   H18U14458   3.065   3.624   4.615 -0.7206 -1.4803 -1.3175
  134OSM    C1F14459   3.268   4.148   2.871 -0.1397  0.4382 -0.3235
  134OSM     OF14460   3.206   4.207   2.787 -0.1597  0.1390 -0.2291
  134OSM    C2F14461   3.336   4.213   2.984  0.4299  0.1008 -0.4435
  134OSM    H2F14462   3.416   4.282   2.948  0.5239  0.3852  0.2764
  134OSM    H2G14463   3.380   4.134   3.048  1.5490  2.1226  1.4399
  134OSM    C3F14464   3.241   4.311   3.064 -0.5580  0.0589 -0.5134
  134OSM    H3F14465   3.139   4.268   3.062 -0.3004 -0.5821 -0.1718
  134OSM    H3G14466   3.247   4.409   3.012 -2.7655  0.8859  0.6384
  134OSM    C4F14467   3.276   4.338   3.214  0.3091  0.2778  0.2739
  134OSM    H4F14468   3.238   4.439   3.239 -1.3431  0.1807 -1.5383
  134OSM    H4G14469   3.385   4.340   3.232 -0.1094  0.1735  3.4200
  134OSM    C5F14470   3.204   4.232   3.310 -0.7062  0.0072  0.3588
  134OSM    H5F14471   3.192   4.134   3.258 -1.3665  0.2269  0.0967
  134OSM    H5G14472   3.101   4.269   3.329 -1.2940 -1.4085  0.0721
  134OSM    C6F14473   3.284   4.211   3.438 -0.2969 -0.4021 -0.5118
  134OSM    H6F14474   3.359   4.291   3.456 -0.3764 -0.6038  0.8194
  134OSM    H6G14475   3.331   4.110   3.431  1.6492  0.4156  0.0031
  134OSM    C7F14476   3.188   4.206   3.561  0.3526 -0.2887 -0.4734
  134OSM    H7F14477   3.099   4.145   3.538  0.8207 -1.3129  0.3295
  134OSM    H7G14478   3.160   4.312   3.576  1.7984 -0.1464  1.6571
  134OSM    C8F14479   3.244   4.141   3.692  0.0623  0.1393 -0.9041
  134OSM    H8F14480   3.299   4.051   3.657 -1.4747 -1.7189  1.1706
  134OSM    H8G14481   3.155   4.101   3.743  0.7169  0.5574  0.6294
  134OSM    C9F14482   3.312   4.232   3.782 -0.2275  0.1355 -0.6815
  134OSM    H9F14483   3.418   4.244   3.754 -0.1070 -0.4809 -0.5055
  134OSM   C10F14484   3.252   4.313   3.870  0.3209  0.1037 -0.0041
  134OSM   H10F14485   3.309   4.367   3.946  3.6332 -1.0273 -1.5042
  134OSM   C11F14486   3.103   4.318   3.893 -0.5163  0.2554  0.7507
  134OSM   H11F14487   3.050   4.263   3.812  0.7423 -2.0587  1.4019
  134OSM   H11G14488   3.070   4.424   3.901 -0.7130  0.3101 -0.6566
  134OSM   C12F14489   3.052   4.235   4.014 -0.6334 -0.5458  0.0950
  134OSM   H12F14490   3.061   4.128   3.984 -1.3447 -0.3948 -0.7303
  134OSM   H12G14491   2.944   4.261   4.020 -0.6640 -0.7538  0.4698
  134OSM   C13F14492   3.118   4.271   4.139 -0.6962 -0.7828 -0.7928
  134OSM   H13F14493   3.106   4.380   4.154  1.6784 -0.4743 -0.7508
  134OSM   H13G14494   3.227   4.256   4.124 -0.5126 -0.1179 -0.1846
  134OSM   C14F14495   3.059   4.203   4.260  0.6590  0.5152 -0.3102
  134OSM   H14F14496   3.087   4.096   4.257 -0.7047  0.1162  0.5259
  134OSM   H14G14497   2.949   4.214   4.266  0.7181  0.5751  3.1577
  134OSM   C15F14498   3.124   4.248   4.402  0.5261 -0.2280  0.3609
  134OSM   H15F14499   3.105   4.357   4.418 -0.6354 -0.3582 -0.0662
  134OSM   H15G14500   3.232   4.223   4.402  0.1929 -1.8254 -0.8377
  134OSM   C16F14501   3.094   4.165   4.528 -0.5344 -0.3147  0.7298
  134OSM   H16F14502   3.170   4.191   4.606 -2.2721  0.1830  2.3256
  134OSM   H16G14503   3.111   4.055   4.521  0.3071 -0.1546  0.0173
  134OSM   C17F14504   2.954   4.195   4.586 -0.4714  0.5187 -0.0518
  134OSM   H17F14505   2.878   4.174   4.508  0.8751 -0.7294 -1.0718
  134OSM   H17G14506   2.937   4.304   4.598 -0.8322  0.4219  0.3726
  134OSM   C18F14507   2.911   4.130   4.716 -0.0304  0.5751 -0.6789
  134OSM   H18F14508   2.948   4.026   4.726  0.0467  0.6009 -0.6940
  134OSM   H18G14509   2.801   4.123   4.726  0.0590  1.0049  0.8249
  134OSM   H18H14510   2.938   4.186   4.808  0.1887 -2.0040  0.9335
  135OSM      N14511   6.642   4.252   2.561 -0.7222  0.0845  0.5483
  135OSM    C1514512   6.749   4.330   2.479  0.1007 -0.0070  0.6410
  135OSM   H15A14513   6.760   4.295   2.377  3.8400  0.8034  0.6105
  135OSM   H15B14514   6.847   4.321   2.524  2.5921 -0.9115 -4.2562
  135OSM   H15C14515   6.729   4.436   2.481 -2.7964 -0.4751  2.4301
  135OSM    C1414516   6.499   4.302   2.518 -0.7465  0.1460 -0.0775
  135OSM   H14A14517   6.495   4.407   2.541  0.9682 -0.0634  1.3867
  135OSM   H14B14518   6.427   4.242   2.572  0.9560 -1.9112  0.0447
  135OSM   H14C14519   6.491   4.279   2.413 -0.8387 -1.8945  0.3326
  135OSM    C1314520   6.654   4.104   2.526  0.0646 -0.6380  0.5776
  135OSM   H13A14521   6.595   4.048   2.597 -1.3379  1.0466  0.7968
  135OSM   H13B14522   6.756   4.068   2.528  0.3372  0.1018  0.3989
  135OSM   H13C14523   6.628   4.075   2.426  1.9172  0.7995 -0.3884
  135OSM    C1214524   6.669   4.277   2.706 -1.4079 -0.3580  0.0768
  135OSM   H12A14525   6.666   4.383   2.729 -1.0672 -0.0989 -1.0073
  135OSM   H12B14526   6.766   4.237   2.731 -1.7119 -0.6917  0.7425
  135OSM    C1114527   6.578   4.207   2.812  0.4184 -0.0846  0.0784
  135OSM   H11A14528   6.478   4.251   2.793  0.3160  0.0849  0.9846
  135OSM   H11B14529   6.605   4.239   2.914  1.0136  0.1565 -0.1521
  135OSM      P14530   6.674   3.962   2.862  0.1818 -0.2432 -0.2389
  135OSM    O1314531   6.635   3.826   2.837  0.8426 -0.1941  0.1969
  135OSM    O1414532   6.811   3.996   2.815  0.1426  0.1529  0.1843
  135OSM    O1114533   6.651   4.004   3.012  0.0868 -0.0065 -0.1038
  135OSM    O1214534   6.566   4.065   2.799 -0.5134 -0.2634  0.5909
  135OSM    C1S14535   6.527   3.970   3.085 -0.0847  0.2012  0.2915
  135OSM    H1S14536   6.496   3.869   3.052  0.5793 -0.1706  0.7932
  135OSM    H1T14537   6.443   4.036   3.054 -0.8165  0.0472  1.8430
  135OSM     NF14538   6.448   3.904   3.306  1.0665  0.4468 -0.7451
  135OSM    HNF14539   6.374   3.959   3.344 -1.6786 -1.2181 -3.2627
  135OSM    C2S14540   6.555   3.974   3.236 -0.2993 -0.6021 -0.5574
  135OSM    H2S14541   6.657   3.934   3.255 -0.0900  0.5016  0.8700
  135OSM    C3S14542   6.557   4.119   3.278  0.9341  0.2757  0.1852
  135OSM    H3S14543   6.459   4.172   3.276  0.8443  0.1456  0.9219
  135OSM     O314544   6.635   4.202   3.194 -0.2526  0.3029  0.3709
  135OSM    HO314545   6.659   4.144   3.121 -1.9098  0.6333 -0.4886
  135OSM    C4S14546   6.606   4.133   3.425  0.6365 -0.5675  0.0748
  135OSM    H4S14547   6.715   4.124   3.424  0.6478 -0.6368  1.0199
  135OSM    C5S14548   6.543   4.170   3.536 -0.0099  0.3795 -0.9339
  135OSM    H5S14549   6.438   4.202   3.527 -0.8207 -1.9346 -0.2796
  135OSM    C6S14550   6.625   4.200   3.659 -0.0039  0.7333 -0.3915
  135OSM    H6S14551   6.692   4.284   3.630  0.6407 -0.3015 -1.9929
  135OSM    H6T14552   6.685   4.112   3.687  0.2419  1.2076  0.6332
  135OSM    C7S14553   6.545   4.243   3.789  0.1402 -0.8031  0.4375
  135OSM    H7S14554   6.498   4.146   3.817  1.2037 -1.4271  0.0995
  135OSM    H7T14555   6.473   4.325   3.765  0.3659 -0.5420  0.6415
  135OSM    C8S14556   6.627   4.272   3.907 -0.6492  0.6157 -0.3876
  135OSM    H8S14557   6.681   4.367   3.926  4.2470 -1.5915 -1.5651
  135OSM    H8T14558   6.706   4.194   3.911 -3.0652 -2.3404 -3.6187
  135OSM    C9S14559   6.551   4.242   4.038  0.3123 -0.3883 -0.4344
  135OSM    H9S14560   6.493   4.148   4.025 -0.7203  0.0813  0.5784
  135OSM    H9T14561   6.468   4.316   4.049  0.9890  0.0848  2.3043
  135OSM   C10S14562   6.619   4.216   4.168  0.5115  0.9914 -0.0616
  135OSM   H10S14563   6.676   4.304   4.206  0.3166  0.7824  0.7254
  135OSM   H10T14564   6.695   4.137   4.146 -0.5901 -0.1511  0.1355
  135OSM   C11S14565   6.522   4.164   4.282  0.0335 -0.5915 -0.6718
  135OSM   H11S14566   6.504   4.055   4.271 -2.7036 -0.2471 -0.2725
  135OSM   H11T14567   6.427   4.220   4.269  1.1681  2.0761  1.4061
  135OSM   C12S14568   6.572   4.198   4.420 -0.7587  1.1210 -0.7885
  135OSM   H12S14569   6.568   4.308   4.429 -1.3699  1.2681 -2.6003
  135OSM   H12T14570   6.675   4.157   4.427 -1.5660 -0.9813 -0.2846
  135OSM   C13S14571   6.492   4.135   4.539 -0.8852  0.0667 -0.5277
  135OSM   H13S14572   6.514   4.026   4.534  0.8086  0.3709 -0.5078
  135OSM   H13T14573   6.385   4.158   4.522 -0.3561  2.6392 -0.7502
  135OSM   C14S14574   6.535   4.187   4.678 -0.3778 -0.3599 -0.7459
  135OSM   H14S14575   6.526   4.298   4.681  2.8967  0.0367 -1.3288
  135OSM   H14T14576   6.639   4.152   4.697 -0.9734 -2.5535 -1.2329
  135OSM   C15S14577   6.450   4.124   4.793  0.4530 -0.0760 -0.1781
  135OSM   H15S14578   6.496   4.136   4.893  0.8370  0.1749 -0.3803
  135OSM   H15T14579   6.430   4.019   4.762  0.6891 -0.1388 -0.1170
  135OSM   C16S14580   6.313   4.191   4.811 -0.1401  0.2722  0.1502
  135OSM   H16S14581   6.275   4.214   4.709 -0.5149  1.4221  0.5225
  135OSM   H16T14582   6.338   4.288   4.860  3.4539  0.2988 -1.4940
  135OSM   C17S14583   6.200   4.114   4.884 -0.5089 -0.4639  0.3161
  135OSM   H17S14584   6.218   4.108   4.993 -0.6887 -1.3395  0.3014
  135OSM   H17T14585   6.183   4.013   4.842  0.6584 -0.1454 -1.0012
  135OSM   C18S14586   6.075   4.199   4.869 -0.2166  0.9331 -0.1018
  135OSM   H18S14587   6.086   4.293   4.927  2.1255 -0.3134  1.6736
  135OSM   H18T14588   5.987   4.147   4.912 -1.1475  1.5054 -1.2551
  135OSM   H18U14589   6.062   4.209   4.759  0.3033 -0.7837 -0.3568
  135OSM    C1F14590   6.430   3.773   3.286 -0.4976 -0.5392 -0.3286
  135OSM     OF14591   6.514   3.704   3.229 -0.0671 -1.1423  0.0782
  135OSM    C2F14592   6.305   3.718   3.342  0.0443  0.0493  0.6319
  135OSM    H2F14593   6.265   3.625   3.297 -0.6978  0.0452  1.2691
  135OSM    H2G14594   6.233   3.797   3.312  1.0883  0.0036 -2.2104
  135OSM    C3F14595   6.300   3.706   3.494 -0.0906 -0.1601  0.4118
  135OSM    H3F14596   6.298   3.811   3.531 -0.1547  0.4623 -1.2677
  135OSM    H3G14597   6.396   3.657   3.519 -0.9892 -2.6184 -0.6594
  135OSM    C4F14598   6.185   3.622   3.541 -0.5577  0.4104 -0.0277
  135OSM    H4F14599   6.216   3.516   3.532  1.7274  1.0795 -0.5840
  135OSM    H4G14600   6.097   3.656   3.482 -0.7576  2.9047  1.5588
  135OSM    C5F14601   6.156   3.638   3.693 -0.0683 -0.3048  0.5705
  135OSM    H5F14602   6.116   3.739   3.713 -0.3859 -0.1403 -0.7615
  135OSM    H5G14603   6.256   3.631   3.740 -0.6403  0.4918  1.9502
  135OSM    C6F14604   6.054   3.534   3.745  0.0760  0.3694  0.4211
  135OSM    H6F14605   6.090   3.430   3.736  3.1974  1.3344  0.7453
  135OSM    H6G14606   5.964   3.557   3.683 -0.6138  0.4810  1.4278
  135OSM    C7F14607   6.007   3.553   3.892  0.1714 -0.1211  0.6307
  135OSM    H7F14608   5.987   3.662   3.888  1.1261  0.0193 -1.6739
  135OSM    H7G14609   6.092   3.528   3.959  0.5895  0.5753  0.3728
  135OSM    C8F14610   5.874   3.471   3.921 -0.0181  0.1454  0.6583
  135OSM    H8F14611   5.910   3.370   3.947  2.5629  0.6155 -0.8000
  135OSM    H8G14612   5.810   3.459   3.831  0.9814 -0.9174  0.0685
  135OSM    C9F14613   5.794   3.547   4.024  0.4305 -0.1990 -0.6543
  135OSM    H9F14614   5.730   3.622   3.976 -0.6618 -1.6787 -1.6201
  135OSM   C10F14615   5.810   3.577   4.158  0.4177 -0.6009  0.3103
  135OSM   H10F14616   5.732   3.632   4.211 -0.9074 -0.7867 -1.3657
  135OSM   C11F14617   5.919   3.517   4.241 -0.3184 -0.3566  0.0787
  135OSM   H11F14618   5.956   3.585   4.321 -0.4322 -1.2254  0.8852
  135OSM   H11G14619   6.005   3.485   4.180 -1.1792 -0.3372 -1.1856
  135OSM   C12F14620   5.864   3.398   4.328 -0.5935  0.3295 -0.3350
  135OSM   H12F14621   5.957   3.350   4.367 -0.0009  1.9186  0.3013
  135OSM   H12G14622   5.818   3.318   4.266 -1.9874  0.7197  0.1737
  135OSM   C13F14623   5.773   3.443   4.445 -0.1958  0.2205 -0.8974
  135OSM   H13F14624   5.667   3.463   4.415 -0.0576 -0.7023 -2.0731
  135OSM   H13G14625   5.818   3.525   4.505 -2.2603 -0.8586  2.3957
  135OSM   C14F14626   5.770   3.336   4.557 -0.0482  0.6871  0.0381
  135OSM   H14F14627   5.870   3.298   4.586  0.7921 -0.0528 -3.3815
  135OSM   H14G14628   5.712   3.246   4.527  0.8500 -0.3750  1.3966
  135OSM   C15F14629   5.694   3.393   4.680 -0.3818  0.0959  0.7126
  135OSM   H15F14630   5.599   3.445   4.653 -0.1212  0.0879 -0.2513
  135OSM   H15G14631   5.751   3.484   4.709 -1.4843  1.5183 -1.3289
  135OSM   C16F14632   5.686   3.298   4.795  0.2482 -0.5268  0.2785
  135OSM   H16F14633   5.785   3.249   4.810 -0.4992 -1.8674  0.9837
  135OSM   H16G14634   5.608   3.221   4.778  3.1665 -3.2006 -2.1385
  135OSM   C17F14635   5.639   3.367   4.925  0.3859  0.0534 -0.5602
  135OSM   H17F14636   5.546   3.424   4.904 -0.6588 -1.7460 -1.0862
  135OSM   H17G14637   5.720   3.437   4.953 -1.5937  1.3903  2.3390
  135OSM   C18F14638   5.616   3.274   5.048  0.1763 -0.4467 -0.4281
  135OSM   H18F14639   5.719   3.239   5.074  0.6053  0.5471 -0.7338
  135OSM   H18G14640   5.562   3.187   5.005 -0.1935 -0.0884 -0.6857
  135OSM   H18H14641   5.566   3.324   5.134 -0.8094 -0.2420 -1.1154
  136OSM      N14642   2.576   6.345   2.901  0.0080  0.3882  0.1103
  136OSM    C1514643   2.500   6.249   2.810  0.3312  0.5551  0.3162
  136OSM   H15A14644   2.455   6.164   2.859  1.7916  0.2418  1.1755
  136OSM   H15B14645   2.562   6.213   2.729 -1.0926 -2.6558  0.5280
  136OSM   H15C14646   2.422   6.305   2.760  0.1894  0.4656  0.4398
  136OSM    C1414647   2.686   6.269   2.969 -0.3177 -0.0570 -0.1519
  136OSM   H14A14648   2.768   6.255   2.901  0.7400  2.1740  0.5353
  136OSM   H14B14649   2.657   6.191   3.037 -1.6949 -0.4902 -1.1915
  136OSM   H14C14650   2.738   6.344   3.026  3.2289 -0.6867 -2.2594
  136OSM    C1314651   2.641   6.437   2.806  0.4037 -0.1682  0.1225
  136OSM   H13A14652   2.695   6.508   2.867 -1.8924 -1.9682  4.7360
  136OSM   H13B14653   2.571   6.494   2.747  0.4517  2.1170  2.1259
  136OSM   H13C14654   2.704   6.381   2.738  0.1528 -0.2731 -0.0266
  136OSM    C1214655   2.483   6.409   2.996  0.7547 -0.2004 -0.3562
  136OSM   H12A14656   2.434   6.329   3.049 -1.3335  1.0233 -0.3252
  136OSM   H12B14657   2.405   6.451   2.934  0.2801 -0.4305  0.0763
  136OSM    C1114658   2.545   6.498   3.103  0.3897 -0.0938  0.2570
  136OSM   H11A14659   2.622   6.436   3.155  1.5201  1.6365  0.7249
  136OSM   H11B14660   2.477   6.529   3.185  2.9322  0.5166  2.2458
  136OSM      P14661   2.742   6.680   3.048  0.2787  0.2311  0.5522
  136OSM    O1314662   2.833   6.604   2.958 -0.1174 -0.4645  0.1355
  136OSM    O1414663   2.734   6.822   3.029  0.1901  0.0085 -0.0018
  136OSM    O1114664   2.784   6.655   3.193 -0.1848 -0.3596  0.0587
  136OSM    O1214665   2.597   6.618   3.045  0.0212  0.1465 -0.3596
  136OSM    C1S14666   2.736   6.731   3.304 -0.7043  0.2151  0.3306
  136OSM    H1S14667   2.627   6.726   3.325 -0.0772  0.2251  4.4315
  136OSM    H1T14668   2.766   6.838   3.298  0.1364 -0.0813 -1.0086
  136OSM     NF14669   2.742   6.769   3.552  0.0112 -0.3406 -0.0743
  136OSM    HNF14670   2.790   6.853   3.572  1.4283 -0.6972 -1.7057
  136OSM    C2S14671   2.804   6.693   3.440 -1.3128  0.2799  0.7535
  136OSM    H2S14672   2.777   6.585   3.451 -0.6594  0.3790  4.4459
  136OSM    C3S14673   2.963   6.699   3.434 -0.4876  0.0034  0.0131
  136OSM    H3S14674   2.996   6.804   3.416  0.6750 -0.7457 -2.8355
  136OSM     O314675   3.017   6.622   3.322 -0.8312 -0.1552  0.2810
  136OSM    HO314676   2.945   6.608   3.261 -1.1702 -0.7957  0.8139
  136OSM    C4S14677   3.031   6.641   3.569 -0.1737 -1.0444  0.8044
  136OSM    H4S14678   3.028   6.531   3.569 -1.3604 -1.0411  1.7449
  136OSM    C5S14679   3.071   6.713   3.676 -0.0665 -0.0624  0.7800
  136OSM    H5S14680   3.047   6.820   3.668  0.3384 -0.0922 -3.3105
  136OSM    C6S14681   3.118   6.652   3.806 -0.0798 -0.8490  0.1307
  136OSM    H6S14682   3.208   6.711   3.834 -1.3793  1.9850 -1.2478
  136OSM    H6T14683   3.148   6.545   3.800  4.3910  0.2206  0.1167
  136OSM    C7S14684   3.022   6.665   3.922 -0.1494 -0.0835 -0.2366
  136OSM    H7S14685   2.920   6.628   3.898 -0.1227 -0.1008 -0.3239
  136OSM    H7T14686   3.010   6.775   3.933  0.7153  0.2752 -2.4193
  136OSM    C8S14687   3.072   6.608   4.057 -0.4008 -0.2552 -0.5103
  136OSM    H8S14688   3.178   6.639   4.066 -0.9228  1.7825 -0.8127
  136OSM    H8T14689   3.057   6.498   4.062 -0.1731 -0.2424  0.6584
  136OSM    C9S14690   3.011   6.679   4.178  0.5634 -0.2586 -0.4281
  136OSM    H9S14691   2.904   6.653   4.189  0.8482 -1.2388  0.1498
  136OSM    H9T14692   3.021   6.790   4.187  0.9360 -0.3233 -0.0148
  136OSM   C10S14693   3.081   6.612   4.301 -0.3925  0.2136 -0.3086
  136OSM   H10S14694   3.188   6.641   4.302 -0.5357  0.7634  0.1626
  136OSM   H10T14695   3.082   6.502   4.289  1.6697  0.3912 -2.3541
  136OSM   C11S14696   3.023   6.665   4.434  0.1712  0.0916 -0.7132
  136OSM   H11S14697   3.027   6.776   4.428  1.4120  0.0262 -1.4282
  136OSM   H11T14698   3.094   6.629   4.512 -1.5712 -1.0778  0.3923
  136OSM   C12S14699   2.881   6.606   4.469 -0.6208 -0.1854  0.7160
  136OSM   H12S14700   2.895   6.497   4.485 -1.6311 -0.4756 -0.2060
  136OSM   H12T14701   2.816   6.611   4.379 -1.4298 -0.5462  1.2634
  136OSM   C13S14702   2.829   6.667   4.599  1.1619 -0.0164 -0.0886
  136OSM   H13S14703   2.903   6.648   4.680  0.1928 -3.1454  0.1975
  136OSM   H13T14704   2.733   6.613   4.612  1.1580 -0.0039 -0.0656
  136OSM   C14S14705   2.800   6.822   4.595  0.0930  0.2052  0.2009
  136OSM   H14S14706   2.893   6.883   4.601 -0.6553  1.3270  0.7636
  136OSM   H14T14707   2.741   6.843   4.687  1.7605  1.9683  0.9412
  136OSM   C15S14708   2.723   6.863   4.469  0.1635 -0.2746 -0.5309
  136OSM   H15S14709   2.641   6.794   4.441 -0.8044  0.0400  1.3784
  136OSM   H15T14710   2.794   6.866   4.383 -0.5106 -1.1235 -1.1350
  136OSM   C16S14711   2.681   7.007   4.490 -0.0726 -0.7038  0.5596
  136OSM   H16S14712   2.770   7.072   4.507  0.2847 -0.9488 -0.2926
  136OSM   H16T14713   2.619   7.006   4.582 -0.4298  0.3174  0.3331
  136OSM   C17S14714   2.588   7.060   4.382 -0.4784  0.2436  0.7855
  136OSM   H17S14715   2.525   6.976   4.346  2.4995 -1.1345 -1.7228
  136OSM   H17T14716   2.644   7.085   4.289 -1.9277 -0.6589 -0.3697
  136OSM   C18S14717   2.502   7.180   4.426 -0.4718 -1.2197 -0.5075
  136OSM   H18S14718   2.564   7.271   4.439  0.4630 -1.7007 -1.4606
  136OSM   H18T14719   2.450   7.150   4.520 -1.4305  0.9032 -0.2931
  136OSM   H18U14720   2.434   7.201   4.341 -0.6818  0.3987  0.0148
  136OSM    C1F14721   2.630   6.744   3.616 -0.4511 -0.0090  0.8014
  136OSM     OF14722   2.562   6.649   3.588 -0.2975  0.3707 -0.5230
  136OSM    C2F14723   2.593   6.824   3.739  0.8252 -0.6186 -0.4515
  136OSM    H2F14724   2.492   6.790   3.772  0.3003  0.3469 -1.0192
  136OSM    H2G14725   2.575   6.930   3.711  0.7058  0.1220  2.1531
  136OSM    C3F14726   2.698   6.810   3.851 -0.4936  0.5957  0.7188
  136OSM    H3F14727   2.796   6.849   3.815 -1.4918  0.6728 -2.1572
  136OSM    H3G14728   2.706   6.702   3.875 -2.1191  0.5936  1.3653
  136OSM    C4F14729   2.664   6.879   3.984  0.3524 -0.2907 -0.2107
  136OSM    H4F14730   2.721   6.830   4.066 -1.5796  0.2031  1.5342
  136OSM    H4G14731   2.556   6.864   4.008  0.6803 -0.1831  1.4658
  136OSM    C5F14732   2.709   7.026   4.009 -1.0408  0.1148 -0.4366
  136OSM    H5F14733   2.657   7.071   4.095 -0.8416  2.2595 -1.3799
  136OSM    H5G14734   2.686   7.085   3.918  0.7506  1.8096  0.1477
  136OSM    C6F14735   2.858   7.051   4.052 -0.0330 -0.2100 -0.2002
  136OSM    H6F14736   2.929   6.987   3.995  1.1690  1.9842 -1.2877
  136OSM    H6G14737   2.871   7.025   4.159 -0.3488 -4.6497 -1.0493
  136OSM    C7F14738   2.880   7.205   4.034 -0.6471 -0.4318 -0.2301
  136OSM    H7F14739   2.868   7.225   3.925  0.3635 -0.8861 -0.4351
  136OSM    H7G14740   2.987   7.221   4.059  0.1446 -2.7989 -1.6757
  136OSM    C8F14741   2.779   7.288   4.110  0.0333 -0.5951 -0.3745
  136OSM    H8F14742   2.760   7.249   4.212 -4.2125 -1.3219 -1.2807
  136OSM    H8G14743   2.680   7.281   4.061  0.1211 -1.3191 -0.4522
  136OSM    C9F14744   2.843   7.426   4.138  0.5124  0.2749 -0.3491
  136OSM    H9F14745   2.825   7.491   4.051  0.4439 -1.8988 -2.0229
  136OSM   C10F14746   2.908   7.477   4.245 -0.7616 -0.1295 -0.4867
  136OSM   H10F14747   2.940   7.582   4.235 -2.2887  0.3488 -0.5653
  136OSM   C11F14748   2.952   7.407   4.370 -0.3815 -0.3648 -0.4328
  136OSM   H11F14749   3.062   7.416   4.358 -0.2603 -0.6855  0.3477
  136OSM   H11G14750   2.923   7.300   4.363  0.8194 -0.6227 -2.0305
  136OSM   C12F14751   2.917   7.470   4.506  0.0478  0.4510 -1.1374
  136OSM   H12F14752   2.942   7.406   4.593  3.4594 -0.7923 -2.8565
  136OSM   H12G14753   2.806   7.465   4.504  0.1164 -2.5659 -2.4702
  136OSM   C13F14754   2.982   7.604   4.529  0.3828  0.0669 -0.2877
  136OSM   H13F14755   2.967   7.686   4.456 -1.1546  1.3662  1.4276
  136OSM   H13G14756   3.088   7.579   4.552 -0.2910 -1.1247  1.8815
  136OSM   C14F14757   2.934   7.661   4.664  0.3815  0.0416 -0.0499
  136OSM   H14F14758   2.887   7.595   4.741 -2.3829  0.5832 -1.1472
  136OSM   H14G14759   2.842   7.720   4.642 -0.5679 -0.3953  2.4106
  136OSM   C15F14760   3.050   7.752   4.717 -0.0387  0.0103 -0.4737
  136OSM   H15F14761   3.090   7.808   4.630 -0.6947 -1.6291 -1.8849
  136OSM   H15G14762   3.133   7.682   4.742  1.3424  1.0371 -1.9501
  136OSM   C16F14763   3.002   7.844   4.832 -0.1407  0.7852 -0.2169
  136OSM   H16F14764   2.931   7.784   4.893  2.9618 -0.6080  2.3087
  136OSM   H16G14765   2.926   7.918   4.798 -1.0196  0.1414  0.3049
  136OSM   C17F14766   3.115   7.899   4.912 -0.3349 -0.3058 -0.1760
  136OSM   H17F14767   3.189   7.816   4.914  0.4170  0.3488 -0.0983
  136OSM   H17G14768   3.080   7.924   5.015 -0.6506 -0.1612 -0.3177
  136OSM   C18F14769   3.196   8.016   4.855  0.4911  0.3750 -0.1284
  136OSM   H18F14770   3.231   8.072   4.944  0.4629  1.1782 -0.6152
  136OSM   H18G14771   3.121   8.069   4.793  0.4587 -0.6559 -1.0060
  136OSM   H18H14772   3.285   7.982   4.796 -0.4003 -0.5803 -0.9661
  137OSM      N14773   5.331   3.546   2.419  0.1192 -0.1696  0.5891
  137OSM    C1514774   5.344   3.394   2.410 -0.3402  1.0302  0.1970
  137OSM   H15A14775   5.371   3.359   2.311  0.3749  0.7404  0.4859
  137OSM   H15B14776   5.248   3.354   2.440 -0.5089  2.4468  1.7061
  137OSM   H15C14777   5.413   3.356   2.484 -0.4326  1.2359  0.3894
  137OSM    C1414778   5.456   3.610   2.375 -0.4141  1.0224 -0.5981
  137OSM   H14A14779   5.543   3.578   2.431 -0.6638  2.0556  0.4095
  137OSM   H14B14780   5.453   3.718   2.377  1.1666  1.1315 -2.0883
  137OSM   H14C14781   5.484   3.590   2.273 -0.6501 -0.2314 -0.4390
  137OSM    C1314782   5.225   3.572   2.318 -0.6920 -0.5081 -0.0595
  137OSM   H13A14783   5.129   3.536   2.353 -0.5174  0.4915  1.5982
  137OSM   H13B14784   5.243   3.517   2.227  1.5679 -0.1918  0.1449
  137OSM   H13C14785   5.216   3.679   2.305 -1.2276 -0.3136  1.5937
  137OSM    C1214786   5.294   3.598   2.555  0.6173 -0.0324  0.2537
  137OSM   H12A14787   5.274   3.704   2.550 -1.4532 -0.3943 -0.2996
  137OSM   H12B14788   5.379   3.581   2.620  0.6487 -1.2342 -0.0830
  137OSM    C1114789   5.168   3.554   2.627 -0.5563  0.1823 -0.6754
  137OSM   H11A14790   5.196   3.568   2.733  1.6076 -1.4808 -0.9491
  137OSM   H11B14791   5.143   3.446   2.624  1.1089 -0.1985 -1.8612
  137OSM      P14792   4.918   3.581   2.576 -0.6706 -0.4432 -0.4119
  137OSM    O1314793   4.820   3.683   2.541  0.4513  0.4892 -0.0717
  137OSM    O1414794   4.921   3.460   2.488  0.5654  0.1031 -0.2336
  137OSM    O1114795   4.888   3.539   2.722 -0.0458  0.2041 -0.0127
  137OSM    O1214796   5.060   3.638   2.587 -0.2288  0.0769 -0.2767
  137OSM    C1S14797   4.872   3.631   2.831 -0.7428 -0.1308 -0.3923
  137OSM    H1S14798   4.800   3.714   2.812 -0.7772 -0.3384 -1.2110
  137OSM    H1T14799   4.971   3.677   2.856 -0.4450  0.2894 -2.2020
  137OSM     NF14800   4.820   3.655   3.066 -1.0424  0.0190  0.0888
  137OSM    HNF14801   4.889   3.658   3.138  0.8499 -0.1093 -1.6192
  137OSM    C2S14802   4.829   3.557   2.958  0.6885  0.4246 -0.6435
  137OSM    H2S14803   4.731   3.511   2.934  1.7938 -3.4417  1.2572
  137OSM    C3S14804   4.926   3.432   2.982  0.1933  0.5302 -0.0667
  137OSM    H3S14805   5.033   3.460   2.993  0.0258  1.1287  0.0957
  137OSM     O314806   4.927   3.340   2.876 -1.2733  0.8906 -0.1274
  137OSM    HO314807   4.913   3.401   2.804  1.4732 -0.4784 -2.0300
  137OSM    C4S14808   4.895   3.354   3.103 -0.3086 -0.3946  0.3525
  137OSM    H4S14809   4.983   3.355   3.169  0.9686  1.9624 -1.2266
  137OSM    C5S14810   4.779   3.295   3.129  0.3047  0.4200 -0.6072
  137OSM    H5S14811   4.694   3.306   3.060  1.4156 -0.5095 -2.1751
  137OSM    C6S14812   4.751   3.233   3.264  0.4163  0.8657  0.2498
  137OSM    H6S14813   4.851   3.229   3.313  0.1392  0.1459  0.7895
  137OSM    H6T14814   4.705   3.132   3.256  1.5303  0.3645  0.0668
  137OSM    C7S14815   4.666   3.313   3.360 -1.2588 -0.1292  0.6100
  137OSM    H7S14816   4.564   3.313   3.317 -1.5935  0.1925  1.3684
  137OSM    H7T14817   4.711   3.414   3.370 -1.2444 -0.0667 -0.0531
  137OSM    C8S14818   4.654   3.255   3.504  0.1753 -0.7032  0.3757
  137OSM    H8S14819   4.752   3.257   3.556  0.2285 -0.9409  0.2870
  137OSM    H8T14820   4.639   3.145   3.492  0.8894 -0.9813  1.8025
  137OSM    C9S14821   4.541   3.321   3.583  0.0604  0.4885 -0.4714
  137OSM    H9S14822   4.447   3.289   3.532  0.1077  0.2974 -0.4381
  137OSM    H9T14823   4.546   3.432   3.585  2.0148  0.4260  1.4835
  137OSM   C10S14824   4.526   3.267   3.721 -0.0868 -0.3757 -0.3240
  137OSM   H10S14825   4.535   3.156   3.714  0.5601 -0.3090 -0.5871
  137OSM   H10T14826   4.422   3.289   3.752  0.5376 -0.5151  2.1416
  137OSM   C11S14827   4.615   3.344   3.822  0.0019  0.1526 -0.1885
  137OSM   H11S14828   4.610   3.449   3.785 -1.4973  0.4421  0.7740
  137OSM   H11T14829   4.718   3.308   3.799 -0.5977 -1.7833  0.0422
  137OSM   C12S14830   4.585   3.323   3.965  0.3212 -0.0712  0.3125
  137OSM   H12S14831   4.681   3.339   4.019 -0.0441 -2.3357  1.7819
  137OSM   H12T14832   4.555   3.218   3.985 -1.1705  0.3045  0.1462
  137OSM   C13S14833   4.475   3.424   4.009  0.0232 -0.0790  0.5451
  137OSM   H13S14834   4.380   3.409   3.954 -0.6941  0.0417  1.7235
  137OSM   H13T14835   4.521   3.523   3.986 -0.1585 -0.0777  0.1762
  137OSM   C14S14836   4.443   3.411   4.159 -0.1663  0.0429 -0.4916
  137OSM   H14S14837   4.403   3.508   4.197 -1.3377 -1.7181  3.2509
  137OSM   H14T14838   4.541   3.394   4.209  0.0763 -2.5673 -1.6935
  137OSM   C15S14839   4.343   3.302   4.189  0.2670  0.2907  0.8378
  137OSM   H15S14840   4.287   3.273   4.098  2.4328 -3.4499  0.5128
  137OSM   H15T14841   4.276   3.335   4.271 -2.1946 -2.4701  0.1056
  137OSM   C16S14842   4.409   3.174   4.244  0.3023 -0.0094 -0.1669
  137OSM   H16S14843   4.484   3.127   4.176  0.9849 -1.0148  1.2207
  137OSM   H16T14844   4.321   3.108   4.231 -1.5770  2.6619 -1.8446
  137OSM   C17S14845   4.462   3.173   4.389  0.3634 -0.3140 -0.2363
  137OSM   H17S14846   4.383   3.211   4.457 -2.3859 -0.8766 -2.8961
  137OSM   H17T14847   4.547   3.244   4.382 -0.9424  1.1891 -2.2458
  137OSM   C18S14848   4.513   3.037   4.428  0.2747  0.3844  0.0154
  137OSM   H18S14849   4.458   2.952   4.383 -0.0873  1.0808 -0.8676
  137OSM   H18T14850   4.522   3.007   4.535  1.8533  1.2507  0.1577
  137OSM   H18U14851   4.621   3.034   4.403 -0.1446 -0.0319 -1.9320
  137OSM    C1F14852   4.735   3.759   3.062 -0.8641 -0.5356  0.3228
  137OSM     OF14853   4.662   3.777   2.973 -0.0062  0.0563  0.0375
  137OSM    C2F14854   4.743   3.847   3.179 -0.0408 -0.0753  0.2998
  137OSM    H2F14855   4.687   3.943   3.175  0.5467  0.3529  1.5839
  137OSM    H2G14856   4.850   3.879   3.182 -0.0803  0.0103  1.4874
  137OSM    C3F14857   4.720   3.779   3.315 -0.8432 -0.1304 -0.1395
  137OSM    H3F14858   4.741   3.855   3.393 -0.5803  1.4318 -1.6467
  137OSM    H3G14859   4.793   3.698   3.333  0.0079  1.1580  2.6465
  137OSM    C4F14860   4.579   3.718   3.333 -0.3431  0.1784 -0.0238
  137OSM    H4F14861   4.563   3.627   3.271 -0.5617  0.4076 -0.3038
  137OSM    H4G14862   4.507   3.794   3.297  0.1446  0.2800 -0.8229
  137OSM    C5F14863   4.548   3.681   3.479 -0.4536 -0.1696 -0.1734
  137OSM    H5F14864   4.622   3.607   3.516 -1.8509 -1.8916 -0.7137
  137OSM    H5G14865   4.452   3.628   3.462 -0.8082  0.9296 -1.8365
  137OSM    C6F14866   4.533   3.796   3.574 -0.1656 -0.1046 -0.1258
  137OSM    H6F14867   4.459   3.871   3.540  0.6658  0.8738  0.1779
  137OSM    H6G14868   4.633   3.845   3.581 -0.1949 -0.0915  0.2198
  137OSM    C7F14869   4.504   3.748   3.717  0.2540 -0.5136 -0.0367
  137OSM    H7F14870   4.586   3.680   3.749  0.6238 -0.8469 -1.6134
  137OSM    H7G14871   4.416   3.681   3.706 -0.5631  0.4626  0.3361
  137OSM    C8F14872   4.468   3.863   3.815 -0.4589  0.2712  0.0465
  137OSM    H8F14873   4.415   3.826   3.905  0.0085  1.5511  0.8869
  137OSM    H8G14874   4.401   3.922   3.748  2.7192  0.6843 -3.0978
  137OSM    C9F14875   4.588   3.940   3.861 -0.1155  0.2574  0.2416
  137OSM    H9F14876   4.690   3.906   3.837  1.0015  0.3211  4.1952
  137OSM   C10F14877   4.580   4.064   3.918  0.4526  0.0541 -0.0218
  137OSM   H10F14878   4.677   4.107   3.949  2.4016 -1.9624 -2.8374
  137OSM   C11F14879   4.451   4.137   3.951 -0.0560 -0.6936  0.3250
  137OSM   H11F14880   4.361   4.077   3.930  0.3382 -0.6126 -1.8025
  137OSM   H11G14881   4.443   4.233   3.896 -1.2123 -1.7226 -1.3761
  137OSM   C12F14882   4.453   4.177   4.101 -0.6263  0.5846 -0.3398
  137OSM   H12F14883   4.373   4.253   4.107 -0.8533  0.3035  0.2874
  137OSM   H12G14884   4.552   4.226   4.115 -0.4690  0.5170 -1.1401
  137OSM   C13F14885   4.426   4.053   4.188 -0.6513  0.8366 -0.5980
  137OSM   H13F14886   4.492   3.971   4.152  1.9299  0.6551  3.8170
  137OSM   H13G14887   4.319   4.027   4.179 -1.0033  0.9573  2.1605
  137OSM   C14F14888   4.440   4.098   4.335  0.3802 -0.4034  0.4958
  137OSM   H14F14889   4.375   4.187   4.342 -1.3973 -1.7526  2.5325
  137OSM   H14G14890   4.543   4.118   4.372 -0.5726  3.5782  1.5084
  137OSM   C15F14891   4.374   3.999   4.425  0.0392  0.8358 -0.0582
  137OSM   H15F14892   4.268   3.979   4.398  1.2159 -3.0857 -2.8146
  137OSM   H15G14893   4.377   4.026   4.533 -0.4719  3.1433 -0.5725
  137OSM   C16F14894   4.452   3.861   4.418  1.1019  0.1188 -0.4503
  137OSM   H16F14895   4.545   3.879   4.477  0.3939  0.2435  0.6647
  137OSM   H16G14896   4.482   3.829   4.316  0.9356 -0.7895 -0.2174
  137OSM   C17F14897   4.367   3.758   4.489  0.1877  0.3881 -0.7529
  137OSM   H17F14898   4.285   3.731   4.420 -0.4850 -1.7746  0.7823
  137OSM   H17G14899   4.319   3.804   4.578  1.4535  2.9202 -1.2647
  137OSM   C18F14900   4.454   3.631   4.523  0.0613  0.1543 -0.4762
  137OSM   H18F14901   4.525   3.643   4.608  1.8903 -0.5667 -1.8420
  137OSM   H18G14902   4.515   3.603   4.435  0.1811  2.0139 -1.0349
  137OSM   H18H14903   4.382   3.550   4.546 -2.9604  3.4695  3.5172
  138OSM      N14904   5.173   4.594   2.412 -0.8208 -0.0337  0.4941
  138OSM    C1514905   5.263   4.544   2.302  0.2894  0.1769  0.4064
  138OSM   H15A14906   5.221   4.570   2.206 -1.9141  1.5660  1.6579
  138OSM   H15B14907   5.280   4.438   2.310 -1.5974 -0.0802  1.4440
  138OSM   H15C14908   5.362   4.587   2.313  0.0026  1.2032 -0.6982
  138OSM    C1414909   5.176   4.745   2.396  0.8249  0.0655 -0.5580
  138OSM   H14A14910   5.129   4.782   2.306 -2.2730 -0.1600  0.8598
  138OSM   H14B14911   5.281   4.769   2.394  0.6549  1.2776  1.8096
  138OSM   H14C14912   5.123   4.788   2.479 -0.2346  1.3496 -1.8448
  138OSM    C1314913   5.032   4.547   2.395 -0.3391  0.3804  0.5510
  138OSM   H13A14914   5.015   4.442   2.378 -2.2178  0.4478  1.8319
  138OSM   H13B14915   5.001   4.589   2.300  0.3984 -1.0283 -0.3413
  138OSM   H13C14916   4.974   4.586   2.477 -0.1218 -2.5275  2.2157
  138OSM    C1214917   5.229   4.546   2.548  0.4244  0.4289  0.1682
  138OSM   H12A14918   5.332   4.578   2.556  0.1930  0.9567  1.1866
  138OSM   H12B14919   5.227   4.439   2.558  0.4399  0.3600 -0.4957
  138OSM    C1114920   5.167   4.601   2.674  0.4468 -0.2619 -0.1447
  138OSM   H11A14921   5.160   4.712   2.675 -2.2339 -0.3597  1.0614
  138OSM   H11B14922   5.233   4.577   2.761  1.1683  0.3281 -0.5152
  138OSM      P14923   5.025   4.408   2.756  0.8425 -0.0616 -0.2670
  138OSM    O1314924   4.894   4.347   2.712 -0.7860  0.3524  0.1121
  138OSM    O1414925   5.149   4.330   2.734  0.1648 -0.1823  0.3230
  138OSM    O1114926   5.012   4.440   2.907 -0.1928  0.5395 -0.2210
  138OSM    O1214927   5.032   4.548   2.697  0.4642 -0.6720  0.0483
  138OSM    C1S14928   4.887   4.503   2.949  0.6145 -0.0860 -0.0087
  138OSM    H1S14929   4.814   4.419   2.949  0.0357  0.4070  0.4051
  138OSM    H1T14930   4.852   4.592   2.893 -1.3832 -0.8677 -0.1048
  138OSM     NF14931   4.763   4.553   3.150  0.4399 -0.5748  0.3098
  138OSM    HNF14932   4.728   4.646   3.148 -1.3146 -1.2070 -0.1237
  138OSM    C2S14933   4.895   4.545   3.092  0.3141  0.3326 -0.2835
  138OSM    H2S14934   4.948   4.462   3.143  0.0317  0.8371  0.8677
  138OSM    C3S14935   4.979   4.673   3.108  0.3644 -0.0783 -0.7145
  138OSM    H3S14936   4.931   4.753   3.048 -0.2164 -0.9597 -1.4537
  138OSM     O314937   5.101   4.652   3.039  0.4122  0.1268  0.0549
  138OSM    HO314938   5.091   4.572   2.986  0.2554 -0.3585  0.8145
  138OSM    C4S14939   4.999   4.730   3.246  0.0724 -0.3360 -0.2009
  138OSM    H4S14940   4.960   4.833   3.244 -1.2832 -0.8346 -1.1115
  138OSM    C5S14941   5.065   4.672   3.349  0.1180 -0.4773 -0.5605
  138OSM    H5S14942   5.109   4.573   3.331  0.7702 -0.5959  1.4372
  138OSM    C6S14943   5.091   4.745   3.481  0.0691  0.0250 -0.1781
  138OSM    H6S14944   5.016   4.707   3.553 -2.2285 -0.5025 -2.7211
  138OSM    H6T14945   5.061   4.852   3.476  0.4117  0.1566  0.4351
  138OSM    C7S14946   5.230   4.729   3.540 -0.1160 -0.0506  0.6781
  138OSM    H7S14947   5.306   4.784   3.480 -1.6128  0.3453 -0.9505
  138OSM    H7T14948   5.264   4.624   3.531  0.9076  0.2454  1.0111
  138OSM    C8S14949   5.226   4.763   3.686 -0.1092 -0.0186  0.1245
  138OSM    H8S14950   5.145   4.705   3.736  0.4659 -0.5170  0.4930
  138OSM    H8T14951   5.215   4.871   3.708  2.0279  0.6326 -1.6032
  138OSM    C9S14952   5.347   4.717   3.771 -0.2297  0.1254  0.2377
  138OSM    H9S14953   5.437   4.759   3.722  0.5771 -0.4775  1.1737
  138OSM    H9T14954   5.369   4.608   3.765 -2.5682 -0.4565  1.0007
  138OSM   C10S14955   5.346   4.757   3.916  0.2236  0.0174  0.0416
  138OSM   H10S14956   5.240   4.784   3.938 -0.1188  0.1464 -1.6238
  138OSM   H10T14957   5.418   4.840   3.932  1.7941 -1.4636  0.9987
  138OSM   C11S14958   5.408   4.657   4.013  0.2621 -1.3395 -0.0451
  138OSM   H11S14959   5.508   4.618   3.983  0.8254 -1.2691  1.6616
  138OSM   H11T14960   5.345   4.566   4.015  1.4779 -2.2092 -0.0664
  138OSM   C12S14961   5.407   4.708   4.153  0.4266 -0.6110 -0.0743
  138OSM   H12S14962   5.332   4.788   4.167  0.1954 -0.8969  0.3494
  138OSM   H12T14963   5.509   4.751   4.167  0.7150 -0.6981 -1.7238
  138OSM   C13S14964   5.389   4.602   4.260 -0.5724  0.6863 -0.4542
  138OSM   H13S14965   5.429   4.503   4.231 -0.1331  0.6217  0.3374
  138OSM   H13T14966   5.283   4.595   4.292 -0.2743 -0.4400  0.3940
  138OSM   C14S14967   5.465   4.639   4.393  0.4338 -0.3720  0.9961
  138OSM   H14S14968   5.420   4.736   4.423 -0.8766 -0.2772 -1.0764
  138OSM   H14T14969   5.576   4.644   4.380  0.1065  0.5446 -2.7090
  138OSM   C15S14970   5.408   4.542   4.497 -0.5140  0.5879 -0.5163
  138OSM   H15S14971   5.451   4.440   4.490 -2.4420 -0.2758 -0.5573
  138OSM   H15T14972   5.298   4.530   4.500 -0.4233 -0.1002  1.0575
  138OSM   C16S14973   5.444   4.592   4.633  0.2446  0.2678 -0.1547
  138OSM   H16S14974   5.361   4.656   4.669 -0.2907 -0.9252  0.8396
  138OSM   H16T14975   5.535   4.656   4.628  1.4251 -1.4392 -2.6453
  138OSM   C17S14976   5.469   4.481   4.738 -0.2381 -0.0629 -0.1892
  138OSM   H17S14977   5.554   4.417   4.706  0.8636  1.1580  0.2041
  138OSM   H17T14978   5.378   4.419   4.745  0.3764 -1.1726 -1.6167
  138OSM   C18S14979   5.493   4.539   4.872 -0.4538  0.0494  0.1464
  138OSM   H18S14980   5.418   4.618   4.898 -0.3196  0.3366 -0.3353
  138OSM   H18T14981   5.588   4.597   4.873 -0.9894  0.9469  0.4379
  138OSM   H18U14982   5.493   4.466   4.956  0.4591  2.9050  2.8548
  138OSM    C1F14983   4.687   4.447   3.181 -0.1009 -0.3468 -0.1318
  138OSM     OF14984   4.728   4.333   3.159  0.0429  0.1741  0.1481
  138OSM    C2F14985   4.564   4.478   3.247  0.2297  0.2148 -0.5342
  138OSM    H2F14986   4.479   4.432   3.192 -1.0797  2.7290 -0.7800
  138OSM    H2G14987   4.547   4.584   3.274  1.4336 -0.2428  2.4518
  138OSM    C3F14988   4.569   4.403   3.384  0.1140 -0.4676  0.0925
  138OSM    H3F14989   4.596   4.298   3.358 -0.8527 -0.1270 -2.5950
  138OSM    H3G14990   4.477   4.404   3.446  0.4774 -0.6011  0.6372
  138OSM    C4F14991   4.680   4.458   3.474  0.1587  0.2498  0.3323
  138OSM    H4F14992   4.662   4.568   3.481 -0.6881  0.0988  0.6495
  138OSM    H4G14993   4.782   4.447   3.432  0.6393  2.7851  0.6709
  138OSM    C5F14994   4.684   4.396   3.612 -0.3649  0.4193 -0.3443
  138OSM    H5F14995   4.696   4.286   3.604  0.3239  0.4716 -0.1105
  138OSM    H5G14996   4.592   4.418   3.671  0.2202 -1.2371  1.2680
  138OSM    C6F14997   4.806   4.465   3.689  0.0632 -0.1702 -0.2790
  138OSM    H6F14998   4.777   4.572   3.700 -2.3511 -0.8970  1.2728
  138OSM    H6G14999   4.902   4.456   3.635  1.4018  1.6811  1.6295
  138OSM    C7F15000   4.839   4.396   3.823  0.3581 -0.4806 -0.0584
  138OSM    H7F15001   4.854   4.291   3.791  1.1403  0.1168 -1.7408
  138OSM    H7G15002   4.749   4.382   3.887 -1.9329 -1.8588 -3.3066
  138OSM    C8F15003   4.956   4.456   3.907  0.0504  0.3099 -0.4978
  138OSM    H8F15004   5.042   4.451   3.836 -1.3334  1.1072 -2.2854
  138OSM    H8G15005   4.967   4.373   3.980 -2.6067  0.2399 -0.0946
  138OSM    C9F15006   4.912   4.587   3.962 -0.1769  0.6734 -0.1513
  138OSM    H9F15007   4.882   4.653   3.880 -0.7944 -0.5868 -0.9617
  138OSM   C10F15008   4.886   4.612   4.091 -0.6437 -0.0950 -0.0372
  138OSM   H10F15009   4.861   4.716   4.118 -0.6330  0.3844 -1.7828
  138OSM   C11F15010   4.916   4.521   4.208  0.1868  0.1601 -0.2213
  138OSM   H11F15011   5.025   4.500   4.217 -0.2102 -2.1483 -0.3678
  138OSM   H11G15012   4.868   4.422   4.197 -1.4874  0.6516  1.9026
  138OSM   C12F15013   4.859   4.581   4.337 -0.2491  0.8836  0.0464
  138OSM   H12F15014   4.846   4.498   4.410 -1.0667  0.9815  0.0216
  138OSM   H12G15015   4.757   4.621   4.317 -0.9285  0.3548  2.2047
  138OSM   C13F15016   4.950   4.684   4.398 -0.4948  0.2827  0.9348
  138OSM   H13F15017   4.957   4.765   4.323 -1.2877  0.5335  1.1159
  138OSM   H13G15018   5.046   4.635   4.423 -0.6592 -0.3221  0.3953
  138OSM   C14F15019   4.901   4.735   4.532 -0.5972 -0.2466  0.6281
  138OSM   H14F15020   4.794   4.756   4.514 -0.3065 -0.5828 -1.9879
  138OSM   H14G15021   4.953   4.830   4.557 -0.9109 -0.6582  3.0300
  138OSM   C15F15022   4.924   4.639   4.649  0.1985  0.1264  0.5617
  138OSM   H15F15023   5.033   4.636   4.674  0.3285 -1.7657 -0.0511
  138OSM   H15G15024   4.895   4.534   4.632  2.2033 -0.5178  0.7932
  138OSM   C16F15025   4.863   4.688   4.786 -0.3863 -0.0840 -0.4206
  138OSM   H16F15026   4.906   4.789   4.802 -0.8529 -0.1904  1.8300
  138OSM   H16G15027   4.891   4.620   4.869  2.6771 -0.5069 -1.6590
  138OSM   C17F15028   4.708   4.706   4.804  0.4497  0.6319  0.3662
  138OSM   H17F15029   4.668   4.603   4.808 -0.2611  0.8195 -1.1465
  138OSM   H17G15030   4.668   4.755   4.712 -1.3462 -1.8641 -0.2819
  138OSM   C18F15031   4.674   4.786   4.930  0.1761 -0.2729 -0.0107
  138OSM   H18F15032   4.563   4.796   4.929  0.1486 -0.5496  0.2657
  138OSM   H18G15033   4.717   4.889   4.931  2.1904 -1.0515  1.9496
  138OSM   H18H15034   4.716   4.732   5.017  1.8536  0.5619 -0.2679
  139OSM      N15035   1.956   3.864   2.640 -0.2699 -0.3028  0.0129
  139OSM    C1515036   1.831   3.801   2.676  0.4387 -0.4895 -0.2835
  139OSM   H15A15037   1.743   3.865   2.670 -0.6502 -1.9879 -0.9549
  139OSM   H15B15038   1.835   3.759   2.775 -1.5810  0.4439  0.2546
  139OSM   H15C15039   1.804   3.727   2.602 -0.1824 -0.9306  0.3740
  139OSM    C1415040   1.995   3.939   2.762  0.3379  0.3074 -0.0290
  139OSM   H14A15041   1.980   3.883   2.854  0.0938 -3.3532 -2.0982
  139OSM   H14B15042   1.935   4.028   2.768 -3.2145 -1.9728  2.7124
  139OSM   H14C15043   2.097   3.973   2.751  1.0109 -0.6039  2.6185
  139OSM    C1315044   2.048   3.751   2.634 -0.4594  0.1105 -0.1182
  139OSM   H13A15045   2.029   3.675   2.560  0.0823  1.2548 -1.4696
  139OSM   H13B15046   2.039   3.690   2.723  0.1700 -1.9401 -1.3840
  139OSM   H13C15047   2.150   3.786   2.622  1.0134 -3.3335  0.9509
  139OSM    C1215048   1.953   3.956   2.515  0.1861 -0.1614 -0.4850
  139OSM   H12A15049   1.949   3.895   2.426 -2.3418  0.7178 -1.0682
  139OSM   H12B15050   2.043   4.015   2.515 -0.5110  1.0863  2.5474
  139OSM    C1115051   1.833   4.052   2.493 -0.3198 -1.7682 -0.2873
  139OSM   H11A15052   1.744   3.987   2.477 -0.8217 -0.8038 -1.6917
  139OSM   H11B15053   1.871   4.089   2.395 -0.2821  0.2865  0.4529
  139OSM      P15054   1.928   4.265   2.612  0.3230  0.1085  0.1658
  139OSM    O1315055   2.049   4.217   2.680 -0.1931  0.6848 -0.4251
  139OSM    O1415056   1.948   4.328   2.481 -0.2655  0.2753  0.3387
  139OSM    O1115057   1.868   4.370   2.707  0.2933 -0.2903 -0.1297
  139OSM    O1215058   1.819   4.151   2.606  0.9877  0.9562 -0.2599
  139OSM    C1S15059   1.819   4.358   2.845  0.6808  0.8010 -0.6427
  139OSM    H1S15060   1.733   4.288   2.844 -1.1472  2.7670  2.1231
  139OSM    H1T15061   1.767   4.451   2.877 -1.7170 -0.4369 -0.7255
  139OSM     NF15062   1.870   4.273   3.073 -0.0096 -0.2585 -0.2667
  139OSM    HNF15063   1.877   4.322   3.160 -0.4816  0.7509 -0.7699
  139OSM    C2S15064   1.929   4.320   2.950 -0.3904 -0.2458  0.1356
  139OSM    H2S15065   1.981   4.232   2.907  1.7145  1.3015 -0.6548
  139OSM    C3S15066   2.026   4.437   2.981 -0.3200 -0.7651  0.2993
  139OSM    H3S15067   1.972   4.500   3.055 -1.2755  0.0257 -1.0246
  139OSM     O315068   2.058   4.511   2.872  0.1818 -0.0994  0.0280
  139OSM    HO315069   1.982   4.505   2.814  0.0930 -0.0102  0.1335
  139OSM    C4S15070   2.145   4.380   3.047  0.6692 -0.8635  1.3232
  139OSM    H4S15071   2.206   4.325   2.974  0.1890  2.6280 -2.0640
  139OSM    C5S15072   2.186   4.399   3.176  0.2091 -0.0872 -0.3895
  139OSM    H5S15073   2.127   4.456   3.250  0.4484  0.4892 -0.6328
  139OSM    C6S15074   2.320   4.360   3.224 -0.3701 -0.4204 -0.1997
  139OSM    H6S15075   2.381   4.312   3.144 -1.3147 -1.6576 -0.1961
  139OSM    H6T15076   2.328   4.283   3.304 -2.1452  0.3852  0.8047
  139OSM    C7S15077   2.399   4.479   3.287 -0.5145  0.5773 -0.1427
  139OSM    H7S15078   2.390   4.573   3.229  1.1612  1.4972  1.0165
  139OSM    H7T15079   2.504   4.447   3.299 -0.4236  0.5826 -0.8867
  139OSM    C8S15080   2.358   4.524   3.430 -0.2311 -0.3243 -0.3392
  139OSM    H8S15081   2.376   4.443   3.504  1.3732  0.8426  0.6232
  139OSM    H8T15082   2.251   4.549   3.418 -0.0071  0.8877  0.0429
  139OSM    C9S15083   2.431   4.645   3.479  1.4712 -0.2033 -0.0046
  139OSM    H9S15084   2.518   4.666   3.413  1.1525  1.6138  0.0961
  139OSM    H9T15085   2.482   4.639   3.578  2.6916  0.1163 -0.5936
  139OSM   C10S15086   2.346   4.768   3.468 -0.2567 -0.7625 -0.2387
  139OSM   H10S15087   2.296   4.777   3.369  0.8967 -1.8061 -0.9332
  139OSM   H10T15088   2.413   4.857   3.466 -1.3424  0.0726 -0.7796
  139OSM   C11S15089   2.225   4.779   3.571  0.2193 -0.0995 -0.0266
  139OSM   H11S15090   2.167   4.685   3.563  0.9145 -0.8828  3.0090
  139OSM   H11T15091   2.161   4.869   3.553  0.2389  0.1026  0.8752
  139OSM   C12S15092   2.258   4.786   3.724  0.4498  0.1444  0.9529
  139OSM   H12S15093   2.330   4.870   3.739  1.0547  0.6746 -3.6393
  139OSM   H12T15094   2.307   4.689   3.749  1.2850 -0.1288 -1.4587
  139OSM   C13S15095   2.134   4.806   3.812  0.2086 -0.4104 -0.1062
  139OSM   H13S15096   2.066   4.718   3.809  0.7069 -0.8118  0.1729
  139OSM   H13T15097   2.069   4.892   3.786  0.3686  0.1375  1.2579
  139OSM   C14S15098   2.177   4.825   3.960 -0.2708 -0.2949  0.2841
  139OSM   H14S15099   2.230   4.922   3.974 -0.7243 -0.2155  1.6573
  139OSM   H14T15100   2.247   4.740   3.974  0.2637 -0.1886 -1.4906
  139OSM   C15S15101   2.065   4.813   4.057  0.4185  0.1091 -0.7677
  139OSM   H15S15102   2.025   4.709   4.060  1.7793 -0.4064  0.8639
  139OSM   H15T15103   1.985   4.887   4.037  0.4899  0.7983  1.2576
  139OSM   C16S15104   2.107   4.830   4.202  1.2685  0.2463  0.1720
  139OSM   H16S15105   2.130   4.938   4.213  0.0011  0.7041 -1.2502
  139OSM   H16T15106   2.201   4.772   4.216  1.0081  0.1901  1.9665
  139OSM   C17S15107   2.001   4.790   4.300 -0.6122 -0.0324  0.7496
  139OSM   H17S15108   1.948   4.695   4.277 -0.1863  0.0487 -0.6028
  139OSM   H17T15109   1.914   4.858   4.314 -0.9936 -0.3677  0.0472
  139OSM   C18S15110   2.058   4.771   4.444 -0.7243 -0.4287 -0.5513
  139OSM   H18S15111   1.981   4.727   4.511 -3.8725  1.9043 -2.3697
  139OSM   H18T15112   2.087   4.868   4.490  1.8890 -1.3964  0.0541
  139OSM   H18U15113   2.145   4.701   4.444  0.0740  0.5303  0.0180
  139OSM    C1F15114   1.793   4.165   3.082  0.6909 -0.0652  0.7066
  139OSM     OF15115   1.805   4.072   3.001  0.3296  0.2407  0.0137
  139OSM    C2F15116   1.705   4.149   3.204 -0.5625  0.2112  0.0072
  139OSM    H2F15117   1.635   4.236   3.204 -2.7852 -1.4645  1.7453
  139OSM    H2G15118   1.782   4.161   3.283  2.1716 -0.8554 -2.3123
  139OSM    C3F15119   1.629   4.014   3.199  0.0751  0.7691  1.0270
  139OSM    H3F15120   1.704   3.933   3.214 -0.3221  0.4078  1.0843
  139OSM    H3G15121   1.571   4.012   3.104  0.8489  2.7725  0.4509
  139OSM    C4F15122   1.526   4.008   3.316  0.3288  0.4450 -0.3215
  139OSM    H4F15123   1.454   4.081   3.271  0.5170 -0.2278 -1.7818
  139OSM    H4G15124   1.570   4.036   3.414 -0.2764  0.3501 -0.0176
  139OSM    C5F15125   1.457   3.872   3.318  0.6628 -0.5816 -0.3697
  139OSM    H5F15126   1.452   3.831   3.215  1.2092 -0.1480 -0.5744
  139OSM    H5G15127   1.355   3.880   3.361 -0.0209  0.9441 -2.2036
  139OSM    C6F15128   1.528   3.778   3.411 -0.3923 -0.4965 -0.1128
  139OSM    H6F15129   1.523   3.807   3.518 -0.4635 -1.2737  0.1057
  139OSM    H6G15130   1.637   3.771   3.393 -0.2486  1.2278 -0.0836
  139OSM    C7F15131   1.464   3.638   3.424  0.1378  0.8093  0.4507
  139OSM    H7F15132   1.353   3.634   3.434 -0.1084 -0.2740 -2.1372
  139OSM    H7G15133   1.527   3.587   3.501  1.8987  0.2248 -1.3055
  139OSM    C8F15134   1.485   3.541   3.304  0.2215 -0.2055  0.2246
  139OSM    H8F15135   1.440   3.600   3.222  3.5991  1.6440 -0.4663
  139OSM    H8G15136   1.417   3.455   3.321  1.6987 -1.3332  0.7151
  139OSM    C9F15137   1.630   3.500   3.277  0.0850  0.0922 -0.3123
  139OSM    H9F15138   1.689   3.580   3.229 -1.6005  0.9952 -0.9321
  139OSM   C10F15139   1.688   3.387   3.314  0.3739 -0.2997  0.2722
  139OSM   H10F15140   1.797   3.379   3.302  0.8062  3.3118  0.8347
  139OSM   C11F15141   1.617   3.274   3.386 -0.1386  0.8677 -0.4500
  139OSM   H11F15142   1.620   3.184   3.320 -0.0197  0.3755  0.2138
  139OSM   H11G15143   1.509   3.291   3.403 -0.4223 -0.9264 -0.2787
  139OSM   C12F15144   1.694   3.255   3.515  0.0654 -0.5489  0.2175
  139OSM   H12F15145   1.622   3.220   3.592 -1.4267  3.7264  1.0489
  139OSM   H12G15146   1.722   3.353   3.560  0.3954  0.2951 -1.7236
  139OSM   C13F15147   1.825   3.168   3.503  0.7295  0.4271  0.3839
  139OSM   H13F15148   1.879   3.225   3.424 -0.0505  2.2053  1.0793
  139OSM   H13G15149   1.799   3.067   3.464 -2.1571  0.9292  0.8006
  139OSM   C14F15150   1.910   3.171   3.625 -0.3185 -0.1493  0.2188
  139OSM   H14F15151   1.940   3.274   3.657 -0.3017 -0.6115  1.7896
  139OSM   H14G15152   2.003   3.117   3.597 -2.6920 -4.5798  0.1404
  139OSM   C15F15153   1.849   3.087   3.744 -0.0473  0.1215 -0.6880
  139OSM   H15F15154   1.825   2.983   3.712  2.0111 -0.6995  0.2752
  139OSM   H15G15155   1.750   3.126   3.776 -1.0224 -0.5712 -2.7024
  139OSM   C16F15156   1.945   3.077   3.864  0.5762  0.4769  0.5798
  139OSM   H16F15157   1.992   3.171   3.900  3.2104 -0.8473  0.7995
  139OSM   H16G15158   2.038   3.023   3.835  1.0612  1.4299  0.3051
  139OSM   C17F15159   1.881   3.005   3.981 -0.1597 -0.6690 -0.2886
  139OSM   H17F15160   1.841   2.909   3.943  0.1013 -1.3856  1.1592
  139OSM   H17G15161   1.791   3.058   4.019  0.0599  0.2627 -1.0352
  139OSM   C18F15162   1.977   2.987   4.094 -0.0808  0.4520  0.8057
  139OSM   H18F15163   1.934   2.940   4.185 -1.5587  0.6781  0.2445
  139OSM   H18G15164   2.029   3.082   4.120  0.3000  0.5879 -0.3903
  139OSM   H18H15165   2.052   2.913   4.059  0.1897  1.0084  0.1754
  140OSM      N15166   4.415   2.218   2.499  0.4650  0.4633  0.5604
  140OSM    C1515167   4.310   2.299   2.435  0.7188 -0.5857  0.2281
  140OSM   H15A15168   4.215   2.249   2.446  0.3934  0.0045  0.1204
  140OSM   H15B15169   4.319   2.300   2.327 -2.8674  0.4024 -0.1870
  140OSM   H15C15170   4.303   2.397   2.479 -1.4991 -0.3791 -0.4677
  140OSM    C1415171   4.427   2.095   2.420  0.8095  0.2432  0.4620
  140OSM   H14A15172   4.504   2.025   2.451  0.5006 -0.3305 -0.0378
  140OSM   H14B15173   4.451   2.118   2.317 -0.5769  2.4663  0.5791
  140OSM   H14C15174   4.335   2.039   2.412  2.1282 -2.0580  0.3044
  140OSM    C1315175   4.544   2.297   2.506  1.0181  0.2211  0.6388
  140OSM   H13A15176   4.584   2.334   2.412  1.6350 -0.8513  0.4476
  140OSM   H13B15177   4.614   2.242   2.567 -0.0275 -2.5281 -0.4352
  140OSM   H13C15178   4.521   2.388   2.558  1.8385  0.4281  0.6624
  140OSM    C1215179   4.367   2.192   2.641 -0.6029 -0.1654  0.1564
  140OSM   H12A15180   4.425   2.115   2.689 -1.1080  0.5575  2.0216
  140OSM   H12B15181   4.264   2.161   2.634 -0.9412  0.9193  0.1770
  140OSM    C1115182   4.373   2.304   2.738 -0.0684 -0.0472  0.3213
  140OSM   H11A15183   4.479   2.337   2.744  0.1488 -0.5032 -0.7584
  140OSM   H11B15184   4.348   2.282   2.844  0.4552  0.5064  0.5630
  140OSM      P15185   4.341   2.556   2.733  0.7354 -0.4017  0.0976
  140OSM    O1315186   4.480   2.579   2.690 -0.3194 -0.0212  0.3222
  140OSM    O1415187   4.251   2.654   2.676  0.3408  0.6685  0.2899
  140OSM    O1115188   4.334   2.571   2.895  0.1368  0.6306 -0.0959
  140OSM    O1215189   4.282   2.413   2.706 -0.0654 -0.0380  0.1666
  140OSM    C1S15190   4.204   2.559   2.951 -0.0340 -0.3812 -0.6414
  140OSM    H1S15191   4.181   2.450   2.952  3.3469 -1.2231  0.7151
  140OSM    H1T15192   4.120   2.604   2.895  2.2884  1.1480 -3.1674
  140OSM     NF15193   4.098   2.570   3.176  0.5076  0.2461 -0.6365
  140OSM    HNF15194   4.024   2.633   3.200  0.9409  0.1864  0.9901
  140OSM    C2S15195   4.208   2.623   3.097  0.4128  0.5011 -0.6180
  140OSM    H2S15196   4.302   2.578   3.135  0.9589  0.7786 -1.6181
  140OSM    C3S15197   4.222   2.775   3.088 -0.3687 -0.5444 -0.2914
  140OSM    H3S15198   4.123   2.815   3.054  1.2668  1.4648 -3.2290
  140OSM     O315199   4.302   2.846   2.995 -0.3219 -0.9800  0.1263
  140OSM    HO315200   4.336   2.778   2.936  0.8450 -0.0708 -0.2986
  140OSM    C4S15201   4.234   2.837   3.225  0.6607 -0.6152 -0.0919
  140OSM    H4S15202   4.144   2.808   3.281 -0.6216 -0.9945 -2.2253
  140OSM    C5S15203   4.348   2.895   3.281  0.0527  0.4560  0.0873
  140OSM    H5S15204   4.438   2.892   3.218  1.3326 -2.2061  1.8655
  140OSM    C6S15205   4.379   2.936   3.425  0.9630 -0.1444  0.5279
  140OSM    H6S15206   4.348   3.043   3.425  0.3812 -0.3112  1.0366
  140OSM    H6T15207   4.488   2.916   3.438  1.4048  1.1066 -0.9033
  140OSM    C7S15208   4.311   2.856   3.540  0.6088 -0.1609  0.7142
  140OSM    H7S15209   4.335   2.748   3.529  0.0000 -0.1468 -1.0884
  140OSM    H7T15210   4.200   2.858   3.536  0.5066 -2.2842  1.4382
  140OSM    C8S15211   4.368   2.900   3.673 -0.0421 -0.2972 -0.4051
  140OSM    H8S15212   4.350   3.009   3.680 -0.2678 -0.3436 -0.2604
  140OSM    H8T15213   4.477   2.879   3.682  0.3295  0.7750 -2.0319
  140OSM    C9S15214   4.308   2.831   3.795 -0.1021  0.7237 -0.1485
  140OSM    H9S15215   4.347   2.727   3.806 -1.9151  0.0430  0.1444
  140OSM    H9T15216   4.197   2.822   3.791 -0.2751  1.8827  1.0908
  140OSM   C10S15217   4.346   2.909   3.936  0.4641 -0.1384  0.6900
  140OSM   H10S15218   4.299   3.009   3.924 -1.0414 -1.1128 -2.5716
  140OSM   H10T15219   4.456   2.920   3.949  0.0588  3.2090  2.2240
  140OSM   C11S15220   4.293   2.828   4.056  1.0932 -0.1031 -0.4791
  140OSM   H11S15221   4.312   2.885   4.149 -0.4583  0.2981 -0.3807
  140OSM   H11T15222   4.325   2.722   4.056  1.7247  0.0823 -0.8427
  140OSM   C12S15223   4.139   2.843   4.066  0.1594  0.5629  0.7729
  140OSM   H12S15224   4.089   2.797   3.978 -0.1087  1.2121  0.5819
  140OSM   H12T15225   4.115   2.951   4.062 -2.0650  0.1025  0.5289
  140OSM   C13S15226   4.080   2.791   4.195  0.0774 -0.0108 -0.1482
  140OSM   H13S15227   4.096   2.682   4.205 -2.1628 -0.4237 -0.5509
  140OSM   H13T15228   3.972   2.819   4.194  0.1801  0.4335  0.5348
  140OSM   C14S15229   4.144   2.862   4.318  0.6831 -0.1637 -0.3061
  140OSM   H14S15230   4.116   2.970   4.311 -0.2661 -0.3410  0.6135
  140OSM   H14T15231   4.252   2.841   4.328  0.2775 -2.4427 -0.2228
  140OSM   C15S15232   4.078   2.825   4.453 -0.1624  0.1010  0.2581
  140OSM   H15S15233   4.078   2.714   4.456  0.8285  0.0926  3.0577
  140OSM   H15T15234   3.973   2.860   4.456 -0.2526  0.0626 -1.5372
  140OSM   C16S15235   4.169   2.880   4.567  0.2009 -0.3882 -0.2426
  140OSM   H16S15236   4.150   2.989   4.561 -1.5409 -0.5984  0.7316
  140OSM   H16T15237   4.276   2.864   4.540 -0.0303 -0.1432 -1.3958
  140OSM   C17S15238   4.130   2.855   4.708 -0.2692  0.0378 -0.1423
  140OSM   H17S15239   4.142   2.745   4.718  0.9667  0.1313 -0.4712
  140OSM   H17T15240   4.025   2.884   4.730  0.2332  1.5785  0.3244
  140OSM   C18S15241   4.213   2.930   4.815 -0.0736 -0.6968 -0.6913
  140OSM   H18S15242   4.204   3.040   4.801  0.3496 -0.5120  0.3781
  140OSM   H18T15243   4.321   2.903   4.807 -0.3465 -1.9090 -0.5251
  140OSM   H18U15244   4.175   2.902   4.916  0.1526 -0.8152 -0.6382
  140OSM    C1F15245   4.072   2.440   3.196  0.1857  1.1939 -0.4411
  140OSM     OF15246   4.146   2.351   3.153 -0.7088  0.7510 -0.1246
  140OSM    C2F15247   3.949   2.406   3.282  0.3844 -0.3601  0.1720
  140OSM    H2F15248   3.854   2.389   3.226  0.0065 -0.6287  0.8901
  140OSM    H2G15249   3.943   2.495   3.349  1.0829  0.3988 -0.7356
  140OSM    C3F15250   3.959   2.282   3.371 -0.2498  0.0733 -0.1220
  140OSM    H3F15251   4.058   2.297   3.421 -0.9430 -1.1965  1.7618
  140OSM    H3G15252   3.958   2.189   3.310  0.8088 -0.2590  0.3223
  140OSM    C4F15253   3.842   2.270   3.469  0.1246 -0.2514 -0.7219
  140OSM    H4F15254   3.755   2.312   3.415 -0.6359  0.6337  1.1011
  140OSM    H4G15255   3.854   2.342   3.553 -1.4312 -0.0971 -0.6016
  140OSM    C5F15256   3.808   2.128   3.518  0.2396 -0.0523 -0.2197
  140OSM    H5F15257   3.775   2.061   3.436 -0.5087  0.5672 -0.4322
  140OSM    H5G15258   3.714   2.137   3.576  1.6454 -2.1950  2.7011
  140OSM    C6F15259   3.928   2.070   3.587 -0.0638  0.2735  0.7517
  140OSM    H6F15260   4.014   2.073   3.517 -1.8469  3.0476 -1.5087
  140OSM    H6G15261   3.909   1.961   3.601  2.1379 -0.4018 -0.8676
  140OSM    C7F15262   3.958   2.150   3.715 -0.3196  0.2476  0.0924
  140OSM    H7F15263   3.864   2.153   3.774  0.5432  0.8881  1.5063
  140OSM    H7G15264   4.005   2.250   3.697  1.0706 -0.1620  1.2531
  140OSM    C8F15265   4.067   2.087   3.807  0.5347  0.3925  0.7092
  140OSM    H8F15266   4.111   2.157   3.882 -0.2947  0.0932  1.4946
  140OSM    H8G15267   4.158   2.081   3.744  1.1537  4.9766  0.7903
  140OSM    C9F15268   4.030   1.953   3.867 -0.6589  1.1065  0.1969
  140OSM    H9F15269   4.086   1.865   3.834  0.2291  1.4467  0.7706
  140OSM   C10F15270   3.934   1.933   3.965 -0.5830  0.5795 -0.1118
  140OSM   H10F15271   3.930   1.832   4.010  0.5598 -0.5007 -2.2865
  140OSM   C11F15272   3.847   2.033   4.044  0.2515 -0.1408 -0.1110
  140OSM   H11F15273   3.767   1.985   4.104  1.3143 -1.6965  0.1289
  140OSM   H11G15274   3.795   2.099   3.971 -0.3980  0.0062  0.4686
  140OSM   C12F15275   3.920   2.121   4.143 -0.5185 -0.7218  0.6809
  140OSM   H12F15276   3.973   2.198   4.083 -2.1541 -0.2110 -0.1558
  140OSM   H12G15277   3.993   2.066   4.207 -0.4153  2.0240  3.1492
  140OSM   C13F15278   3.836   2.203   4.237  0.8038 -0.3800  0.1778
  140OSM   H13F15279   3.780   2.136   4.306 -0.5735 -0.2722 -0.8017
  140OSM   H13G15280   3.752   2.246   4.178  1.8035 -0.9292 -1.7315
  140OSM   C14F15281   3.914   2.309   4.326  0.4542  0.1178  0.1791
  140OSM   H14F15282   3.831   2.381   4.340 -0.5074 -0.9824  0.3092
  140OSM   H14G15283   4.000   2.362   4.279  0.2374  3.0868  2.8481
  140OSM   C15F15284   3.945   2.244   4.457 -0.4692 -0.4966 -0.6316
  140OSM   H15F15285   4.020   2.166   4.434  1.1824  0.4083  1.4195
  140OSM   H15G15286   3.855   2.196   4.500 -0.7938 -0.3524 -1.1340
  140OSM   C16F15287   3.993   2.341   4.559 -1.1105 -0.3068 -0.1377
  140OSM   H16F15288   3.903   2.404   4.575 -0.2568  0.6209  1.2648
  140OSM   H16G15289   4.081   2.404   4.535  0.3372 -1.6421  1.3520
  140OSM   C17F15290   4.028   2.267   4.686  0.2574 -0.2778  0.2218
  140OSM   H17F15291   4.114   2.203   4.655  0.8922  0.9681 -0.7054
  140OSM   H17G15292   3.955   2.194   4.724  2.3434 -2.6493 -0.0534
  140OSM   C18F15293   4.073   2.375   4.790 -0.5996  0.0235 -0.6041
  140OSM   H18F15294   4.074   2.325   4.889  0.3376 -1.2486 -1.2197
  140OSM   H18G15295   4.018   2.471   4.783 -0.9609 -0.0049  1.4593
  140OSM   H18H15296   4.173   2.416   4.764 -0.2477 -0.2809  0.2252
  141OSM      N15297   0.981   0.043   2.847  0.2267  0.1577  0.1703
  141OSM    C1515298   0.855   0.115   2.894 -0.5313 -0.3310  1.0408
  141OSM   H15A15299   0.886   0.208   2.940  0.8717  0.6536 -1.6517
  141OSM   H15B15300   0.818   0.050   2.972 -1.1833 -2.1323 -0.6918
  141OSM   H15C15301   0.784   0.126   2.814  0.7092 -1.7499 -0.3092
  141OSM    C1415302   0.938  -0.079   2.773 -0.9364 -0.4868 -0.5283
  141OSM   H14A15303   0.880  -0.146   2.834  1.2425 -1.3469  0.7322
  141OSM   H14B15304   1.025  -0.129   2.733 -0.5524 -1.0749  0.9624
  141OSM   H14C15305   0.876  -0.049   2.689 -2.7446  2.2450  1.5938
  141OSM    C1315306   1.046   0.129   2.743 -0.0411  0.4868  0.0957
  141OSM   H13A15307   0.986   0.124   2.654 -1.2327 -0.9639  0.9466
  141OSM   H13B15308   1.147   0.096   2.724  0.0524  1.0006 -0.3251
  141OSM   H13C15309   1.057   0.233   2.769  1.5476  0.4041 -0.1496
  141OSM    C1215310   1.081   0.029   2.961  0.7306  0.2015  0.1728
  141OSM   H12A15311   1.039  -0.021   3.047  1.2934 -0.7784 -0.1071
  141OSM   H12B15312   1.106   0.127   2.999 -2.2436  0.5967  1.4016
  141OSM    C1115313   1.219  -0.040   2.930  0.2385  0.4660 -0.0819
  141OSM   H11A15314   1.201  -0.139   2.883  2.5507 -0.4809  0.8963
  141OSM   H11B15315   1.269  -0.052   3.028  1.7379  0.5407 -0.8166
  141OSM      P15316   1.365   0.172   2.882  0.5756 -0.0839 -0.2061
  141OSM    O1315317   1.505   0.158   2.921  0.2600  0.0983  0.3676
  141OSM    O1415318   1.336   0.262   2.764 -0.4393  0.3784  0.3135
  141OSM    O1115319   1.271   0.236   2.993 -0.1440 -0.7196 -0.1116
  141OSM    O1215320   1.300   0.040   2.851 -0.2493  0.5728 -0.0327
  141OSM    C1S15321   1.309   0.241   3.132 -0.7428  0.4435  0.8050
  141OSM    H1S15322   1.415   0.210   3.143 -1.0710 -1.1807 -0.3225
  141OSM    H1T15323   1.257   0.159   3.186 -0.1976  1.0497  2.3176
  141OSM     NF15324   1.341   0.355   3.342  0.4504  0.2503  0.0244
  141OSM    HNF15325   1.271   0.344   3.412 -0.6840  1.5484 -0.8484
  141OSM    C2S15326   1.289   0.374   3.207 -0.4392  0.6651 -0.2905
  141OSM    H2S15327   1.353   0.447   3.154 -0.3589 -0.6784 -2.1330
  141OSM    C3S15328   1.143   0.415   3.201 -0.3549 -0.1593 -0.0176
  141OSM    H3S15329   1.080   0.342   3.256  0.6821  0.3755  1.9970
  141OSM     O315330   1.090   0.422   3.072 -0.0442 -0.1543 -0.0620
  141OSM    HO315331   1.154   0.365   3.030  2.0268  1.9715 -0.0203
  141OSM    C4S15332   1.116   0.544   3.282  0.0155 -0.4011  0.1448
  141OSM    H4S15333   1.172   0.629   3.239  0.9692 -0.4905  1.1640
  141OSM    C5S15334   1.009   0.567   3.363  0.4345 -0.1615  0.0385
  141OSM    H5S15335   0.934   0.489   3.381  0.3910 -0.0833  0.2054
  141OSM    C6S15336   0.950   0.695   3.415  0.0747 -0.2695 -0.3801
  141OSM    H6S15337   0.888   0.756   3.345 -1.1727  0.1355  1.0208
  141OSM    H6T15338   1.036   0.763   3.433 -1.1795  0.7544  2.3357
  141OSM    C7S15339   0.862   0.671   3.554 -0.7550  0.5958  0.4300
  141OSM    H7S15340   0.774   0.610   3.525 -0.0976  0.4811 -1.5030
  141OSM    H7T15341   0.832   0.771   3.590  1.4566  0.9188  1.5621
  141OSM    C8S15342   0.931   0.594   3.657 -0.5960 -0.6024 -0.0189
  141OSM    H8S15343   1.038   0.623   3.657 -0.5572 -0.7235  1.0456
  141OSM    H8T15344   0.936   0.491   3.615  1.9213  0.0671 -1.6194
  141OSM    C9S15345   0.879   0.628   3.795  0.3895  0.9259  0.0369
  141OSM    H9S15346   0.791   0.563   3.806  2.3444 -1.9558 -0.2527
  141OSM    H9T15347   0.854   0.734   3.818 -0.0851  0.8360 -0.0722
  141OSM   C10S15348   0.984   0.591   3.904  0.2502  0.3491  0.3829
  141OSM   H10S15349   1.075   0.651   3.886  1.2152 -0.8329  1.1346
  141OSM   H10T15350   1.026   0.488   3.895  1.1198  0.7731 -0.6889
  141OSM   C11S15351   0.939   0.618   4.047  0.0115  1.0000 -0.7386
  141OSM   H11S15352   0.829   0.610   4.059  0.1213 -1.2451 -0.8389
  141OSM   H11T15353   0.953   0.726   4.070 -0.7999  1.0795 -0.5654
  141OSM   C12S15354   1.008   0.527   4.154 -0.0304  0.0201  0.8803
  141OSM   H12S15355   1.116   0.553   4.158 -0.2477  0.8502  2.9715
  141OSM   H12T15356   0.989   0.422   4.123  0.7720  0.3876 -0.9499
  141OSM   C13S15357   0.947   0.557   4.291  0.1443  0.0211 -1.1715
  141OSM   H13S15358   0.836   0.564   4.280 -0.1629 -2.8334 -0.5601
  141OSM   H13T15359   0.991   0.652   4.326  2.4621 -1.2981 -0.3441
  141OSM   C14S15360   0.969   0.458   4.406  0.3003  0.3536 -0.0930
  141OSM   H14S15361   1.071   0.478   4.446 -0.9329  1.5770  2.7003
  141OSM   H14T15362   0.965   0.350   4.381 -1.4396  0.7044 -1.4896
  141OSM   C15S15363   0.856   0.468   4.511 -0.2860  0.0766 -0.2253
  141OSM   H15S15364   0.771   0.405   4.475  0.3434 -1.4295  0.8233
  141OSM   H15T15365   0.824   0.573   4.526 -0.2246  0.4717 -2.4283
  141OSM   C16S15366   0.894   0.408   4.649  0.5450 -0.3146 -0.0185
  141OSM   H16S15367   0.926   0.302   4.642 -1.8583 -1.0426 -1.0804
  141OSM   H16T15368   0.798   0.405   4.705  0.3781  0.3649 -0.2612
  141OSM   C17S15369   0.993   0.489   4.733 -0.0045 -0.0744  0.7922
  141OSM   H17S15370   0.956   0.593   4.742  1.5934  0.4119  2.3700
  141OSM   H17T15371   1.090   0.491   4.680 -0.5972  0.9266 -0.2783
  141OSM   C18S15372   1.015   0.428   4.873 -0.3477 -0.7137 -0.3115
  141OSM   H18S15373   1.075   0.498   4.935 -1.0740 -0.7941  0.4985
  141OSM   H18T15374   1.067   0.331   4.887  0.9024  0.0075  0.1979
  141OSM   H18U15375   0.911   0.418   4.912 -1.0144 -0.6820 -1.9627
  141OSM    C1F15376   1.471   0.337   3.373  0.2469  0.3456  0.4172
  141OSM     OF15377   1.554   0.344   3.290 -0.6927 -0.7094  0.2267
  141OSM    C2F15378   1.509   0.308   3.510 -0.0102  0.1864 -0.7501
  141OSM    H2F15379   1.525   0.199   3.526 -0.3693  0.1479 -0.6578
  141OSM    H2G15380   1.435   0.343   3.585 -2.2421 -0.7064 -2.4531
  141OSM    C3F15381   1.643   0.382   3.548 -0.0039 -0.1911  0.0900
  141OSM    H3F15382   1.653   0.485   3.509 -0.7372 -0.2796 -0.3703
  141OSM    H3G15383   1.732   0.341   3.496 -1.2950 -1.4744 -1.2115
  141OSM    C4F15384   1.656   0.390   3.697 -0.2350  0.2055  0.0355
  141OSM    H4F15385   1.581   0.447   3.755 -2.0880 -0.1224 -1.9289
  141OSM    H4G15386   1.755   0.437   3.716  0.0599 -0.3030 -0.2268
  141OSM    C5F15387   1.649   0.251   3.766  0.2508  0.2638  0.5925
  141OSM    H5F15388   1.728   0.197   3.710 -2.2606 -0.4757 -2.5115
  141OSM    H5G15389   1.564   0.185   3.738  0.9229  0.6549 -2.8666
  141OSM    C6F15390   1.689   0.265   3.912 -0.1030  0.5298  0.5035
  141OSM    H6F15391   1.603   0.297   3.973 -1.8555 -1.3647 -0.8045
  141OSM    H6G15392   1.778   0.328   3.930  0.7893 -1.0550  1.9298
  141OSM    C7F15393   1.723   0.122   3.969 -0.1354 -0.2008  0.6547
  141OSM    H7F15394   1.829   0.094   3.950  0.2861  0.9147  1.2806
  141OSM    H7G15395   1.672   0.038   3.917  1.9558 -1.7936  1.0112
  141OSM    C8F15396   1.700   0.113   4.122 -0.8629 -0.1101  0.1214
  141OSM    H8F15397   1.593   0.133   4.144 -1.1098 -1.5557  0.3022
  141OSM    H8G15398   1.754   0.191   4.181 -0.4171  0.4925 -1.0656
  141OSM    C9F15399   1.718  -0.023   4.186 -0.1209 -0.4321  0.2971
  141OSM    H9F15400   1.684  -0.105   4.121 -0.9267  0.5332 -0.5309
  141OSM   C10F15401   1.771  -0.044   4.305  0.1678 -0.0930 -0.9192
  141OSM   H10F15402   1.770  -0.148   4.340 -1.5850 -0.9411 -3.1925
  141OSM   C11F15403   1.828   0.056   4.408  0.6576  0.2987  0.6060
  141OSM   H11F15404   1.755   0.140   4.415 -0.4910 -0.4725 -1.5137
  141OSM   H11G15405   1.929   0.091   4.379  0.2381  0.5640 -0.5872
  141OSM   C12F15406   1.843  -0.009   4.548  0.3489  0.1524 -0.6390
  141OSM   H12F15407   1.933  -0.074   4.559  0.1270 -0.0748 -0.1105
  141OSM   H12G15408   1.750  -0.065   4.571  0.0798  0.3416 -1.2457
  141OSM   C13F15409   1.870   0.097   4.657 -0.4572 -0.1095 -0.0080
  141OSM   H13F15410   1.815   0.184   4.615  0.3623 -0.3081 -1.5622
  141OSM   H13G15411   1.976   0.131   4.655 -0.3795 -0.3801 -0.5655
  141OSM   C14F15412   1.816   0.057   4.803 -0.3494 -0.0406  0.1866
  141OSM   H14F15413   1.883  -0.027   4.833  1.0498  0.9390 -0.0868
  141OSM   H14G15414   1.711   0.022   4.807 -0.7500  1.1762  2.6321
  141OSM   C15F15415   1.859   0.167   4.908 -0.1790  0.6324  0.4007
  141OSM   H15F15416   1.802   0.258   4.882 -0.3760  0.1847 -0.7925
  141OSM   H15G15417   1.968   0.185   4.892  0.1035 -1.8463 -0.9655
  141OSM   C16F15418   1.845   0.126   5.063  0.0994 -0.1018  0.3872
  141OSM   H16F15419   1.916   0.042   5.080  0.8165  0.5652  0.7572
  141OSM   H16G15420   1.748   0.083   5.096 -1.1494 -0.0250 -2.8442
  141OSM   C17F15421   1.897   0.226   5.158  0.0588  0.2670 -0.1026
  141OSM   H17F15422   1.832   0.316   5.148  0.5470  0.5395 -0.9398
  141OSM   H17G15423   2.001   0.251   5.130  0.3669 -0.1407  0.6366
  141OSM   C18F15424   1.886   0.162   5.301 -0.4684  0.1687 -1.2644
  141OSM   H18F15425   1.928   0.059   5.297 -0.4666  0.1861 -1.8898
  141OSM   H18G15426   1.778   0.158   5.327  0.5023  0.2253  3.5660
  141OSM   H18H15427   1.936   0.226   5.375  1.0924 -1.5660 -0.7504
  142OSM      N15428   0.305   0.515   2.624 -0.0201  0.5441  0.1255
  142OSM    C1515429   0.457   0.523   2.626 -0.1032  0.6389 -0.4609
  142OSM   H15A15430   0.491   0.624   2.640 -0.3885  0.4802  1.8058
  142OSM   H15B15431   0.496   0.489   2.532 -2.2722 -0.0405 -1.1754
  142OSM   H15C15432   0.495   0.466   2.710 -3.5431  0.0080  0.8624
  142OSM    C1415433   0.260   0.554   2.483  0.4918 -0.6811 -0.2668
  142OSM   H14A15434   0.307   0.646   2.449 -1.2721 -0.5660 -2.6126
  142OSM   H14B15435   0.152   0.558   2.477  0.4301  3.6756 -0.1124
  142OSM   H14C15436   0.293   0.482   2.411 -0.8441  0.5439 -2.1786
  142OSM    C1315437   0.263   0.377   2.652  1.0749 -0.3147 -0.6584
  142OSM   H13A15438   0.155   0.373   2.657  1.0919  0.2744  1.3274
  142OSM   H13B15439   0.295   0.355   2.753  0.3394  4.5542  0.8783
  142OSM   H13C15440   0.311   0.305   2.588  2.0049 -0.4475  0.1627
  142OSM    C1215441   0.249   0.612   2.723  0.4934  0.1738 -0.5067
  142OSM   H12A15442   0.144   0.629   2.700  1.0466  0.8187 -2.8023
  142OSM   H12B15443   0.291   0.710   2.703  1.5167 -0.0664  0.3579
  142OSM    C1115444   0.254   0.583   2.884  0.2273  0.1270  0.4913
  142OSM   H11A15445   0.180   0.500   2.892 -1.0719  1.3288  1.7729
  142OSM   H11B15446   0.208   0.669   2.937  0.2514 -0.8854  2.2249
  142OSM      P15447   0.499   0.660   2.943 -0.0091  0.4060 -0.1569
  142OSM    O1315448   0.633   0.597   2.977 -0.0437 -0.4634 -0.0202
  142OSM    O1415449   0.505   0.747   2.822  0.1626 -0.7013 -0.6468
  142OSM    O1115450   0.450   0.744   3.067  0.3505  0.1342  0.7789
  142OSM    O1215451   0.389   0.544   2.927  0.0106 -0.2437  0.3279
  142OSM    C1S15452   0.379   0.675   3.175  0.1523 -0.0972  0.5380
  142OSM    H1S15453   0.389   0.564   3.171 -0.4484 -0.1416  0.1946
  142OSM    H1T15454   0.272   0.701   3.168  0.1838 -0.1131 -0.1411
  142OSM     NF15455   0.399   0.626   3.420  0.0021  0.3161 -0.2610
  142OSM    HNF15456   0.315   0.648   3.469 -0.1137  2.3508 -1.2762
  142OSM    C2S15457   0.444   0.718   3.315  0.3447 -0.0559  0.7305
  142OSM    H2S15458   0.554   0.709   3.302 -0.0005 -1.2003 -2.1298
  142OSM    C3S15459   0.414   0.868   3.344 -0.0317 -0.2068 -0.2918
  142OSM    H3S15460   0.307   0.872   3.373  0.5533  0.0548  2.0115
  142OSM     O315461   0.416   0.951   3.224 -0.0747  0.2665  0.6736
  142OSM    HO315462   0.418   0.885   3.154 -0.9512  0.0215  0.8682
  142OSM    C4S15463   0.497   0.920   3.459  0.2910 -0.4969 -0.1613
  142OSM    H4S15464   0.604   0.916   3.432 -0.3738 -0.0709 -3.2424
  142OSM    C5S15465   0.446   0.990   3.569 -0.2939 -0.2622 -0.2278
  142OSM    H5S15466   0.339   1.007   3.586 -0.4364 -1.7664  0.5302
  142OSM    C6S15467   0.530   1.066   3.669 -0.3802  0.8386 -0.2881
  142OSM    H6S15468   0.460   1.128   3.729  0.3117  2.2982 -0.9280
  142OSM    H6T15469   0.616   1.124   3.628  0.7633  0.2257  1.1479
  142OSM    C7S15470   0.585   0.962   3.770  1.0034 -0.5241 -0.0350
  142OSM    H7S15471   0.671   0.909   3.724  1.4154  0.8471 -0.8827
  142OSM    H7T15472   0.505   0.891   3.802 -0.5434  0.7416 -0.9062
  142OSM    C8S15473   0.639   1.054   3.886  0.0543 -0.0070 -0.4548
  142OSM    H8S15474   0.552   1.114   3.921 -0.0325  1.4989 -3.0436
  142OSM    H8T15475   0.716   1.128   3.856  0.6953 -0.1804  0.7010
  142OSM    C9S15476   0.692   0.958   4.006  0.0970  0.4320 -0.2749
  142OSM    H9S15477   0.780   0.903   3.965 -2.1262 -2.3222 -1.7778
  142OSM    H9T15478   0.605   0.893   4.029 -1.0929  1.6069 -1.2590
  142OSM   C10S15479   0.732   1.031   4.135  0.2493 -0.8710 -0.2571
  142OSM   H10S15480   0.651   1.092   4.179  0.5314 -1.4446  1.1067
  142OSM   H10T15481   0.819   1.096   4.112 -0.9359  0.0467 -2.5092
  142OSM   C11S15482   0.788   0.945   4.244 -0.1413 -0.3858 -1.3366
  142OSM   H11S15483   0.890   0.910   4.217 -0.5028 -0.8672 -2.1170
  142OSM   H11T15484   0.724   0.858   4.268  0.7193 -0.5251  0.5703
  142OSM   C12S15485   0.809   1.006   4.383  0.5683 -0.0868  0.8893
  142OSM   H12S15486   0.710   1.033   4.425  0.3647 -0.8098  0.8772
  142OSM   H12T15487   0.867   1.101   4.382 -0.9717  0.9219 -1.1570
  142OSM   C13S15488   0.886   0.902   4.462 -0.2485  0.1270 -0.3653
  142OSM   H13S15489   0.994   0.900   4.438 -0.2427 -2.3227 -0.3956
  142OSM   H13T15490   0.848   0.800   4.442 -0.2735  0.7121 -4.0274
  142OSM   C14S15491   0.879   0.926   4.615  0.1190 -0.0027  0.6204
  142OSM   H14S15492   0.901   1.033   4.634  2.3084 -0.1295 -0.8373
  142OSM   H14T15493   0.962   0.870   4.664 -0.9517  0.2626  2.8739
  142OSM   C15S15494   0.751   0.885   4.685 -0.1898  0.3896 -0.1054
  142OSM   H15S15495   0.702   0.796   4.640  1.3604 -1.3614  1.4595
  142OSM   H15T15496   0.686   0.972   4.665 -0.6079 -0.4748 -2.9192
  142OSM   C16S15497   0.754   0.856   4.837  0.3554  0.0024 -0.2612
  142OSM   H16S15498   0.826   0.933   4.874 -2.7376  2.1480  1.7388
  142OSM   H16T15499   0.789   0.751   4.848  1.2456  0.2829 -0.2792
  142OSM   C17S15500   0.619   0.866   4.904  0.7038 -0.1262 -0.7186
  142OSM   H17S15501   0.549   0.792   4.861  0.2562  0.2436 -0.6339
  142OSM   H17T15502   0.558   0.959   4.900 -2.7196 -2.2003 -0.5004
  142OSM   C18S15503   0.625   0.846   5.060 -0.3741  0.5471 -0.1053
  142OSM   H18S15504   0.650   0.739   5.078  0.9859  0.7369 -0.7321
  142OSM   H18T15505   0.523   0.862   5.101 -0.1495  2.3393 -0.1661
  142OSM   H18U15506   0.703   0.901   5.115 -0.7888 -0.8738  2.0311
  142OSM    C1F15507   0.434   0.502   3.431  0.2709  0.0047  0.5804
  142OSM     OF15508   0.492   0.446   3.341 -0.4705  0.4192  0.4949
  142OSM    C2F15509   0.378   0.428   3.548  0.5846 -0.2498 -0.9727
  142OSM    H2F15510   0.269   0.411   3.536  0.4696 -0.5243  0.3925
  142OSM    H2G15511   0.415   0.477   3.641  1.0448 -3.2205  0.5352
  142OSM    C3F15512   0.422   0.277   3.556 -0.0449  0.6501 -0.7208
  142OSM    H3F15513   0.379   0.215   3.474  2.9174 -2.3550 -0.2310
  142OSM    H3G15514   0.369   0.241   3.647 -0.1816 -1.9287 -1.7137
  142OSM    C4F15515   0.575   0.245   3.551  0.2150 -0.0023 -0.4478
  142OSM    H4F15516   0.615   0.295   3.460  1.5024 -1.3100 -0.6369
  142OSM    H4G15517   0.584   0.137   3.526  1.2904  0.0331 -0.2500
  142OSM    C5F15518   0.644   0.306   3.673 -0.0875 -0.1283  0.2110
  142OSM    H5F15519   0.615   0.409   3.700  0.2175 -0.1923  0.7960
  142OSM    H5G15520   0.752   0.307   3.646 -0.0329 -2.2818  0.1145
  142OSM    C6F15521   0.635   0.214   3.794  0.5488 -0.2102 -0.6199
  142OSM    H6F15522   0.645   0.108   3.761  0.1296 -0.3279 -0.3651
  142OSM    H6G15523   0.541   0.230   3.850  0.3691  0.3015 -1.0614
  142OSM    C7F15524   0.746   0.246   3.892  0.5704  0.5782  0.5038
  142OSM    H7F15525   0.744   0.349   3.933 -0.7194 -0.2520  2.7523
  142OSM    H7G15526   0.843   0.228   3.842  0.1005 -2.1585  0.3661
  142OSM    C8F15527   0.763   0.146   4.011 -0.4601  0.1232 -0.2027
  142OSM    H8F15528   0.861   0.167   4.059 -0.9365 -0.7330  1.2179
  142OSM    H8G15529   0.768   0.042   3.971  1.9941  0.2737 -0.4008
  142OSM    C9F15530   0.653   0.143   4.115  0.6911 -0.4790 -0.6371
  142OSM    H9F15531   0.551   0.168   4.083 -0.3072 -1.4341  1.6353
  142OSM   C10F15532   0.672   0.102   4.240 -0.4777 -0.1168  0.1297
  142OSM   H10F15533   0.590   0.105   4.314  1.4087  1.3506  2.3128
  142OSM   C11F15534   0.808   0.063   4.293 -0.2223  0.1976  0.0503
  142OSM   H11F15535   0.852   0.153   4.342 -0.1412  0.8445 -1.1893
  142OSM   H11G15536   0.876   0.007   4.225 -0.9752 -1.5562  0.6756
  142OSM   C12F15537   0.790  -0.030   4.428  0.3380 -0.1875  0.5904
  142OSM   H12F15538   0.873  -0.103   4.437  2.0045  1.3797 -1.1398
  142OSM   H12G15539   0.696  -0.087   4.413 -0.0986  0.5909  0.3087
  142OSM   C13F15540   0.793   0.040   4.565  0.2844 -0.8261  0.5995
  142OSM   H13F15541   0.714   0.118   4.567  0.6455 -0.4767  1.4726
  142OSM   H13G15542   0.890   0.094   4.568  0.7676 -1.5443 -0.9716
  142OSM   C14F15543   0.777  -0.048   4.691 -1.1161 -0.1567  0.3308
  142OSM   H14F15544   0.856  -0.125   4.685 -0.2217  0.7638  0.0367
  142OSM   H14G15545   0.681  -0.103   4.684 -1.7027  1.0060 -2.0193
  142OSM   C15F15546   0.786   0.024   4.821  0.4891  0.0647 -0.1974
  142OSM   H15F15547   0.693   0.084   4.829  0.0103 -0.6009 -0.5639
  142OSM   H15G15548   0.869   0.097   4.811 -0.9897  2.1947  2.0643
  142OSM   C16F15549   0.793  -0.055   4.951 -0.5275  0.6239  0.6680
  142OSM   H16F15550   0.713  -0.133   4.955 -0.6152  0.6217 -0.7280
  142OSM   H16G15551   0.788   0.016   5.036 -0.8250  0.1503  1.0558
  142OSM   C17F15552   0.927  -0.122   4.961 -0.0033  0.4141 -0.4590
  142OSM   H17F15553   1.011  -0.049   4.961  1.5484 -1.2777  0.9596
  142OSM   H17G15554   0.944  -0.194   4.878  3.3777 -1.6783  1.7944
  142OSM   C18F15555   0.931  -0.199   5.098  0.1619 -0.3363  0.0628
  142OSM   H18F15556   1.028  -0.245   5.127 -0.4960 -2.8672 -1.3644
  142OSM   H18G15557   0.853  -0.278   5.092 -1.2038  0.8216  1.6378
  142OSM   H18H15558   0.911  -0.121   5.174 -0.5623 -0.0934 -0.3666
  143OSM      N15559   0.423   5.291   2.655 -0.2500  0.4975 -0.1389
  143OSM    C1515560   0.374   5.281   2.796  0.1927  0.0823 -0.6064
  143OSM   H15A15561   0.267   5.285   2.807  0.3015  0.2120  0.4636
  143OSM   H15B15562   0.406   5.358   2.865  0.1731 -0.7399  0.3458
  143OSM   H15C15563   0.387   5.181   2.833 -0.1329 -0.5128 -2.0356
  143OSM    C1415564   0.349   5.188   2.576 -0.1288 -0.0915  0.4735
  143OSM   H14A15565   0.382   5.183   2.473  2.4558 -1.5810  1.3016
  143OSM   H14B15566   0.244   5.213   2.578  0.2602  2.0249 -1.2181
  143OSM   H14C15567   0.364   5.090   2.618 -3.5281 -0.5299  0.9088
  143OSM    C1315568   0.380   5.421   2.607 -0.3375  1.0374 -0.3700
  143OSM   H13A15569   0.387   5.417   2.499 -0.9355  0.7193 -0.3993
  143OSM   H13B15570   0.446   5.495   2.651  2.0420 -1.4384  0.4779
  143OSM   H13C15571   0.275   5.440   2.621 -0.0156  2.6029  0.1449
  143OSM    C1215572   0.572   5.267   2.660 -0.3336 -0.3878  0.4382
  143OSM   H12A15573   0.608   5.309   2.567 -0.5400  1.5520  1.1920
  143OSM   H12B15574   0.585   5.160   2.658  1.1769 -0.2457  1.3412
  143OSM    C1115575   0.660   5.332   2.764 -0.0856  0.2868 -0.5206
  143OSM   H11A15576   0.758   5.281   2.767  1.8390  3.7127  2.0930
  143OSM   H11B15577   0.614   5.316   2.863  0.0287  1.7324 -0.2065
  143OSM      P15578   0.787   5.531   2.639  0.0835 -0.2457 -0.3190
  143OSM    O1315579   0.826   5.437   2.529  0.2227 -0.1128 -0.2405
  143OSM    O1415580   0.742   5.670   2.605  0.1571 -0.1458  0.2703
  143OSM    O1115581   0.903   5.548   2.741  0.6046  0.3932 -0.0435
  143OSM    O1215582   0.678   5.466   2.738 -0.0121  0.7594 -0.0854
  143OSM    C1S15583   0.875   5.597   2.875 -0.5820 -0.2868  0.1506
  143OSM    H1S15584   0.849   5.511   2.940  0.5061 -1.0541 -0.4021
  143OSM    H1T15585   0.791   5.669   2.866 -0.0506  0.0271 -3.7726
  143OSM     NF15586   0.962   5.704   3.072 -0.0001  0.6860  0.7293
  143OSM    HNF15587   0.913   5.790   3.087 -1.7604  0.3779 -2.3852
  143OSM    C2S15588   0.991   5.678   2.930 -0.0640 -0.3260 -0.6211
  143OSM    H2S15589   1.082   5.615   2.936  1.1074  1.3002 -0.6567
  143OSM    C3S15590   1.021   5.803   2.845 -0.6662  1.0174  0.0996
  143OSM    H3S15591   0.940   5.874   2.820 -1.2073  0.3551 -0.0514
  143OSM     O315592   1.076   5.767   2.724 -0.2323  0.1969  0.3654
  143OSM    HO315593   1.044   5.681   2.699 -1.3585  1.1006 -1.4906
  143OSM    C4S15594   1.122   5.882   2.922  0.1716  0.5881 -0.0012
  143OSM    H4S15595   1.209   5.829   2.963  0.3558  0.4314 -0.5892
  143OSM    C5S15596   1.112   6.012   2.948  0.3194  0.2336 -0.6993
  143OSM    H5S15597   1.025   6.068   2.910 -0.7738  0.0035  1.3211
  143OSM    C6S15598   1.192   6.095   3.038 -0.4043  0.4135  0.1754
  143OSM    H6S15599   1.120   6.162   3.089  1.0308  1.6540  0.6738
  143OSM    H6T15600   1.258   6.162   2.978  0.2419 -0.7937 -0.5048
  143OSM    C7S15601   1.289   6.029   3.140 -0.5283  0.1528  0.0604
  143OSM    H7S15602   1.354   6.107   3.185  0.5751 -1.9762  2.4426
  143OSM    H7T15603   1.368   5.971   3.088 -0.0645 -0.5765  1.5106
  143OSM    C8S15604   1.230   5.948   3.256 -1.1017  0.2193 -0.0030
  143OSM    H8S15605   1.218   5.843   3.220 -2.7090  0.2109  0.4643
  143OSM    H8T15606   1.134   5.982   3.299 -0.8550  0.1762  0.5833
  143OSM    C9S15607   1.339   5.926   3.368  0.1001  0.7449 -0.2812
  143OSM    H9S15608   1.370   6.023   3.412 -0.3928 -0.1449  2.2294
  143OSM    H9T15609   1.429   5.884   3.320 -1.3283  1.2427 -3.7070
  143OSM   C10S15610   1.291   5.843   3.489  0.4358 -0.3992  0.3526
  143OSM   H10S15611   1.248   5.745   3.458  1.3804 -0.2033 -1.7147
  143OSM   H10T15612   1.211   5.905   3.533 -1.1537 -1.3815 -1.0285
  143OSM   C11S15613   1.398   5.832   3.598  0.5424  0.8019  0.4890
  143OSM   H11S15614   1.439   5.930   3.632  2.4678  0.4862 -0.7630
  143OSM   H11T15615   1.479   5.764   3.564  0.8581  1.1139  0.6094
  143OSM   C12S15616   1.348   5.763   3.726 -0.2503  0.1591  0.3445
  143OSM   H12S15617   1.287   5.673   3.704  0.4508  0.4151 -3.2364
  143OSM   H12T15618   1.285   5.828   3.790 -3.3515 -1.8754 -0.4100
  143OSM   C13S15619   1.457   5.723   3.824  0.6871 -0.4242  0.4906
  143OSM   H13S15620   1.516   5.817   3.830 -0.0238  0.0758 -0.0799
  143OSM   H13T15621   1.516   5.637   3.786  1.7763  0.9093 -0.9722
  143OSM   C14S15622   1.399   5.681   3.958  0.1239 -0.5485  0.5719
  143OSM   H14S15623   1.329   5.595   3.957  0.6134 -1.0564  3.2171
  143OSM   H14T15624   1.332   5.756   4.007  1.8375  1.1340  0.4509
  143OSM   C15S15625   1.519   5.648   4.057  0.0318  0.4071 -0.2312
  143OSM   H15S15626   1.586   5.735   4.070 -0.5005  0.5963  1.5553
  143OSM   H15T15627   1.579   5.562   4.020 -1.6837 -0.9112 -0.1472
  143OSM   C16S15628   1.460   5.614   4.196 -0.6048  0.1824  0.2836
  143OSM   H16S15629   1.407   5.517   4.189  0.8682 -0.6775  0.6348
  143OSM   H16T15630   1.396   5.699   4.229  0.1911  1.5352 -1.4674
  143OSM   C17S15631   1.572   5.589   4.300 -0.7713 -0.4453 -0.8755
  143OSM   H17S15632   1.650   5.666   4.283 -0.5485 -0.2755  0.7527
  143OSM   H17T15633   1.622   5.493   4.274 -0.4558 -0.1766 -1.2761
  143OSM   C18S15634   1.518   5.570   4.445 -0.1143  0.6503 -0.4396
  143OSM   H18S15635   1.466   5.473   4.461  0.4824  0.1489 -1.4323
  143OSM   H18T15636   1.447   5.647   4.483 -1.7570 -1.0179  0.0561
  143OSM   H18U15637   1.608   5.571   4.510  1.2615 -0.1619 -2.2233
  143OSM    C1F15638   0.989   5.620   3.166  0.6906  0.2563  0.6746
  143OSM     OF15639   1.037   5.510   3.144  0.1742  0.4805 -0.4404
  143OSM    C2F15640   0.951   5.662   3.305  0.3391  0.2299  0.5766
  143OSM    H2F15641   0.845   5.693   3.296  0.7235  0.9443 -4.4788
  143OSM    H2G15642   1.013   5.751   3.326  1.1749 -0.2681  0.2888
  143OSM    C3F15643   0.968   5.554   3.410 -0.1802 -0.0507 -0.0959
  143OSM    H3F15644   1.076   5.528   3.406  0.0477  0.9515 -0.9456
  143OSM    H3G15645   0.911   5.460   3.394  0.9884 -1.0628  1.3871
  143OSM    C4F15646   0.937   5.619   3.546  0.4427 -0.0731  0.5927
  143OSM    H4F15647   0.829   5.645   3.540  0.3567 -0.7849 -1.8153
  143OSM    H4G15648   0.990   5.716   3.534  0.6530 -0.3096 -0.4833
  143OSM    C5F15649   0.975   5.535   3.670 -0.1444  0.2938 -0.8582
  143OSM    H5F15650   1.081   5.507   3.654 -0.5664 -2.0098 -0.0379
  143OSM    H5G15651   0.915   5.441   3.672  1.6563 -0.8776  0.6119
  143OSM    C6F15652   0.947   5.607   3.799  0.8927 -0.4400 -1.2909
  143OSM    H6F15653   0.840   5.615   3.826  1.4887  1.6905  0.8034
  143OSM    H6G15654   0.984   5.712   3.788  1.4463 -0.5067 -0.2372
  143OSM    C7F15655   1.014   5.526   3.911 -0.2720 -0.4683  0.0742
  143OSM    H7F15656   1.123   5.524   3.891 -0.1380 -3.2212  0.6914
  143OSM    H7G15657   0.975   5.422   3.902  0.2973 -0.8864  1.9056
  143OSM    C8F15658   1.005   5.586   4.049  0.2184  0.8833  0.2397
  143OSM    H8F15659   0.899   5.621   4.059 -1.1235 -3.3078  4.0010
  143OSM    H8G15660   1.076   5.671   4.058  0.8673  0.3286  0.3460
  143OSM    C9F15661   1.016   5.487   4.159  0.5717 -0.3531  0.5209
  143OSM    H9F15662   0.989   5.386   4.125 -0.5610 -0.5942  1.9960
  143OSM   C10F15663   1.058   5.508   4.288 -0.9076  0.4172 -0.2009
  143OSM   H10F15664   1.053   5.425   4.361  1.6203  0.1118 -0.2931
  143OSM   C11F15665   1.106   5.647   4.338 -0.0548 -0.0063  0.6925
  143OSM   H11F15666   1.088   5.737   4.276  3.0981 -0.0242 -0.4249
  143OSM   H11G15667   1.216   5.657   4.349 -0.1517 -0.5249  2.4323
  143OSM   C12F15668   1.049   5.671   4.478  0.7561  1.1446 -0.0050
  143OSM   H12F15669   1.062   5.582   4.543 -0.0710 -0.3066 -1.7426
  143OSM   H12G15670   0.938   5.674   4.472  0.6111  0.3595  1.7340
  143OSM   C13F15671   1.074   5.806   4.536 -0.2565 -0.7113  0.4836
  143OSM   H13F15672   1.066   5.877   4.451 -0.3951  0.8236  1.7419
  143OSM   H13G15673   1.180   5.818   4.567  0.3603 -2.0029 -0.9521
  143OSM   C14F15674   0.976   5.861   4.646 -0.5299  0.6286 -0.2857
  143OSM   H14F15675   0.980   5.785   4.726 -0.7308  0.8728 -0.0407
  143OSM   H14G15676   0.874   5.870   4.603 -0.7470  2.5385  0.5248
  143OSM   C15F15677   1.025   5.989   4.707 -0.1804 -0.0776 -0.2681
  143OSM   H15F15678   1.014   6.068   4.629  2.8463  0.2871 -0.4448
  143OSM   H15G15679   1.132   5.978   4.732 -0.0762  0.3675 -0.4980
  143OSM   C16F15680   0.960   6.028   4.842  0.3973  0.2494  0.0429
  143OSM   H16F15681   0.952   5.944   4.914 -1.3099  0.6332  0.3555
  143OSM   H16G15682   0.854   6.058   4.823 -0.1153 -0.4464  1.5985
  143OSM   C17F15683   1.028   6.150   4.915 -0.0186 -0.0576  0.1668
  143OSM   H17F15684   1.023   6.238   4.848  0.0912  0.4329  0.7999
  143OSM   H17G15685   1.133   6.129   4.944 -0.0878 -0.5093  0.1054
  143OSM   C18F15686   0.953   6.195   5.043  0.7510  0.1340  0.1522
  143OSM   H18F15687   0.967   6.305   5.043 -0.9454  0.4683 -2.8526
  143OSM   H18G15688   0.997   6.151   5.135  1.2949  1.6600  0.6497
  143OSM   H18H15689   0.844   6.171   5.049  1.0435 -0.8939  2.6417
  144OSM      N15690   1.500   4.832   2.505 -0.7628  0.1834  0.2265
  144OSM    C1515691   1.387   4.772   2.427 -0.5987 -0.2108 -0.5260
  144OSM   H15A15692   1.373   4.668   2.454 -2.6355  0.0648 -0.3947
  144OSM   H15B15693   1.412   4.780   2.322  2.8564  0.6246  0.2226
  144OSM   H15C15694   1.296   4.827   2.442 -0.8749 -0.7503 -0.1911
  144OSM    C1415695   1.630   4.752   2.512 -0.3284  0.0367  0.1837
  144OSM   H14A15696   1.622   4.675   2.587 -0.9682 -1.6179 -1.5022
  144OSM   H14B15697   1.713   4.814   2.543  1.1422 -1.0272 -1.4074
  144OSM   H14C15698   1.668   4.729   2.413 -3.1123  1.3796 -1.3178
  144OSM    C1315699   1.558   4.952   2.423  0.1012  0.5389  0.6677
  144OSM   H13A15700   1.584   4.913   2.325  1.2823 -0.0799  1.2106
  144OSM   H13B15701   1.647   5.003   2.456  0.7018  1.5321 -2.1309
  144OSM   H13C15702   1.479   5.025   2.417 -0.2305  0.2533  1.5477
  144OSM    C1215703   1.451   4.878   2.641  0.5002  0.7654  0.7342
  144OSM   H12A15704   1.539   4.920   2.689  1.3338 -0.1110  0.0055
  144OSM   H12B15705   1.420   4.788   2.691  0.3055  0.4785  0.0965
  144OSM    C1115706   1.334   4.978   2.656 -0.0126 -0.2337  0.1464
  144OSM   H11A15707   1.318   5.002   2.763  2.1445  0.5179  0.3428
  144OSM   H11B15708   1.250   4.915   2.619 -0.7806  0.6998  0.2511
  144OSM      P15709   1.232   5.187   2.525  0.0219  0.4268  0.1196
  144OSM    O1315710   1.264   5.255   2.394  0.3953 -0.0521  0.1226
  144OSM    O1415711   1.107   5.106   2.540  0.2209  0.3153 -0.0776
  144OSM    O1115712   1.241   5.295   2.645  0.9635 -0.5759 -0.2288
  144OSM    O1215713   1.354   5.092   2.568  0.3334  0.4868 -0.0403
  144OSM    C1S15714   1.140   5.317   2.736  0.2775  0.9487  0.0311
  144OSM    H1S15715   1.043   5.267   2.714  0.7854  0.0310 -0.1828
  144OSM    H1T15716   1.109   5.423   2.724 -0.3810  0.7533 -0.0206
  144OSM     NF15717   1.067   5.284   2.978  0.0864  0.0388 -0.1409
  144OSM    HNF15718   1.055   5.365   3.036 -0.3737 -0.6524  0.7495
  144OSM    C2S15719   1.182   5.288   2.883 -0.1299  0.5793 -0.8780
  144OSM    H2S15720   1.224   5.185   2.879 -0.0166  0.6617 -1.9654
  144OSM    C3S15721   1.302   5.392   2.925 -0.1491  0.5370 -0.2185
  144OSM    H3S15722   1.274   5.496   2.899 -0.2655  0.9857  1.5878
  144OSM     O315723   1.418   5.364   2.839  0.6822  0.4876 -0.2609
  144OSM    HO315724   1.385   5.297   2.778  1.4395 -1.1055  1.0037
  144OSM    C4S15725   1.343   5.402   3.068  0.8195  0.6332  0.3374
  144OSM    H4S15726   1.365   5.307   3.120  0.1847  0.0918 -0.3791
  144OSM    C5S15727   1.353   5.508   3.147 -0.4150 -0.1956  1.0456
  144OSM    H5S15728   1.334   5.601   3.091 -0.2237 -1.0856 -0.5527
  144OSM    C6S15729   1.394   5.525   3.290  0.0598  0.0829  0.2565
  144OSM    H6S15730   1.334   5.608   3.332  0.3903  1.7056 -2.2498
  144OSM    H6T15731   1.498   5.558   3.312 -0.3603  0.4891  1.7114
  144OSM    C7S15732   1.370   5.396   3.369  0.8729  0.0127 -0.5483
  144OSM    H7S15733   1.442   5.317   3.342 -1.2807 -2.5952  0.8447
  144OSM    H7T15734   1.268   5.356   3.351  0.1101 -0.7154  4.0944
  144OSM    C8S15735   1.381   5.426   3.524  0.2797  0.7916  0.2359
  144OSM    H8S15736   1.297   5.498   3.540 -0.5994  0.0516 -0.8515
  144OSM    H8T15737   1.480   5.470   3.548 -0.2234  1.6093  0.8619
  144OSM    C9S15738   1.363   5.306   3.615 -0.1507  0.2430  0.3242
  144OSM    H9S15739   1.452   5.240   3.617 -1.2816 -1.5619 -2.5219
  144OSM    H9T15740   1.276   5.244   3.582 -0.2010  1.2970 -1.7077
  144OSM   C10S15741   1.339   5.355   3.760 -0.3196  0.0823 -0.6597
  144OSM   H10S15742   1.255   5.428   3.760 -0.2324  0.1876 -1.2766
  144OSM   H10T15743   1.425   5.423   3.780 -2.3938  2.6046  0.2731
  144OSM   C11S15744   1.335   5.239   3.861  0.7460 -0.3878  0.1148
  144OSM   H11S15745   1.415   5.162   3.847  0.3701 -0.7848  0.1304
  144OSM   H11T15746   1.245   5.175   3.848 -0.2982  1.5542 -3.6120
  144OSM   C12S15747   1.340   5.293   4.002 -0.0775  0.9648 -0.1347
  144OSM   H12S15748   1.274   5.381   4.012  0.7096  1.4418  1.0203
  144OSM   H12T15749   1.443   5.323   4.033  0.0547 -2.1939  3.1090
  144OSM   C13S15750   1.279   5.187   4.100  0.2274  0.8223  0.6515
  144OSM   H13S15751   1.341   5.095   4.091 -0.9945 -0.1553  1.7061
  144OSM   H13T15752   1.184   5.153   4.053  0.8071 -1.0174  0.6929
  144OSM   C14S15753   1.288   5.229   4.248 -0.6887 -0.0198  0.1404
  144OSM   H14S15754   1.232   5.323   4.265 -0.0727  0.1759  1.1271
  144OSM   H14T15755   1.392   5.248   4.281 -0.5482  0.7867 -0.7317
  144OSM   C15S15756   1.244   5.118   4.344 -0.1783  0.0698 -0.7044
  144OSM   H15S15757   1.292   5.020   4.326  1.2962  0.3201  1.4579
  144OSM   H15T15758   1.138   5.098   4.317 -0.5580  1.3030 -0.2386
  144OSM   C16S15759   1.251   5.158   4.494 -0.2204 -0.4143 -1.4412
  144OSM   H16S15760   1.174   5.237   4.506 -0.3408 -0.5501 -1.3077
  144OSM   H16T15761   1.346   5.212   4.511 -0.7270  0.4255 -1.1853
  144OSM   C17S15762   1.229   5.044   4.589  0.2869  0.9858 -0.6066
  144OSM   H17S15763   1.305   4.967   4.564 -0.6276  1.0643 -4.0963
  144OSM   H17T15764   1.135   4.991   4.564  0.4693  0.0187  0.6255
  144OSM   C18S15765   1.229   5.076   4.740  0.5230 -0.0047  0.8808
  144OSM   H18S15766   1.305   5.154   4.763  1.5713 -0.9067  0.5949
  144OSM   H18T15767   1.247   4.980   4.793  0.0449 -1.1129 -0.8552
  144OSM   H18U15768   1.130   5.113   4.773  0.6050  0.8980  0.1537
  144OSM    C1F15769   0.980   5.191   2.990 -0.3146  0.4193 -0.2662
  144OSM     OF15770   0.999   5.077   2.936  0.3428 -0.3227 -0.4863
  144OSM    C2F15771   0.862   5.220   3.068 -0.5858 -0.0412 -0.2924
  144OSM    H2F15772   0.803   5.299   3.016 -2.4873 -1.8414 -1.0437
  144OSM    H2G15773   0.886   5.257   3.170  1.1542  0.2890 -0.7912
  144OSM    C3F15774   0.767   5.099   3.082 -0.1592  0.1047  0.0977
  144OSM    H3F15775   0.807   5.013   3.139 -0.7979  1.0966  2.1550
  144OSM    H3G15776   0.754   5.055   2.980  0.1362 -2.8353  1.2475
  144OSM    C4F15777   0.635   5.132   3.139 -0.2454 -0.0481  0.2705
  144OSM    H4F15778   0.568   5.044   3.136  2.3168 -2.1393  1.0412
  144OSM    H4G15779   0.591   5.216   3.081 -0.4456 -0.3416 -0.0023
  144OSM    C5F15780   0.645   5.177   3.289 -0.3269 -0.0235 -0.8204
  144OSM    H5F15781   0.541   5.188   3.327 -0.0150 -0.5238  0.2160
  144OSM    H5G15782   0.696   5.275   3.291 -1.1038  0.3747 -0.3775
  144OSM    C6F15783   0.701   5.070   3.381  0.3692  0.1959 -0.2040
  144OSM    H6F15784   0.811   5.068   3.369  0.2595  0.9875 -1.6103
  144OSM    H6G15785   0.677   4.969   3.343  0.1295  0.0065  0.4300
  144OSM    C7F15786   0.663   5.111   3.528  0.5140 -0.3284  0.0534
  144OSM    H7F15787   0.553   5.108   3.545 -0.5880  0.2628 -5.2332
  144OSM    H7G15788   0.693   5.218   3.538  1.3058 -0.3276 -1.8133
  144OSM    C8F15789   0.754   5.046   3.636 -0.4819  0.3264 -0.0868
  144OSM    H8F15790   0.756   4.935   3.626  2.0745  0.2408  0.4996
  144OSM    H8G15791   0.709   5.067   3.735 -1.6055  0.6300 -0.6536
  144OSM    C9F15792   0.906   5.080   3.628  0.0800 -0.0842 -0.0123
  144OSM    H9F15793   0.950   5.060   3.529  0.9320 -2.8442  0.8166
  144OSM   C10F15794   0.987   5.119   3.733  0.2202 -0.6236  1.0229
  144OSM   H10F15795   1.093   5.136   3.709  0.5242 -2.7854  0.6258
  144OSM   C11F15796   0.936   5.135   3.873 -0.6286  0.7399  0.0079
  144OSM   H11F15797   0.831   5.170   3.878  0.2280  3.5647 -0.4438
  144OSM   H11G15798   1.000   5.215   3.916  2.3333 -1.2159 -0.4020
  144OSM   C12F15799   0.950   5.001   3.941  1.1005  0.0795 -0.4328
  144OSM   H12F15800   1.049   4.953   3.934  0.5970 -0.7952 -1.9252
  144OSM   H12G15801   0.886   4.921   3.900  2.5605 -0.4325 -1.7773
  144OSM   C13F15802   0.931   5.014   4.102 -0.0162  0.1508  0.1366
  144OSM   H13F15803   0.829   5.056   4.116 -0.7883 -1.5409 -0.0578
  144OSM   H13G15804   0.990   5.099   4.141  0.9722 -0.2060 -0.5524
  144OSM   C14F15805   0.950   4.883   4.175 -0.7490  0.8184  0.0284
  144OSM   H14F15806   1.059   4.865   4.190 -0.8852 -0.2557 -0.1792
  144OSM   H14G15807   0.905   4.797   4.122  1.1615 -0.0252 -0.3219
  144OSM   C15F15808   0.907   4.886   4.321 -0.0317 -0.5240 -0.0995
  144OSM   H15F15809   0.796   4.883   4.327 -0.1565  1.9775  0.0481
  144OSM   H15G15810   0.946   4.984   4.356  0.7360 -0.3283 -1.4445
  144OSM   C16F15811   0.983   4.784   4.408 -0.1789 -0.4401 -0.0537
  144OSM   H16F15812   1.090   4.812   4.414  0.1440 -1.6485  0.0171
  144OSM   H16G15813   0.996   4.688   4.354  0.5381  0.7214 -2.0412
  144OSM   C17F15814   0.931   4.758   4.545  0.3230  0.5384 -0.2620
  144OSM   H17F15815   0.825   4.727   4.549  0.2572  0.8550  2.2880
  144OSM   H17G15816   0.934   4.850   4.607  1.1351 -0.0217  0.5528
  144OSM   C18F15817   1.014   4.645   4.601 -1.0120 -0.3176 -0.2433
  144OSM   H18F15818   1.009   4.554   4.538 -0.9541 -0.5641  0.1078
  144OSM   H18G15819   0.986   4.612   4.703  1.3278 -1.0876  0.2090
  144OSM   H18H15820   1.118   4.683   4.607 -0.1041 -2.6947  0.1317
  145SAPE     N15821   0.751   1.168   8.100 -0.0826 -0.2358  0.0386
  145SAPE   HN115822   0.794   1.245   8.155  0.4618  0.0834 -0.8176
  145SAPE   HN215823   0.739   1.086   8.162 -0.1256  1.0414  1.7774
  145SAPE   HN315824   0.832   1.139   8.041  1.1016  2.4570  0.1757
  145SAPE   C1215825   0.631   1.205   8.021 -0.4274  0.6888 -0.2660
  145SAPE  H12A15826   0.536   1.200   8.078 -0.1192 -2.7775  0.1327
  145SAPE  H12B15827   0.619   1.122   7.948 -0.7845 -0.5333  1.1428
  145SAPE   C1115828   0.641   1.338   7.948  0.1535  0.0196  0.2566
  145SAPE  H11A15829   0.749   1.358   7.927 -0.3662  0.5995 -2.1769
  145SAPE  H11B15830   0.606   1.422   8.011  0.5582  1.5210 -1.4302
  145SAPE     P15831   0.623   1.411   7.695  0.1793  0.2350 -0.5938
  145SAPE   O1315832   0.720   1.516   7.725  0.7521 -0.3920 -1.1110
  145SAPE   O1415833   0.658   1.311   7.590 -0.2039 -0.2801 -0.5696
  145SAPE   O1215834   0.572   1.347   7.829 -0.2410 -0.0502 -0.2528
  145SAPE   O1115835   0.495   1.486   7.640 -0.6445  0.2164 -0.3654
  145SAPE    C115836   0.390   1.405   7.589 -0.2726 -0.1168 -0.1037
  145SAPE    HA15837   0.389   1.300   7.623 -0.9074 -0.0383  0.1248
  145SAPE    HB15838   0.295   1.452   7.620 -1.7358 -3.9699  1.7461
  145SAPE    C215839   0.386   1.404   7.431 -1.1530  0.0809 -0.4238
  145SAPE    HS15840   0.475   1.347   7.396 -2.2870 -1.7998 -0.3599
  145SAPE   O2115841   0.386   1.537   7.376  0.1666  0.8487 -0.2123
  145SAPE   C2115842   0.498   1.573   7.312 -0.2379  0.0253  0.1338
  145SAPE   O2215843   0.608   1.524   7.321  0.2447 -0.3677  0.4181
  145SAPE   C2215844   0.482   1.709   7.249  0.6163  0.8197 -0.4395
  145SAPE   H2R15845   0.373   1.700   7.231  0.1508  0.1847  2.2560
  145SAPE   H2S15846   0.498   1.787   7.327  1.5421  0.2758 -0.0703
  145SAPE    C315847   0.271   1.323   7.377 -0.2458  0.4778  0.3451
  145SAPE    HX15848   0.178   1.354   7.429 -1.4189  0.3858 -1.5685
  145SAPE    HY15849   0.276   1.213   7.394  0.6054  0.5924  0.8569
  145SAPE   O3115850   0.267   1.340   7.232  0.0460 -0.5665  0.9387
  145SAPE   C3115851   0.157   1.396   7.186 -0.3881  0.6348  0.2642
  145SAPE   O3215852   0.058   1.423   7.246 -0.5168 -0.2317 -0.1056
  145SAPE   C3215853   0.168   1.412   7.031  1.2420 -0.3110  0.4409
  145SAPE   H2X15854   0.124   1.327   6.974  1.8461  1.1832 -2.4164
  145SAPE   H2Y15855   0.276   1.414   7.007  0.8056 -0.9874 -1.8468
  145SAPE   C2315856   0.565   1.732   7.122 -0.3693 -0.1066  0.4541
  145SAPE   H3R15857   0.670   1.724   7.156  0.2788 -0.6776 -1.5388
  145SAPE   H3S15858   0.538   1.835   7.090  0.0334  0.1146  0.8179
  145SAPE   C2415859   0.539   1.645   6.989  0.3077 -0.1241 -0.1917
  145SAPE   H4R15860   0.444   1.670   6.938 -0.2685  0.5009  1.1248
  145SAPE   H4S15861   0.523   1.542   7.027  3.1739  0.2439  2.4572
  145SAPE   C2515862   0.670   1.640   6.907  0.0210  0.0812  0.0241
  145SAPE   H5R15863   0.753   1.616   6.975 -0.1599 -0.6351 -0.0013
  145SAPE   C2615864   0.685   1.650   6.774 -0.5246  0.1797  0.8332
  145SAPE   H6R15865   0.782   1.650   6.723 -0.3243  0.6642  1.2135
  145SAPE   C2715866   0.567   1.656   6.678 -0.5130  0.2073  0.3705
  145SAPE   H7R15867   0.469   1.634   6.726 -1.3466 -0.6848 -1.6160
  145SAPE   H7S15868   0.578   1.576   6.601  0.5668  0.0352  0.6805
  145SAPE   C2815869   0.545   1.782   6.611  0.2413 -0.9470  0.7500
  145SAPE   H8R15870   0.550   1.871   6.675 -2.3945  0.0582 -0.2951
  145SAPE   C2915871   0.542   1.809   6.486  0.6325 -0.2550  0.0823
  145SAPE   H9R15872   0.534   1.916   6.462 -0.3335 -0.2169  0.5038
  145SAPE  C21015873   0.540   1.704   6.376  0.6307 -0.5805  0.0127
  145SAPE  H10R15874   0.491   1.748   6.286 -0.2233  1.1663  1.2837
  145SAPE  H10S15875   0.469   1.623   6.399  0.0393  0.4393  1.9895
  145SAPE  C21115876   0.671   1.635   6.339 -0.6368  0.3279  0.4864
  145SAPE  H11R15877   0.703   1.581   6.429 -0.9097 -1.0556 -0.2126
  145SAPE  C21215878   0.724   1.599   6.218 -0.1790 -0.1908  0.1227
  145SAPE  H12R15879   0.816   1.540   6.208 -0.4887 -0.3084 -2.8244
  145SAPE  C21315880   0.660   1.647   6.088  0.2730  0.0229  0.2184
  145SAPE  H13R15881   0.661   1.758   6.083 -1.8661  0.1832  1.8182
  145SAPE  H13S15882   0.551   1.626   6.098  0.5275 -0.9643  1.1183
  145SAPE  C21415883   0.722   1.594   5.960 -0.1010 -0.0338  0.1693
  145SAPE  H14R15884   0.787   1.665   5.907 -2.0721  1.0457 -0.8850
  145SAPE  C21515885   0.689   1.479   5.907  0.0811 -0.6911  0.0516
  145SAPE  H15R15886   0.744   1.457   5.815  0.5018  0.7700 -0.0715
  145SAPE  C21615887   0.586   1.385   5.978 -0.4383 -0.6582 -0.6133
  145SAPE  H16R15888   0.529   1.440   6.055  2.2522  0.9792  0.3340
  145SAPE  H16S15889   0.641   1.297   6.018  0.8589 -0.2430 -1.4208
  145SAPE  C21715890   0.489   1.325   5.875 -0.0863  0.1597  0.4495
  145SAPE  H17R15891   0.451   1.401   5.802 -3.0812 -1.8392 -0.2727
  145SAPE  H17S15892   0.406   1.281   5.934  1.2321 -2.2675  0.6045
  145SAPE  C21815893   0.562   1.224   5.792  0.0101 -0.1503 -0.2095
  145SAPE  H18R15894   0.631   1.159   5.851  1.1928  1.6894  0.5276
  145SAPE  H18S15895   0.628   1.281   5.724  1.4892 -2.2244 -0.6196
  145SAPE  C21915896   0.468   1.153   5.693  0.3521  0.0966  0.2543
  145SAPE  H19R15897   0.426   1.224   5.618 -2.7119 -0.7358  1.0159
  145SAPE  H19S15898   0.378   1.107   5.740 -0.0740 -1.3659 -1.8471
  145SAPE  C22015899   0.544   1.048   5.610  0.0817  0.0520 -0.6188
  145SAPE  H20R15900   0.476   0.980   5.555  0.8699 -0.5856 -0.8162
  145SAPE  H20S15901   0.614   0.990   5.674 -0.2892 -0.1900 -0.4279
  145SAPE  H20T15902   0.584   1.113   5.529 -2.7303  2.8985  0.0521
  145SAPE   C3315903   0.100   1.537   6.970  0.2059 -0.2524 -0.6542
  145SAPE   H3X15904   0.176   1.617   6.975 -1.9148  1.8573 -0.5644
  145SAPE   H3Y15905   0.006   1.558   7.027  0.3490 -1.0887 -0.0765
  145SAPE   C3415906   0.057   1.528   6.824  0.0605 -0.1594  0.1951
  145SAPE   H4X15907  -0.012   1.614   6.810  0.9862  0.6293  0.3577
  145SAPE   H4Y15908  -0.002   1.436   6.808 -1.4551  0.9091 -0.6483
  145SAPE   C3515909   0.165   1.543   6.718  0.1992  0.5706 -0.3452
  145SAPE   H5X15910   0.246   1.468   6.733 -0.1095  0.4391  0.7939
  145SAPE   H5Y15911   0.215   1.643   6.720  1.2415  0.0553  1.0354
  145SAPE   C3615912   0.105   1.528   6.576 -0.0105  0.4270 -0.1420
  145SAPE   H6X15913   0.067   1.629   6.548 -2.3157 -0.3745 -0.0937
  145SAPE   H6Y15914   0.015   1.465   6.562 -0.9570  1.8443 -0.7304
  145SAPE   C3715915   0.204   1.483   6.466  0.5964  0.5070 -0.8425
  145SAPE   H7X15916   0.261   1.395   6.500 -0.8300 -0.1406 -0.0311
  145SAPE   H7Y15917   0.269   1.570   6.446 -0.7297  1.6943 -0.1669
  145SAPE   C3815918   0.137   1.465   6.333  0.2393 -0.3306  0.1912
  145SAPE   H8X15919   0.105   1.562   6.291  1.8819 -0.0460 -0.4857
  145SAPE   H8Y15920   0.048   1.399   6.342 -0.2664  0.2600 -0.4241
  145SAPE   C3915921   0.229   1.393   6.234 -0.5362  0.3640 -0.1424
  145SAPE   H9X15922   0.263   1.300   6.285  0.8538  0.7690 -0.2783
  145SAPE   H9Y15923   0.325   1.445   6.213 -0.0979 -1.2119 -2.4333
  145SAPE  C31015924   0.163   1.356   6.098  0.0934 -0.5183  0.0606
  145SAPE  H10X15925   0.065   1.307   6.117  0.1337 -0.3774  0.6379
  145SAPE  H10Y15926   0.227   1.279   6.049  1.6324  1.6486 -1.5553
  145SAPE  C31115927   0.136   1.476   6.010  0.1016 -0.0167 -0.3277
  145SAPE  H11X15928   0.238   1.511   5.982  1.1994 -2.2956  0.6062
  145SAPE  H11Y15929   0.090   1.560   6.067 -0.8580 -0.6333 -0.1641
  145SAPE  C31215930   0.048   1.441   5.886  0.5716 -0.1460 -0.1435
  145SAPE  H12X15931   0.019   1.535   5.835  1.4723 -1.1259 -2.5746
  145SAPE  H12Y15932  -0.044   1.397   5.930  2.1884 -2.4020  1.2162
  145SAPE  C31315933   0.127   1.346   5.790 -0.3496  0.2661 -0.0238
  145SAPE  H13X15934   0.140   1.244   5.834  2.0918 -0.8939 -3.0852
  145SAPE  H13Y15935   0.230   1.381   5.766 -0.0547 -0.5609 -0.0031
  145SAPE  C31415936   0.062   1.325   5.653 -0.0150  0.0438 -0.3632
  145SAPE  H14X15937   0.067   1.421   5.597  2.5196  0.2253  0.0799
  145SAPE  H14Y15938  -0.040   1.282   5.670 -0.7923  1.4225 -1.3444
  145SAPE  C31515939   0.137   1.216   5.566  0.1940  0.6532 -0.5401
  145SAPE  H15X15940   0.149   1.126   5.630 -1.0226  0.9771  0.1678
  145SAPE  H15Y15941   0.235   1.258   5.533  0.4633 -1.3564 -2.5644
  145SAPE  C31615942   0.057   1.164   5.450  0.8436 -0.1452 -0.4657
  145SAPE  H16X15943   0.030   1.254   5.392 -1.8295 -1.8284 -2.0473
  145SAPE  H16Y15944  -0.043   1.133   5.487  0.6146  1.6561  0.5571
  145SAPE  C31715945   0.124   1.061   5.360  0.4130 -0.3367 -0.5111
  145SAPE  H17X15946   0.063   1.022   5.276 -0.2224  1.2060 -0.7991
  145SAPE  H17Y15947   0.139   0.968   5.419  0.9183 -0.9141 -1.5265
  145SAPE  C31815948   0.264   1.098   5.307  0.1625 -0.8200  0.8195
  145SAPE  H18X15949   0.331   1.117   5.393  0.9072  1.4634 -0.1960
  145SAPE  H18Y15950   0.266   1.183   5.235  0.9977 -0.3007  1.4386
  145SAPE  H18Z15951   0.303   1.007   5.257  1.3645  0.4443 -0.6549
  146SAPE     N15952   3.381   2.689   7.529  0.0912 -0.0750 -0.6313
  146SAPE   HN115953   3.300   2.753   7.538 -0.0477 -0.3788  0.4381
  146SAPE   HN215954   3.449   2.757   7.489  0.6721  2.1182  3.4914
  146SAPE   HN315955   3.352   2.616   7.462 -0.8079  1.8946 -2.5045
  146SAPE   C1215956   3.439   2.634   7.659  0.0490 -0.2695  0.1254
  146SAPE  H12A15957   3.357   2.577   7.707  0.0332 -0.5559 -0.2354
  146SAPE  H12B15958   3.477   2.714   7.725  1.7291 -2.6602  2.2771
  146SAPE   C1115959   3.564   2.542   7.640  0.6625 -0.0417  0.4378
  146SAPE  H11A15960   3.536   2.435   7.628 -0.7594  0.1318  1.9501
  146SAPE  H11B15961   3.627   2.538   7.732  0.6853  1.4833  0.5116
  146SAPE     P15962   3.741   2.499   7.467  0.0164 -0.1689 -0.1330
  146SAPE   O1315963   3.870   2.519   7.540  0.2917  0.4242  0.0285
  146SAPE   O1415964   3.689   2.359   7.466 -0.7080 -0.8042  0.3283
  146SAPE   O1215965   3.644   2.597   7.535  0.2732 -0.1292 -0.0581
  146SAPE   O1115966   3.766   2.555   7.320  0.0240  0.6558  0.2164
  146SAPE    C115967   3.651   2.571   7.237 -0.1003  0.7404 -0.8206
  146SAPE    HA15968   3.559   2.582   7.298  0.5167  0.6674  0.1343
  146SAPE    HB15969   3.664   2.672   7.191  0.0677  0.5185 -1.2638
  146SAPE    C215970   3.650   2.456   7.132 -0.0122 -0.6497  0.0160
  146SAPE    HS15971   3.631   2.360   7.184 -0.9613 -0.4345  0.0766
  146SAPE   O2115972   3.785   2.467   7.074  0.3519  0.2068 -0.3582
  146SAPE   C2115973   3.824   2.371   6.992  0.1511  0.0443 -0.5320
  146SAPE   O2215974   3.772   2.260   6.978  0.2249  0.3858 -0.1343
  146SAPE   C2215975   3.949   2.415   6.920 -0.1557  0.5212  0.4480
  146SAPE   H2R15976   3.956   2.523   6.898  1.7340  0.1512 -1.0726
  146SAPE   H2S15977   4.040   2.390   6.978  1.2906 -0.1869 -1.9606
  146SAPE    C315978   3.535   2.467   7.023  0.7169  0.4199  0.2785
  146SAPE    HX15979   3.441   2.483   7.079  0.0368 -2.0646 -0.0487
  146SAPE    HY15980   3.527   2.373   6.964 -1.7922  0.4009  0.5610
  146SAPE   O3115981   3.567   2.581   6.941  0.0721 -0.0482  0.4812
  146SAPE   C3115982   3.502   2.586   6.821  0.4082  0.1217 -0.3153
  146SAPE   O3215983   3.410   2.511   6.796  0.2655 -0.5020 -0.3951
  146SAPE   C3215984   3.568   2.688   6.727 -0.6707  0.4292  0.0003
  146SAPE   H2X15985   3.678   2.673   6.727 -0.7504 -0.2855  1.1732
  146SAPE   H2Y15986   3.537   2.787   6.767  1.2368  0.4631  1.5705
  146SAPE   C2315987   3.965   2.338   6.789  0.6977 -0.0579  0.1237
  146SAPE   H3R15988   3.964   2.229   6.808 -2.6184 -0.7976 -3.1825
  146SAPE   H3S15989   4.067   2.367   6.756  0.6637 -0.8352 -0.6905
  146SAPE   C2415990   3.859   2.362   6.681 -0.2688 -0.4381 -0.1507
  146SAPE   H4R15991   3.763   2.354   6.736  0.2872 -1.6459  0.6933
  146SAPE   H4S15992   3.856   2.284   6.602  0.3917 -0.7367  0.1056
  146SAPE   C2515993   3.883   2.504   6.629 -0.1542 -0.4349  0.1667
  146SAPE   H5R15994   3.916   2.573   6.708 -0.9368  1.1811 -0.8682
  146SAPE   C2615995   3.897   2.543   6.507  0.2350 -0.0498  0.6430
  146SAPE   H6R15996   3.919   2.651   6.504 -1.6537  0.4699  2.8634
  146SAPE   C2715997   3.892   2.451   6.388  0.6498  0.2740  0.3318
  146SAPE   H7R15998   3.841   2.357   6.419  2.9306 -1.0129  0.4388
  146SAPE   H7S15999   3.994   2.410   6.371  2.0815  3.0212  1.7402
  146SAPE   C2816000   3.835   2.517   6.260 -0.2955 -0.5128  0.8167
  146SAPE   H8R16001   3.799   2.620   6.270  2.4256  0.6975 -0.6599
  146SAPE   C2916002   3.819   2.462   6.143  0.8062 -0.5106  0.5824
  146SAPE   H9R16003   3.762   2.517   6.067  0.0575 -0.8842  0.8573
  146SAPE  C21016004   3.856   2.313   6.119  0.1707 -0.2209  0.1542
  146SAPE  H10R16005   3.832   2.256   6.211  0.0951 -0.0009  0.2710
  146SAPE  H10S16006   3.966   2.317   6.135  0.0973  2.4978  0.3710
  146SAPE  C21116007   3.830   2.238   5.993 -0.2256  0.2901  0.0048
  146SAPE  H11R16008   3.809   2.134   6.025 -3.2492  1.1423  1.1772
  146SAPE  C21216009   3.837   2.269   5.864 -0.4701  0.2304  0.7227
  146SAPE  H12R16010   3.804   2.208   5.779  2.1370  2.9651 -2.5599
  146SAPE  C21316011   3.872   2.409   5.814 -1.2702  1.0031 -0.5341
  146SAPE  H13R16012   3.926   2.410   5.717 -0.8803  1.3616 -0.3193
  146SAPE  H13S16013   3.932   2.468   5.888 -0.0618 -1.4195  0.5176
  146SAPE  C21416014   3.741   2.479   5.801  1.1880  0.5951  0.0776
  146SAPE  H14R16015   3.685   2.479   5.896 -0.8716  1.7138 -1.0728
  146SAPE  C21516016   3.685   2.545   5.698  0.1931 -0.3041  0.3423
  146SAPE  H15R16017   3.584   2.587   5.709  0.3225 -0.0363  0.5452
  146SAPE  C21616018   3.745   2.549   5.564  0.3200 -0.5144 -0.7482
  146SAPE  H16R16019   3.825   2.474   5.545  0.4300 -0.1690 -1.6979
  146SAPE  H16S16020   3.817   2.633   5.558 -1.1069  0.6755 -2.9270
  146SAPE  C21716021   3.652   2.578   5.448 -0.0621  0.0932 -0.0483
  146SAPE  H17R16022   3.724   2.566   5.365  0.8623 -1.3659  0.9194
  146SAPE  H17S16023   3.602   2.677   5.457  0.9475  0.5166  1.3858
  146SAPE  C21816024   3.542   2.471   5.443 -0.1239 -0.0657 -0.2627
  146SAPE  H18R16025   3.477   2.471   5.533  0.0380 -2.3265 -0.0694
  146SAPE  H18S16026   3.597   2.375   5.436  0.9691  0.6397 -1.6443
  146SAPE  C21916027   3.455   2.496   5.327  0.6823  0.8130  0.5580
  146SAPE  H19R16028   3.527   2.523   5.247  0.9352 -0.0377  0.4804
  146SAPE  H19S16029   3.380   2.573   5.354 -1.0051 -0.1118 -1.2192
  146SAPE  C22016030   3.372   2.379   5.272  0.2394  0.0322 -0.0714
  146SAPE  H20R16031   3.291   2.361   5.345 -1.6465  4.1098 -0.8508
  146SAPE  H20S16032   3.426   2.282   5.264 -1.2262 -0.8962  0.8008
  146SAPE  H20T16033   3.320   2.394   5.175  1.1816  1.1374 -0.4396
  146SAPE   C3316034   3.527   2.664   6.578  0.1241  0.6303 -0.6203
  146SAPE   H3X16035   3.416   2.674   6.578  0.0668  0.0536 -1.5608
  146SAPE   H3Y16036   3.558   2.567   6.535 -1.5138  0.0177 -0.5101
  146SAPE   C3416037   3.576   2.779   6.485 -0.1256 -0.0747 -0.4235
  146SAPE   H4X16038   3.687   2.777   6.493 -0.1238  0.1062 -0.4151
  146SAPE   H4Y16039   3.526   2.870   6.525 -0.6342 -0.4149 -0.2655
  146SAPE   C3516040   3.536   2.760   6.339 -0.4814 -0.4043 -0.0118
  146SAPE   H5X16041   3.430   2.727   6.338 -0.7199  0.3295  0.2735
  146SAPE   H5Y16042   3.590   2.671   6.299 -0.7111 -0.1795 -0.8443
  146SAPE   C3616043   3.566   2.885   6.254 -0.2467  0.6124 -0.4151
  146SAPE   H6X16044   3.670   2.906   6.287  0.1735 -1.6493 -0.1650
  146SAPE   H6Y16045   3.515   2.983   6.266  0.6844  1.0448  0.1010
  146SAPE   C3716046   3.574   2.839   6.104 -0.1142 -0.7188 -0.3446
  146SAPE   H7X16047   3.473   2.817   6.062  0.0726  1.2144 -2.0043
  146SAPE   H7Y16048   3.620   2.738   6.099 -0.5978 -0.9285 -0.6272
  146SAPE   C3816049   3.638   2.943   6.005 -0.1784  0.6825 -0.0612
  146SAPE   H8X16050   3.747   2.951   6.023 -0.0820 -0.1364 -0.2063
  146SAPE   H8Y16051   3.599   3.046   6.014 -1.0678  0.2410  1.7693
  146SAPE   C3916052   3.632   2.886   5.864  0.1463 -0.6153  0.0865
  146SAPE   H9X16053   3.530   2.852   5.837  0.1419 -0.6209  0.1097
  146SAPE   H9Y16054   3.693   2.793   5.868  1.0832 -0.1200 -1.7565
  146SAPE  C31016055   3.699   2.984   5.770  0.1706  1.0127  0.8668
  146SAPE  H10X16056   3.803   3.006   5.804  1.4605 -0.8609 -1.5096
  146SAPE  H10Y16057   3.640   3.077   5.754 -0.1118  0.6736 -0.0935
  146SAPE  C31116058   3.702   2.922   5.629  0.1707 -0.3785 -0.3325
  146SAPE  H11X16059   3.596   2.921   5.598  0.1535 -1.1816 -0.2606
  146SAPE  H11Y16060   3.741   2.819   5.647  1.2169  0.2280  1.1973
  146SAPE  C31216061   3.800   2.992   5.539 -0.2545 -0.0450 -0.4629
  146SAPE  H12X16062   3.904   2.972   5.573 -0.5208  0.0610  0.4390
  146SAPE  H12Y16063   3.782   3.101   5.528 -0.7246  0.0087  0.6821
  146SAPE  C31316064   3.786   2.936   5.392  0.3734  0.3783 -0.5913
  146SAPE  H13X16065   3.683   2.968   5.365 -0.7499 -2.0553  0.5294
  146SAPE  H13Y16066   3.785   2.825   5.392  0.1032  0.3466 -2.4594
  146SAPE  C31416067   3.873   2.998   5.283 -0.3647  0.1248 -0.4425
  146SAPE  H14X16068   3.967   2.940   5.277 -1.9202 -2.5877  0.0226
  146SAPE  H14Y16069   3.888   3.105   5.308 -1.2392 -0.2451  1.8951
  146SAPE  C31516070   3.824   2.992   5.134 -0.3704 -0.0016 -0.5397
  146SAPE  H15X16071   3.728   3.047   5.122  0.7039  1.8422 -0.9589
  146SAPE  H15Y16072   3.815   2.889   5.094  2.8703  0.4987 -2.9275
  146SAPE  C31616073   3.932   3.068   5.042  0.3153 -0.2506 -0.0462
  146SAPE  H16X16074   3.902   3.049   4.937 -1.6702  0.1635  0.3979
  146SAPE  H16Y16075   4.022   3.006   5.062  0.1733  0.2197  2.2982
  146SAPE  C31716076   3.956   3.215   5.076  0.2614  0.1326  0.3022
  146SAPE  H17X16077   4.026   3.217   5.163  0.4142 -3.0498  0.3673
  146SAPE  H17Y16078   3.857   3.256   5.104  0.1250 -0.4635  0.6942
  146SAPE  C31816079   4.013   3.304   4.960 -0.0878 -0.2206 -0.2070
  146SAPE  H18X16080   3.930   3.320   4.887 -1.3771  1.0262  1.4465
  146SAPE  H18Y16081   4.090   3.253   4.899  0.2937 -0.0990  0.1700
  146SAPE  H18Z16082   4.061   3.392   5.008  1.9421 -1.4994  0.2355
  147SAPE     N16083   1.375   2.632   7.326 -0.4653  0.1134  0.6852
  147SAPE   HN116084   1.426   2.580   7.401 -1.3027 -2.4603 -0.3930
  147SAPE   HN216085   1.307   2.567   7.282 -1.5915  1.4866  0.3613
  147SAPE   HN316086   1.443   2.664   7.255 -0.5134  1.2938  1.1566
  147SAPE   C1216087   1.302   2.750   7.372  0.5222 -0.4559 -0.2039
  147SAPE  H12A16088   1.290   2.739   7.482 -2.3142 -0.9529 -0.4938
  147SAPE  H12B16089   1.198   2.752   7.335  1.2216  2.7905 -2.4285
  147SAPE   C1116090   1.365   2.882   7.332  0.3089 -0.2974  0.3539
  147SAPE  H11A16091   1.468   2.899   7.369  0.4252  3.4438 -1.2584
  147SAPE  H11B16092   1.306   2.969   7.368  0.5752 -0.0714  0.2484
  147SAPE     P16093   1.288   2.956   7.094  0.2193 -0.3023 -0.1210
  147SAPE   O1316094   1.159   2.968   7.159  0.8090  0.1798 -0.4139
  147SAPE   O1416095   1.349   3.083   7.038  0.1534  0.0428  0.2445
  147SAPE   O1216096   1.384   2.887   7.193  0.1432  0.4423  0.0621
  147SAPE   O1116097   1.267   2.852   6.975 -0.4493 -0.2670 -0.3597
  147SAPE    C116098   1.376   2.784   6.912  0.0061  0.4211  0.5700
  147SAPE    HA16099   1.462   2.766   6.979  0.1518  0.3591  0.3654
  147SAPE    HB16100   1.346   2.686   6.870  0.2119  1.1242 -1.3187
  147SAPE    C216101   1.447   2.855   6.797  0.4763  0.5039 -0.0937
  147SAPE    HS16102   1.465   2.963   6.820  5.6320 -0.1434  0.1501
  147SAPE   O2116103   1.360   2.849   6.685  1.0198  0.8433 -0.4135
  147SAPE   C2116104   1.382   2.933   6.588 -0.0040  0.3304 -0.6279
  147SAPE   O2216105   1.481   3.006   6.581 -0.0818  0.2938  0.6740
  147SAPE   C2216106   1.273   2.952   6.492 -0.2867 -0.1034  0.3582
  147SAPE   H2R16107   1.219   2.856   6.477 -4.8187  2.4043 -1.2860
  147SAPE   H2S16108   1.196   3.017   6.538 -0.9376 -0.2863 -0.4468
  147SAPE    C316109   1.593   2.799   6.764  0.5941 -0.9815 -0.4283
  147SAPE    HX16110   1.652   2.816   6.857 -0.5874  2.5403 -0.1990
  147SAPE    HY16111   1.629   2.865   6.683  2.2187  0.7737  1.6042
  147SAPE   O3116112   1.587   2.661   6.733 -0.6239  0.0266  0.9536
  147SAPE   C3116113   1.622   2.633   6.604 -0.1884  0.6888 -0.4849
  147SAPE   O3216114   1.643   2.709   6.512  0.1895 -0.0421  0.5468
  147SAPE   C3216115   1.652   2.486   6.605  0.0543  0.0573  0.5400
  147SAPE   H2X16116   1.566   2.439   6.658  0.2036 -1.9258 -0.8964
  147SAPE   H2Y16117   1.748   2.456   6.651  1.0406  0.6009 -1.0956
  147SAPE   C2316118   1.315   2.999   6.351 -0.1174  0.2780 -0.0515
  147SAPE   H3R16119   1.386   3.084   6.358  0.5894 -0.2922 -0.1456
  147SAPE   H3S16120   1.221   3.032   6.303 -1.0148  0.7604  1.9533
  147SAPE   C2416121   1.353   2.889   6.247  0.0280  0.4568  0.7115
  147SAPE   H4R16122   1.347   2.935   6.146  1.1771 -1.2212 -0.1741
  147SAPE   H4S16123   1.273   2.812   6.243  0.3217  0.1725  0.0844
  147SAPE   C2516124   1.481   2.820   6.280  0.4785  0.0794 -0.3652
  147SAPE   H5R16125   1.472   2.759   6.371  1.9816 -0.0379 -0.2764
  147SAPE   C2616126   1.589   2.808   6.205 -0.5989  0.2757  0.0530
  147SAPE   H6R16127   1.679   2.756   6.244 -2.0741 -0.4353  2.8013
  147SAPE   C2716128   1.614   2.877   6.074  0.1298 -0.4635  0.0236
  147SAPE   H7R16129   1.515   2.869   6.024 -0.1013 -1.0753  0.5650
  147SAPE   H7S16130   1.687   2.816   6.018 -0.7872 -2.1818  0.6269
  147SAPE   C2816131   1.655   3.028   6.084  0.1111 -0.0218  0.3800
  147SAPE   H8R16132   1.655   3.080   6.180  0.1689 -0.2747  0.5188
  147SAPE   C2916133   1.690   3.094   5.974  0.2436 -0.2982  0.1878
  147SAPE   H9R16134   1.703   3.202   5.989  1.7720 -0.5567  0.8555
  147SAPE  C21016135   1.683   3.046   5.833 -0.4947  0.0036  0.2276
  147SAPE  H10R16136   1.600   3.099   5.781  0.9656  1.5906 -0.5812
  147SAPE  H10S16137   1.663   2.937   5.825 -1.4689  0.2144 -0.4133
  147SAPE  C21116138   1.798   3.094   5.754 -0.0214  0.3009  0.1645
  147SAPE  H11R16139   1.890   3.112   5.811  1.3398 -0.5054 -1.6656
  147SAPE  C21216140   1.789   3.117   5.618  0.4461 -0.1739 -1.0855
  147SAPE  H12R16141   1.882   3.143   5.565  0.7817  1.4432  0.2589
  147SAPE  C21316142   1.678   3.075   5.530  0.1013  0.4522 -1.0168
  147SAPE  H13R16143   1.618   3.001   5.587  1.7032  1.7404  2.6062
  147SAPE  H13S16144   1.722   3.016   5.447  0.9590 -1.6245  0.8238
  147SAPE  C21416145   1.591   3.185   5.475 -0.6480 -0.2688 -0.1079
  147SAPE  H14R16146   1.563   3.264   5.546 -2.2836 -0.7830 -0.1305
  147SAPE  C21516147   1.551   3.198   5.349  0.0068 -0.4731 -0.3125
  147SAPE  H15R16148   1.508   3.293   5.316  0.7764  0.3783  1.0625
  147SAPE  C21616149   1.586   3.097   5.241 -0.6568  0.1295  0.4192
  147SAPE  H16R16150   1.503   3.099   5.167 -0.5812  0.3159  0.3393
  147SAPE  H16S16151   1.592   2.991   5.273  0.1634  0.2430  0.6728
  147SAPE  C21716152   1.722   3.126   5.170  0.6974  0.4103 -0.3327
  147SAPE  H17R16153   1.728   3.055   5.086  1.1009 -1.1903  1.0018
  147SAPE  H17S16154   1.806   3.106   5.240  1.5322  1.1529 -1.0936
  147SAPE  C21816155   1.721   3.274   5.111 -0.0196 -0.8762 -0.0254
  147SAPE  H18R16156   1.728   3.349   5.192 -0.2395 -0.1478 -0.6685
  147SAPE  H18S16157   1.622   3.304   5.069  1.0863 -0.0005 -2.1401
  147SAPE  C21916158   1.821   3.288   4.996  0.0543  0.0441  0.7317
  147SAPE  H19R16159   1.789   3.233   4.904 -1.5551  2.3824 -0.2201
  147SAPE  H19S16160   1.918   3.247   5.030  0.5212 -0.7402 -1.3808
  147SAPE  C22016161   1.834   3.435   4.953 -0.3463  0.8398 -0.2414
  147SAPE  H20R16162   1.910   3.493   5.008 -0.2412  1.5531 -1.1170
  147SAPE  H20S16163   1.735   3.485   4.949 -0.8411  0.0014  0.8959
  147SAPE  H20T16164   1.863   3.443   4.846  1.5141 -0.6448  0.1000
  147SAPE   C3316165   1.656   2.422   6.464 -1.3401  0.1213 -0.0378
  147SAPE   H3X16166   1.579   2.461   6.394 -0.9410 -0.5232 -0.8570
  147SAPE   H3Y16167   1.645   2.312   6.477 -0.8479 -0.3643 -3.0747
  147SAPE   C3416168   1.792   2.437   6.391 -1.3820 -0.1494  0.0309
  147SAPE   H4X16169   1.872   2.377   6.440 -0.7917  0.2767 -0.3930
  147SAPE   H4Y16170   1.826   2.543   6.392  2.1294 -1.0823 -1.8965
  147SAPE   C3516171   1.793   2.404   6.244  0.0331  0.7049  0.1059
  147SAPE   H5X16172   1.757   2.305   6.211  1.5320  1.0455 -2.9067
  147SAPE   H5Y16173   1.897   2.407   6.205 -0.2529 -0.8258 -0.8577
  147SAPE   C3616174   1.712   2.502   6.157 -0.1135  0.4117 -0.1210
  147SAPE   H6X16175   1.762   2.602   6.153 -2.2052  1.4955 -0.7418
  147SAPE   H6Y16176   1.613   2.514   6.207  0.7736  0.2455  1.7950
  147SAPE   C3716177   1.700   2.465   6.009 -0.3454 -1.0251 -0.6779
  147SAPE   H7X16178   1.615   2.520   5.962 -0.6883  0.5255  1.6057
  147SAPE   H7Y16179   1.680   2.356   6.005  2.8655 -1.7995  0.9783
  147SAPE   C3816180   1.823   2.506   5.925 -0.4955  0.5960 -0.2316
  147SAPE   H8X16181   1.893   2.423   5.906 -0.8751  0.8202 -3.1137
  147SAPE   H8Y16182   1.888   2.584   5.970 -0.2662  0.9787 -1.2036
  147SAPE   C3916183   1.777   2.582   5.793  0.3288 -0.1028 -0.4453
  147SAPE   H9X16184   1.691   2.648   5.815  1.1553  0.7794  0.2362
  147SAPE   H9Y16185   1.739   2.506   5.722 -0.6697  0.1091 -0.1458
  147SAPE  C31016186   1.887   2.663   5.731  0.5335 -0.3670  0.4216
  147SAPE  H10X16187   1.974   2.600   5.702  0.1416 -1.0267  0.6480
  147SAPE  H10Y16188   1.927   2.730   5.811  0.8979 -0.6229  0.4583
  147SAPE  C31116189   1.843   2.752   5.614 -0.2448  0.6343 -0.2526
  147SAPE  H11X16190   1.929   2.822   5.608  0.0702  0.5036  2.0139
  147SAPE  H11Y16191   1.749   2.806   5.636 -1.4992 -0.4857 -2.4328
  147SAPE  C31216192   1.836   2.679   5.475 -0.1265  0.4728  0.0841
  147SAPE  H12X16193   1.918   2.604   5.469  0.2554  0.6999  1.9428
  147SAPE  H12Y16194   1.866   2.757   5.402 -0.0781  3.5827  3.1667
  147SAPE  C31316195   1.705   2.614   5.443  0.1763  0.4168  0.1129
  147SAPE  H13X16196   1.636   2.695   5.412 -0.6493  0.0982  1.0748
  147SAPE  H13Y16197   1.662   2.553   5.526 -2.7158  1.9088 -0.1750
  147SAPE  C31416198   1.706   2.513   5.328 -0.4725  0.8711 -0.4899
  147SAPE  H14X16199   1.609   2.464   5.305 -0.8363  2.0942 -1.7293
  147SAPE  H14Y16200   1.776   2.432   5.359 -2.2902 -0.8782 -0.7892
  147SAPE  C31516201   1.740   2.566   5.188 -0.5525 -0.3512 -0.2187
  147SAPE  H15X16202   1.752   2.482   5.117 -2.6841 -0.8008 -0.1183
  147SAPE  H15Y16203   1.830   2.630   5.190 -2.1565  2.0573 -0.1347
  147SAPE  C31616204   1.641   2.674   5.129 -0.3059 -0.2263  0.1717
  147SAPE  H16X16205   1.626   2.761   5.196 -0.4745 -1.7199  2.1716
  147SAPE  H16Y16206   1.544   2.621   5.122  0.2553 -1.2993  0.2966
  147SAPE  C31716207   1.678   2.729   4.989 -0.4889 -0.4785 -0.4208
  147SAPE  H17X16208   1.595   2.801   4.969 -0.3821  0.3726  1.8591
  147SAPE  H17Y16209   1.680   2.638   4.926  1.4471 -1.7148  1.2911
  147SAPE  C31816210   1.823   2.800   4.978 -0.4239 -0.0911 -0.0337
  147SAPE  H18X16211   1.829   2.882   5.052  1.9136 -0.7449  0.5637
  147SAPE  H18Y16212   1.832   2.846   4.877 -1.5043  0.6335  0.1719
  147SAPE  H18Z16213   1.903   2.725   4.995  2.1080  3.0719  3.8412
  148SAPE     N16214   1.068   5.649   7.621 -0.3486 -0.3402  0.2008
  148SAPE   HN116215   0.965   5.646   7.637 -0.5925 -0.1488 -1.2050
  148SAPE   HN216216   1.085   5.562   7.566 -4.0461  0.9480 -3.4479
  148SAPE   HN316217   1.119   5.645   7.712 -0.3731  1.2292  0.3050
  148SAPE   C1216218   1.112   5.770   7.543 -0.3454 -0.2185 -0.2502
  148SAPE  H12A16219   1.078   5.766   7.438 -2.2538 -0.4264  0.3449
  148SAPE  H12B16220   1.223   5.757   7.540  0.2896  3.7551  0.8490
  148SAPE   C1116221   1.065   5.892   7.614 -0.5393  0.5006 -0.3363
  148SAPE  H11A16222   1.104   5.906   7.717  0.5502  0.5073 -0.7427
  148SAPE  H11B16223   0.956   5.868   7.620 -0.1188 -2.2528 -1.7854
  148SAPE     P16224   1.191   6.098   7.508 -0.0448  0.2021 -0.0123
  148SAPE   O1316225   1.183   6.217   7.594  0.4499  0.1286 -0.0324
  148SAPE   O1416226   1.313   6.014   7.512  0.1548 -0.1367 -0.3060
  148SAPE   O1216227   1.070   6.011   7.537 -0.4211 -0.2993 -0.0506
  148SAPE   O1116228   1.166   6.146   7.358 -0.3044  0.2903 -0.6564
  148SAPE    C116229   1.150   6.045   7.268  0.5306  0.1753 -0.0996
  148SAPE    HA16230   1.239   5.979   7.262  1.0582  0.6722  1.6381
  148SAPE    HB16231   1.054   5.992   7.290  0.8839 -0.3186  0.2741
  148SAPE    C216232   1.140   6.115   7.128  0.2497  0.6037  0.4159
  148SAPE    HS16233   1.144   6.040   7.047 -0.3305  0.3857  0.5836
  148SAPE   O2116234   1.250   6.208   7.109  0.3505 -0.5136  0.0465
  148SAPE   C2116235   1.353   6.165   7.053  0.8972  0.2740  0.3246
  148SAPE   O2216236   1.380   6.047   7.030  0.2341 -0.0504 -0.2403
  148SAPE   C2216237   1.439   6.275   7.008 -0.9498 -0.0963  0.1827
  148SAPE   H2R16238   1.401   6.305   6.908  0.4378  1.7259  0.1332
  148SAPE   H2S16239   1.420   6.368   7.066  3.9890  1.1881  0.2196
  148SAPE    C316240   1.009   6.193   7.117  0.4692  0.4421 -0.4093
  148SAPE    HX16241   1.004   6.263   7.204 -1.1918 -1.3084  0.9663
  148SAPE    HY16242   0.925   6.122   7.132  0.9881  0.3329  2.3833
  148SAPE   O3116243   0.998   6.267   6.995  0.2593  1.0315  0.4732
  148SAPE   C3116244   0.966   6.196   6.897  0.2667 -0.0931  0.7677
  148SAPE   O3216245   0.968   6.074   6.889 -0.4382 -0.1462  0.3029
  148SAPE   C3216246   0.918   6.299   6.783  0.7138  0.1884 -0.6247
  148SAPE   H2X16247   1.005   6.364   6.759  1.3339 -0.1674  0.6040
  148SAPE   H2Y16248   0.838   6.358   6.833 -0.2386 -1.3867 -0.2527
  148SAPE   C2316249   1.590   6.243   7.002 -0.2717 -0.0299 -0.5951
  148SAPE   H3R16250   1.596   6.139   6.961  0.5465 -0.1916 -0.0691
  148SAPE   H3S16251   1.625   6.229   7.106 -1.9431 -2.2502 -0.2439
  148SAPE   C2416252   1.676   6.339   6.920  0.0769 -0.4875 -0.4451
  148SAPE   H4R16253   1.635   6.327   6.817 -1.0871  0.3836 -0.1138
  148SAPE   H4S16254   1.780   6.301   6.931 -0.1088 -0.4099  2.1141
  148SAPE   C2516255   1.670   6.477   6.973 -0.1243  0.4985 -0.4990
  148SAPE   H5R16256   1.710   6.486   7.075  0.9074  1.4090 -0.9617
  148SAPE   C2616257   1.639   6.590   6.906  0.2585  0.4423 -0.6117
  148SAPE   H6R16258   1.634   6.687   6.959  3.9358  1.1003 -1.1828
  148SAPE   C2716259   1.582   6.600   6.768  0.2246  0.1913 -0.7784
  148SAPE   H7R16260   1.644   6.540   6.699  1.2055  1.4846 -1.0763
  148SAPE   H7S16261   1.599   6.706   6.736 -2.4755  0.7189 -0.6928
  148SAPE   C2816262   1.438   6.568   6.746 -0.4817 -0.8638  0.0860
  148SAPE   H8R16263   1.377   6.558   6.837 -1.3402 -0.6049 -0.4522
  148SAPE   C2916264   1.386   6.565   6.626  0.2653 -0.0698 -0.4708
  148SAPE   H9R16265   1.280   6.540   6.614  0.5632 -0.7227 -2.0485
  148SAPE  C21016266   1.464   6.573   6.494 -0.3062  0.0767 -0.4570
  148SAPE  H10R16267   1.530   6.486   6.476  1.5273  0.8412  2.0359
  148SAPE  H10S16268   1.537   6.657   6.490 -0.8367  0.5232 -0.9527
  148SAPE  C21116269   1.364   6.597   6.389  0.0185 -1.0909 -0.2716
  148SAPE  H11R16270   1.334   6.703   6.390  1.9875 -0.4864 -0.8468
  148SAPE  C21216271   1.325   6.511   6.289 -0.1917 -0.2604  0.3288
  148SAPE  H12R16272   1.246   6.540   6.217 -1.1484 -2.8567  0.2199
  148SAPE  C21316273   1.393   6.384   6.257 -0.6333  0.3313  0.0772
  148SAPE  H13R16274   1.460   6.353   6.340  1.4866  2.2081 -0.8147
  148SAPE  H13S16275   1.471   6.386   6.177 -0.0349 -1.1833  0.5896
  148SAPE  C21416276   1.312   6.262   6.243 -0.6162  0.3711 -0.0134
  148SAPE  H14R16277   1.291   6.209   6.337  1.2524 -1.4536 -0.5460
  148SAPE  C21516278   1.265   6.211   6.126 -0.0745  0.5229 -0.0802
  148SAPE  H15R16279   1.211   6.115   6.133  0.1311  0.2856 -1.5585
  148SAPE  C21616280   1.271   6.279   5.989  0.0252 -0.2105  0.1435
  148SAPE  H16R16281   1.332   6.208   5.929  0.1411 -2.3510  2.6215
  148SAPE  H16S16282   1.316   6.380   5.989 -1.4536  0.4740  0.5602
  148SAPE  C21716283   1.137   6.296   5.913 -0.8590  0.0705  0.1109
  148SAPE  H17R16284   1.086   6.386   5.953  0.1896  1.4748 -1.5810
  148SAPE  H17S16285   1.069   6.208   5.925  0.0310 -0.7895 -0.9219
  148SAPE  C21816286   1.161   6.316   5.759 -0.7104  0.3082 -0.3724
  148SAPE  H18R16287   1.185   6.212   5.727 -1.6806 -0.3945  1.0880
  148SAPE  H18S16288   1.251   6.381   5.746  0.4346 -0.6689  2.1312
  148SAPE  C21916289   1.037   6.371   5.688  0.5075 -0.4789 -0.0950
  148SAPE  H19R16290   1.031   6.480   5.711 -1.0176 -0.8564  1.5016
  148SAPE  H19S16291   0.942   6.323   5.720 -0.2298  0.2242 -1.1438
  148SAPE  C22016292   1.049   6.356   5.539 -0.2091 -0.3173 -0.0339
  148SAPE  H20R16293   1.038   6.250   5.510 -0.5273 -1.1429  2.7979
  148SAPE  H20S16294   1.144   6.400   5.501  0.9408 -1.5206  1.3128
  148SAPE  H20T16295   0.970   6.418   5.491  0.1166  0.4517  0.3883
  148SAPE   C3316296   0.872   6.237   6.652 -0.0566  0.3868  0.0755
  148SAPE   H3X16297   0.771   6.277   6.629 -0.4449  1.4461  3.0463
  148SAPE   H3Y16298   0.863   6.128   6.671  0.5625  0.1586 -0.9090
  148SAPE   C3416299   0.962   6.259   6.532  0.1102 -0.6869  0.2077
  148SAPE   H4X16300   1.064   6.236   6.569 -0.9442 -2.2037  2.4329
  148SAPE   H4Y16301   0.961   6.362   6.491  0.8109 -0.5916  0.4178
  148SAPE   C3516302   0.926   6.160   6.420 -0.1967  0.4968 -0.3567
  148SAPE   H5X16303   0.938   6.056   6.455 -0.2914  0.8071  0.6181
  148SAPE   H5Y16304   0.995   6.181   6.336 -0.2548 -0.7716 -0.7341
  148SAPE   C3616305   0.776   6.161   6.373  0.2310 -0.1989 -0.4383
  148SAPE   H6X16306   0.759   6.264   6.334  0.5240 -0.2295 -0.6514
  148SAPE   H6Y16307   0.707   6.135   6.456  0.7227  1.3924  0.5142
  148SAPE   C3716308   0.744   6.051   6.270  0.0201  0.5938 -0.3332
  148SAPE   H7X16309   0.638   6.059   6.237  0.8451  2.3648 -2.8572
  148SAPE   H7Y16310   0.751   5.957   6.328  1.8513  1.3006  0.6735
  148SAPE   C3816311   0.822   6.066   6.139  0.3001 -0.1110 -0.2826
  148SAPE   H8X16312   0.929   6.054   6.169 -0.0683  0.2249  1.2657
  148SAPE   H8Y16313   0.819   6.176   6.128 -0.9268  0.0574  1.3178
  148SAPE   C3916314   0.769   5.987   6.017  0.4299  0.5010 -0.3497
  148SAPE   H9X16315   0.661   6.011   6.003  0.3254  0.3871  0.2348
  148SAPE   H9Y16316   0.774   5.877   6.032 -0.5776  0.5312  0.3689
  148SAPE  C31016317   0.844   6.025   5.899 -0.5468 -0.4402 -0.4905
  148SAPE  H10X16318   0.950   5.990   5.896 -0.4638 -0.1249 -1.7105
  148SAPE  H10Y16319   0.837   6.136   5.900 -1.1491 -0.4782 -0.3481
  148SAPE  C31116320   0.783   5.971   5.767  0.3457  0.0638  0.0241
  148SAPE  H11X16321   0.703   6.040   5.735  0.2111 -1.4452 -3.2594
  148SAPE  H11Y16322   0.739   5.870   5.786 -1.5859  0.8694  0.0586
  148SAPE  C31216323   0.880   5.972   5.645  0.5516  0.3979  0.0265
  148SAPE  H12X16324   0.962   5.901   5.669  2.1159  2.0045 -0.3969
  148SAPE  H12Y16325   0.917   6.075   5.632 -1.1755  0.8428 -1.7862
  148SAPE  C31316326   0.814   5.922   5.517 -0.4353 -0.7518 -0.2188
  148SAPE  H13X16327   0.730   5.991   5.497  0.7964  1.9983  3.0323
  148SAPE  H13Y16328   0.773   5.820   5.537  1.7486 -1.4503  1.1495
  148SAPE  C31416329   0.908   5.932   5.389  0.7828 -0.2627 -0.0192
  148SAPE  H14X16330   0.975   5.846   5.408  0.7762 -0.5317 -1.1597
  148SAPE  H14Y16331   0.970   6.023   5.398  1.0705 -0.6191  1.9943
  148SAPE  C31516332   0.833   5.918   5.254  0.0224 -0.7197  0.2639
  148SAPE  H15X16333   0.902   5.935   5.168  0.0430  0.1713  0.4532
  148SAPE  H15Y16334   0.751   5.993   5.251  0.5553 -0.0752  1.2537
  148SAPE  C31616335   0.783   5.780   5.234  0.8308 -0.0109 -0.1184
  148SAPE  H16X16336   0.703   5.760   5.309  0.3825  1.3760 -0.1884
  148SAPE  H16Y16337   0.866   5.711   5.261 -0.7787 -2.1136 -0.2655
  148SAPE  C31716338   0.731   5.737   5.092 -0.3681 -0.0370 -0.1886
  148SAPE  H17X16339   0.709   5.628   5.100 -1.1470  0.0820 -0.6088
  148SAPE  H17Y16340   0.806   5.751   5.011  1.2742 -1.6415  0.9685
  148SAPE  C31816341   0.601   5.805   5.053 -1.0674 -0.7205  0.6079
  148SAPE  H18X16342   0.610   5.916   5.052  1.3357 -0.8435  1.2480
  148SAPE  H18Y16343   0.518   5.774   5.119 -0.3736 -0.8746  1.4291
  148SAPE  H18Z16344   0.573   5.786   4.947 -1.0549  2.2000 -0.0077
  149SAPE     N16345   0.821   4.860   7.219  0.5083 -0.1227 -0.1664
  149SAPE   HN116346   0.766   4.922   7.282  0.8645 -0.1604  0.1870
  149SAPE   HN216347   0.789   4.764   7.243 -1.9609  0.9833  1.3092
  149SAPE   HN316348   0.920   4.867   7.251  0.6416 -2.9929  0.3695
  149SAPE   C1216349   0.820   4.906   7.073 -0.0924 -0.0185  0.7893
  149SAPE  H12A16350   0.766   5.003   7.061 -0.4018 -0.4112 -1.4387
  149SAPE  H12B16351   0.768   4.828   7.015  2.2585 -1.3591  0.3660
  149SAPE   C1116352   0.963   4.922   7.015  0.3080 -0.2854 -0.0238
  149SAPE  H11A16353   1.001   5.017   7.059  0.1781  0.2413 -1.0078
  149SAPE  H11B16354   0.951   4.931   6.905 -0.9966 -0.7688  0.0673
  149SAPE     P16355   1.131   4.728   6.958  0.4548  0.1737 -0.4343
  149SAPE   O1316356   1.239   4.807   6.900  0.5900 -0.0046  0.4484
  149SAPE   O1416357   1.165   4.599   7.023 -0.3605 -0.0719  0.2995
  149SAPE   O1216358   1.045   4.815   7.061 -0.0809  0.9808  0.3121
  149SAPE   O1116359   1.022   4.708   6.851 -0.3275  0.0210  0.2562
  149SAPE    C116360   0.928   4.601   6.866 -0.0417  0.7791 -0.5065
  149SAPE    HA16361   0.967   4.502   6.897 -1.2226  0.7160  0.9592
  149SAPE    HB16362   0.855   4.635   6.943  1.7775 -0.9431  2.1729
  149SAPE    C216363   0.859   4.603   6.728 -0.1191  0.2050 -0.0823
  149SAPE    HS16364   0.765   4.546   6.741  0.8364 -1.3074  0.4790
  149SAPE   O2116365   0.939   4.547   6.620  0.0754 -1.0967  0.4114
  149SAPE   C2116366   0.936   4.421   6.617  0.2482  0.8486  0.3144
  149SAPE   O2216367   0.871   4.355   6.697  0.0205 -0.1628 -0.5566
  149SAPE   C2216368   1.005   4.360   6.491  0.7042 -0.0538  0.3195
  149SAPE   H2R16369   1.021   4.439   6.414 -0.2304  0.1263  0.3008
  149SAPE   H2S16370   1.104   4.325   6.528  0.4030  0.0438  1.2479
  149SAPE    C316371   0.819   4.748   6.690  0.1558 -0.1399  0.1066
  149SAPE    HX16372   0.907   4.808   6.658 -1.3079  1.0841 -1.9047
  149SAPE    HY16373   0.778   4.792   6.784 -1.2052 -0.0923 -0.4880
  149SAPE   O3116374   0.722   4.746   6.583  0.1236 -0.1170 -0.0528
  149SAPE   C3116375   0.692   4.859   6.529  0.4357  0.5656 -0.6456
  149SAPE   O3216376   0.751   4.967   6.556  0.6772 -0.2979 -0.3106
  149SAPE   C3216377   0.578   4.850   6.434  0.4970  0.3867 -0.4772
  149SAPE   H2X16378   0.499   4.793   6.488  0.7202 -0.4111 -0.9661
  149SAPE   H2Y16379   0.601   4.794   6.341 -1.6643 -1.0318 -0.2375
  149SAPE   C2316380   0.931   4.237   6.425  0.2862  0.4321 -0.4942
  149SAPE   H3R16381   0.876   4.171   6.497 -0.1595  1.6606  0.3303
  149SAPE   H3S16382   1.001   4.158   6.391  0.4350 -0.0936  0.9611
  149SAPE   C2416383   0.835   4.269   6.305  0.0204  0.4958 -0.2950
  149SAPE   H4R16384   0.771   4.354   6.337  2.5756  2.3030  0.3995
  149SAPE   H4S16385   0.766   4.183   6.292 -1.1459  0.8661  2.6233
  149SAPE   C2516386   0.915   4.295   6.184 -0.5916  0.7249 -1.3199
  149SAPE   H5R16387   1.023   4.296   6.206 -0.5078 -0.0374 -1.6725
  149SAPE   C2616388   0.872   4.312   6.059 -0.4980  0.5323 -0.5789
  149SAPE   H6R16389   0.955   4.318   5.988  0.1813 -2.5694 -0.2143
  149SAPE   C2716390   0.727   4.306   6.015  0.2772  0.1817  0.1348
  149SAPE   H7R16391   0.674   4.404   6.015  0.1182  0.0946  0.0321
  149SAPE   H7S16392   0.663   4.245   6.082 -0.2876 -0.3333 -0.8569
  149SAPE   C2816393   0.719   4.231   5.886  0.3189 -0.3024  0.6983
  149SAPE   H8R16394   0.747   4.125   5.887  0.0551 -0.3793  0.3684
  149SAPE   C2916395   0.714   4.295   5.761  0.0167 -0.1818 -0.4045
  149SAPE   H9R16396   0.700   4.227   5.675 -0.5656 -0.6756  0.0691
  149SAPE  C21016397   0.700   4.440   5.723  0.0515 -0.0932 -0.5074
  149SAPE  H10R16398   0.799   4.469   5.681  2.1149 -1.4351  2.9873
  149SAPE  H10S16399   0.698   4.505   5.813  0.0474 -0.0338 -0.5506
  149SAPE  C21116400   0.592   4.484   5.634  0.7144 -0.5274  0.2492
  149SAPE  H11R16401   0.513   4.541   5.686  1.5116  0.2699  0.6148
  149SAPE  C21216402   0.599   4.491   5.496 -0.0525  0.8215  0.5373
  149SAPE  H12R16403   0.502   4.504   5.447 -0.2377  0.1193  0.7031
  149SAPE  C21316404   0.715   4.435   5.414  0.6144  0.1965 -0.0545
  149SAPE  H13R16405   0.667   4.351   5.361 -2.4505  1.8392 -0.1310
  149SAPE  H13S16406   0.792   4.384   5.476 -0.5776  0.9939  2.2049
  149SAPE  C21416407   0.787   4.517   5.314 -0.0312  0.4538  0.0648
  149SAPE  H14R16408   0.730   4.546   5.225 -0.6745 -1.7168 -0.2788
  149SAPE  C21516409   0.916   4.553   5.321 -0.2736  0.5713 -0.3752
  149SAPE  H15R16410   0.956   4.605   5.232 -1.5136  1.2389 -0.5672
  149SAPE  C21616411   1.021   4.517   5.429  0.0109 -0.0321 -0.1540
  149SAPE  H16R16412   0.976   4.463   5.515  0.8731 -0.6598 -0.0857
  149SAPE  H16S16413   1.087   4.599   5.464  1.8492 -1.9505  1.1515
  149SAPE  C21716414   1.120   4.414   5.375  0.5401  0.1746 -0.2124
  149SAPE  H17R16415   1.190   4.401   5.460 -1.2363 -0.9605  1.1482
  149SAPE  H17S16416   1.172   4.446   5.282  0.7153  1.8219  0.4207
  149SAPE  C21816417   1.052   4.283   5.346 -0.9573  0.3064 -0.4388
  149SAPE  H18R16418   0.969   4.295   5.273 -1.5309 -0.9051 -0.0252
  149SAPE  H18S16419   1.016   4.241   5.442  3.0311 -1.0518  0.6707
  149SAPE  C21916420   1.156   4.175   5.303 -0.4852  0.5977 -0.3184
  149SAPE  H19R16421   1.218   4.143   5.389 -1.5040 -1.7834 -0.3794
  149SAPE  H19S16422   1.221   4.214   5.222 -1.0698  0.3126 -0.9452
  149SAPE  C22016423   1.096   4.038   5.266 -0.0558 -0.5549 -0.4809
  149SAPE  H20R16424   1.169   3.954   5.266 -0.8303 -1.3975  3.2660
  149SAPE  H20S16425   1.056   4.047   5.163  0.6970 -0.4172 -0.7746
  149SAPE  H20T16426   1.013   4.013   5.335 -0.3583  3.6546  0.9667
  149SAPE   C3316427   0.501   4.978   6.412 -0.1628 -0.1183  0.3842
  149SAPE   H3X16428   0.575   5.048   6.368  1.2648 -3.3701 -2.9295
  149SAPE   H3Y16429   0.470   5.027   6.507  1.0640  0.7334  0.3676
  149SAPE   C3416430   0.375   4.964   6.312 -0.2204 -0.3053 -0.1601
  149SAPE   H4X16431   0.308   4.893   6.365  0.1993 -0.1090  0.6526
  149SAPE   H4Y16432   0.406   4.914   6.217  2.1655 -1.5702  1.1731
  149SAPE   C3516433   0.302   5.093   6.274 -0.1658 -0.5576 -0.9185
  149SAPE   H5X16434   0.276   5.147   6.367  1.2548 -0.2078 -0.7045
  149SAPE   H5Y16435   0.210   5.058   6.223 -1.9627 -2.0103  2.9294
  149SAPE   C3616436   0.371   5.192   6.185 -0.3653  0.3488  0.0690
  149SAPE   H6X16437   0.384   5.139   6.087 -0.8095 -0.7201  0.5667
  149SAPE   H6Y16438   0.468   5.220   6.230 -0.2474  3.0141 -1.6374
  149SAPE   C3716439   0.293   5.319   6.160  0.5823 -0.5149  0.1757
  149SAPE   H7X16440   0.284   5.372   6.257  1.8279 -0.4786  0.2913
  149SAPE   H7Y16441   0.185   5.307   6.139 -0.5610  1.2874  4.0993
  149SAPE   C3816442   0.363   5.401   6.054  0.4123 -0.3309 -0.0453
  149SAPE   H8X16443   0.469   5.432   6.071  0.5654 -0.7331 -0.2546
  149SAPE   H8Y16444   0.299   5.490   6.042 -2.7610 -2.4262  0.1044
  149SAPE   C3916445   0.351   5.341   5.913 -0.3750 -0.3138 -0.2185
  149SAPE   H9X16446   0.244   5.313   5.902 -0.1508 -1.1114 -0.4133
  149SAPE   H9Y16447   0.412   5.249   5.896 -0.4518  0.1915 -4.1430
  149SAPE  C31016448   0.390   5.442   5.810 -0.2098 -0.6892  0.3661
  149SAPE  H10X16449   0.487   5.493   5.833 -0.2376 -0.4895  0.0481
  149SAPE  H10Y16450   0.314   5.522   5.802  0.0092 -0.5598 -0.5948
  149SAPE  C31116451   0.394   5.387   5.662 -0.8323 -0.6579  0.2716
  149SAPE  H11X16452   0.297   5.339   5.636 -2.0674  0.8721  1.8300
  149SAPE  H11Y16453   0.469   5.307   5.647 -0.1477 -0.1937  1.0915
  149SAPE  C31216454   0.429   5.494   5.556  0.0977 -0.5546 -0.1293
  149SAPE  H12X16455   0.523   5.547   5.581  0.2288 -1.1053  0.5592
  149SAPE  H12Y16456   0.349   5.570   5.547  0.7487  0.2449  0.6565
  149SAPE  C31316457   0.452   5.430   5.417 -0.1831 -0.7529 -0.5642
  149SAPE  H13X16458   0.536   5.358   5.427 -0.8936 -1.4288  0.9057
  149SAPE  H13Y16459   0.471   5.515   5.348 -3.7577  1.4176  0.8412
  149SAPE  C31416460   0.326   5.361   5.352  0.1488  0.1635  0.8427
  149SAPE  H14X16461   0.239   5.426   5.375  0.7114  0.9411  0.8257
  149SAPE  H14Y16462   0.324   5.261   5.399 -0.7139  0.1242  0.7432
  149SAPE  C31516463   0.340   5.325   5.198  0.5170 -0.5332 -0.7456
  149SAPE  H15X16464   0.243   5.281   5.165  0.1165 -0.9840  0.9207
  149SAPE  H15Y16465   0.420   5.259   5.157 -0.2893 -1.3331 -1.0730
  149SAPE  C31616466   0.355   5.448   5.105 -0.2018  0.7304 -0.1489
  149SAPE  H16X16467   0.463   5.470   5.093  0.2492 -1.7051 -1.0549
  149SAPE  H16Y16468   0.298   5.519   5.169 -0.1814 -0.8289  1.6985
  149SAPE  C31716469   0.289   5.422   4.969 -0.6590 -0.4638  0.3786
  149SAPE  H17X16470   0.187   5.386   4.993 -0.6886 -1.3672 -0.9617
  149SAPE  H17Y16471   0.353   5.353   4.910  2.7082 -0.0091  3.1899
  149SAPE  C31816472   0.268   5.554   4.892  0.2610  0.1216  0.0478
  149SAPE  H18X16473   0.204   5.534   4.803 -0.6907  1.3661  0.4301
  149SAPE  H18Y16474   0.360   5.601   4.851  0.8276 -2.2968 -1.6615
  149SAPE  H18Z16475   0.210   5.630   4.949 -0.0829  0.1556 -0.3391
  150SAPE     N16476   5.433   2.190   7.718 -0.9128  0.1647 -0.4001
  150SAPE   HN116477   5.410   2.190   7.820  0.0495 -0.3603 -0.1661
  150SAPE   HN216478   5.514   2.128   7.702  0.5629  2.3483 -1.9918
  150SAPE   HN316479   5.473   2.285   7.701  1.9330 -0.8983 -0.2120
  150SAPE   C1216480   5.320   2.161   7.623 -0.0699 -0.2136  0.5601
  150SAPE  H12A16481   5.344   2.207   7.525 -1.1209 -1.3505 -0.2678
  150SAPE  H12B16482   5.233   2.209   7.673  1.0666 -0.9010  3.3730
  150SAPE   C1116483   5.290   2.010   7.602 -0.3051  0.0576 -0.4184
  150SAPE  H11A16484   5.384   1.955   7.582  0.1709  0.8769 -0.4595
  150SAPE  H11B16485   5.244   2.006   7.501 -0.9704  0.1927 -0.1235
  150SAPE     P16486   5.239   1.848   7.795  0.1117 -0.0832 -0.4535
  150SAPE   O1316487   5.377   1.862   7.850  0.4820 -0.3321 -0.3420
  150SAPE   O1416488   5.129   1.835   7.889 -0.1732  0.0087 -0.2948
  150SAPE   O1216489   5.202   1.958   7.702  0.2487  0.1269 -0.4646
  150SAPE   O1116490   5.234   1.730   7.684  0.4470 -0.8360 -0.0726
  150SAPE    C116491   5.113   1.718   7.600  0.4394  0.1849 -0.5509
  150SAPE    HA16492   5.023   1.691   7.660  0.7389 -1.3152 -0.7348
  150SAPE    HB16493   5.072   1.810   7.552 -2.8685 -0.7046  0.3007
  150SAPE    C216494   5.147   1.612   7.490 -0.2156  0.1207 -0.2617
  150SAPE    HS16495   5.217   1.541   7.539  0.7036  1.1892  0.0222
  150SAPE   O2116496   5.208   1.686   7.380  0.4762 -0.3894 -0.0007
  150SAPE   C2116497   5.227   1.616   7.272 -0.2484  0.3121  0.2094
  150SAPE   O2216498   5.223   1.493   7.262  0.2919  0.4562 -0.1286
  150SAPE   C2216499   5.260   1.709   7.158 -1.0772 -0.1588 -0.7181
  150SAPE   H2R16500   5.167   1.735   7.103 -1.8185 -0.8316  0.2023
  150SAPE   H2S16501   5.305   1.800   7.203 -0.0251 -1.0648  0.0898
  150SAPE    C316502   5.026   1.530   7.454  0.8073 -0.3981 -0.2834
  150SAPE    HX16503   4.992   1.506   7.557  0.3682 -0.6627 -0.4883
  150SAPE    HY16504   5.048   1.433   7.404 -0.1866 -0.3585 -0.8265
  150SAPE   O3116505   4.928   1.610   7.388  0.9987 -0.3338  0.0272
  150SAPE   C3116506   4.831   1.538   7.320  0.2639  0.3625 -0.3046
  150SAPE   O3216507   4.815   1.420   7.334  0.2515  0.4166 -0.1205
  150SAPE   C3216508   4.758   1.634   7.230  0.0018  0.6158 -0.2531
  150SAPE   H2X16509   4.826   1.723   7.231  1.7310 -0.5746 -2.6648
  150SAPE   H2Y16510   4.664   1.650   7.287  0.8769 -0.4962  1.6126
  150SAPE   C2316511   5.359   1.645   7.062  0.2029  0.0709 -0.1568
  150SAPE   H3R16512   5.307   1.565   7.006 -0.3369  0.5897 -0.4186
  150SAPE   H3S16513   5.445   1.608   7.121  0.4998 -0.5393 -0.9670
  150SAPE   C2416514   5.411   1.731   6.947 -0.0601 -0.5938  0.2943
  150SAPE   H4R16515   5.320   1.768   6.895  0.8104 -0.0914 -0.9203
  150SAPE   H4S16516   5.454   1.664   6.869 -0.8867 -0.1371 -0.5700
  150SAPE   C2516517   5.507   1.840   6.979  0.0559  0.4864  0.5594
  150SAPE   H5R16518   5.477   1.884   7.076  0.1203 -0.8828  1.2210
  150SAPE   C2616519   5.607   1.885   6.902  0.8334 -0.6192  0.2039
  150SAPE   H6R16520   5.674   1.956   6.953 -0.1789 -0.8705  1.9679
  150SAPE   C2716521   5.648   1.836   6.768  0.4320 -0.2050  0.4331
  150SAPE   H7R16522   5.646   1.725   6.773 -0.8995 -0.2725 -0.6262
  150SAPE   H7S16523   5.756   1.848   6.745  0.2400 -0.2856 -0.5977
  150SAPE   C2816524   5.553   1.874   6.656 -0.6913 -0.4435  0.0371
  150SAPE   H8R16525   5.478   1.946   6.693 -0.3371 -1.4797  3.0350
  150SAPE   C2916526   5.565   1.841   6.528 -0.1780  0.4131 -0.2316
  150SAPE   H9R16527   5.471   1.848   6.470  0.7187 -2.1029 -2.1723
  150SAPE  C21016528   5.665   1.753   6.455  1.1547 -0.6945 -0.1851
  150SAPE  H10R16529   5.759   1.752   6.514 -0.3931 -2.5263  2.4809
  150SAPE  H10S16530   5.696   1.809   6.364  1.7607 -1.1291 -0.2491
  150SAPE  C21116531   5.635   1.613   6.432 -0.6799  0.7312  0.1508
  150SAPE  H11R16532   5.643   1.553   6.524 -0.3960  0.9135  0.2484
  150SAPE  C21216533   5.610   1.561   6.309  0.5635  0.1678 -0.7864
  150SAPE  H12R16534   5.594   1.453   6.302 -2.9038  0.4847  0.2872
  150SAPE  C21316535   5.586   1.634   6.175 -0.3713 -0.2353  0.4256
  150SAPE  H13R16536   5.675   1.690   6.138  0.2714 -1.0762  0.6619
  150SAPE  H13S16537   5.514   1.714   6.200 -0.3177  0.5764 -1.7674
  150SAPE  C21416538   5.521   1.545   6.071 -0.7942 -0.7118  0.0094
  150SAPE  H14R16539   5.413   1.558   6.057 -1.1596 -1.9956  1.4293
  150SAPE  C21516540   5.588   1.462   5.982 -0.4458 -0.0061  1.1026
  150SAPE  H15R16541   5.529   1.398   5.915  1.9743 -1.1253 -0.1017
  150SAPE  C21616542   5.735   1.432   5.989  0.5436 -0.5433  0.2723
  150SAPE  H16R16543   5.740   1.321   6.000  0.1062 -0.6766 -0.7225
  150SAPE  H16S16544   5.770   1.483   6.080 -1.8591 -1.4934  1.8392
  150SAPE  C21716545   5.832   1.455   5.879  0.4218  0.0507 -0.3226
  150SAPE  H17R16546   5.927   1.409   5.914 -0.2086 -0.5382  0.6446
  150SAPE  H17S16547   5.848   1.564   5.862 -0.5489  0.2518  0.0204
  150SAPE  C21816548   5.783   1.400   5.747  0.1536 -0.5218 -0.2196
  150SAPE  H18R16549   5.831   1.458   5.666  0.6238 -1.4486 -0.6113
  150SAPE  H18S16550   5.673   1.406   5.731 -0.1717 -1.1138  1.5370
  150SAPE  C21916551   5.811   1.251   5.731  0.0325  0.2118  0.1085
  150SAPE  H19R16552   5.744   1.201   5.804  2.7371 -1.1862  1.7613
  150SAPE  H19S16553   5.915   1.236   5.766 -0.0387  1.8845  1.1709
  150SAPE  C22016554   5.769   1.213   5.589  0.1051 -0.4094  0.5325
  150SAPE  H20R16555   5.854   1.215   5.516  0.0972  0.1291  0.5350
  150SAPE  H20S16556   5.693   1.284   5.551 -0.6700 -2.2859 -1.7170
  150SAPE  H20T16557   5.724   1.112   5.592  0.8549 -0.7586  0.3935
  150SAPE   C3316558   4.746   1.573   7.086 -0.4281  0.4763  0.7863
  150SAPE   H3X16559   4.692   1.639   7.014 -0.0997  0.4464  0.5094
  150SAPE   H3Y16560   4.672   1.491   7.093 -1.0939  1.0302  0.4526
  150SAPE   C3416561   4.879   1.559   7.015 -0.1271  0.3912  0.5711
  150SAPE   H4X16562   4.918   1.461   7.049  0.2138 -0.3432 -1.7223
  150SAPE   H4Y16563   4.954   1.637   7.042  0.9910 -0.1975 -0.6827
  150SAPE   C3516564   4.869   1.565   6.862 -0.2393 -0.5370 -0.2265
  150SAPE   H5X16565   4.823   1.664   6.842  2.5084  1.0232  0.6637
  150SAPE   H5Y16566   4.816   1.490   6.800  1.6807 -2.5442  0.4196
  150SAPE   C3616567   5.004   1.588   6.799 -0.2014 -0.1101  0.6348
  150SAPE   H6X16568   5.059   1.491   6.805 -3.1065 -1.7941  3.2432
  150SAPE   H6Y16569   5.069   1.649   6.866 -0.2965 -0.4103  1.0043
  150SAPE   C3716570   5.003   1.652   6.658 -0.5424 -0.3352 -0.3810
  150SAPE   H7X16571   4.942   1.744   6.649  0.2053  0.0364 -2.1445
  150SAPE   H7Y16572   4.940   1.576   6.608  1.4707 -1.3843 -1.4509
  150SAPE   C3816573   5.140   1.663   6.579 -0.0167  0.4887 -0.2600
  150SAPE   H8X16574   5.199   1.571   6.599  0.4259  0.5505 -1.2121
  150SAPE   H8Y16575   5.198   1.742   6.631  1.6043  0.1283 -1.4315
  150SAPE   C3916576   5.098   1.679   6.433 -0.4038 -0.0152 -1.1915
  150SAPE   H9X16577   5.040   1.774   6.432 -0.5200 -0.0124  0.8629
  150SAPE   H9Y16578   5.024   1.604   6.399 -0.5871 -1.8386  2.6191
  150SAPE  C31016579   5.213   1.691   6.339 -0.2329 -0.1323 -0.4506
  150SAPE  H10X16580   5.235   1.585   6.313 -2.1811 -0.3457 -1.3960
  150SAPE  H10Y16581   5.298   1.743   6.387 -1.3180  0.9294  0.3790
  150SAPE  C31116582   5.186   1.774   6.216  0.4597 -0.4438  1.0412
  150SAPE  H11X16583   5.275   1.749   6.154 -0.5783  0.0723 -0.7265
  150SAPE  H11Y16584   5.188   1.883   6.238  0.2795 -0.2590  0.1954
  150SAPE  C31216585   5.055   1.741   6.137 -0.6678  0.2972  0.1889
  150SAPE  H12X16586   5.035   1.819   6.061  0.6334  0.7846  0.3196
  150SAPE  H12Y16587   4.970   1.737   6.209 -1.3786 -0.4411 -0.6716
  150SAPE  C31316588   5.064   1.601   6.073  0.4418  0.0251 -0.1285
  150SAPE  H13X16589   5.068   1.527   6.156  0.6227  0.5116  0.3059
  150SAPE  H13Y16590   5.161   1.589   6.020  0.5172  0.2192 -0.0395
  150SAPE  C31416591   4.953   1.576   5.971  0.4730 -0.0847  0.3911
  150SAPE  H14X16592   4.965   1.647   5.886  0.4834  2.1971  2.1771
  150SAPE  H14Y16593   4.852   1.597   6.012  0.1173 -1.2190  0.1107
  150SAPE  C31516594   4.951   1.435   5.909 -0.3330 -0.4903 -0.0464
  150SAPE  H15X16595   4.959   1.361   5.992  1.3710 -1.7651 -1.2909
  150SAPE  H15Y16596   5.041   1.415   5.848  0.4097  1.4189  0.3537
  150SAPE  C31616597   4.828   1.400   5.832 -0.1672 -0.8221 -1.0570
  150SAPE  H16X16598   4.752   1.406   5.913  1.2786 -0.9177  0.3485
  150SAPE  H16Y16599   4.822   1.294   5.799 -0.4254 -1.1333 -0.0459
  150SAPE  C31716600   4.777   1.502   5.729 -0.8345  0.4309 -0.5858
  150SAPE  H17X16601   4.823   1.599   5.757 -0.1887 -0.1459  0.4229
  150SAPE  H17Y16602   4.666   1.510   5.730 -0.8437  0.8475 -2.4240
  150SAPE  C31816603   4.823   1.483   5.580  0.5328  0.4834 -0.0458
  150SAPE  H18X16604   4.773   1.387   5.557  1.4886 -0.6738  2.3631
  150SAPE  H18Y16605   4.933   1.478   5.573  0.5749  1.2096  0.0047
  150SAPE  H18Z16606   4.784   1.566   5.517 -2.6174 -0.7311  0.1102
  151SAPE     N16607   3.247   1.608   7.194 -0.9895  0.1981 -0.0339
  151SAPE   HN116608   3.288   1.678   7.130 -0.3598  0.2798  0.4492
  151SAPE   HN216609   3.312   1.527   7.202 -0.7304  0.3704 -0.3837
  151SAPE   HN316610   3.154   1.575   7.162 -1.4649  0.3354  1.1602
  151SAPE   C1216611   3.222   1.688   7.320  0.5319  0.3025 -0.0302
  151SAPE  H12A16612   3.145   1.629   7.375 -0.0457 -0.3764 -1.5042
  151SAPE  H12B16613   3.184   1.787   7.289  1.9270  1.0518  0.5885
  151SAPE   C1116614   3.346   1.709   7.400  0.1320  0.7226 -0.4691
  151SAPE  H11A16615   3.385   1.611   7.436 -2.1206  0.9786  3.1786
  151SAPE  H11B16616   3.333   1.780   7.484 -0.0855 -0.0626  0.1712
  151SAPE     P16617   3.601   1.786   7.364 -0.3344 -0.2227 -0.1659
  151SAPE   O1316618   3.640   1.926   7.322 -0.0191 -0.4595 -0.2474
  151SAPE   O1416619   3.617   1.753   7.501  0.5133 -0.2562  0.1464
  151SAPE   O1216620   3.450   1.762   7.309  0.1168 -0.0263 -0.5558
  151SAPE   O1116621   3.687   1.686   7.276  0.0304  0.2696 -0.0364
  151SAPE    C116622   3.628   1.568   7.224 -0.2961  1.1768  0.5472
  151SAPE    HA16623   3.575   1.523   7.311  1.1284  1.4376  1.6037
  151SAPE    HB16624   3.541   1.586   7.158  0.2448  1.2215 -0.1599
  151SAPE    C216625   3.723   1.459   7.180 -0.0570 -0.0160  0.5984
  151SAPE    HS16626   3.787   1.438   7.268 -2.8617  0.5373  2.9338
  151SAPE   O2116627   3.791   1.535   7.072 -0.0993 -0.4780  0.5072
  151SAPE   C2116628   3.892   1.465   7.027  0.4965 -0.5799 -0.0551
  151SAPE   O2216629   3.941   1.374   7.088  0.0132 -0.4499  0.1112
  151SAPE   C2216630   3.930   1.503   6.884 -0.2798 -0.4845  0.2267
  151SAPE   H2R16631   3.848   1.536   6.816 -0.1154  0.0059  0.2617
  151SAPE   H2S16632   3.994   1.594   6.890  0.4102 -0.8324 -1.3967
  151SAPE    C316633   3.634   1.335   7.126  0.2452  0.5106 -0.3962
  151SAPE    HX16634   3.560   1.303   7.202  0.1591  0.6480 -0.4230
  151SAPE    HY16635   3.702   1.247   7.119  0.5661  0.5716  1.5330
  151SAPE   O3116636   3.579   1.359   6.992  0.0104 -0.1026 -0.3032
  151SAPE   C3116637   3.456   1.406   6.996 -0.6245  0.7080 -0.2731
  151SAPE   O3216638   3.378   1.396   7.086 -0.1013 -0.3712 -0.1759
  151SAPE   C3216639   3.435   1.464   6.863  0.2813 -0.3029  0.2133
  151SAPE   H2X16640   3.486   1.562   6.873 -2.0850  1.0112  0.1069
  151SAPE   H2Y16641   3.327   1.487   6.865  0.1272 -0.9202 -0.3758
  151SAPE   C2316642   4.003   1.394   6.799  0.7405 -0.4677 -0.1207
  151SAPE   H3R16643   3.941   1.302   6.796  1.5204 -1.1362  2.3148
  151SAPE   H3S16644   4.090   1.354   6.856 -0.4613 -2.6689  0.2692
  151SAPE   C2416645   4.050   1.439   6.656 -0.1456  0.3656  0.2079
  151SAPE   H4R16646   4.134   1.511   6.666  0.1341 -0.1889  2.2429
  151SAPE   H4S16647   3.959   1.473   6.602 -1.2046 -1.9615  0.4093
  151SAPE   C2516648   4.103   1.325   6.573  0.3591 -0.4059 -0.1896
  151SAPE   H5R16649   4.195   1.291   6.624  0.4436 -0.8337 -0.6252
  151SAPE   C2616650   4.056   1.278   6.460  0.3521 -0.8535  0.3270
  151SAPE   H6R16651   4.107   1.192   6.414  0.7753 -0.4842  0.1050
  151SAPE   C2716652   3.929   1.316   6.390 -0.5151  0.4411 -0.5272
  151SAPE   H7R16653   3.942   1.297   6.281 -0.7431 -1.1017 -0.3034
  151SAPE   H7S16654   3.907   1.425   6.393  2.7073  1.1862  1.4427
  151SAPE   C2816655   3.802   1.255   6.435  0.1824 -0.2514  0.0253
  151SAPE   H8R16656   3.776   1.255   6.542 -0.0193 -2.1293  0.0065
  151SAPE   C2916657   3.697   1.208   6.351 -0.1128  0.4532 -0.6488
  151SAPE   H9R16658   3.604   1.169   6.396 -0.6562 -1.6128 -3.3350
  151SAPE  C21016659   3.695   1.201   6.204 -0.4564 -0.3722 -0.2343
  151SAPE  H10R16660   3.658   1.102   6.168 -0.7440 -0.0291 -0.8954
  151SAPE  H10S16661   3.797   1.215   6.162 -1.4445 -0.7750 -2.9231
  151SAPE  C21116662   3.615   1.305   6.138  0.1114  0.0748  0.3180
  151SAPE  H11R16663   3.581   1.386   6.204 -0.8280  0.4518 -0.5805
  151SAPE  C21216664   3.607   1.334   6.003 -0.5457  0.1356  0.9906
  151SAPE  H12R16665   3.531   1.405   5.966  0.0075 -0.5371 -1.6481
  151SAPE  C21316666   3.649   1.234   5.896 -0.0300  0.2717 -0.4405
  151SAPE  H13R16667   3.558   1.225   5.832 -0.9050  1.7639  0.5370
  151SAPE  H13S16668   3.679   1.139   5.943 -0.5453  0.1192 -0.4125
  151SAPE  C21416669   3.760   1.278   5.818 -0.5819 -0.6281 -0.1016
  151SAPE  H14R16670   3.836   1.340   5.869 -1.3936  1.3951 -1.2389
  151SAPE  C21516671   3.762   1.262   5.684 -0.5044  0.5216  0.1444
  151SAPE  H15R16672   3.859   1.288   5.639 -0.6299  1.1259  0.2145
  151SAPE  C21616673   3.662   1.187   5.602 -1.2710 -0.1062  0.5182
  151SAPE  H16R16674   3.647   1.092   5.656  1.7278 -0.5162  0.7952
  151SAPE  H16S16675   3.716   1.160   5.508 -0.4950  1.5231  0.4617
  151SAPE  C21716676   3.539   1.275   5.561  0.4840  0.2045 -0.0354
  151SAPE  H17R16677   3.486   1.308   5.653  0.6119 -2.0368  0.9138
  151SAPE  H17S16678   3.468   1.219   5.496  0.3536  2.4383 -1.9410
  151SAPE  C21816679   3.585   1.398   5.478 -0.2174  0.1800  0.1586
  151SAPE  H18R16680   3.669   1.448   5.531  1.2991 -2.3049  0.2643
  151SAPE  H18S16681   3.499   1.468   5.468  1.1952  2.1649  1.0946
  151SAPE  C21916682   3.637   1.354   5.336 -0.1018  0.5876  0.6628
  151SAPE  H19R16683   3.635   1.243   5.326  0.3078  0.7237 -1.6817
  151SAPE  H19S16684   3.741   1.391   5.324 -0.3293  0.7171 -1.1982
  151SAPE  C22016685   3.564   1.408   5.222  0.5205  0.3671  0.3607
  151SAPE  H20R16686   3.566   1.518   5.231  1.9440  0.6107 -2.0859
  151SAPE  H20S16687   3.459   1.372   5.213  1.1563 -1.2363 -1.4091
  151SAPE  H20T16688   3.609   1.375   5.126  1.0982 -2.9243  1.6059
  151SAPE   C3316689   3.471   1.379   6.743  0.6462  0.2189 -1.0855
  151SAPE   H3X16690   3.423   1.279   6.737  3.4993 -1.3397 -0.0563
  151SAPE   H3Y16691   3.579   1.352   6.750  1.2409  2.7004  0.7401
  151SAPE   C3416692   3.441   1.445   6.613 -0.4360 -0.1045 -0.1740
  151SAPE   H4X16693   3.464   1.371   6.534 -0.5692  0.1609 -0.4635
  151SAPE   H4Y16694   3.508   1.531   6.589  0.3867 -0.5865  0.3713
  151SAPE   C3516695   3.301   1.499   6.602  0.5309 -0.2054  0.6363
  151SAPE   H5X16696   3.290   1.591   6.663 -0.7309  0.7515 -0.9347
  151SAPE   H5Y16697   3.231   1.420   6.636  0.0342 -0.2059 -0.3572
  151SAPE   C3616698   3.275   1.556   6.461 -0.2505  0.3871  0.3901
  151SAPE   H6X16699   3.335   1.649   6.449  1.8436 -0.7258  1.5692
  151SAPE   H6Y16700   3.170   1.589   6.447 -0.5693 -1.7261 -3.9191
  151SAPE   C3716701   3.311   1.465   6.337 -0.3206  0.8612  0.2596
  151SAPE   H7X16702   3.259   1.371   6.365 -0.2951  1.5456  2.8277
  151SAPE   H7Y16703   3.421   1.460   6.322 -0.3827 -2.4476  0.3047
  151SAPE   C3816704   3.252   1.510   6.200 -0.2025 -0.1266  0.4190
  151SAPE   H8X16705   3.317   1.585   6.152 -0.2700 -1.3109 -1.6007
  151SAPE   H8Y16706   3.154   1.560   6.219  0.4663  1.3783  0.1035
  151SAPE   C3916707   3.252   1.397   6.100  0.4612 -0.4491 -0.1570
  151SAPE   H9X16708   3.162   1.334   6.118  0.8548 -1.1460 -0.5503
  151SAPE   H9Y16709   3.337   1.326   6.105  0.3970 -0.8029 -2.6915
  151SAPE  C31016710   3.235   1.429   5.950 -0.0974 -0.4246 -0.7123
  151SAPE  H10X16711   3.330   1.464   5.905  0.6849 -0.4606  0.8252
  151SAPE  H10Y16712   3.160   1.510   5.945  2.2251  2.1697  2.5072
  151SAPE  C31116713   3.176   1.313   5.868 -0.2166  0.0025  1.2416
  151SAPE  H11X16714   3.114   1.250   5.936  0.2581 -1.8670  0.0159
  151SAPE  H11Y16715   3.257   1.247   5.831  1.3273  1.8062  1.2806
  151SAPE  C31216716   3.095   1.360   5.741  0.9592 -0.6481 -0.3131
  151SAPE  H12X16717   3.123   1.464   5.712 -2.2727 -0.3279 -2.9215
  151SAPE  H12Y16718   2.984   1.353   5.747  0.7527 -0.3186 -2.6809
  151SAPE  C31316719   3.133   1.268   5.626  0.0132  0.0336 -0.2720
  151SAPE  H13X16720   3.108   1.166   5.659 -1.3197  0.1642 -0.8116
  151SAPE  H13Y16721   3.241   1.286   5.607  0.0838  0.9572  0.8998
  151SAPE  C31416722   3.055   1.290   5.493  0.0662 -0.6044 -0.0107
  151SAPE  H14X16723   2.945   1.290   5.508 -0.1380 -0.3403 -1.3805
  151SAPE  H14Y16724   3.071   1.199   5.431 -1.4826 -1.6082  1.0003
  151SAPE  C31516725   3.084   1.421   5.423 -0.2392  0.3963 -0.8085
  151SAPE  H15X16726   3.098   1.496   5.504 -1.4701  1.9236 -1.9421
  151SAPE  H15Y16727   2.996   1.444   5.359 -2.1376 -2.4679  0.5756
  151SAPE  C31616728   3.212   1.421   5.342  0.1698 -0.1395  0.2194
  151SAPE  H16X16729   3.208   1.327   5.283  0.3905  0.3080 -0.5224
  151SAPE  H16Y16730   3.311   1.424   5.393  0.6463  0.4976 -0.7052
  151SAPE  C31716731   3.213   1.540   5.252  0.1550  0.3377  0.3083
  151SAPE  H17X16732   3.318   1.575   5.250 -0.6293  2.8384 -0.6378
  151SAPE  H17Y16733   3.151   1.624   5.291  0.8978  1.1856 -0.3262
  151SAPE  C31816734   3.171   1.502   5.111  0.1896  0.7006  0.0158
  151SAPE  H18X16735   3.172   1.592   5.046  1.0572 -0.2399 -1.3117
  151SAPE  H18Y16736   3.062   1.479   5.117  0.3219  0.1754  0.5746
  151SAPE  H18Z16737   3.223   1.416   5.064  0.3129  0.3560  0.7680
  152SAPE     N16738   4.842   2.243   8.028 -0.0352 -0.0246 -0.2502
  152SAPE   HN116739   4.800   2.306   8.100 -0.2057  0.8026 -1.0455
  152SAPE   HN216740   4.807   2.272   7.935  0.8203  0.9564 -0.2784
  152SAPE   HN316741   4.824   2.142   8.045 -2.9891  0.1767 -1.4905
  152SAPE   C1216742   4.989   2.265   8.043  0.8940  0.6582  0.3883
  152SAPE  H12A16743   5.039   2.166   8.044  0.3900  0.3986  0.5130
  152SAPE  H12B16744   5.006   2.323   8.137  0.2037  3.0413 -0.8559
  152SAPE   C1116745   5.042   2.362   7.936 -0.0807 -0.6042  0.3062
  152SAPE  H11A16746   4.964   2.436   7.909  0.7850 -0.1963 -1.2141
  152SAPE  H11B16747   5.063   2.316   7.837 -3.2458  2.5715 -2.1015
  152SAPE     P16748   5.303   2.426   7.924 -0.0763  0.0203  0.1935
  152SAPE   O1316749   5.382   2.538   7.978 -0.0626  0.0106 -0.1236
  152SAPE   O1416750   5.352   2.293   7.946 -0.4399  0.2321  0.6795
  152SAPE   O1216751   5.155   2.438   7.989  0.2021 -0.6038 -0.2050
  152SAPE   O1116752   5.271   2.441   7.774 -0.0602  0.1329  0.0500
  152SAPE    C116753   5.224   2.578   7.738  0.5650  0.0163  0.0847
  152SAPE    HA16754   5.130   2.600   7.792 -0.5723 -3.7416 -0.1169
  152SAPE    HB16755   5.303   2.656   7.742  1.6228 -0.6821 -3.2244
  152SAPE    C216756   5.187   2.579   7.590  0.1242 -0.0355  0.0409
  152SAPE    HS16757   5.112   2.661   7.596  0.9075  0.5841  2.6081
  152SAPE   O2116758   5.131   2.449   7.557  0.4270  0.0902  0.2518
  152SAPE   C2116759   5.035   2.459   7.475 -0.4075  0.3804 -0.3445
  152SAPE   O2216760   4.972   2.561   7.446  0.1012  0.3003  0.4184
  152SAPE   C2216761   5.002   2.320   7.436  0.3033 -0.3110 -0.0841
  152SAPE   H2R16762   5.007   2.244   7.517  2.7334 -1.7287 -1.4296
  152SAPE   H2S16763   4.896   2.322   7.404  0.4460 -0.1127 -0.5491
  152SAPE    C316764   5.298   2.618   7.496  0.5799 -0.4154  0.2115
  152SAPE    HX16765   5.364   2.529   7.501  1.3883  0.2392  2.7473
  152SAPE    HY16766   5.359   2.707   7.524  1.2029 -0.6226 -0.4665
  152SAPE   O3116767   5.240   2.632   7.363  0.0734  0.5778  0.8362
  152SAPE   C3116768   5.333   2.660   7.273 -0.0371  0.6148 -0.3418
  152SAPE   O3216769   5.453   2.674   7.293 -0.2108  0.6086 -0.2063
  152SAPE   C3216770   5.266   2.676   7.137 -0.6526  0.3415  0.4978
  152SAPE   H2X16771   5.194   2.761   7.142  0.5399  1.3120  3.6314
  152SAPE   H2Y16772   5.217   2.578   7.119  3.3066 -2.0098  1.2729
  152SAPE   C2316773   5.092   2.286   7.311  0.7503 -0.4413 -0.2850
  152SAPE   H3R16774   5.182   2.238   7.356  0.5387 -0.5031  0.0722
  152SAPE   H3S16775   5.120   2.364   7.237 -1.5107  1.4538  0.7509
  152SAPE   C2416776   5.025   2.184   7.221  0.0727  0.4347  0.4661
  152SAPE   H4R16777   4.941   2.239   7.174 -0.9520 -0.4854  1.1518
  152SAPE   H4S16778   4.971   2.105   7.277 -0.3479  1.4956  1.5963
  152SAPE   C2516779   5.102   2.126   7.103 -0.2770 -1.0662 -0.8821
  152SAPE   H5R16780   5.192   2.185   7.080  0.8575 -1.3941  2.1882
  152SAPE   C2616781   5.083   2.011   7.033  0.3722 -0.2714 -0.5492
  152SAPE   H6R16782   5.158   2.001   6.953  2.5772 -0.2683  1.4092
  152SAPE   C2716783   4.977   1.908   7.043  0.3432 -0.0685  0.3517
  152SAPE   H7R16784   4.996   1.828   7.117  2.0251  0.5676  0.6368
  152SAPE   H7S16785   4.983   1.846   6.951 -0.9723 -0.7788  0.7084
  152SAPE   C2816786   4.832   1.957   7.059 -0.5835  0.1829 -0.4504
  152SAPE   H8R16787   4.804   1.971   7.164  0.8233  1.8295 -0.2491
  152SAPE   C2916788   4.747   1.987   6.961 -0.3464  0.5454  0.1881
  152SAPE   H9R16789   4.639   2.000   6.980 -0.5020 -0.5965  0.1657
  152SAPE  C21016790   4.782   1.989   6.813  1.1325  0.2160 -0.1863
  152SAPE  H10R16791   4.702   1.931   6.762 -0.2050  1.1163  0.7880
  152SAPE  H10S16792   4.880   1.944   6.790  1.0346 -0.2492  0.2805
  152SAPE  C21116793   4.782   2.125   6.745  0.5709  0.2367  0.3709
  152SAPE  H11R16794   4.830   2.202   6.807  1.4517  0.8014 -0.9669
  152SAPE  C21216795   4.744   2.164   6.617 -0.0876  0.1001  0.1207
  152SAPE  H12R16796   4.777   2.265   6.588  1.3679 -0.3826  0.0253
  152SAPE  C21316797   4.681   2.083   6.506  0.5380 -0.6806 -0.1522
  152SAPE  H13R16798   4.673   2.151   6.418 -0.7495  0.6550  0.9430
  152SAPE  H13S16799   4.578   2.051   6.533  0.7060 -3.5117 -2.3184
  152SAPE  C21416800   4.763   1.958   6.475  0.0440 -0.6230 -0.2994
  152SAPE  H14R16801   4.860   1.963   6.527 -0.6913 -0.0586  1.0975
  152SAPE  C21516802   4.710   1.842   6.428 -0.1979 -0.4664 -0.5018
  152SAPE  H15R16803   4.779   1.759   6.407  0.2872  0.2256 -1.7575
  152SAPE  C21616804   4.570   1.828   6.376 -0.7447  0.0568 -0.5474
  152SAPE  H16R16805   4.498   1.899   6.420  0.2443 -0.0755  1.3656
  152SAPE  H16S16806   4.535   1.730   6.414 -3.0783  1.1267  0.2315
  152SAPE  C21716807   4.542   1.831   6.222 -0.2982 -0.1754  0.3502
  152SAPE  H17R16808   4.561   1.935   6.190 -0.8511 -0.1527  0.0829
  152SAPE  H17S16809   4.432   1.824   6.206 -0.5641  0.4188  1.6986
  152SAPE  C21816810   4.625   1.744   6.130 -0.1168  0.2582  0.0068
  152SAPE  H18R16811   4.612   1.636   6.154 -1.1560  0.8394  2.3397
  152SAPE  H18S16812   4.728   1.757   6.170 -0.5531 -1.3645  1.7985
  152SAPE  C21916813   4.604   1.779   5.980 -0.1376 -0.0847 -0.0645
  152SAPE  H19R16814   4.701   1.744   5.939  0.3174  0.0111  0.8980
  152SAPE  H19S16815   4.605   1.888   5.958 -2.8739  0.1396  0.5273
  152SAPE  C22016816   4.498   1.709   5.900  0.4225 -0.5435 -0.1004
  152SAPE  H20R16817   4.521   1.737   5.795 -1.5775  2.7247  0.1751
  152SAPE  H20S16818   4.394   1.736   5.931  1.1649  1.4781  0.7864
  152SAPE  H20T16819   4.509   1.599   5.904 -1.2096 -0.7270  0.0221
  152SAPE   C3316820   5.372   2.713   7.025 -0.7200 -0.5443 -0.1329
  152SAPE   H3X16821   5.451   2.638   7.048 -1.2617 -1.2527 -0.5412
  152SAPE   H3Y16822   5.416   2.814   7.042 -3.0041  0.3246  0.9524
  152SAPE   C3416823   5.334   2.696   6.886 -0.2034  0.1916 -0.0782
  152SAPE   H4X16824   5.278   2.789   6.861 -1.0235 -0.0746  0.7060
  152SAPE   H4Y16825   5.263   2.611   6.876 -0.3486  0.5126 -1.9569
  152SAPE   C3516826   5.457   2.688   6.792 -0.8522  0.2384 -0.3466
  152SAPE   H5X16827   5.515   2.597   6.820  3.0237  1.9088 -2.2210
  152SAPE   H5Y16828   5.524   2.775   6.812  0.0853 -0.3676 -0.7736
  152SAPE   C3616829   5.425   2.687   6.643  0.2280  0.7350  0.0164
  152SAPE   H6X16830   5.409   2.792   6.610  3.8415  2.2322  2.3575
  152SAPE   H6Y16831   5.333   2.625   6.635 -1.4536  3.0407  0.3448
  152SAPE   C3716832   5.534   2.628   6.548 -0.5345  0.4764 -0.1370
  152SAPE   H7X16833   5.568   2.527   6.577 -1.4554 -0.1370 -1.1439
  152SAPE   H7Y16834   5.626   2.690   6.558 -1.9613  2.8143 -0.7182
  152SAPE   C3816835   5.502   2.647   6.406 -0.6662 -0.1528  0.3926
  152SAPE   H8X16836   5.465   2.749   6.380  0.7633  0.2361 -0.1824
  152SAPE   H8Y16837   5.432   2.569   6.370  1.1518 -1.4974 -0.3821
  152SAPE   C3916838   5.633   2.626   6.308 -0.4219  0.2475  0.0535
  152SAPE   H9X16839   5.676   2.530   6.343  0.0282  0.5100  0.2220
  152SAPE   H9Y16840   5.705   2.709   6.325  0.2575 -0.3124 -0.0352
  152SAPE  C31016841   5.582   2.627   6.165  0.2289  0.2183  0.3055
  152SAPE  H10X16842   5.519   2.718   6.159  0.1885  0.1739  0.0453
  152SAPE  H10Y16843   5.509   2.544   6.156  0.1255  0.3312  0.0989
  152SAPE  C31116844   5.693   2.617   6.054  0.1766 -0.3237 -0.4504
  152SAPE  H11X16845   5.786   2.665   6.091 -1.0746  0.5221  1.7629
  152SAPE  H11Y16846   5.658   2.680   5.970 -0.1097  0.8158  0.4949
  152SAPE  C31216847   5.718   2.477   5.993  0.4173 -0.2179  0.0331
  152SAPE  H12X16848   5.618   2.436   5.967 -0.4427  0.8553  1.4880
  152SAPE  H12Y16849   5.767   2.413   6.068  1.4608  0.1409 -0.3182
  152SAPE  C31316850   5.790   2.489   5.861  0.5895 -0.3716  0.3500
  152SAPE  H13X16851   5.891   2.530   5.880  0.3448  0.8297 -0.7680
  152SAPE  H13Y16852   5.739   2.561   5.793  0.1796 -1.4182 -0.4696
  152SAPE  C31416853   5.804   2.360   5.775 -0.8439 -0.0400  0.4892
  152SAPE  H14X16854   5.707   2.309   5.759  0.0302 -0.9840 -2.5315
  152SAPE  H14Y16855   5.869   2.291   5.832  1.3996  1.4990 -0.0766
  152SAPE  C31516856   5.879   2.389   5.647 -0.0977  0.0924  0.2224
  152SAPE  H15X16857   5.878   2.293   5.590  0.8633  0.2346 -0.0411
  152SAPE  H15Y16858   5.986   2.415   5.657  0.2721 -1.4173  0.3986
  152SAPE  C31616859   5.831   2.489   5.540 -0.8013 -0.5034 -0.9448
  152SAPE  H16X16860   5.855   2.594   5.570 -2.2141 -0.1406 -1.0303
  152SAPE  H16Y16861   5.720   2.481   5.535 -0.9714 -0.8078  1.7250
  152SAPE  C31716862   5.880   2.473   5.397 -0.5997 -0.4631 -0.6195
  152SAPE  H17X16863   5.811   2.396   5.355  0.5748 -1.7023 -0.3581
  152SAPE  H17Y16864   5.983   2.432   5.394 -0.0833  0.8548 -1.2068
  152SAPE  C31816865   5.891   2.609   5.330  0.1107  0.1618  0.3250
  152SAPE  H18X16866   5.970   2.671   5.377  1.6160 -0.3978 -1.3275
  152SAPE  H18Y16867   5.796   2.665   5.333  0.6780  1.0976  1.9414
  152SAPE  H18Z16868   5.926   2.596   5.225  1.1278 -0.0142  0.6722
  153SAPE     N16869   5.764   1.367   7.441  0.1050 -0.4276  0.5271
  153SAPE   HN116870   5.684   1.363   7.507 -0.7487  2.6586 -0.1672
  153SAPE   HN216871   5.839   1.404   7.503  0.6609  0.1702 -0.4863
  153SAPE   HN316872   5.741   1.433   7.364 -2.5037  0.5530  2.0294
  153SAPE   C1216873   5.815   1.239   7.391  0.5682 -0.0996 -0.1042
  153SAPE  H12A16874   5.911   1.259   7.339 -0.5995 -0.1262 -2.4372
  153SAPE  H12B16875   5.745   1.193   7.317 -0.2264 -0.0064  0.5809
  153SAPE   C1116876   5.854   1.137   7.508 -0.3208  0.4179  0.0928
  153SAPE  H11A16877   5.916   1.191   7.583 -2.1206  0.1806  1.8313
  153SAPE  H11B16878   5.908   1.045   7.476 -1.3507 -0.8421  1.8549
  153SAPE     P16879   5.701   0.945   7.595  0.1631 -0.2037 -0.4399
  153SAPE   O1316880   5.801   0.874   7.676 -0.1160 -0.1245  0.2375
  153SAPE   O1416881   5.564   0.947   7.650  0.4225 -0.7285 -0.0383
  153SAPE   O1216882   5.738   1.095   7.572  0.8040  0.0595 -0.0603
  153SAPE   O1116883   5.679   0.866   7.463 -0.4742 -0.0471 -0.5503
  153SAPE    C116884   5.609   0.914   7.350  0.7672  0.5737 -0.3230
  153SAPE    HA16885   5.561   1.013   7.366  0.6575  0.1323  2.8855
  153SAPE    HB16886   5.680   0.924   7.266  0.5386  0.1185 -0.5767
  153SAPE    C216887   5.494   0.808   7.310  0.6203 -0.3732 -0.8295
  153SAPE    HS16888   5.448   0.784   7.409  3.9811  1.7505  1.4642
  153SAPE   O2116889   5.549   0.699   7.244  0.5622  0.6346  0.4895
  153SAPE   C2116890   5.468   0.595   7.222 -0.1387 -0.0767  0.0251
  153SAPE   O2216891   5.360   0.576   7.269 -0.4780  0.6411  0.1502
  153SAPE   C2216892   5.546   0.498   7.131 -0.1168  0.6014 -0.1761
  153SAPE   H2R16893   5.564   0.547   7.033  0.8895  0.7826  0.0932
  153SAPE   H2S16894   5.642   0.464   7.174 -1.5233 -0.7377  2.1825
  153SAPE    C316895   5.388   0.880   7.221  0.8321  0.4010 -0.8835
  153SAPE    HX16896   5.356   0.980   7.258 -0.3956 -0.3421  0.1494
  153SAPE    HY16897   5.292   0.825   7.228  1.0067  0.1755 -0.2060
  153SAPE   O3116898   5.434   0.887   7.083  0.6478 -0.4045 -0.0903
  153SAPE   C3116899   5.361   0.835   6.985 -0.1810 -0.3360 -0.0316
  153SAPE   O3216900   5.257   0.774   6.998  0.1579  0.5346  0.1613
  153SAPE   C3216901   5.428   0.882   6.856 -0.0974 -1.0656  0.2567
  153SAPE   H2X16902   5.539   0.879   6.868  0.2277  1.3162 -1.5373
  153SAPE   H2Y16903   5.408   0.991   6.853 -0.3892 -1.1308 -0.1866
  153SAPE   C2316904   5.466   0.369   7.077 -0.0840 -0.0775  0.6930
  153SAPE   H3R16905   5.403   0.328   7.159  0.8145 -2.2912  0.3479
  153SAPE   H3S16906   5.537   0.285   7.063 -0.2836 -0.3886  1.5165
  153SAPE   C2416907   5.383   0.402   6.960 -0.1542 -0.1900  0.0000
  153SAPE   H4R16908   5.445   0.421   6.869 -0.2016 -0.1911 -0.0326
  153SAPE   H4S16909   5.351   0.507   6.976  1.9464  0.7290 -1.3316
  153SAPE   C2516910   5.264   0.317   6.935 -0.2608  0.7768  0.2425
  153SAPE   H5R16911   5.174   0.358   6.982 -1.5260 -0.1156 -1.2977
  153SAPE   C2616912   5.258   0.219   6.841 -0.1344 -0.7013 -0.1427
  153SAPE   H6R16913   5.164   0.166   6.822 -1.8289  2.8143 -2.7590
  153SAPE   C2716914   5.379   0.174   6.765  0.1390  0.1307  0.3004
  153SAPE   H7R16915   5.471   0.203   6.820 -0.7541 -2.0755  3.2080
  153SAPE   H7S16916   5.379   0.224   6.666  0.6091  0.2739  0.3720
  153SAPE   C2816917   5.387   0.020   6.755 -0.1362 -0.7150 -0.4432
  153SAPE   H8R16918   5.380  -0.038   6.848  1.1996  2.0430  1.5130
  153SAPE   C2916919   5.389  -0.049   6.639 -0.1604 -0.2669 -1.0202
  153SAPE   H9R16920   5.377  -0.157   6.654 -0.2647  0.1445  3.1276
  153SAPE  C21016921   5.394   0.001   6.499  0.0493  0.1747  0.4076
  153SAPE  H10R16922   5.359   0.107   6.494  2.2169  0.9406  0.3864
  153SAPE  H10S16923   5.319  -0.055   6.441  2.1594 -1.2269 -1.1106
  153SAPE  C21116924   5.525   0.010   6.429  0.0209  0.6015  0.2571
  153SAPE  H11R16925   5.606   0.028   6.501 -0.1635  2.0246  0.1419
  153SAPE  C21216926   5.543  -0.019   6.300 -0.0582 -0.3885  0.8377
  153SAPE  H12R16927   5.644   0.003   6.262 -0.5030  1.1062  0.4592
  153SAPE  C21316928   5.433  -0.031   6.193  0.2584 -0.0076  0.1208
  153SAPE  H13R16929   5.369   0.056   6.218 -0.6547 -1.0155  1.4529
  153SAPE  H13S16930   5.369  -0.121   6.210 -0.0098  0.2871  0.7238
  153SAPE  C21416931   5.486  -0.029   6.053  0.1853 -0.1724  0.0618
  153SAPE  H14R16932   5.582  -0.080   6.039  0.7861  0.4603  1.6597
  153SAPE  C21516933   5.427   0.034   5.947 -0.3007 -0.0296 -0.0995
  153SAPE  H15R16934   5.485   0.033   5.854 -1.0673 -1.0801 -0.5901
  153SAPE  C21616935   5.315   0.127   5.949  0.8850  0.4182 -0.4392
  153SAPE  H16R16936   5.341   0.227   5.990  0.8347  0.2056  0.1151
  153SAPE  H16S16937   5.242   0.085   6.021  1.1807  0.1839 -0.2719
  153SAPE  C21716938   5.249   0.150   5.815  0.4253  1.2239 -0.5341
  153SAPE  H17R16939   5.146   0.192   5.819 -0.5437 -0.9381 -1.2800
  153SAPE  H17S16940   5.240   0.045   5.780  0.8664  0.1702  2.2466
  153SAPE  C21816941   5.323   0.235   5.712 -0.7287  0.1029  0.3663
  153SAPE  H18R16942   5.405   0.165   5.683 -0.1759  0.7013  0.4616
  153SAPE  H18S16943   5.375   0.324   5.754 -0.7664  0.0092  0.6090
  153SAPE  C21916944   5.228   0.267   5.595  0.0529  0.0990  0.1128
  153SAPE  H19R16945   5.154   0.338   5.637  0.5490 -0.6773  2.4562
  153SAPE  H19S16946   5.166   0.182   5.559  0.3139  0.6508 -1.7502
  153SAPE  C22016947   5.290   0.341   5.474 -0.1236  0.5374 -0.5472
  153SAPE  H20R16948   5.214   0.370   5.399 -0.0449  1.2319 -0.3686
  153SAPE  H20S16949   5.358   0.275   5.416  0.6368  1.7699 -1.1022
  153SAPE  H20T16950   5.343   0.430   5.515 -0.4621 -0.0551  1.2837
  153SAPE   C3316951   5.370   0.811   6.738  0.0912 -0.1179  0.0148
  153SAPE   H3X16952   5.261   0.832   6.733  0.1817  0.1394 -3.2439
  153SAPE   H3Y16953   5.378   0.701   6.753  0.1797  0.1449  2.1734
  153SAPE   C3416954   5.443   0.867   6.620 -0.1882  0.5736  1.2649
  153SAPE   H4X16955   5.552   0.843   6.629  0.3330  2.1059 -0.3043
  153SAPE   H4Y16956   5.431   0.977   6.614 -1.8915  0.3582  0.0834
  153SAPE   C3516957   5.413   0.808   6.471 -0.2935  0.0607 -0.2633
  153SAPE   H5X16958   5.312   0.846   6.443  0.8904  1.9281 -2.2645
  153SAPE   H5Y16959   5.409   0.698   6.478  0.1351 -0.0262 -1.2615
  153SAPE   C3616960   5.511   0.841   6.365 -0.5277  0.2119 -0.1046
  153SAPE   H6X16961   5.616   0.820   6.394 -0.2293  0.9054 -0.6574
  153SAPE   H6Y16962   5.524   0.948   6.339  0.1438 -0.0248 -0.7841
  153SAPE   C3716963   5.484   0.747   6.241 -0.4240 -0.0629  0.7471
  153SAPE   H7X16964   5.379   0.769   6.214 -0.0226  0.6405 -0.3563
  153SAPE   H7Y16965   5.498   0.642   6.272  0.5030  0.7433  3.2871
  153SAPE   C3816966   5.568   0.770   6.116 -0.6624 -0.5612  0.3876
  153SAPE   H8X16967   5.534   0.693   6.043  1.0917 -0.8128 -0.2074
  153SAPE   H8Y16968   5.678   0.759   6.131  0.1712  0.1451 -3.9051
  153SAPE   C3916969   5.557   0.903   6.042 -0.0170 -0.0994  0.1757
  153SAPE   H9X16970   5.581   0.995   6.100 -1.3807  0.5771 -0.2761
  153SAPE   H9Y16971   5.449   0.911   6.016 -0.0709 -0.3539  0.3255
  153SAPE  C31016972   5.635   0.922   5.912  0.3416 -0.4587 -0.7981
  153SAPE  H10X16973   5.743   0.923   5.938  0.5646  1.2255 -1.5970
  153SAPE  H10Y16974   5.615   1.026   5.878 -0.9707 -0.1451  0.7898
  153SAPE  C31116975   5.596   0.825   5.798  0.5057 -0.2626 -1.0036
  153SAPE  H11X16976   5.489   0.852   5.785  0.3707 -0.0454  0.3270
  153SAPE  H11Y16977   5.614   0.724   5.842  0.8184  0.3963  0.4578
  153SAPE  C31216978   5.667   0.843   5.662 -0.5467  0.0906  0.0972
  153SAPE  H12X16979   5.777   0.845   5.676 -0.7050 -0.5633  1.7171
  153SAPE  H12Y16980   5.632   0.938   5.617  0.2549 -0.1772 -1.1338
  153SAPE  C31316981   5.631   0.746   5.550  0.5755 -0.7338 -0.4344
  153SAPE  H13X16982   5.527   0.709   5.565  0.4159 -0.2127 -0.2366
  153SAPE  H13Y16983   5.694   0.654   5.548  1.0033 -0.4283 -2.1295
  153SAPE  C31416984   5.634   0.812   5.407  0.0850 -0.0300  0.3161
  153SAPE  H14X16985   5.556   0.891   5.400  0.0854 -0.0015  0.6095
  153SAPE  H14Y16986   5.605   0.737   5.331 -0.0407  1.8922 -1.6469
  153SAPE  C31516987   5.778   0.858   5.371  0.9321  0.5973 -0.4279
  153SAPE  H15X16988   5.817   0.920   5.455 -0.7604  1.8263 -0.4977
  153SAPE  H15Y16989   5.776   0.910   5.273  1.1543  0.1417 -0.6783
  153SAPE  C31616990   5.874   0.736   5.356 -0.4779 -0.0075 -0.1587
  153SAPE  H16X16991   5.811   0.650   5.323 -1.2932 -0.2192  1.8057
  153SAPE  H16Y16992   5.912   0.715   5.458 -0.3748 -3.1801 -0.7363
  153SAPE  C31716993   5.989   0.765   5.261  0.1144  0.0404  0.4934
  153SAPE  H17X16994   6.035   0.859   5.298  0.2520 -0.3576  1.3496
  153SAPE  H17Y16995   5.947   0.784   5.160  2.1906  1.0095 -0.2338
  153SAPE  C31816996   6.101   0.658   5.264 -0.0438 -0.7441  0.1028
  153SAPE  H18X16997   6.185   0.679   5.194 -0.9440 -0.9617 -1.0874
  153SAPE  H18Y16998   6.073   0.553   5.244  3.4073 -1.4965 -1.6255
  153SAPE  H18Z16999   6.133   0.661   5.370  0.4056  0.7232 -0.0464
  154SAPE     N17000   1.808   3.730   6.869 -0.5938  0.4674  0.1686
  154SAPE   HN117001   1.817   3.829   6.839 -1.4684  0.0257 -1.6580
  154SAPE   HN217002   1.859   3.671   6.800  2.6910 -0.0919  2.8207
  154SAPE   HN317003   1.711   3.701   6.894 -0.1770 -0.0265  1.3387
  154SAPE   C1217004   1.896   3.724   6.993 -0.0273 -0.8825  0.5835
  154SAPE  H12A17005   1.842   3.666   7.071 -1.1999 -0.2934  0.2236
  154SAPE  H12B17006   1.900   3.828   7.032  0.7459 -0.8195  0.3597
  154SAPE   C1117007   2.043   3.677   6.966 -0.4417 -0.7369 -0.3442
  154SAPE  H11A17008   2.077   3.628   7.060  1.5980  1.7713  0.3385
  154SAPE  H11B17009   2.103   3.770   6.962 -1.5213 -0.0459 -1.0104
  154SAPE     P17010   2.135   3.464   6.847  0.2006 -0.3414  0.0986
  154SAPE   O1317011   2.148   3.400   6.977 -0.2862  0.2874  0.3140
  154SAPE   O1417012   2.072   3.386   6.742  0.0060 -0.3257  0.4636
  154SAPE   O1217013   2.064   3.598   6.852 -0.8435 -0.2203 -0.0689
  154SAPE   O1117014   2.280   3.510   6.802 -0.4388  0.5026  0.4880
  154SAPE    C117015   2.310   3.538   6.666 -0.7034 -0.4953 -0.5269
  154SAPE    HA17016   2.258   3.463   6.601 -1.1433 -0.0620 -0.6816
  154SAPE    HB17017   2.278   3.639   6.635  1.4013  0.2064 -0.5696
  154SAPE    C217018   2.467   3.527   6.636 -0.3624  0.0283  0.1213
  154SAPE    HS17019   2.519   3.624   6.649  0.2393 -0.1115 -1.1787
  154SAPE   O2117020   2.492   3.474   6.503 -0.0144  0.1741 -0.6410
  154SAPE   C2117021   2.470   3.558   6.405  0.4354  0.0686 -0.7746
  154SAPE   O2217022   2.427   3.669   6.426  0.1829 -0.9720 -0.2612
  154SAPE   C2217023   2.495   3.496   6.271 -0.0916  0.2527 -0.4128
  154SAPE   H2R17024   2.575   3.419   6.281 -1.3578 -1.1860 -0.9842
  154SAPE   H2S17025   2.410   3.440   6.227 -0.1855 -1.9061  2.2614
  154SAPE    C317026   2.529   3.416   6.730  0.8667 -0.2620  0.4696
  154SAPE    HX17027   2.456   3.332   6.735  0.2926  0.2123  0.2099
  154SAPE    HY17028   2.541   3.460   6.832  1.6795  0.4199  0.0886
  154SAPE   O3117029   2.654   3.371   6.684 -0.3305  0.0014  0.2893
  154SAPE   C3117030   2.744   3.460   6.691 -0.1635 -0.2483 -0.4348
  154SAPE   O3217031   2.738   3.567   6.749  0.7835 -0.6035 -0.2893
  154SAPE   C3217032   2.877   3.410   6.635  0.1243  0.4065 -0.4255
  154SAPE   H2X17033   2.896   3.300   6.641  0.9811  0.5873  0.3810
  154SAPE   H2Y17034   2.953   3.459   6.699  1.1305 -2.0472  0.3857
  154SAPE   C2317035   2.545   3.605   6.170  0.2075  0.5672 -0.5154
  154SAPE   H3R17036   2.632   3.652   6.220  0.3903 -2.2545  2.1812
  154SAPE   H3S17037   2.462   3.677   6.151 -2.2539 -2.4150 -2.1201
  154SAPE   C2417038   2.581   3.543   6.035  0.3420  0.0359  0.5690
  154SAPE   H4R17039   2.648   3.456   6.050 -2.0135 -2.9216 -3.8203
  154SAPE   H4S17040   2.633   3.619   5.974  0.4664 -0.8370 -0.4480
  154SAPE   C2517041   2.467   3.491   5.958  0.2472 -0.3834  0.4449
  154SAPE   H5R17042   2.388   3.440   6.015  0.3698 -1.8827 -0.6737
  154SAPE   C2617043   2.454   3.508   5.821 -0.1132  0.5339  0.6055
  154SAPE   H6R17044   2.371   3.452   5.775  1.9563 -2.0909 -0.1753
  154SAPE   C2717045   2.552   3.575   5.744  0.0004 -0.0048  0.5834
  154SAPE   H7R17046   2.656   3.552   5.774  0.3769  0.8012 -0.0444
  154SAPE   H7S17047   2.534   3.685   5.751 -0.2428  0.1091 -1.2741
  154SAPE   C2817048   2.537   3.536   5.599 -0.1251  0.4517 -0.3192
  154SAPE   H8R17049   2.434   3.535   5.561  0.1357 -1.6487 -1.1004
  154SAPE   C2917050   2.635   3.504   5.506 -0.0300 -0.2434 -0.5056
  154SAPE   H9R17051   2.612   3.471   5.404  0.9623 -1.5827 -0.3291
  154SAPE  C21017052   2.781   3.490   5.548 -0.0162 -0.4238  0.9018
  154SAPE  H10R17053   2.822   3.537   5.640  2.6067 -0.1351 -0.3269
  154SAPE  H10S17054   2.836   3.539   5.464 -0.2097 -0.7918  0.5625
  154SAPE  C21117055   2.828   3.346   5.546  0.1987  0.1149 -0.8051
  154SAPE  H11R17056   2.830   3.298   5.645  0.6485 -0.1228 -0.9259
  154SAPE  C21217057   2.873   3.269   5.444 -0.5281 -0.1019  0.2726
  154SAPE  H12R17058   2.896   3.163   5.463 -1.4502 -0.3515  0.0484
  154SAPE  C21317059   2.877   3.303   5.298 -0.1055  0.4533 -0.0755
  154SAPE  H13R17060   2.897   3.412   5.291  0.4998  0.3572  0.0988
  154SAPE  H13S17061   2.772   3.289   5.263  0.3717  0.2529 -1.4807
  154SAPE  C21417062   2.973   3.224   5.212  0.0960 -0.0308  0.2503
  154SAPE  H14R17063   3.007   3.128   5.253 -0.2411 -0.3361 -0.1712
  154SAPE  C21517064   3.002   3.257   5.084 -0.5212  0.9506  0.0825
  154SAPE  H15R17065   3.067   3.189   5.025 -1.6404  1.2546 -1.5808
  154SAPE  C21617066   2.944   3.379   5.012 -0.8784 -0.2221  0.1723
  154SAPE  H16R17067   2.864   3.428   5.072 -0.6145  0.1491  0.2229
  154SAPE  H16S17068   2.916   3.354   4.908 -1.0151  1.4577 -0.2231
  154SAPE  C21717069   3.052   3.497   5.000  0.0481 -0.1692  0.2542
  154SAPE  H17R17070   3.011   3.595   4.969 -0.5418 -0.0953  1.2269
  154SAPE  H17S17071   3.137   3.464   4.937  0.5159 -0.7115  1.1477
  154SAPE  C21817072   3.116   3.535   5.138  0.2801 -0.3689  0.4245
  154SAPE  H18R17073   3.157   3.440   5.176  0.0788 -1.0250 -0.9211
  154SAPE  H18S17074   3.043   3.572   5.213  1.0032  0.0212  0.9544
  154SAPE  C21917075   3.227   3.648   5.141  0.0259  1.3400 -0.1772
  154SAPE  H19R17076   3.169   3.727   5.088  0.7083  1.3315 -0.9667
  154SAPE  H19S17077   3.312   3.605   5.084  0.4268  1.8688  0.0134
  154SAPE  C22017078   3.263   3.689   5.281  0.1425  0.0252  1.0193
  154SAPE  H20R17079   3.340   3.769   5.278 -0.0262  0.3062 -3.8631
  154SAPE  H20S17080   3.298   3.597   5.332  0.5974  0.1625  0.9580
  154SAPE  H20T17081   3.170   3.731   5.327 -0.3215  0.9053 -0.6702
  154SAPE   C3317082   2.900   3.459   6.491  0.0203 -0.1415  0.3262
  154SAPE   H3X17083   2.891   3.567   6.470 -0.8311 -0.2864 -0.0836
  154SAPE   H3Y17084   2.824   3.406   6.430  0.8665 -0.3414 -0.5831
  154SAPE   C3417085   3.039   3.405   6.444  0.1597 -0.5208 -0.2954
  154SAPE   H4X17086   3.054   3.306   6.492 -3.7909 -1.3920 -0.5125
  154SAPE   H4Y17087   3.120   3.475   6.474 -0.0501  0.1094 -1.1578
  154SAPE   C3517088   3.041   3.388   6.290 -0.0964  0.1660  0.6002
  154SAPE   H5X17089   2.982   3.297   6.267 -1.0434  1.4515 -2.5073
  154SAPE   H5Y17090   3.137   3.347   6.254 -1.4525 -1.5324 -1.2261
  154SAPE   C3617091   2.997   3.511   6.210  0.7910 -0.1484  0.2025
  154SAPE   H6X17092   3.051   3.592   6.262 -1.0113 -1.0278  3.7650
  154SAPE   H6Y17093   2.890   3.532   6.232  1.4193  0.9180  2.4788
  154SAPE   C3717094   3.008   3.502   6.052 -0.1100 -0.5733  0.2887
  154SAPE   H7X17095   2.980   3.600   6.008 -0.0603 -0.3306  0.7915
  154SAPE   H7Y17096   2.941   3.421   6.017  1.6165 -2.4339  1.1042
  154SAPE   C3817097   3.151   3.467   6.002 -0.3652  0.6834  0.2085
  154SAPE   H8X17098   3.166   3.360   6.029 -2.3101  0.1230 -0.7140
  154SAPE   H8Y17099   3.234   3.530   6.040  1.7104 -0.7416 -1.6596
  154SAPE   C3917100   3.163   3.461   5.847  0.1171  0.6589 -0.4020
  154SAPE   H9X17101   3.267   3.481   5.815  0.9839 -2.4382  0.1865
  154SAPE   H9Y17102   3.100   3.547   5.816  2.2746  1.9405 -1.4339
  154SAPE  C31017103   3.115   3.325   5.797  0.3886 -0.2885 -0.0344
  154SAPE  H10X17104   3.005   3.327   5.781  0.1556 -2.4499  0.9384
  154SAPE  H10Y17105   3.120   3.240   5.869 -2.1224 -0.6642 -0.1947
  154SAPE  C31117106   3.165   3.290   5.654 -0.1060  0.0060 -0.5912
  154SAPE  H11X17107   3.124   3.356   5.575 -3.1934  1.5099  2.0307
  154SAPE  H11Y17108   3.125   3.189   5.629  0.0150 -0.6972  1.8374
  154SAPE  C31217109   3.318   3.282   5.646  0.3344  0.3089  0.5762
  154SAPE  H12X17110   3.347   3.233   5.741 -0.1823 -0.0690  0.5444
  154SAPE  H12Y17111   3.361   3.384   5.654 -0.8976  0.8805  0.1340
  154SAPE  C31317112   3.368   3.209   5.520 -0.0577 -0.0379 -0.1526
  154SAPE  H13X17113   3.325   3.107   5.518 -2.5430  0.9403 -1.0742
  154SAPE  H13Y17114   3.478   3.197   5.523 -0.1124 -0.3617  0.6369
  154SAPE  C31417115   3.337   3.278   5.384  0.3269 -0.6753  0.0524
  154SAPE  H14X17116   3.385   3.377   5.392  1.6918 -1.1707 -1.3913
  154SAPE  H14Y17117   3.227   3.296   5.380  0.4149 -0.3790 -1.4707
  154SAPE  C31517118   3.401   3.202   5.267  0.3711  0.2407  0.0638
  154SAPE  H15X17119   3.506   3.170   5.286  0.4090 -0.3440 -1.0006
  154SAPE  H15Y17120   3.416   3.258   5.172 -0.3331 -1.1337 -0.8999
  154SAPE  C31617121   3.318   3.084   5.202  0.5625 -0.0971  0.8019
  154SAPE  H16X17122   3.247   3.128   5.130  0.0242  0.7670  1.8335
  154SAPE  H16Y17123   3.262   3.032   5.283 -1.0870  0.8632  0.3136
  154SAPE  C31717124   3.398   2.980   5.118  0.7217 -0.3533 -0.1469
  154SAPE  H17X17125   3.485   3.035   5.077  0.8556 -0.1910  0.3455
  154SAPE  H17Y17126   3.334   2.944   5.034  1.6091  0.4641 -1.1993
  154SAPE  C31817127   3.447   2.862   5.205 -0.1999 -0.3027 -0.6410
  154SAPE  H18X17128   3.483   2.895   5.305 -0.5372  0.7298 -0.8399
  154SAPE  H18Y17129   3.521   2.803   5.148  0.9993  0.8869 -0.3706
  154SAPE  H18Z17130   3.364   2.794   5.235  0.4613 -0.9409 -0.2428
  155SAPE     N17131   4.102   2.453   7.646 -0.6433  0.0165  0.1558
  155SAPE   HN117132   4.153   2.542   7.667  0.1105 -0.5496  0.7662
  155SAPE   HN217133   4.009   2.486   7.615 -0.3741  2.8704  1.9404
  155SAPE   HN317134   4.114   2.378   7.716  1.2345 -2.1155 -2.2703
  155SAPE   C1217135   4.151   2.375   7.532 -1.0113  0.0413  0.2934
  155SAPE  H12A17136   4.145   2.449   7.449  2.3883 -0.4185 -0.4741
  155SAPE  H12B17137   4.082   2.289   7.520 -0.4676 -0.1922 -1.4032
  155SAPE   C1117138   4.299   2.335   7.556  0.1302 -0.2077  0.5175
  155SAPE  H11A17139   4.338   2.266   7.478 -1.1553  0.6329 -0.9196
  155SAPE  H11B17140   4.305   2.286   7.656  1.1632  0.3179  0.7233
  155SAPE     P17141   4.445   2.524   7.439 -0.2422  0.0052 -0.0709
  155SAPE   O1317142   4.385   2.656   7.428 -0.2622 -0.7155  0.4034
  155SAPE   O1417143   4.591   2.529   7.447 -0.0127  0.1845 -0.1009
  155SAPE   O1217144   4.385   2.455   7.563  0.1223  0.0606 -1.3125
  155SAPE   O1117145   4.396   2.441   7.315 -0.1007 -0.0061 -0.0956
  155SAPE    C117146   4.474   2.345   7.240  0.2086 -0.0726 -0.1491
  155SAPE    HA17147   4.568   2.317   7.293  1.0167 -1.6188 -2.2548
  155SAPE    HB17148   4.419   2.251   7.224 -1.3302  0.7697  0.0302
  155SAPE    C217149   4.523   2.410   7.105 -0.2734 -0.2999  0.2518
  155SAPE    HS17150   4.585   2.491   7.147  1.0571 -2.9402  3.9099
  155SAPE   O2117151   4.406   2.455   7.018  0.7130 -0.0784 -0.2302
  155SAPE   C2117152   4.430   2.548   6.939  0.4152  0.1573 -0.3649
  155SAPE   O2217153   4.534   2.619   6.939  0.2933  0.3050  0.5650
  155SAPE   C2217154   4.323   2.556   6.824  0.0422  0.4803 -0.4013
  155SAPE   H2R17155   4.219   2.559   6.864  0.4406  0.1577  0.7134
  155SAPE   H2S17156   4.347   2.652   6.774  2.7910 -1.1086 -2.3875
  155SAPE    C317157   4.615   2.309   7.030 -0.5029  0.0351  0.1422
  155SAPE    HX17158   4.553   2.225   6.992  0.0314 -0.2257 -0.1608
  155SAPE    HY17159   4.685   2.277   7.111 -2.8080 -1.3721  1.7096
  155SAPE   O3117160   4.682   2.378   6.917  0.3163  0.6937  0.3695
  155SAPE   C3117161   4.783   2.452   6.963 -0.2225 -0.0673  0.2529
  155SAPE   O3217162   4.811   2.475   7.077  0.6302  0.1666  0.2802
  155SAPE   C3217163   4.870   2.493   6.838  0.5283 -0.6496 -0.5973
  155SAPE   H2X17164   4.861   2.604   6.837  0.5177 -0.6345  0.4041
  155SAPE   H2Y17165   4.823   2.441   6.752 -1.6506 -0.2443  0.2780
  155SAPE   C2317166   4.358   2.455   6.718 -0.1313  0.3860 -0.4269
  155SAPE   H3R17167   4.280   2.443   6.641 -0.7167  3.0469 -0.3336
  155SAPE   H3S17168   4.361   2.354   6.764  2.7953  1.3063  1.7388
  155SAPE   C2417169   4.489   2.470   6.644  0.6744  0.8646 -0.2895
  155SAPE   H4R17170   4.514   2.369   6.607 -0.0789 -0.3987  2.3598
  155SAPE   H4S17171   4.568   2.496   6.718  0.9024  0.7138 -0.4825
  155SAPE   C2517172   4.482   2.568   6.531  0.5333 -0.5257  0.1323
  155SAPE   H5R17173   4.495   2.671   6.567  0.2530  0.1621 -1.6278
  155SAPE   C2617174   4.455   2.554   6.398 -0.0012 -0.3343 -0.4022
  155SAPE   H6R17175   4.462   2.648   6.342 -0.1625  0.8625  1.4773
  155SAPE   C2717176   4.428   2.426   6.329 -0.1110  0.4182  0.0139
  155SAPE   H7R17177   4.342   2.379   6.381 -0.3018 -1.0118 -1.4816
  155SAPE   H7S17178   4.511   2.351   6.334 -2.9409 -2.8845  2.4558
  155SAPE   C2817179   4.384   2.439   6.182  0.1921  0.0925  0.6728
  155SAPE   H8R17180   4.287   2.492   6.182  0.4197  0.5170  0.0794
  155SAPE   C2917181   4.424   2.369   6.069 -0.1741 -0.3820 -0.6180
  155SAPE   H9R17182   4.389   2.401   5.970 -1.1804  2.0597  0.4536
  155SAPE  C21017183   4.536   2.270   6.070 -0.0762 -0.5888 -0.4235
  155SAPE  H10R17184   4.500   2.199   6.147 -0.9181  2.3515  2.1123
  155SAPE  H10S17185   4.620   2.309   6.130  0.5083 -0.8627 -1.0571
  155SAPE  C21117186   4.574   2.211   5.941  0.2184 -0.2513 -0.2386
  155SAPE  H11R17187   4.491   2.181   5.874 -1.4092 -2.4761  2.5451
  155SAPE  C21217188   4.700   2.213   5.898  0.1938  1.1318  0.0311
  155SAPE  H12R17189   4.717   2.157   5.805 -2.2936 -0.6231  0.5313
  155SAPE  C21317190   4.825   2.246   5.977 -0.2430 -0.0459 -0.2782
  155SAPE  H13R17191   4.843   2.354   5.995  1.2584 -0.3648  0.2899
  155SAPE  H13S17192   4.918   2.217   5.924 -0.1319  2.1157 -1.3772
  155SAPE  C21417193   4.840   2.169   6.111  0.3517 -0.3652  0.2621
  155SAPE  H14R17194   4.778   2.078   6.118 -0.7454  0.4059  1.0055
  155SAPE  C21517195   4.894   2.215   6.222 -0.6339  0.0411 -0.7032
  155SAPE  H15R17196   4.906   2.144   6.305  1.3137  1.4816  0.3034
  155SAPE  C21617197   4.951   2.355   6.247  0.6183 -0.0753  0.1451
  155SAPE  H16R17198   4.924   2.422   6.162  1.3695 -2.0270 -1.7338
  155SAPE  H16S17199   5.062   2.350   6.258  0.6577  1.0767  0.4576
  155SAPE  C21717200   4.882   2.405   6.376  0.1333  0.0844 -0.9015
  155SAPE  H17R17201   4.920   2.344   6.461 -0.6293  0.8195 -0.0035
  155SAPE  H17S17202   4.772   2.394   6.368 -0.1811  1.8675  0.4051
  155SAPE  C21817203   4.907   2.550   6.415  0.5561 -0.3936 -0.5382
  155SAPE  H18R17204   4.838   2.574   6.498  1.8006  1.6077 -0.0117
  155SAPE  H18S17205   4.869   2.611   6.330 -1.3245 -0.8333 -0.0554
  155SAPE  C21917206   5.040   2.580   6.473  0.1039 -0.3222 -0.4906
  155SAPE  H19R17207   5.125   2.560   6.404  1.4893 -2.2610  1.6305
  155SAPE  H19S17208   5.063   2.507   6.554  1.4156  2.2792  1.6320
  155SAPE  C22017209   5.047   2.713   6.549 -0.1207  0.2187  0.0836
  155SAPE  H20R17210   5.014   2.705   6.655 -0.4571  1.5008  0.0971
  155SAPE  H20S17211   4.978   2.780   6.492  0.2671  1.0557  0.5735
  155SAPE  H20T17212   5.150   2.752   6.560 -0.9597  1.9683  2.9377
  155SAPE   C3317213   5.025   2.467   6.849  0.0384 -0.2545 -0.7499
  155SAPE   H3X17214   5.057   2.486   6.954 -0.4218  0.0687 -0.6672
  155SAPE   H3Y17215   5.061   2.550   6.785 -0.7824  0.5802 -0.1530
  155SAPE   C3417216   5.087   2.337   6.798  0.1011 -0.4038  0.4223
  155SAPE   H4X17217   5.028   2.307   6.709 -0.4101 -0.5496  0.8017
  155SAPE   H4Y17218   5.083   2.266   6.884  4.5709  0.6445  1.7366
  155SAPE   C3517219   5.238   2.357   6.774  0.4318  0.3599  0.5071
  155SAPE   H5X17220   5.294   2.376   6.869  1.2177  0.0664  0.1081
  155SAPE   H5Y17221   5.255   2.451   6.717  2.1730  0.8123  1.6526
  155SAPE   C3617222   5.298   2.228   6.706  0.4027 -0.4448  0.0828
  155SAPE   H6X17223   5.306   2.149   6.784 -0.1239 -1.7673 -1.1672
  155SAPE   H6Y17224   5.403   2.251   6.676  0.1371  0.8984  0.1204
  155SAPE   C3717225   5.233   2.163   6.587  0.2255  0.3710 -0.7161
  155SAPE   H7X17226   5.125   2.142   6.605  0.4177  0.3399  0.4470
  155SAPE   H7Y17227   5.285   2.067   6.569  2.0723  1.0543  0.6605
  155SAPE   C3817228   5.250   2.241   6.455 -0.1513 -0.3655  0.9996
  155SAPE   H8X17229   5.220   2.347   6.461  1.1203  0.0992 -0.3414
  155SAPE   H8Y17230   5.177   2.206   6.379 -2.1142 -2.3431  3.6029
  155SAPE   C3917231   5.389   2.228   6.391  0.0260  0.6906 -0.4849
  155SAPE   H9X17232   5.425   2.123   6.392 -0.6898  0.4315 -0.9234
  155SAPE   H9Y17233   5.460   2.293   6.447  0.5591  0.8539 -1.3437
  155SAPE  C31017234   5.371   2.275   6.243 -0.2971 -0.6610 -0.1683
  155SAPE  H10X17235   5.474   2.305   6.214  0.1791 -0.3660  1.7290
  155SAPE  H10Y17236   5.303   2.363   6.233 -1.1807 -1.2954  0.1263
  155SAPE  C31117237   5.331   2.168   6.145  0.2724 -0.4945  0.5256
  155SAPE  H11X17238   5.226   2.134   6.155 -0.3070  1.7772  3.3677
  155SAPE  H11Y17239   5.411   2.092   6.161  1.6029  1.2024  2.4785
  155SAPE  C31217240   5.350   2.209   6.003 -0.0821 -0.0409 -0.2800
  155SAPE  H12X17241   5.413   2.138   5.946 -0.7458  1.4277 -3.0247
  155SAPE  H12Y17242   5.405   2.305   6.015  2.8871 -1.7856  1.4678
  155SAPE  C31317243   5.225   2.227   5.912  0.0180 -0.4052 -0.0683
  155SAPE  H13X17244   5.163   2.307   5.957  0.3494  0.5373 -1.2485
  155SAPE  H13Y17245   5.161   2.136   5.918 -2.5908  1.2544 -0.8534
  155SAPE  C31417246   5.252   2.243   5.758 -0.0463  0.4125 -0.6086
  155SAPE  H14X17247   5.161   2.294   5.720 -0.6913  0.4437  0.8804
  155SAPE  H14Y17248   5.262   2.140   5.719  1.1463  0.0955  0.4714
  155SAPE  C31517249   5.376   2.317   5.721  0.4162 -0.0930 -0.0479
  155SAPE  H15X17250   5.461   2.261   5.764  0.8254 -0.2426 -1.0348
  155SAPE  H15Y17251   5.381   2.416   5.771 -0.9888 -1.2035  2.4753
  155SAPE  C31617252   5.400   2.333   5.565 -0.1367 -0.6885  0.3178
  155SAPE  H16X17253   5.357   2.257   5.496 -2.7974  2.5325 -1.9027
  155SAPE  H16Y17254   5.509   2.323   5.547  0.0122  1.1552 -0.0389
  155SAPE  C31717255   5.361   2.467   5.507 -0.2705  0.4088  0.8705
  155SAPE  H17X17256   5.400   2.546   5.575  1.0837  0.1946  0.3585
  155SAPE  H17Y17257   5.253   2.483   5.528 -1.2595 -0.7078 -2.7332
  155SAPE  C31817258   5.392   2.485   5.360 -0.4313  0.2938  0.3766
  155SAPE  H18X17259   5.370   2.589   5.328 -1.2527  0.3563  1.0943
  155SAPE  H18Y17260   5.338   2.404   5.306  0.6237  0.0249 -0.2954
  155SAPE  H18Z17261   5.502   2.470   5.352 -0.2364  1.4752  0.6663
  156SAPE     N17262   5.867   2.831   7.591 -0.1069 -0.4653 -0.6038
  156SAPE   HN117263   5.876   2.785   7.499  1.7388 -1.2930 -0.0513
  156SAPE   HN217264   5.770   2.820   7.627  0.2863  2.3708  1.7434
  156SAPE   HN317265   5.888   2.932   7.580 -2.2572  0.2613  1.1135
  156SAPE   C1217266   5.954   2.759   7.684 -0.5183 -0.1621  0.0697
  156SAPE  H12A17267   5.901   2.769   7.781 -2.6154  0.2587 -1.0489
  156SAPE  H12B17268   6.057   2.800   7.688 -0.2744 -0.7210 -0.3419
  156SAPE   C1117269   5.946   2.613   7.645 -0.1153  0.0204  0.6614
  156SAPE  H11A17270   5.850   2.570   7.682 -0.8533  0.6037 -0.5217
  156SAPE  H11B17271   6.022   2.563   7.710 -0.2778 -0.4393  0.5027
  156SAPE     P17272   6.085   2.518   7.438  0.1850  0.1071 -0.0915
  156SAPE   O1317273   6.201   2.518   7.528 -0.2359 -0.1221  0.1651
  156SAPE   O1417274   6.049   2.377   7.389 -0.0053 -0.3655  0.9299
  156SAPE   O1217275   5.961   2.589   7.502 -0.4563  0.5047 -0.5766
  156SAPE   O1117276   6.111   2.610   7.312  0.5243  0.4638 -0.4277
  156SAPE    C117277   6.003   2.650   7.227  0.2944 -0.8160  0.0803
  156SAPE    HA17278   5.909   2.660   7.285 -0.8795  0.9623 -1.9712
  156SAPE    HB17279   6.017   2.749   7.179 -0.3489 -0.4725  0.5872
  156SAPE    C217280   5.970   2.545   7.119  0.3266  0.4424 -0.6788
  156SAPE    HS17281   5.937   2.454   7.174  2.4494  0.2534  0.3842
  156SAPE   O2117282   6.085   2.527   7.031 -0.3364 -0.1999 -1.0852
  156SAPE   C2117283   6.094   2.407   6.975 -1.0628 -0.0104  0.0405
  156SAPE   O2217284   6.037   2.308   7.008  0.5137 -0.4680 -0.2025
  156SAPE   C2217285   6.213   2.413   6.884 -0.5921 -0.4560  0.1719
  156SAPE   H2R17286   6.205   2.496   6.811 -1.1067 -0.5426  0.1234
  156SAPE   H2S17287   6.297   2.436   6.952 -1.9197  0.3478  1.6018
  156SAPE    C317288   5.848   2.587   7.033 -0.4239 -0.5734  0.3805
  156SAPE    HX17289   5.893   2.663   6.967  0.2799 -2.4365 -1.3719
  156SAPE    HY17290   5.770   2.611   7.108 -1.8256 -0.5228 -1.0407
  156SAPE   O3117291   5.809   2.485   6.941 -0.2338 -0.1459  0.1204
  156SAPE   C3117292   5.710   2.411   6.981  0.3585  0.0641  0.0047
  156SAPE   O3217293   5.663   2.410   7.095  0.4345  0.2754 -0.0205
  156SAPE   C3217294   5.653   2.332   6.864  0.3251  0.0315 -0.1430
  156SAPE   H2X17295   5.607   2.403   6.791  0.5249  0.6444  0.3170
  156SAPE   H2Y17296   5.581   2.258   6.904  1.9779 -1.4615  0.1801
  156SAPE   C2317297   6.232   2.284   6.806  0.4875  0.1143  0.3642
  156SAPE   H3R17298   6.145   2.272   6.738  0.5185 -1.2118  0.5204
  156SAPE   H3S17299   6.228   2.197   6.876 -2.1069  0.3839  0.6414
  156SAPE   C2417300   6.356   2.288   6.712  0.3802  0.1675  0.1649
  156SAPE   H4R17301   6.445   2.277   6.776  0.5347  0.1575 -0.0506
  156SAPE   H4S17302   6.357   2.384   6.656  0.7224  0.2884  0.3774
  156SAPE   C2517303   6.348   2.175   6.611 -0.4038  0.4716 -0.5118
  156SAPE   H5R17304   6.345   2.081   6.668  0.3396  0.5811 -0.2729
  156SAPE   C2617305   6.344   2.179   6.478 -0.4143 -0.7811  0.2678
  156SAPE   H6R17306   6.347   2.085   6.421 -0.5230 -0.4548 -0.2744
  156SAPE   C2717307   6.366   2.305   6.390 -0.1290 -0.0433 -0.0282
  156SAPE   H7R17308   6.434   2.283   6.306  0.9909  1.5449  0.4151
  156SAPE   H7S17309   6.422   2.387   6.439 -0.1465  0.8463 -1.4453
  156SAPE   C2817310   6.224   2.348   6.345 -0.0619  0.5123 -0.1468
  156SAPE   H8R17311   6.164   2.384   6.430  0.1894 -1.9800  1.1760
  156SAPE   C2917312   6.165   2.326   6.227 -0.2640 -0.3763  0.4522
  156SAPE   H9R17313   6.060   2.360   6.220 -0.2883 -0.7581 -1.9848
  156SAPE  C21017314   6.227   2.268   6.106  0.0951  0.1438 -0.6324
  156SAPE  H10R17315   6.161   2.186   6.073  1.9979 -1.2145 -1.2348
  156SAPE  H10S17316   6.330   2.233   6.126 -0.1525  0.1760  0.8016
  156SAPE  C21117317   6.236   2.380   6.002 -0.5283 -0.0746  0.5506
  156SAPE  H11R17318   6.159   2.458   6.011  0.7578  1.3051  0.1318
  156SAPE  C21217319   6.326   2.393   5.899 -0.6819  0.8090  0.3235
  156SAPE  H12R17320   6.306   2.477   5.830  0.3703 -0.0538 -1.0843
  156SAPE  C21317321   6.443   2.300   5.876  0.3317  0.5306 -0.2275
  156SAPE  H13R17322   6.472   2.250   5.971  0.9877 -0.0104 -0.6997
  156SAPE  H13S17323   6.523   2.364   5.834  0.5934  0.3113 -0.0661
  156SAPE  C21417324   6.397   2.197   5.775  0.1959 -0.6833 -0.2273
  156SAPE  H14R17325   6.293   2.161   5.784  0.0393 -0.0162  0.8097
  156SAPE  C21517326   6.471   2.159   5.666 -0.6371 -0.5523 -0.3897
  156SAPE  H15R17327   6.446   2.074   5.602  0.0239 -0.7486 -0.3963
  156SAPE  C21617328   6.617   2.201   5.636 -0.5058  0.0918  0.0072
  156SAPE  H16R17329   6.691   2.119   5.639 -0.2556  0.3299  0.7038
  156SAPE  H16S17330   6.653   2.276   5.710  0.3367  1.3894 -1.6418
  156SAPE  C21717331   6.623   2.277   5.494 -0.2717 -0.1279 -0.3765
  156SAPE  H17R17332   6.549   2.360   5.494 -1.6639 -1.2658 -2.8853
  156SAPE  H17S17333   6.579   2.207   5.420 -0.4996  0.6213 -0.9557
  156SAPE  C21817334   6.756   2.340   5.460 -0.0408 -0.3573 -0.2252
  156SAPE  H18R17335   6.837   2.264   5.468  2.0231  1.9046  2.4869
  156SAPE  H18S17336   6.774   2.413   5.542 -0.1332 -0.9382  0.3266
  156SAPE  C21917337   6.756   2.410   5.324 -0.3779 -0.3209 -0.3902
  156SAPE  H19R17338   6.676   2.486   5.322  0.3117  0.7921  3.7962
  156SAPE  H19S17339   6.728   2.335   5.248 -1.5390  0.4178 -0.7098
  156SAPE  C22017340   6.902   2.466   5.302 -0.2165 -0.5595 -0.4156
  156SAPE  H20R17341   6.918   2.543   5.381  0.3285  1.9646 -2.8394
  156SAPE  H20S17342   6.902   2.508   5.200  0.5624 -0.4257 -0.3663
  156SAPE  H20T17343   6.975   2.382   5.311 -0.5732 -1.0061 -1.5549
  156SAPE   C3317344   5.756   2.254   6.775  0.3445  0.5481  0.0189
  156SAPE   H3X17345   5.701   2.180   6.714  1.7217  0.5152 -1.2530
  156SAPE   H3Y17346   5.819   2.185   6.835 -1.0619 -0.7014  0.1271
  156SAPE   C3417347   5.820   2.343   6.668  0.0591  0.1569  0.4778
  156SAPE   H4X17348   5.906   2.395   6.716  0.3435 -0.5187  0.7125
  156SAPE   H4Y17349   5.746   2.417   6.633  2.4921  1.5911 -1.9979
  156SAPE   C3517350   5.868   2.269   6.540  0.0541 -0.2361  0.0617
  156SAPE   H5X17351   5.914   2.174   6.577  1.1617 -0.0132 -0.6973
  156SAPE   H5Y17352   5.949   2.327   6.492 -0.2266  0.6825  0.6742
  156SAPE   C3617353   5.752   2.234   6.433  0.1854  0.5305 -0.2190
  156SAPE   H6X17354   5.695   2.317   6.386  2.1417  0.0422 -3.8308
  156SAPE   H6Y17355   5.677   2.173   6.488  1.7907  2.1116  4.1699
  156SAPE   C3717356   5.813   2.144   6.318  0.3808  0.0111 -0.4412
  156SAPE   H7X17357   5.876   2.060   6.355  1.0905  1.4145  1.7163
  156SAPE   H7Y17358   5.884   2.198   6.252  1.6086 -1.6077 -0.5070
  156SAPE   C3817359   5.708   2.099   6.217  0.1516  0.0690 -0.0741
  156SAPE   H8X17360   5.653   2.186   6.175 -2.0738 -1.0643  0.3392
  156SAPE   H8Y17361   5.616   2.046   6.251 -1.3957  0.9997 -2.4687
  156SAPE   C3917362   5.759   2.017   6.097  0.0805 -0.8078  0.3575
  156SAPE   H9X17363   5.802   1.922   6.137  3.9359  1.5229  2.3402
  156SAPE   H9Y17364   5.847   2.067   6.051 -1.5013  1.3442 -0.4559
  156SAPE  C31017365   5.647   1.999   5.994 -0.1159 -0.3845 -0.2725
  156SAPE  H10X17366   5.630   2.102   5.956  0.0900 -0.1135  0.3612
  156SAPE  H10Y17367   5.555   1.966   6.047  0.4765 -1.3193  0.2118
  156SAPE  C31117368   5.674   1.904   5.875  0.3552  0.1388 -0.7152
  156SAPE  H11X17369   5.688   1.806   5.924 -2.4711 -0.1086 -0.2159
  156SAPE  H11Y17370   5.761   1.938   5.816  0.1662 -1.2655 -1.8534
  156SAPE  C31217371   5.552   1.892   5.781 -0.4968  0.6143 -0.5226
  156SAPE  H12X17372   5.528   1.993   5.739  1.0851  1.3284  0.2056
  156SAPE  H12Y17373   5.468   1.846   5.837 -0.2056  0.3749 -0.2802
  156SAPE  C31317374   5.588   1.802   5.664  0.1122 -0.6239 -0.5279
  156SAPE  H13X17375   5.622   1.701   5.695 -0.5976 -0.3952  1.0852
  156SAPE  H13Y17376   5.675   1.843   5.608 -2.1513  1.7420 -2.5796
  156SAPE  C31417377   5.487   1.798   5.548 -0.0449 -0.2944 -1.1635
  156SAPE  H14X17378   5.525   1.733   5.466 -1.0115  0.8066 -2.5332
  156SAPE  H14Y17379   5.473   1.896   5.498  0.9238  0.1215 -0.6555
  156SAPE  C31517380   5.338   1.755   5.606 -0.7830 -0.0068  0.4484
  156SAPE  H15X17381   5.320   1.818   5.695  2.3430  0.7483  0.6486
  156SAPE  H15Y17382   5.350   1.648   5.635 -2.4820 -0.5822 -0.7446
  156SAPE  C31617383   5.225   1.778   5.503  0.4647 -0.3926  0.1127
  156SAPE  H16X17384   5.239   1.723   5.407  1.3740  1.3880 -0.8388
  156SAPE  H16Y17385   5.228   1.883   5.467  0.4214 -0.8549 -1.3019
  156SAPE  C31717386   5.083   1.757   5.562 -0.1075  0.4799  0.4112
  156SAPE  H17X17387   5.071   1.647   5.568 -1.2222  0.5052 -0.8435
  156SAPE  H17Y17388   5.013   1.783   5.479  1.4618  0.1543 -1.0766
  156SAPE  C31817389   5.060   1.821   5.696 -0.2499  0.0945  0.5427
  156SAPE  H18X17390   5.121   1.771   5.775  0.9209 -0.4768 -0.6889
  156SAPE  H18Y17391   4.952   1.808   5.718 -0.4299 -0.3812 -0.5657
  156SAPE  H18Z17392   5.084   1.930   5.701 -1.2026  0.3257  0.2426
  157SAPE     N17393   1.059   1.813   7.769 -0.1639 -0.0533  0.3277
  157SAPE   HN117394   1.058   1.710   7.786 -0.3917 -0.0390  0.4066
  157SAPE   HN217395   1.090   1.859   7.856 -0.0848  0.5569 -0.0174
  157SAPE   HN317396   0.958   1.835   7.756  0.2311  2.1499  0.5777
  157SAPE   C1217397   1.148   1.859   7.645 -0.6731  0.7899  0.1690
  157SAPE  H12A17398   1.089   1.862   7.551  1.7708  1.3171 -1.4414
  157SAPE  H12B17399   1.226   1.783   7.624  0.6572  1.5497  2.0478
  157SAPE   C1117400   1.203   2.004   7.663 -0.3895 -0.7960  0.1031
  157SAPE  H11A17401   1.277   2.001   7.746 -1.7374  1.6761  1.5210
  157SAPE  H11B17402   1.118   2.070   7.690 -0.0092 -0.5371  0.6951
  157SAPE     P17403   1.293   2.190   7.514  0.2998 -0.7444  0.3098
  157SAPE   O1317404   1.169   2.275   7.520  0.4645 -0.5291  0.3955
  157SAPE   O1417405   1.398   2.239   7.611 -0.2002  0.4200  0.0213
  157SAPE   O1217406   1.268   2.039   7.544 -0.4856 -0.6351 -0.0281
  157SAPE   O1117407   1.349   2.189   7.366 -0.0929  0.1477  0.0985
  157SAPE    C117408   1.475   2.125   7.353  0.0232 -0.1721  0.2819
  157SAPE    HA17409   1.551   2.189   7.402  0.6959 -0.5234 -0.2935
  157SAPE    HB17410   1.476   2.021   7.394 -2.7217 -0.5833 -0.4994
  157SAPE    C217411   1.517   2.105   7.206 -0.8266  0.3023 -0.1256
  157SAPE    HS17412   1.517   2.203   7.153 -0.8418 -0.8084 -2.2981
  157SAPE   O2117413   1.430   2.009   7.139  0.2331  0.3565 -0.2936
  157SAPE   C2117414   1.307   2.059   7.118  0.6288 -0.9171 -0.3234
  157SAPE   O2217415   1.290   2.179   7.102 -0.6904 -0.2933  0.2233
  157SAPE   C2217416   1.202   1.952   7.089  0.0180 -0.3144 -0.1342
  157SAPE   H2R17417   1.259   1.865   7.051  0.0813 -0.2471 -0.1929
  157SAPE   H2S17418   1.150   1.923   7.183 -3.3632 -0.1571 -1.8057
  157SAPE    C317419   1.663   2.051   7.201  0.0515 -0.0128  0.4681
  157SAPE    HX17420   1.654   1.941   7.214  0.7136 -0.6695 -3.3539
  157SAPE    HY17421   1.717   2.104   7.281 -0.4139 -2.3192  2.4347
  157SAPE   O3117422   1.725   2.067   7.068  0.9427  0.0392  0.3729
  157SAPE   C3117423   1.762   2.186   7.040 -0.1003  0.7761  0.1242
  157SAPE   O3217424   1.746   2.282   7.111  0.1757 -0.0434 -0.5384
  157SAPE   C3217425   1.817   2.185   6.893 -0.4883 -0.5878 -0.4054
  157SAPE   H2X17426   1.915   2.134   6.896  0.6228  1.1708 -3.3744
  157SAPE   H2Y17427   1.834   2.290   6.862  0.5514 -1.0334 -1.3727
  157SAPE   C2317428   1.094   2.004   6.998 -0.4134 -1.2376 -0.4227
  157SAPE   H3R17429   1.145   2.010   6.900  1.4684 -0.8773  0.5157
  157SAPE   H3S17430   1.055   2.101   7.036  0.7569 -1.8619  2.6775
  157SAPE   C2417431   0.981   1.905   6.979 -0.7367  0.2808  0.3712
  157SAPE   H4R17432   0.949   1.875   7.081 -1.3663 -1.3052 -0.2564
  157SAPE   H4S17433   1.024   1.817   6.926 -1.4776 -0.7177  1.3601
  157SAPE   C2517434   0.861   1.963   6.909  0.0950  0.2193 -0.0939
  157SAPE   H5R17435   0.782   2.002   6.975  0.1053 -1.6026  1.0771
  157SAPE   C2617436   0.849   1.986   6.771 -0.3348  0.0877  0.6210
  157SAPE   H6R17437   0.758   2.025   6.722  0.3529 -1.5370 -2.2128
  157SAPE   C2717438   0.958   1.949   6.670  0.2526  0.1549 -0.0320
  157SAPE   H7R17439   1.048   1.912   6.723 -0.4237  0.2328  1.2104
  157SAPE   H7S17440   0.988   2.038   6.611 -2.2499  0.6974 -0.6221
  157SAPE   C2817441   0.906   1.858   6.561 -0.3528 -0.0106 -0.4595
  157SAPE   H8R17442   0.802   1.825   6.577  0.0715 -0.2486  2.3565
  157SAPE   C2917443   0.970   1.831   6.446  0.4157 -0.7513 -0.2846
  157SAPE   H9R17444   0.925   1.765   6.371 -1.3925  1.4617 -1.2808
  157SAPE  C21017445   1.101   1.886   6.402 -0.1322  0.2349  0.1588
  157SAPE  H10R17446   1.185   1.814   6.394  0.7234  1.3732 -1.7837
  157SAPE  H10S17447   1.135   1.958   6.480 -1.3609  1.1632 -0.1194
  157SAPE  C21117448   1.083   1.956   6.270 -0.1175  0.0910  0.0750
  157SAPE  H11R17449   1.076   2.066   6.281 -1.4354 -0.0612  1.0365
  157SAPE  C21217450   1.098   1.909   6.139  0.3874  0.0406 -0.2919
  157SAPE  H12R17451   1.105   1.981   6.056 -0.2379  3.3126  2.2697
  157SAPE  C21317452   1.099   1.768   6.102 -0.6245 -0.6106 -0.4581
  157SAPE  H13R17453   1.021   1.743   6.027 -0.6089  3.5473 -2.1359
  157SAPE  H13S17454   1.058   1.718   6.192  0.3326 -0.7677 -0.1013
  157SAPE  C21417455   1.232   1.703   6.073 -0.5275  0.0742 -0.5472
  157SAPE  H14R17456   1.307   1.722   6.152  0.3233  0.6239 -1.4528
  157SAPE  C21517457   1.279   1.638   5.966  0.4694 -0.0452  0.3203
  157SAPE  H15R17458   1.382   1.603   5.977  0.9883  1.0316 -0.9173
  157SAPE  C21617459   1.213   1.603   5.834  0.1819  0.3339  0.4831
  157SAPE  H16R17460   1.116   1.655   5.821 -0.2432 -0.8752 -1.8723
  157SAPE  H16S17461   1.186   1.495   5.832  1.3882  0.0229 -0.5901
  157SAPE  C21717462   1.310   1.622   5.715 -0.2106  0.6422 -0.0141
  157SAPE  H17R17463   1.279   1.566   5.624  0.9349 -0.4366  0.2295
  157SAPE  H17S17464   1.404   1.572   5.747 -1.7012 -1.7978  0.8407
  157SAPE  C21817465   1.341   1.763   5.670 -1.2999 -0.1816  0.4498
  157SAPE  H18R17466   1.394   1.756   5.572 -1.7072 -1.2499  0.2877
  157SAPE  H18S17467   1.407   1.809   5.747  0.7215  1.9745 -2.3771
  157SAPE  C21917468   1.214   1.854   5.653 -0.2687  0.0875  0.1860
  157SAPE  H19R17469   1.155   1.879   5.744 -2.6984  0.6081 -1.4302
  157SAPE  H19S17470   1.139   1.799   5.593  0.3819  1.7877 -2.3809
  157SAPE  C22017471   1.233   1.995   5.591  0.0534 -0.1745 -0.8245
  157SAPE  H20R17472   1.277   1.980   5.491  3.4463 -0.7801  0.6141
  157SAPE  H20S17473   1.292   2.051   5.667 -2.2645  0.4273  0.6490
  157SAPE  H20T17474   1.133   2.042   5.580  0.4365  0.5389 -1.3327
  157SAPE   C3317475   1.727   2.118   6.781 -0.1222  0.5790 -0.1491
  157SAPE   H3X17476   1.641   2.186   6.796  0.4703  1.9201 -2.3737
  157SAPE   H3Y17477   1.709   2.011   6.805  4.0356  0.0165  1.3763
  157SAPE   C3417478   1.802   2.147   6.650  0.3337  0.7008  0.0950
  157SAPE   H4X17479   1.843   2.250   6.647  0.6575  0.5638 -0.4554
  157SAPE   H4Y17480   1.744   2.133   6.556  2.0831 -1.0193 -0.8146
  157SAPE   C3517481   1.923   2.051   6.624  0.1195  0.4801 -0.2494
  157SAPE   H5X17482   1.894   1.946   6.647 -0.1265  0.3673 -1.0501
  157SAPE   H5Y17483   1.999   2.078   6.701  1.0706 -1.9532 -0.2504
  157SAPE   C3617484   1.983   2.065   6.486  0.4769  0.2678 -0.1131
  157SAPE   H6X17485   2.005   2.173   6.474 -0.1891  0.4399  0.1289
  157SAPE   H6Y17486   1.896   2.042   6.420 -0.6657 -0.7190  1.6486
  157SAPE   C3717487   2.097   1.976   6.460 -0.6640  0.8654  0.6772
  157SAPE   H7X17488   2.075   1.870   6.483 -1.9949  0.7940 -0.7453
  157SAPE   H7Y17489   2.188   2.004   6.518  1.4891 -1.1367 -1.4798
  157SAPE   C3817490   2.139   1.978   6.313 -0.1181  0.4497 -0.0920
  157SAPE   H8X17491   2.244   1.946   6.300 -0.1400 -0.6615  2.0931
  157SAPE   H8Y17492   2.145   2.086   6.285 -1.4344  0.3750 -0.7341
  157SAPE   C3917493   2.044   1.905   6.216  0.3090  0.4490  0.1886
  157SAPE   H9X17494   1.940   1.932   6.244  1.2072  1.7284  2.6246
  157SAPE   H9Y17495   2.054   1.797   6.241  2.6437  0.9135  1.6074
  157SAPE  C31017496   2.070   1.932   6.067 -0.3472  0.1594  0.2591
  157SAPE  H10X17497   2.181   1.927   6.055 -0.3143 -0.5957  0.7815
  157SAPE  H10Y17498   2.037   2.032   6.032  0.2736  0.6495  1.0231
  157SAPE  C31117499   2.032   1.817   5.969 -0.4605  0.2296  0.3013
  157SAPE  H11X17500   1.922   1.828   5.959 -0.5035 -1.9430 -3.2155
  157SAPE  H11Y17501   2.060   1.722   6.019  1.8647  0.9271  0.4369
  157SAPE  C31217502   2.102   1.829   5.829 -0.4066 -0.1332 -0.5851
  157SAPE  H12X17503   2.212   1.838   5.845 -0.8268  1.0293  2.1135
  157SAPE  H12Y17504   2.071   1.923   5.779  1.3102  0.8976  0.1903
  157SAPE  C31317505   2.074   1.707   5.748  0.5368 -0.2597  0.3488
  157SAPE  H13X17506   1.963   1.696   5.745  0.2855  2.0072 -0.4373
  157SAPE  H13Y17507   2.106   1.617   5.805 -3.6807 -1.6411  0.8964
  157SAPE  C31417508   2.136   1.705   5.613 -0.7736 -0.2344  0.4174
  157SAPE  H14X17509   2.150   1.600   5.580 -0.3295 -0.9377  2.6984
  157SAPE  H14Y17510   2.240   1.746   5.613 -0.9321  0.1726  0.6604
  157SAPE  C31517511   2.057   1.793   5.509  0.1118 -0.2215  0.4344
  157SAPE  H15X17512   2.036   1.892   5.553 -0.1021 -0.2769  0.4585
  157SAPE  H15Y17513   1.959   1.745   5.488  0.6606 -0.2213 -2.5604
  157SAPE  C31617514   2.132   1.794   5.370  0.7178  0.6821 -0.3179
  157SAPE  H16X17515   2.104   1.706   5.308  1.3966  1.2484 -1.4496
  157SAPE  H16Y17516   2.241   1.795   5.390  0.6345 -0.6145  0.3254
  157SAPE  C31717517   2.093   1.911   5.290 -0.0166  0.1142 -0.4367
  157SAPE  H17X17518   2.139   1.900   5.189 -1.3487 -2.2043 -0.8466
  157SAPE  H17Y17519   2.123   2.000   5.350  2.7250 -1.7703  1.2202
  157SAPE  C31817520   1.935   1.927   5.270  0.2617  0.5718 -0.0711
  157SAPE  H18X17521   1.919   2.027   5.224 -0.0667  0.1677 -0.8554
  157SAPE  H18Y17522   1.877   1.930   5.365  1.0517 -0.8473  0.4898
  157SAPE  H18Z17523   1.898   1.838   5.216 -1.4722  0.8181  0.6429
  158SAPE     N17524   2.738   1.244   7.604  0.5976  0.4162 -0.0333
  158SAPE   HN117525   2.808   1.308   7.647  2.9665 -1.5575 -0.7529
  158SAPE   HN217526   2.654   1.306   7.608 -1.7888 -2.5761 -0.6826
  158SAPE   HN317527   2.723   1.159   7.662  2.7298  1.0028  1.4563
  158SAPE   C1217528   2.756   1.224   7.453  0.4220  0.1981  0.2342
  158SAPE  H12A17529   2.859   1.185   7.439  0.1065 -0.0431 -1.5826
  158SAPE  H12B17530   2.759   1.324   7.404  0.5056 -0.9306 -2.1965
  158SAPE   C1117531   2.649   1.129   7.392 -0.1733 -0.0555  0.0422
  158SAPE  H11A17532   2.640   1.050   7.469 -2.9354  2.1942  2.2722
  158SAPE  H11B17533   2.686   1.085   7.297 -1.3569  0.2436 -0.5791
  158SAPE     P17534   2.461   1.274   7.282  0.4418  0.3808  0.3534
  158SAPE   O1317535   2.363   1.358   7.355 -0.1638 -0.0041  0.2322
  158SAPE   O1417536   2.562   1.331   7.193  0.1039  0.3036  0.2259
  158SAPE   O1217537   2.519   1.181   7.395  0.0036  0.0968 -0.2853
  158SAPE   O1117538   2.382   1.177   7.195  0.0409  0.0518 -0.1806
  158SAPE    C117539   2.335   1.199   7.060 -0.2896  1.0655  0.1184
  158SAPE    HA17540   2.347   1.302   7.020  0.2699  0.8338 -0.3168
  158SAPE    HB17541   2.393   1.127   6.999  0.6762 -0.6838  2.9175
  158SAPE    C217542   2.181   1.161   7.044  0.2572  0.4881 -0.2550
  158SAPE    HS17543   2.141   1.209   7.136  1.9805 -0.4373  1.0317
  158SAPE   O2117544   2.164   1.013   7.063  0.1619 -0.2057 -0.2762
  158SAPE   C2117545   2.053   0.982   7.137 -0.3273 -0.0499 -0.4380
  158SAPE   O2217546   1.975   1.057   7.188 -0.5509 -0.1167 -0.1088
  158SAPE   C2217547   2.045   0.831   7.137  0.6115  0.3381  0.2534
  158SAPE   H2R17548   2.133   0.791   7.192  0.5446  0.6913  0.6213
  158SAPE   H2S17549   1.947   0.798   7.176  0.2962  0.9713  0.0099
  158SAPE    C317550   2.093   1.220   6.931 -0.5451 -0.2105  0.8426
  158SAPE    HX17551   2.109   1.330   6.937  0.3374 -0.1715 -1.4266
  158SAPE    HY17552   1.985   1.200   6.951 -0.0691 -1.8686  1.9907
  158SAPE   O3117553   2.123   1.163   6.803  0.9852  0.1044  0.1280
  158SAPE   C3117554   2.192   1.240   6.718  0.3381  0.3468 -0.3557
  158SAPE   O3217555   2.236   1.347   6.740  0.7557 -0.5295  0.3304
  158SAPE   C3217556   2.202   1.164   6.582 -1.0394  0.3927  0.5730
  158SAPE   H2X17557   2.272   1.078   6.593  2.4467  2.6999 -1.5553
  158SAPE   H2Y17558   2.271   1.229   6.525 -0.2685 -1.4237 -0.6645
  158SAPE   C2317559   2.059   0.776   6.989 -1.0767  0.0971 -0.6377
  158SAPE   H3R17560   2.078   0.667   6.997  0.5839  0.4604  1.2400
  158SAPE   H3S17561   2.156   0.813   6.950 -1.5519  0.2569 -1.7050
  158SAPE   C2417562   1.949   0.809   6.891 -0.3744 -0.3292  0.4278
  158SAPE   H4R17563   1.923   0.915   6.912  5.0374  0.8109  3.0565
  158SAPE   H4S17564   1.867   0.739   6.918 -0.9311 -0.2049 -0.8641
  158SAPE   C2517565   1.994   0.794   6.748  0.1992  0.3164  0.2090
  158SAPE   H5R17566   2.074   0.858   6.709  0.1979  0.3907  0.3297
  158SAPE   C2617567   1.949   0.700   6.659 -0.2227 -0.5207 -0.2342
  158SAPE   H6R17568   1.994   0.708   6.559 -0.5600  1.4377 -0.2816
  158SAPE   C2717569   1.831   0.606   6.684 -0.1622  1.2626 -0.2596
  158SAPE   H7R17570   1.755   0.614   6.603  0.6638 -3.8135 -1.9151
  158SAPE   H7S17571   1.771   0.631   6.774  0.6346 -0.7212  0.8747
  158SAPE   C2817572   1.888   0.464   6.692 -0.2030 -0.2193  0.3357
  158SAPE   H8R17573   1.946   0.447   6.784  1.1875 -1.4230 -0.6928
  158SAPE   C2917574   1.884   0.370   6.593 -0.5940 -0.0922  0.0142
  158SAPE   H9R17575   1.934   0.274   6.609 -1.1206 -0.1321  1.5601
  158SAPE  C21017576   1.821   0.398   6.455 -0.1700 -1.1249  0.9651
  158SAPE  H10R17577   1.899   0.450   6.396 -2.1015 -0.1743 -0.8710
  158SAPE  H10S17578   1.726   0.455   6.461  1.1649  1.1183  2.6034
  158SAPE  C21117579   1.783   0.269   6.388  0.4446  0.3673 -0.2180
  158SAPE  H11R17580   1.795   0.176   6.446  2.6118  0.3310 -0.6690
  158SAPE  C21217581   1.734   0.268   6.265 -0.1374 -0.0066  0.2599
  158SAPE  H12R17582   1.690   0.177   6.223  0.8849 -1.2158  1.6829
  158SAPE  C21317583   1.700   0.389   6.190  0.0504  0.3278  0.1582
  158SAPE  H13R17584   1.794   0.449   6.195  0.7842 -0.8868  2.2303
  158SAPE  H13S17585   1.627   0.456   6.240  1.5985  0.1472  2.8655
  158SAPE  C21417586   1.651   0.373   6.050 -0.7255  0.0779  0.1491
  158SAPE  H14R17587   1.545   0.369   6.023 -0.4096 -0.0328 -1.1152
  158SAPE  C21517588   1.737   0.352   5.946  0.2985  0.3611 -0.6246
  158SAPE  H15R17589   1.699   0.359   5.843 -0.3401 -0.1972 -0.4349
  158SAPE  C21617590   1.892   0.344   5.948 -0.2709 -0.3584  0.4049
  158SAPE  H16R17591   1.920   0.275   5.866  1.2164  0.6129  0.0522
  158SAPE  H16S17592   1.938   0.299   6.039  0.2644 -0.2353  0.1979
  158SAPE  C21717593   1.942   0.483   5.901  0.0223  0.0228  0.0488
  158SAPE  H17R17594   2.051   0.490   5.923  0.2351 -0.3568 -0.8646
  158SAPE  H17S17595   1.891   0.566   5.955  0.4995  0.9693 -0.9282
  158SAPE  C21817596   1.916   0.499   5.748 -0.1602  0.6026  0.1193
  158SAPE  H18R17597   1.945   0.599   5.710 -3.1416  1.2658 -0.6825
  158SAPE  H18S17598   1.805   0.500   5.735 -0.3541 -0.4818  1.3745
  158SAPE  C21917599   1.992   0.396   5.670 -0.2029  0.6670  0.5692
  158SAPE  H19R17600   1.953   0.292   5.666 -0.2115  0.6379  1.2467
  158SAPE  H19S17601   2.091   0.400   5.719 -1.1284  0.3671  2.5777
  158SAPE  C22017602   2.009   0.443   5.523 -0.6338 -0.2665  0.1269
  158SAPE  H20R17603   1.913   0.474   5.477 -0.1375  2.3750  0.6800
  158SAPE  H20S17604   2.063   0.374   5.455  0.3380  1.9420 -1.5050
  158SAPE  H20T17605   2.072   0.535   5.519 -0.0640 -0.6578 -0.0584
  158SAPE   C3317606   2.069   1.142   6.513  0.5667  0.9385 -0.0488
  158SAPE   H3X17607   2.040   1.244   6.481 -0.6484  0.5519 -0.2526
  158SAPE   H3Y17608   1.982   1.098   6.566  0.2593 -0.1499 -1.3788
  158SAPE   C3417609   2.072   1.052   6.384 -0.1338  0.7719  0.2519
  158SAPE   H4X17610   2.119   0.953   6.399 -0.8668 -0.1710 -2.8520
  158SAPE   H4Y17611   2.144   1.100   6.314 -0.8184  1.5731  0.0719
  158SAPE   C3517612   1.936   1.033   6.311 -0.4657  0.2799 -0.3239
  158SAPE   H5X17613   1.900   1.135   6.289  0.3514  0.9867  1.4701
  158SAPE   H5Y17614   1.864   0.979   6.377 -0.3573 -0.7299 -0.9942
  158SAPE   C3617615   1.957   0.954   6.178 -0.1057 -0.5325  0.0948
  158SAPE   H6X17616   1.999   0.854   6.202  1.3410 -0.3785 -1.5754
  158SAPE   H6Y17617   2.035   1.008   6.119 -1.1709  0.1975 -0.7003
  158SAPE   C3717618   1.829   0.921   6.093  0.0989  0.0652  0.1828
  158SAPE   H7X17619   1.850   0.873   5.995 -0.8594  0.3944 -0.1954
  158SAPE   H7Y17620   1.773   1.015   6.073  0.8883  0.3778 -0.7027
  158SAPE   C3817621   1.735   0.821   6.160 -0.4247  0.0964  0.1340
  158SAPE   H8X17622   1.689   0.877   6.244  0.9023 -0.9754  1.6469
  158SAPE   H8Y17623   1.792   0.735   6.202 -1.2494 -0.6667 -0.2724
  158SAPE   C3917624   1.626   0.756   6.074 -0.6430 -0.2136 -0.2445
  158SAPE   H9X17625   1.572   0.685   6.141 -1.5306  0.4735 -0.2147
  158SAPE   H9Y17626   1.656   0.696   5.985 -2.7492 -1.3465 -0.2670
  158SAPE  C31017627   1.532   0.861   6.014 -0.1695 -0.4228 -0.4194
  158SAPE  H10X17628   1.583   0.931   5.944 -3.6868  2.7671 -0.1322
  158SAPE  H10Y17629   1.506   0.922   6.102 -0.2996  0.8342 -1.3056
  158SAPE  C31117630   1.406   0.797   5.943 -1.1781 -0.2377  0.2094
  158SAPE  H11X17631   1.356   0.887   5.901 -3.5581 -1.2553  0.7050
  158SAPE  H11Y17632   1.340   0.747   6.018 -2.7913  1.3884 -0.0473
  158SAPE  C31217633   1.443   0.705   5.830 -0.2315 -0.0476  0.1786
  158SAPE  H12X17634   1.484   0.610   5.870 -0.7131 -1.2604 -2.0352
  158SAPE  H12Y17635   1.521   0.748   5.764 -1.0020  0.5527 -0.3700
  158SAPE  C31317636   1.328   0.678   5.733  1.0296  0.5345  0.8928
  158SAPE  H13X17637   1.301   0.773   5.683 -0.4095 -0.1284  0.3583
  158SAPE  H13Y17638   1.242   0.642   5.794  0.8656 -0.0884  0.3102
  158SAPE  C31417639   1.365   0.575   5.618 -0.2767 -0.5338 -0.0913
  158SAPE  H14X17640   1.472   0.591   5.593  0.1048  3.1501  2.9306
  158SAPE  H14Y17641   1.305   0.594   5.527 -2.0195  2.3973  1.5030
  158SAPE  C31517642   1.344   0.431   5.677  0.2331  0.2317  0.1334
  158SAPE  H15X17643   1.236   0.423   5.704  0.9588 -0.4079  3.2571
  158SAPE  H15Y17644   1.413   0.412   5.762  0.4296  0.2449 -0.0238
  158SAPE  C31617645   1.376   0.331   5.569  0.3393  1.0655 -0.3622
  158SAPE  H16X17646   1.367   0.368   5.465  0.9425  1.1596 -0.3858
  158SAPE  H16Y17647   1.312   0.240   5.565 -0.7444  1.8089 -0.1903
  158SAPE  C31717648   1.520   0.269   5.599  0.9544  0.0396  0.0543
  158SAPE  H17X17649   1.493   0.217   5.693 -1.0734 -0.6170 -0.8416
  158SAPE  H17Y17650   1.597   0.350   5.601  0.4816  0.7301 -3.5667
  158SAPE  C31817651   1.559   0.172   5.492 -0.1114 -0.0141  0.5144
  158SAPE  H18X17652   1.663   0.136   5.504  0.3776  1.2765  0.3757
  158SAPE  H18Y17653   1.555   0.218   5.391  1.0949  1.2956  1.0241
  158SAPE  H18Z17654   1.488   0.087   5.492 -0.0081 -0.1646  2.7917
  159SAPE     N17655   5.573   6.326   2.802 -0.4640 -0.1244 -0.1984
  159SAPE   HN117656   5.655   6.276   2.841  0.2370  0.4366 -0.9345
  159SAPE   HN217657   5.506   6.346   2.880 -2.7144 -1.3416 -1.7096
  159SAPE   HN317658   5.539   6.252   2.737 -1.1923 -1.0988  1.2179
  159SAPE   C1217659   5.610   6.442   2.708  0.5112 -0.3058 -1.1349
  159SAPE  H12A17660   5.512   6.485   2.675 -0.0329 -0.6368 -0.0105
  159SAPE  H12B17661   5.663   6.407   2.618  2.9043  3.0455 -1.2011
  159SAPE   C1117662   5.677   6.560   2.783 -0.9506  0.6064  0.0446
  159SAPE  H11A17663   5.599   6.604   2.849 -1.6890 -3.2995  2.1093
  159SAPE  H11B17664   5.706   6.639   2.711 -1.4415  1.1695  0.4563
  159SAPE     P17665   5.827   6.593   2.994  0.5338  0.0957  0.1273
  159SAPE   O1317666   5.959   6.556   3.042 -0.0665  0.2844 -0.3014
  159SAPE   O1417667   5.823   6.737   2.957  0.1268  0.3108  0.5764
  159SAPE   O1217668   5.780   6.507   2.868  0.1555  0.0405  0.4138
  159SAPE   O1117669   5.713   6.555   3.100  0.6260 -0.5233  0.1477
  159SAPE    C117670   5.713   6.434   3.176  0.0723  0.5010  0.0389
  159SAPE    HA17671   5.615   6.383   3.163  0.3730  0.3145 -1.8201
  159SAPE    HB17672   5.797   6.366   3.148  0.4974  0.6914  0.8232
  159SAPE    C217673   5.735   6.451   3.331  0.0556 -0.2850 -0.0076
  159SAPE    HS17674   5.645   6.503   3.370  0.1903 -0.4918  0.5930
  159SAPE   O2117675   5.850   6.526   3.357 -0.2701 -0.5874 -0.1732
  159SAPE   C2117676   5.835   6.661   3.360 -0.1920  0.8921 -0.0202
  159SAPE   O2217677   5.724   6.712   3.371 -0.0933  0.0329 -0.1102
  159SAPE   C2217678   5.964   6.729   3.329 -0.4957  0.2973  0.0194
  159SAPE   H2R17679   6.056   6.668   3.344  0.8138  1.6384 -2.1283
  159SAPE   H2S17680   5.978   6.737   3.219 -0.4020 -1.0925 -0.0977
  159SAPE    C317681   5.745   6.308   3.402  0.0462  0.4761  0.2408
  159SAPE    HX17682   5.822   6.246   3.351  0.5407  0.9878  0.3478
  159SAPE    HY17683   5.655   6.251   3.369  1.0008  0.1437 -1.9811
  159SAPE   O3117684   5.775   6.316   3.544  0.8207 -0.4218 -0.2073
  159SAPE   C3117685   5.752   6.204   3.612 -0.1685  0.3621 -0.1314
  159SAPE   O3217686   5.706   6.100   3.565 -0.1839  0.0510  0.0887
  159SAPE   C3217687   5.816   6.222   3.751 -0.8078  0.5121 -0.4056
  159SAPE   H2X17688   5.786   6.323   3.784 -1.2228  0.7019 -1.3375
  159SAPE   H2Y17689   5.927   6.216   3.744 -0.9262 -0.0369 -2.3627
  159SAPE   C2317690   5.974   6.865   3.400 -0.6172  0.5457  0.1964
  159SAPE   H3R17691   5.885   6.923   3.367  0.1031 -0.3584 -3.8737
  159SAPE   H3S17692   6.061   6.914   3.351 -1.1724 -0.3376 -1.7546
  159SAPE   C2417693   5.978   6.853   3.555  0.0164  0.2766  0.2353
  159SAPE   H4R17694   6.059   6.781   3.579 -1.7851 -1.5681  1.1301
  159SAPE   H4S17695   5.886   6.801   3.590 -0.5224  1.2523  0.3304
  159SAPE   C2517696   5.987   6.979   3.636 -0.5784 -0.0333  0.2009
  159SAPE   H5R17697   5.936   7.069   3.599  0.2732  0.5703  0.4677
  159SAPE   C2617698   6.058   6.987   3.750 -0.1868  0.1114  0.5235
  159SAPE   H6R17699   6.050   7.080   3.809 -1.1747 -1.0799  2.3587
  159SAPE   C2717700   6.134   6.874   3.816  0.4103 -0.0057  0.5616
  159SAPE   H7R17701   6.201   6.803   3.764  1.2674 -1.1587  3.0688
  159SAPE   H7S17702   6.063   6.814   3.877 -1.6751  1.5737 -0.1792
  159SAPE   C2817703   6.237   6.946   3.899  0.5788 -0.0897 -0.4842
  159SAPE   H8R17704   6.329   6.959   3.842  1.1116 -0.2176  0.3296
  159SAPE   C2917705   6.233   6.970   4.027 -0.5213 -0.6004 -0.3940
  159SAPE   H9R17706   6.330   6.999   4.071 -0.7067 -0.4664 -0.0655
  159SAPE  C21017707   6.119   6.963   4.125  0.7954 -0.1716 -0.7348
  159SAPE  H10R17708   6.030   6.997   4.068 -0.6179  0.6175  1.8159
  159SAPE  H10S17709   6.122   7.034   4.210 -2.3736 -0.6456 -0.1302
  159SAPE  C21117710   6.103   6.822   4.171 -0.0032 -0.2760 -0.2442
  159SAPE  H11R17711   6.029   6.763   4.114 -2.4767  0.8852  1.5457
  159SAPE  C21217712   6.161   6.772   4.284  0.5840  0.3637 -0.0095
  159SAPE  H12R17713   6.144   6.666   4.307  1.3239  0.3907  0.6861
  159SAPE  C21317714   6.256   6.846   4.379  0.0029  0.3839  0.9562
  159SAPE  H13R17715   6.345   6.889   4.328  2.0506 -0.5735  3.5192
  159SAPE  H13S17716   6.293   6.774   4.454 -0.0748  0.9283  1.5203
  159SAPE  C21417717   6.198   6.945   4.470 -0.7041 -0.3793 -0.2367
  159SAPE  H14R17718   6.102   6.922   4.518  0.1399 -0.0887  1.6982
  159SAPE  C21517719   6.267   7.049   4.525 -0.5491 -0.2459  0.1504
  159SAPE  H15R17720   6.212   7.108   4.599  0.3676  0.3543  0.3722
  159SAPE  C21617721   6.415   7.082   4.517  0.4246  0.3779 -0.5882
  159SAPE  H16R17722   6.434   7.178   4.464  1.6393  0.2668 -0.3718
  159SAPE  H16S17723   6.465   6.997   4.466 -2.3739 -1.7937  0.0043
  159SAPE  C21717724   6.470   7.090   4.661  0.2121 -0.3853 -0.3408
  159SAPE  H17R17725   6.451   7.001   4.725 -0.0010  0.3581  0.6571
  159SAPE  H17S17726   6.415   7.182   4.692  0.8752  0.1147 -0.6454
  159SAPE  C21817727   6.618   7.128   4.653 -0.1224 -0.1670 -0.4123
  159SAPE  H18R17728   6.630   7.238   4.660 -0.7935 -0.1205  0.1774
  159SAPE  H18S17729   6.659   7.109   4.552 -0.5582  2.5670 -1.1896
  159SAPE  C21917730   6.700   7.057   4.756  0.3463  0.0569  0.5517
  159SAPE  H19R17731   6.694   6.947   4.738 -0.0512 -0.1507  1.8665
  159SAPE  H19S17732   6.670   7.074   4.862  0.1219  1.0184  0.3411
  159SAPE  C22017733   6.850   7.106   4.753 -0.0681  0.3356 -0.3303
  159SAPE  H20R17734   6.846   7.216   4.740 -0.4523  0.2570 -0.9152
  159SAPE  H20S17735   6.910   7.062   4.671 -0.5807 -1.5569  0.2687
  159SAPE  H20T17736   6.905   7.089   4.848 -0.7922  0.2608  0.0841
  159SAPE   C3317737   5.751   6.133   3.854  0.2672  0.0611 -0.6410
  159SAPE   H3X17738   5.781   6.027   3.843  0.0660 -0.2032  1.1374
  159SAPE   H3Y17739   5.640   6.139   3.844 -0.0799  0.2550  2.5401
  159SAPE   C3417740   5.783   6.186   3.999 -0.1849 -0.0751 -0.3173
  159SAPE   H4X17741   5.777   6.297   4.003 -1.2981 -0.1222 -0.2103
  159SAPE   H4Y17742   5.887   6.154   4.018 -0.0364 -0.1447 -1.2346
  159SAPE   C3517743   5.693   6.126   4.106 -0.2318  0.2322 -0.2092
  159SAPE   H5X17744   5.690   6.018   4.079  2.9199 -0.1652  0.6152
  159SAPE   H5Y17745   5.595   6.176   4.096 -1.5617 -2.0768  0.5677
  159SAPE   C3617746   5.749   6.156   4.250 -0.2161  0.3197 -0.5837
  159SAPE   H6X17747   5.752   6.266   4.267  0.8915  0.1198  0.6405
  159SAPE   H6Y17748   5.849   6.108   4.253 -0.2088  0.3672  1.4649
  159SAPE   C3717749   5.661   6.099   4.368  0.4657  0.0714 -0.1678
  159SAPE   H7X17750   5.718   6.126   4.459  2.0416 -0.5202 -0.9520
  159SAPE   H7Y17751   5.640   5.991   4.359 -1.5646  0.3369  0.6510
  159SAPE   C3817752   5.528   6.173   4.379 -0.2376 -0.8042 -0.3621
  159SAPE   H8X17753   5.449   6.132   4.312 -1.1331 -2.1165  1.4000
  159SAPE   H8Y17754   5.546   6.278   4.350 -1.8668 -0.6102 -0.8074
  159SAPE   C3917755   5.474   6.180   4.520 -0.1350 -0.0365  0.4985
  159SAPE   H9X17756   5.387   6.250   4.516  0.3084  0.5278  0.6484
  159SAPE   H9Y17757   5.553   6.220   4.588  2.2531 -1.1734 -1.4670
  159SAPE  C31017758   5.421   6.047   4.571  0.0844 -0.0708  0.6172
  159SAPE  H10X17759   5.504   5.994   4.625  1.2181 -2.4378 -3.0625
  159SAPE  H10Y17760   5.384   5.987   4.486 -0.2731  1.8695 -0.6492
  159SAPE  C31117761   5.303   6.063   4.674 -0.1335 -0.1516  0.3953
  159SAPE  H11X17762   5.211   6.097   4.621 -0.6219  0.9445  1.9009
  159SAPE  H11Y17763   5.337   6.135   4.752  0.1499 -1.3981  1.4572
  159SAPE  C31217764   5.289   5.931   4.745 -0.1998  0.3747 -0.8445
  159SAPE  H12X17765   5.392   5.906   4.780  0.0559  1.9210 -0.4166
  159SAPE  H12Y17766   5.252   5.846   4.683  0.1561 -1.6278  1.5316
  159SAPE  C31317767   5.207   5.942   4.876 -0.4677  0.4349  0.1533
  159SAPE  H13X17768   5.111   5.996   4.862  0.0029  1.8452  2.1031
  159SAPE  H13Y17769   5.275   5.989   4.949 -0.3654  1.2957 -0.4782
  159SAPE  C31417770   5.166   5.810   4.938 -0.1591 -0.4466 -0.4156
  159SAPE  H14X17771   5.255   5.771   4.991  1.4038 -1.2476 -3.3930
  159SAPE  H14Y17772   5.147   5.730   4.863 -0.4645 -2.2878  1.5179
  159SAPE  C31517773   5.048   5.815   5.035  1.4347 -0.0758 -0.0290
  159SAPE  H15X17774   4.960   5.824   4.968  1.4367 -2.1402 -0.3790
  159SAPE  H15Y17775   5.054   5.915   5.084  0.4489 -0.0315  0.0085
  159SAPE  C31617776   5.046   5.691   5.126  0.4298 -0.5841 -0.0457
  159SAPE  H16X17777   5.145   5.656   5.164 -0.4197 -3.5512 -0.2732
  159SAPE  H16Y17778   5.009   5.606   5.065  0.5101  0.9822 -2.3972
  159SAPE  C31717779   4.958   5.713   5.252  0.1656 -0.7819  0.1103
  159SAPE  H17X17780   4.856   5.740   5.219 -0.7936  1.1166  3.9551
  159SAPE  H17Y17781   4.986   5.801   5.314 -0.6788  0.6646 -1.4891
  159SAPE  C31817782   4.960   5.593   5.347  0.4861 -0.5342 -0.3521
  159SAPE  H18X17783   5.030   5.611   5.431 -0.0758  0.8015 -0.1404
  159SAPE  H18Y17784   4.987   5.495   5.301  0.2271 -0.4416 -0.7052
  159SAPE  H18Z17785   4.852   5.574   5.368  0.2291  0.2308 -0.8968
  160SAPE     N17786   3.971   6.736   3.036  0.2923 -0.3701 -0.1487
  160SAPE   HN117787   3.925   6.794   2.963 -0.7202  1.5738  1.8753
  160SAPE   HN217788   3.905   6.702   3.110  1.6709 -1.8709  0.4545
  160SAPE   HN317789   4.028   6.806   3.087 -1.0488  3.4170 -3.3111
  160SAPE   C1217790   4.053   6.618   2.981 -0.1548  0.1645  0.2064
  160SAPE  H12A17791   4.113   6.654   2.895 -0.4279  1.1416  0.4166
  160SAPE  H12B17792   3.981   6.541   2.946 -1.7236  1.5408  0.2510
  160SAPE   C1117793   4.130   6.556   3.099 -0.2703 -0.3437  0.1334
  160SAPE  H11A17794   4.165   6.455   3.066  0.7395 -0.3538  1.1425
  160SAPE  H11B17795   4.057   6.540   3.180 -1.4390  1.6497 -0.4638
  160SAPE     P17796   4.371   6.661   3.063  0.4037 -0.4163  0.1912
  160SAPE   O1317797   4.398   6.558   2.965 -0.1884  0.0868  0.9188
  160SAPE   O1417798   4.361   6.797   3.010  0.2732 -0.3653 -0.0484
  160SAPE   O1217799   4.241   6.641   3.148  0.0349  0.1704 -0.1453
  160SAPE   O1117800   4.476   6.666   3.187 -0.1128 -0.6036  0.6517
  160SAPE    C117801   4.450   6.583   3.302  0.6958 -0.0503 -0.3591
  160SAPE    HA17802   4.362   6.630   3.352  0.4645  1.9996 -2.5049
  160SAPE    HB17803   4.426   6.479   3.271 -1.3416  0.3383 -0.2729
  160SAPE    C217804   4.569   6.595   3.401 -0.5145 -0.6805  0.3301
  160SAPE    HS17805   4.654   6.533   3.367  1.1499  1.2475  0.7329
  160SAPE   O2117806   4.514   6.547   3.523  0.2034  0.3592 -0.3848
  160SAPE   C2117807   4.550   6.425   3.567 -0.0787 -0.5436  0.3331
  160SAPE   O2217808   4.639   6.360   3.514 -0.1946 -0.2990 -0.1064
  160SAPE   C2217809   4.472   6.397   3.699 -0.6226 -0.0410  0.6394
  160SAPE   H2R17810   4.366   6.397   3.669 -0.1419  0.0598 -1.1303
  160SAPE   H2S17811   4.500   6.296   3.738  4.3460  0.7919 -0.1159
  160SAPE    C317812   4.625   6.737   3.427  0.6776 -0.6697 -0.7618
  160SAPE    HX17813   4.545   6.814   3.415  0.8659 -0.3778 -0.1746
  160SAPE    HY17814   4.705   6.760   3.353  0.1213  1.7752 -0.7106
  160SAPE   O3117815   4.681   6.742   3.560 -1.0390  0.0913  0.6652
  160SAPE   C3117816   4.637   6.821   3.661 -0.7175  0.4285 -0.1237
  160SAPE   O3217817   4.547   6.903   3.664 -0.3534 -0.4000 -0.2785
  160SAPE   C3217818   4.725   6.784   3.782 -0.2900 -0.8376 -0.6581
  160SAPE   H2X17819   4.826   6.827   3.765  2.3115 -5.1583  1.9872
  160SAPE   H2Y17820   4.749   6.676   3.773  3.0234 -0.3131  0.3574
  160SAPE   C2317821   4.494   6.509   3.811 -0.2571  0.4022  0.4474
  160SAPE   H3R17822   4.451   6.603   3.769  1.9577  0.4062 -2.0789
  160SAPE   H3S17823   4.601   6.537   3.823  0.3090 -1.6112  0.3702
  160SAPE   C2417824   4.423   6.477   3.939 -0.2696 -0.3535 -0.8977
  160SAPE   H4R17825   4.319   6.441   3.925 -0.2499 -0.9461  0.3372
  160SAPE   H4S17826   4.421   6.578   3.986  0.5736 -0.2496 -1.0682
  160SAPE   C2517827   4.492   6.368   4.023  0.1152 -0.3491  0.2095
  160SAPE   H5R17828   4.512   6.276   3.965 -3.2504 -0.5266 -0.8520
  160SAPE   C2617829   4.501   6.361   4.161  0.0140 -0.5496  0.4354
  160SAPE   H6R17830   4.550   6.273   4.207  0.5109 -0.9640 -0.8445
  160SAPE   C2717831   4.453   6.467   4.251  0.1867  0.3514 -0.4826
  160SAPE   H7R17832   4.364   6.516   4.205 -0.2237 -0.5322 -0.6688
  160SAPE   H7S17833   4.539   6.534   4.268  1.0851 -1.3766  2.4724
  160SAPE   C2817834   4.403   6.407   4.382 -0.4027  0.3668 -0.3030
  160SAPE   H8R17835   4.378   6.300   4.385 -0.9079  0.3837 -2.2770
  160SAPE   C2917836   4.393   6.475   4.501 -0.7339 -0.3248  0.2125
  160SAPE   H9R17837   4.342   6.428   4.587  1.6009 -1.0971  1.2726
  160SAPE  C21017838   4.434   6.617   4.531 -0.0229 -0.1307 -0.5946
  160SAPE  H10R17839   4.361   6.654   4.606 -0.8590 -0.0965 -1.4026
  160SAPE  H10S17840   4.419   6.686   4.445  1.6419 -0.0702 -0.8776
  160SAPE  C21117841   4.575   6.619   4.586 -0.1805  0.7851 -0.0889
  160SAPE  H11R17842   4.629   6.523   4.585  1.9744  1.9339  0.5609
  160SAPE  C21217843   4.625   6.725   4.655 -0.0467  0.3462  0.1012
  160SAPE  H12R17844   4.730   6.709   4.684  0.6399  0.9513 -1.8964
  160SAPE  C21317845   4.565   6.862   4.678  0.3139 -0.4757  0.2248
  160SAPE  H13R17846   4.481   6.870   4.605  1.6475 -3.0289 -1.7612
  160SAPE  H13S17847   4.629   6.952   4.667 -0.8193  0.1607 -1.5665
  160SAPE  C21417848   4.497   6.857   4.812 -0.2351 -0.8848  0.3877
  160SAPE  H14R17849   4.420   6.779   4.825 -0.8302 -0.1986  1.0797
  160SAPE  C21517850   4.539   6.939   4.913  0.8703  0.8090 -0.8403
  160SAPE  H15R17851   4.502   6.938   5.016  4.1266  0.5694  0.4456
  160SAPE  C21617852   4.649   7.037   4.912 -0.0891  0.4003  0.5615
  160SAPE  H16R17853   4.639   7.100   5.002  0.3898  0.8289  0.3179
  160SAPE  H16S17854   4.651   7.101   4.821 -0.3452 -1.6533 -0.9693
  160SAPE  C21717855   4.791   6.975   4.907  0.0651  0.1828  0.1080
  160SAPE  H17R17856   4.807   6.950   4.799 -0.2699  0.2954  0.0320
  160SAPE  H17S17857   4.794   6.877   4.959 -1.4132 -0.0086 -0.1199
  160SAPE  C21817858   4.909   7.060   4.958  0.1427  0.0037  0.6131
  160SAPE  H18R17859   4.894   7.165   4.926  1.4311  0.9384  2.8211
  160SAPE  H18S17860   5.007   7.036   4.910 -0.6528 -0.3321 -0.9084
  160SAPE  C21917861   4.932   7.068   5.114  0.6141 -1.1215  0.1160
  160SAPE  H19R17862   4.966   6.966   5.144 -0.8357 -1.7421 -0.2757
  160SAPE  H19S17863   4.839   7.091   5.170  0.5021 -1.1785 -0.0465
  160SAPE  C22017864   5.028   7.171   5.160 -0.6122 -0.1968  0.4750
  160SAPE  H20R17865   5.027   7.181   5.271 -0.5498 -2.2772  0.7020
  160SAPE  H20S17866   5.014   7.273   5.118 -1.2558  0.9263  3.1948
  160SAPE  H20T17867   5.129   7.136   5.129 -0.3673  0.4573  0.5249
  160SAPE   C3317868   4.662   6.822   3.911  0.2831 -0.1261 -0.2899
  160SAPE   H3X17869   4.555   6.792   3.917 -0.3263  2.0643  0.8283
  160SAPE   H3Y17870   4.663   6.933   3.904  0.8432 -0.1809 -1.3586
  160SAPE   C3417871   4.723   6.762   4.031 -0.2023 -0.2791 -0.0420
  160SAPE   H4X17872   4.832   6.782   4.023  0.0308 -0.7318  1.6010
  160SAPE   H4Y17873   4.713   6.652   4.033  2.4284 -0.5616  0.8526
  160SAPE   C3517874   4.646   6.819   4.155 -0.1481  0.4101  0.8227
  160SAPE   H5X17875   4.550   6.765   4.166  0.7320 -1.1206  1.1844
  160SAPE   H5Y17876   4.622   6.926   4.134 -0.5826 -0.1386 -1.8639
  160SAPE   C3617877   4.718   6.809   4.289  0.2565 -0.0773  0.1080
  160SAPE   H6X17878   4.742   6.701   4.298  0.0085 -0.1633 -0.2266
  160SAPE   H6Y17879   4.647   6.828   4.373 -0.7419  1.3376 -1.0182
  160SAPE   C3717880   4.851   6.877   4.311 -0.4711 -0.7001 -0.0850
  160SAPE   H7X17881   4.832   6.986   4.312 -0.6420 -0.7296 -0.0142
  160SAPE   H7Y17882   4.926   6.855   4.232 -0.8340 -0.0904 -0.6084
  160SAPE   C3817883   4.907   6.847   4.456 -0.0082 -0.0272 -0.3165
  160SAPE   H8X17884   4.909   6.737   4.469  2.4446  0.0863  0.9283
  160SAPE   H8Y17885   4.835   6.887   4.531  0.4307  3.2006 -1.4408
  160SAPE   C3917886   5.042   6.910   4.479 -0.8549 -0.0220 -0.3745
  160SAPE   H9X17887   5.036   7.020   4.465  1.9678  0.2184 -0.2746
  160SAPE   H9Y17888   5.118   6.882   4.403  0.2799  1.6497  0.1025
  160SAPE  C31017889   5.099   6.884   4.615 -0.2980  0.9183  0.1071
  160SAPE  H10X17890   5.026   6.905   4.696 -0.5439  0.0443  0.1184
  160SAPE  H10Y17891   5.181   6.957   4.634 -0.1683  0.7004  0.3753
  160SAPE  C31117892   5.148   6.736   4.635  0.1788 -0.6860  0.0789
  160SAPE  H11X17893   5.208   6.712   4.544 -3.4856  0.8197 -3.0022
  160SAPE  H11Y17894   5.059   6.668   4.631 -0.3231 -0.0236 -0.1350
  160SAPE  C31217895   5.224   6.713   4.768 -0.0242  0.8732  0.1083
  160SAPE  H12X17896   5.165   6.748   4.855  0.7864  0.6945  0.7349
  160SAPE  H12Y17897   5.314   6.776   4.755  1.1196 -1.2024 -3.6579
  160SAPE  C31317898   5.262   6.573   4.803  0.7756 -0.0837  0.3347
  160SAPE  H13X17899   5.331   6.536   4.724  2.1481  0.3737  1.2926
  160SAPE  H13Y17900   5.171   6.510   4.797  1.4729 -1.0271 -0.7207
  160SAPE  C31417901   5.323   6.532   4.943 -0.2384  0.5405 -0.4864
  160SAPE  H14X17902   5.238   6.534   5.014 -0.8833  3.2780 -1.2092
  160SAPE  H14Y17903   5.401   6.606   4.972  0.4019 -0.0960 -0.5522
  160SAPE  C31517904   5.383   6.385   4.949  0.0669 -0.4072 -0.5354
  160SAPE  H15X17905   5.479   6.371   4.895  0.1513 -4.0804  0.2829
  160SAPE  H15Y17906   5.316   6.310   4.901 -1.4121 -1.1163  2.3751
  160SAPE  C31617907   5.405   6.342   5.100 -0.0581  0.3700  0.4942
  160SAPE  H16X17908   5.379   6.235   5.090  1.3293  0.2744 -3.8948
  160SAPE  H16Y17909   5.338   6.383   5.179  1.0386  0.8525  1.1941
  160SAPE  C31717910   5.546   6.353   5.161  0.1882 -0.0811  0.2332
  160SAPE  H17X17911   5.544   6.327   5.269  0.7757  0.6724  0.4316
  160SAPE  H17Y17912   5.574   6.460   5.158 -1.4343  0.4050  1.1073
  160SAPE  C31817913   5.643   6.249   5.093  0.0860 -0.2532  0.1928
  160SAPE  H18X17914   5.592   6.154   5.070 -3.3394  1.7901 -1.4719
  160SAPE  H18Y17915   5.720   6.224   5.170  2.6902  0.9191 -1.8549
  160SAPE  H18Z17916   5.675   6.273   4.990 -1.7124 -3.0699 -1.1361
  161SAPE     N17917   3.886   5.159   2.806 -0.0552 -0.1786  0.0461
  161SAPE   HN117918   3.869   5.109   2.896  0.8606 -0.5078  0.0478
  161SAPE   HN217919   3.984   5.133   2.782  0.4254  1.1826  0.5032
  161SAPE   HN317920   3.868   5.259   2.823  1.5911 -0.0540  1.2831
  161SAPE   C1217921   3.778   5.097   2.715  0.2654 -0.3369 -1.2099
  161SAPE  H12A17922   3.780   4.989   2.738  2.7954  0.3794  2.8970
  161SAPE  H12B17923   3.803   5.123   2.610  1.0541  2.4307 -0.4381
  161SAPE   C1117924   3.642   5.166   2.748  0.2809  0.1446  0.0440
  161SAPE  H11A17925   3.609   5.128   2.847 -0.2403  0.3214 -0.0574
  161SAPE  H11B17926   3.573   5.130   2.669  0.7366  0.0982 -0.3391
  161SAPE     P17927   3.626   5.415   2.661 -0.4869  0.3791  0.1246
  161SAPE   O1317928   3.743   5.499   2.644 -0.4001  0.4008  0.4796
  161SAPE   O1417929   3.587   5.351   2.527 -0.1659  0.1235  0.1874
  161SAPE   O1217930   3.661   5.307   2.768 -0.2130  0.1890  0.0664
  161SAPE   O1117931   3.507   5.485   2.722 -0.0182  0.4917 -0.3190
  161SAPE    C117932   3.490   5.545   2.851  0.2852 -0.5002 -0.4750
  161SAPE    HA17933   3.589   5.579   2.891 -1.0509  3.5216 -0.0956
  161SAPE    HB17934   3.432   5.639   2.837  1.5260  0.8953  2.6207
  161SAPE    C217935   3.404   5.457   2.954 -0.6486  0.4242  0.6562
  161SAPE    HS17936   3.370   5.524   3.035  2.6647  1.3453  1.4451
  161SAPE   O2117937   3.492   5.350   2.991  0.8402  0.3183 -0.1686
  161SAPE   C2117938   3.557   5.378   3.104 -0.0110  0.0813  0.1032
  161SAPE   O2217939   3.533   5.476   3.173 -0.0920  0.6209  0.0733
  161SAPE   C2217940   3.660   5.272   3.139  0.7191 -0.2845 -0.1757
  161SAPE   H2R17941   3.590   5.186   3.152  1.6871 -1.2339 -1.0005
  161SAPE   H2S17942   3.721   5.246   3.050  2.3856 -0.8115  1.0813
  161SAPE    C317943   3.277   5.393   2.884  0.2313  0.1501 -0.3155
  161SAPE    HX17944   3.320   5.338   2.797  2.2908  2.9697 -1.2274
  161SAPE    HY17945   3.228   5.483   2.842  2.0630  1.5196  0.3648
  161SAPE   O3117946   3.179   5.333   2.974 -0.4156 -0.0070  0.0560
  161SAPE   C3117947   3.189   5.199   2.982  0.0919  0.4402  0.0691
  161SAPE   O3217948   3.274   5.133   2.922 -0.2341 -0.1745 -0.0341
  161SAPE   C3217949   3.086   5.152   3.084  0.0725 -0.4495 -0.7404
  161SAPE   H2X17950   2.987   5.197   3.060  1.0963  2.5825  0.2756
  161SAPE   H2Y17951   3.110   5.194   3.184 -2.3796  1.2487 -0.7686
  161SAPE   C2317952   3.744   5.302   3.269  0.5164  0.5983 -0.1747
  161SAPE   H3R17953   3.791   5.400   3.248  1.0928 -0.0775 -2.3552
  161SAPE   H3S17954   3.832   5.236   3.280  0.8153  1.1308  0.7186
  161SAPE   C2417955   3.661   5.282   3.402 -0.2719  0.3131  0.3485
  161SAPE   H4R17956   3.562   5.332   3.392 -1.4378 -1.5135  1.9659
  161SAPE   H4S17957   3.721   5.319   3.487 -0.9525 -1.5377  1.6899
  161SAPE   C2517958   3.632   5.138   3.422 -0.0147  0.1295 -0.0994
  161SAPE   H5R17959   3.527   5.120   3.396  0.1344  1.2187 -1.6123
  161SAPE   C2617960   3.707   5.037   3.467 -0.7172 -0.3305 -1.0324
  161SAPE   H6R17961   3.676   4.934   3.488  0.7907 -0.7088 -0.5210
  161SAPE   C2717962   3.850   5.063   3.514 -0.4730  0.0691  0.2287
  161SAPE   H7R17963   3.869   5.172   3.503  2.6516 -0.5585 -1.8623
  161SAPE   H7S17964   3.922   5.015   3.444  0.3986  0.1253  1.0777
  161SAPE   C2817965   3.899   5.009   3.647  0.3810 -0.7431 -0.3000
  161SAPE   H8R17966   3.968   4.924   3.643  2.3101  0.6759  0.6564
  161SAPE   C2917967   3.862   5.056   3.770  0.2501 -0.1870  0.5220
  161SAPE   H9R17968   3.910   5.029   3.865  2.5193 -0.9283 -0.7565
  161SAPE  C21017969   3.764   5.177   3.778 -0.1649  0.2304 -0.4189
  161SAPE  H10R17970   3.659   5.146   3.759  0.5546 -1.8875 -1.2284
  161SAPE  H10S17971   3.792   5.253   3.702  1.5413 -1.4736 -1.5818
  161SAPE  C21117972   3.782   5.237   3.919  0.2303  0.2484  0.0657
  161SAPE  H11R17973   3.833   5.335   3.923 -0.1400  0.4152  0.9594
  161SAPE  C21217974   3.760   5.186   4.043  0.2657 -0.8244  0.2886
  161SAPE  H12R17975   3.772   5.248   4.133  2.4377  0.3095 -0.6836
  161SAPE  C21317976   3.694   5.050   4.068 -0.4591  0.7702  0.8437
  161SAPE  H13R17977   3.771   4.978   4.103 -0.7450  0.4958  0.9152
  161SAPE  H13S17978   3.662   5.007   3.971  3.3699  0.8725 -0.6569
  161SAPE  C21417979   3.582   5.043   4.174  0.1319 -0.5374  0.0638
  161SAPE  H14R17980   3.488   5.091   4.145  0.5134  0.9285  1.1477
  161SAPE  C21517981   3.580   4.991   4.298  0.4159  0.4200  0.3030
  161SAPE  H15R17982   3.488   5.018   4.352 -0.1634  2.6319 -1.6243
  161SAPE  C21617983   3.690   4.912   4.377 -0.3300  0.7559 -0.3721
  161SAPE  H16R17984   3.724   4.828   4.313 -1.1507 -0.9399  1.3253
  161SAPE  H16S17985   3.645   4.862   4.466 -0.9838  2.0380  0.0524
  161SAPE  C21717986   3.808   5.004   4.419 -0.2199  0.5647 -0.1531
  161SAPE  H17R17987   3.775   5.071   4.502 -0.0176 -2.2078  2.3650
  161SAPE  H17S17988   3.844   5.059   4.330 -1.4301  3.9311  1.2952
  161SAPE  C21817989   3.931   4.926   4.474  0.7212  0.0663  0.1993
  161SAPE  H18R17990   3.977   4.862   4.396  2.7093  0.2557  1.1666
  161SAPE  H18S17991   3.892   4.841   4.534 -0.0255  0.0043 -0.3603
  161SAPE  C21917992   4.040   4.995   4.559 -0.2827  0.7605  0.5122
  161SAPE  H19R17993   4.006   5.016   4.662 -1.9285 -0.7997  0.3278
  161SAPE  H19S17994   4.081   5.083   4.505  0.4083 -0.6556 -1.3958
  161SAPE  C22017995   4.170   4.906   4.580 -0.3501  0.5466  0.0774
  161SAPE  H20R17996   4.228   4.883   4.489 -0.2158  1.2503 -0.0176
  161SAPE  H20S17997   4.132   4.816   4.635  1.3382  0.6368  1.4859
  161SAPE  H20T17998   4.239   4.949   4.656  2.3878 -1.3464 -1.1795
  161SAPE   C3317999   3.068   5.003   3.079 -0.0289 -0.2116 -0.1739
  161SAPE   H3X18000   3.160   4.942   3.093 -0.2307 -0.6632 -0.7650
  161SAPE   H3Y18001   3.033   4.978   2.977 -2.4278 -0.8647  0.7529
  161SAPE   C3418002   2.965   4.950   3.181  0.1787 -0.4950  0.4187
  161SAPE   H4X18003   2.979   4.839   3.185 -1.2263 -0.7038  0.2227
  161SAPE   H4Y18004   2.861   4.977   3.152  1.0095  3.0454  0.3916
  161SAPE   C3518005   2.982   4.999   3.331  0.4686 -0.6461  0.3483
  161SAPE   H5X18006   2.958   5.108   3.331  0.8279 -0.5619 -0.3244
  161SAPE   H5Y18007   3.091   4.988   3.351  0.9306  0.2333 -1.4652
  161SAPE   C3618008   2.902   4.906   3.429 -0.3691  0.0219 -0.0619
  161SAPE   H6X18009   2.939   4.905   3.533  0.0863 -1.2084 -0.2183
  161SAPE   H6Y18010   2.895   4.801   3.391  0.3412 -0.4340  1.0428
  161SAPE   C3718011   2.761   4.954   3.449  0.3664  0.9677 -0.0723
  161SAPE   H7X18012   2.711   4.862   3.487  0.8065  0.8287  0.1743
  161SAPE   H7Y18013   2.704   4.989   3.360 -2.0813 -1.3771  0.4353
  161SAPE   C3818014   2.747   5.044   3.579 -0.0368 -0.6546  0.2726
  161SAPE   H8X18015   2.803   5.137   3.555  1.0962 -1.2631  0.4412
  161SAPE   H8Y18016   2.801   5.008   3.669 -0.8791 -0.0046  1.0602
  161SAPE   C3918017   2.603   5.072   3.612 -0.5035 -0.3568  0.3421
  161SAPE   H9X18018   2.532   4.988   3.599 -2.3114  0.8954  1.6590
  161SAPE   H9Y18019   2.569   5.166   3.564  0.0757  0.3306  1.2370
  161SAPE  C31018020   2.585   5.112   3.762  0.1504  0.2731  0.1079
  161SAPE  H10X18021   2.491   5.170   3.772 -0.9357 -1.3383 -0.3793
  161SAPE  H10Y18022   2.678   5.170   3.779 -1.1427  2.1965  0.9759
  161SAPE  C31118023   2.576   4.992   3.866  0.9670 -0.6098  0.4874
  161SAPE  H11X18024   2.668   4.932   3.845  0.8343 -0.8610  0.6163
  161SAPE  H11Y18025   2.485   4.930   3.848 -0.2373  0.1692  3.3951
  161SAPE  C31218026   2.581   5.046   4.008  0.3995 -0.0673  0.3857
  161SAPE  H12X18027   2.510   5.131   4.010 -1.2235 -1.3709 -0.2054
  161SAPE  H12Y18028   2.686   5.076   4.030 -0.2609  2.3978  0.4974
  161SAPE  C31318029   2.538   4.947   4.123  0.6933  0.1555 -0.5157
  161SAPE  H13X18030   2.633   4.905   4.162  0.6922  0.6396  0.0172
  161SAPE  H13Y18031   2.467   4.869   4.086  1.0353 -1.2034  1.5161
  161SAPE  C31418032   2.460   5.005   4.241 -0.4232  0.4417  0.3030
  161SAPE  H14X18033   2.358   5.032   4.205 -0.0827  0.7842 -0.4120
  161SAPE  H14Y18034   2.500   5.104   4.270  0.6620 -0.2337  1.1830
  161SAPE  C31518035   2.459   4.915   4.364 -0.4696 -0.5930  0.0670
  161SAPE  H15X18036   2.557   4.862   4.372 -0.1067 -0.0062 -0.3602
  161SAPE  H15Y18037   2.375   4.843   4.355 -0.8351 -0.1505 -0.0430
  161SAPE  C31618038   2.448   4.994   4.496 -0.3828 -0.2613  0.4858
  161SAPE  H16X18039   2.458   4.912   4.569 -0.8131 -0.9021 -0.1667
  161SAPE  H16Y18040   2.354   5.052   4.507 -0.5648 -0.3796 -0.3769
  161SAPE  C31718041   2.566   5.087   4.528  0.3817 -0.1724  0.7475
  161SAPE  H17X18042   2.542   5.183   4.476 -0.4826 -1.2603 -0.9571
  161SAPE  H17Y18043   2.659   5.041   4.489 -0.3881 -1.9760  0.9425
  161SAPE  C31818044   2.575   5.108   4.679 -0.8947  0.1039 -0.3758
  161SAPE  H18X18045   2.596   5.016   4.739 -1.4165  1.1693  1.5443
  161SAPE  H18Y18046   2.486   5.157   4.725  0.8217  1.1413  2.1096
  161SAPE  H18Z18047   2.662   5.174   4.701 -0.9516 -0.3018  1.2159
  162SAPE     N18048   3.272   6.339   2.481 -0.6272  0.4902  0.3996
  162SAPE   HN118049   3.227   6.247   2.462  1.2281 -0.4088  0.1182
  162SAPE   HN218050   3.212   6.406   2.533 -0.2560 -0.3212  1.9511
  162SAPE   HN318051   3.297   6.379   2.388 -1.8404  1.3834  0.4336
  162SAPE   C1218052   3.386   6.302   2.577 -0.5010 -0.1233 -0.1602
  162SAPE  H12A18053   3.442   6.394   2.606  3.5470 -2.5780  0.5091
  162SAPE  H12B18054   3.460   6.238   2.525  1.7016  1.4106  0.9424
  162SAPE   C1118055   3.333   6.242   2.718  0.0503 -0.0868 -0.4747
  162SAPE  H11A18056   3.420   6.203   2.776  0.3529  0.3874 -0.5990
  162SAPE  H11B18057   3.273   6.151   2.698 -0.7016  0.6614 -1.7381
  162SAPE     P18058   3.323   6.434   2.892 -0.0272 -0.3038 -0.0846
  162SAPE   O1318059   3.437   6.521   2.851 -0.7835  0.1075 -0.3096
  162SAPE   O1418060   3.211   6.498   2.966  0.1108 -0.4343  0.1672
  162SAPE   O1218061   3.260   6.346   2.773  0.2277 -0.2437  0.0660
  162SAPE   O1118062   3.372   6.315   2.981  0.0472 -0.4328 -0.0931
  162SAPE    C118063   3.509   6.300   3.016 -0.2161  0.1782  0.5474
  162SAPE    HA18064   3.575   6.260   2.936  1.8287 -0.4957  2.4476
  162SAPE    HB18065   3.557   6.390   3.061  0.3345  0.4704 -0.5924
  162SAPE    C218066   3.513   6.186   3.117 -0.5916 -0.3095 -0.3974
  162SAPE    HS18067   3.469   6.092   3.078 -0.0027 -1.0163  0.5885
  162SAPE   O2118068   3.458   6.231   3.241  0.2728 -0.3462 -0.3048
  162SAPE   C2118069   3.418   6.137   3.325 -0.4906  0.5243  0.2284
  162SAPE   O2218070   3.413   6.017   3.300  0.6538 -0.5313 -0.2026
  162SAPE   C2218071   3.371   6.198   3.449 -0.3055 -0.4595  0.4816
  162SAPE   H2R18072   3.271   6.243   3.429 -0.2146 -0.3751  0.2241
  162SAPE   H2S18073   3.347   6.114   3.518 -0.7997  1.1455  2.3669
  162SAPE    C318074   3.662   6.142   3.144 -0.6965  0.5901 -0.4671
  162SAPE    HX18075   3.705   6.213   3.217 -1.7585  0.3180  0.4505
  162SAPE    HY18076   3.728   6.165   3.058 -0.5948  1.6487 -0.1136
  162SAPE   O3118077   3.677   6.015   3.212  0.3348 -0.4722 -0.2826
  162SAPE   C3118078   3.666   5.915   3.131 -0.1487 -0.1075  1.0876
  162SAPE   O3218079   3.642   5.926   3.012 -0.4874 -0.4982 -0.2775
  162SAPE   C3218080   3.696   5.786   3.206 -0.5229 -0.4073  1.2900
  162SAPE   H2X18081   3.804   5.784   3.234  0.4676 -2.3199 -2.0881
  162SAPE   H2Y18082   3.677   5.706   3.131 -2.0841 -0.8488  2.1389
  162SAPE   C2318083   3.478   6.297   3.516 -0.0151 -0.1870 -0.2738
  162SAPE   H3R18084   3.524   6.357   3.434  2.8064 -1.8571 -0.0293
  162SAPE   H3S18085   3.548   6.225   3.563 -1.3292 -0.6733  1.0325
  162SAPE   C2418086   3.403   6.370   3.620 -0.3665  0.4441  0.2796
  162SAPE   H4R18087   3.350   6.299   3.687  0.1266  0.8797  1.1497
  162SAPE   H4S18088   3.332   6.435   3.565  0.9907  0.4144 -1.5952
  162SAPE   C2518089   3.502   6.455   3.695 -0.8178 -0.1011 -0.3312
  162SAPE   H5R18090   3.578   6.502   3.632  0.4882 -1.7625 -0.0474
  162SAPE   C2618091   3.547   6.432   3.821 -0.3798  0.2891 -0.2259
  162SAPE   H6R18092   3.636   6.485   3.858 -0.9884  1.1998 -0.0371
  162SAPE   C2718093   3.491   6.330   3.925  0.4500  0.0849  0.2767
  162SAPE   H7R18094   3.561   6.318   4.010 -0.7943  0.0073  1.3338
  162SAPE   H7S18095   3.489   6.225   3.889  1.5959  0.0681  0.2217
  162SAPE   C2818096   3.349   6.362   3.977 -0.3220 -0.2364 -0.8723
  162SAPE   H8R18097   3.290   6.435   3.920 -0.1231  0.1372 -0.5976
  162SAPE   C2918098   3.315   6.341   4.105  0.1175  0.3489 -0.7990
  162SAPE   H9R18099   3.211   6.357   4.138 -0.1132 -1.0264 -0.7932
  162SAPE  C21018100   3.393   6.274   4.214 -0.0010  0.1116  0.4617
  162SAPE  H10R18101   3.474   6.209   4.176  0.5389  1.5447 -0.9309
  162SAPE  H10S18102   3.320   6.201   4.257  0.1811 -0.2019  0.2451
  162SAPE  C21118103   3.450   6.368   4.315 -0.6601  0.1290 -0.1825
  162SAPE  H11R18104   3.519   6.443   4.273 -2.2932 -0.0128 -3.4370
  162SAPE  C21218105   3.449   6.347   4.449  0.2110  0.6606 -0.2298
  162SAPE  H12R18106   3.504   6.411   4.521  2.3002 -0.0077 -1.1491
  162SAPE  C21318107   3.360   6.253   4.532  0.2554 -0.7044  0.9695
  162SAPE  H13R18108   3.416   6.196   4.609  0.9552 -1.2040  0.1048
  162SAPE  H13S18109   3.334   6.170   4.462  1.0094  0.6365 -0.9664
  162SAPE  C21418110   3.239   6.335   4.592  0.2869  0.0997  0.4056
  162SAPE  H14R18111   3.228   6.436   4.552 -1.1559 -0.7649 -1.5508
  162SAPE  C21518112   3.154   6.288   4.684  0.0655  0.5797 -0.1926
  162SAPE  H15R18113   3.068   6.352   4.710 -1.2636 -1.5652  1.0312
  162SAPE  C21618114   3.147   6.150   4.750 -0.2059  0.3427 -0.8242
  162SAPE  H16R18115   3.162   6.069   4.675  2.0316 -0.6560  0.5912
  162SAPE  H16S18116   3.050   6.125   4.797  0.9189 -3.3649 -0.1203
  162SAPE  C21718117   3.255   6.139   4.864  0.8807 -0.5200  0.8383
  162SAPE  H17R18118   3.357   6.179   4.843  1.9938 -3.1942  0.6795
  162SAPE  H17S18119   3.264   6.029   4.876 -0.4510 -1.0355 -2.0325
  162SAPE  C21818120   3.206   6.226   4.987  0.1168 -0.4054  0.1559
  162SAPE  H18R18121   3.097   6.214   5.001  0.2857 -1.6951  0.4872
  162SAPE  H18S18122   3.232   6.333   4.968  0.0772 -0.3121  0.6122
  162SAPE  C21918123   3.269   6.176   5.122 -0.1883  0.2555  0.0619
  162SAPE  H19R18124   3.229   6.242   5.202 -1.9282 -0.2246 -0.3833
  162SAPE  H19S18125   3.376   6.197   5.098 -0.2754 -0.7431 -1.3331
  162SAPE  C22018126   3.241   6.026   5.155  0.6579 -0.6370 -0.0511
  162SAPE  H20R18127   3.131   6.023   5.161  0.6209  1.4113  3.5542
  162SAPE  H20S18128   3.293   5.994   5.248 -0.2728  0.5233  0.8952
  162SAPE  H20T18129   3.282   5.966   5.071  0.5239 -0.1197 -0.4953
  162SAPE   C3318130   3.596   5.764   3.320  0.0963 -0.1826 -0.6822
  162SAPE   H3X18131   3.595   5.654   3.332  0.3325 -0.2002 -0.8105
  162SAPE   H3Y18132   3.496   5.807   3.299  0.7788  2.0284  0.3672
  162SAPE   C3418133   3.648   5.824   3.452  0.0159  0.2617  0.5413
  162SAPE   H4X18134   3.705   5.918   3.436 -1.0382  1.1692  1.9166
  162SAPE   H4Y18135   3.716   5.747   3.496 -2.2775 -2.5281 -0.4319
  162SAPE   C3518136   3.544   5.845   3.562 -0.1719  0.3530  0.2573
  162SAPE   H5X18137   3.472   5.761   3.562  0.1587 -0.0615  3.6905
  162SAPE   H5Y18138   3.489   5.939   3.540  0.8721  0.3185 -3.1782
  162SAPE   C3618139   3.617   5.841   3.702 -0.2653  0.2592 -0.3977
  162SAPE   H6X18140   3.703   5.912   3.702  1.1017 -1.3012  0.8936
  162SAPE   H6Y18141   3.664   5.742   3.718 -0.2281  0.4138  0.4622
  162SAPE   C3718142   3.535   5.888   3.823 -0.3732 -0.3053 -0.0399
  162SAPE   H7X18143   3.462   5.805   3.836  1.5526 -2.1322 -0.3039
  162SAPE   H7Y18144   3.485   5.987   3.813  2.9114  1.5921  0.9681
  162SAPE   C3818145   3.616   5.899   3.950  0.0214  0.0682 -0.4899
  162SAPE   H8X18146   3.671   5.995   3.938 -2.4411  1.5567 -0.6139
  162SAPE   H8Y18147   3.693   5.819   3.954  1.5759  1.4562 -1.3288
  162SAPE   C3918148   3.536   5.910   4.075 -0.0042 -0.5731  0.4404
  162SAPE   H9X18149   3.471   5.820   4.071  1.3003 -1.4970 -1.5038
  162SAPE   H9Y18150   3.482   6.007   4.081 -0.4549 -0.8590  1.2566
  162SAPE  C31018151   3.618   5.902   4.204  0.1305  0.3717 -0.2646
  162SAPE  H10X18152   3.691   5.986   4.205  1.5208 -0.7468  1.7271
  162SAPE  H10Y18153   3.685   5.813   4.208  0.5790  0.7269  0.2912
  162SAPE  C31118154   3.532   5.917   4.335 -0.5637 -0.2483 -0.2416
  162SAPE  H11X18155   3.475   6.012   4.329  0.1206  0.1069 -1.5339
  162SAPE  H11Y18156   3.614   5.932   4.409 -0.5031  0.1621 -0.3879
  162SAPE  C31218157   3.431   5.804   4.358 -0.0503  0.3373  0.0655
  162SAPE  H12X18158   3.481   5.708   4.333 -0.3293  0.2087 -0.0079
  162SAPE  H12Y18159   3.334   5.821   4.307 -1.4118  0.4113  2.5233
  162SAPE  C31318160   3.396   5.797   4.507  0.7615  0.3338 -0.8746
  162SAPE  H13X18161   3.329   5.709   4.524  1.1499  0.0819 -0.6280
  162SAPE  H13Y18162   3.340   5.886   4.541  0.0301 -0.7055  0.7910
  162SAPE  C31418163   3.518   5.783   4.602  0.6564  0.5601 -0.3042
  162SAPE  H14X18164   3.572   5.880   4.590 -0.3842  0.8579 -4.2829
  162SAPE  H14Y18165   3.576   5.697   4.562  0.1009 -0.7572  1.6063
  162SAPE  C31518166   3.488   5.756   4.747  0.0240 -0.7250 -0.2988
  162SAPE  H15X18167   3.411   5.676   4.751  0.1578 -1.2372 -4.2153
  162SAPE  H15Y18168   3.447   5.854   4.781 -0.1078 -0.9380  0.1554
  162SAPE  C31618169   3.612   5.713   4.837 -0.0461  0.6994  0.0878
  162SAPE  H16X18170   3.626   5.604   4.818  0.8616  0.8093  0.0425
  162SAPE  H16Y18171   3.571   5.718   4.940 -0.6796  0.8766 -0.1710
  162SAPE  C31718172   3.735   5.810   4.825 -0.7128  0.4168  0.6131
  162SAPE  H17X18173   3.791   5.818   4.920  5.5027 -0.0554 -2.5027
  162SAPE  H17Y18174   3.688   5.909   4.810 -1.3403  0.4017  2.3299
  162SAPE  C31818175   3.830   5.782   4.706  0.1014 -0.7851  0.4146
  162SAPE  H18X18176   3.872   5.679   4.709  1.9156 -0.0733  0.2792
  162SAPE  H18Y18177   3.914   5.853   4.714  0.8191 -1.3355 -1.5759
  162SAPE  H18Z18178   3.786   5.798   4.605 -0.6196  0.9250  0.9632
  163SAPE     N18179   4.329   0.388   3.315 -0.2996  0.1270 -0.3936
  163SAPE   HN118180   4.397   0.444   3.260  0.2119  2.1314  2.0858
  163SAPE   HN218181   4.350   0.380   3.416  0.2577 -1.2096 -0.5862
  163SAPE   HN318182   4.320   0.296   3.266 -1.0581  1.0154 -1.9959
  163SAPE   C1218183   4.200   0.454   3.286  0.0024  1.0082  0.2971
  163SAPE  H12A18184   4.185   0.430   3.179  0.3539  1.2663  0.1870
  163SAPE  H12B18185   4.220   0.564   3.283  1.6633  0.7046 -0.8794
  163SAPE   C1118186   4.097   0.405   3.383 -0.1199 -0.9258  0.1733
  163SAPE  H11A18187   4.009   0.473   3.375  1.0123  0.7708  1.5179
  163SAPE  H11B18188   4.127   0.423   3.488  0.1775 -0.5105  0.0190
  163SAPE     P18189   3.950   0.215   3.262  0.1895  0.0527 -0.0311
  163SAPE   O1318190   3.915   0.316   3.165 -0.3285 -1.0249 -0.2760
  163SAPE   O1418191   3.988   0.085   3.212 -0.3788 -0.0983  0.4462
  163SAPE   O1218192   4.064   0.272   3.358  0.1579  0.2381 -0.2239
  163SAPE   O1118193   3.843   0.208   3.382 -0.1401 -0.0513 -0.0064
  163SAPE    C118194   3.790   0.081   3.425 -0.0615  0.4525  0.4596
  163SAPE    HA18195   3.689   0.072   3.377  0.8216 -2.8327 -1.0993
  163SAPE    HB18196   3.832  -0.006   3.371 -1.2111 -0.8953  1.6477
  163SAPE    C218197   3.786   0.051   3.578 -0.1622 -0.3352 -1.0877
  163SAPE    HS18198   3.739   0.140   3.625  1.2835 -0.3093  0.3921
  163SAPE   O2118199   3.922   0.043   3.627  0.7781 -1.0466 -0.1204
  163SAPE   C2118200   3.971   0.151   3.682 -0.1913 -0.8310  0.2816
  163SAPE   O2218201   3.906   0.251   3.719 -0.8691 -0.3912 -0.2143
  163SAPE   C2218202   4.120   0.133   3.702  0.6394  0.0334  0.4036
  163SAPE   H2R18203   4.163   0.151   3.601  0.8249 -0.4136  0.4013
  163SAPE   H2S18204   4.169   0.211   3.764 -0.3870  0.6317  0.4870
  163SAPE    C318205   3.709  -0.076   3.620 -0.1204  0.2789  1.0967
  163SAPE    HX18206   3.756  -0.151   3.553 -0.8022 -0.3065  1.2578
  163SAPE    HY18207   3.603  -0.076   3.586  1.1242  1.5031 -3.4571
  163SAPE   O3118208   3.733  -0.114   3.756 -0.0824  0.4891 -0.4548
  163SAPE   C3118209   3.665  -0.047   3.850  1.4200  0.0285 -0.0308
  163SAPE   O3218210   3.564   0.023   3.827 -0.3667  0.3113 -0.1702
  163SAPE   C3218211   3.724  -0.073   3.990 -0.5411 -0.1140 -0.6992
  163SAPE   H2X18212   3.790   0.015   4.008 -2.0181  0.5331  2.1639
  163SAPE   H2Y18213   3.789  -0.163   3.995 -1.9373 -1.0697  1.8111
  163SAPE   C2318214   4.168  -0.012   3.743  0.1393  0.4231  0.3924
  163SAPE   H3R18215   4.264  -0.038   3.694 -0.9350 -0.0896 -1.5519
  163SAPE   H3S18216   4.107  -0.093   3.697  0.2229  0.6617 -0.1478
  163SAPE   C2418217   4.167  -0.040   3.891  0.3179 -0.0754 -0.2103
  163SAPE   H4R18218   4.180  -0.148   3.915  0.0082  0.5026  3.1040
  163SAPE   H4S18219   4.071  -0.018   3.943  0.3012 -1.1880  0.2613
  163SAPE   C2518220   4.290   0.023   3.957 -0.1935  0.8500  0.5746
  163SAPE   H5R18221   4.362   0.089   3.907  0.0503  1.6809  1.9732
  163SAPE   C2618222   4.308   0.028   4.089 -0.5156  0.4537  0.6257
  163SAPE   H6R18223   4.397   0.079   4.129  0.8942 -0.1289 -1.5732
  163SAPE   C2718224   4.231  -0.042   4.199  0.5133  0.4399  0.5547
  163SAPE   H7R18225   4.296  -0.044   4.289  0.7060  1.2617  0.4369
  163SAPE   H7S18226   4.207  -0.148   4.176 -0.0167  1.0630 -2.1616
  163SAPE   C2818227   4.093   0.019   4.231 -0.2143  0.0023 -0.0774
  163SAPE   H8R18228   4.058   0.103   4.169 -2.7165  0.2220  1.4965
  163SAPE   C2918229   4.039  -0.013   4.350  0.5171  0.5532  0.4124
  163SAPE   H9R18230   3.936   0.026   4.362  0.1164 -0.4234  0.2487
  163SAPE  C21018231   4.076  -0.129   4.439  0.0381 -0.4591  0.2247
  163SAPE  H10R18232   4.158  -0.093   4.504  1.3382 -2.0838 -0.4530
  163SAPE  H10S18233   4.122  -0.212   4.383 -0.6660  0.8619 -2.4844
  163SAPE  C21118234   3.950  -0.171   4.521 -0.4236 -0.0873 -0.7759
  163SAPE  H11R18235   3.859  -0.193   4.463  0.8533 -1.1404 -2.5020
  163SAPE  C21218236   3.945  -0.177   4.654 -0.3170  0.8672 -0.5137
  163SAPE  H12R18237   3.859  -0.219   4.709  0.8167 -2.1823 -0.8879
  163SAPE  C21318238   4.068  -0.144   4.741 -0.8882  0.1458  0.4268
  163SAPE  H13R18239   4.165  -0.164   4.691 -1.0159  1.5238 -0.4141
  163SAPE  H13S18240   4.069  -0.226   4.817 -1.0541  1.3213  1.7323
  163SAPE  C21418241   4.068  -0.010   4.812 -0.2071  0.6924  0.1347
  163SAPE  H14R18242   4.148   0.054   4.771  1.4294  0.0609  2.1758
  163SAPE  C21518243   4.025   0.017   4.941 -0.1065  0.0783  0.2023
  163SAPE  H15R18244   4.045   0.113   4.989  0.1760 -0.5059  1.2938
  163SAPE  C21618245   3.935  -0.078   5.016  0.2391 -0.0441 -0.6582
  163SAPE  H16R18246   3.950  -0.084   5.126 -1.2727  1.2769 -0.3540
  163SAPE  H16S18247   3.958  -0.178   4.973 -0.3924  1.6679 -5.6679
  163SAPE  C21718248   3.787  -0.051   4.989 -0.5249  0.3034 -0.3612
  163SAPE  H17R18249   3.729  -0.145   5.004  1.5290 -0.8570  0.7029
  163SAPE  H17S18250   3.766  -0.013   4.887 -3.6964 -3.8484 -1.5545
  163SAPE  C21818251   3.739   0.062   5.081 -0.1113  0.3603 -0.2737
  163SAPE  H18R18252   3.800   0.154   5.069  0.7985 -0.3021 -0.8329
  163SAPE  H18S18253   3.754   0.030   5.186  0.6940  0.4372 -0.3580
  163SAPE  C21918254   3.595   0.088   5.064  0.1273 -0.5547 -0.1924
  163SAPE  H19R18255   3.542  -0.002   5.102 -2.4672  0.7226 -0.5671
  163SAPE  H19S18256   3.555   0.099   4.960  0.5532  2.7236 -0.1187
  163SAPE  C22018257   3.546   0.209   5.149  0.0089  0.0034 -0.7602
  163SAPE  H20R18258   3.604   0.295   5.110  1.5112 -0.9673 -0.7115
  163SAPE  H20S18259   3.566   0.184   5.255 -0.3578  0.9531 -0.4519
  163SAPE  H20T18260   3.436   0.225   5.141  0.4477  3.1868 -1.9915
  163SAPE   C3318261   3.609  -0.092   4.091 -0.1727 -0.1582  1.0431
  163SAPE   H3X18262   3.548  -0.178   4.058  0.6506  0.1552 -1.4835
  163SAPE   H3Y18263   3.546  -0.001   4.088 -0.9882 -0.7130  1.0677
  163SAPE   C3418264   3.657  -0.109   4.229 -0.5230  0.4482 -0.6186
  163SAPE   H4X18265   3.728  -0.027   4.250  1.5046 -1.5497  0.8623
  163SAPE   H4Y18266   3.705  -0.207   4.250  1.3090  1.7545  1.7450
  163SAPE   C3518267   3.539  -0.102   4.326 -0.5766  0.0244  0.6674
  163SAPE   H5X18268   3.469  -0.185   4.303  2.6506 -2.5311 -0.7222
  163SAPE   H5Y18269   3.479  -0.008   4.319 -0.5205  0.0514  0.5504
  163SAPE   C3618270   3.575  -0.120   4.472 -0.2144 -0.0113 -0.4471
  163SAPE   H6X18271   3.649  -0.045   4.506  2.3832 -0.8811 -3.6344
  163SAPE   H6Y18272   3.612  -0.221   4.499 -0.7048 -0.4256 -1.2841
  163SAPE   C3718273   3.443  -0.108   4.551  0.0606 -0.0099  0.1712
  163SAPE   H7X18274   3.374  -0.183   4.506  0.5963 -0.2492 -0.2627
  163SAPE   H7Y18275   3.403  -0.005   4.544 -3.1651 -1.1668 -0.5269
  163SAPE   C3818276   3.464  -0.153   4.699  0.2558 -0.2200 -0.1379
  163SAPE   H8X18277   3.544  -0.092   4.747 -1.3387  1.3171  0.6703
  163SAPE   H8Y18278   3.499  -0.258   4.705  1.2379  0.1701  1.5588
  163SAPE   C3918279   3.341  -0.129   4.793  0.2326 -0.1754  0.0533
  163SAPE   H9X18280   3.256  -0.164   4.731 -1.8307  2.8842  0.9614
  163SAPE   H9Y18281   3.340  -0.020   4.813 -3.1533 -0.4469  2.0041
  163SAPE  C31018282   3.329  -0.203   4.929 -0.7103  0.1115  0.2130
  163SAPE  H10X18283   3.426  -0.188   4.983 -0.5635  2.5916 -0.5910
  163SAPE  H10Y18284   3.303  -0.309   4.914  2.3577 -0.5246 -1.3326
  163SAPE  C31118285   3.216  -0.151   5.025  0.0070  0.0570 -0.2406
  163SAPE  H11X18286   3.178  -0.231   5.093 -0.4508  0.6013  0.1552
  163SAPE  H11Y18287   3.133  -0.120   4.958 -1.9172 -1.5050  1.2821
  163SAPE  C31218288   3.255  -0.036   5.111 -0.3181 -0.2968 -0.8296
  163SAPE  H12X18289   3.307   0.044   5.055  1.8521  1.5088  3.3227
  163SAPE  H12Y18290   3.320  -0.072   5.194 -0.1861 -0.5081 -1.0242
  163SAPE  C31318291   3.141   0.041   5.175 -0.5612 -0.2118 -0.0369
  163SAPE  H13X18292   3.047   0.008   5.126 -0.9941 -3.8095  2.7971
  163SAPE  H13Y18293   3.152   0.151   5.164 -1.1628 -0.1185  0.2180
  163SAPE  C31418294   3.133   0.028   5.330 -0.1643  0.5161 -0.3781
  163SAPE  H14X18295   3.214   0.093   5.370 -1.2450  2.0172 -0.5315
  163SAPE  H14Y18296   3.148  -0.079   5.358  0.5452  0.3543 -1.3397
  163SAPE  C31518297   3.013   0.086   5.393  0.1181  0.1946  0.5947
  163SAPE  H15X18298   2.919   0.045   5.350  0.7387  1.2603 -1.9393
  163SAPE  H15Y18299   3.006   0.195   5.377  3.3961  0.8059  2.3625
  163SAPE  C31618300   2.999   0.065   5.543  0.1333 -0.2744 -0.0616
  163SAPE  H16X18301   3.083   0.118   5.592 -0.9953  2.5819 -0.9990
  163SAPE  H16Y18302   3.002  -0.044   5.565 -0.5942 -0.3355 -0.2588
  163SAPE  C31718303   2.861   0.121   5.588  0.2337 -0.4155  0.2796
  163SAPE  H17X18304   2.791   0.069   5.520  0.4732 -0.5824  0.1614
  163SAPE  H17Y18305   2.856   0.223   5.544 -0.6852 -1.8336 -3.2304
  163SAPE  C31818306   2.834   0.112   5.734  0.3176 -0.2489  0.2327
  163SAPE  H18X18307   2.843   0.006   5.768 -2.2280 -1.3502 -2.1183
  163SAPE  H18Y18308   2.745   0.165   5.773  0.5213 -0.2593  0.7194
  163SAPE  H18Z18309   2.918   0.156   5.792  0.9832 -2.0901  0.7484
  164SAPE     N18310   6.635   2.064   3.255 -0.1297 -0.0307 -0.2714
  164SAPE   HN118311   6.716   2.020   3.206 -0.5938 -0.3262 -0.7786
  164SAPE   HN218312   6.631   2.015   3.347 -0.8067  2.4500  1.0920
  164SAPE   HN318313   6.548   2.049   3.201 -0.1854 -1.4755  0.1718
  164SAPE   C1218314   6.671   2.204   3.292 -0.3334 -0.0411 -0.4586
  164SAPE  H12A18315   6.597   2.235   3.370 -1.6667 -0.1874 -1.6246
  164SAPE  H12B18316   6.652   2.276   3.210  1.8113  0.8158 -0.2721
  164SAPE   C1118317   6.815   2.208   3.355 -0.2621 -0.0904 -0.1004
  164SAPE  H11A18318   6.816   2.139   3.442  2.5145  0.7761  0.6394
  164SAPE  H11B18319   6.835   2.307   3.402  1.3661 -1.4070  2.1883
  164SAPE     P18320   6.996   2.282   3.181  0.3056 -0.3108  0.0216
  164SAPE   O1318321   7.080   2.212   3.085  0.0623 -0.0878  0.2861
  164SAPE   O1418322   6.887   2.369   3.122  0.3293 -0.4787 -0.1672
  164SAPE   O1218323   6.921   2.173   3.271  0.1448  0.1217  0.6172
  164SAPE   O1118324   7.080   2.359   3.291 -0.4479 -0.2050 -0.0799
  164SAPE    C118325   7.176   2.296   3.379 -0.4202  0.2655 -0.8095
  164SAPE    HA18326   7.171   2.185   3.389  1.5709 -0.0429 -2.3724
  164SAPE    HB18327   7.274   2.329   3.336  0.5534  0.5939  1.5341
  164SAPE    C218328   7.181   2.365   3.523  0.1617  0.2456 -0.4571
  164SAPE    HS18329   7.258   2.313   3.584 -1.8477 -0.3364  1.7574
  164SAPE   O2118330   7.054   2.356   3.594 -0.1269  0.0455  0.8863
  164SAPE   C2118331   7.020   2.241   3.655  0.0693 -0.6346 -0.7741
  164SAPE   O2218332   7.084   2.139   3.663  0.4991  0.0655 -0.5089
  164SAPE   C2218333   6.875   2.267   3.707 -0.2007  0.3650 -0.0532
  164SAPE   H2R18334   6.877   2.358   3.770 -0.1003 -0.8752  1.8194
  164SAPE   H2S18335   6.810   2.271   3.617 -0.2676 -0.7182 -0.0756
  164SAPE    C318336   7.224   2.513   3.528 -0.7876 -0.0244 -0.3405
  164SAPE    HX18337   7.158   2.579   3.466  1.0981  1.3626 -0.9716
  164SAPE    HY18338   7.327   2.523   3.488 -0.9254  2.6290 -0.2248
  164SAPE   O3118339   7.232   2.555   3.664 -0.3225 -1.0321  0.5719
  164SAPE   C3118340   7.132   2.639   3.702  0.0231  0.2906  0.2684
  164SAPE   O3218341   7.033   2.659   3.638  0.3460 -0.4821 -0.0664
  164SAPE   C3218342   7.164   2.688   3.845  0.0651 -0.7398  0.0071
  164SAPE   H2X18343   7.267   2.666   3.880  0.5937  2.3320  0.6808
  164SAPE   H2Y18344   7.106   2.628   3.918 -0.5878 -0.8867 -0.6268
  164SAPE   C2318345   6.840   2.149   3.803 -0.3672 -0.3762 -0.0545
  164SAPE   H3R18346   6.916   2.155   3.884  1.1095 -1.6920 -1.2947
  164SAPE   H3S18347   6.849   2.053   3.749  0.0071 -1.2832  1.5523
  164SAPE   C2418348   6.703   2.169   3.866  0.2676  0.2535 -0.5317
  164SAPE   H4R18349   6.626   2.155   3.788 -0.4377 -0.2401  0.2405
  164SAPE   H4S18350   6.701   2.272   3.908 -0.0689  0.3830 -0.8592
  164SAPE   C2518351   6.690   2.056   3.963 -0.1136  0.2678 -0.7022
  164SAPE   H5R18352   6.671   1.957   3.919 -0.3984  0.2919 -0.6396
  164SAPE   C2618353   6.672   2.066   4.100 -0.0704 -0.9937  0.7955
  164SAPE   H6R18354   6.664   1.969   4.151 -1.1967 -1.8979 -0.9767
  164SAPE   C2718355   6.698   2.195   4.182  0.1286  0.3200 -1.1353
  164SAPE   H7R18356   6.605   2.197   4.243  0.7281 -0.3966 -0.1446
  164SAPE   H7S18357   6.701   2.289   4.124 -1.1443  1.5856  0.7363
  164SAPE   C2818358   6.825   2.179   4.261  0.2542 -0.1451  0.3918
  164SAPE   H8R18359   6.913   2.172   4.196 -0.4010  0.4235 -0.5879
  164SAPE   C2918360   6.841   2.148   4.392  0.2236 -0.6227  0.6672
  164SAPE   H9R18361   6.936   2.113   4.435  0.0648 -0.2846  1.2961
  164SAPE  C21018362   6.715   2.138   4.484  1.1107  0.7530  0.2582
  164SAPE  H10R18363   6.622   2.112   4.428  0.7256  3.3350 -0.4283
  164SAPE  H10S18364   6.704   2.241   4.523 -2.1362  1.2698 -1.6509
  164SAPE  C21118365   6.734   2.031   4.587 -0.4651  0.3965  0.1247
  164SAPE  H11R18366   6.835   1.996   4.612 -0.6359  0.4069  0.8614
  164SAPE  C21218367   6.649   1.990   4.684 -0.0367  0.1177 -0.2699
  164SAPE  H12R18368   6.678   1.927   4.769  0.1434  0.2237 -0.2524
  164SAPE  C21318369   6.505   2.042   4.703 -0.4106  0.0444  0.5466
  164SAPE  H13R18370   6.460   2.001   4.610  0.8444  0.4659 -0.2753
  164SAPE  H13S18371   6.502   2.153   4.699 -0.2550  0.0952  1.5567
  164SAPE  C21418372   6.423   1.994   4.820  0.2224 -0.3446  0.2307
  164SAPE  H14R18373   6.450   2.041   4.916 -0.2365  0.3879  0.0173
  164SAPE  C21518374   6.328   1.901   4.822 -0.1937 -0.6899 -0.1789
  164SAPE  H15R18375   6.269   1.870   4.909 -0.4274 -3.6484 -1.2755
  164SAPE  C21618376   6.276   1.826   4.705  0.3037  0.1046 -0.9369
  164SAPE  H16R18377   6.275   1.895   4.619 -0.5840 -0.8046 -1.6877
  164SAPE  H16S18378   6.169   1.804   4.728  0.5884  1.7670  2.7349
  164SAPE  C21718379   6.349   1.704   4.678 -0.0687 -0.3194 -0.6012
  164SAPE  H17R18380   6.347   1.633   4.764  0.7335 -0.7195 -0.9017
  164SAPE  H17S18381   6.459   1.724   4.676  0.1680 -1.0952  1.6797
  164SAPE  C21818382   6.302   1.622   4.558  0.1198 -0.4887 -0.3025
  164SAPE  H18R18383   6.193   1.604   4.545 -0.0013 -1.0894  1.3327
  164SAPE  H18S18384   6.351   1.522   4.561  0.0279 -0.5399 -0.4503
  164SAPE  C21918385   6.355   1.683   4.425 -0.0753 -0.4814 -0.5834
  164SAPE  H19R18386   6.316   1.787   4.418  0.4328 -0.2554 -0.0935
  164SAPE  H19S18387   6.312   1.636   4.334  0.2982  0.5610 -1.3131
  164SAPE  C22018388   6.507   1.691   4.410  0.6575 -0.0336  0.9873
  164SAPE  H20R18389   6.542   1.585   4.405 -0.8954 -0.6236  1.9328
  164SAPE  H20S18390   6.549   1.739   4.500 -0.0825 -1.0066  1.8838
  164SAPE  H20T18391   6.545   1.753   4.326  0.0109  1.8033  2.0047
  164SAPE   C3318392   7.137   2.839   3.856  0.4906  0.2231 -0.1665
  164SAPE   H3X18393   7.038   2.873   3.819  0.1558 -0.0041  0.5293
  164SAPE   H3Y18394   7.220   2.895   3.807 -1.1062  3.4315  0.5129
  164SAPE   C3418395   7.144   2.884   4.001  0.7688 -1.1024  0.1549
  164SAPE   H4X18396   7.078   2.830   4.073  2.2535  0.2194  2.6615
  164SAPE   H4Y18397   7.103   2.987   3.999  0.6014 -1.0315 -5.0810
  164SAPE   C3518398   7.291   2.886   4.050  0.4320  0.0787 -0.1424
  164SAPE   H5X18399   7.337   2.976   4.003  2.1007 -0.4701  0.3461
  164SAPE   H5Y18400   7.351   2.795   4.030  0.9288 -0.2277  2.3543
  164SAPE   C3618401   7.291   2.905   4.205  0.0772 -0.7736 -0.1023
  164SAPE   H6X18402   7.190   2.941   4.235 -0.0598 -0.8902 -0.4256
  164SAPE   H6Y18403   7.363   2.977   4.250 -2.9931  0.2376  3.8062
  164SAPE   C3718404   7.304   2.775   4.282 -0.5889  0.1391  0.0710
  164SAPE   H7X18405   7.282   2.796   4.388 -0.6046  1.8258 -0.2338
  164SAPE   H7Y18406   7.408   2.739   4.270 -1.2120 -1.7897  0.1188
  164SAPE   C3818407   7.213   2.652   4.255 -0.0782 -0.9546  0.9723
  164SAPE   H8X18408   7.221   2.640   4.145 -0.8527  1.6518  0.5662
  164SAPE   H8Y18409   7.113   2.684   4.291  0.1955 -0.5067  1.3429
  164SAPE   C3918410   7.239   2.524   4.327  0.5135  1.0236  0.1724
  164SAPE   H9X18411   7.308   2.539   4.412  1.7021 -3.2479  0.1963
  164SAPE   H9Y18412   7.297   2.454   4.264 -1.1355 -0.5606  0.3350
  164SAPE  C31018413   7.117   2.456   4.390  0.4484 -0.0238  0.0049
  164SAPE  H10X18414   7.134   2.348   4.408  1.8321  0.0212 -0.8131
  164SAPE  H10Y18415   7.022   2.468   4.334 -0.7800  0.0782  2.0403
  164SAPE  C31118416   7.080   2.517   4.531  0.0864  0.3741 -0.0600
  164SAPE  H11X18417   7.017   2.607   4.517  1.8456  1.4817 -1.2662
  164SAPE  H11Y18418   7.168   2.560   4.583  0.8790 -0.5850 -0.5712
  164SAPE  C31218419   7.013   2.411   4.621  0.0827 -0.6439  0.4240
  164SAPE  H12X18420   7.080   2.324   4.636  0.7738 -0.0004  1.1935
  164SAPE  H12Y18421   6.931   2.354   4.573 -0.0740  0.9016 -1.2986
  164SAPE  C31318422   6.983   2.478   4.759 -0.0353 -0.8400 -0.4619
  164SAPE  H13X18423   6.911   2.562   4.746 -0.1756 -1.1303 -1.7450
  164SAPE  H13Y18424   7.076   2.524   4.799 -1.0667  2.3041 -1.3345
  164SAPE  C31418425   6.921   2.385   4.868  0.5397 -0.3359  0.9824
  164SAPE  H14X18426   6.824   2.341   4.836  0.2715  0.2877  0.9132
  164SAPE  H14Y18427   6.900   2.456   4.952  1.5061  0.3674  0.6437
  164SAPE  C31518428   7.013   2.264   4.891  0.1522  0.4673 -0.2235
  164SAPE  H15X18429   7.114   2.292   4.926 -0.2999  0.4379  1.1529
  164SAPE  H15Y18430   7.024   2.193   4.805  0.8803  0.2117  0.0803
  164SAPE  C31618431   6.949   2.174   5.006  0.5823 -0.0638  0.8822
  164SAPE  H16X18432   6.936   2.241   5.093  1.9390  0.5693  0.6117
  164SAPE  H16Y18433   7.018   2.088   5.017 -2.6143 -3.1636 -1.0913
  164SAPE  C31718434   6.826   2.103   4.970  0.0024 -0.2126  0.4379
  164SAPE  H17X18435   6.838   2.033   4.885 -1.1893 -0.5175  0.4984
  164SAPE  H17Y18436   6.750   2.172   4.928  0.6153 -0.6408 -1.4663
  164SAPE  C31818437   6.746   2.034   5.084  1.0617 -0.3695  0.1372
  164SAPE  H18X18438   6.640   2.006   5.071  1.5844 -1.2646 -3.1202
  164SAPE  H18Y18439   6.759   2.101   5.172 -0.6105  1.4557 -0.9453
  164SAPE  H18Z18440   6.789   1.935   5.110  0.4074 -0.3635  1.3093
  165SAPE     N18441   4.759   0.917   3.171  0.0294 -0.1356 -0.0654
  165SAPE   HN118442   4.750   0.970   3.260 -1.1922  1.6996 -1.2203
  165SAPE   HN218443   4.679   0.850   3.164  1.0585 -1.2336 -2.4958
  165SAPE   HN318444   4.844   0.857   3.170 -1.4446 -2.3438  0.2620
  165SAPE   C1218445   4.757   1.001   3.049  0.0409 -0.1060  0.3411
  165SAPE  H12A18446   4.789   0.937   2.964 -1.2496 -1.0696  0.5380
  165SAPE  H12B18447   4.825   1.086   3.070 -2.2076  1.4151  1.9402
  165SAPE   C1118448   4.617   1.073   3.030 -0.0274 -0.5642 -0.9086
  165SAPE  H11A18449   4.547   0.990   3.011 -0.5822  0.0693 -1.7117
  165SAPE  H11B18450   4.601   1.129   2.935 -1.3822  1.3352  0.3728
  165SAPE     P18451   4.602   1.302   3.161 -0.3742  0.2424  0.0294
  165SAPE   O1318452   4.744   1.320   3.116 -0.4792 -0.7467  0.0774
  165SAPE   O1418453   4.487   1.383   3.107 -0.4879  0.3935 -0.2750
  165SAPE   O1218454   4.573   1.148   3.145  0.6535 -0.1585 -0.1154
  165SAPE   O1118455   4.607   1.333   3.321 -0.2224  0.6493  0.2095
  165SAPE    C118456   4.503   1.283   3.407 -0.3694 -0.0245 -1.0395
  165SAPE    HA18457   4.406   1.315   3.363 -1.0598  0.0174  0.4576
  165SAPE    HB18458   4.498   1.173   3.404  0.3148 -0.1496  0.8502
  165SAPE    C218459   4.518   1.342   3.544  0.5007  0.1398 -0.3937
  165SAPE    HS18460   4.427   1.311   3.600 -0.8815 -0.5025 -2.8371
  165SAPE   O2118461   4.539   1.482   3.554  0.2889 -0.1810  0.3940
  165SAPE   C2118462   4.426   1.546   3.521 -0.3654  0.0134 -0.3107
  165SAPE   O2218463   4.320   1.494   3.484  0.8586 -0.1172 -0.0791
  165SAPE   C2218464   4.430   1.685   3.577 -0.1796 -0.9609 -0.2679
  165SAPE   H2R18465   4.530   1.722   3.607  0.7738 -2.3403 -1.6101
  165SAPE   H2S18466   4.403   1.758   3.498 -0.3150 -1.1475 -0.3974
  165SAPE    C318467   4.639   1.281   3.622 -0.5949  0.2976  0.8174
  165SAPE    HX18468   4.729   1.304   3.562  0.4170  1.4484  2.6959
  165SAPE    HY18469   4.630   1.170   3.623 -0.1976  0.2648  1.3461
  165SAPE   O3118470   4.667   1.325   3.753 -0.9901  0.1469 -0.3392
  165SAPE   C3118471   4.598   1.263   3.846  0.1353 -0.4907  0.4038
  165SAPE   O3218472   4.526   1.165   3.826 -0.2800  0.1493 -0.1414
  165SAPE   C3218473   4.634   1.335   3.978 -0.1325  0.4883  0.5243
  165SAPE   H2X18474   4.613   1.443   3.963  1.2080  0.6412 -0.4135
  165SAPE   H2Y18475   4.741   1.323   4.005 -0.0687  1.9796  0.9941
  165SAPE   C2318476   4.334   1.705   3.698 -0.3794  0.1941  0.3413
  165SAPE   H3R18477   4.236   1.655   3.682  0.3472 -1.7726  1.6864
  165SAPE   H3S18478   4.321   1.814   3.714 -0.6482  0.0468  1.2078
  165SAPE   C2418479   4.397   1.651   3.825  0.1995 -0.6607  0.1381
  165SAPE   H4R18480   4.501   1.689   3.819 -0.1352  0.1734 -0.5706
  165SAPE   H4S18481   4.407   1.541   3.811 -0.7809 -0.5744 -1.5361
  165SAPE   C2518482   4.335   1.684   3.957  0.4979 -0.6528  0.4696
  165SAPE   H5R18483   4.229   1.655   3.961  0.3941 -0.2069  0.9885
  165SAPE   C2618484   4.384   1.766   4.049  0.1568  0.1971 -0.4798
  165SAPE   H6R18485   4.323   1.783   4.139  1.1805  0.5602  0.1727
  165SAPE   C2718486   4.524   1.809   4.046 -0.7918 -0.6490  0.2295
  165SAPE   H7R18487   4.547   1.871   3.956  0.0660 -1.2902 -0.0013
  165SAPE   H7S18488   4.594   1.725   4.031  1.6929  1.3067  0.3063
  165SAPE   C2818489   4.564   1.892   4.164 -0.2106  0.0578 -0.2449
  165SAPE   H8R18490   4.491   1.965   4.203 -1.1093 -1.0931  0.2932
  165SAPE   C2918491   4.687   1.898   4.226 -0.2292  0.1975 -0.0610
  165SAPE   H9R18492   4.692   1.957   4.319 -0.7255 -0.2836  0.2809
  165SAPE  C21018493   4.817   1.832   4.198 -0.1707  0.0372 -0.4004
  165SAPE  H10R18494   4.830   1.801   4.092 -0.3364 -1.1710 -0.0840
  165SAPE  H10S18495   4.833   1.744   4.264 -0.9367 -1.0742 -1.6280
  165SAPE  C21118496   4.932   1.924   4.219 -0.4171 -0.5515 -0.5367
  165SAPE  H11R18497   4.973   1.950   4.120  0.8805  1.7367  0.5333
  165SAPE  C21218498   4.969   1.991   4.334 -0.5201  0.3504 -0.7085
  165SAPE  H12R18499   5.054   2.060   4.329  1.6750 -2.1620  0.0753
  165SAPE  C21318500   4.908   1.972   4.468  0.4964  0.8030 -0.3515
  165SAPE  H13R18501   4.852   1.877   4.459 -0.0870  1.2963 -2.4289
  165SAPE  H13S18502   4.837   2.054   4.494 -1.1523 -0.8854  0.7319
  165SAPE  C21418503   5.007   1.958   4.583 -0.9224 -0.7952 -0.7211
  165SAPE  H14R18504   5.109   1.922   4.560 -0.0326  1.6173 -0.8507
  165SAPE  C21518505   4.979   1.970   4.717  0.0607 -0.3898 -0.4765
  165SAPE  H15R18506   5.054   1.954   4.796 -1.2900 -2.0110  0.5597
  165SAPE  C21618507   4.843   2.014   4.776  0.3423  0.3016 -0.1149
  165SAPE  H16R18508   4.763   1.954   4.727 -0.7849  2.4347 -0.9867
  165SAPE  H16S18509   4.841   2.124   4.759  1.4719  0.3008 -0.3655
  165SAPE  C21718510   4.837   1.991   4.930 -0.2582  0.2049  0.3139
  165SAPE  H17R18511   4.860   1.887   4.960 -2.7986 -0.4211  0.2317
  165SAPE  H17S18512   4.732   2.008   4.959 -0.6383  0.3185 -1.0750
  165SAPE  C21818513   4.921   2.077   5.020  0.9937  0.3519 -0.2256
  165SAPE  H18R18514   4.934   2.183   4.991 -0.2170  0.7600  0.6293
  165SAPE  H18S18515   5.015   2.022   5.042  0.5195  0.4091  2.2870
  165SAPE  C21918516   4.852   2.058   5.164 -0.0754  0.4297 -0.5693
  165SAPE  H19R18517   4.879   1.954   5.192 -2.9438 -0.0432  0.8611
  165SAPE  H19S18518   4.742   2.067   5.148 -0.1281 -0.6902 -0.9212
  165SAPE  C22018519   4.910   2.152   5.271  0.4608 -0.1340 -0.0292
  165SAPE  H20R18520   4.872   2.131   5.373  2.1364  2.0240  1.1227
  165SAPE  H20S18521   4.882   2.255   5.242  0.4773 -0.6453 -2.0028
  165SAPE  H20T18522   5.021   2.150   5.277  0.6306  1.4761 -1.8257
  165SAPE   C3318523   4.541   1.265   4.087 -0.5948 -0.3960 -0.5100
  165SAPE   H3X18524   4.559   1.156   4.077  1.8475 -0.1794  0.8146
  165SAPE   H3Y18525   4.436   1.298   4.067 -0.9857 -1.1467  0.2418
  165SAPE   C3418526   4.560   1.322   4.233 -0.2436  0.3030  0.6428
  165SAPE   H4X18527   4.668   1.324   4.261 -0.2830  1.0699  0.7709
  165SAPE   H4Y18528   4.514   1.254   4.308  2.9318 -2.3401  0.4239
  165SAPE   C3518529   4.503   1.467   4.247 -0.4622  0.1121 -0.9505
  165SAPE   H5X18530   4.396   1.459   4.220 -0.4808 -3.4254 -0.3880
  165SAPE   H5Y18531   4.568   1.536   4.190  3.5637 -1.6552  1.0539
  165SAPE   C3618532   4.523   1.525   4.386  0.2419 -0.2893  0.2410
  165SAPE   H6X18533   4.632   1.541   4.394  0.2120  1.2563 -1.7729
  165SAPE   H6Y18534   4.499   1.459   4.472  1.7764  2.3924  2.9070
  165SAPE   C3718535   4.437   1.655   4.391 -0.2065  0.6804  0.2072
  165SAPE   H7X18536   4.349   1.641   4.325  0.9406 -1.2309 -0.9894
  165SAPE   H7Y18537   4.507   1.728   4.345  0.0018 -0.0761 -0.7119
  165SAPE   C3818538   4.394   1.707   4.529  0.0616  0.8472 -0.4480
  165SAPE   H8X18539   4.303   1.652   4.561 -0.5608  0.2472 -3.0244
  165SAPE   H8Y18540   4.377   1.816   4.512  1.3455  1.2404  0.6125
  165SAPE   C3918541   4.503   1.707   4.641 -0.3989 -0.0567 -0.2370
  165SAPE   H9X18542   4.580   1.787   4.636 -1.2731  0.7359 -1.4491
  165SAPE   H9Y18543   4.547   1.607   4.620 -0.2032  0.2505 -1.3103
  165SAPE  C31018544   4.448   1.738   4.786 -0.6442  0.7939  0.6304
  165SAPE  H10X18545   4.387   1.653   4.825  0.2970  0.2446  0.9370
  165SAPE  H10Y18546   4.390   1.832   4.774 -1.4469 -0.0125 -3.1348
  165SAPE  C31118547   4.567   1.768   4.881 -0.4696 -0.9961  0.0403
  165SAPE  H11X18548   4.629   1.837   4.820 -0.1970 -1.4162 -0.1569
  165SAPE  H11Y18549   4.626   1.675   4.889  1.7925  0.2840 -0.8563
  165SAPE  C31218550   4.521   1.820   5.012 -0.2321 -0.3279  0.1527
  165SAPE  H12X18551   4.427   1.872   4.983 -2.0125 -2.5727  1.6210
  165SAPE  H12Y18552   4.590   1.903   5.041 -1.2580  0.2814  0.9193
  165SAPE  C31318553   4.505   1.718   5.119  0.1772 -0.4527  0.7612
  165SAPE  H13X18554   4.599   1.665   5.145  2.4199  2.6164 -0.4502
  165SAPE  H13Y18555   4.423   1.648   5.091 -1.2890  0.6489  2.0771
  165SAPE  C31418556   4.450   1.788   5.237  0.3783  0.3592 -0.4460
  165SAPE  H14X18557   4.389   1.723   5.302  0.7072 -0.3159 -0.8066
  165SAPE  H14Y18558   4.392   1.875   5.197  1.1124  2.4920  2.7658
  165SAPE  C31518559   4.563   1.846   5.336  0.2143 -0.6126  0.2576
  165SAPE  H15X18560   4.624   1.918   5.277 -0.0043 -0.1723  0.5618
  165SAPE  H15Y18561   4.629   1.763   5.371  2.9754  3.0397  5.0219
  165SAPE  C31618562   4.492   1.900   5.457  0.3769 -0.7220  0.2407
  165SAPE  H16X18563   4.417   1.831   5.501 -0.9819  0.7191  0.2722
  165SAPE  H16Y18564   4.425   1.982   5.422 -0.9129 -1.7517  0.1994
  165SAPE  C31718565   4.593   1.953   5.564 -0.4605 -0.0055 -0.0020
  165SAPE  H17X18566   4.526   1.983   5.648 -0.5039 -0.8493  0.2771
  165SAPE  H17Y18567   4.649   2.039   5.522  0.2386  0.2371  1.3639
  165SAPE  C31818568   4.687   1.850   5.620  0.3505 -0.2644  0.5519
  165SAPE  H18X18569   4.709   1.868   5.728  1.1071  0.8501  0.2216
  165SAPE  H18Y18570   4.781   1.845   5.561 -0.4645 -1.2023 -0.7122
  165SAPE  H18Z18571   4.648   1.746   5.610 -0.0354 -0.4175  2.9757
  166SAPE     N18572   4.698   4.155   2.686  0.3258 -0.6018  0.7893
  166SAPE   HN118573   4.767   4.232   2.685 -1.7142  1.3097 -0.7043
  166SAPE   HN218574   4.680   4.136   2.787  0.6147  0.4022  1.0408
  166SAPE   HN318575   4.744   4.066   2.657  0.2229 -0.5093  0.3361
  166SAPE   C1218576   4.576   4.188   2.611  0.2334 -0.2380  0.4126
  166SAPE  H12A18577   4.515   4.097   2.589  0.7171 -0.3606 -0.4898
  166SAPE  H12B18578   4.607   4.218   2.508  1.5219  2.0901  1.3969
  166SAPE   C1118579   4.491   4.288   2.698  0.5687 -0.2861 -0.9541
  166SAPE  H11A18580   4.422   4.336   2.624  1.2655  1.8369 -0.2881
  166SAPE  H11B18581   4.564   4.358   2.743  0.3493 -1.4620  1.3598
  166SAPE     P18582   4.275   4.173   2.807  0.1250  0.4233 -0.0183
  166SAPE   O1318583   4.201   4.280   2.876  0.2033 -0.0019  0.1695
  166SAPE   O1418584   4.236   4.145   2.672 -0.5974  0.3005  0.2300
  166SAPE   O1218585   4.423   4.211   2.804  0.1504  0.4496 -0.1561
  166SAPE   O1118586   4.269   4.043   2.894 -0.6616 -0.4033  0.3403
  166SAPE    C118587   4.371   4.000   2.984 -0.5806 -0.0489 -0.3594
  166SAPE    HA18588   4.394   3.893   2.968 -1.1525 -0.1166 -0.7648
  166SAPE    HB18589   4.468   4.053   2.974 -0.8398  0.2250 -1.5692
  166SAPE    C218590   4.318   3.999   3.132 -0.5549  0.2541  0.3058
  166SAPE    HS18591   4.383   3.938   3.198 -0.2785 -0.0029 -0.2039
  166SAPE   O2118592   4.187   3.955   3.147 -0.0797  0.8881 -0.0286
  166SAPE   C2118593   4.157   3.824   3.132 -0.0099 -0.1747  0.3156
  166SAPE   O2218594   4.240   3.741   3.119  0.5613  0.1266  0.6082
  166SAPE   C2218595   4.003   3.804   3.136 -0.2357 -0.0081  0.0370
  166SAPE   H2R18596   3.953   3.827   3.039  0.5833  0.4310 -0.2941
  166SAPE   H2S18597   3.980   3.698   3.155 -3.1738  0.6579  0.6899
  166SAPE    C318598   4.324   4.140   3.193  0.1326 -0.1625  0.4336
  166SAPE    HX18599   4.255   4.204   3.136  0.9654 -0.3298 -0.8068
  166SAPE    HY18600   4.428   4.177   3.179  0.7997 -2.3292 -0.9265
  166SAPE   O3118601   4.288   4.142   3.335  0.1347  0.1527  0.3384
  166SAPE   C3118602   4.174   4.201   3.373  0.1309 -0.6973 -0.0583
  166SAPE   O3218603   4.104   4.268   3.299  0.1975  0.2797 -0.1654
  166SAPE   C3218604   4.149   4.183   3.522  0.1970  0.5165  0.5984
  166SAPE   H2X18605   4.238   4.220   3.577  0.6615  0.2955  0.0046
  166SAPE   H2Y18606   4.144   4.073   3.537  1.8887  0.1304 -1.2920
  166SAPE   C2318607   3.931   3.881   3.246 -0.0736  0.4125 -0.6770
  166SAPE   H3R18608   3.821   3.880   3.230 -0.9708  1.0780  3.8561
  166SAPE   H3S18609   3.961   3.986   3.266 -0.0058  0.1530  0.6822
  166SAPE   C2418610   3.948   3.805   3.385  0.1248 -0.1725  0.2607
  166SAPE   H4R18611   3.914   3.700   3.381  1.6804 -0.8138  2.1673
  166SAPE   H4S18612   3.884   3.857   3.460  2.4679  2.3479  0.7058
  166SAPE   C2518613   4.091   3.802   3.445 -0.1635 -1.0130 -0.7818
  166SAPE   H5R18614   4.175   3.833   3.381  0.4936 -0.5210  0.2677
  166SAPE   C2618615   4.121   3.765   3.569  0.5776 -0.0723  0.2178
  166SAPE   H6R18616   4.226   3.777   3.600  0.8018 -0.0186 -0.5487
  166SAPE   C2718617   4.026   3.709   3.669 -0.0791  0.2465  0.6434
  166SAPE   H7R18618   3.959   3.633   3.625 -3.0359  2.3024  1.3207
  166SAPE   H7S18619   3.967   3.789   3.719 -2.2848 -0.4560 -0.7163
  166SAPE   C2818620   4.108   3.642   3.778 -0.3643  0.2776 -0.0709
  166SAPE   H8R18621   4.192   3.580   3.745  0.3730  0.4235  1.4276
  166SAPE   C2918622   4.120   3.684   3.904 -0.5164 -0.4948 -0.6102
  166SAPE   H9R18623   4.194   3.621   3.957  0.4494  0.5437 -0.7097
  166SAPE  C21018624   4.023   3.775   3.978  0.2500 -0.3724 -0.1387
  166SAPE  H10R18625   3.936   3.710   4.004 -0.5256  0.0738 -1.4915
  166SAPE  H10S18626   3.987   3.856   3.910  1.3477 -0.2367 -0.5813
  166SAPE  C21118627   4.088   3.825   4.102 -0.1368  0.4445  1.0559
  166SAPE  H11R18628   4.178   3.887   4.092  0.5725 -0.3884  2.0491
  166SAPE  C21218629   4.055   3.797   4.228 -0.2134  0.4837 -0.6910
  166SAPE  H12R18630   4.123   3.843   4.301  0.7154 -2.3509  0.3596
  166SAPE  C21318631   3.946   3.710   4.283 -0.0078  0.0230  0.2546
  166SAPE  H13R18632   3.892   3.654   4.204  2.1394 -1.2719 -0.3661
  166SAPE  H13S18633   3.863   3.777   4.314  1.0635  0.3764  2.5629
  166SAPE  C21418634   3.995   3.630   4.401 -0.8202 -0.0679  0.7827
  166SAPE  H14R18635   4.087   3.577   4.373 -0.6441  0.3886  0.4962
  166SAPE  C21518636   3.959   3.645   4.530 -0.0075 -0.1266  0.4183
  166SAPE  H15R18637   4.018   3.588   4.603  0.7509 -1.3598 -1.1113
  166SAPE  C21618638   3.850   3.733   4.590 -0.1933  0.1316  0.1670
  166SAPE  H16R18639   3.826   3.679   4.684 -1.5995 -0.5545 -0.5562
  166SAPE  H16S18640   3.758   3.727   4.528 -0.3091 -0.7416  0.4020
  166SAPE  C21718641   3.888   3.879   4.609 -0.1616 -0.1532  0.5506
  166SAPE  H17R18642   3.804   3.944   4.639  0.9519  2.0641 -0.8800
  166SAPE  H17S18643   3.916   3.914   4.507 -1.3644  0.3761  0.3917
  166SAPE  C21818644   4.011   3.908   4.702 -0.1175  1.3483  0.1545
  166SAPE  H18R18645   4.042   4.015   4.697 -1.5584  1.7421 -0.8710
  166SAPE  H18S18646   4.106   3.854   4.681  0.1411  0.8444  2.3817
  166SAPE  C21918647   3.984   3.878   4.852  0.8154  0.3861 -0.2874
  166SAPE  H19R18648   3.959   3.770   4.856  0.4028  0.3204 -2.9857
  166SAPE  H19S18649   3.896   3.944   4.871  0.2642 -0.1444 -0.9807
  166SAPE  C22018650   4.103   3.915   4.941 -0.0074  0.1077 -0.0677
  166SAPE  H20R18651   4.122   4.024   4.936  3.1310 -0.3466 -0.2816
  166SAPE  H20S18652   4.200   3.868   4.911 -0.1298 -0.1589 -0.0480
  166SAPE  H20T18653   4.079   3.895   5.047 -0.1254  0.5535 -0.0111
  166SAPE   C3318654   4.027   4.258   3.562  0.0018  0.4914 -0.3481
  166SAPE   H3X18655   3.944   4.220   3.500 -0.5759  1.0705  0.0627
  166SAPE   H3Y18656   4.043   4.367   3.544  1.3496  0.3587 -0.0726
  166SAPE   C3418657   3.994   4.230   3.710 -0.8198 -0.0808  0.1751
  166SAPE   H4X18658   3.992   4.122   3.735 -0.2324 -0.1312  0.0006
  166SAPE   H4Y18659   3.889   4.266   3.716  0.1273  2.7595  1.6676
  166SAPE   C3518660   4.082   4.304   3.815 -0.0838  0.1412  0.6540
  166SAPE   H5X18661   4.090   4.406   3.771 -1.9135  0.6433  1.3978
  166SAPE   H5Y18662   4.184   4.266   3.832  1.2151  0.6336 -4.3578
  166SAPE   C3618663   4.021   4.317   3.953 -0.5254 -0.3935 -0.2311
  166SAPE   H6X18664   3.912   4.337   3.957 -0.3185  0.7453  0.2714
  166SAPE   H6Y18665   4.072   4.404   4.000  0.7218 -1.9243  1.4133
  166SAPE   C3718666   4.040   4.193   4.045  0.0877 -0.3359  0.0707
  166SAPE   H7X18667   4.148   4.177   4.065  0.5006 -0.6485 -2.1849
  166SAPE   H7Y18668   4.013   4.110   3.976 -0.9370  0.0243  0.0316
  166SAPE   C3818669   3.965   4.187   4.169  0.5531  0.1551 -0.3542
  166SAPE   H8X18670   3.946   4.082   4.198  0.0813  0.3062 -0.1060
  166SAPE   H8Y18671   3.860   4.222   4.165 -0.0695 -0.8566  3.6021
  166SAPE   C3918672   4.048   4.255   4.277 -0.3796 -0.1738  0.0028
  166SAPE   H9X18673   4.050   4.358   4.235 -0.3081  0.4429  1.4705
  166SAPE   H9Y18674   4.153   4.221   4.292  0.5968  2.7830  0.5303
  166SAPE  C31018675   3.970   4.252   4.409 -0.9002 -0.4480  0.2743
  166SAPE  H10X18676   3.949   4.142   4.408  0.6193 -0.7552  0.1687
  166SAPE  H10Y18677   3.885   4.323   4.400 -0.3361  0.1006 -0.7741
  166SAPE  C31118678   4.044   4.299   4.534  0.3535  0.5288 -0.1476
  166SAPE  H11X18679   4.083   4.401   4.512  1.0438  0.3548  0.2340
  166SAPE  H11Y18680   4.128   4.228   4.552 -1.5618 -1.5717  0.9230
  166SAPE  C31218681   3.958   4.309   4.663  0.1349  0.5080 -0.5446
  166SAPE  H12X18682   3.919   4.209   4.689  1.0913  0.5222  1.0368
  166SAPE  H12Y18683   3.868   4.373   4.646 -0.2394  0.4874  1.2029
  166SAPE  C31318684   4.053   4.365   4.767  0.4501  0.0814  0.0629
  166SAPE  H13X18685   4.139   4.412   4.716  0.4296  0.3542  0.2740
  166SAPE  H13Y18686   4.103   4.277   4.814 -1.2795 -0.1371  1.6030
  166SAPE  C31418687   3.985   4.448   4.874  0.2389 -0.4651  0.1469
  166SAPE  H14X18688   3.967   4.540   4.815 -0.4308 -1.2667 -0.9125
  166SAPE  H14Y18689   4.045   4.457   4.968  0.0397 -1.6093  0.4024
  166SAPE  C31518690   3.847   4.396   4.923  0.2666 -0.1685  0.0236
  166SAPE  H15X18691   3.777   4.392   4.837 -0.2268  1.9785  0.2784
  166SAPE  H15Y18692   3.808   4.469   4.997  2.0981  1.6493 -0.7114
  166SAPE  C31618693   3.855   4.252   4.981  0.2510  0.4336  0.0703
  166SAPE  H16X18694   3.958   4.255   5.024 -0.0596 -1.2991  1.0360
  166SAPE  H16Y18695   3.838   4.167   4.912  1.5864 -2.6120  3.1827
  166SAPE  C31718696   3.764   4.241   5.107 -0.5888 -0.2191  0.0932
  166SAPE  H17X18697   3.661   4.274   5.080  0.4816  0.9912 -2.9487
  166SAPE  H17Y18698   3.807   4.305   5.187 -0.7539 -0.7075  0.5699
  166SAPE  C31818699   3.776   4.104   5.175  0.5959 -0.2998  0.1925
  166SAPE  H18X18700   3.734   4.019   5.117 -0.7104 -0.8678  1.8557
  166SAPE  H18Y18701   3.733   4.107   5.278 -0.6646 -0.8603 -0.2959
  166SAPE  H18Z18702   3.883   4.076   5.185  0.9384 -0.0804 -2.2597
  167SAPE     N18703   5.610   3.058   2.762 -0.2784  0.3030 -0.0605
  167SAPE   HN118704   5.599   3.151   2.716 -2.9071 -0.7480 -1.7921
  167SAPE   HN218705   5.515   3.023   2.785 -0.3450  1.7793  2.2503
  167SAPE   HN318706   5.665   3.060   2.851  0.2811  0.8242 -0.4124
  167SAPE   C1218707   5.682   2.959   2.676  0.6392 -0.4406 -0.8909
  167SAPE  H12A18708   5.630   2.937   2.580  0.9696 -0.1229 -1.1416
  167SAPE  H12B18709   5.682   2.862   2.730  0.7913  0.8338  1.4975
  167SAPE   C1118710   5.823   3.022   2.640 -0.2113  0.2785  0.7302
  167SAPE  H11A18711   5.805   3.113   2.579 -0.1757  0.0814  0.4236
  167SAPE  H11B18712   5.890   2.951   2.587  0.9381  1.3211  0.7492
  167SAPE     P18713   6.045   3.048   2.782 -0.5954  0.9049 -0.1226
  167SAPE   O1318714   6.099   2.910   2.754 -0.0749 -0.0074 -0.1664
  167SAPE   O1418715   6.089   3.165   2.708 -0.3587  0.2551  0.0680
  167SAPE   O1218716   5.890   3.048   2.767  0.1679 -0.5383  0.3902
  167SAPE   O1118717   6.066   3.076   2.937  0.2294 -0.2263  0.5386
  167SAPE    C118718   5.950   3.078   3.023  0.2755  0.5750 -0.6128
  167SAPE    HA18719   5.968   3.131   3.119  0.8026  1.5433 -1.2217
  167SAPE    HB18720   5.867   3.125   2.966  1.3064 -1.4620 -4.1203
  167SAPE    C218721   5.907   2.939   3.078  0.0629  0.1120 -0.2900
  167SAPE    HS18722   5.857   2.877   3.000 -0.2766  0.3071 -0.2287
  167SAPE   O2118723   5.815   2.958   3.182  0.3592 -0.2639 -0.2697
  167SAPE   C2118724   5.693   2.991   3.148  1.1711  0.3249 -0.9427
  167SAPE   O2218725   5.652   3.026   3.040 -0.4115  0.3707 -0.5648
  167SAPE   C2218726   5.595   3.001   3.269 -0.3631 -0.6018  0.7198
  167SAPE   H2R18727   5.592   3.110   3.291  1.6681 -0.0942 -1.2322
  167SAPE   H2S18728   5.492   2.983   3.230 -0.6148  1.1203  0.5076
  167SAPE    C318729   6.029   2.865   3.137  0.1304  0.5507  0.0720
  167SAPE    HX18730   6.085   2.932   3.206  1.0596  0.5750 -0.6763
  167SAPE    HY18731   6.098   2.842   3.053  0.1571  0.6431  0.0687
  167SAPE   O3118732   5.994   2.754   3.203 -0.8335  0.4222 -0.9244
  167SAPE   C3118733   6.095   2.666   3.243 -0.6467 -0.1326  0.9189
  167SAPE   O3218734   6.212   2.690   3.234  0.6049  0.2028 -0.0286
  167SAPE   C3218735   6.036   2.547   3.323  0.4016 -0.0909 -0.1065
  167SAPE   H2X18736   6.078   2.451   3.286  1.0323  0.1977 -0.1488
  167SAPE   H2Y18737   5.926   2.562   3.313  0.5430 -0.1551 -2.2887
  167SAPE   C2318738   5.630   2.906   3.387 -0.3898 -0.0411  0.3433
  167SAPE   H3R18739   5.661   2.805   3.353 -1.0489 -0.7336  1.7222
  167SAPE   H3S18740   5.539   2.905   3.451  0.1615 -0.7020  1.1435
  167SAPE   C2418741   5.748   2.948   3.482 -0.2750 -0.2461  0.1347
  167SAPE   H4R18742   5.843   2.939   3.424 -0.6583 -0.0487 -0.5314
  167SAPE   H4S18743   5.759   2.871   3.561 -0.9859 -3.0071 -2.2871
  167SAPE   C2518744   5.737   3.093   3.536  0.4244  0.0744 -0.0606
  167SAPE   H5R18745   5.746   3.169   3.457 -0.6308 -1.8314 -2.1302
  167SAPE   C2618746   5.684   3.126   3.652  0.1540 -0.1290 -1.2811
  167SAPE   H6R18747   5.698   3.233   3.674  2.4321 -0.3025 -1.7164
  167SAPE   C2718748   5.624   3.036   3.763 -0.1361 -0.5637 -0.3784
  167SAPE   H7R18749   5.700   3.028   3.843 -0.5025 -1.2854 -0.0922
  167SAPE   H7S18750   5.614   2.932   3.725  1.4061 -1.3338  1.1854
  167SAPE   C2818751   5.500   3.096   3.820  0.1673 -0.2850  0.1071
  167SAPE   H8R18752   5.417   3.092   3.747  0.4398  0.2275 -0.2402
  167SAPE   C2918753   5.476   3.144   3.943 -0.0620 -0.4134 -0.2260
  167SAPE   H9R18754   5.380   3.188   3.973 -0.1963 -1.7880  1.5911
  167SAPE  C21018755   5.575   3.165   4.056  0.5386  0.5942 -0.6141
  167SAPE  H10R18756   5.543   3.242   4.129 -1.2295 -1.0014  0.3863
  167SAPE  H10S18757   5.682   3.186   4.035  1.5740 -1.1094  2.2933
  167SAPE  C21118758   5.569   3.036   4.139  0.7239  0.0923 -0.1408
  167SAPE  H11R18759   5.591   2.944   4.082  0.3318  0.6079 -1.1465
  167SAPE  C21218760   5.536   3.020   4.264 -0.3712 -0.6607  0.5580
  167SAPE  H12R18761   5.549   2.920   4.309  1.1317 -0.8140 -0.1413
  167SAPE  C21318762   5.501   3.141   4.348  0.6402 -0.1268 -0.7439
  167SAPE  H13R18763   5.558   3.234   4.326  2.5657 -1.0913 -0.0396
  167SAPE  H13S18764   5.541   3.124   4.450 -1.3002 -0.5229 -0.0002
  167SAPE  C21418765   5.357   3.169   4.366  0.2216 -0.1814  0.0259
  167SAPE  H14R18766   5.306   3.181   4.270  1.3885 -3.2204 -1.0836
  167SAPE  C21518767   5.289   3.174   4.483  0.1330 -0.4669  0.3527
  167SAPE  H15R18768   5.184   3.205   4.470  0.6839  1.2866 -0.2316
  167SAPE  C21618769   5.341   3.141   4.617  0.0206  0.4616 -0.1059
  167SAPE  H16R18770   5.449   3.157   4.636  0.2622 -1.4049  0.3522
  167SAPE  H16S18771   5.324   3.036   4.650 -0.4191  1.2535  2.4216
  167SAPE  C21718772   5.267   3.231   4.709  0.5300  0.3523  0.1071
  167SAPE  H17R18773   5.158   3.216   4.692  0.8076 -1.5790 -0.1198
  167SAPE  H17S18774   5.282   3.339   4.689 -2.3780  1.3447  2.4549
  167SAPE  C21818775   5.291   3.198   4.856  0.0683  0.1075  0.0075
  167SAPE  H18R18776   5.396   3.224   4.882  0.2306 -1.6651  1.3486
  167SAPE  H18S18777   5.284   3.089   4.878  0.2069 -0.0636 -0.7467
  167SAPE  C21918778   5.212   3.288   4.955  0.2600  0.6842  0.0882
  167SAPE  H19R18779   5.106   3.289   4.922  0.8701  2.2423 -2.0024
  167SAPE  H19S18780   5.253   3.388   4.929 -0.0758  0.5928 -0.8179
  167SAPE  C22018781   5.231   3.250   5.100  0.2896  0.6140  0.4137
  167SAPE  H20R18782   5.184   3.150   5.111 -0.8271  1.0066 -0.6091
  167SAPE  H20S18783   5.184   3.322   5.170  1.6226  2.7446 -0.7448
  167SAPE  H20T18784   5.336   3.242   5.136 -0.4897 -2.2294  2.4085
  167SAPE   C3318785   6.081   2.548   3.476 -0.2996 -0.3028 -0.5295
  167SAPE   H3X18786   6.191   2.560   3.484 -0.1571 -0.3483 -2.1837
  167SAPE   H3Y18787   6.050   2.447   3.513 -1.0108 -0.6086 -1.8923
  167SAPE   C3418788   6.004   2.655   3.550  0.3104  0.1345  0.2198
  167SAPE   H4X18789   5.989   2.620   3.655 -2.3491  3.3159  1.0650
  167SAPE   H4Y18790   5.899   2.670   3.517 -0.3313 -0.1550  1.9683
  167SAPE   C3518791   6.066   2.789   3.556  0.7195 -1.0284 -0.3446
  167SAPE   H5X18792   6.025   2.846   3.470  2.7998  1.2973  0.0801
  167SAPE   H5Y18793   6.176   2.777   3.561  0.4204 -3.9837  3.2508
  167SAPE   C3618794   6.024   2.858   3.687  0.2308  0.1325  0.6062
  167SAPE   H6X18795   6.065   2.802   3.774  0.5522  0.2810  0.5543
  167SAPE   H6Y18796   5.913   2.860   3.690  0.2219  2.5601  0.7727
  167SAPE   C3718797   6.075   3.006   3.699  0.2629  0.4067  0.2871
  167SAPE   H7X18798   6.039   3.066   3.613  1.5514  0.7232 -0.0430
  167SAPE   H7Y18799   6.184   2.989   3.686  0.2526 -0.9498  1.6673
  167SAPE   C3818800   6.042   3.071   3.841 -0.1301  0.0757 -0.0588
  167SAPE   H8X18801   5.933   3.056   3.860  0.1782 -3.0234 -0.3624
  167SAPE   H8Y18802   6.080   3.175   3.831 -2.6364  1.1534  0.6672
  167SAPE   C3918803   6.119   2.999   3.958  0.4203 -0.2555 -0.0820
  167SAPE   H9X18804   6.230   2.996   3.951  0.4930  0.8778  0.3066
  167SAPE   H9Y18805   6.090   2.892   3.963  0.1274 -0.1435  0.9969
  167SAPE  C31018806   6.081   3.070   4.095 -0.3652 -0.4515  0.0946
  167SAPE  H10X18807   5.971   3.071   4.112 -0.4898 -2.7672 -0.1987
  167SAPE  H10Y18808   6.110   3.177   4.094 -1.1652 -0.2335 -0.6462
  167SAPE  C31118809   6.132   2.997   4.212 -0.5065  0.2701  0.7777
  167SAPE  H11X18810   6.242   2.978   4.213 -0.4991  0.2214 -0.1563
  167SAPE  H11Y18811   6.081   2.900   4.228 -1.8527  0.4179 -1.9814
  167SAPE  C31218812   6.119   3.083   4.344 -0.3406 -0.9151  0.1686
  167SAPE  H12X18813   6.010   3.105   4.350 -0.2103 -0.1690 -0.1009
  167SAPE  H12Y18814   6.178   3.177   4.337  0.4728 -1.5243 -2.5844
  167SAPE  C31318815   6.149   3.009   4.476 -0.6853  0.5128  0.1107
  167SAPE  H13X18816   6.254   2.977   4.463 -1.3355 -0.9967 -1.8386
  167SAPE  H13Y18817   6.087   2.919   4.495  0.0245 -0.0866 -0.4081
  167SAPE  C31418818   6.155   3.104   4.595  1.1464  0.5161  0.2038
  167SAPE  H14X18819   6.072   3.176   4.578 -0.8703 -1.3707  1.4929
  167SAPE  H14Y18820   6.257   3.146   4.611  1.0871  0.3115  1.2127
  167SAPE  C31518821   6.126   3.020   4.718 -0.8020 -0.2972  0.1526
  167SAPE  H15X18822   6.203   2.943   4.741 -0.1154  1.2454  3.6055
  167SAPE  H15Y18823   6.029   2.972   4.690 -0.6615  0.3970 -1.6989
  167SAPE  C31618824   6.112   3.111   4.840 -0.7754  0.0556 -0.0543
  167SAPE  H16X18825   6.039   3.194   4.826 -2.4049 -1.2051  0.6046
  167SAPE  H16Y18826   6.217   3.136   4.867 -1.0557 -0.1854  1.3334
  167SAPE  C31718827   6.054   3.027   4.958  0.6752  0.3316 -0.2068
  167SAPE  H17X18828   6.122   2.944   4.986  1.3960  0.1528 -2.3262
  167SAPE  H17Y18829   5.955   2.987   4.925  1.1706 -0.0913 -1.2374
  167SAPE  C31818830   6.044   3.101   5.096 -0.1317 -0.0901  0.0141
  167SAPE  H18X18831   6.144   3.147   5.111 -0.1798 -0.1853  0.6693
  167SAPE  H18Y18832   6.019   3.022   5.170 -1.6905  1.2565  0.9973
  167SAPE  H18Z18833   5.963   3.176   5.085 -0.7178 -0.3888  1.9090
  168SAPE     N18834   5.441   5.973   3.056 -0.2696  0.3402 -0.6214
  168SAPE   HN118835   5.412   5.903   3.127  1.4933  0.7743  0.5802
  168SAPE   HN218836   5.470   5.926   2.967  1.2732  1.5814 -0.8146
  168SAPE   HN318837   5.527   6.019   3.091  0.7262  0.3520 -2.8687
  168SAPE   C1218838   5.337   6.076   3.048 -0.2663 -0.7399  0.6853
  168SAPE  H12A18839   5.235   6.034   3.061 -0.2831 -1.5800 -1.7713
  168SAPE  H12B18840   5.351   6.133   2.954 -0.4577 -1.6081  0.1285
  168SAPE   C1118841   5.365   6.179   3.165  0.2472 -0.0157  1.0392
  168SAPE  H11A18842   5.468   6.221   3.170 -0.0760  0.7393  1.4218
  168SAPE  H11B18843   5.353   6.123   3.260 -2.0465  0.3822  1.0436
  168SAPE     P18844   5.286   6.427   3.124  0.0244 -0.0096 -0.0886
  168SAPE   O1318845   5.398   6.421   3.027 -0.6210 -0.5752 -0.0413
  168SAPE   O1418846   5.162   6.485   3.079 -0.1090  0.1443 -0.4466
  168SAPE   O1218847   5.264   6.276   3.172  0.2831 -0.2073  0.0677
  168SAPE   O1118848   5.327   6.504   3.253  0.2629 -0.5633 -0.0611
  168SAPE    C118849   5.259   6.461   3.374 -0.5881  1.4887 -0.4986
  168SAPE    HA18850   5.150   6.448   3.362 -0.2656 -1.6595 -0.9719
  168SAPE    HB18851   5.291   6.363   3.416 -2.7558  2.2072  3.2590
  168SAPE    C218852   5.271   6.576   3.477 -0.2196 -0.2045  0.4403
  168SAPE    HS18853   5.279   6.668   3.415  2.0888 -0.6254  0.0353
  168SAPE   O2118854   5.390   6.557   3.548 -0.3370 -0.3239 -0.6148
  168SAPE   C2118855   5.457   6.668   3.588 -0.1006 -0.0304 -0.2608
  168SAPE   O2218856   5.433   6.780   3.559 -0.5441  0.1458  0.1332
  168SAPE   C2218857   5.579   6.620   3.679  0.1178 -0.1532  0.0553
  168SAPE   H2R18858   5.556   6.519   3.719 -1.5678 -0.6049 -1.8855
  168SAPE   H2S18859   5.670   6.614   3.616  0.2444 -1.1504  0.3154
  168SAPE    C318860   5.148   6.585   3.570 -0.3418 -0.3959  0.7421
  168SAPE    HX18861   5.141   6.486   3.621 -1.9034  0.3043  1.9875
  168SAPE    HY18862   5.053   6.606   3.516  0.8680  3.0180 -0.2607
  168SAPE   O3118863   5.168   6.678   3.672  0.3955 -0.6429 -0.0059
  168SAPE   C3118864   5.143   6.804   3.641 -0.1081  0.0138 -0.1323
  168SAPE   O3218865   5.077   6.844   3.551 -0.3751  0.3463 -0.1864
  168SAPE   C3218866   5.198   6.887   3.749 -0.1850  0.4333  0.1448
  168SAPE   H2X18867   5.188   6.995   3.726  0.2346  0.4339 -0.0457
  168SAPE   H2Y18868   5.304   6.863   3.774 -0.4243 -0.7515  0.0650
  168SAPE   C2318869   5.608   6.711   3.796  0.1565  0.0572  0.6386
  168SAPE   H3R18870   5.592   6.814   3.758  0.9383  0.5294  1.5484
  168SAPE   H3S18871   5.709   6.695   3.839 -0.6076  1.1975  3.0879
  168SAPE   C2418872   5.524   6.679   3.922 -0.1006 -1.1303  0.1402
  168SAPE   H4R18873   5.545   6.575   3.953  0.7969 -1.0658 -0.2041
  168SAPE   H4S18874   5.417   6.696   3.898  0.4509 -0.6192 -2.2303
  168SAPE   C2518875   5.555   6.776   4.034  0.0565  0.0879 -0.6174
  168SAPE   H5R18876   5.574   6.880   4.005 -3.4151  0.6421 -1.2848
  168SAPE   C2618877   5.571   6.742   4.162 -0.0858  0.0807 -0.2653
  168SAPE   H6R18878   5.597   6.828   4.226  1.9098  0.0727 -0.9877
  168SAPE   C2718879   5.560   6.603   4.225  0.4057 -0.4072  0.8278
  168SAPE   H7R18880   5.661   6.571   4.255  0.6835 -1.4237 -1.0361
  168SAPE   H7S18881   5.521   6.528   4.153  0.8640  1.4307 -1.4782
  168SAPE   C2818882   5.474   6.630   4.347 -0.1060  0.9064 -0.0099
  168SAPE   H8R18883   5.378   6.676   4.317  1.1716  2.0027 -2.8281
  168SAPE   C2918884   5.511   6.614   4.476 -0.2035  0.0713  0.9238
  168SAPE   H9R18885   5.431   6.642   4.546 -1.6206  1.1020 -1.0268
  168SAPE  C21018886   5.638   6.546   4.526  0.4774 -0.4843 -0.1760
  168SAPE  H10R18887   5.716   6.596   4.464  3.1487  0.1590  3.3695
  168SAPE  H10S18888   5.648   6.441   4.491  0.0179  0.1696 -2.4911
  168SAPE  C21118889   5.658   6.552   4.678  0.7578 -0.2842 -0.0219
  168SAPE  H11R18890   5.656   6.451   4.721 -0.8792 -1.0345 -1.7312
  168SAPE  C21218891   5.653   6.663   4.752  0.0792 -0.0473 -0.2957
  168SAPE  H12R18892   5.665   6.655   4.861 -1.4009  3.1986  0.2350
  168SAPE  C21318893   5.634   6.803   4.713 -0.0776 -0.3849  0.2717
  168SAPE  H13R18894   5.570   6.863   4.782  1.0569  1.9159 -0.5640
  168SAPE  H13S18895   5.583   6.810   4.615 -0.1191 -0.4671  0.2870
  168SAPE  C21418896   5.759   6.891   4.722 -0.4282  0.9511  0.0741
  168SAPE  H14R18897   5.771   6.935   4.822  0.6972  0.4545  0.1677
  168SAPE  C21518898   5.834   6.936   4.626  0.0250 -0.0223 -0.0778
  168SAPE  H15R18899   5.935   6.969   4.654  0.1805  2.1541 -2.7656
  168SAPE  C21618900   5.826   6.906   4.477  0.2616 -0.7955 -0.2004
  168SAPE  H16R18901   5.726   6.863   4.455  0.3497 -0.6782 -0.8564
  168SAPE  H16S18902   5.912   6.839   4.456  1.1884  0.3984 -0.3828
  168SAPE  C21718903   5.843   7.034   4.386  0.0153 -0.3178 -0.3169
  168SAPE  H17R18904   5.818   7.013   4.280 -2.1110  0.1173  0.0524
  168SAPE  H17S18905   5.943   7.081   4.394 -0.4433  0.8516 -1.1220
  168SAPE  C21818906   5.732   7.137   4.415  0.0283  0.2418  0.6432
  168SAPE  H18R18907   5.751   7.239   4.376 -1.7176  0.2658 -0.2404
  168SAPE  H18S18908   5.714   7.160   4.522 -2.3936  2.4515 -0.1370
  168SAPE  C21918909   5.597   7.099   4.346  0.4364  0.1087 -0.2347
  168SAPE  H19R18910   5.575   7.001   4.392 -1.2363  1.7435  2.7279
  168SAPE  H19S18911   5.616   7.078   4.238 -0.1770 -0.5939 -0.2151
  168SAPE  C22018912   5.488   7.204   4.373  0.0765 -0.3879  0.1962
  168SAPE  H20R18913   5.453   7.197   4.479  1.4368  1.5026  0.8322
  168SAPE  H20S18914   5.396   7.187   4.313 -0.7671 -0.6303  1.5106
  168SAPE  H20T18915   5.519   7.308   4.349 -1.1401  0.0244  0.3015
  168SAPE   C3318916   5.121   6.859   3.883  0.5568 -0.0635  0.5313
  168SAPE   H3X18917   5.131   6.752   3.908  1.7001 -0.3098 -0.8402
  168SAPE   H3Y18918   5.013   6.878   3.863  0.7661 -1.3340 -2.2804
  168SAPE   C3418919   5.181   6.936   3.996  0.2346  0.8524 -0.1369
  168SAPE   H4X18920   5.292   6.937   3.995  0.2361  0.4572 -0.9509
  168SAPE   H4Y18921   5.152   6.882   4.089  0.3829  1.1048  0.0566
  168SAPE   C3518922   5.122   7.083   4.009  0.9199  0.1345  0.1255
  168SAPE   H5X18923   5.016   7.081   4.043  1.2331  2.2813  1.4365
  168SAPE   H5Y18924   5.120   7.152   3.921 -0.6873 -0.5730 -0.4359
  168SAPE   C3618925   5.190   7.163   4.119 -0.2140 -0.0966 -0.1527
  168SAPE   H6X18926   5.295   7.185   4.089 -0.1824 -1.7113 -1.3457
  168SAPE   H6Y18927   5.194   7.115   4.219  1.9396 -0.2286 -0.2609
  168SAPE   C3718928   5.115   7.300   4.127  0.4292  0.0362 -0.5452
  168SAPE   H7X18929   5.011   7.287   4.162  0.1725  3.5719  0.3167
  168SAPE   H7Y18930   5.103   7.343   4.026 -2.1814  1.4370  0.2622
  168SAPE   C3818931   5.176   7.416   4.201  0.0432  0.1589 -0.3538
  168SAPE   H8X18932   5.213   7.376   4.298 -0.3927  0.0687 -0.2191
  168SAPE   H8Y18933   5.090   7.484   4.222  0.2875  1.1612 -2.3388
  168SAPE   C3918934   5.284   7.490   4.127  0.2230  0.1544  1.1775
  168SAPE   H9X18935   5.265   7.479   4.018 -1.5814  2.6877  1.1438
  168SAPE   H9Y18936   5.381   7.445   4.156  0.1711 -0.3067  0.6535
  168SAPE  C31018937   5.288   7.642   4.143  0.0626  0.1667  0.0606
  168SAPE  H10X18938   5.331   7.660   4.244  1.2127  1.6250 -0.6453
  168SAPE  H10Y18939   5.188   7.686   4.125  0.4887  0.6971 -1.1632
  168SAPE  C31118940   5.376   7.715   4.039 -0.2218  0.6010 -0.2318
  168SAPE  H11X18941   5.346   7.700   3.933  0.9987 -0.6018 -0.4324
  168SAPE  H11Y18942   5.479   7.675   4.046 -0.6566 -0.2920  1.5613
  168SAPE  C31218943   5.387   7.869   4.064  0.2796 -0.4584 -0.2901
  168SAPE  H12X18944   5.290   7.924   4.063  0.6579  0.2602  1.0562
  168SAPE  H12Y18945   5.430   7.915   3.972  0.0886 -0.5138 -0.4078
  168SAPE  C31318946   5.470   7.916   4.186 -0.2608  0.4316 -0.1614
  168SAPE  H13X18947   5.572   7.872   4.188  0.5247  2.1633 -0.3583
  168SAPE  H13Y18948   5.407   7.887   4.273  0.5019  0.6713  0.4829
  168SAPE  C31418949   5.481   8.071   4.196  0.3125 -0.1433 -0.5177
  168SAPE  H14X18950   5.380   8.114   4.215 -1.6027 -2.8651 -3.4084
  168SAPE  H14Y18951   5.515   8.109   4.098  0.0717  2.0797  0.2136
  168SAPE  C31518952   5.576   8.116   4.306 -0.1769  0.3018  0.8808
  168SAPE  H15X18953   5.606   8.222   4.290 -2.4884  0.7821 -0.9280
  168SAPE  H15Y18954   5.675   8.068   4.290 -0.8799 -0.8180 -0.3940
  168SAPE  C31618955   5.538   8.092   4.449 -0.5099  0.5247 -0.5159
  168SAPE  H16X18956   5.632   8.097   4.507 -0.9969  2.0043  0.1896
  168SAPE  H16Y18957   5.500   7.988   4.465 -2.2835  0.6015 -3.4649
  168SAPE  C31718958   5.443   8.202   4.509  0.5770 -0.2810  0.0701
  168SAPE  H17X18959   5.438   8.170   4.616  0.3178 -0.8277 -0.1033
  168SAPE  H17Y18960   5.343   8.186   4.464  1.4436 -4.1512 -0.8221
  168SAPE  C31818961   5.490   8.347   4.505  0.6851 -0.5417  0.9985
  168SAPE  H18X18962   5.422   8.415   4.560 -1.9425 -1.0564 -1.3499
  168SAPE  H18Y18963   5.477   8.384   4.401  0.4316  1.6864  1.7719
  168SAPE  H18Z18964   5.593   8.368   4.540  0.3805  1.1331  0.9964
  169SAPE     N18965   0.455   4.670   2.701 -0.1609  1.0613 -0.4507
  169SAPE   HN118966   0.523   4.743   2.727 -0.1690  0.0893  2.6254
  169SAPE   HN218967   0.480   4.586   2.757 -0.6918 -0.0266 -1.7628
  169SAPE   HN318968   0.474   4.629   2.607 -0.0245  0.3453 -0.1174
  169SAPE   C1218969   0.314   4.704   2.698  0.4630  0.5487 -0.0125
  169SAPE  H12A18970   0.291   4.746   2.597 -1.1941  2.7404  1.2012
  169SAPE  H12B18971   0.293   4.786   2.769 -0.7644  0.1374  0.1267
  169SAPE   C1118972   0.226   4.581   2.720  0.0954 -0.2943  0.0363
  169SAPE  H11A18973   0.247   4.512   2.635 -0.4854 -1.0114  0.4701
  169SAPE  H11B18974   0.123   4.621   2.710  0.0914 -0.5059 -0.8573
  169SAPE     P18975   0.142   4.469   2.930  0.2564 -0.3715 -0.1400
  169SAPE   O1318976   0.029   4.563   2.937  0.3034  0.3875  0.1331
  169SAPE   O1418977   0.116   4.335   2.873 -0.4312 -0.2791  0.1069
  169SAPE   O1218978   0.262   4.529   2.848 -0.0339  0.1206  0.1396
  169SAPE   O1118979   0.209   4.441   3.072  0.2889 -0.1931 -0.0412
  169SAPE    C118980   0.200   4.534   3.176 -0.4073 -0.9429 -0.4337
  169SAPE    HA18981   0.280   4.519   3.250 -0.1316 -1.4145 -0.8231
  169SAPE    HB18982   0.202   4.641   3.143 -2.3990 -1.1738 -1.5282
  169SAPE    C218983   0.072   4.515   3.262  0.2806  0.0223  0.0910
  169SAPE    HS18984  -0.014   4.550   3.201  0.4664 -0.7824 -0.6561
  169SAPE   O2118985   0.077   4.597   3.381 -0.0434 -0.4517 -0.5873
  169SAPE   C2118986   0.080   4.731   3.364  0.0570 -0.2575 -0.1136
  169SAPE   O2218987   0.100   4.793   3.263  0.1290  0.3525  0.0006
  169SAPE   C2218988   0.045   4.800   3.497 -0.6717 -0.7810  0.6888
  169SAPE   H2R18989  -0.064   4.820   3.486 -0.4406 -0.9180 -3.7852
  169SAPE   H2S18990   0.060   4.726   3.578 -2.4833 -0.1404  1.6567
  169SAPE    C318991   0.046   4.369   3.308  0.0195  0.3075 -0.3397
  169SAPE    HX18992   0.027   4.323   3.209 -1.1084 -0.7859  0.3570
  169SAPE    HY18993  -0.052   4.352   3.357  0.6952 -1.1306  0.5949
  169SAPE   O3118994   0.153   4.314   3.384  0.0638  0.5327  0.0069
  169SAPE   C3118995   0.217   4.215   3.332 -0.5876  0.1511 -0.3185
  169SAPE   O3218996   0.204   4.168   3.220 -0.0360 -0.2009 -0.3755
  169SAPE   C3218997   0.337   4.190   3.419 -0.3007  0.4873 -0.6154
  169SAPE   H2X18998   0.352   4.279   3.484 -0.2162  0.3089 -0.3894
  169SAPE   H2Y18999   0.424   4.183   3.350 -1.5921  2.0399 -2.5206
  169SAPE   C2319000   0.117   4.938   3.518 -0.5733 -0.3461 -0.0809
  169SAPE   H3R19001   0.042   5.001   3.570  1.8937  0.9382  2.1547
  169SAPE   H3S19002   0.136   4.988   3.420 -3.5436  2.0400  0.4269
  169SAPE   C2419003   0.241   4.936   3.609  0.5436 -0.0949  0.5532
  169SAPE   H4R19004   0.226   4.877   3.703  1.2840  0.4329  1.0151
  169SAPE   H4S19005   0.263   5.035   3.654  1.4697  0.4461 -1.0278
  169SAPE   C2519006   0.365   4.895   3.536  0.6679  0.5383 -0.3732
  169SAPE   H5R19007   0.391   4.960   3.451 -2.5650  0.5512 -1.4651
  169SAPE   C2619008   0.436   4.782   3.562  0.3510  0.4087 -0.2674
  169SAPE   H6R19009   0.516   4.753   3.492  1.4686  1.6205  0.4685
  169SAPE   C2719010   0.398   4.675   3.669 -0.4568  0.1213 -0.5838
  169SAPE   H7R19011   0.334   4.725   3.745  1.3930 -0.0529  1.1728
  169SAPE   H7S19012   0.488   4.640   3.722 -0.7965 -1.4583 -0.9959
  169SAPE   C2819013   0.331   4.558   3.608  0.4057 -0.6764  0.7847
  169SAPE   H8R19014   0.344   4.543   3.500 -1.2599  3.2588 -0.1135
  169SAPE   C2919015   0.251   4.475   3.681  0.2741 -0.6578  0.3725
  169SAPE   H9R19016   0.205   4.393   3.625 -2.0531  1.0689 -0.4202
  169SAPE  C21019017   0.222   4.497   3.825  0.2965 -0.1638  0.2811
  169SAPE  H10R19018   0.178   4.598   3.837  0.4156 -0.0241 -0.4189
  169SAPE  H10S19019   0.316   4.496   3.884  0.5700  3.0276  0.0384
  169SAPE  C21119020   0.126   4.395   3.888 -0.1012  0.1496 -0.0143
  169SAPE  H11R19021   0.067   4.349   3.808 -0.1857  2.8202 -1.6012
  169SAPE  C21219022   0.120   4.351   4.013 -0.1649  0.1638  0.1731
  169SAPE  H12R19023   0.042   4.279   4.039 -0.7519  0.4714 -0.6822
  169SAPE  C21319024   0.201   4.402   4.127 -0.4257  0.0303 -0.2584
  169SAPE  H13R19025   0.153   4.501   4.145 -0.5129 -0.0340 -0.1431
  169SAPE  H13S19026   0.310   4.409   4.103 -0.1786 -0.2363  0.7418
  169SAPE  C21419027   0.184   4.322   4.253  0.2235  0.9676  0.9126
  169SAPE  H14R19028   0.241   4.228   4.253  2.1975  2.0657 -1.3010
  169SAPE  C21519029   0.114   4.345   4.366 -0.0658  0.1877 -0.0659
  169SAPE  H15R19030   0.098   4.268   4.443 -0.3783 -0.2060 -0.5208
  169SAPE  C21619031   0.032   4.473   4.393  0.7825  0.7065  0.5600
  169SAPE  H16R19032  -0.076   4.461   4.415  0.1586 -0.9895 -2.7374
  169SAPE  H16S19033   0.019   4.529   4.298 -1.4872 -0.6587 -0.0310
  169SAPE  C21719034   0.099   4.557   4.497 -0.9878 -0.9421 -0.2232
  169SAPE  H17R19035   0.031   4.642   4.520 -0.2500  0.4951 -2.8859
  169SAPE  H17S19036   0.192   4.595   4.449  1.3188 -4.0621  1.4131
  169SAPE  C21819037   0.153   4.486   4.625 -0.4506 -0.2269  0.5807
  169SAPE  H18R19038   0.199   4.567   4.686  0.9462 -0.0999 -0.5955
  169SAPE  H18S19039   0.230   4.409   4.606  1.6639  1.8872  0.0459
  169SAPE  C21919040   0.033   4.430   4.711 -0.2101 -0.4053  0.0616
  169SAPE  H19R19041  -0.023   4.342   4.673 -0.2136 -1.9497  3.3186
  169SAPE  H19S19042  -0.041   4.512   4.719  1.5002  1.0859  1.4492
  169SAPE  C22019043   0.083   4.386   4.849 -0.2495 -0.4160 -0.6350
  169SAPE  H20R19044   0.125   4.471   4.908 -2.1264 -1.0355  1.7959
  169SAPE  H20S19045   0.160   4.307   4.853  0.6250  0.3986  3.3599
  169SAPE  H20T19046  -0.008   4.365   4.911 -1.0167  1.8686 -0.8831
  169SAPE   C3319047   0.320   4.065   3.509  0.0082 -0.1348  0.3338
  169SAPE   H3X19048   0.421   4.030   3.541 -0.6990 -1.1330  1.5824
  169SAPE   H3Y19049   0.267   3.989   3.449 -0.7520 -0.0339  0.8693
  169SAPE   C3419050   0.233   4.084   3.634 -0.1392 -0.2902 -0.7646
  169SAPE   H4X19051   0.135   4.125   3.601 -0.6234 -0.9283 -0.1633
  169SAPE   H4Y19052   0.270   4.172   3.691  1.3312  0.1029 -2.2497
  169SAPE   C3519053   0.216   3.960   3.726  0.5813  0.1831  0.2806
  169SAPE   H5X19054   0.322   3.929   3.740  0.7113  0.0281 -0.9291
  169SAPE   H5Y19055   0.176   3.878   3.661  0.7600  0.4952 -0.2253
  169SAPE   C3619056   0.129   3.982   3.852 -0.4298 -0.0823  0.1359
  169SAPE   H6X19057   0.023   4.006   3.832 -0.1650  0.6308 -0.4761
  169SAPE   H6Y19058   0.174   4.070   3.902  0.5807 -0.1199 -0.6641
  169SAPE   C3719059   0.135   3.851   3.939 -0.6942 -0.5465 -0.0098
  169SAPE   H7X19060   0.238   3.817   3.965  0.3789  3.3637  1.6171
  169SAPE   H7Y19061   0.085   3.777   3.872 -2.2461  0.0475  0.4625
  169SAPE   C3819062   0.053   3.882   4.063  1.0186 -0.1824  0.0699
  169SAPE   H8X19063  -0.035   3.931   4.017  0.9131  0.6115  1.0768
  169SAPE   H8Y19064   0.109   3.959   4.121  0.9570  1.2909 -1.7487
  169SAPE   C3919065   0.006   3.750   4.133  0.6265  0.2616 -0.5792
  169SAPE   H9X19066   0.099   3.693   4.153  0.0662 -1.9291 -3.5130
  169SAPE   H9Y19067  -0.050   3.694   4.055 -1.8834 -0.1090  1.3959
  169SAPE  C31019068  -0.081   3.794   4.258  0.2466  0.7331  0.4136
  169SAPE  H10X19069  -0.144   3.880   4.228  0.3683  1.2355  1.5473
  169SAPE  H10Y19070  -0.017   3.827   4.343  2.2854 -0.7394 -0.4546
  169SAPE  C31119071  -0.166   3.679   4.305  1.1197 -0.1196 -0.3464
  169SAPE  H11X19072  -0.100   3.591   4.315 -0.8058 -1.8309 -1.9795
  169SAPE  H11Y19073  -0.235   3.651   4.223  1.4614  0.2126 -0.7498
  169SAPE  C31219074  -0.257   3.722   4.425  0.3866  0.7193 -0.4808
  169SAPE  H12X19075  -0.323   3.801   4.382 -3.6730 -1.8782  0.4252
  169SAPE  H12Y19076  -0.191   3.763   4.505  0.7330 -1.5256  0.4527
  169SAPE  C31319077  -0.346   3.611   4.488  0.0046 -0.1349 -0.1588
  169SAPE  H13X19078  -0.275   3.536   4.529  0.3544  0.2766  0.0085
  169SAPE  H13Y19079  -0.398   3.556   4.407 -0.6530 -2.0967  1.5081
  169SAPE  C31419080  -0.437   3.659   4.601  0.0170  0.4463 -0.9598
  169SAPE  H14X19081  -0.499   3.744   4.566 -1.5523 -0.1127  0.3137
  169SAPE  H14Y19082  -0.385   3.682   4.696  0.1160 -2.6423 -0.1341
  169SAPE  C31519083  -0.547   3.548   4.630 -0.0475 -0.4887 -0.2160
  169SAPE  H15X19084  -0.492   3.456   4.658 -0.3684  0.1266  2.7122
  169SAPE  H15Y19085  -0.611   3.518   4.544 -1.9045 -0.4972  1.1176
  169SAPE  C31619086  -0.632   3.578   4.755  0.0998 -0.5379 -0.8259
  169SAPE  H16X19087  -0.698   3.660   4.718  2.9192  1.1195 -2.5115
  169SAPE  H16Y19088  -0.564   3.623   4.830  0.0783  2.0223 -2.2460
  169SAPE  C31719089  -0.712   3.457   4.805  0.1588  0.4762  0.1757
  169SAPE  H17X19090  -0.642   3.376   4.833 -0.0556  0.7925  1.6786
  169SAPE  H17Y19091  -0.776   3.424   4.720 -2.1125 -0.3431  2.1136
  169SAPE  C31819092  -0.796   3.489   4.922 -0.1291 -0.0531  0.3651
  169SAPE  H18X19093  -0.733   3.524   5.007 -0.1184  0.6634  0.0680
  169SAPE  H18Y19094  -0.849   3.398   4.958 -2.2061  1.0525  0.2598
  169SAPE  H18Z19095  -0.867   3.573   4.904 -1.4438 -1.2537 -0.1885
  170SAPE     N19096   5.345   4.318   2.917  0.5349 -0.3284 -0.3594
  170SAPE   HN119097   5.405   4.401   2.903  0.0786  0.0500 -0.1022
  170SAPE   HN219098   5.391   4.237   2.871  0.1093 -0.0188 -1.3560
  170SAPE   HN319099   5.267   4.342   2.852 -1.1494  0.6027  1.8622
  170SAPE   C1219100   5.288   4.289   3.054 -0.0029  0.1936 -0.2374
  170SAPE  H12A19101   5.197   4.352   3.058  0.3639  0.7214 -0.1348
  170SAPE  H12B19102   5.352   4.327   3.137 -1.3454 -0.9979  1.4107
  170SAPE   C1119103   5.246   4.139   3.052 -0.0062  0.1051 -0.7169
  170SAPE  H11A19104   5.188   4.112   3.142 -0.2151 -0.5232 -1.0311
  170SAPE  H11B19105   5.337   4.075   3.051  1.2189  1.6347  1.7227
  170SAPE     P19106   5.052   3.997   2.932 -0.2944  0.1296  0.2430
  170SAPE   O1319107   4.936   4.042   3.013 -0.1882 -0.0666  0.2441
  170SAPE   O1419108   5.024   3.952   2.791 -0.0438 -0.3426 -0.1303
  170SAPE   O1219109   5.163   4.110   2.933 -0.3029  0.0443  0.1352
  170SAPE   O1119110   5.118   3.876   3.007  0.1721  0.1055  0.4785
  170SAPE    C119111   5.223   3.798   2.957 -0.6630  0.1436  0.2564
  170SAPE    HA19112   5.180   3.755   2.864  2.4247  1.0111 -1.7102
  170SAPE    HB19113   5.302   3.870   2.928 -1.0156  0.6327  0.5003
  170SAPE    C219114   5.265   3.680   3.043  0.7532  0.6015 -0.2340
  170SAPE    HS19115   5.185   3.602   3.045  1.1476  0.2028  0.4994
  170SAPE   O2119116   5.290   3.723   3.183 -0.3101 -0.0947  0.5981
  170SAPE   C2119117   5.179   3.728   3.255 -0.1163 -0.6202 -0.7694
  170SAPE   O2219118   5.078   3.658   3.234 -0.3885 -0.1762  0.5222
  170SAPE   C2219119   5.193   3.827   3.367  0.9797  0.2180  0.0867
  170SAPE   H2R19120   5.243   3.770   3.448  2.4856  0.6161 -0.5368
  170SAPE   H2S19121   5.257   3.910   3.331  0.8311 -0.1137 -0.9787
  170SAPE    C319122   5.399   3.610   2.996 -0.0646 -0.6577 -0.3002
  170SAPE    HX19123   5.480   3.686   3.000 -2.6871  2.3970 -0.2838
  170SAPE    HY19124   5.392   3.589   2.888 -0.1044  3.6470 -1.3261
  170SAPE   O3119125   5.426   3.497   3.077  0.2222  0.0459 -0.2000
  170SAPE   C3119126   5.375   3.391   3.044 -0.4470  0.3629  0.1219
  170SAPE   O3219127   5.306   3.367   2.942 -0.1350 -0.0475  0.1849
  170SAPE   C3219128   5.400   3.290   3.151 -0.2459  0.4165 -0.3091
  170SAPE   H2X19129   5.478   3.325   3.221 -0.6621  0.0245  0.3570
  170SAPE   H2Y19130   5.441   3.200   3.099 -4.0776 -0.2716 -2.5425
  170SAPE   C2319131   5.062   3.881   3.421  1.1683  0.4050  0.0825
  170SAPE   H3R19132   4.989   3.802   3.451  0.0472  1.7060  0.9008
  170SAPE   H3S19133   5.024   3.929   3.329  2.2677 -2.2801 -1.9148
  170SAPE   C2419134   5.090   3.971   3.540  0.3556  0.2429  0.2279
  170SAPE   H4R19135   5.171   4.040   3.511  2.1112 -1.9117 -0.2105
  170SAPE   H4S19136   5.120   3.905   3.625 -1.8837 -1.7625 -0.4185
  170SAPE   C2519137   4.972   4.049   3.582  0.3435 -0.3436 -0.5657
  170SAPE   H5R19138   4.952   4.137   3.520  1.1995 -0.2775 -0.7591
  170SAPE   C2619139   4.910   4.023   3.698  0.3119 -1.0038 -0.4667
  170SAPE   H6R19140   4.828   4.093   3.723  0.7495 -0.5722 -0.2307
  170SAPE   C2719141   4.942   3.924   3.799  0.0996  0.3730  0.2074
  170SAPE   H7R19142   4.884   3.945   3.891  0.4898  0.9295  0.3291
  170SAPE   H7S19143   5.045   3.937   3.837 -0.4053  0.2639  1.6607
  170SAPE   C2819144   4.909   3.784   3.750 -0.3466  0.2285 -0.5168
  170SAPE   H8R19145   4.865   3.776   3.649  0.8880  0.9747 -1.1372
  170SAPE   C2919146   4.912   3.675   3.836 -0.4352  0.1378  0.2848
  170SAPE   H9R19147   4.884   3.579   3.791  0.3904  0.7787 -1.7185
  170SAPE  C21019148   4.949   3.677   3.979 -0.5407 -0.6341 -0.3391
  170SAPE  H10R19149   5.013   3.761   4.012  0.0040 -1.9177  2.1275
  170SAPE  H10S19150   5.020   3.593   3.994 -0.2754 -0.4138 -0.3631
  170SAPE  C21119151   4.832   3.668   4.068 -0.3778  0.2553  0.1283
  170SAPE  H11R19152   4.758   3.746   4.044  0.3651  1.1583  0.6796
  170SAPE  C21219153   4.804   3.577   4.160  0.4858  0.0577  0.3390
  170SAPE  H12R19154   4.716   3.588   4.226  0.6852 -0.0931  0.6315
  170SAPE  C21319155   4.907   3.479   4.207  0.3509  0.1551  0.1848
  170SAPE  H13R19156   4.951   3.523   4.298  1.2445  0.8877 -0.5821
  170SAPE  H13S19157   4.998   3.476   4.144 -0.1198 -1.4980 -0.4765
  170SAPE  C21419158   4.865   3.338   4.244 -0.1794  0.1182 -0.0559
  170SAPE  H14R19159   4.854   3.268   4.159 -0.0558 -0.2749  0.2511
  170SAPE  C21519160   4.856   3.289   4.366  0.4774  0.3485 -0.2742
  170SAPE  H15R19161   4.845   3.180   4.366 -1.8744  0.5218 -1.2891
  170SAPE  C21619162   4.881   3.354   4.500  0.3667  0.0417  0.1345
  170SAPE  H16R19163   4.874   3.465   4.499  0.7958  0.0774  0.6236
  170SAPE  H16S19164   4.981   3.325   4.539  1.1526  0.6348 -1.3658
  170SAPE  C21719165   4.777   3.322   4.609  0.2099 -0.5681  0.2628
  170SAPE  H17R19166   4.673   3.332   4.570 -0.2378 -0.3855  1.4650
  170SAPE  H17S19167   4.773   3.401   4.687 -0.2247 -2.8117  2.6403
  170SAPE  C21819168   4.805   3.191   4.683 -0.1241  0.1173 -0.5900
  170SAPE  H18R19169   4.914   3.171   4.679 -0.4304 -1.6342 -1.1911
  170SAPE  H18S19170   4.751   3.104   4.639 -1.1018 -0.0338  0.8500
  170SAPE  C21919171   4.749   3.186   4.827 -0.7876  0.2523 -0.1308
  170SAPE  H19R19172   4.648   3.233   4.825 -2.0260 -1.5522  4.7111
  170SAPE  H19S19173   4.822   3.243   4.890  0.7583  0.3808 -1.9501
  170SAPE  C22019174   4.735   3.041   4.891 -0.2261  0.1802 -0.1507
  170SAPE  H20R19175   4.715   3.052   4.999  1.3751  0.2281  0.1561
  170SAPE  H20S19176   4.833   2.990   4.891 -0.6092 -0.5794  0.7961
  170SAPE  H20T19177   4.654   2.979   4.846  1.0815 -1.6141 -0.1248
  170SAPE   C3319178   5.272   3.271   3.230 -0.7997  0.0507  0.1504
  170SAPE   H3X19179   5.205   3.195   3.185 -0.4473  0.7661 -1.6721
  170SAPE   H3Y19180   5.211   3.364   3.236 -0.0962  0.4800  0.8973
  170SAPE   C3419181   5.293   3.227   3.378  0.0622  0.1484 -0.0452
  170SAPE   H4X19182   5.372   3.150   3.381 -0.8030 -0.7800 -0.5479
  170SAPE   H4Y19183   5.201   3.173   3.407 -0.3665  0.3300 -1.0211
  170SAPE   C3519184   5.317   3.352   3.465 -0.0534  0.1921 -0.4944
  170SAPE   H5X19185   5.381   3.432   3.422  1.3387 -1.3325 -1.3426
  170SAPE   H5Y19186   5.375   3.311   3.551 -1.1682 -0.0943  0.1415
  170SAPE   C3619187   5.185   3.412   3.522  0.5529 -0.3179  0.7917
  170SAPE   H6X19188   5.120   3.332   3.564 -0.7700  0.3980  0.1676
  170SAPE   H6Y19189   5.124   3.463   3.444 -0.0934  1.7921  2.5563
  170SAPE   C3719190   5.219   3.517   3.631 -0.1056 -0.4664  0.3240
  170SAPE   H7X19191   5.129   3.581   3.635 -0.8555 -1.4195 -0.6648
  170SAPE   H7Y19192   5.303   3.582   3.597  0.1242 -0.1058  1.5530
  170SAPE   C3819193   5.241   3.457   3.775 -0.3862 -0.4502  0.5658
  170SAPE   H8X19194   5.330   3.392   3.766  0.2950  0.1280  2.5244
  170SAPE   H8Y19195   5.164   3.386   3.810 -0.0072  0.7190  4.1984
  170SAPE   C3919196   5.266   3.565   3.880 -0.3538  0.8741 -0.0870
  170SAPE   H9X19197   5.181   3.636   3.896 -0.7327  0.3945  0.0623
  170SAPE   H9Y19198   5.343   3.636   3.843  0.8544 -0.5830 -0.4542
  170SAPE  C31019199   5.301   3.507   4.019  0.6317 -0.0955 -0.1279
  170SAPE  H10X19200   5.392   3.444   4.008  2.0667  1.6344  1.2128
  170SAPE  H10Y19201   5.208   3.454   4.048 -0.4541  1.4386 -0.6750
  170SAPE  C31119202   5.322   3.612   4.125  0.4634  0.7911  0.3993
  170SAPE  H11X19203   5.223   3.662   4.129 -0.2409 -0.5381  0.1794
  170SAPE  H11Y19204   5.396   3.691   4.102  0.4268  0.9751  0.8928
  170SAPE  C31219205   5.374   3.555   4.260  0.4019  0.1198  0.4135
  170SAPE  H12X19206   5.454   3.480   4.243  0.5780 -0.3281  2.8433
  170SAPE  H12Y19207   5.289   3.494   4.296  0.2058 -0.1576 -0.4824
  170SAPE  C31319208   5.426   3.663   4.364  0.3069 -0.3507 -0.5491
  170SAPE  H13X19209   5.348   3.742   4.349  0.6566  0.0414 -0.3075
  170SAPE  H13Y19210   5.532   3.687   4.341  0.4886  0.1577  0.7666
  170SAPE  C31419211   5.399   3.608   4.506  0.0374  0.2016 -0.3005
  170SAPE  H14X19212   5.465   3.520   4.519  0.2205 -0.3950 -4.2598
  170SAPE  H14Y19213   5.294   3.573   4.515  0.1768 -0.1835 -0.1545
  170SAPE  C31519214   5.417   3.719   4.611 -0.5072  0.3409 -0.1088
  170SAPE  H15X19215   5.368   3.815   4.582 -0.2298  0.7838  0.8330
  170SAPE  H15Y19216   5.523   3.739   4.585 -0.4867  0.6343  0.1902
  170SAPE  C31619217   5.406   3.669   4.753  0.5587  0.5696  0.4932
  170SAPE  H16X19218   5.442   3.564   4.759 -0.9017  0.1263  2.8910
  170SAPE  H16Y19219   5.296   3.670   4.769 -0.1301 -2.4945 -2.6732
  170SAPE  C31719220   5.480   3.767   4.842  0.3129  0.6660 -0.1479
  170SAPE  H17X19221   5.437   3.869   4.838  1.3132  1.1822  1.2323
  170SAPE  H17Y19222   5.589   3.771   4.819 -0.1393  3.8626 -2.3609
  170SAPE  C31819223   5.461   3.735   4.993  0.6839  0.0279  0.3936
  170SAPE  H18X19224   5.353   3.712   5.004  0.8675  0.1468  2.8006
  170SAPE  H18Y19225   5.489   3.822   5.057 -0.2912 -0.0766  0.9687
  170SAPE  H18Z19226   5.517   3.647   5.031  2.5093  1.0227  0.1542
  171SAPE     N19227   5.943   3.884   2.121  0.1321  0.3410 -0.5434
  171SAPE   HN119228   5.902   3.798   2.164 -0.7890  0.9484 -0.1802
  171SAPE   HN219229   5.940   3.880   2.017  1.4503 -2.8501 -0.5869
  171SAPE   HN319230   6.041   3.886   2.156 -0.0412 -0.9794  0.1072
  171SAPE   C1219231   5.864   4.000   2.170  0.2479 -0.0787  1.2386
  171SAPE  H12A19232   5.762   3.986   2.127  1.4099 -0.4241 -1.6192
  171SAPE  H12B19233   5.906   4.095   2.131  0.2753 -1.1892 -1.6619
  171SAPE   C1119234   5.849   4.004   2.323  0.6167 -0.0982  0.5663
  171SAPE  H11A19235   5.781   4.089   2.340  0.4705  0.0840 -0.8207
  171SAPE  H11B19236   5.945   4.029   2.374  0.0897  2.1749  0.5365
  171SAPE     P19237   5.721   3.852   2.500  0.2379  0.5995  0.0433
  171SAPE   O1319238   5.587   3.917   2.504  0.0616 -0.4159 -0.0276
  171SAPE   O1419239   5.710   3.704   2.516 -0.4292  0.4739 -0.4249
  171SAPE   O1219240   5.787   3.879   2.360 -0.3638 -0.8912 -0.0167
  171SAPE   O1119241   5.828   3.913   2.606  0.2058 -0.0016  0.4250
  171SAPE    C119242   5.939   3.840   2.644 -0.7073 -0.2747  0.7963
  171SAPE    HA19243   5.976   3.769   2.567  1.3939  0.3479  1.1715
  171SAPE    HB19244   6.021   3.914   2.655 -1.3477  0.3448  1.4536
  171SAPE    C219245   5.916   3.766   2.774  0.9175  0.0653 -0.3100
  171SAPE    HS19246   5.833   3.696   2.751  0.7726 -0.5191  1.8256
  171SAPE   O2119247   5.885   3.859   2.882  0.0091 -0.1560  0.2693
  171SAPE   C2119248   5.756   3.860   2.918  0.3966 -0.2566 -0.6352
  171SAPE   O2219249   5.656   3.828   2.852  0.4794  0.5483 -0.2764
  171SAPE   C2219250   5.757   3.934   3.058 -0.0582 -0.9014  0.0155
  171SAPE   H2R19251   5.833   3.879   3.117  4.5312  2.4845 -2.1509
  171SAPE   H2S19252   5.790   4.039   3.044 -2.3198 -0.4268 -2.5403
  171SAPE    C319253   6.040   3.677   2.803 -0.2750 -0.9616  0.7432
  171SAPE    HX19254   6.122   3.746   2.833 -0.7165 -0.4750  0.8378
  171SAPE    HY19255   6.074   3.631   2.708  0.3271 -1.6689  1.2918
  171SAPE   O3119256   6.014   3.577   2.900  0.5340 -0.2987  0.0883
  171SAPE   C3119257   6.067   3.585   3.024  0.5887  0.1881  0.1007
  171SAPE   O3219258   6.132   3.681   3.064  0.1767  0.2303 -0.1267
  171SAPE   C3219259   6.032   3.461   3.105  0.5343 -0.1424 -0.3146
  171SAPE   H2X19260   6.126   3.409   3.132 -0.5605 -1.3669  1.4033
  171SAPE   H2Y19261   5.978   3.384   3.046  3.1618 -1.0563 -1.6585
  171SAPE   C2319262   5.617   3.934   3.128  0.8045  0.3285  0.3321
  171SAPE   H3R19263   5.560   3.842   3.103 -0.4369  1.3182 -0.6704
  171SAPE   H3S19264   5.554   3.999   3.063 -0.8134  0.3025  1.8076
  171SAPE   C2419265   5.620   3.959   3.282 -0.1436 -0.1678 -0.2488
  171SAPE   H4R19266   5.690   3.884   3.327  0.1237  0.4645  0.4126
  171SAPE   H4S19267   5.519   3.941   3.325 -0.7585  3.6167  0.2262
  171SAPE   C2519268   5.671   4.099   3.309  0.0532  0.0830  0.5418
  171SAPE   H5R19269   5.769   4.121   3.263  0.5283 -2.6097  0.1355
  171SAPE   C2619270   5.610   4.197   3.376  0.1555  0.0444  0.1360
  171SAPE   H6R19271   5.660   4.295   3.388  0.4485 -0.1774  0.7537
  171SAPE   C2719272   5.475   4.187   3.442  0.2231 -0.5197 -0.4510
  171SAPE   H7R19273   5.409   4.132   3.371  0.2077  2.0123 -2.5698
  171SAPE   H7S19274   5.430   4.288   3.450 -0.5016 -0.8207 -0.5997
  171SAPE   C2819275   5.477   4.105   3.566  0.2992  1.0331  0.0574
  171SAPE   H8R19276   5.516   4.002   3.560  0.3969  0.9802  1.2374
  171SAPE   C2919277   5.437   4.143   3.687 -0.0387  0.1626  0.1289
  171SAPE   H9R19278   5.455   4.069   3.766  0.9620 -1.4048 -1.4960
  171SAPE  C21019279   5.377   4.273   3.730  0.5297  0.2029 -0.7814
  171SAPE  H10R19280   5.270   4.246   3.744  0.7242  0.5261  1.9808
  171SAPE  H10S19281   5.389   4.352   3.653 -1.3001  2.7589  1.3685
  171SAPE  C21119282   5.425   4.313   3.868 -0.3568  0.0465 -0.2519
  171SAPE  H11R19283   5.520   4.367   3.868 -0.4483  0.2404  1.0111
  171SAPE  C21219284   5.353   4.287   3.985  0.0768  0.0670  0.0405
  171SAPE  H12R19285   5.389   4.334   4.078 -1.2685 -1.1638  1.2362
  171SAPE  C21319286   5.220   4.218   4.001 -0.3207 -0.8734  0.7398
  171SAPE  H13R19287   5.242   4.109   3.999  1.8641 -0.4907  0.8886
  171SAPE  H13S19288   5.157   4.240   3.912  1.7433 -1.3735 -0.9328
  171SAPE  C21419289   5.153   4.251   4.136 -0.2224  0.6695  0.3637
  171SAPE  H14R19290   5.176   4.354   4.166  1.4316  0.7466 -1.0128
  171SAPE  C21519291   5.074   4.172   4.211  0.4383 -0.1268 -0.3722
  171SAPE  H15R19292   5.061   4.209   4.314  3.3006 -1.5411  0.6087
  171SAPE  C21619293   5.031   4.025   4.180  0.4518 -0.0845  0.0651
  171SAPE  H16R19294   5.093   3.984   4.097 -1.2232 -0.3575 -1.0945
  171SAPE  H16S19295   4.930   4.021   4.136  0.8484 -1.8118 -0.7603
  171SAPE  C21719296   5.039   3.933   4.300 -0.5287  0.0513 -0.4605
  171SAPE  H17R19297   5.131   3.958   4.358 -0.9856  0.3526  0.1465
  171SAPE  H17S19298   5.051   3.828   4.266 -1.6219 -0.4229  0.5458
  171SAPE  C21819299   4.920   3.927   4.395  0.4717 -0.6118 -0.7671
  171SAPE  H18R19300   4.833   3.882   4.342 -0.4008  0.1258  0.0004
  171SAPE  H18S19301   4.893   4.033   4.416 -0.4416 -0.9167 -0.3422
  171SAPE  C21919302   4.946   3.842   4.522 -0.7833 -0.3946 -0.6003
  171SAPE  H19R19303   5.039   3.883   4.568 -0.0282 -1.6046 -0.9926
  171SAPE  H19S19304   4.961   3.739   4.484 -0.3269  0.5058 -3.0336
  171SAPE  C22019305   4.825   3.843   4.628  0.0834 -0.5317 -0.0506
  171SAPE  H20R19306   4.854   3.785   4.718  1.2576 -0.6766 -0.5134
  171SAPE  H20S19307   4.732   3.813   4.575 -0.4163  1.1539 -0.1876
  171SAPE  H20T19308   4.816   3.951   4.651  2.0064  0.3398 -2.9015
  171SAPE   C3319309   5.947   3.506   3.231 -0.7055  0.2688  0.0592
  171SAPE   H3X19310   6.005   3.584   3.285  0.1527 -1.2414  1.4086
  171SAPE   H3Y19311   5.931   3.426   3.306 -0.7749 -0.0401 -0.2825
  171SAPE   C3419312   5.802   3.551   3.198  0.2873 -0.3398 -0.3255
  171SAPE   H4X19313   5.736   3.465   3.172  1.2990 -1.2863  0.1376
  171SAPE   H4Y19314   5.799   3.617   3.108  2.3516  0.1414 -0.0965
  171SAPE   C3519315   5.743   3.617   3.323  0.3251  0.5168 -0.3301
  171SAPE   H5X19316   5.657   3.680   3.293 -1.1561 -0.9190  0.6982
  171SAPE   H5Y19317   5.818   3.689   3.362 -0.9102  1.3091  0.6674
  171SAPE   C3619318   5.698   3.528   3.436 -0.4193  0.2518  0.2938
  171SAPE   H6X19319   5.790   3.486   3.482 -0.7144  1.9714  2.6238
  171SAPE   H6Y19320   5.628   3.449   3.403 -2.5326  1.0873  2.5198
  171SAPE   C3719321   5.616   3.599   3.540  0.0768  0.3121 -0.2370
  171SAPE   H7X19322   5.620   3.537   3.632  1.6270 -0.1563 -0.5967
  171SAPE   H7Y19323   5.511   3.608   3.503 -0.5207  0.4433  1.3839
  171SAPE   C3819324   5.670   3.732   3.599 -0.2472 -0.4606  0.6993
  171SAPE   H8X19325   5.643   3.820   3.537 -0.8564 -0.5972  0.7588
  171SAPE   H8Y19326   5.780   3.721   3.608 -0.3320 -1.4033  0.6552
  171SAPE   C3919327   5.620   3.764   3.740  0.0453  1.0259 -0.4021
  171SAPE   H9X19328   5.617   3.672   3.803 -2.5178  0.5132 -1.1419
  171SAPE   H9Y19329   5.516   3.803   3.733 -1.0937 -0.8462  3.3390
  171SAPE  C31019330   5.698   3.874   3.821 -0.4162  0.4200  0.0602
  171SAPE  H10X19331   5.718   3.962   3.758  0.6155  0.2983  0.2012
  171SAPE  H10Y19332   5.799   3.836   3.845 -0.6304  1.0058  2.1334
  171SAPE  C31119333   5.629   3.901   3.966  0.9127 -0.1004  0.5546
  171SAPE  H11X19334   5.634   3.806   4.023  1.0193  0.0570  0.8102
  171SAPE  H11Y19335   5.524   3.934   3.955  0.2613 -1.9872  0.6616
  171SAPE  C31219336   5.717   3.991   4.047  0.2138  0.3391 -0.8480
  171SAPE  H12X19337   5.707   4.092   4.001  0.1282  0.3166 -0.8797
  171SAPE  H12Y19338   5.821   3.962   4.023 -0.6018 -2.8992 -0.9800
  171SAPE  C31319339   5.687   3.986   4.199 -0.2675  0.2682 -0.3125
  171SAPE  H13X19340   5.753   4.055   4.255 -0.3411 -0.2757  0.4544
  171SAPE  H13Y19341   5.710   3.884   4.238 -0.1297  1.4556  3.0208
  171SAPE  C31419342   5.543   4.019   4.241 -0.3408 -0.4239 -0.3659
  171SAPE  H14X19343   5.482   3.930   4.217  0.4692 -0.9107 -0.6371
  171SAPE  H14Y19344   5.524   4.111   4.182 -1.3855 -0.5330 -0.2094
  171SAPE  C31519345   5.536   4.064   4.393 -0.3785 -0.0800 -0.5048
  171SAPE  H15X19346   5.604   4.149   4.414 -0.2722 -0.1987 -0.3632
  171SAPE  H15Y19347   5.555   3.980   4.464  0.4882  1.3993  1.0793
  171SAPE  C31619348   5.400   4.124   4.434 -0.2211 -0.0687  0.2721
  171SAPE  H16X19349   5.325   4.047   4.405 -1.2182  1.0316 -0.1172
  171SAPE  H16Y19350   5.391   4.224   4.387  0.8708 -0.2575 -0.3649
  171SAPE  C31719351   5.396   4.139   4.585 -0.0472  0.1620 -0.7504
  171SAPE  H17X19352   5.467   4.216   4.621 -1.5256  0.3621  2.0728
  171SAPE  H17Y19353   5.431   4.041   4.624 -0.2326  0.1724 -0.5511
  171SAPE  C31819354   5.255   4.182   4.641 -0.5342  0.1311  0.6398
  171SAPE  H18X19355   5.242   4.130   4.739  2.7317 -0.0171  1.1202
  171SAPE  H18Y19356   5.166   4.151   4.583 -0.4366 -0.4020  0.7687
  171SAPE  H18Z19357   5.235   4.291   4.638 -1.1937  0.0030 -0.0871
  172SAPE     N19358   6.247   5.165   2.860  0.0084 -0.0013  0.0877
  172SAPE   HN119359   6.211   5.253   2.819 -0.3317 -1.1643 -2.2422
  172SAPE   HN219360   6.340   5.148   2.818 -0.5579 -0.9008 -0.8254
  172SAPE   HN319361   6.173   5.097   2.834 -1.5413  1.4432  0.5509
  172SAPE   C1219362   6.256   5.178   3.011 -0.3044 -0.1571 -0.2314
  172SAPE  H12A19363   6.358   5.220   3.021  1.4821 -3.1365 -3.4693
  172SAPE  H12B19364   6.255   5.072   3.045 -0.4937 -0.5772 -1.5019
  172SAPE   C1119365   6.133   5.258   3.069 -0.0575  0.1883 -0.7445
  172SAPE  H11A19366   6.170   5.291   3.169  0.7785  0.2737 -1.0787
  172SAPE  H11B19367   6.050   5.189   3.097 -0.2613  0.8394  0.3098
  172SAPE     P19368   5.990   5.401   2.906  0.1318 -0.6249 -0.4071
  172SAPE   O1319369   5.975   5.547   2.880 -0.5834 -0.3763 -0.7602
  172SAPE   O1419370   6.004   5.314   2.788  0.5831  1.1503 -0.3697
  172SAPE   O1219371   6.110   5.378   2.997 -0.2346 -0.1861 -0.3350
  172SAPE   O1119372   5.867   5.358   2.994 -0.4544 -0.3058 -1.2339
  172SAPE    C119373   5.823   5.431   3.109  0.7468  0.8227 -0.0779
  172SAPE    HA19374   5.894   5.510   3.143 -0.3132  1.2617  1.2282
  172SAPE    HB19375   5.725   5.471   3.077  0.6878  2.2056  1.6483
  172SAPE    C219376   5.804   5.333   3.233  0.2239 -0.2857 -0.6812
  172SAPE    HS19377   5.743   5.394   3.303  1.6525  1.6327 -1.0196
  172SAPE   O2119378   5.940   5.309   3.283  0.4647  0.1245 -0.4030
  172SAPE   C2119379   5.983   5.385   3.381  0.2888  0.2247 -0.7279
  172SAPE   O2219380   5.928   5.482   3.434 -0.2717 -0.1409  0.6699
  172SAPE   C2219381   6.129   5.337   3.427  0.2186  0.1251  0.6759
  172SAPE   H2R19382   6.136   5.339   3.538  0.3003 -2.6177  0.7949
  172SAPE   H2S19383   6.152   5.238   3.383  2.9973  1.2113 -0.5502
  172SAPE    C319384   5.728   5.196   3.191 -0.3161 -0.8171  0.3749
  172SAPE    HX19385   5.798   5.143   3.124  0.4747 -1.8589  1.9587
  172SAPE    HY19386   5.634   5.213   3.135  0.3371  2.3168  0.0090
  172SAPE   O3119387   5.702   5.112   3.307  0.0974  0.2731  0.8195
  172SAPE   C3119388   5.607   5.149   3.390 -1.0415 -1.0615  0.2848
  172SAPE   O3219389   5.533   5.248   3.377 -0.3718 -0.7119 -0.6254
  172SAPE   C3219390   5.609   5.052   3.509 -0.0524  0.1329  0.2447
  172SAPE   H2X19391   5.678   4.966   3.489  0.3071  0.2592  0.9089
  172SAPE   H2Y19392   5.509   5.002   3.504  0.0330  0.0299 -0.6015
  172SAPE   C2319393   6.239   5.437   3.394 -0.3395  0.0615  0.2494
  172SAPE   H3R19394   6.225   5.468   3.289  1.8248 -0.9439 -0.4070
  172SAPE   H3S19395   6.329   5.371   3.392 -1.7273 -1.9092  0.5981
  172SAPE   C2419396   6.269   5.562   3.477 -0.0714 -0.4026  0.5112
  172SAPE   H4R19397   6.240   5.541   3.582  0.4632  0.7542  0.9051
  172SAPE   H4S19398   6.198   5.642   3.447 -1.0444 -2.4289 -3.2303
  172SAPE   C2519399   6.411   5.620   3.461 -0.3165  0.9483  0.2359
  172SAPE   H5R19400   6.409   5.718   3.410 -0.3618  0.4190 -0.8027
  172SAPE   C2619401   6.529   5.575   3.503 -0.1141  0.1974  0.4076
  172SAPE   H6R19402   6.617   5.635   3.475 -0.1162  0.6452  1.3382
  172SAPE   C2719403   6.555   5.456   3.593  0.1369 -0.0183 -0.1760
  172SAPE   H7R19404   6.558   5.367   3.528 -2.4762 -0.4007  0.0863
  172SAPE   H7S19405   6.459   5.447   3.649 -0.7297  0.5216 -1.5272
  172SAPE   C2819406   6.670   5.473   3.689 -1.0787  0.0860  0.1275
  172SAPE   H8R19407   6.701   5.575   3.714  0.8841 -0.5413  0.3836
  172SAPE   C2919408   6.724   5.366   3.760  0.0279  0.7462  0.6230
  172SAPE   H9R19409   6.802   5.386   3.835  1.3647 -1.3898 -0.0924
  172SAPE  C21019410   6.681   5.219   3.752 -0.6230 -0.2815  0.7139
  172SAPE  H10R19411   6.770   5.166   3.710  1.0533  2.1482  1.0193
  172SAPE  H10S19412   6.594   5.204   3.685 -1.3806  1.8720  1.1422
  172SAPE  C21119413   6.647   5.182   3.892  0.1975  0.2587  0.6252
  172SAPE  H11R19414   6.585   5.259   3.939  0.8179  1.6672 -0.7709
  172SAPE  C21219415   6.709   5.083   3.964 -0.2713 -0.3104 -0.0230
  172SAPE  H12R19416   6.675   5.062   4.067 -2.1777  0.7216 -0.3818
  172SAPE  C21319417   6.811   4.982   3.907 -0.2258  0.2126 -0.9538
  172SAPE  H13R19418   6.908   5.033   3.889 -0.6109  2.0848  1.5588
  172SAPE  H13S19419   6.775   4.951   3.807 -0.5230 -1.3019 -0.4006
  172SAPE  C21419420   6.821   4.852   3.998  0.7466 -0.1818  0.7754
  172SAPE  H14R19421   6.767   4.763   3.963 -1.5397  0.0740  3.2512
  172SAPE  C21519422   6.900   4.841   4.104  0.6455 -0.2902 -0.4055
  172SAPE  H15R19423   6.888   4.754   4.170 -0.4542  0.2592  0.1344
  172SAPE  C21619424   6.971   4.951   4.171 -0.9541 -0.4341 -0.0901
  172SAPE  H16R19425   6.919   4.993   4.259  1.3872  3.0353 -0.1603
  172SAPE  H16S19426   6.971   5.043   4.108 -2.5309  0.7767  1.5971
  172SAPE  C21719427   7.118   4.904   4.210  0.0961 -0.2271  0.0142
  172SAPE  H17R19428   7.122   4.815   4.277  1.8606  0.9761  1.6028
  172SAPE  H17S19429   7.172   4.990   4.254  0.7928 -0.3753 -0.5262
  172SAPE  C21819430   7.216   4.893   4.096  0.1512 -0.2956  0.3821
  172SAPE  H18R19431   7.232   4.989   4.043 -1.0245  0.2741  1.0048
  172SAPE  H18S19432   7.168   4.819   4.028 -0.2315 -0.4339  0.7946
  172SAPE  C21919433   7.355   4.846   4.141  0.1427  0.2374  0.3541
  172SAPE  H19R19434   7.347   4.745   4.185 -1.6539  0.2008  0.0309
  172SAPE  H19S19435   7.410   4.911   4.213  2.3004 -0.7263 -0.3759
  172SAPE  C22019436   7.441   4.823   4.012 -0.1309 -0.6546  0.1257
  172SAPE  H20R19437   7.472   4.925   3.980 -0.3029 -0.3120  1.0158
  172SAPE  H20S19438   7.392   4.778   3.923  0.6354  1.2649 -1.3438
  172SAPE  H20T19439   7.531   4.760   4.034 -0.2982 -1.1910 -0.6819
  172SAPE   C3319440   5.648   5.113   3.642 -0.2738  0.0022 -0.1889
  172SAPE   H3X19441   5.651   5.028   3.714  0.5457  0.8354  0.8087
  172SAPE   H3Y19442   5.563   5.175   3.678 -1.2717  0.4254 -3.0726
  172SAPE   C3419443   5.788   5.191   3.646  0.0409 -0.3813 -0.1036
  172SAPE   H4X19444   5.782   5.275   3.574  0.7114 -0.5111 -0.3134
  172SAPE   H4Y19445   5.872   5.125   3.615 -0.3484 -0.8102 -0.2514
  172SAPE   C3519446   5.829   5.253   3.783  0.2166  0.1299 -0.3096
  172SAPE   H5X19447   5.854   5.165   3.846 -0.8104  0.9217  1.2494
  172SAPE   H5Y19448   5.743   5.310   3.824 -0.6934 -1.2414 -0.2229
  172SAPE   C3619449   5.950   5.343   3.761 -0.2217  0.1698 -0.5783
  172SAPE   H6X19450   5.923   5.424   3.690  0.3513 -1.4040 -2.7206
  172SAPE   H6Y19451   6.028   5.277   3.717  0.0006 -0.8337  1.2451
  172SAPE   C3719452   6.010   5.387   3.901 -0.0588 -0.1242  0.4450
  172SAPE   H7X19453   6.009   5.288   3.951 -3.1187 -1.6392 -2.2101
  172SAPE   H7Y19454   5.940   5.448   3.963 -0.8018  0.4126 -0.8641
  172SAPE   C3819455   6.145   5.454   3.887  0.0615  0.0317 -0.0988
  172SAPE   H8X19456   6.126   5.537   3.815 -2.8206  1.1899  1.8209
  172SAPE   H8Y19457   6.219   5.386   3.841 -1.0372 -1.1032 -0.2043
  172SAPE   C3919458   6.214   5.499   4.015  0.1095 -0.1380 -0.6268
  172SAPE   H9X19459   6.243   5.417   4.084 -2.4624 -0.8588 -0.2872
  172SAPE   H9Y19460   6.136   5.553   4.072 -0.3623 -0.2551 -1.1553
  172SAPE  C31019461   6.340   5.581   3.988 -0.7531  0.3189 -0.4357
  172SAPE  H10X19462   6.323   5.679   3.938  1.3010  0.8814 -0.1374
  172SAPE  H10Y19463   6.403   5.522   3.917 -0.4499  0.7554 -0.5328
  172SAPE  C31119464   6.433   5.612   4.105 -0.1353 -0.2304 -0.7907
  172SAPE  H11X19465   6.373   5.643   4.194  1.9358  0.4085  0.4573
  172SAPE  H11Y19466   6.491   5.702   4.075 -0.1360  0.3764  0.8834
  172SAPE  C31219467   6.511   5.489   4.145 -0.2197 -0.3168  0.4552
  172SAPE  H12X19468   6.571   5.463   4.055 -1.4665  0.4595 -0.6334
  172SAPE  H12Y19469   6.442   5.404   4.163  0.0439 -0.2109  2.1759
  172SAPE  C31319470   6.616   5.508   4.249 -0.3901 -0.2671 -0.0796
  172SAPE  H13X19471   6.570   5.542   4.344  0.0002 -1.3703  0.5185
  172SAPE  H13Y19472   6.682   5.590   4.213 -0.5673 -1.0281 -2.2546
  172SAPE  C31419473   6.691   5.377   4.276 -0.0307 -0.0122  0.2620
  172SAPE  H14X19474   6.689   5.325   4.178 -1.1819  0.8664 -0.2012
  172SAPE  H14Y19475   6.611   5.326   4.333 -1.8519  0.2035 -1.9629
  172SAPE  C31519476   6.832   5.391   4.335 -0.3548  0.1836 -0.0468
  172SAPE  H15X19477   6.827   5.456   4.425  0.2461  0.0684  0.0799
  172SAPE  H15Y19478   6.895   5.446   4.261 -1.7127  1.9298  0.0258
  172SAPE  C31619479   6.890   5.252   4.369  0.2687  0.2322 -0.4326
  172SAPE  H16X19480   6.830   5.186   4.303 -2.9774  1.7381  0.7837
  172SAPE  H16Y19481   6.867   5.238   4.477  0.3539  1.8634 -0.1701
  172SAPE  C31719482   7.038   5.243   4.352 -0.2493  0.6231  0.3099
  172SAPE  H17X19483   7.056   5.274   4.246 -1.3709  1.4812  0.3567
  172SAPE  H17Y19484   7.070   5.137   4.349 -1.5516  0.2387 -1.8519
  172SAPE  C31819485   7.115   5.335   4.446  0.3182 -0.2267  0.2481
  172SAPE  H18X19486   7.224   5.333   4.422  0.0130  0.7325 -1.3193
  172SAPE  H18Y19487   7.091   5.318   4.553 -0.0502  0.2312  0.2363
  172SAPE  H18Z19488   7.083   5.440   4.431  2.3156  0.4985  0.7163
  173SLPC     N19489   4.652   0.591   7.602 -0.4529 -0.0741  0.5924
  173SLPC   C1319490   4.773   0.510   7.646 -0.1442  0.7329 -0.1243
  173SLPC  H13A19491   4.803   0.434   7.576  0.3449  0.5634  0.2597
  173SLPC  H13B19492   4.862   0.572   7.649  0.4512 -0.0840 -0.6804
  173SLPC  H13C19493   4.762   0.461   7.742 -2.7278 -3.8122 -2.3860
  173SLPC   C1419494   4.633   0.685   7.723 -0.7333 -0.1191 -0.3808
  173SLPC  H14A19495   4.660   0.622   7.807  0.8792 -1.3594 -1.7523
  173SLPC  H14B19496   4.711   0.760   7.719 -0.7472 -0.0136  0.7399
  173SLPC  H14C19497   4.542   0.742   7.725  0.0049  1.1874 -2.0663
  173SLPC   C1519498   4.536   0.500   7.574  0.1680  0.0156 -0.5821
  173SLPC  H15A19499   4.465   0.568   7.528  0.3622  0.4914 -0.1916
  173SLPC  H15B19500   4.537   0.408   7.517 -2.0153  0.0597 -0.7683
  173SLPC  H15C19501   4.502   0.472   7.672  0.0864 -1.3503 -0.9764
  173SLPC   C1219502   4.692   0.666   7.479  0.3820  0.0817 -0.0791
  173SLPC  H12A19503   4.676   0.607   7.390 -0.6112  1.5255 -0.8892
  173SLPC  H12B19504   4.797   0.690   7.492  0.4323  0.6314 -1.3542
  173SLPC   C1119505   4.614   0.795   7.434  0.4837 -0.3905 -0.2975
  173SLPC  H11A19506   4.647   0.824   7.332  1.4492 -1.5019 -0.3268
  173SLPC  H11B19507   4.652   0.878   7.497 -0.1290  0.9581 -1.6354
  173SLPC     P19508   4.386   0.709   7.316 -0.2797 -0.0834  0.5269
  173SLPC   O1319509   4.280   0.616   7.365 -0.0122  0.0447  0.2348
  173SLPC   O1419510   4.334   0.814   7.229 -0.0812 -1.0178  0.2485
  173SLPC   O1219511   4.472   0.771   7.437  0.1723  0.0560 -0.0323
  173SLPC   O1119512   4.490   0.623   7.237 -0.0912 -0.3976  0.5454
  173SLPC    C119513   4.558   0.677   7.122 -0.5053 -0.2332  0.0908
  173SLPC    HA19514   4.569   0.787   7.125  0.6820 -0.3533  2.2217
  173SLPC    HB19515   4.661   0.637   7.113 -1.1919 -1.7905 -1.5497
  173SLPC    C219516   4.490   0.639   6.984  0.4702 -0.2570  0.7377
  173SLPC    HS19517   4.394   0.695   6.977  0.8581  0.9148  3.3327
  173SLPC   O2119518   4.470   0.492   6.981  0.3571  0.5910  0.1502
  173SLPC   C2119519   4.372   0.457   6.896 -0.1232 -0.1879 -0.0670
  173SLPC   O2219520   4.295   0.532   6.838 -0.2792 -0.2256  0.0201
  173SLPC   C2219521   4.370   0.308   6.867 -0.1401 -0.0112  0.7725
  173SLPC   H2R19522   4.360   0.260   6.966 -0.7288  0.6896  1.0601
  173SLPC   H2S19523   4.281   0.280   6.808  0.5933  0.3306 -0.5480
  173SLPC    C319524   4.590   0.686   6.878 -0.6453 -0.0875  0.5895
  173SLPC    HX19525   4.692   0.648   6.898 -0.0931  0.4282 -1.1214
  173SLPC    HY19526   4.594   0.795   6.899  2.3440  0.6902 -2.9503
  173SLPC   O3119527   4.545   0.660   6.739 -0.1449  0.4414  0.5724
  173SLPC   C3119528   4.595   0.757   6.656 -0.8239 -0.3843  0.7633
  173SLPC   O3219529   4.658   0.850   6.699  0.5579 -0.8615  0.6549
  173SLPC   C3219530   4.578   0.725   6.503 -0.3425  0.7066 -0.1188
  173SLPC   H2X19531   4.475   0.686   6.484  0.0810  0.8130 -3.0495
  173SLPC   H2Y19532   4.636   0.631   6.490  0.2692  1.0286  0.2422
  173SLPC   C2319533   4.493   0.247   6.792 -0.4994 -0.4831  1.0827
  173SLPC   H3R19534   4.475   0.138   6.783  0.2652 -0.4278 -1.9495
  173SLPC   H3S19535   4.576   0.263   6.865 -0.9929  0.5521  1.4367
  173SLPC   C2419536   4.526   0.311   6.653  0.8832 -0.6552  0.2349
  173SLPC   H4R19537   4.606   0.255   6.600  0.3733 -0.3651 -0.8854
  173SLPC   H4S19538   4.565   0.415   6.659  0.1334 -0.3616  0.1776
  173SLPC   C2519539   4.408   0.305   6.550 -0.6422 -0.0177  0.2204
  173SLPC   H5R19540   4.311   0.330   6.597 -0.6543  2.3491 -0.8888
  173SLPC   H5S19541   4.411   0.198   6.521 -1.6887  0.5110 -2.0498
  173SLPC   C2619542   4.446   0.383   6.423 -0.2129 -0.1027 -0.5738
  173SLPC   H6R19543   4.530   0.342   6.363 -1.2582 -1.2967 -1.2441
  173SLPC   H6S19544   4.474   0.481   6.469  2.6384 -1.2499  0.3690
  173SLPC   C2719545   4.337   0.405   6.319  0.0283  0.2241 -0.4436
  173SLPC   H7R19546   4.243   0.444   6.365  0.2882 -0.2601  0.5211
  173SLPC   H7S19547   4.321   0.310   6.263  0.8175  1.3829 -2.7662
  173SLPC   C2819548   4.387   0.499   6.210 -0.0072  0.7721  0.5646
  173SLPC   H8R19549   4.414   0.598   6.252  0.7343  0.6102  0.4803
  173SLPC   H8S19550   4.300   0.528   6.147 -0.2257 -0.0332  0.4804
  173SLPC   C2919551   4.500   0.453   6.117 -0.5806 -0.7240 -0.3930
  173SLPC   H9R19552   4.589   0.416   6.172 -1.5083  1.4453  2.9043
  173SLPC  C21019553   4.499   0.460   5.986 -0.1220  0.1071 -0.2390
  173SLPC  H10R19554   4.590   0.428   5.932  0.8244  1.3617  0.5489
  173SLPC  C21119555   4.393   0.500   5.896  0.5777  0.5740  0.1949
  173SLPC  H11R19556   4.311   0.551   5.952  1.9751  1.4952  1.4897
  173SLPC  H11S19557   4.343   0.405   5.869 -1.6538  2.2037 -1.8324
  173SLPC  C21219558   4.440   0.582   5.774  0.5964  0.7061  0.3553
  173SLPC  H12R19559   4.434   0.691   5.782  2.0621  0.8855 -0.6268
  173SLPC  C21319560   4.493   0.535   5.659 -0.0370 -0.2193 -0.0128
  173SLPC  H13R19561   4.536   0.609   5.589  0.0119 -1.3050 -1.1643
  173SLPC  C21419562   4.523   0.390   5.625  0.4401  0.2502 -0.0634
  173SLPC  H14R19563   4.502   0.375   5.517 -0.9635 -0.1621  0.2509
  173SLPC  H14S19564   4.450   0.321   5.671 -1.7603  2.6919  0.3783
  173SLPC  C21519565   4.666   0.344   5.658 -0.0117 -0.4821  0.1285
  173SLPC  H15R19566   4.698   0.372   5.761  2.3433 -1.3246 -0.3026
  173SLPC  H15S19567   4.724   0.404   5.585 -0.5115 -0.1337  0.0197
  173SLPC  C21619568   4.700   0.196   5.622 -0.0736 -0.1125 -0.0558
  173SLPC  H16R19569   4.687   0.169   5.515 -0.4659 -1.0652  0.2228
  173SLPC  H16S19570   4.618   0.139   5.670 -1.0985  0.9070 -0.5462
  173SLPC  C21719571   4.834   0.149   5.671 -0.3890  0.7156  0.3691
  173SLPC  H17R19572   4.844   0.153   5.781 -1.7650  0.5794  0.5223
  173SLPC  H17S19573   4.904   0.225   5.632 -0.3907  0.4822 -0.0980
  173SLPC  C21819574   4.879   0.005   5.632 -0.3913 -0.0154 -0.1454
  173SLPC  H18R19575   4.810  -0.074   5.669  0.6463 -0.6197  0.5374
  173SLPC  H18S19576   4.978  -0.023   5.673 -0.0213 -0.3694 -1.2531
  173SLPC  H18T19577   4.886  -0.002   5.521  1.3696 -0.1980 -0.0479
  173SLPC   C3319578   4.640   0.830   6.413 -0.0980 -0.0534  0.3234
  173SLPC   H3X19579   4.751   0.824   6.425  0.1913 -1.5178 -2.3543
  173SLPC   H3Y19580   4.604   0.927   6.453 -1.0604 -1.0932  2.1058
  173SLPC   C3419581   4.606   0.812   6.261 -0.0153  0.4441 -0.0033
  173SLPC   H4X19582   4.496   0.797   6.262 -0.1153  1.1198  0.4185
  173SLPC   H4Y19583   4.659   0.724   6.220 -1.5231  0.9225 -3.2323
  173SLPC   C3519584   4.649   0.936   6.183 -0.5061  0.2256 -0.0054
  173SLPC   H5X19585   4.759   0.941   6.194 -0.4047 -0.5561 -0.6048
  173SLPC   H5Y19586   4.601   1.024   6.232  2.0817  0.7939  1.7055
  173SLPC   C3619587   4.613   0.911   6.040 -0.0089 -0.0201  0.6462
  173SLPC   H6X19588   4.503   0.918   6.026  0.1230 -0.1425 -0.4971
  173SLPC   H6Y19589   4.641   0.813   5.996 -1.2691  0.3570 -1.0965
  173SLPC   C3719590   4.672   1.009   5.951  0.2010  0.3806  0.2311
  173SLPC   H7X19591   4.782   1.014   5.964  0.4818 -0.4653 -1.5137
  173SLPC   H7Y19592   4.626   1.106   5.978 -0.3921  0.8360 -2.1564
  173SLPC   C3819593   4.642   0.983   5.803  0.4879 -0.2892  0.4063
  173SLPC   H8X19594   4.691   0.890   5.766 -0.0610 -1.1079  1.6732
  173SLPC   H8Y19595   4.688   1.062   5.740 -0.7975 -0.1192 -0.3494
  173SLPC   C3919596   4.488   0.989   5.771 -0.3991 -0.1325 -0.2979
  173SLPC   H9X19597   4.450   1.091   5.791  0.6274  0.2709 -0.4041
  173SLPC   H9Y19598   4.434   0.922   5.843  1.8947  0.1637  1.8351
  173SLPC  C31019599   4.458   0.946   5.631 -0.1774 -0.2802 -0.4101
  173SLPC  H10X19600   4.502   0.845   5.618  0.3089 -0.2125  0.5661
  173SLPC  H10Y19601   4.503   1.021   5.563  0.2848  1.2418  1.4620
  173SLPC  C31119602   4.313   0.932   5.613 -0.0657  0.4571  0.2160
  173SLPC  H11X19603   4.270   1.033   5.630  1.2885  1.3293 -1.3389
  173SLPC  H11Y19604   4.281   0.853   5.685  0.0909  0.0158 -0.1939
  173SLPC  C31219605   4.253   0.874   5.474 -0.4601 -0.1506  1.0431
  173SLPC  H12X19606   4.282   0.950   5.398 -2.4047  1.2568  1.6249
  173SLPC  H12Y19607   4.143   0.864   5.468 -0.3616 -0.4581 -1.1676
  173SLPC  C31319608   4.312   0.738   5.430 -0.0241  0.1026  1.3493
  173SLPC  H13X19609   4.285   0.670   5.513 -0.5269 -0.5121  0.6989
  173SLPC  H13Y19610   4.422   0.733   5.415 -0.3325 -0.3216 -1.3654
  173SLPC  C31419611   4.245   0.680   5.299  0.6188  0.8610 -0.4504
  173SLPC  H14X19612   4.217   0.764   5.232 -2.8758 -0.6064 -1.0081
  173SLPC  H14Y19613   4.150   0.635   5.335  0.6256 -1.0416 -2.5727
  173SLPC  C31519614   4.331   0.579   5.223 -0.1889 -0.4452  0.2616
  173SLPC  H15X19615   4.409   0.644   5.178 -1.4622  0.5774 -0.5432
  173SLPC  H15Y19616   4.268   0.540   5.140 -0.5350  3.0546 -1.3007
  173SLPC  C31619617   4.392   0.466   5.302  0.3305 -0.3680 -0.4916
  173SLPC  H16X19618   4.318   0.431   5.377 -1.4087  0.6186 -1.6677
  173SLPC  H16Y19619   4.478   0.513   5.355  1.2206  0.4411 -2.5396
  173SLPC  C31719620   4.442   0.363   5.203 -0.3016  0.0665  0.1139
  173SLPC  H17X19621   4.503   0.406   5.121  0.1809 -0.3977  0.2147
  173SLPC  H17Y19622   4.355   0.309   5.159  1.2167 -3.1746  0.7369
  173SLPC  C31819623   4.533   0.253   5.273 -0.4674 -0.6846  0.2181
  173SLPC  H18X19624   4.555   0.164   5.211  0.4510  0.9500 -1.9297
  173SLPC  H18Y19625   4.476   0.221   5.363 -1.7165  2.5646  0.7412
  173SLPC  H18Z19626   4.627   0.307   5.297 -0.0470 -1.3906  0.1884
  174SLPC     N19627   1.723   3.157   7.312  0.1592 -0.3211 -0.3418
  174SLPC   C1319628   1.577   3.157   7.328  0.5030  0.1333  0.0894
  174SLPC  H13A19629   1.548   3.185   7.428 -2.1997  1.4144 -0.9516
  174SLPC  H13B19630   1.534   3.231   7.262  0.8412 -0.8344 -1.2601
  174SLPC  H13C19631   1.529   3.064   7.300 -2.3771  1.1664  1.1737
  174SLPC   C1419632   1.775   3.074   7.421  0.6833  0.8865  0.0367
  174SLPC  H14A19633   1.718   2.982   7.417  0.3311  1.0981 -3.7009
  174SLPC  H14B19634   1.881   3.057   7.414  0.7244  0.2910  1.7505
  174SLPC  H14C19635   1.761   3.128   7.514 -0.3954  1.5022 -0.4644
  174SLPC   C1519636   1.776   3.295   7.327  0.3324 -0.1739  0.0253
  174SLPC  H15A19637   1.883   3.300   7.313  0.2607 -0.3756 -0.6488
  174SLPC  H15B19638   1.725   3.359   7.257 -1.1007 -0.6422  0.6006
  174SLPC  H15C19639   1.741   3.328   7.424  1.7332 -0.0560  0.5041
  174SLPC   C1219640   1.763   3.105   7.173 -0.2355  0.2752 -0.8462
  174SLPC  H12A19641   1.869   3.092   7.181 -0.5934 -2.0408  1.1289
  174SLPC  H12B19642   1.758   3.186   7.100 -0.9974  1.0391  0.0263
  174SLPC   C1119643   1.698   2.972   7.117 -0.1671  0.1398 -0.5772
  174SLPC  H11A19644   1.747   2.959   7.019  0.6273 -2.3745  0.0834
  174SLPC  H11B19645   1.589   2.987   7.103  0.3048  2.3514 -2.2418
  174SLPC     P19646   1.730   2.717   7.164 -0.2342 -0.2137 -0.0116
  174SLPC   O1319647   1.821   2.646   7.257 -0.3146 -0.3683 -0.1955
  174SLPC   O1419648   1.592   2.667   7.162 -0.0325  0.6992 -0.5376
  174SLPC   O1219649   1.736   2.859   7.203 -0.1288 -0.2430 -0.4399
  174SLPC   O1119650   1.805   2.704   7.020 -0.1140  0.3342  0.0818
  174SLPC    C119651   1.942   2.747   7.012  1.1303  0.2276  0.3653
  174SLPC    HA19652   1.955   2.857   7.023  3.2190  0.1509 -0.9018
  174SLPC    HB19653   1.996   2.700   7.097  1.6806  0.1702 -0.0075
  174SLPC    C219654   1.996   2.683   6.876 -0.3136 -0.5608 -0.8813
  174SLPC    HS19655   2.107   2.674   6.884 -0.2802 -0.0552 -0.7348
  174SLPC   O2119656   1.950   2.768   6.764  0.5390 -0.0097  0.0384
  174SLPC   C2119657   2.029   2.771   6.658 -1.2514  0.2579 -0.9905
  174SLPC   O2219658   2.149   2.739   6.670 -0.0339 -0.0659  0.3287
  174SLPC   C2219659   1.964   2.848   6.541 -0.3397  0.3620  0.3631
  174SLPC   H2R19660   1.853   2.838   6.547 -0.2992 -3.1417 -1.8729
  174SLPC   H2S19661   1.982   2.957   6.557 -3.3434  0.9291  0.5968
  174SLPC    C319662   1.952   2.539   6.865  0.5827 -0.5855 -0.0005
  174SLPC    HX19663   1.843   2.534   6.841  0.6145  4.2714 -2.2902
  174SLPC    HY19664   1.963   2.489   6.964  1.1910  0.1409  0.3053
  174SLPC   O3119665   2.037   2.483   6.760 -0.4760  0.2062 -0.2371
  174SLPC   C3119666   2.161   2.458   6.802  0.1143  0.0244  0.7278
  174SLPC   O3219667   2.196   2.478   6.919  0.1316  0.3947  0.1858
  174SLPC   C3219668   2.255   2.402   6.695 -0.1346 -0.1263  1.0536
  174SLPC   H2X19669   2.240   2.293   6.703 -2.3531  0.1200  1.0088
  174SLPC   H2Y19670   2.359   2.427   6.722 -0.0342  2.0972 -0.9338
  174SLPC   C2319671   2.020   2.786   6.411  0.3929 -0.1391 -0.2577
  174SLPC   H3R19672   1.995   2.679   6.397  2.6688 -0.6518 -0.8885
  174SLPC   H3S19673   2.130   2.794   6.399  0.8175 -0.3360  2.8896
  174SLPC   C2419674   1.977   2.876   6.298  0.1491  0.3904  0.0980
  174SLPC   H4R19675   1.871   2.908   6.310  0.6872  1.3650  2.9579
  174SLPC   H4S19676   1.982   2.816   6.205  1.2601  0.3306  0.1853
  174SLPC   C2519677   2.058   2.999   6.286 -0.2550 -0.5952 -0.0344
  174SLPC   H5R19678   2.167   2.979   6.288 -0.3384 -0.9915  1.2402
  174SLPC   H5S19679   2.047   3.058   6.380  1.4402 -0.9315  0.4172
  174SLPC   C2619680   2.020   3.087   6.162  0.0313  0.1025 -0.0096
  174SLPC   H6R19681   1.927   3.144   6.181  0.2569  0.1845  0.9073
  174SLPC   H6S19682   1.998   3.024   6.073 -1.0257  1.6432 -0.8727
  174SLPC   C2719683   2.127   3.195   6.131 -0.4890 -0.4670  0.1298
  174SLPC   H7R19684   2.229   3.151   6.131  0.3605  1.3941 -1.0472
  174SLPC   H7S19685   2.110   3.273   6.208 -0.4036 -0.5317  0.2158
  174SLPC   C2819686   2.096   3.252   5.990 -1.0810 -0.1603 -0.6214
  174SLPC   H8R19687   2.095   3.167   5.919  2.0626 -0.3370 -0.5907
  174SLPC   H8S19688   2.191   3.307   5.968 -0.1649 -1.7351 -0.7299
  174SLPC   C2919689   1.975   3.352   5.968 -0.2247  0.0425  0.1090
  174SLPC   H9R19690   1.894   3.350   6.042 -2.2387  0.0749 -1.9986
  174SLPC  C21019691   1.935   3.396   5.845  0.7670  0.3975  0.0738
  174SLPC  H10R19692   1.854   3.471   5.844 -0.0433 -0.3841  1.9910
  174SLPC  C21119693   2.007   3.395   5.715 -0.1320 -0.2559 -0.9367
  174SLPC  H11R19694   1.961   3.322   5.645 -1.4891  1.1452 -1.5733
  174SLPC  H11S19695   2.105   3.346   5.731 -0.8096 -1.6627 -0.8672
  174SLPC  C21219696   2.020   3.528   5.650 -0.6271  0.0719 -0.0372
  174SLPC  H12R19697   2.037   3.614   5.717  0.3859  0.5066 -0.8286
  174SLPC  C21319698   1.966   3.560   5.531 -0.2081  0.1854  0.5701
  174SLPC  H13R19699   1.973   3.659   5.483 -1.9580 -0.4975 -1.2321
  174SLPC  C21419700   1.910   3.462   5.431  0.0798 -0.2742 -0.5698
  174SLPC  H14R19701   1.841   3.515   5.362 -0.8440  0.0755  0.5805
  174SLPC  H14S19702   1.833   3.397   5.477 -0.0295 -1.1959 -2.0024
  174SLPC  C21519703   2.025   3.388   5.368  0.3964 -0.0329  0.3389
  174SLPC  H15R19704   1.982   3.349   5.273 -0.4780 -2.8324  1.8027
  174SLPC  H15S19705   2.068   3.311   5.435  1.3334 -0.0128 -0.2108
  174SLPC  C21619706   2.135   3.477   5.311  0.5956 -0.8843 -0.4564
  174SLPC  H16R19707   2.203   3.524   5.386  1.6458  0.0300 -1.9326
  174SLPC  H16S19708   2.095   3.561   5.251  1.7813  0.3058  0.3607
  174SLPC  C21719709   2.230   3.395   5.230  0.7597  0.4074  0.2367
  174SLPC  H17R19710   2.178   3.313   5.176 -0.4594  2.1656 -1.3429
  174SLPC  H17S19711   2.300   3.334   5.293 -0.4293 -1.8937 -0.5483
  174SLPC  C21819712   2.302   3.474   5.125 -0.2003  0.0205 -0.4337
  174SLPC  H18R19713   2.381   3.403   5.092 -0.1515 -1.7446  3.0163
  174SLPC  H18S19714   2.364   3.557   5.167  0.6440  1.2059 -3.7423
  174SLPC  H18T19715   2.240   3.501   5.037  0.1116 -1.4159 -1.1197
  174SLPC   C3319716   2.228   2.454   6.546  0.0726  0.0939  0.0658
  174SLPC   H3X19717   2.258   2.561   6.540 -0.1521  0.1932  0.6129
  174SLPC   H3Y19718   2.119   2.447   6.527 -0.1796  0.9009  1.1188
  174SLPC   C3419719   2.305   2.365   6.449 -0.1385 -0.5694  0.5089
  174SLPC   H4X19720   2.304   2.259   6.483  0.1964 -0.8879 -0.4307
  174SLPC   H4Y19721   2.407   2.402   6.474 -0.9713 -0.0534  3.5223
  174SLPC   C3519722   2.254   2.384   6.306  1.0537 -0.5293  0.2621
  174SLPC   H5X19723   2.151   2.343   6.299  0.7134 -0.3636  3.1602
  174SLPC   H5Y19724   2.314   2.328   6.231 -1.3586 -0.0174 -2.1960
  174SLPC   C3619725   2.259   2.527   6.262 -0.7636 -0.0084  0.1865
  174SLPC   H6X19726   2.361   2.559   6.293 -0.7480  0.7983 -0.6607
  174SLPC   H6Y19727   2.193   2.603   6.309 -0.8505  2.9266 -4.1198
  174SLPC   C3719728   2.224   2.553   6.109 -0.0392  0.3000  0.6740
  174SLPC   H7X19729   2.120   2.521   6.090 -0.4401  1.7503  0.2723
  174SLPC   H7Y19730   2.298   2.498   6.047 -1.6849 -0.9998 -0.1863
  174SLPC   C3819731   2.236   2.704   6.068  0.4150  0.2668 -0.1506
  174SLPC   H8X19732   2.328   2.750   6.110  0.1362 -2.3246  3.8310
  174SLPC   H8Y19733   2.155   2.753   6.125  1.8093  1.7932  0.6042
  174SLPC   C3919734   2.238   2.719   5.904  0.0381 -0.0049  0.2656
  174SLPC   H9X19735   2.161   2.648   5.865  0.2185 -0.2215  0.3033
  174SLPC   H9Y19736   2.336   2.693   5.859 -0.7548 -0.0493 -1.5652
  174SLPC  C31019737   2.205   2.859   5.860 -0.7847 -0.2481  0.3485
  174SLPC  H10X19738   2.277   2.925   5.913  0.3230  0.6156 -2.0842
  174SLPC  H10Y19739   2.105   2.900   5.883 -0.5681  0.3444  0.2558
  174SLPC  C31119740   2.225   2.882   5.704  0.0201  0.2109  0.0482
  174SLPC  H11X19741   2.171   2.796   5.659  1.4094 -0.3439 -0.6205
  174SLPC  H11Y19742   2.334   2.882   5.682  0.6823  1.1989  2.8587
  174SLPC  C31219743   2.172   3.018   5.650 -0.4687 -0.0422 -0.7783
  174SLPC  H12X19744   2.213   3.100   5.713 -0.5812 -1.6743  1.5584
  174SLPC  H12Y19745   2.065   3.024   5.679 -0.2344 -0.6397  0.3013
  174SLPC  C31319746   2.212   3.044   5.507 -0.4467  0.4335 -0.2643
  174SLPC  H13X19747   2.323   3.048   5.514 -0.5197  0.6985  1.0877
  174SLPC  H13Y19748   2.200   3.148   5.467  1.7064  0.2719 -1.4569
  174SLPC  C31419749   2.153   2.959   5.395  0.2027  0.7214  0.2487
  174SLPC  H14X19750   2.047   2.935   5.417  0.3786 -1.1794 -0.7646
  174SLPC  H14Y19751   2.206   2.863   5.416 -0.8749 -0.1547 -0.8542
  174SLPC  C31519752   2.170   3.007   5.253  0.2518 -0.3906  0.1141
  174SLPC  H15X19753   2.267   3.061   5.244  0.2557 -0.6547 -1.9550
  174SLPC  H15Y19754   2.089   3.081   5.244 -1.0980 -1.9918 -1.8039
  174SLPC  C31619755   2.161   2.884   5.151 -0.1234 -0.5240  0.4162
  174SLPC  H16X19756   2.060   2.841   5.171 -0.8554  1.2663  0.7005
  174SLPC  H16Y19757   2.242   2.821   5.194  1.1693 -1.4967 -3.0940
  174SLPC  C31719758   2.178   2.919   5.005 -0.0806  0.2267  0.3516
  174SLPC  H17X19759   2.095   2.991   4.987  0.0102  0.2164 -0.1318
  174SLPC  H17Y19760   2.172   2.824   4.946  1.6948  0.5793 -0.4460
  174SLPC  C31819761   2.310   2.995   4.978 -0.8409  0.0191  0.2261
  174SLPC  H18X19762   2.304   3.092   5.032 -0.8450  1.7528 -2.6807
  174SLPC  H18Y19763   2.337   3.012   4.872  0.6208  0.0801  0.5780
  174SLPC  H18Z19764   2.392   2.934   5.021 -1.7815 -0.3722  1.5339
  175SLPC     N19765   5.294   4.713   7.447  0.2436  0.1042  0.2377
  175SLPC   C1319766   5.385   4.596   7.423 -0.3794  0.5739  0.2519
  175SLPC  H13A19767   5.490   4.623   7.414 -0.8648  2.3556 -0.6842
  175SLPC  H13B19768   5.369   4.522   7.499  1.1895  1.1527  1.2015
  175SLPC  H13C19769   5.369   4.547   7.328  0.5436 -0.0994  0.4348
  175SLPC   C1419770   5.332   4.818   7.344  0.0454  0.0640 -0.3698
  175SLPC  H14A19771   5.366   4.770   7.254  1.4722  0.4806 -0.0814
  175SLPC  H14B19772   5.242   4.873   7.319  0.6045  1.8281  1.2059
  175SLPC  H14C19773   5.406   4.891   7.373 -0.6729  0.8140 -0.3728
  175SLPC   C1519774   5.324   4.769   7.579  0.1680  0.1082 -0.3097
  175SLPC  H15A19775   5.429   4.775   7.605 -0.5525  0.4834  3.0745
  175SLPC  H15B19776   5.279   4.867   7.586 -0.4532 -0.0282 -2.0287
  175SLPC  H15C19777   5.287   4.712   7.663 -2.1469 -0.5331 -1.6922
  175SLPC   C1219778   5.152   4.672   7.445  0.3425  0.1284 -1.0059
  175SLPC  H12A19779   5.144   4.597   7.522 -0.6928 -0.3757 -1.5825
  175SLPC  H12B19780   5.130   4.621   7.353 -0.7961 -0.5211 -0.3888
  175SLPC   C1119781   5.040   4.776   7.459 -0.3808 -1.0957  0.1408
  175SLPC  H11A19782   5.050   4.822   7.560 -0.6238  2.0528 -1.1428
  175SLPC  H11B19783   4.938   4.733   7.461 -1.3542  1.1093  1.1848
  175SLPC     P19784   4.983   4.864   7.229  0.1297 -0.2997  0.0379
  175SLPC   O1319785   4.946   4.723   7.206  0.2530  0.5921  0.6896
  175SLPC   O1419786   4.882   4.970   7.237 -0.4359 -0.6186  0.2959
  175SLPC   O1219787   5.057   4.880   7.359 -0.4479  0.6569  0.0281
  175SLPC   O1119788   5.092   4.908   7.122 -0.8184  0.3864  0.2472
  175SLPC    C119789   5.102   5.050   7.092 -0.4533 -1.1051  0.6527
  175SLPC    HA19790   5.047   5.112   7.166 -0.3680 -1.7531  1.2676
  175SLPC    HB19791   5.210   5.073   7.101 -0.9541  1.6584  0.4524
  175SLPC    C219792   5.033   5.077   6.957  0.0526  0.0669 -0.4468
  175SLPC    HS19793   4.926   5.046   6.956 -0.2678  1.1390 -0.4329
  175SLPC   O2119794   5.111   5.010   6.857 -0.5481 -0.4275 -0.5504
  175SLPC   C2119795   5.058   4.887   6.824 -0.0446 -0.0452  0.0359
  175SLPC   O2219796   4.958   4.835   6.876  0.3039 -0.7617  0.0221
  175SLPC   C2219797   5.139   4.821   6.715  0.8462 -0.4716  0.0537
  175SLPC   H2R19798   5.245   4.852   6.728  0.4454  0.6485  0.7520
  175SLPC   H2S19799   5.131   4.710   6.725  0.1428 -0.3422  0.9908
  175SLPC    C319800   5.028   5.226   6.924 -0.2653  0.6140  0.1961
  175SLPC    HX19801   5.134   5.261   6.930 -0.1919  0.1842  2.5326
  175SLPC    HY19802   4.975   5.278   7.007 -2.5392 -0.6943 -0.3620
  175SLPC   O3119803   4.971   5.250   6.787  0.1042  0.2437 -0.4603
  175SLPC   C3119804   4.841   5.303   6.785 -0.6826 -0.4646 -0.3708
  175SLPC   O3219805   4.788   5.348   6.881 -0.7548 -0.6227 -0.0363
  175SLPC   C3219806   4.792   5.298   6.641  0.4053 -0.4224  0.6554
  175SLPC   H2X19807   4.784   5.406   6.614 -0.0146 -0.8571 -1.0499
  175SLPC   H2Y19808   4.683   5.276   6.642  0.3450 -0.1249  0.7563
  175SLPC   C2319809   5.101   4.860   6.573  0.3111  0.2167 -0.0457
  175SLPC   H3R19810   5.125   4.967   6.552  0.7396 -0.4527 -3.6295
  175SLPC   H3S19811   4.991   4.848   6.563 -0.2864  3.0603  1.8709
  175SLPC   C2419812   5.171   4.764   6.472  0.0362  0.1236  0.2024
  175SLPC   H4R19813   5.166   4.663   6.518  0.3498  0.6530  1.4521
  175SLPC   H4S19814   5.274   4.804   6.462  0.9913 -1.8693  1.3894
  175SLPC   C2519815   5.096   4.768   6.336 -0.3065 -0.7422  0.5783
  175SLPC   H5R19816   5.093   4.874   6.304 -0.0210 -0.9843 -0.2775
  175SLPC   H5S19817   4.993   4.726   6.337 -0.2128 -0.9902  0.2966
  175SLPC   C2619818   5.169   4.692   6.220 -0.4173 -0.1259 -0.1833
  175SLPC   H6R19819   5.169   4.583   6.243  2.3753 -0.7931 -2.6787
  175SLPC   H6S19820   5.275   4.721   6.211  0.3164 -2.2694  0.8241
  175SLPC   C2719821   5.101   4.714   6.084  0.1620 -0.1835 -0.0070
  175SLPC   H7R19822   5.117   4.818   6.048 -3.2624  0.4781  0.0052
  175SLPC   H7S19823   4.992   4.695   6.094 -0.0290  1.3072  1.1912
  175SLPC   C2819824   5.169   4.630   5.973 -0.4202  0.1254 -0.0243
  175SLPC   H8R19825   5.157   4.525   6.009  1.9496 -0.3896 -0.5883
  175SLPC   H8S19826   5.278   4.647   5.974  0.1395 -2.7623 -0.8136
  175SLPC   C2919827   5.118   4.655   5.832 -0.6740 -0.2584 -0.4461
  175SLPC   H9R19828   5.027   4.717   5.830 -1.0975 -0.6235  2.4921
  175SLPC  C21019829   5.196   4.639   5.717 -0.3248  0.6361  0.0015
  175SLPC  H10R19830   5.134   4.661   5.629 -0.3294 -1.1244 -0.4631
  175SLPC  C21119831   5.327   4.566   5.702 -0.8224 -1.0007 -0.4587
  175SLPC  H11R19832   5.356   4.534   5.804 -2.2384  0.1985  0.3552
  175SLPC  H11S19833   5.405   4.631   5.658 -1.4664 -0.5013 -0.8827
  175SLPC  C21219834   5.322   4.461   5.602 -0.1781  0.1039  0.1175
  175SLPC  H12R19835   5.322   4.361   5.650 -0.5455 -0.4606 -1.0236
  175SLPC  C21319836   5.311   4.460   5.470 -0.5261 -0.3643 -0.1373
  175SLPC  H13R19837   5.318   4.368   5.411  1.0646 -0.1979 -0.2608
  175SLPC  C21419838   5.313   4.588   5.389  0.5308  0.0848 -0.7587
  175SLPC  H14R19839   5.396   4.595   5.316  1.4499  0.6555  0.3153
  175SLPC  H14S19840   5.317   4.680   5.451 -1.1370 -0.4955  0.2756
  175SLPC  C21519841   5.183   4.587   5.306 -0.1415 -0.0035 -0.3996
  175SLPC  H15R19842   5.162   4.689   5.268  0.1505  0.3365  0.3305
  175SLPC  H15S19843   5.089   4.565   5.362 -1.1409 -0.7342 -2.2679
  175SLPC  C21619844   5.174   4.486   5.189 -0.5138 -0.0922  0.1246
  175SLPC  H16R19845   5.149   4.384   5.225 -0.7953  0.3340  1.1678
  175SLPC  H16S19846   5.272   4.471   5.137  0.2894 -0.3245  1.6432
  175SLPC  C21719847   5.059   4.510   5.090 -0.4308 -0.6262 -0.6267
  175SLPC  H17R19848   5.075   4.611   5.046  0.6545  0.3714  1.8492
  175SLPC  H17S19849   4.962   4.516   5.143 -0.2291  0.7312 -0.3668
  175SLPC  C21819850   5.049   4.409   4.971 -0.1505  0.5277  0.4824
  175SLPC  H18R19851   4.949   4.429   4.926  0.5716  1.2344 -0.8990
  175SLPC  H18S19852   5.056   4.301   4.996 -0.3100 -0.0553 -1.7397
  175SLPC  H18T19853   5.129   4.429   4.896  0.8553 -0.5853  1.2381
  175SLPC   C3319854   4.865   5.223   6.537 -0.0369 -0.2181 -0.1065
  175SLPC   H3X19855   4.863   5.113   6.556 -1.5570 -0.4470 -1.3798
  175SLPC   H3Y19856   4.968   5.265   6.528  0.0423 -0.5225 -0.7183
  175SLPC   C3419857   4.801   5.251   6.397  0.3252  0.6959 -0.6068
  175SLPC   H4X19858   4.797   5.361   6.377 -1.3660  0.5140 -1.4867
  175SLPC   H4Y19859   4.693   5.222   6.399  0.6627 -0.6364 -1.0822
  175SLPC   C3519860   4.871   5.160   6.293 -0.4859 -0.1774  0.6216
  175SLPC   H5X19861   4.886   5.060   6.339  0.5014  0.2294  1.2148
  175SLPC   H5Y19862   4.974   5.199   6.277 -1.2890  1.8220  0.0218
  175SLPC   C3619863   4.799   5.166   6.163 -1.0222  0.1857  0.5797
  175SLPC   H6X19864   4.776   5.267   6.122 -1.4822  0.8826  2.4402
  175SLPC   H6Y19865   4.699   5.118   6.177 -0.5061 -0.8582  0.8051
  175SLPC   C3719866   4.855   5.081   6.052  0.3289 -0.0833  0.3052
  175SLPC   H7X19867   4.781   5.031   5.987  0.1997  0.7536 -0.2020
  175SLPC   H7Y19868   4.925   5.004   6.090  0.7761  0.7155  1.1522
  175SLPC   C3819869   4.946   5.162   5.958  0.8778  0.3563 -0.2809
  175SLPC   H8X19870   5.022   5.197   6.030 -1.7480 -1.0750  3.5103
  175SLPC   H8Y19871   4.882   5.248   5.926 -1.5017 -0.1052  2.7531
  175SLPC   C3919872   5.010   5.077   5.846  0.1160 -0.1277  0.1089
  175SLPC   H9X19873   4.938   5.013   5.790  0.5488 -0.0784 -0.5144
  175SLPC   H9Y19874   5.082   5.008   5.895  1.3511  3.6776  4.2888
  175SLPC  C31019875   5.089   5.153   5.741 -0.2680  0.2080 -0.0977
  175SLPC  H10X19876   5.183   5.191   5.787 -1.3155 -0.2173  2.5746
  175SLPC  H10Y19877   5.020   5.233   5.707 -0.7589  0.1729  0.7759
  175SLPC  C31119878   5.139   5.076   5.617 -0.4700 -0.2082 -0.4738
  175SLPC  H11X19879   5.195   4.988   5.655 -0.1803 -0.4339 -1.3932
  175SLPC  H11Y19880   5.202   5.147   5.560  0.8434 -1.5760 -0.7986
  175SLPC  C31219881   5.030   5.025   5.525 -0.1501  0.1878  0.4096
  175SLPC  H12X19882   4.991   5.121   5.485  0.7183  0.3748 -0.0072
  175SLPC  H12Y19883   4.949   4.965   5.572 -0.9110  0.4162 -0.5625
  175SLPC  C31319884   5.071   4.939   5.406  0.3795 -0.1272  0.2235
  175SLPC  H13X19885   5.137   4.851   5.420 -1.4618 -1.6365 -0.1233
  175SLPC  H13Y19886   5.128   5.016   5.350  1.7048  0.5148  2.3468
  175SLPC  C31419887   4.955   4.879   5.318 -0.4373 -0.2369  0.1500
  175SLPC  H14X19888   4.993   4.829   5.227 -1.0237 -0.7588  0.1860
  175SLPC  H14Y19889   4.898   4.966   5.277  0.1078  0.2110  0.3357
  175SLPC  C31519890   4.871   4.771   5.386 -0.0307 -0.6101 -1.1756
  175SLPC  H15X19891   4.834   4.801   5.486  0.4729 -0.2805 -1.0845
  175SLPC  H15Y19892   4.949   4.693   5.400  1.1618  0.7940  0.5179
  175SLPC  C31619893   4.761   4.712   5.307  0.0827  0.4687 -0.1574
  175SLPC  H16X19894   4.799   4.673   5.211  0.1435  1.0855 -0.3825
  175SLPC  H16Y19895   4.684   4.789   5.285 -0.1554  0.2538 -0.0976
  175SLPC  C31719896   4.708   4.581   5.372 -0.6246  0.3094  0.0866
  175SLPC  H17X19897   4.667   4.625   5.466  1.4719  0.6014  0.9356
  175SLPC  H17Y19898   4.794   4.519   5.405 -0.6748 -0.4107 -1.0857
  175SLPC  C31819899   4.603   4.511   5.289 -0.1727 -0.1277  0.2808
  175SLPC  H18X19900   4.665   4.462   5.211  0.5679  1.8914 -0.4565
  175SLPC  H18Y19901   4.517   4.566   5.245  0.7946 -0.5703 -2.3753
  175SLPC  H18Z19902   4.566   4.439   5.365 -2.1596  1.2251  0.6793
  176SLPC     N19903   6.520   6.064   7.436  0.0242 -0.2398 -0.4443
  176SLPC   C1319904   6.656   6.144   7.417  0.3650 -0.2289 -0.7553
  176SLPC  H13A19905   6.694   6.104   7.324 -1.5068 -0.9426 -1.2810
  176SLPC  H13B19906   6.652   6.252   7.414  2.0370 -0.1758 -1.6868
  176SLPC  H13C19907   6.725   6.126   7.498 -0.9317  1.7763  0.9261
  176SLPC   C1419908   6.456   6.110   7.564 -0.5539  0.3954 -0.1110
  176SLPC  H14A19909   6.392   6.197   7.553 -1.0856 -0.1553 -1.7106
  176SLPC  H14B19910   6.389   6.029   7.588  0.7083 -0.2699  1.3069
  176SLPC  H14C19911   6.519   6.111   7.652  0.8875  0.3357 -1.1108
  176SLPC   C1519912   6.554   5.921   7.445  0.3703 -0.0912  0.4056
  176SLPC  H15A19913   6.590   5.896   7.544  1.4588 -1.7649 -0.3526
  176SLPC  H15B19914   6.466   5.863   7.423  0.1771  0.3900 -0.1013
  176SLPC  H15C19915   6.623   5.888   7.368 -1.4902 -0.7585 -1.0386
  176SLPC   C1219916   6.428   6.088   7.317  0.1331 -1.1770 -0.2751
  176SLPC  H12A19917   6.336   6.034   7.333 -0.4880  0.1586  0.8174
  176SLPC  H12B19918   6.483   6.035   7.240 -0.3002 -0.2007 -1.2823
  176SLPC   C1119919   6.389   6.239   7.284  0.5456  0.5852 -0.0945
  176SLPC  H11A19920   6.351   6.227   7.181 -1.2554 -0.3481  0.6333
  176SLPC  H11B19921   6.482   6.300   7.282  1.6810 -0.8576  2.5259
  176SLPC     P19922   6.142   6.250   7.377  0.1374 -0.3763 -0.3842
  176SLPC   O1319923   6.138   6.103   7.353 -0.0252  0.0920 -0.2152
  176SLPC   O1419924   6.084   6.307   7.504 -0.7784 -0.3227  0.1461
  176SLPC   O1219925   6.295   6.299   7.375  0.5867 -0.6326  0.0022
  176SLPC   O1119926   6.077   6.321   7.255  0.2599 -0.4341 -0.2171
  176SLPC    C119927   5.996   6.436   7.266  0.3701 -0.3833 -0.1724
  176SLPC    HA19928   6.043   6.511   7.334 -2.8666 -0.7982  2.7612
  176SLPC    HB19929   5.989   6.475   7.162 -0.1997  2.2744  0.7901
  176SLPC    C219930   5.847   6.393   7.307 -0.3459  0.4172 -0.3079
  176SLPC    HS19931   5.854   6.351   7.409  1.3462 -1.9187 -1.2850
  176SLPC   O2119932   5.803   6.288   7.217  0.4410  0.5906  0.0514
  176SLPC   C2119933   5.694   6.214   7.228 -0.3786 -0.0154 -0.8297
  176SLPC   O2219934   5.597   6.243   7.295  0.0867  0.1179 -0.5575
  176SLPC   C2219935   5.703   6.090   7.138 -0.8800 -0.5249  0.1515
  176SLPC   H2R19936   5.809   6.086   7.104 -0.8190  3.0752 -0.4220
  176SLPC   H2S19937   5.664   6.002   7.194 -0.8034  0.1718  1.3138
  176SLPC    C319938   5.757   6.512   7.313  0.2828 -0.7605  0.0477
  176SLPC    HX19939   5.784   6.567   7.405  2.6305  0.6915 -1.4032
  176SLPC    HY19940   5.651   6.479   7.326 -0.3924  0.1154 -2.5146
  176SLPC   O3119941   5.771   6.606   7.204  0.1224 -0.2142 -0.5608
  176SLPC   C3119942   5.684   6.590   7.103 -0.4209  0.7146 -0.0217
  176SLPC   O3219943   5.588   6.513   7.110 -0.0131 -1.1524  0.6037
  176SLPC   C3219944   5.724   6.689   6.986 -0.1316 -0.6276 -0.2987
  176SLPC   H2X19945   5.833   6.677   6.970  0.4379  1.4198  1.4375
  176SLPC   H2Y19946   5.695   6.788   7.028  0.6628  0.1519 -1.5226
  176SLPC   C2319947   5.623   6.102   7.003 -0.5979 -0.1897  0.4423
  176SLPC   H3R19948   5.669   6.032   6.931  0.4607  0.0833  0.8431
  176SLPC   H3S19949   5.649   6.203   6.965  2.5739 -1.2149 -0.3762
  176SLPC   C2419950   5.476   6.080   7.024  0.1641  0.1402 -0.1726
  176SLPC   H4R19951   5.430   6.136   7.109 -2.4188 -1.9552 -0.0637
  176SLPC   H4S19952   5.469   5.977   7.065  2.8372 -1.2615 -2.8431
  176SLPC   C2519953   5.391   6.091   6.896  1.1082 -0.6663  0.1775
  176SLPC   H5R19954   5.395   6.194   6.855  2.2035  0.0831  2.0285
  176SLPC   H5S19955   5.287   6.068   6.929  1.5081 -0.4825  1.6411
  176SLPC   C2619956   5.431   6.001   6.780 -0.5786  0.0917  0.1291
  176SLPC   H6R19957   5.459   5.895   6.802  0.8060  0.4276  0.0383
  176SLPC   H6S19958   5.515   6.051   6.728 -0.0748  0.4388  1.2426
  176SLPC   C2719959   5.320   5.995   6.675  0.2443 -0.1752  0.2430
  176SLPC   H7R19960   5.294   6.102   6.661  1.6991  0.2947  0.9272
  176SLPC   H7S19961   5.230   5.943   6.715 -0.1236  0.4254  0.2054
  176SLPC   C2819962   5.347   5.930   6.534 -0.0719  0.2138  0.6587
  176SLPC   H8R19963   5.409   5.841   6.555  3.1554  1.9263 -0.8730
  176SLPC   H8S19964   5.416   5.994   6.475  1.1200 -0.5938  1.1432
  176SLPC   C2919965   5.215   5.900   6.468  0.7206 -0.5480 -0.3722
  176SLPC   H9R19966   5.138   5.857   6.533  1.4503  1.1539  1.7193
  176SLPC  C21019967   5.190   5.899   6.338 -0.1031 -0.7496  0.7081
  176SLPC  H10R19968   5.089   5.878   6.300 -0.0883  1.3232 -0.6653
  176SLPC  C21119969   5.280   5.953   6.227  0.1339 -0.1547  0.3051
  176SLPC  H11R19970   5.381   5.972   6.270  0.6291  3.4284 -2.0272
  176SLPC  H11S19971   5.246   6.050   6.185  1.3187  0.0971 -0.0980
  176SLPC  C21219972   5.298   5.864   6.108 -0.1227 -0.0827  0.0474
  176SLPC  H12R19973   5.278   5.756   6.118  3.0355 -0.7946 -0.0225
  176SLPC  C21319974   5.333   5.900   5.982 -0.3337 -0.0135 -0.2374
  176SLPC  H13R19975   5.334   5.822   5.904  0.5546 -1.5556  1.2208
  176SLPC  C21419976   5.375   6.040   5.922  0.0282  0.6758 -0.5727
  176SLPC  H14R19977   5.484   6.041   5.898  0.3538  0.8663  0.8207
  176SLPC  H14S19978   5.352   6.125   5.990 -0.2388  0.9704 -1.0293
  176SLPC  C21519979   5.296   6.085   5.800  0.1456  0.1754  0.0871
  176SLPC  H15R19980   5.293   6.196   5.793 -0.5494  0.2368  1.0765
  176SLPC  H15S19981   5.191   6.050   5.808 -0.0929  1.0473  0.9906
  176SLPC  C21619982   5.355   6.043   5.667  0.2880  0.1538  0.6614
  176SLPC  H16R19983   5.393   5.940   5.677 -1.6374 -0.6365  0.3593
  176SLPC  H16S19984   5.435   6.116   5.643 -0.9017  1.0244 -0.8078
  176SLPC  C21719985   5.258   6.059   5.549 -1.1289  0.9223  0.3227
  176SLPC  H17R19986   5.214   6.161   5.548 -1.9740  0.5703 -0.5309
  176SLPC  H17S19987   5.167   6.007   5.584 -0.3880  0.2670  1.3015
  176SLPC  C21819988   5.309   6.014   5.407 -0.2214 -0.2136  0.9488
  176SLPC  H18R19989   5.318   5.905   5.386 -1.0071 -0.0015 -0.6428
  176SLPC  H18S19990   5.411   6.052   5.387 -0.9362  1.8548  1.0490
  176SLPC  H18T19991   5.252   6.070   5.330  0.8798  0.1637  0.3780
  176SLPC   C3319992   5.652   6.659   6.852  0.8374  0.5112  0.5644
  176SLPC   H3X19993   5.649   6.760   6.805 -0.1651  0.7965  1.2143
  176SLPC   H3Y19994   5.547   6.624   6.861  0.9134  0.0274 -0.3772
  176SLPC   C3419995   5.730   6.585   6.740 -0.5623 -0.2533 -0.2250
  176SLPC   H4X19996   5.825   6.629   6.703 -0.1834 -1.6870 -1.0590
  176SLPC   H4Y19997   5.670   6.571   6.648  0.6521 -2.8751 -0.7312
  176SLPC   C3519998   5.759   6.438   6.778  0.1933 -0.4688 -0.0733
  176SLPC   H5X19999   5.662   6.391   6.804 -0.8534  1.6093 -0.0298
  176SLPC   H5Y20000   5.831   6.423   6.861 -1.9710 -0.5440  1.8840
  176SLPC   C3620001   5.817   6.374   6.654 -0.2367 -0.0823 -0.1793
  176SLPC   H6X20002   5.911   6.331   6.694 -0.6513 -0.7218  0.1194
  176SLPC   H6Y20003   5.850   6.452   6.582 -0.6346 -0.9525 -1.3309
  176SLPC   C3720004   5.713   6.281   6.583  0.1921  0.5922 -0.6132
  176SLPC   H7X20005   5.610   6.320   6.597 -0.6300 -1.5391 -0.1942
  176SLPC   H7Y20006   5.704   6.182   6.634 -1.3610  0.1827 -1.6031
  176SLPC   C3820007   5.733   6.260   6.432  0.0510  0.3490 -0.6540
  176SLPC   H8X20008   5.684   6.170   6.390  1.4749 -0.4145 -0.7735
  176SLPC   H8Y20009   5.838   6.229   6.410  0.0251 -1.0208  0.9836
  176SLPC   C3920010   5.699   6.388   6.352  0.4322 -0.9319 -0.0723
  176SLPC   H9X20011   5.760   6.473   6.388  0.4572 -1.0148  0.0814
  176SLPC   H9Y20012   5.600   6.432   6.380  0.4564 -0.8348 -0.1355
  176SLPC  C31020013   5.737   6.372   6.205  0.1853 -0.3675 -0.0525
  176SLPC  H10X20014   5.699   6.276   6.163  0.6393 -1.1548  1.2751
  176SLPC  H10Y20015   5.845   6.380   6.180  0.0811  3.6320  0.0945
  176SLPC  C31120016   5.683   6.480   6.105 -0.3161 -0.5078 -0.1670
  176SLPC  H11X20017   5.720   6.585   6.109  2.2813 -1.3860  0.1136
  176SLPC  H11Y20018   5.576   6.491   6.134  0.0286  0.5717  0.8033
  176SLPC  C31220019   5.699   6.430   5.963  0.2879 -0.0303  0.3161
  176SLPC  H12X20020   5.664   6.327   5.942  1.8186 -0.1184 -2.1977
  176SLPC  H12Y20021   5.810   6.427   5.955  0.5201  0.4330  2.6198
  176SLPC  C31320022   5.624   6.514   5.858  0.0547  1.0637  0.5243
  176SLPC  H13X20023   5.676   6.607   5.827 -0.1777  0.1382 -3.0718
  176SLPC  H13Y20024   5.518   6.537   5.882 -0.2331  2.3336 -1.7428
  176SLPC  C31420025   5.616   6.444   5.719  0.0998  0.2415  0.3088
  176SLPC  H14X20026   5.601   6.334   5.725  2.8414 -0.1687  1.0400
  176SLPC  H14Y20027   5.707   6.448   5.656  1.0237 -2.1275  1.3744
  176SLPC  C31520028   5.497   6.485   5.639  0.2956 -0.8158  0.0360
  176SLPC  H15X20029   5.405   6.490   5.701  1.0620 -0.6736  1.1913
  176SLPC  H15Y20030   5.474   6.415   5.555 -2.4745 -1.0410  0.8840
  176SLPC  C31620031   5.524   6.619   5.571  0.4490  1.2163 -0.1536
  176SLPC  H16X20032   5.606   6.606   5.497 -0.7184  0.6522 -1.3983
  176SLPC  H16Y20033   5.552   6.696   5.646 -0.4153  1.0754  0.3220
  176SLPC  C31720034   5.401   6.686   5.510 -0.0727 -0.9164  0.1921
  176SLPC  H17X20035   5.340   6.714   5.599 -0.9407 -1.7424 -0.1343
  176SLPC  H17Y20036   5.344   6.617   5.445  0.0675 -1.0011  0.1596
  176SLPC  C31820037   5.438   6.822   5.443 -0.5034  0.1039 -0.0009
  176SLPC  H18X20038   5.482   6.894   5.515  3.1384 -0.7604 -1.1283
  176SLPC  H18Y20039   5.345   6.868   5.403 -0.8507  1.0765  1.8212
  176SLPC  H18Z20040   5.516   6.814   5.364  0.6119  0.0791  1.0754
  177SLPC     N20041   5.344   5.515   7.966 -0.4307  0.7163 -0.2754
  177SLPC   C1320042   5.442   5.630   7.942 -0.0440  0.0735 -0.0216
  177SLPC  H13A20043   5.540   5.622   7.985  2.0261 -0.2985 -4.2551
  177SLPC  H13B20044   5.446   5.629   7.834 -0.7266  1.0277 -0.0662
  177SLPC  H13C20045   5.398   5.726   7.962 -0.8310 -0.5112  1.1807
  177SLPC   C1420046   5.297   5.541   8.102  0.2108 -0.3962  0.6314
  177SLPC  H14A20047   5.203   5.500   8.135  0.1985 -1.3857 -0.5667
  177SLPC  H14B20048   5.372   5.514   8.175 -0.7655 -1.2523  1.3376
  177SLPC  H14C20049   5.283   5.647   8.117  0.2196 -0.1014 -1.1435
  177SLPC   C1520050   5.413   5.378   7.962 -0.5342 -0.8183 -0.0609
  177SLPC  H15A20051   5.498   5.370   8.027 -0.9527 -0.1936  0.5853
  177SLPC  H15B20052   5.340   5.303   7.987  1.2128 -2.2937  0.8175
  177SLPC  H15C20053   5.441   5.365   7.858  1.4639 -0.8855  0.4466
  177SLPC   C1220054   5.230   5.517   7.875  0.4382 -0.1810 -0.4926
  177SLPC  H12A20055   5.161   5.600   7.883 -0.9585 -1.4046  1.0595
  177SLPC  H12B20056   5.167   5.439   7.916  0.9557  0.4649  1.6871
  177SLPC   C1120057   5.265   5.476   7.733  0.1565 -0.3072  0.0300
  177SLPC  H11A20058   5.170   5.462   7.678  0.3509 -2.2608  0.1124
  177SLPC  H11B20059   5.314   5.377   7.745 -1.3147 -0.7882  2.7635
  177SLPC     P20060   5.452   5.518   7.564 -0.2989  0.2642 -0.0413
  177SLPC   O1320061   5.566   5.608   7.563 -0.3857 -0.2224 -0.9369
  177SLPC   O1420062   5.484   5.375   7.584 -0.1597  0.1649 -0.2950
  177SLPC   O1220063   5.356   5.573   7.671  0.3655 -0.1020 -0.4212
  177SLPC   O1120064   5.364   5.537   7.428 -0.0907  0.2703  0.2989
  177SLPC    C120065   5.319   5.667   7.402  0.2452 -0.4977  0.0124
  177SLPC    HA20066   5.208   5.659   7.403  0.0224  1.8719  0.4801
  177SLPC    HB20067   5.359   5.741   7.475 -0.5221 -0.4141  0.3701
  177SLPC    C220068   5.354   5.712   7.254 -0.4038 -0.2928  0.0105
  177SLPC    HS20069   5.344   5.822   7.241  2.8867  0.0367 -0.5550
  177SLPC   O2120070   5.285   5.628   7.162  0.1414  0.5186  0.7037
  177SLPC   C2120071   5.165   5.664   7.134  0.8483 -0.2751  0.2700
  177SLPC   O2220072   5.106   5.764   7.180 -0.3060  0.3124  0.3395
  177SLPC   C2220073   5.094   5.558   7.055  0.1794 -0.0061 -0.1484
  177SLPC   H2R20074   5.156   5.472   7.023 -0.8703 -1.1908  0.9222
  177SLPC   H2S20075   5.023   5.513   7.128  2.0291 -0.6988  1.3222
  177SLPC    C320076   5.506   5.682   7.250  0.7890  0.0852 -0.8691
  177SLPC    HX20077   5.520   5.572   7.258 -1.2717 -0.2124 -0.7369
  177SLPC    HY20078   5.561   5.730   7.334  0.6997 -1.3808  0.0553
  177SLPC   O3120079   5.568   5.738   7.129 -0.0300  0.2699 -0.7921
  177SLPC   C3120080   5.592   5.644   7.035 -0.7029  0.5807  0.3960
  177SLPC   O3220081   5.561   5.526   7.038  0.0553  0.3584 -0.6708
  177SLPC   C3220082   5.668   5.713   6.921 -0.5123 -0.3159 -0.1189
  177SLPC   H2X20083   5.768   5.730   6.966 -0.9139  1.2732  0.2407
  177SLPC   H2Y20084   5.617   5.809   6.897  1.5541  0.6911 -0.6869
  177SLPC   C2320085   5.023   5.626   6.939  0.0782  0.2591  0.0013
  177SLPC   H3R20086   4.945   5.701   6.966 -1.9999 -1.8731  0.2487
  177SLPC   H3S20087   4.951   5.553   6.897 -1.7731  1.9631  0.0718
  177SLPC   C2420088   5.119   5.673   6.825  0.3529  0.1101  0.4844
  177SLPC   H4R20089   5.201   5.720   6.883 -0.7745 -0.7864  2.9781
  177SLPC   H4S20090   5.060   5.741   6.761  0.5781  2.0843  2.2903
  177SLPC   C2520091   5.173   5.548   6.762 -0.1726  0.9107  0.2699
  177SLPC   H5R20092   5.089   5.512   6.699  0.9267 -1.2739 -0.0269
  177SLPC   H5S20093   5.206   5.466   6.828 -0.9717  0.2340 -0.1593
  177SLPC   C2620094   5.303   5.581   6.682  0.0809 -0.0127  0.4243
  177SLPC   H6R20095   5.381   5.634   6.741  0.6944 -0.4605  0.0252
  177SLPC   H6S20096   5.286   5.649   6.596  3.9494  1.2249  0.4684
  177SLPC   C2720097   5.373   5.453   6.634  0.0323 -0.1532 -0.2072
  177SLPC   H7R20098   5.412   5.397   6.722  2.0952 -1.1873 -1.6773
  177SLPC   H7S20099   5.461   5.475   6.570  2.0041  0.9207  2.6567
  177SLPC   C2820100   5.287   5.357   6.547  0.0468 -0.3440 -0.2531
  177SLPC   H8R20101   5.283   5.406   6.447 -0.3191 -1.3500 -0.7411
  177SLPC   H8S20102   5.183   5.355   6.587  0.4609 -0.7772  0.8436
  177SLPC   C2920103   5.330   5.211   6.555 -1.4167 -0.4147 -0.0171
  177SLPC   H9R20104   5.332   5.173   6.657  0.5733 -1.1565 -0.2955
  177SLPC  C21020105   5.359   5.132   6.449  0.8820 -0.4072  0.6668
  177SLPC  H10R20106   5.403   5.033   6.468 -1.5541 -1.4132  1.5579
  177SLPC  C21120107   5.362   5.182   6.304 -0.1006  0.3022  0.0235
  177SLPC  H11R20108   5.468   5.200   6.278  0.7800 -1.2596  2.2789
  177SLPC  H11S20109   5.308   5.278   6.283 -2.6222 -1.4223 -2.1255
  177SLPC  C21220110   5.308   5.093   6.196  0.6493 -0.7052  0.4295
  177SLPC  H12R20111   5.240   5.011   6.222 -0.9968  0.3762 -0.2885
  177SLPC  C21320112   5.351   5.084   6.072  0.8814 -0.2184  0.1349
  177SLPC  H13R20113   5.298   5.008   6.013 -0.1119  0.4272  0.1669
  177SLPC  C21420114   5.448   5.175   6.005  0.3382 -0.2271  0.3721
  177SLPC  H14R20115   5.509   5.233   6.078  0.8930 -0.0645 -0.2169
  177SLPC  H14S20116   5.395   5.252   5.945  2.9313  1.8743  0.6352
  177SLPC  C21520117   5.535   5.087   5.910 -0.2118 -1.3969  0.2353
  177SLPC  H15R20118   5.607   5.022   5.965  2.3798  0.6315 -0.5468
  177SLPC  H15S20119   5.595   5.174   5.875 -0.5460 -0.3042  2.2025
  177SLPC  C21620120   5.454   5.019   5.797  0.3858 -0.0933 -0.0235
  177SLPC  H16R20121   5.410   5.092   5.726 -1.2788 -1.3510 -0.3348
  177SLPC  H16S20122   5.383   4.945   5.841  1.8203 -0.4057  1.9368
  177SLPC  C21720123   5.552   4.941   5.710  0.0870 -0.1100  0.4378
  177SLPC  H17R20124   5.594   4.853   5.762 -1.1731 -1.0876 -0.1313
  177SLPC  H17S20125   5.648   4.995   5.696  1.0275 -1.3404  1.8319
  177SLPC  C21820126   5.494   4.902   5.571 -0.1060 -0.2426  0.5679
  177SLPC  H18R20127   5.447   4.986   5.515  1.8149 -0.1405 -0.9750
  177SLPC  H18S20128   5.412   4.827   5.579 -0.2448 -0.1554  0.0026
  177SLPC  H18T20129   5.576   4.863   5.507 -0.6434 -0.6832  0.1247
  177SLPC   C3320130   5.680   5.622   6.799 -0.3825 -0.2524 -0.1119
  177SLPC   H3X20131   5.588   5.563   6.778 -0.7300  0.0767  0.4735
  177SLPC   H3Y20132   5.751   5.538   6.812  0.3068  0.3045 -0.2693
  177SLPC   C3420133   5.719   5.688   6.669 -0.0085  0.1478 -0.0262
  177SLPC   H4X20134   5.811   5.748   6.688 -0.0040  0.3152 -0.5524
  177SLPC   H4Y20135   5.632   5.750   6.639 -1.4584 -0.5006  2.5807
  177SLPC   C3520136   5.754   5.586   6.560  0.2930 -0.4291 -0.1304
  177SLPC   H5X20137   5.695   5.494   6.582  0.2156 -0.3219  0.1238
  177SLPC   H5Y20138   5.857   5.562   6.591  0.1320 -0.6186  0.2684
  177SLPC   C3620139   5.741   5.628   6.412  0.2616 -0.1607 -0.0251
  177SLPC   H6X20140   5.819   5.573   6.356  0.6699  1.7250 -1.4212
  177SLPC   H6Y20141   5.762   5.737   6.413 -0.9672  0.1354  2.6489
  177SLPC   C3720142   5.601   5.602   6.364 -0.1963  0.0740 -0.2815
  177SLPC   H7X20143   5.527   5.645   6.435 -0.1216  0.7872 -0.6248
  177SLPC   H7Y20144   5.586   5.492   6.358  2.2173 -0.2849 -0.7033
  177SLPC   C3820145   5.575   5.658   6.224  0.6238 -0.1308 -0.5007
  177SLPC   H8X20146   5.601   5.765   6.218 -0.0484 -0.0256 -2.1513
  177SLPC   H8Y20147   5.468   5.637   6.202  0.9953 -2.9231 -0.0922
  177SLPC   C3920148   5.649   5.577   6.121  0.3871 -0.7565  0.3661
  177SLPC   H9X20149   5.632   5.467   6.130  2.1334 -1.0445  0.5739
  177SLPC   H9Y20150   5.756   5.605   6.130  0.2405 -0.4200  1.1348
  177SLPC  C31020151   5.613   5.613   5.973  0.0770 -0.1025  0.4602
  177SLPC  H10X20152   5.505   5.605   5.950  0.1044  1.9944 -0.6302
  177SLPC  H10Y20153   5.654   5.532   5.908 -1.0886 -0.2499 -0.1061
  177SLPC  C31120154   5.655   5.749   5.907  0.4127  0.5887  0.7043
  177SLPC  H11X20155   5.765   5.761   5.917  0.5918 -0.2300 -0.1371
  177SLPC  H11Y20156   5.603   5.834   5.956 -2.3145 -1.8900  2.4667
  177SLPC  C31220157   5.644   5.750   5.751  0.2308 -0.2389  0.3256
  177SLPC  H12X20158   5.534   5.756   5.736  0.3444  0.0099 -0.5028
  177SLPC  H12Y20159   5.674   5.648   5.719 -2.2077 -0.5479 -1.2291
  177SLPC  C31320160   5.725   5.861   5.684 -0.9828 -0.0655 -0.2396
  177SLPC  H13X20161   5.812   5.890   5.746 -0.6236  0.4302 -0.9533
  177SLPC  H13Y20162   5.658   5.949   5.686  1.5357  1.9923 -1.5216
  177SLPC  C31420163   5.771   5.820   5.541  0.1784 -0.0066 -0.2371
  177SLPC  H14X20164   5.819   5.720   5.540  0.6810  0.2340 -1.1528
  177SLPC  H14Y20165   5.855   5.885   5.508  0.8882  0.0041  1.4994
  177SLPC  C31520166   5.658   5.819   5.441  0.6240 -0.0955  0.8444
  177SLPC  H15X20167   5.638   5.926   5.416  2.6824  0.0195 -0.4966
  177SLPC  H15Y20168   5.566   5.782   5.490  2.2569 -2.1037  2.5461
  177SLPC  C31620169   5.661   5.749   5.302 -0.2303 -0.2214 -0.7655
  177SLPC  H16X20170   5.681   5.640   5.301 -0.7584 -0.3302 -2.5793
  177SLPC  H16Y20171   5.755   5.784   5.253 -0.6084  1.5280 -0.3140
  177SLPC  C31720172   5.543   5.763   5.207 -0.3473 -0.2131  0.0903
  177SLPC  H17X20173   5.518   5.871   5.198  0.9349  0.1980  1.2107
  177SLPC  H17Y20174   5.446   5.732   5.253 -1.3076  0.2220 -1.5470
  177SLPC  C31820175   5.568   5.699   5.070 -0.1385  0.1816  0.2345
  177SLPC  H18X20176   5.597   5.592   5.080  1.0783  0.3980 -0.7385
  177SLPC  H18Y20177   5.657   5.751   5.030  0.6607 -0.0238  1.6675
  177SLPC  H18Z20178   5.481   5.700   5.001 -0.0691 -0.7128  0.1190
  178SLPC     N20179   1.858   4.350   7.195 -0.9764  0.0300 -0.5460
  178SLPC   C1320180   1.854   4.428   7.319 -0.0963  0.2354 -0.2972
  178SLPC  H13A20181   1.928   4.394   7.390 -1.5938  0.5367  1.4942
  178SLPC  H13B20182   1.866   4.530   7.287 -1.1958 -0.0148 -1.6212
  178SLPC  H13C20183   1.755   4.416   7.362  0.7149  1.1530  1.9827
  178SLPC   C1420184   1.764   4.409   7.096  0.2509  0.4446 -0.2331
  178SLPC  H14A20185   1.794   4.508   7.063  1.0258  0.2614 -0.0896
  178SLPC  H14B20186   1.760   4.355   7.003 -0.8177  1.0279 -0.5547
  178SLPC  H14C20187   1.662   4.425   7.131 -0.3083  1.3245 -2.1323
  178SLPC   C1520188   1.810   4.215   7.224  0.5350 -0.1037  0.0125
  178SLPC  H15A20189   1.830   4.155   7.137  0.0967 -0.3627  0.0872
  178SLPC  H15B20190   1.858   4.160   7.304 -1.1851 -0.0670  1.1372
  178SLPC  H15C20191   1.704   4.218   7.243  0.6328 -2.8887  1.4937
  178SLPC   C1220192   1.994   4.342   7.133 -0.6994 -0.9049  0.0689
  178SLPC  H12A20193   2.066   4.284   7.189  1.3105 -0.5123 -1.9549
  178SLPC  H12B20194   2.051   4.434   7.129  1.3357 -2.1283 -0.2873
  178SLPC   C1120195   2.008   4.284   6.989 -0.2289 -0.4349  0.0363
  178SLPC  H11A20196   2.116   4.280   6.964 -0.9683 -0.6590 -3.6107
  178SLPC  H11B20197   1.973   4.354   6.910  1.9883  0.4641 -0.2277
  178SLPC     P20198   1.852   4.131   6.849  0.1961  0.3099 -0.0484
  178SLPC   O1320199   1.823   3.988   6.829  0.3117 -0.1223 -0.5481
  178SLPC   O1420200   1.741   4.227   6.856 -0.0188  0.2795 -0.0041
  178SLPC   O1220201   1.947   4.158   6.975  0.3950  0.3312 -0.5353
  178SLPC   O1120202   1.946   4.179   6.733 -0.5668  0.3408  0.4189
  178SLPC    C120203   2.085   4.157   6.718  0.6473  0.2093 -0.6307
  178SLPC    HA20204   2.142   4.250   6.699  1.6251  0.6948  3.5748
  178SLPC    HB20205   2.137   4.113   6.806 -2.1734  0.6949  1.4086
  178SLPC    C220206   2.113   4.052   6.600  0.4905  0.0551  0.1046
  178SLPC    HS20207   2.220   4.028   6.622 -0.0801 -1.0158  1.9047
  178SLPC   O2120208   2.085   4.099   6.469  0.1977 -0.1008  0.0835
  178SLPC   C2120209   2.161   4.197   6.428  0.2626  0.0586 -0.3301
  178SLPC   O2220210   2.260   4.237   6.490  0.3591  0.2138 -0.4637
  178SLPC   C2220211   2.115   4.256   6.298 -0.4431  0.3369  0.4239
  178SLPC   H2R20212   2.077   4.177   6.230 -1.7717  2.0158 -0.8539
  178SLPC   H2S20213   2.026   4.320   6.313  1.2155  2.8998 -0.0966
  178SLPC    C320214   2.045   3.912   6.621  0.3798  0.4004  0.1242
  178SLPC    HX20215   1.935   3.932   6.616  0.6187  2.2460  1.1199
  178SLPC    HY20216   2.069   3.874   6.722  0.9158  0.6869  0.1085
  178SLPC   O3120217   2.072   3.813   6.516  0.5457 -0.2609  0.0474
  178SLPC   C3120218   2.000   3.700   6.534  0.3861 -0.1827  0.0536
  178SLPC   O3220219   1.915   3.696   6.620  0.0032 -0.0910  0.0453
  178SLPC   C3220220   2.054   3.592   6.446  0.0386 -0.2993 -0.4413
  178SLPC   H2X20221   2.058   3.503   6.512  0.9727  0.0582 -0.0009
  178SLPC   H2Y20222   2.157   3.619   6.414 -1.2645  1.2123 -3.8420
  178SLPC   C2320223   2.219   4.334   6.225  0.3591 -1.1232  0.2992
  178SLPC   H3R20224   2.274   4.392   6.302  1.0378  1.2133 -1.7938
  178SLPC   H3S20225   2.164   4.395   6.149 -0.4634  0.9207  2.4027
  178SLPC   C2420226   2.320   4.239   6.163  0.5304 -0.7505  0.0454
  178SLPC   H4R20227   2.263   4.170   6.098 -2.2572  1.8602 -0.5124
  178SLPC   H4S20228   2.357   4.179   6.249 -0.6379 -1.0508  0.3585
  178SLPC   C2520229   2.442   4.313   6.102 -0.5447 -0.2087 -0.0582
  178SLPC   H5R20230   2.533   4.252   6.121 -0.2371  1.0155  3.0297
  178SLPC   H5S20231   2.446   4.410   6.155 -0.9361  0.3900 -1.0816
  178SLPC   C2620232   2.412   4.334   5.957  0.1611 -0.4661  0.0259
  178SLPC   H6R20233   2.371   4.436   5.944  3.2343  0.9879  0.6041
  178SLPC   H6S20234   2.346   4.260   5.908 -0.0601 -1.0584  1.1963
  178SLPC   C2720235   2.545   4.343   5.883  0.6660 -0.1322 -0.0049
  178SLPC   H7R20236   2.585   4.240   5.872  2.4623  0.4474  0.7499
  178SLPC   H7S20237   2.605   4.412   5.946 -4.0466  3.1060  1.5016
  178SLPC   C2820238   2.536   4.395   5.738  0.8944  0.0418  0.1247
  178SLPC   H8R20239   2.483   4.492   5.747  2.1575  0.6628  1.3322
  178SLPC   H8S20240   2.464   4.331   5.682 -1.2892  1.2159  1.4554
  178SLPC   C2920241   2.667   4.404   5.673 -0.8711 -0.5298  0.2871
  178SLPC   H9R20242   2.739   4.469   5.727 -0.5506 -0.1116 -0.6230
  178SLPC  C21020243   2.697   4.358   5.550  0.1342  0.5347  0.6646
  178SLPC  H10R20244   2.798   4.360   5.506 -0.4475 -4.1817 -1.4885
  178SLPC  C21120245   2.610   4.268   5.465  0.5212 -0.4795 -0.2146
  178SLPC  H11R20246   2.550   4.206   5.534 -0.5493  0.7433 -0.0142
  178SLPC  H11S20247   2.673   4.193   5.412 -0.5222 -1.3160 -0.3032
  178SLPC  C21220248   2.518   4.349   5.373  0.2476  0.0097  0.9174
  178SLPC  H12R20249   2.485   4.441   5.424  0.6196 -0.3979  1.9237
  178SLPC  C21320250   2.492   4.335   5.243 -0.0687 -0.1754  0.3463
  178SLPC  H13R20251   2.427   4.409   5.195  0.6460  0.1149 -0.2068
  178SLPC  C21420252   2.533   4.224   5.143  0.5358 -0.1864 -0.4105
  178SLPC  H14R20253   2.454   4.147   5.141 -0.1278  0.2161  3.1557
  178SLPC  H14S20254   2.622   4.171   5.183  0.3920 -0.3618 -0.3215
  178SLPC  C21520255   2.564   4.282   4.996 -0.5309  0.3626  1.1115
  178SLPC  H15R20256   2.472   4.305   4.937 -0.6970 -0.3725  1.0612
  178SLPC  H15S20257   2.605   4.194   4.942  0.2481  2.1247 -1.3616
  178SLPC  C21620258   2.682   4.384   4.995  0.0625  0.7593  0.4744
  178SLPC  H16R20259   2.761   4.327   5.048 -1.1633 -1.7412 -0.2564
  178SLPC  H16S20260   2.678   4.479   5.053 -0.3002 -0.3483  2.3160
  178SLPC  C21720261   2.728   4.415   4.851  0.6886 -0.2041 -0.5229
  178SLPC  H17R20262   2.664   4.500   4.821  0.9910 -0.1800 -1.1253
  178SLPC  H17S20263   2.718   4.320   4.794  1.8552 -2.7286  3.0890
  178SLPC  C21820264   2.874   4.459   4.854 -0.3749  0.5203  0.5675
  178SLPC  H18R20265   2.878   4.570   4.865 -1.0759  0.4047  2.3498
  178SLPC  H18S20266   2.919   4.428   4.758 -0.1190 -4.1706  1.9495
  178SLPC  H18T20267   2.934   4.401   4.927  0.0611 -0.3063 -0.4242
  178SLPC   C3320268   1.969   3.565   6.319  0.2674  0.2567  0.0458
  178SLPC   H3X20269   1.859   3.570   6.335 -0.0521  4.5471 -2.1714
  178SLPC   H3Y20270   1.991   3.460   6.288 -0.1156 -0.1270  1.0059
  178SLPC   C3420271   1.995   3.656   6.198 -0.0646 -0.1778 -0.1637
  178SLPC   H4X20272   1.967   3.759   6.229  0.7372  0.2995 -0.9787
  178SLPC   H4Y20273   1.920   3.622   6.123  0.1349  0.8022 -0.8163
  178SLPC   C3520274   2.136   3.669   6.148  0.7555 -0.2871  0.0240
  178SLPC   H5X20275   2.171   3.566   6.125 -1.4025 -1.2453  0.8153
  178SLPC   H5Y20276   2.196   3.717   6.228  1.4592  0.7220 -1.0530
  178SLPC   C3620277   2.136   3.766   6.036 -0.4254 -0.8186 -0.3163
  178SLPC   H6X20278   2.064   3.847   6.059 -0.7719 -1.1789 -0.1322
  178SLPC   H6Y20279   2.090   3.716   5.948 -2.2174 -0.9099  0.6302
  178SLPC   C3720280   2.276   3.834   5.999  0.1989  0.2645  0.2455
  178SLPC   H7X20281   2.347   3.753   5.975 -0.4436  0.0232 -0.9352
  178SLPC   H7Y20282   2.313   3.891   6.087  0.9328  0.4126 -0.1492
  178SLPC   C3820283   2.267   3.937   5.883 -0.0226 -0.1383  0.1240
  178SLPC   H8X20284   2.366   3.981   5.859  1.3504 -2.0567  1.8298
  178SLPC   H8Y20285   2.206   4.025   5.911 -0.4308 -1.0893  2.4862
  178SLPC   C3920286   2.225   3.875   5.748  0.1477  0.8854 -0.3100
  178SLPC   H9X20287   2.118   3.847   5.761  0.2572 -0.0544 -1.2497
  178SLPC   H9Y20288   2.284   3.783   5.728 -0.1640  1.1834 -3.0219
  178SLPC  C31020289   2.225   3.976   5.634 -0.2864 -0.0383 -0.0860
  178SLPC  H10X20290   2.312   4.045   5.643 -1.6009  1.5906  0.9246
  178SLPC  H10Y20291   2.132   4.036   5.648 -0.8082 -0.8949  0.1544
  178SLPC  C31120292   2.213   3.909   5.501 -0.1440 -0.2596 -0.1715
  178SLPC  H11X20293   2.179   3.985   5.427  1.3116  0.2704 -0.3362
  178SLPC  H11Y20294   2.125   3.843   5.487 -1.8375  1.8960 -0.2266
  178SLPC  C31220295   2.340   3.829   5.466  0.1873 -0.3430 -0.4843
  178SLPC  H12X20296   2.345   3.741   5.535 -1.0979  0.0697  0.1634
  178SLPC  H12Y20297   2.433   3.885   5.489  1.0312 -1.9730  0.2627
  178SLPC  C31320298   2.355   3.780   5.317  0.2562  0.1273 -0.4245
  178SLPC  H13X20299   2.254   3.739   5.296 -1.2192  2.9568  0.6584
  178SLPC  H13Y20300   2.434   3.702   5.313  0.2983  0.0958  0.8470
  178SLPC  C31420301   2.379   3.903   5.222  0.4559  0.2462  0.5033
  178SLPC  H14X20302   2.476   3.949   5.251  0.0217  1.0948  0.6344
  178SLPC  H14Y20303   2.295   3.973   5.242 -0.0057 -0.7259  2.1363
  178SLPC  C31520304   2.380   3.860   5.073 -1.0491  0.6630  0.5675
  178SLPC  H15X20305   2.377   3.949   5.008  1.4841 -1.3777 -2.6938
  178SLPC  H15Y20306   2.293   3.793   5.056  0.2513 -0.6583 -1.4302
  178SLPC  C31620307   2.506   3.767   5.052  0.3581  0.6329  0.0512
  178SLPC  H16X20308   2.485   3.709   4.960  1.0359 -0.1343  0.3716
  178SLPC  H16Y20309   2.528   3.694   5.132  2.4925 -1.7578 -2.5263
  178SLPC  C31720310   2.638   3.840   5.038 -0.4921  0.3175 -0.2216
  178SLPC  H17X20311   2.656   3.897   5.131 -0.7654  0.4914 -0.2740
  178SLPC  H17Y20312   2.629   3.922   4.963 -2.7719  0.1968 -0.1640
  178SLPC  C31820313   2.760   3.749   5.028 -0.4551  0.5478  0.1736
  178SLPC  H18X20314   2.744   3.668   4.954 -3.0653  0.7969  0.3746
  178SLPC  H18Y20315   2.788   3.701   5.124 -0.5969  1.5928  0.7473
  178SLPC  H18Z20316   2.851   3.807   5.001  0.5997 -0.6952  0.8988
  179SLPC     N20317   6.480   1.285   3.342 -0.3680  0.6230  0.0407
  179SLPC   C1320318   6.368   1.251   3.244  0.0389  0.0639  0.1374
  179SLPC  H13A20319   6.362   1.328   3.168 -1.5248 -0.1961 -0.0423
  179SLPC  H13B20320   6.386   1.161   3.188  1.1748 -0.7858  1.7993
  179SLPC  H13C20321   6.270   1.248   3.289 -0.6656 -0.1156 -1.3450
  179SLPC   C1420322   6.610   1.303   3.257  0.0449  0.9793 -0.3944
  179SLPC  H14A20323   6.703   1.314   3.310 -0.3582  0.0337  0.5503
  179SLPC  H14B20324   6.614   1.217   3.191 -2.2312 -0.3523  1.0572
  179SLPC  H14C20325   6.598   1.394   3.200  4.0130  0.4034 -2.4833
  179SLPC   C1520326   6.492   1.169   3.435 -0.2894  0.1434 -0.5160
  179SLPC  H15A20327   6.524   1.078   3.387 -1.6198 -0.1531 -0.8852
  179SLPC  H15B20328   6.567   1.196   3.508  0.6337  1.0889 -1.7754
  179SLPC  H15C20329   6.399   1.152   3.489  0.0895  0.3340  0.2158
  179SLPC   C1220330   6.462   1.402   3.427  0.0407 -0.6843  0.1434
  179SLPC  H12A20331   6.398   1.369   3.507 -1.1087  0.7123 -0.1566
  179SLPC  H12B20332   6.414   1.482   3.373 -0.8143 -1.9205 -1.0101
  179SLPC   C1120333   6.575   1.469   3.510 -0.1436 -0.0730  0.5485
  179SLPC  H11A20334   6.535   1.562   3.557 -2.2973 -0.5177 -0.2664
  179SLPC  H11B20335   6.651   1.499   3.434  1.2837 -1.3604  1.4132
  179SLPC     P20336   6.596   1.401   3.764 -0.1791 -0.5179 -0.2589
  179SLPC   O1320337   6.641   1.533   3.807  0.2984  0.4350 -0.0119
  179SLPC   O1420338   6.453   1.362   3.783 -0.5831 -0.1504  0.1831
  179SLPC   O1220339   6.630   1.385   3.610 -0.1147 -0.3905  0.1390
  179SLPC   O1120340   6.685   1.293   3.837  0.0566 -0.1230 -0.0880
  179SLPC    C120341   6.783   1.218   3.771  0.2571 -0.0180 -0.3105
  179SLPC    HA20342   6.772   1.122   3.824 -0.4487  0.9867  1.4477
  179SLPC    HB20343   6.745   1.183   3.672 -0.4931 -0.7094  0.2173
  179SLPC    C220344   6.927   1.270   3.789  0.1203  0.0627  0.2852
  179SLPC    HS20345   6.998   1.197   3.744  1.6639  0.7095  1.5866
  179SLPC   O2120346   6.954   1.296   3.931  0.0670 -0.1274  0.4137
  179SLPC   C2120347   7.053   1.230   3.986 -0.1496 -0.7460 -0.6474
  179SLPC   O2220348   7.118   1.141   3.932 -0.6046 -0.1194 -0.1089
  179SLPC   C2220349   7.069   1.268   4.132  0.3147  0.0293  0.0107
  179SLPC   H2R20350   6.982   1.331   4.159 -1.4164 -2.3650  0.3244
  179SLPC   H2S20351   7.056   1.178   4.197  0.6965  0.5736  0.8683
  179SLPC    C320352   6.945   1.400   3.707 -0.7221  0.4683 -0.6083
  179SLPC    HX20353   6.922   1.489   3.769  0.4529  0.0409  0.4913
  179SLPC    HY20354   6.870   1.400   3.625 -2.0696  1.4692  0.5841
  179SLPC   O3120355   7.085   1.413   3.652  0.0168  0.4113 -0.3239
  179SLPC   C3120356   7.170   1.474   3.734  0.7310  0.4656 -0.5953
  179SLPC   O3220357   7.144   1.541   3.832  0.9106 -0.5772 -0.2328
  179SLPC   C3220358   7.311   1.448   3.685 -0.7596 -0.2923 -0.2316
  179SLPC   H2X20359   7.324   1.501   3.588  0.3972 -0.7463 -0.3459
  179SLPC   H2Y20360   7.322   1.338   3.670  0.6398 -0.0098 -1.5024
  179SLPC   C2320361   7.206   1.332   4.167 -0.0066 -0.6211 -0.3045
  179SLPC   H3R20362   7.193   1.437   4.134 -1.0022 -0.7569 -0.3715
  179SLPC   H3S20363   7.291   1.280   4.118  0.0514 -2.6212  1.7142
  179SLPC   C2420364   7.231   1.342   4.320 -0.0508 -0.3338 -0.2755
  179SLPC   H4R20365   7.232   1.244   4.371  0.8542 -1.5608 -2.5339
  179SLPC   H4S20366   7.156   1.414   4.360 -0.1835 -1.4587  1.5710
  179SLPC   C2520367   7.360   1.404   4.361 -0.5660 -0.0429  0.4163
  179SLPC   H5R20368   7.394   1.483   4.291  0.1446 -0.3989  0.3406
  179SLPC   H5S20369   7.433   1.320   4.356 -1.4261 -0.7387 -1.6571
  179SLPC   C2620370   7.360   1.473   4.502  0.0714  0.2828  0.3120
  179SLPC   H6R20371   7.261   1.519   4.518 -1.6469 -3.5582  2.0672
  179SLPC   H6S20372   7.439   1.551   4.507  1.8594 -1.4400  0.5326
  179SLPC   C2720373   7.387   1.363   4.608  0.4038 -0.2880 -0.5665
  179SLPC   H7R20374   7.481   1.314   4.574  0.3940  0.3283 -1.5232
  179SLPC   H7S20375   7.303   1.291   4.604 -0.6765  0.8374  0.8652
  179SLPC   C2820376   7.420   1.425   4.747 -0.3403 -0.0556 -0.1234
  179SLPC   H8R20377   7.355   1.514   4.762 -0.5092 -0.5078  2.2981
  179SLPC   H8S20378   7.524   1.465   4.741  0.7799 -2.9856 -4.7940
  179SLPC   C2920379   7.414   1.337   4.862  0.0191  0.4151 -0.8091
  179SLPC   H9R20380   7.476   1.246   4.860  0.6924  0.7947  0.8798
  179SLPC  C21020381   7.329   1.341   4.963  0.0977 -0.4780 -0.2930
  179SLPC  H10R20382   7.339   1.260   5.037  0.5377 -1.5794 -1.5179
  179SLPC  C21120383   7.234   1.448   4.985 -0.1258 -0.1867  0.8622
  179SLPC  H11R20384   7.256   1.535   4.918  0.4565 -1.1196 -0.1893
  179SLPC  H11S20385   7.273   1.487   5.082  1.6426 -0.2549  0.2123
  179SLPC  C21220386   7.090   1.396   4.989 -0.1316 -0.6723 -0.0727
  179SLPC  H12R20387   7.081   1.287   5.003 -2.0736 -0.3534  1.5171
  179SLPC  C21320388   6.981   1.474   4.980  0.5234 -0.1253 -1.0145
  179SLPC  H13R20389   6.882   1.431   5.000  0.8738  0.4968  2.6149
  179SLPC  C21420390   6.974   1.619   4.967  0.1285 -1.0362 -0.1768
  179SLPC  H14R20391   7.074   1.661   4.943  0.3728 -1.1022  0.6968
  179SLPC  H14S20392   6.935   1.672   5.057  1.0422  0.8837 -0.8650
  179SLPC  C21520393   6.886   1.658   4.843  0.1126  0.3197 -0.2253
  179SLPC  H15R20394   6.875   1.768   4.843  0.2093  0.3951  2.6939
  179SLPC  H15S20395   6.789   1.606   4.855 -0.3247  0.9807 -0.8602
  179SLPC  C21620396   6.947   1.594   4.710  0.4657  0.4500  0.1685
  179SLPC  H16R20397   6.964   1.484   4.712 -0.1480  0.3437 -0.1824
  179SLPC  H16S20398   7.053   1.626   4.710 -0.0522  2.4733  2.2893
  179SLPC  C21720399   6.865   1.632   4.592 -0.0393 -0.0823  0.1355
  179SLPC  H17R20400   6.881   1.739   4.567 -0.4281 -0.0817 -0.1114
  179SLPC  H17S20401   6.762   1.619   4.631  0.1156 -1.1524  0.2170
  179SLPC  C21820402   6.892   1.540   4.471  0.2210 -0.3235 -0.3403
  179SLPC  H18R20403   6.997   1.536   4.435  0.8889  0.3724  1.4164
  179SLPC  H18S20404   6.834   1.572   4.382 -0.7762 -2.3186 -0.4808
  179SLPC  H18T20405   6.858   1.435   4.490  0.2704 -0.5912 -1.6359
  179SLPC   C3320406   7.429   1.480   3.793  0.2043  0.2172 -0.2450
  179SLPC   H3X20407   7.386   1.446   3.890 -0.2782  2.2761  0.3170
  179SLPC   H3Y20408   7.440   1.590   3.801  1.2312  0.1463 -0.5964
  179SLPC   C3420409   7.563   1.420   3.755  0.3878 -0.4302  0.3330
  179SLPC   H4X20410   7.594   1.471   3.661 -1.1341 -2.1852 -1.2162
  179SLPC   H4Y20411   7.554   1.310   3.746 -1.8612 -0.2978  0.3881
  179SLPC   C3520412   7.676   1.446   3.855  0.3749 -0.0021  0.0005
  179SLPC   H5X20413   7.767   1.398   3.813 -0.6249 -2.6681  0.6925
  179SLPC   H5Y20414   7.691   1.555   3.874 -4.4739  0.6670  1.3107
  179SLPC   C3620415   7.653   1.375   3.992  0.0860 -0.1472  0.8757
  179SLPC   H6X20416   7.666   1.265   3.991  1.6229  0.0099  0.1215
  179SLPC   H6Y20417   7.552   1.397   4.032 -0.0671  1.4664 -0.3047
  179SLPC   C3720418   7.755   1.435   4.088  0.8147  0.5165 -0.6804
  179SLPC   H7X20419   7.752   1.546   4.089 -0.0323  0.6516  4.0275
  179SLPC   H7Y20420   7.856   1.400   4.056 -0.1914 -2.5085 -0.8327
  179SLPC   C3820421   7.725   1.411   4.242 -0.2335 -0.1901 -0.7597
  179SLPC   H8X20422   7.736   1.300   4.248 -2.9459 -0.4657  0.3514
  179SLPC   H8Y20423   7.620   1.438   4.265 -1.0084 -2.9263 -0.7515
  179SLPC   C3920424   7.822   1.492   4.333  0.4362  0.1735 -0.1988
  179SLPC   H9X20425   7.814   1.603   4.326 -0.6880  0.0475 -1.3532
  179SLPC   H9Y20426   7.927   1.467   4.308 -0.2899 -2.9154 -0.5480
  179SLPC  C31020427   7.803   1.453   4.483 -0.2970 -0.4608  0.2132
  179SLPC  H10X20428   7.788   1.343   4.481 -1.4480 -0.3586  1.5083
  179SLPC  H10Y20429   7.719   1.514   4.522  0.8884  0.6181  1.1935
  179SLPC  C31120430   7.922   1.492   4.572  0.4169 -0.0779 -0.0148
  179SLPC  H11X20431   7.963   1.592   4.545  1.2406 -0.4851 -0.2668
  179SLPC  H11Y20432   7.999   1.416   4.550  0.8685  1.1941 -3.4510
  179SLPC  C31220433   7.895   1.487   4.728 -0.2928 -0.9059 -0.0638
  179SLPC  H12X20434   7.810   1.551   4.758  0.7192  0.4321  0.0092
  179SLPC  H12Y20435   7.991   1.523   4.771 -0.4336  2.8691 -2.4881
  179SLPC  C31320436   7.850   1.348   4.776 -0.7732 -0.0276  0.1708
  179SLPC  H13X20437   7.937   1.280   4.760 -0.9367  0.3804 -3.3078
  179SLPC  H13Y20438   7.773   1.310   4.706  1.3325  1.1902 -3.0717
  179SLPC  C31420439   7.819   1.332   4.925 -0.6905 -0.8354 -0.4588
  179SLPC  H14X20440   7.728   1.387   4.954  0.3429  0.7702 -0.1076
  179SLPC  H14Y20441   7.900   1.378   4.986  2.2088 -1.5529 -3.4471
  179SLPC  C31520442   7.809   1.181   4.963  0.7111  0.0404 -0.1081
  179SLPC  H15X20443   7.909   1.136   4.948  0.8957  0.6155 -0.6055
  179SLPC  H15Y20444   7.725   1.136   4.905  0.7909 -0.8679  0.4488
  179SLPC  C31620445   7.768   1.157   5.109  1.2241  0.7036  0.3158
  179SLPC  H16X20446   7.834   1.208   5.182  0.9152  1.0684  0.3419
  179SLPC  H16Y20447   7.780   1.048   5.129  0.0415  0.2365 -1.2416
  179SLPC  C31720448   7.624   1.199   5.126 -0.1600 -0.8308 -0.2238
  179SLPC  H17X20449   7.565   1.137   5.055 -0.5453  0.9759 -1.5748
  179SLPC  H17Y20450   7.602   1.300   5.083 -0.1757 -0.0275  1.5683
  179SLPC  C31820451   7.562   1.180   5.266  0.0112 -0.5268 -0.2348
  179SLPC  H18X20452   7.565   1.073   5.294  0.4641 -0.0669  1.5745
  179SLPC  H18Y20453   7.457   1.211   5.251 -0.4313 -1.5125  0.7606
  179SLPC  H18Z20454   7.622   1.243   5.336  0.3483 -0.3334 -0.6859
  180SLPC     N20455   6.125   0.151   2.799  0.1344 -0.0117 -0.2506
  180SLPC   C1320456   6.076   0.008   2.818  0.0178  1.3447  0.3732
  180SLPC  H13A20457   6.166  -0.047   2.842 -1.2498 -1.2251 -0.4052
  180SLPC  H13B20458   5.993   0.014   2.887 -0.5348 -0.0549 -0.1495
  180SLPC  H13C20459   6.046  -0.040   2.727 -0.0422 -0.8090  1.4642
  180SLPC   C1420460   6.017   0.230   2.742 -0.3169 -0.4248 -0.6526
  180SLPC  H14A20461   5.924   0.212   2.794  0.8206 -0.9524  1.2641
  180SLPC  H14B20462   6.033   0.337   2.745 -0.6579 -0.3496 -1.2377
  180SLPC  H14C20463   6.009   0.198   2.639 -3.6160 -2.0905 -0.0140
  180SLPC   C1520464   6.246   0.153   2.705 -0.0926 -0.2463  0.0689
  180SLPC  H15A20465   6.327   0.094   2.745  0.9266  0.5510 -0.7395
  180SLPC  H15B20466   6.203   0.130   2.608  1.7364 -0.3902 -0.7433
  180SLPC  H15C20467   6.285   0.253   2.705 -0.7345  0.0144 -0.4626
  180SLPC   C1220468   6.175   0.213   2.928 -0.0890 -0.3077  0.1609
  180SLPC  H12A20469   6.205   0.311   2.896  0.6472 -1.3438 -2.6195
  180SLPC  H12B20470   6.268   0.162   2.952  1.0504  1.3377 -0.6459
  180SLPC   C1120471   6.092   0.212   3.061 -0.2463 -0.3946  0.2827
  180SLPC  H11A20472   6.162   0.251   3.138  1.1075  0.8740 -1.5109
  180SLPC  H11B20473   6.058   0.108   3.084 -1.5138 -0.6333 -2.3238
  180SLPC     P20474   5.982   0.445   3.084 -0.3089  0.4344  0.2376
  180SLPC   O1320475   6.111   0.496   3.033  0.0576  0.7358  0.3944
  180SLPC   O1420476   5.858   0.516   3.049 -0.2561  0.1456 -0.0617
  180SLPC   O1220477   5.974   0.286   3.046 -0.6404 -0.2800  0.4227
  180SLPC   O1120478   5.991   0.420   3.241  0.2594 -0.0444 -0.2435
  180SLPC    C120479   5.875   0.386   3.320 -0.6533 -0.0246 -0.3338
  180SLPC    HA20480   5.800   0.319   3.272 -1.4055  1.3345 -1.1170
  180SLPC    HB20481   5.907   0.328   3.409  2.1723  0.9736 -0.5895
  180SLPC    C220482   5.802   0.513   3.368  0.3553 -0.1006 -0.7376
  180SLPC    HS20483   5.799   0.579   3.279 -0.9402  0.2778 -0.4387
  180SLPC   O2120484   5.889   0.574   3.462  0.0903  0.4179  0.0200
  180SLPC   C2120485   5.912   0.705   3.451 -0.5691 -0.2642  0.5639
  180SLPC   O2220486   5.872   0.777   3.363  0.5014 -0.4527  0.0273
  180SLPC   C2220487   5.967   0.756   3.575  0.3592  0.1650 -0.9258
  180SLPC   H2R20488   6.027   0.843   3.542  0.4721 -0.1471 -1.5644
  180SLPC   H2S20489   5.897   0.790   3.655 -0.2164 -1.4414 -0.7132
  180SLPC    C320490   5.663   0.488   3.427  0.1150 -0.1085 -0.1505
  180SLPC    HX20491   5.590   0.460   3.347 -2.1665  0.7509  1.5210
  180SLPC    HY20492   5.629   0.585   3.468 -0.1606  0.2591 -1.2266
  180SLPC   O3120493   5.653   0.381   3.530  0.1533 -0.6101  0.9264
  180SLPC   C3120494   5.537   0.376   3.594 -0.5657 -0.0642  0.1665
  180SLPC   O3220495   5.442   0.447   3.573  0.0841  0.1313  0.3721
  180SLPC   C3220496   5.537   0.247   3.671  0.5706 -0.2505  0.1204
  180SLPC   H2X20497   5.631   0.188   3.665  0.0557 -1.0993  0.2530
  180SLPC   H2Y20498   5.469   0.177   3.619  0.9794 -2.6876  2.5999
  180SLPC   C2320499   6.061   0.654   3.644 -0.7391  0.3369 -0.5716
  180SLPC   H3R20500   6.158   0.653   3.590  0.4008 -0.7712  1.3679
  180SLPC   H3S20501   6.018   0.552   3.644 -0.1975  0.0791  1.0314
  180SLPC   C2420502   6.098   0.687   3.785 -0.1295  0.1772 -0.0296
  180SLPC   H4R20503   6.010   0.681   3.853  0.7790 -1.1645  1.0898
  180SLPC   H4S20504   6.140   0.789   3.801 -1.1728  1.1531 -2.8647
  180SLPC   C2520505   6.202   0.591   3.832  0.2800  0.4402 -0.1846
  180SLPC   H5R20506   6.301   0.618   3.790  0.4692 -1.7078 -1.2430
  180SLPC   H5S20507   6.189   0.481   3.816  4.6703 -0.2028 -0.4063
  180SLPC   C2620508   6.227   0.605   3.988 -0.0122 -0.6419  0.1692
  180SLPC   H6R20509   6.135   0.597   4.050  0.6889  0.6573  1.4506
  180SLPC   H6S20510   6.270   0.705   4.010  0.6810  0.3976 -4.7708
  180SLPC   C2720511   6.332   0.500   4.030 -0.3625 -0.1209 -0.0434
  180SLPC   H7R20512   6.423   0.535   3.976 -0.2982 -1.5697 -0.9171
  180SLPC   H7S20513   6.319   0.400   3.984  0.1217 -0.0699 -0.3046
  180SLPC   C2820514   6.363   0.485   4.177  0.4948 -0.1759  0.6166
  180SLPC   H8R20515   6.445   0.410   4.180  1.1276  0.5287  1.2682
  180SLPC   H8S20516   6.269   0.442   4.218  0.4734 -0.9947 -0.2604
  180SLPC   C2920517   6.415   0.615   4.227  0.1685 -0.2806 -0.1743
  180SLPC   H9R20518   6.496   0.658   4.167 -0.8680  0.7951 -0.8454
  180SLPC  C21020519   6.371   0.686   4.336 -0.6340  0.8029 -0.3609
  180SLPC  H10R20520   6.423   0.781   4.355 -1.1648  1.0125  0.0792
  180SLPC  C21120521   6.252   0.642   4.421 -0.4862  0.2713 -0.1293
  180SLPC  H11R20522   6.182   0.573   4.368  2.1239 -1.4491 -1.6227
  180SLPC  H11S20523   6.196   0.736   4.438  1.2016  1.4955 -1.0090
  180SLPC  C21220524   6.282   0.582   4.556 -0.4197  0.0571 -0.0504
  180SLPC  H12R20525   6.358   0.502   4.553  0.7006  1.0971 -0.4185
  180SLPC  C21320526   6.220   0.613   4.666  0.5446 -0.1376  0.0284
  180SLPC  H13R20527   6.248   0.560   4.758 -0.1537 -0.3167  0.1458
  180SLPC  C21420528   6.109   0.713   4.694 -0.6875 -0.0331  0.0007
  180SLPC  H14R20529   6.057   0.739   4.599 -0.1733  0.1760 -0.2251
  180SLPC  H14S20530   6.148   0.808   4.736 -1.2706 -0.2499  1.0864
  180SLPC  C21520531   6.007   0.669   4.796  0.4595  0.1654 -0.0205
  180SLPC  H15R20532   5.941   0.757   4.790 -2.2576 -1.6441  1.2635
  180SLPC  H15S20533   6.047   0.659   4.900  0.6345 -0.8319 -0.1731
  180SLPC  C21620534   5.930   0.543   4.758 -0.1937  0.1459 -0.4779
  180SLPC  H16R20535   6.000   0.459   4.738  0.1629  0.2114  0.4583
  180SLPC  H16S20536   5.877   0.564   4.662 -0.1751 -0.1389 -0.5514
  180SLPC  C21720537   5.826   0.501   4.860 -0.0090 -0.2693 -0.3149
  180SLPC  H17R20538   5.765   0.423   4.810 -1.4666  1.0380 -0.6730
  180SLPC  H17S20539   5.758   0.585   4.889  1.7542  0.8440  0.7957
  180SLPC  C21820540   5.893   0.433   4.980  0.1223  0.1151 -0.2293
  180SLPC  H18R20541   5.826   0.366   5.038  0.3049  0.1106 -0.0223
  180SLPC  H18S20542   5.939   0.506   5.049  1.2561 -0.5537 -0.2394
  180SLPC  H18T20543   5.964   0.365   4.927 -2.3609 -2.2674 -0.7586
  180SLPC   C3320544   5.486   0.260   3.817  0.1929 -0.0857  0.4966
  180SLPC   H3X20545   5.486   0.166   3.876  0.5936  0.5496  1.5397
  180SLPC   H3Y20546   5.379   0.289   3.802 -0.6741 -3.2553 -0.1048
  180SLPC   C3420547   5.556   0.356   3.902  0.0247  0.4259  0.6902
  180SLPC   H4X20548   5.508   0.347   4.001 -0.1819 -0.9221  0.4814
  180SLPC   H4Y20549   5.544   0.460   3.865  2.4403  0.4610 -0.1199
  180SLPC   C3520550   5.706   0.315   3.918  0.0158 -0.0984  0.8016
  180SLPC   H5X20551   5.761   0.347   3.827 -0.5539  0.6215  0.7084
  180SLPC   H5Y20552   5.722   0.207   3.940 -0.1356 -1.0024 -2.9027
  180SLPC   C3620553   5.765   0.397   4.033  0.1388  0.3428  0.6622
  180SLPC   H6X20554   5.876   0.385   4.037  0.3257  1.8478  0.7185
  180SLPC   H6Y20555   5.720   0.362   4.128 -2.7603  0.1822 -0.6905
  180SLPC   C3720556   5.725   0.552   4.023  0.5596 -0.1584 -0.1855
  180SLPC   H7X20557   5.618   0.556   4.051  0.5417  0.4064 -0.3354
  180SLPC   H7Y20558   5.728   0.580   3.915 -1.2753  0.6596 -0.0455
  180SLPC   C3820559   5.811   0.654   4.095  1.1011 -0.0568 -0.0540
  180SLPC   H8X20560   5.787   0.755   4.054  1.8332 -0.0169 -0.3894
  180SLPC   H8Y20561   5.913   0.626   4.062  1.6072 -1.2547  2.3551
  180SLPC   C3920562   5.822   0.646   4.248  0.2579 -0.8618 -0.1770
  180SLPC   H9X20563   5.916   0.699   4.275  0.9698 -2.5814  0.8552
  180SLPC   H9Y20564   5.850   0.544   4.280  1.7181  0.0529  1.6196
  180SLPC  C31020565   5.698   0.704   4.323 -0.4107 -0.0981  0.3194
  180SLPC  H10X20566   5.625   0.634   4.277  1.2042 -0.4832 -1.8354
  180SLPC  H10Y20567   5.677   0.806   4.283 -0.8052 -0.4432 -0.3780
  180SLPC  C31120568   5.697   0.706   4.474  0.0113 -0.0934 -0.8918
  180SLPC  H11X20569   5.793   0.745   4.515 -0.0073 -0.9383 -0.0159
  180SLPC  H11Y20570   5.685   0.599   4.502 -0.3110  0.3079  0.6075
  180SLPC  C31220571   5.582   0.793   4.524 -0.3027 -0.5546 -0.4933
  180SLPC  H12X20572   5.489   0.751   4.481 -1.2392  1.5383 -0.6479
  180SLPC  H12Y20573   5.592   0.891   4.473 -0.3297  0.0181  0.5763
  180SLPC  C31320574   5.568   0.823   4.671  0.2709 -0.0270 -0.4498
  180SLPC  H13X20575   5.620   0.739   4.721  0.0254  0.0557 -0.0528
  180SLPC  H13Y20576   5.461   0.828   4.699  0.3999  2.2888 -0.2208
  180SLPC  C31420577   5.631   0.953   4.726  0.1791 -0.3117 -0.2901
  180SLPC  H14X20578   5.590   1.033   4.661  1.8741  0.6349 -0.2813
  180SLPC  H14Y20579   5.742   0.945   4.715  0.1465  0.4241 -1.2465
  180SLPC  C31520580   5.610   0.977   4.879  0.3689 -0.3521  0.9030
  180SLPC  H15X20581   5.643   0.886   4.934 -0.8720 -1.2649  0.1542
  180SLPC  H15Y20582   5.503   0.991   4.905  0.6199 -1.4493  2.7013
  180SLPC  C31620583   5.682   1.105   4.920  0.2498  0.6830  0.2290
  180SLPC  H16X20584   5.675   1.196   4.856 -1.9095  0.5815  0.2333
  180SLPC  H16Y20585   5.789   1.078   4.933 -0.5293 -2.9270  0.3012
  180SLPC  C31720586   5.637   1.144   5.060  0.1387  0.7087 -0.1455
  180SLPC  H17X20587   5.704   1.225   5.095  0.6030 -0.2272  1.2499
  180SLPC  H17Y20588   5.660   1.057   5.125  0.6390 -0.6651 -2.0530
  180SLPC  C31820589   5.497   1.200   5.065  0.4911  0.5421 -0.4343
  180SLPC  H18X20590   5.431   1.145   4.995  0.1813 -1.6181  1.4240
  180SLPC  H18Y20591   5.504   1.305   5.032 -1.1410  1.1698  1.0857
  180SLPC  H18Z20592   5.461   1.186   5.169  0.3208  0.5008 -0.4985
  181SLPC     N20593   3.803   4.306   2.743 -0.1871  0.5297 -0.1661
  181SLPC   C1320594   3.689   4.362   2.656  0.5113 -0.1045 -0.4007
  181SLPC  H13A20595   3.726   4.430   2.581 -0.0341  1.1776  0.4734
  181SLPC  H13B20596   3.633   4.281   2.611 -1.4115  0.4956  0.8051
  181SLPC  H13C20597   3.616   4.410   2.719  1.3852 -0.4073  0.8708
  181SLPC   C1420598   3.890   4.412   2.788  0.9910 -0.3295  0.4209
  181SLPC  H14A20599   3.922   4.466   2.700  0.2243 -0.6360 -0.0538
  181SLPC  H14B20600   3.842   4.467   2.868 -0.5785 -2.1190  0.7872
  181SLPC  H14C20601   3.984   4.373   2.823  0.9616  0.9916  2.0992
  181SLPC   C1520602   3.889   4.220   2.653  0.4256  0.2310 -0.2531
  181SLPC  H15A20603   3.927   4.147   2.723 -2.0500 -0.2348  0.6814
  181SLPC  H15B20604   3.838   4.156   2.583  0.0385 -0.1241  0.3426
  181SLPC  H15C20605   3.968   4.282   2.613  0.2667  1.9754  1.9309
  181SLPC   C1220606   3.746   4.218   2.854 -0.4292 -0.1829  0.2836
  181SLPC  H12A20607   3.698   4.281   2.928 -0.8428  1.6317 -1.4416
  181SLPC  H12B20608   3.828   4.162   2.897 -0.4132 -1.3014 -1.1258
  181SLPC   C1120609   3.637   4.113   2.812 -0.0510  0.7306  0.3841
  181SLPC  H11A20610   3.554   4.161   2.755 -0.0109 -0.5239 -0.7700
  181SLPC  H11B20611   3.595   4.060   2.900  0.9454 -0.0456  0.4118
  181SLPC     P20612   3.781   3.901   2.770 -0.1019  0.0492  0.2114
  181SLPC   O1320613   3.779   3.787   2.674 -1.3315  0.6597 -0.2621
  181SLPC   O1420614   3.911   3.960   2.805 -0.2816  0.4405 -0.5308
  181SLPC   O1220615   3.682   4.011   2.722 -0.0065 -0.0409 -0.2608
  181SLPC   O1120616   3.714   3.848   2.900  0.8558  0.3039 -0.2617
  181SLPC    C120617   3.614   3.746   2.901 -0.3861  0.4241  0.2319
  181SLPC    HA20618   3.516   3.796   2.883 -0.9855 -0.5465  0.7291
  181SLPC    HB20619   3.641   3.667   2.828  0.9998 -0.2415  1.4052
  181SLPC    C220620   3.604   3.684   3.042 -0.3838  0.4215  0.5159
  181SLPC    HS20621   3.506   3.633   3.036  0.0323 -0.3522  0.0512
  181SLPC   O2120622   3.597   3.780   3.141 -0.0488 -0.6314 -0.3000
  181SLPC   C2120623   3.513   3.879   3.141  0.1202 -0.1872 -0.0133
  181SLPC   O2220624   3.423   3.894   3.060 -0.1209 -0.3520  0.0617
  181SLPC   C2220625   3.534   3.979   3.253  0.7530 -0.3562  0.1950
  181SLPC   H2R20626   3.627   4.031   3.220  0.4707 -0.9504 -1.6291
  181SLPC   H2S20627   3.448   4.049   3.259  2.3367  1.7241  0.1856
  181SLPC    C320628   3.707   3.572   3.075  0.1458 -0.4866  0.1076
  181SLPC    HX20629   3.805   3.623   3.085  0.4188 -0.8278 -0.7593
  181SLPC    HY20630   3.711   3.497   2.993  0.5253  1.5466 -1.8014
  181SLPC   O3120631   3.690   3.507   3.206 -0.3993  0.3039  0.6380
  181SLPC   C3120632   3.582   3.426   3.209  0.0088  0.2747 -0.3131
  181SLPC   O3220633   3.504   3.416   3.119  0.1759 -0.0548  0.1848
  181SLPC   C3220634   3.580   3.358   3.344  0.2581 -0.4382  0.0817
  181SLPC   H2X20635   3.679   3.352   3.395  0.8763  1.7238 -0.7429
  181SLPC   H2Y20636   3.547   3.254   3.326 -0.5860 -0.2463  0.4697
  181SLPC   C2320637   3.567   3.923   3.398  0.0381  0.8248  0.2890
  181SLPC   H3R20638   3.647   3.847   3.388 -2.3980 -2.3479  2.6243
  181SLPC   H3S20639   3.480   3.869   3.442 -0.0796 -0.6675 -1.6621
  181SLPC   C2420640   3.612   4.031   3.498 -0.3555 -0.4343  0.2737
  181SLPC   H4R20641   3.525   4.095   3.522  0.0305  0.2917 -0.2319
  181SLPC   H4S20642   3.691   4.097   3.456 -1.8865  1.0080 -0.4305
  181SLPC   C2520643   3.657   3.955   3.628 -0.1677 -0.6599 -0.1665
  181SLPC   H5R20644   3.756   3.905   3.616 -0.6512 -1.1978 -2.4932
  181SLPC   H5S20645   3.589   3.868   3.636  0.2265 -0.9423  0.1348
  181SLPC   C2620646   3.652   4.039   3.749 -0.2503  0.5195  0.9490
  181SLPC   H6R20647   3.547   4.075   3.752 -1.1620 -1.9234  0.2433
  181SLPC   H6S20648   3.717   4.130   3.744 -1.1905  1.1480 -1.1062
  181SLPC   C2720649   3.688   3.963   3.870  0.3886  0.3840  0.1983
  181SLPC   H7R20650   3.793   3.938   3.845  0.8998  2.3210  0.2991
  181SLPC   H7S20651   3.626   3.874   3.896 -0.2589  1.7364  3.9599
  181SLPC   C2820652   3.696   4.052   3.996 -0.4046  0.5182  0.6934
  181SLPC   H8R20653   3.779   4.119   3.963  0.8723 -1.5482 -0.4682
  181SLPC   H8S20654   3.737   4.000   4.085 -1.1733 -2.8115 -0.7709
  181SLPC   C2920655   3.565   4.125   4.035 -0.0673 -0.3912 -0.9403
  181SLPC   H9R20656   3.544   4.212   3.971  0.5813  1.6153  1.4142
  181SLPC  C21020657   3.491   4.098   4.144 -0.2526  0.0792 -0.2794
  181SLPC  H10R20658   3.400   4.153   4.172  1.9642  3.6510  0.5205
  181SLPC  C21120659   3.520   3.986   4.243  0.0414 -0.3826 -0.2713
  181SLPC  H11R20660   3.571   3.901   4.193  0.8706  0.3847 -0.7547
  181SLPC  H11S20661   3.423   3.937   4.266  0.0782 -0.4632 -0.2873
  181SLPC  C21220662   3.595   4.041   4.367  0.0192 -0.4211  0.2952
  181SLPC  H12R20663   3.664   4.122   4.338 -1.6397  0.4033 -1.5993
  181SLPC  C21320664   3.577   4.006   4.497 -0.4304  0.7493 -0.4055
  181SLPC  H13R20665   3.641   4.049   4.575 -0.7307  0.2634  0.1168
  181SLPC  C21420666   3.469   3.902   4.542  0.9373  0.4883  0.2843
  181SLPC  H14R20667   3.509   3.799   4.558  0.3764  0.3524  0.8534
  181SLPC  H14S20668   3.390   3.889   4.465 -1.3183  0.1834  2.5110
  181SLPC  C21520669   3.381   3.929   4.664  0.2374  0.1370 -0.4866
  181SLPC  H15R20670   3.323   3.835   4.673  0.8321 -0.0315  2.4880
  181SLPC  H15S20671   3.314   4.014   4.643  0.4972  0.5074  0.1609
  181SLPC  C21620672   3.449   3.952   4.795 -0.3559  0.0903 -0.9437
  181SLPC  H16R20673   3.514   4.043   4.790  0.7796 -0.6161  0.3367
  181SLPC  H16S20674   3.514   3.866   4.819  0.3525  1.0116  0.5989
  181SLPC  C21720675   3.354   3.981   4.918  0.1024  0.4970  0.3444
  181SLPC  H17R20676   3.297   3.891   4.950  0.9731 -0.2311 -0.1051
  181SLPC  H17S20677   3.282   4.057   4.883 -1.7934 -0.7832  1.3127
  181SLPC  C21820678   3.431   4.030   5.043 -0.4920  0.1907  0.4167
  181SLPC  H18R20679   3.520   3.969   5.070 -0.7974 -0.4557 -0.0149
  181SLPC  H18S20680   3.361   4.043   5.128 -2.0945  1.2339 -0.9908
  181SLPC  H18T20681   3.477   4.125   5.008  0.1092  0.8341  2.7891
  181SLPC   C3320682   3.468   3.424   3.435 -0.5469 -0.2075  0.5790
  181SLPC   H3X20683   3.456   3.346   3.514  0.4166 -2.6751 -1.5698
  181SLPC   H3Y20684   3.371   3.423   3.381 -0.0134  0.8436 -0.4375
  181SLPC   C3420685   3.496   3.568   3.477 -0.1127 -0.0056  0.2354
  181SLPC   H4X20686   3.464   3.632   3.393 -2.4180 -2.1696 -0.6554
  181SLPC   H4Y20687   3.604   3.593   3.470 -0.6120  2.8333  1.3249
  181SLPC   C3520688   3.437   3.617   3.608  0.5192  0.4934 -0.0365
  181SLPC   H5X20689   3.336   3.576   3.632  1.6235 -0.8729  2.6171
  181SLPC   H5Y20690   3.427   3.728   3.609 -0.7746  0.3910  0.5752
  181SLPC   C3620691   3.519   3.579   3.728 -0.0896 -0.2615 -0.5576
  181SLPC   H6X20692   3.611   3.642   3.735 -0.1873 -0.0384 -1.2216
  181SLPC   H6Y20693   3.540   3.470   3.723 -1.5803 -0.9573  3.8787
  181SLPC   C3720694   3.432   3.601   3.846  0.1363 -0.4744 -0.7615
  181SLPC   H7X20695   3.338   3.541   3.843 -0.3856  0.3128 -0.3174
  181SLPC   H7Y20696   3.404   3.708   3.841  1.2148 -0.1718 -0.6184
  181SLPC   C3820697   3.507   3.574   3.984 -0.3977 -0.7052  1.1257
  181SLPC   H8X20698   3.613   3.608   3.985  0.3467 -2.3153 -2.7654
  181SLPC   H8Y20699   3.508   3.463   3.987  0.6352 -0.7069  1.1562
  181SLPC   C3920700   3.432   3.623   4.112 -0.4451 -0.0219 -0.5708
  181SLPC   H9X20701   3.324   3.597   4.115 -0.5474  0.3188  2.5398
  181SLPC   H9Y20702   3.438   3.734   4.103  2.8772  0.0468  0.8573
  181SLPC  C31020703   3.503   3.580   4.244 -0.3195 -0.1151 -0.0947
  181SLPC  H10X20704   3.588   3.650   4.258 -2.2886  2.1428  1.5364
  181SLPC  H10Y20705   3.540   3.476   4.233 -3.3783 -1.2850 -0.3728
  181SLPC  C31120706   3.407   3.580   4.357  0.0409  0.1774 -0.5543
  181SLPC  H11X20707   3.305   3.547   4.328  0.2810  0.8092 -2.2157
  181SLPC  H11Y20708   3.385   3.686   4.385  0.4098  0.0749  0.1355
  181SLPC  C31220709   3.442   3.501   4.484  0.6545 -0.2704 -0.3916
  181SLPC  H12X20710   3.532   3.551   4.525  0.6332  0.7541 -1.5287
  181SLPC  H12Y20711   3.466   3.395   4.458 -1.0367 -0.9973  0.8066
  181SLPC  C31320712   3.325   3.501   4.585 -0.6423  0.5161  0.5630
  181SLPC  H13X20713   3.238   3.449   4.538 -1.8113  1.0641  2.0455
  181SLPC  H13Y20714   3.299   3.607   4.605 -0.0285  0.5079  1.4423
  181SLPC  C31420715   3.355   3.425   4.718  0.2897 -0.0217  0.0428
  181SLPC  H14X20716   3.408   3.328   4.707 -0.9047 -0.4957 -2.2644
  181SLPC  H14Y20717   3.264   3.393   4.773 -0.1075 -0.8502 -1.0667
  181SLPC  C31520718   3.440   3.525   4.798 -0.4420  0.1798 -0.5794
  181SLPC  H15X20719   3.373   3.606   4.834 -1.0183  0.1628 -1.5674
  181SLPC  H15Y20720   3.516   3.575   4.734  1.2069 -0.1295  1.0619
  181SLPC  C31620721   3.517   3.458   4.922 -0.2591 -0.5144  0.0371
  181SLPC  H16X20722   3.585   3.385   4.874 -0.3772  0.1381 -1.1515
  181SLPC  H16Y20723   3.443   3.402   4.983  1.6275 -1.4752  1.5334
  181SLPC  C31720724   3.584   3.555   5.017 -0.7115 -0.0098  0.5086
  181SLPC  H17X20725   3.571   3.506   5.116 -1.8596  1.0142  0.8950
  181SLPC  H17Y20726   3.531   3.653   5.016  1.1482  1.0500 -0.2412
  181SLPC  C31820727   3.737   3.583   4.984  0.4400 -0.1227  0.3687
  181SLPC  H18X20728   3.814   3.504   4.998  2.4375  1.6084 -0.3682
  181SLPC  H18Y20729   3.771   3.682   5.022  2.0707 -0.9903  1.2548
  181SLPC  H18Z20730   3.734   3.586   4.873  2.9494  3.2804  0.2223
  182SLPC     N20731   4.831   1.635   2.576  0.3069  0.1830  0.1859
  182SLPC   C1320732   4.720   1.533   2.584 -0.0026  1.0959 -0.0578
  182SLPC  H13A20733   4.720   1.507   2.689  1.5018  1.5753  0.0786
  182SLPC  H13B20734   4.623   1.568   2.550 -0.3519  0.5054  0.3088
  182SLPC  H13C20735   4.746   1.446   2.525  2.1038  1.1782  0.6862
  182SLPC   C1420736   4.793   1.734   2.470  0.6945  0.3980 -0.3311
  182SLPC  H14A20737   4.865   1.814   2.470  2.1363 -0.8162 -2.3393
  182SLPC  H14B20738   4.792   1.689   2.372 -2.7975 -1.0519  0.2279
  182SLPC  H14C20739   4.695   1.773   2.491  0.6703  0.1134  0.0991
  182SLPC   C1520740   4.955   1.554   2.546 -0.1145 -0.1962 -0.1513
  182SLPC  H15A20741   5.037   1.621   2.521 -1.0214  0.3052 -1.9898
  182SLPC  H15B20742   4.974   1.480   2.621 -0.8757 -0.7138 -0.4610
  182SLPC  H15C20743   4.928   1.502   2.455 -2.0121  0.1342  0.1883
  182SLPC   C1220744   4.853   1.690   2.718 -0.3602 -0.4259  0.0240
  182SLPC  H12A20745   4.891   1.609   2.777  3.0665 -0.9365 -2.5658
  182SLPC  H12B20746   4.763   1.732   2.761 -1.8384 -2.9074 -0.4801
  182SLPC   C1120747   4.959   1.802   2.734  0.4725  0.6795  0.2935
  182SLPC  H11A20748   5.054   1.776   2.683  1.1681 -0.0933  1.9206
  182SLPC  H11B20749   4.982   1.812   2.842 -1.1884 -1.5809  0.9348
  182SLPC     P20750   4.806   2.000   2.772  0.2000 -0.0407  0.7049
  182SLPC   O1320751   4.761   2.112   2.692 -0.1963  0.1468  0.1356
  182SLPC   O1420752   4.706   1.907   2.822  0.7986 -0.4140 -0.1146
  182SLPC   O1220753   4.906   1.923   2.683 -0.0054 -0.5083  0.3060
  182SLPC   O1120754   4.899   2.072   2.881  0.1786 -0.3071 -0.0788
  182SLPC    C120755   4.977   2.188   2.842  0.5206  0.1717  0.6618
  182SLPC    HA20756   5.082   2.182   2.876  1.4808 -0.2256 -2.1772
  182SLPC    HB20757   4.982   2.206   2.733 -1.2185 -0.2407  0.4776
  182SLPC    C220758   4.915   2.308   2.919  0.1095 -0.4347  0.3052
  182SLPC    HS20759   4.977   2.398   2.904  1.6579 -1.4279  0.4839
  182SLPC   O2120760   4.904   2.287   3.060  0.2775 -0.0997 -0.5410
  182SLPC   C2120761   5.014   2.306   3.138  0.2692  0.4024  0.1698
  182SLPC   O2220762   5.114   2.356   3.092  0.2621  0.2385 -0.1801
  182SLPC   C2220763   4.978   2.279   3.286 -0.1646 -0.1102  0.5538
  182SLPC   H2R20764   4.908   2.359   3.318 -0.2870  0.7455 -1.6989
  182SLPC   H2S20765   4.922   2.183   3.299  2.5623 -1.7040  1.4112
  182SLPC    C320766   4.774   2.355   2.865  0.6121  0.6084 -0.4128
  182SLPC    HX20767   4.721   2.258   2.878  1.2141  0.1131 -1.4852
  182SLPC    HY20768   4.787   2.372   2.756 -2.7141  1.5812 -0.7674
  182SLPC   O3120769   4.716   2.468   2.927  1.1219  0.1072  0.3443
  182SLPC   C3120770   4.629   2.445   3.027 -0.7821  0.5395 -0.1090
  182SLPC   O3220771   4.584   2.341   3.063 -0.4458  0.2898 -0.2693
  182SLPC   C3220772   4.604   2.577   3.101  0.3621 -0.5455  0.1499
  182SLPC   H2X20773   4.521   2.622   3.041 -0.9976 -1.3437  1.3742
  182SLPC   H2Y20774   4.688   2.649   3.094 -0.4602  0.7257  2.3594
  182SLPC   C2320775   5.103   2.270   3.385  0.4574 -0.8793  0.0916
  182SLPC   H3R20776   5.164   2.359   3.357  1.1521 -0.9217  1.3823
  182SLPC   H3S20777   5.153   2.175   3.357 -0.5641 -1.0626 -1.2112
  182SLPC   C2420778   5.066   2.293   3.533  0.2611  0.2092 -0.1256
  182SLPC   H4R20779   5.009   2.206   3.574  1.4023 -0.3886  0.2407
  182SLPC   H4S20780   5.012   2.389   3.548 -1.1634 -0.6067  0.1585
  182SLPC   C2520781   5.189   2.298   3.627  0.1128  0.6137  0.1171
  182SLPC   H5R20782   5.248   2.385   3.590  2.5388 -0.7742  0.5690
  182SLPC   H5S20783   5.251   2.209   3.604 -1.9797 -0.5786 -1.3174
  182SLPC   C2620784   5.145   2.293   3.774 -0.6561 -0.3532 -0.2161
  182SLPC   H6R20785   5.237   2.275   3.834 -0.5518 -0.1789 -0.3224
  182SLPC   H6S20786   5.072   2.211   3.788 -1.2980  0.5574  2.1426
  182SLPC   C2720787   5.086   2.421   3.823 -0.2856 -0.2824 -0.1950
  182SLPC   H7R20788   4.988   2.431   3.771 -0.3967 -1.6852 -0.2880
  182SLPC   H7S20789   5.139   2.510   3.784 -2.2167  1.2159  0.4208
  182SLPC   C2820790   5.076   2.431   3.976 -0.7336 -0.8166  0.0048
  182SLPC   H8R20791   5.048   2.537   3.997 -3.5788 -1.3880 -0.5275
  182SLPC   H8S20792   5.181   2.411   4.005 -0.2759 -0.3984 -1.2753
  182SLPC   C2920793   4.971   2.340   4.040 -0.2872 -0.2346 -0.5719
  182SLPC   H9R20794   4.902   2.301   3.964  0.8068 -1.4224 -0.9734
  182SLPC  C21020795   4.968   2.314   4.174  0.3487 -0.0870  0.4230
  182SLPC  H10R20796   4.892   2.245   4.214  0.2865 -0.6697 -0.6632
  182SLPC  C21120797   5.075   2.356   4.271 -0.7347 -0.1286 -0.6234
  182SLPC  H11R20798   5.160   2.406   4.220 -0.8646  0.5448 -0.1963
  182SLPC  H11S20799   5.125   2.271   4.321  0.0332 -0.7891 -2.4677
  182SLPC  C21220800   5.023   2.465   4.366  0.0373 -0.7302  0.5888
  182SLPC  H12R20801   4.984   2.552   4.310 -2.2940 -2.3066 -0.3974
  182SLPC  C21320802   5.022   2.476   4.498 -0.3785 -0.1666  0.1882
  182SLPC  H13R20803   4.966   2.557   4.547 -0.3021  1.0272 -1.5968
  182SLPC  C21420804   5.077   2.378   4.596  0.1503  1.0764  0.4348
  182SLPC  H14R20805   5.145   2.308   4.544  0.9309  1.1071  1.3915
  182SLPC  H14S20806   4.997   2.304   4.617  1.1895 -0.3492 -0.5046
  182SLPC  C21520807   5.128   2.442   4.725 -0.6795  0.2135 -0.0834
  182SLPC  H15R20808   5.204   2.518   4.697  1.7301 -1.8995  0.3602
  182SLPC  H15S20809   5.187   2.365   4.779 -1.7781  0.6337  1.8146
  182SLPC  C21620810   5.026   2.499   4.821 -0.3355  0.0711 -1.0906
  182SLPC  H16R20811   4.943   2.427   4.834  0.5295 -0.6541  0.8884
  182SLPC  H16S20812   4.978   2.589   4.777 -0.7193 -0.0543 -0.9286
  182SLPC  C21720813   5.077   2.534   4.972  0.1190  0.1179 -0.0824
  182SLPC  H17R20814   5.143   2.623   4.972 -0.8908  1.0288  3.4544
  182SLPC  H17S20815   5.136   2.443   4.998  0.5656  0.2815 -0.5025
  182SLPC  C21820816   4.963   2.548   5.071  0.2697 -0.1396 -0.4184
  182SLPC  H18R20817   4.891   2.463   5.075 -1.7749  1.5218  1.8493
  182SLPC  H18S20818   4.909   2.643   5.047  2.3385 -0.0536 -6.1989
  182SLPC  H18T20819   4.994   2.544   5.178 -0.2720 -0.8401 -0.2779
  182SLPC   C3320820   4.549   2.566   3.242 -0.4609  0.0903 -0.0602
  182SLPC   H3X20821   4.459   2.502   3.238  0.3707 -1.1709  0.7063
  182SLPC   H3Y20822   4.500   2.662   3.269  0.8905  0.5575  0.8535
  182SLPC   C3420823   4.646   2.514   3.347  0.7680 -0.5362  0.6249
  182SLPC   H4X20824   4.744   2.565   3.335 -0.3279  1.4715 -0.3409
  182SLPC   H4Y20825   4.666   2.405   3.339 -1.3765 -0.8821 -0.8621
  182SLPC   C3520826   4.587   2.545   3.486  0.3679 -0.0582  0.4803
  182SLPC   H5X20827   4.494   2.493   3.516  0.2002  0.3434  0.6697
  182SLPC   H5Y20828   4.557   2.652   3.492  0.6975  0.0670 -0.0449
  182SLPC   C3620829   4.684   2.521   3.603  0.5605 -0.1815  0.1744
  182SLPC   H6X20830   4.772   2.577   3.564 -0.9178  0.7845 -1.9416
  182SLPC   H6Y20831   4.700   2.411   3.603 -1.2724 -0.4847  1.9323
  182SLPC   C3720832   4.623   2.578   3.735 -0.7008  0.3343  0.7720
  182SLPC   H7X20833   4.524   2.530   3.748 -0.4067 -0.4223  0.3007
  182SLPC   H7Y20834   4.594   2.683   3.713 -2.9459 -0.6915 -1.7051
  182SLPC   C3820835   4.701   2.562   3.861 -0.1344 -0.0769  0.2864
  182SLPC   H8X20836   4.806   2.599   3.856 -0.4109  0.6778 -0.1819
  182SLPC   H8Y20837   4.699   2.456   3.894 -3.8255 -0.0129  0.7393
  182SLPC   C3920838   4.631   2.628   3.980 -0.0432 -0.3536 -0.6036
  182SLPC   H9X20839   4.527   2.590   3.986  0.3202 -1.4531 -0.9178
  182SLPC   H9Y20840   4.635   2.738   3.967  1.2079 -0.0778  1.5900
  182SLPC  C31020841   4.685   2.595   4.115  0.3884  0.1861 -0.3530
  182SLPC  H10X20842   4.792   2.621   4.121  0.3900  1.3768 -3.3952
  182SLPC  H10Y20843   4.678   2.486   4.135  1.3740 -0.0161 -1.0442
  182SLPC  C31120844   4.622   2.666   4.237  0.2480 -0.0433 -0.1225
  182SLPC  H11X20845   4.511   2.659   4.227  0.4936 -0.8659 -3.2477
  182SLPC  H11Y20846   4.649   2.774   4.233  1.0625 -0.1856  1.1934
  182SLPC  C31220847   4.665   2.617   4.380  0.7059  0.0666  0.0368
  182SLPC  H12X20848   4.771   2.649   4.393  0.2301  2.4120 -1.3754
  182SLPC  H12Y20849   4.640   2.509   4.377 -1.5134  0.5220  0.6861
  182SLPC  C31320850   4.576   2.682   4.487 -0.4003  0.3383 -0.0032
  182SLPC  H13X20851   4.466   2.687   4.471 -0.4151 -1.3779 -0.6742
  182SLPC  H13Y20852   4.608   2.789   4.486 -0.6097  0.4294  1.6774
  182SLPC  C31420853   4.600   2.636   4.627 -0.1798  0.3894 -0.4668
  182SLPC  H14X20854   4.704   2.654   4.663 -0.7019 -1.1484  2.0504
  182SLPC  H14Y20855   4.569   2.529   4.618 -2.9410  1.0830 -0.0807
  182SLPC  C31520856   4.515   2.698   4.733  0.2167 -0.8433  0.2498
  182SLPC  H15X20857   4.406   2.677   4.723 -0.0495  1.0894 -1.5354
  182SLPC  H15Y20858   4.519   2.808   4.718 -2.0047 -0.5922  1.0693
  182SLPC  C31620859   4.573   2.679   4.870 -0.1810 -0.4350 -0.3058
  182SLPC  H16X20860   4.683   2.693   4.873 -0.0909 -0.2779 -2.7169
  182SLPC  H16Y20861   4.557   2.571   4.894  2.0098 -0.4417  1.5215
  182SLPC  C31720862   4.510   2.767   4.978 -0.1090  0.0567  0.3231
  182SLPC  H17X20863   4.411   2.721   4.998 -0.1978  0.9645  2.2726
  182SLPC  H17Y20864   4.479   2.871   4.955  0.3547  0.8736  2.9666
  182SLPC  C31820865   4.582   2.787   5.115 -0.1223 -0.3864 -1.0427
  182SLPC  H18X20866   4.529   2.859   5.181  1.4461  0.6693 -0.8734
  182SLPC  H18Y20867   4.682   2.827   5.088 -0.3885 -0.3830 -2.0448
  182SLPC  H18Z20868   4.599   2.689   5.165  0.1546 -0.2316 -0.8294
  183SLPC     N20869   2.770   1.468   2.735  0.0828 -0.4161 -0.7899
  183SLPC   C1320870   2.639   1.535   2.704  0.0760 -0.5969  0.5794
  183SLPC  H13A20871   2.639   1.633   2.751 -0.5842 -0.5898  0.5613
  183SLPC  H13B20872   2.629   1.549   2.598 -0.5859 -1.4511  0.5231
  183SLPC  H13C20873   2.555   1.482   2.745  0.2660  0.7845  2.9901
  183SLPC   C1420874   2.785   1.489   2.884 -0.2522  0.3213  0.3692
  183SLPC  H14A20875   2.711   1.430   2.937 -1.1895  0.5747 -0.6099
  183SLPC  H14B20876   2.879   1.442   2.909  0.8439  1.0093 -2.1913
  183SLPC  H14C20877   2.782   1.591   2.918 -0.8680  0.0569  1.1372
  183SLPC   C1520878   2.875   1.544   2.675 -0.4886 -0.9514 -0.3682
  183SLPC  H15A20879   2.972   1.497   2.675 -0.3399 -0.6515 -0.3786
  183SLPC  H15B20880   2.850   1.555   2.570  0.7973 -1.4839 -0.7445
  183SLPC  H15C20881   2.878   1.641   2.724 -3.2702 -0.4971 -0.8894
  183SLPC   C1220882   2.772   1.315   2.706  0.6160  0.2594  0.0222
  183SLPC  H12A20883   2.741   1.297   2.604  0.1800  1.4238 -0.0705
  183SLPC  H12B20884   2.701   1.265   2.770 -0.4646  1.3917 -0.2417
  183SLPC   C1120885   2.907   1.245   2.735 -0.2558  0.7151  0.1454
  183SLPC  H11A20886   2.991   1.299   2.686  0.6963 -0.5288  0.3383
  183SLPC  H11B20887   2.904   1.145   2.688  0.0007  0.8532 -0.1704
  183SLPC     P20888   3.079   1.241   2.939 -0.3151  0.2266  0.0036
  183SLPC   O1320889   3.133   1.099   2.946  0.1181  0.0336 -0.0720
  183SLPC   O1420890   3.163   1.335   2.864 -0.0245 -0.4334  0.2253
  183SLPC   O1220891   2.934   1.238   2.872 -0.2614  0.1624 -0.2614
  183SLPC   O1120892   3.040   1.295   3.081  0.3181 -0.5336  0.1554
  183SLPC    C120893   3.034   1.435   3.115 -0.0573 -0.2824 -0.3073
  183SLPC    HA20894   3.051   1.507   3.031 -2.6286  0.6004 -0.1630
  183SLPC    HB20895   2.938   1.461   3.164  0.5702 -2.2646  2.1885
  183SLPC    C220896   3.152   1.471   3.223 -0.1980 -0.3786 -0.0984
  183SLPC    HS20897   3.256   1.444   3.194 -0.7813 -0.8629 -1.9184
  183SLPC   O2120898   3.122   1.405   3.346  0.1184  0.0175 -0.2115
  183SLPC   C2120899   3.172   1.284   3.361 -0.2291  0.4643 -0.3429
  183SLPC   O2220900   3.234   1.221   3.277  0.5387  0.7405 -0.5408
  183SLPC   C2220901   3.156   1.230   3.505  0.2624  0.0074 -0.1333
  183SLPC   H2R20902   3.109   1.308   3.568  0.8376  1.3687 -1.3462
  183SLPC   H2S20903   3.085   1.144   3.505 -1.0580  1.0601 -0.3454
  183SLPC    C320904   3.152   1.620   3.235  0.2733 -0.5992 -0.5278
  183SLPC    HX20905   3.053   1.671   3.237  1.1752  1.2596 -1.0713
  183SLPC    HY20906   3.188   1.659   3.138  0.3742 -1.0666 -0.6816
  183SLPC   O3120907   3.238   1.676   3.336  0.4463  0.2491 -0.4767
  183SLPC   C3120908   3.185   1.669   3.462  0.4930 -0.0095 -0.0339
  183SLPC   O3220909   3.061   1.651   3.479 -0.1950  0.1948  0.3957
  183SLPC   C3220910   3.294   1.690   3.562 -0.3685  0.1866  0.0271
  183SLPC   H2X20911   3.390   1.667   3.512 -0.1890  0.8552  0.0540
  183SLPC   H2Y20912   3.274   1.612   3.639 -0.1175 -0.3311 -0.4270
  183SLPC   C2320913   3.283   1.206   3.576  0.5172 -0.5857  0.2361
  183SLPC   H3R20914   3.325   1.300   3.619 -0.8389 -1.0458  2.7369
  183SLPC   H3S20915   3.363   1.169   3.508 -0.2204  0.7406 -1.4377
  183SLPC   C2420916   3.272   1.129   3.714 -0.2970 -0.0325  0.6404
  183SLPC   H4R20917   3.376   1.121   3.750  0.0781 -1.0347 -0.5859
  183SLPC   H4S20918   3.224   1.031   3.690 -1.3625  0.4001  0.9591
  183SLPC   C2520919   3.176   1.198   3.812  0.0437 -0.7743  0.2401
  183SLPC   H5R20920   3.077   1.213   3.764  0.2175 -2.7661 -0.8378
  183SLPC   H5S20921   3.220   1.296   3.840  0.9818 -1.0263 -0.2910
  183SLPC   C2620922   3.142   1.134   3.952  0.3262 -0.3623 -0.4460
  183SLPC   H6R20923   3.101   1.031   3.944  1.2965 -0.6312 -2.6107
  183SLPC   H6S20924   3.064   1.204   3.988  0.4491 -0.4092 -0.0816
  183SLPC   C2720925   3.258   1.115   4.051  0.4043 -0.5836  0.0918
  183SLPC   H7R20926   3.308   1.212   4.072 -1.2677  1.0038 -2.7065
  183SLPC   H7S20927   3.340   1.055   4.005  0.3041 -2.5872  2.3294
  183SLPC   C2820928   3.214   1.041   4.186  0.6667  1.0001  0.4943
  183SLPC   H8R20929   3.284   0.955   4.189  0.4458  0.8168  0.4026
  183SLPC   H8S20930   3.113   1.001   4.162  1.1143  0.4859 -0.5695
  183SLPC   C2920931   3.212   1.133   4.306  0.1124 -0.6861 -0.1701
  183SLPC   H9R20932   3.119   1.190   4.312 -0.0082 -1.0060  1.6972
  183SLPC  C21020933   3.302   1.150   4.405  0.3109  0.3475 -0.6644
  183SLPC  H10R20934   3.279   1.219   4.487  1.0240 -0.9865  0.6974
  183SLPC  C21120935   3.435   1.081   4.407  0.2511  0.3128  0.4942
  183SLPC  H11R20936   3.440   1.011   4.321 -1.3331 -0.1307  0.7331
  183SLPC  H11S20937   3.460   1.023   4.498  2.4440  0.3237 -0.0314
  183SLPC  C21220938   3.551   1.173   4.378 -0.1224  0.2432 -0.4453
  183SLPC  H12R20939   3.538   1.245   4.295  1.0103  2.7058  1.4024
  183SLPC  C21320940   3.672   1.174   4.434 -0.0090 -0.0280  0.1864
  183SLPC  H13R20941   3.740   1.255   4.404  1.5718 -2.2453 -2.7598
  183SLPC  C21420942   3.725   1.084   4.549  0.1512 -0.1649  0.2301
  183SLPC  H14R20943   3.825   1.045   4.521  0.4657  0.9084 -0.1791
  183SLPC  H14S20944   3.652   1.001   4.565 -2.0197  1.2741 -1.4732
  183SLPC  C21520945   3.731   1.162   4.680 -0.0649 -0.9623 -0.6573
  183SLPC  H15R20946   3.630   1.202   4.700 -0.6228 -2.8475  0.5674
  183SLPC  H15S20947   3.804   1.244   4.663 -3.5377  2.0762 -2.1835
  183SLPC  C21620948   3.784   1.075   4.797  0.8042 -0.1026 -0.3190
  183SLPC  H16R20949   3.863   1.007   4.759  0.2624 -0.7073 -0.3852
  183SLPC  H16S20950   3.701   1.007   4.826  0.3728  0.9547  0.9792
  183SLPC  C21720951   3.835   1.146   4.922 -0.5443  0.8121  0.1427
  183SLPC  H17R20952   3.741   1.201   4.944 -1.3861 -0.4466 -0.1996
  183SLPC  H17S20953   3.904   1.230   4.899 -1.7784  1.6744 -0.5175
  183SLPC  C21820954   3.861   1.057   5.046  0.0669 -0.2116  0.2575
  183SLPC  H18R20955   3.789   0.972   5.056  1.0968 -1.0774  0.5854
  183SLPC  H18S20956   3.846   1.122   5.135  1.2952 -2.0383  1.8888
  183SLPC  H18T20957   3.962   1.010   5.042 -0.2656 -0.8913 -0.4700
  183SLPC   C3320958   3.290   1.824   3.632 -0.2760 -0.7937  0.3958
  183SLPC   H3X20959   3.183   1.843   3.657 -1.1076 -2.3791 -1.6029
  183SLPC   H3Y20960   3.313   1.898   3.553  1.2227 -1.2209  0.4062
  183SLPC   C3420961   3.381   1.818   3.751 -0.6248 -0.1838 -0.0754
  183SLPC   H4X20962   3.485   1.816   3.712  0.2605  1.7826  2.0085
  183SLPC   H4Y20963   3.362   1.721   3.801  0.5393 -0.5234 -0.2588
  183SLPC   C3520964   3.372   1.923   3.859  0.7927 -0.0217  0.0890
  183SLPC   H5X20965   3.265   1.951   3.866  0.1618 -2.1889 -0.1969
  183SLPC   H5Y20966   3.428   1.999   3.800 -0.5098 -0.8992 -2.4556
  183SLPC   C3620967   3.440   1.887   3.988 -0.1926  0.6255 -0.2590
  183SLPC   H6X20968   3.544   1.855   3.965  0.7331  2.7315  0.7538
  183SLPC   H6Y20969   3.390   1.802   4.039  0.1092 -0.3318 -1.4999
  183SLPC   C3720970   3.446   2.001   4.086  0.5979  0.0890  0.4427
  183SLPC   H7X20971   3.506   2.085   4.045  0.5365  1.0874  2.2901
  183SLPC   H7Y20972   3.515   1.972   4.168  2.2703 -2.0115 -1.5439
  183SLPC   C3820973   3.314   2.047   4.147 -0.6540 -0.2228  0.1084
  183SLPC   H8X20974   3.282   1.966   4.216 -2.2173 -0.1036 -0.4376
  183SLPC   H8Y20975   3.234   2.056   4.070 -2.0977 -1.8669  1.3321
  183SLPC   C3920976   3.323   2.184   4.212 -0.2708 -0.3354  0.0332
  183SLPC   H9X20977   3.227   2.221   4.254 -0.6495 -0.7212 -0.4864
  183SLPC   H9Y20978   3.358   2.259   4.138  1.4674  1.0423  2.1113
  183SLPC  C31020979   3.432   2.192   4.323  1.3310 -0.3779  0.5640
  183SLPC  H10X20980   3.463   2.297   4.340  0.5858 -0.0121 -0.3226
  183SLPC  H10Y20981   3.524   2.137   4.292  1.3552 -0.8870  1.5034
  183SLPC  C31120982   3.378   2.145   4.458 -0.5416 -0.0337 -0.5404
  183SLPC  H11X20983   3.338   2.042   4.456  0.0835 -0.2999  0.0360
  183SLPC  H11Y20984   3.293   2.213   4.480 -0.5285 -0.3228  0.4390
  183SLPC  C31220985   3.485   2.164   4.567  0.5775 -0.0078  0.9758
  183SLPC  H12X20986   3.501   2.274   4.575 -0.8390  0.2675  0.3977
  183SLPC  H12Y20987   3.583   2.115   4.547  0.3669 -0.5244  1.2035
  183SLPC  C31320988   3.429   2.120   4.708  0.9341  0.2325  0.6694
  183SLPC  H13X20989   3.401   2.013   4.707 -2.8033  1.0758  0.9032
  183SLPC  H13Y20990   3.330   2.169   4.719  0.8499  0.5981 -1.3506
  183SLPC  C31420991   3.525   2.165   4.813 -0.1971  0.2942 -0.9845
  183SLPC  H14X20992   3.615   2.101   4.823  0.1895  1.0024  0.3007
  183SLPC  H14Y20993   3.467   2.139   4.904 -1.5693  1.7163 -1.4066
  183SLPC  C31520994   3.584   2.303   4.814  0.8233  0.1111 -0.4800
  183SLPC  H15X20995   3.507   2.376   4.781 -0.1537  0.4543  2.2796
  183SLPC  H15Y20996   3.673   2.315   4.748  1.8256 -1.0956  0.6049
  183SLPC  C31620997   3.633   2.342   4.959  0.3866  0.1122  0.0608
  183SLPC  H16X20998   3.571   2.301   5.042  0.8009 -2.9627 -1.0211
  183SLPC  H16Y20999   3.641   2.453   4.961 -0.0487  0.1482 -0.0719
  183SLPC  C31721000   3.773   2.286   4.995 -0.2146 -0.9043  0.6877
  183SLPC  H17X21001   3.853   2.341   4.942  1.3074 -2.6071  1.1030
  183SLPC  H17Y21002   3.781   2.179   4.967  0.2476 -1.0529  1.3597
  183SLPC  C31821003   3.812   2.299   5.146  0.2208 -0.0448 -0.1333
  183SLPC  H18X21004   3.804   2.407   5.172  0.1261  0.0860 -0.6982
  183SLPC  H18Y21005   3.909   2.248   5.158 -0.0125 -0.4448  0.0865
  183SLPC  H18Z21006   3.740   2.239   5.206 -0.3027 -2.4299 -2.8970
  184SLPC     N21007   5.855   2.388   2.562 -0.8070 -0.6431 -0.2293
  184SLPC   C1321008   5.829   2.523   2.492  0.8570 -0.5604 -0.7716
  184SLPC  H13A21009   5.838   2.601   2.566 -0.4424 -1.3630  0.2744
  184SLPC  H13B21010   5.894   2.542   2.408  1.6846 -0.7079 -0.1764
  184SLPC  H13C21011   5.731   2.504   2.450  0.0087  0.7560  0.5202
  184SLPC   C1421012   5.863   2.271   2.473  0.1075  0.1005 -0.5527
  184SLPC  H14A21013   5.768   2.262   2.423 -0.5636  0.5348  0.6023
  184SLPC  H14B21014   5.942   2.277   2.398  0.4613 -1.7343 -0.3648
  184SLPC  H14C21015   5.895   2.181   2.524  2.3499  0.5278 -1.0932
  184SLPC   C1521016   5.743   2.386   2.667 -0.9148 -0.1740 -0.8824
  184SLPC  H15A21017   5.748   2.476   2.727 -2.3370 -0.1548 -0.7671
  184SLPC  H15B21018   5.647   2.385   2.618 -1.6068  0.9260  0.3916
  184SLPC  H15C21019   5.769   2.304   2.731  2.4887  1.3087 -0.1406
  184SLPC   C1221020   5.986   2.408   2.641  0.3529  0.0217 -0.5481
  184SLPC  H12A21021   5.970   2.504   2.688 -1.8633  0.7138 -2.5113
  184SLPC  H12B21022   6.067   2.413   2.570 -0.7988 -2.1388 -2.1452
  184SLPC   C1121023   6.021   2.293   2.746  0.2562 -0.2134 -0.0414
  184SLPC  H11A21024   6.130   2.290   2.768  1.0352  3.4897 -2.3970
  184SLPC  H11B21025   6.015   2.192   2.699  0.9068 -0.8771  1.2573
  184SLPC     P21026   5.979   2.387   2.987  0.6039 -0.4446  0.2125
  184SLPC   O1321027   6.063   2.306   3.082  0.1052 -0.8319  0.5004
  184SLPC   O1421028   6.018   2.524   2.946 -0.1967  0.0850  0.0618
  184SLPC   O1221029   5.946   2.291   2.858  0.2575 -0.8688 -0.0176
  184SLPC   O1121030   5.836   2.405   3.058  0.0888  0.0504 -0.6071
  184SLPC    C121031   5.736   2.297   3.059 -0.4378  0.0152  0.0730
  184SLPC    HA21032   5.639   2.340   3.025  0.6527  3.6643  1.1847
  184SLPC    HB21033   5.753   2.206   2.997  0.1640  0.2918 -0.1821
  184SLPC    C221034   5.704   2.254   3.208  0.2897  0.4831  0.2973
  184SLPC    HS21035   5.647   2.159   3.207 -0.0105  0.6627 -0.3195
  184SLPC   O2121036   5.642   2.356   3.291  0.0747  0.4231 -0.3518
  184SLPC   C2121037   5.514   2.378   3.268  0.0487  0.1948  0.4571
  184SLPC   O2221038   5.446   2.325   3.177  0.3869  0.1626 -0.3698
  184SLPC   C2221039   5.459   2.480   3.366 -0.1047 -0.7166  0.4025
  184SLPC   H2R21040   5.490   2.581   3.330  2.7068 -2.1881 -1.7259
  184SLPC   H2S21041   5.348   2.482   3.372 -0.3175 -1.9699 -2.0734
  184SLPC    C321042   5.832   2.201   3.286 -0.0388 -0.1272  0.0898
  184SLPC    HX21043   5.888   2.289   3.325 -0.4235 -0.2962  1.0541
  184SLPC    HY21044   5.906   2.148   3.222 -0.1755  1.1344 -1.1742
  184SLPC   O3121045   5.786   2.116   3.392  0.0373  0.7441 -0.1133
  184SLPC   C3121046   5.794   2.161   3.517 -0.5945  0.5424 -0.2711
  184SLPC   O3221047   5.820   2.272   3.550 -0.2399  0.2714  0.1727
  184SLPC   C3221048   5.750   2.054   3.623  0.0333 -0.2637 -0.2546
  184SLPC   H2X21049   5.805   1.963   3.591 -0.3926 -0.3350 -0.7952
  184SLPC   H2Y21050   5.640   2.042   3.614  0.3173 -2.6533 -1.3143
  184SLPC   C2321051   5.516   2.477   3.504 -0.3852  0.5248 -0.2380
  184SLPC   H3R21052   5.625   2.501   3.497  0.4247 -2.8172 -0.9120
  184SLPC   H3S21053   5.520   2.372   3.540  1.5312 -0.1890 -2.2778
  184SLPC   C2421054   5.447   2.566   3.608  0.0431 -0.7306 -0.3362
  184SLPC   H4R21055   5.337   2.566   3.595 -0.2460 -2.2437  1.5804
  184SLPC   H4S21056   5.497   2.661   3.580 -0.2114 -0.8807 -1.3489
  184SLPC   C2521057   5.490   2.531   3.755 -0.2874  0.0135  0.0497
  184SLPC   H5R21058   5.574   2.459   3.742 -0.2009  0.0487  0.4095
  184SLPC   H5S21059   5.412   2.477   3.813 -0.5315  1.0495  0.7181
  184SLPC   C2621060   5.537   2.650   3.843  0.0700  0.3029 -0.0222
  184SLPC   H6R21061   5.445   2.710   3.861 -2.2553 -2.7840 -0.8026
  184SLPC   H6S21062   5.614   2.713   3.793  1.3944  0.5710  2.2040
  184SLPC   C2721063   5.609   2.604   3.973 -0.2014 -0.3827 -0.2074
  184SLPC   H7R21064   5.664   2.692   4.014  1.3998 -2.0613  1.4271
  184SLPC   H7S21065   5.698   2.542   3.948 -0.7406 -1.4433  0.4451
  184SLPC   C2821066   5.529   2.515   4.071 -0.0102  0.1422  0.0028
  184SLPC   H8R21067   5.604   2.477   4.144  2.4364 -1.2151 -3.0067
  184SLPC   H8S21068   5.491   2.422   4.022 -0.2294 -0.9953  2.1908
  184SLPC   C2921069   5.413   2.589   4.130 -0.0430 -0.3085 -0.6378
  184SLPC   H9R21070   5.352   2.645   4.057 -1.3510  0.1637  0.7873
  184SLPC  C21021071   5.381   2.605   4.261 -0.0642 -0.1325  0.2354
  184SLPC  H10R21072   5.292   2.668   4.271  0.5864  1.6834 -3.6859
  184SLPC  C21121073   5.464   2.548   4.380  0.4640 -0.7885  0.6625
  184SLPC  H11R21074   5.438   2.601   4.474  0.3460  1.5533 -0.6216
  184SLPC  H11S21075   5.569   2.568   4.352  0.4669  0.1129  1.2788
  184SLPC  C21221076   5.451   2.401   4.395 -0.5367 -0.4156 -0.9676
  184SLPC  H12R21077   5.406   2.349   4.310  0.0703 -3.0617  0.2308
  184SLPC  C21321078   5.462   2.334   4.510  0.4751 -0.1511 -0.4642
  184SLPC  H13R21079   5.444   2.226   4.502  0.4907 -0.0827 -1.5197
  184SLPC  C21421080   5.507   2.390   4.646 -0.0796  0.0641 -0.4418
  184SLPC  H14R21081   5.428   2.379   4.723  0.4729  2.2320  0.5115
  184SLPC  H14S21082   5.531   2.498   4.644  2.2923 -0.3635  0.7818
  184SLPC  C21521083   5.635   2.316   4.698 -0.2331 -0.0760  0.0636
  184SLPC  H15R21084   5.701   2.324   4.609  0.0585  2.1487  0.4175
  184SLPC  H15S21085   5.606   2.213   4.727  0.5211 -0.2309  0.3026
  184SLPC  C21621086   5.693   2.371   4.835 -0.2404 -0.2546  0.3279
  184SLPC  H16R21087   5.710   2.480   4.829  3.7266 -0.5686  2.4224
  184SLPC  H16S21088   5.798   2.335   4.846 -0.8755 -1.9381  1.3222
  184SLPC  C21721089   5.610   2.334   4.957  0.6599  0.2250 -0.3515
  184SLPC  H17R21090   5.601   2.223   4.954 -0.3536  0.2822  0.1000
  184SLPC  H17S21091   5.507   2.374   4.942  0.8387  0.8910  0.1391
  184SLPC  C21821092   5.654   2.395   5.089 -0.0527 -0.0133  0.2457
  184SLPC  H18R21093   5.572   2.378   5.163 -0.2106 -0.8164 -0.1050
  184SLPC  H18S21094   5.674   2.503   5.073 -2.1820  0.2067 -1.4714
  184SLPC  H18T21095   5.743   2.347   5.133  0.0628 -0.6235 -0.6386
  184SLPC   C3321096   5.797   2.100   3.763  0.5855  0.2184 -0.1032
  184SLPC   H3X21097   5.760   2.200   3.794  1.0045  0.1139  0.7682
  184SLPC   H3Y21098   5.907   2.113   3.768  0.6272 -0.5277  1.7865
  184SLPC   C3421099   5.754   1.989   3.862  0.5360 -0.0369 -0.7266
  184SLPC   H4X21100   5.809   1.895   3.843  0.8976  0.1079 -0.4295
  184SLPC   H4Y21101   5.650   1.953   3.847 -0.0303 -0.2553  2.8306
  184SLPC   C3521102   5.774   2.021   4.013  0.3001  0.1625  0.2004
  184SLPC   H5X21103   5.878   2.047   4.040 -0.8667  2.5269  2.9092
  184SLPC   H5Y21104   5.759   1.929   4.074  1.9376  0.9332  1.8668
  184SLPC   C3621105   5.687   2.139   4.066 -0.1399  0.2975  0.5958
  184SLPC   H6X21106   5.581   2.107   4.071  0.1296 -0.6633  0.3657
  184SLPC   H6Y21107   5.709   2.228   4.002  0.5323 -0.0414  0.3489
  184SLPC   C3721108   5.726   2.174   4.214 -0.2619 -0.2301  0.2240
  184SLPC   H7X21109   5.631   2.221   4.250 -1.9066 -3.5432  0.6321
  184SLPC   H7Y21110   5.808   2.248   4.203  0.1281 -0.6501  0.3247
  184SLPC   C3821111   5.761   2.049   4.293 -0.3669 -0.1136 -0.8868
  184SLPC   H8X21112   5.857   2.009   4.256  0.1642  1.5496 -1.4213
  184SLPC   H8Y21113   5.679   1.975   4.279  0.5997 -1.1284 -1.3173
  184SLPC   C3921114   5.773   2.079   4.442  0.1399 -0.2467 -0.8712
  184SLPC   H9X21115   5.696   2.150   4.479 -0.2500 -1.0134 -0.2038
  184SLPC   H9Y21116   5.873   2.126   4.451  0.2173 -0.8548  3.0233
  184SLPC  C31021117   5.791   1.959   4.533  0.2005 -0.0925  0.2817
  184SLPC  H10X21118   5.861   1.885   4.487 -1.5624 -2.0960  0.6247
  184SLPC  H10Y21119   5.690   1.913   4.540 -1.2006  2.7948  0.3425
  184SLPC  C31121120   5.831   1.991   4.677 -0.1988 -0.0838 -0.1986
  184SLPC  H11X21121   5.759   2.059   4.727  1.3838  0.1297  1.9302
  184SLPC  H11Y21122   5.932   2.036   4.684 -0.9752  1.5286  1.5926
  184SLPC  C31221123   5.838   1.866   4.769 -0.0809  0.7081 -0.3746
  184SLPC  H12X21124   5.855   1.897   4.874  2.0657 -1.1597 -0.0964
  184SLPC  H12Y21125   5.918   1.805   4.723 -0.8648 -2.2251  1.8623
  184SLPC  C31321126   5.712   1.784   4.767 -0.4483 -0.3609  0.5320
  184SLPC  H13X21127   5.695   1.737   4.669  3.0623  1.2766 -1.0600
  184SLPC  H13Y21128   5.627   1.854   4.784 -1.6762 -0.8728 -2.7671
  184SLPC  C31421129   5.713   1.663   4.862  0.7096  0.5437 -0.3267
  184SLPC  H14X21130   5.797   1.595   4.834 -0.3138 -0.0257 -2.1907
  184SLPC  H14Y21131   5.617   1.609   4.845  0.1166  1.5227 -0.1239
  184SLPC  C31521132   5.713   1.704   5.011 -0.9096  0.1909  0.4192
  184SLPC  H15X21133   5.636   1.783   5.024 -2.3884 -0.6838 -2.2471
  184SLPC  H15Y21134   5.819   1.733   5.031 -0.1112 -1.9998 -0.3061
  184SLPC  C31621135   5.693   1.580   5.102  0.0475  0.2097 -0.0379
  184SLPC  H16X21136   5.783   1.518   5.085 -0.1026 -0.2195  0.6730
  184SLPC  H16Y21137   5.598   1.529   5.074  1.4025 -2.3403 -0.2451
  184SLPC  C31721138   5.686   1.617   5.252  0.2861 -0.2510 -0.1910
  184SLPC  H17X21139   5.594   1.676   5.273  0.8000  1.3653 -2.1274
  184SLPC  H17Y21140   5.776   1.672   5.286  0.8237 -1.6004  0.6758
  184SLPC  C31821141   5.670   1.488   5.340 -0.8139 -0.2185  0.0438
  184SLPC  H18X21142   5.571   1.441   5.328  0.2347 -2.6578  0.3116
  184SLPC  H18Y21143   5.668   1.517   5.447  1.0563  1.6916 -0.3529
  184SLPC  H18Z21144   5.748   1.409   5.326 -0.3686  0.4892 -1.8636
  185POPC     N21145   0.430   5.157   7.195  0.5329  0.0450 -0.3294
  185POPC   C1221146   0.470   5.025   7.268 -0.1386 -0.6475 -0.1212
  185POPC  H12A21147   0.425   5.008   7.365  2.4074  0.3944  1.3249
  185POPC  H12B21148   0.575   5.038   7.290 -0.7217  0.8665  2.2045
  185POPC   C1321149   0.420   5.270   7.296  0.7308  0.2891  0.4928
  185POPC  H13A21150   0.494   5.271   7.375  1.5008 -1.1617 -0.1576
  185POPC  H13B21151   0.423   5.366   7.247 -0.1948  0.8019  1.4110
  185POPC  H13C21152   0.325   5.263   7.346 -0.1628  1.8614 -0.9031
  185POPC   C1421153   0.524   5.199   7.086  0.2588  0.2970  0.3151
  185POPC  H14A21154   0.620   5.231   7.123  0.3693 -1.0631  1.2950
  185POPC  H14B21155   0.534   5.128   7.005  1.0408 -0.6419  1.2103
  185POPC  H14C21156   0.487   5.289   7.040  1.2958  0.1366 -0.8907
  185POPC   C1521157   0.296   5.145   7.138 -0.2647 -0.0794  0.5261
  185POPC  H15A21158   0.219   5.110   7.207 -1.0859  0.8089  0.0849
  185POPC  H15B21159   0.293   5.073   7.058  0.1805 -0.7178  1.0636
  185POPC  H15C21160   0.262   5.230   7.082 -0.8782 -1.8112 -1.9078
  185POPC   C1121161   0.441   4.898   7.191 -0.3334  0.4273 -0.8808
  185POPC  H11A21162   0.334   4.877   7.169 -0.1524 -0.8464 -0.6299
  185POPC  H11B21163   0.475   4.820   7.263  0.8568 -0.5778 -2.4677
  185POPC     P21164   0.485   4.838   6.939 -0.1012  0.0639  0.4493
  185POPC   O1321165   0.470   4.693   6.934  0.1399  0.3204 -0.0729
  185POPC   O1421166   0.573   4.898   6.839  0.1799 -0.4725  0.6667
  185POPC   O1221167   0.532   4.885   7.083 -0.1966 -0.2943 -0.3573
  185POPC   O1121168   0.349   4.913   6.923 -0.1652 -0.6157  0.0908
  185POPC    C121169   0.263   4.889   6.810  0.9871  0.5583 -0.4453
  185POPC    HA21170   0.221   4.786   6.807  1.3480  0.4193 -2.8244
  185POPC    HB21171   0.316   4.894   6.712 -0.8853  1.8554 -1.4579
  185POPC    C221172   0.137   4.984   6.817  0.5271 -0.7141 -1.4295
  185POPC    HS21173   0.074   4.973   6.725 -0.1915 -0.2872 -1.0000
  185POPC   O2121174   0.191   5.119   6.827  0.2768 -0.5011  0.5634
  185POPC   C2121175   0.258   5.157   6.722  0.5144 -0.3437  0.3917
  185POPC   O2221176   0.248   5.109   6.611 -0.0455 -0.5646  0.2034
  185POPC   C2221177   0.351   5.268   6.754 -0.1276 -0.3970 -0.2911
  185POPC   H2R21178   0.432   5.216   6.810 -0.5182  0.4053  1.0811
  185POPC   H2S21179   0.303   5.344   6.820 -1.1513 -0.4897 -0.9198
  185POPC    C321180   0.038   4.947   6.940  0.2534  1.1446 -0.5968
  185POPC    HX21181  -0.026   5.033   6.970  0.6684  1.5385 -0.8138
  185POPC    HY21182   0.111   4.923   7.020  0.2123 -1.0028 -1.1455
  185POPC   O3121183  -0.031   4.823   6.916  0.1577  0.1816 -0.8304
  185POPC   C3121184  -0.155   4.835   6.865  0.3984 -0.1908 -0.2536
  185POPC   O3221185  -0.212   4.943   6.846 -0.2647  0.0899  0.2188
  185POPC   C3221186  -0.220   4.695   6.847 -0.8781 -0.7785  1.2609
  185POPC   H2X21187  -0.320   4.705   6.894 -1.0555  0.8672  0.6172
  185POPC   H2Y21188  -0.152   4.627   6.903  1.9184  0.8297  0.0656
  185POPC   C2321189   0.434   5.329   6.640 -0.9763 -0.2684  0.1841
  185POPC   H3R21190   0.372   5.385   6.567 -1.1688  0.8987  1.2200
  185POPC   H3S21191   0.497   5.254   6.586 -0.8052  0.7621 -1.0982
  185POPC   C2421192   0.540   5.430   6.687  0.2717 -0.1297  0.2633
  185POPC   H4R21193   0.612   5.446   6.605 -0.8184  0.3913 -0.6254
  185POPC   H4S21194   0.604   5.375   6.759  1.7216 -1.7028 -2.1183
  185POPC   C2521195   0.501   5.563   6.749  0.8414 -0.6879  0.4138
  185POPC   H5R21196   0.578   5.609   6.814 -0.6207  1.0244  1.0365
  185POPC   H5S21197   0.411   5.557   6.814 -0.2281 -0.1546 -0.9576
  185POPC   C2621198   0.464   5.669   6.640  0.6275  0.4322  0.2468
  185POPC   H6R21199   0.451   5.766   6.693  2.1776 -0.7828  3.0668
  185POPC   H6S21200   0.365   5.631   6.606  0.3066 -1.3004  2.8568
  185POPC   C2721201   0.560   5.682   6.515  0.4936  0.7593 -0.3254
  185POPC   H7R21202   0.575   5.583   6.465  0.0792  1.7234 -2.4595
  185POPC   H7S21203   0.663   5.710   6.546  1.4147 -1.7977 -0.7633
  185POPC   C2821204   0.516   5.785   6.407 -0.2755  0.2499  0.1148
  185POPC   H8R21205   0.589   5.772   6.324 -0.6709 -2.3754  0.0969
  185POPC   H8S21206   0.519   5.891   6.441 -0.5783 -0.5052  2.6668
  185POPC   C2921207   0.374   5.762   6.363 -0.7073  0.1121  0.1600
  185POPC   H9121208   0.295   5.764   6.439  0.4386  0.3370  1.3902
  185POPC  C21021209   0.339   5.741   6.234 -0.4500 -0.1556 -0.3593
  185POPC  H10121210   0.236   5.719   6.203 -1.2308  1.2595  1.1127
  185POPC  C21121211   0.434   5.750   6.114 -0.1897 -0.8774  0.3400
  185POPC  H11R21212   0.481   5.650   6.107 -1.6076 -1.6634  1.5099
  185POPC  H11S21213   0.511   5.830   6.119  1.1751 -2.0326 -1.2421
  185POPC  C21221214   0.357   5.792   5.981 -0.6086  0.0232  0.6748
  185POPC  H12R21215   0.291   5.880   5.997 -1.3223  0.0105 -1.8411
  185POPC  H12S21216   0.290   5.708   5.953 -1.0641  0.2178  1.1610
  185POPC  C21321217   0.442   5.814   5.860 -0.2393  0.3937  0.5396
  185POPC  H13R21218   0.489   5.717   5.833 -0.9451  0.0695  0.4699
  185POPC  H13S21219   0.518   5.893   5.880  0.6503 -0.1627 -0.5207
  185POPC  C21421220   0.355   5.850   5.739  0.5405 -0.3123 -0.3063
  185POPC  H14R21221   0.284   5.925   5.780 -0.2888 -0.6882 -1.0181
  185POPC  H14S21222   0.290   5.768   5.702 -2.1936  1.0853  1.0859
  185POPC  C21521223   0.434   5.894   5.618  0.4156  0.3585  0.0205
  185POPC  H15R21224   0.498   5.810   5.583 -0.4383 -0.2390 -0.1111
  185POPC  H15S21225   0.511   5.970   5.643 -0.9317  1.5117  0.7869
  185POPC  C21621226   0.349   5.940   5.499  0.6813  0.3228  0.4721
  185POPC  H16R21227   0.336   6.049   5.512 -2.8867 -0.0202  0.6730
  185POPC  H16S21228   0.253   5.885   5.515  0.3192  1.0387  0.8006
  185POPC  C21721229   0.414   5.918   5.365  0.2803  0.4135 -0.5473
  185POPC  H17R21230   0.442   5.812   5.344  1.8657  0.0157  2.9020
  185POPC  H17S21231   0.517   5.959   5.371  0.8785 -1.1873  1.2444
  185POPC  C21821232   0.340   5.978   5.249  0.2688  0.7627 -0.2248
  185POPC  H18R21233   0.390   5.959   5.151 -0.0333 -0.0955 -0.2165
  185POPC  H18S21234   0.309   6.082   5.273 -1.4489  0.2027  0.1639
  185POPC  H18T21235   0.238   5.934   5.241  0.1363  1.1697 -0.8838
  185POPC   C3321236  -0.224   4.654   6.694 -0.3833 -0.0378 -0.3458
  185POPC   H3X21237  -0.258   4.739   6.630 -0.4986 -0.2915 -0.6282
  185POPC   H3Y21238  -0.294   4.568   6.688 -0.9601  0.4683 -1.1714
  185POPC   C3421239  -0.085   4.619   6.650  0.0890  0.1642 -0.4579
  185POPC   H4X21240  -0.030   4.562   6.728  0.8174 -1.2501 -1.9335
  185POPC   H4Y21241  -0.025   4.712   6.639 -0.9970  0.6525 -3.4689
  185POPC   C3521242  -0.083   4.544   6.516  0.4214 -0.2207  0.2032
  185POPC   H5X21243  -0.123   4.441   6.530  0.7427 -0.3109  0.4799
  185POPC   H5Y21244   0.023   4.535   6.486 -0.0364 -0.4074 -1.4431
  185POPC   C3621245  -0.154   4.618   6.403 -0.2542 -0.0116  0.0072
  185POPC   H6X21246  -0.132   4.726   6.409 -0.5733  0.0451  0.1928
  185POPC   H6Y21247  -0.264   4.602   6.398 -0.5484  2.1042 -1.8599
  185POPC   C3721248  -0.106   4.562   6.269  0.4294 -0.3587 -0.2681
  185POPC   H7X21249  -0.121   4.452   6.274  0.0219 -0.2870  0.1167
  185POPC   H7Y21250   0.003   4.580   6.259 -0.1018  2.8352 -1.4150
  185POPC   C3821251  -0.191   4.619   6.153  0.9231  0.8646  0.6985
  185POPC   H8X21252  -0.180   4.729   6.147  1.0573  0.8633  0.9077
  185POPC   H8Y21253  -0.301   4.604   6.155  0.6157  2.7288 -0.3469
  185POPC   C3921254  -0.150   4.567   6.016 -0.8078 -0.1116  0.0231
  185POPC   H9X21255  -0.157   4.459   5.994 -0.9203 -0.1424  0.2101
  185POPC   H9Y21256  -0.041   4.587   6.021 -0.5764 -1.6271  2.3354
  185POPC  C31021257  -0.203   4.641   5.898 -0.4039  0.2630 -0.1325
  185POPC  H10X21258  -0.177   4.747   5.920  2.6578 -0.7382  1.7960
  185POPC  H10Y21259  -0.312   4.628   5.887 -0.5270  0.6752  0.6057
  185POPC  C31121260  -0.132   4.602   5.768 -0.6671  0.1491  0.1764
  185POPC  H11X21261  -0.117   4.492   5.768  1.9929  0.4265 -1.2192
  185POPC  H11Y21262  -0.030   4.645   5.760  0.1638 -1.9853 -1.7324
  185POPC  C31221263  -0.205   4.646   5.640  0.5292 -0.5067 -0.2654
  185POPC  H12X21264  -0.304   4.596   5.639 -0.0115  0.5276 -1.5664
  185POPC  H12Y21265  -0.155   4.593   5.555 -0.2868 -1.3252 -0.2502
  185POPC  C31321266  -0.208   4.793   5.612 -0.2447 -0.1332  0.6199
  185POPC  H13X21267  -0.101   4.818   5.626 -0.7187  1.1650  2.1559
  185POPC  H13Y21268  -0.278   4.843   5.682  0.7809  1.3754  0.6115
  185POPC  C31421269  -0.241   4.833   5.467  0.0883  0.0436 -0.6763
  185POPC  H14X21270  -0.275   4.939   5.472 -1.4251 -0.4679  2.5185
  185POPC  H14Y21271  -0.328   4.771   5.434 -1.2900  1.0188  0.9521
  185POPC  C31521272  -0.124   4.823   5.366  1.1760  0.2619 -0.2336
  185POPC  H15X21273  -0.104   4.716   5.343  0.7301  0.5344 -2.0758
  185POPC  H15Y21274  -0.039   4.873   5.416  0.0081 -0.4832  2.6787
  185POPC  C31621275  -0.158   4.902   5.236  0.0870  0.4610  0.0618
  185POPC  H16X21276  -0.252   4.860   5.192 -1.4195  0.8025  2.7219
  185POPC  H16Y21277  -0.071   4.899   5.168 -1.5358  0.5995 -2.1449
  185POPC  H16Z21278  -0.181   5.010   5.238 -0.8456  0.3291 -1.6286
  186POPC     N21279   1.549   6.453   7.423 -0.4208  0.4174  0.3588
  186POPC   C1221280   1.459   6.520   7.312  0.0178  0.5335 -0.1683
  186POPC  H12A21281   1.500   6.501   7.214 -2.6568  0.1839 -1.3208
  186POPC  H12B21282   1.464   6.626   7.332 -0.0569  0.3712  0.7674
  186POPC   C1321283   1.565   6.297   7.394 -0.3095 -0.4727  0.0372
  186POPC  H13A21284   1.607   6.262   7.487 -0.2975  2.4634  1.2474
  186POPC  H13B21285   1.474   6.242   7.376 -1.7247  1.6748  0.1931
  186POPC  H13C21286   1.636   6.292   7.313 -1.5305  1.9197 -1.3067
  186POPC   C1421287   1.686   6.518   7.433  0.1431 -0.6702 -0.0011
  186POPC  H14A21288   1.680   6.626   7.443  0.9116 -0.7589  1.9489
  186POPC  H14B21289   1.743   6.488   7.520 -0.8830  1.1840  1.3985
  186POPC  H14C21290   1.749   6.494   7.349  0.6437  2.1389 -0.5343
  186POPC   C1521291   1.479   6.470   7.552 -0.6657  0.1168 -0.5994
  186POPC  H15A21292   1.504   6.563   7.602  0.9872  0.0984 -1.3296
  186POPC  H15B21293   1.501   6.390   7.621  0.6507 -0.7450 -1.9407
  186POPC  H15C21294   1.373   6.472   7.534 -1.1051  2.8000  1.5653
  186POPC   C1121295   1.305   6.483   7.310 -0.5809 -0.2997 -0.0035
  186POPC  H11A21296   1.295   6.378   7.345  0.4887 -1.2108 -2.2128
  186POPC  H11B21297   1.276   6.482   7.203 -1.7561 -0.8075  0.3080
  186POPC     P21298   1.219   6.722   7.376 -0.0619 -0.0184 -0.1644
  186POPC   O1321299   1.341   6.785   7.428  0.6108  0.1717  0.2477
  186POPC   O1421300   1.093   6.763   7.447 -0.1883  0.2010 -0.1291
  186POPC   O1221301   1.232   6.573   7.393 -0.6670  0.4094 -0.2847
  186POPC   O1121302   1.196   6.740   7.221  0.5327  0.4455 -0.3188
  186POPC    C121303   1.100   6.665   7.139  0.0731 -0.2190  0.9388
  186POPC    HA21304   1.083   6.564   7.182  1.9556 -0.6477  0.7830
  186POPC    HB21305   1.134   6.657   7.033 -0.2165 -2.3138  0.9586
  186POPC    C221306   0.956   6.726   7.137  0.1073 -0.4088 -0.5034
  186POPC    HS21307   0.928   6.709   7.243  1.0156 -2.9203 -0.5848
  186POPC   O2121308   0.878   6.654   7.042  0.0568 -0.3633  0.6179
  186POPC   C2121309   0.747   6.654   7.067 -0.1757 -0.4048 -0.1973
  186POPC   O2221310   0.692   6.704   7.167 -0.3295 -0.1226  0.6438
  186POPC   C2221311   0.676   6.598   6.942  0.2250  0.4401 -0.6934
  186POPC   H2R21312   0.605   6.528   6.992  0.7160 -0.9095 -1.8142
  186POPC   H2S21313   0.744   6.543   6.873 -1.1346 -0.1482 -1.5928
  186POPC    C321314   0.958   6.876   7.107 -0.4012 -0.6772  0.3298
  186POPC    HX21315   1.031   6.914   7.182  0.5408  0.0331 -0.9221
  186POPC    HY21316   0.858   6.920   7.131  0.5137  2.4559 -1.0975
  186POPC   O3121317   0.992   6.918   6.977 -0.3605  0.0415  0.8679
  186POPC   C3121318   1.094   7.007   6.964  1.0720  1.2147  0.2486
  186POPC   O3221319   1.143   7.076   7.050 -0.0999 -0.1530 -0.4947
  186POPC   C3221320   1.130   6.988   6.813 -0.1528  0.3184 -1.0050
  186POPC   H2X21321   1.035   6.979   6.756  0.1570 -1.1675 -1.3333
  186POPC   H2Y21322   1.182   6.891   6.806 -0.2340  0.3132 -1.5599
  186POPC   C2321323   0.601   6.703   6.863  0.1486 -0.1149  0.0530
  186POPC   H3R21324   0.534   6.767   6.924 -0.7921 -0.7784 -0.2565
  186POPC   H3S21325   0.532   6.657   6.790  1.8759 -0.7098 -1.2843
  186POPC   C2421326   0.700   6.800   6.792  0.8101 -0.4371 -0.3436
  186POPC   H4R21327   0.758   6.848   6.874 -0.5016 -0.6121  0.7158
  186POPC   H4S21328   0.637   6.877   6.743  0.0402 -0.3264  0.7815
  186POPC   C2521329   0.797   6.730   6.693 -0.4013 -0.1810  0.1338
  186POPC   H5R21330   0.741   6.638   6.666  0.8152 -0.1444 -2.8408
  186POPC   H5S21331   0.888   6.698   6.750 -0.9151  0.1591  1.1782
  186POPC   C2621332   0.850   6.806   6.563 -0.3416  0.0417  0.2746
  186POPC   H6R21333   0.899   6.902   6.588 -1.3855  0.6453  0.0959
  186POPC   H6S21334   0.761   6.817   6.497 -0.0290 -0.5451 -0.2514
  186POPC   C2721335   0.941   6.723   6.468  0.0243 -0.3264 -0.3178
  186POPC   H7R21336   0.888   6.626   6.460 -1.0133  0.1301  0.7273
  186POPC   H7S21337   1.040   6.707   6.515 -0.6351  1.4462  1.8659
  186POPC   C2821338   0.981   6.785   6.334 -0.8641  0.0100 -0.2048
  186POPC   H8R21339   1.057   6.723   6.282 -0.8299 -0.2090  0.1046
  186POPC   H8S21340   1.030   6.884   6.349 -0.9419  0.4380 -2.4173
  186POPC   C2921341   0.860   6.792   6.242  0.0037  0.1346  0.3714
  186POPC   H9121342   0.766   6.822   6.291 -2.5592 -3.1328 -2.0382
  186POPC  C21021343   0.862   6.757   6.110 -0.2504 -0.0475 -0.6109
  186POPC  H10121344   0.769   6.767   6.052 -0.3934  1.5895 -0.1326
  186POPC  C21121345   0.972   6.704   6.032 -0.3094  0.5276 -0.4264
  186POPC  H11R21346   0.927   6.621   5.973 -0.4943 -0.3815  0.9666
  186POPC  H11S21347   1.054   6.652   6.085  0.4678 -0.3664 -2.3868
  186POPC  C21221348   1.032   6.802   5.927  0.0075  0.7044 -0.2311
  186POPC  H12R21349   1.115   6.760   5.867 -1.0643  1.7164 -2.5166
  186POPC  H12S21350   1.075   6.890   5.980  0.5875  1.2266 -1.5195
  186POPC  C21321351   0.937   6.851   5.817 -0.2970  0.5509 -0.3683
  186POPC  H13R21352   0.861   6.921   5.859  0.4803  1.3074 -0.1800
  186POPC  H13S21353   0.883   6.760   5.784  0.8547 -0.9544  1.6776
  186POPC  C21421354   1.015   6.919   5.699  0.1728  0.2241 -0.1169
  186POPC  H14R21355   1.080   6.836   5.663 -0.3276  0.4370 -1.5945
  186POPC  H14S21356   1.079   6.999   5.741  1.0366 -0.0627 -0.8569
  186POPC  C21521357   0.918   6.971   5.595  0.6158  0.3274 -0.2527
  186POPC  H15R21358   0.857   7.059   5.627 -0.8898 -1.2248  1.3709
  186POPC  H15S21359   0.849   6.885   5.582 -0.3874  1.3904 -2.6751
  186POPC  C21621360   0.973   7.004   5.461 -0.2119 -0.4603 -0.4287
  186POPC  H16R21361   1.035   6.921   5.423  0.5754 -0.5388  0.9466
  186POPC  H16S21362   1.028   7.101   5.461  0.0263 -0.5958 -0.2314
  186POPC  C21721363   0.864   7.020   5.353  0.3407 -0.6534  1.0214
  186POPC  H17R21364   0.781   7.084   5.392 -0.1437  0.8582 -2.1766
  186POPC  H17S21365   0.822   6.919   5.334 -0.7755 -0.1935  0.9538
  186POPC  C21821366   0.924   7.076   5.227  0.1934 -0.2575 -0.0862
  186POPC  H18R21367   0.856   7.037   5.148 -0.0507 -0.7504  0.3599
  186POPC  H18S21368   1.022   7.032   5.199  0.1595  1.5218 -3.4759
  186POPC  H18T21369   0.936   7.186   5.235  1.6354 -0.5267  3.4786
  186POPC   C3321370   1.205   7.103   6.750  0.0508  0.3522  0.5334
  186POPC   H3X21371   1.295   7.128   6.810  0.1271 -2.5076  1.7590
  186POPC   H3Y21372   1.142   7.195   6.744 -0.0278  0.3352  1.0707
  186POPC   C3421373   1.244   7.063   6.608 -0.1927  0.3947 -0.2585
  186POPC   H4X21374   1.150   7.054   6.549 -0.6300  2.5006  0.0565
  186POPC   H4Y21375   1.295   6.964   6.599 -1.6159 -0.2975 -1.0413
  186POPC   C3521376   1.322   7.166   6.537  0.5087 -0.6369 -0.0736
  186POPC   H5X21377   1.430   7.169   6.565  1.1755  1.7171 -2.4287
  186POPC   H5Y21378   1.277   7.267   6.545  0.0822 -0.9293  1.6055
  186POPC   C3621379   1.319   7.143   6.385 -0.1303 -0.0039  0.1477
  186POPC   H6X21380   1.389   7.220   6.346  1.1451 -0.5254  1.3332
  186POPC   H6Y21381   1.219   7.159   6.337 -0.6343 -2.2624  0.3588
  186POPC   C3721382   1.362   7.001   6.334  0.6478  0.1570 -0.1356
  186POPC   H7X21383   1.301   6.918   6.377  1.8288  0.5433  2.4565
  186POPC   H7Y21384   1.468   6.981   6.360  1.9619  2.1730 -3.3159
  186POPC   C3821385   1.349   6.983   6.182 -0.5304 -0.3678  0.2330
  186POPC   H8X21386   1.429   7.043   6.133  1.3570 -0.6080  2.7761
  186POPC   H8Y21387   1.253   7.022   6.144  0.4298  0.2092 -1.7364
  186POPC   C3921388   1.371   6.841   6.130  0.4463 -0.0221 -0.1680
  186POPC   H9X21389   1.276   6.794   6.162  0.6891 -0.2246  0.2521
  186POPC   H9Y21390   1.442   6.781   6.191  0.2810  2.3429  2.5977
  186POPC  C31021391   1.404   6.819   5.986 -0.2856 -0.6336 -0.0828
  186POPC  H10X21392   1.509   6.853   5.971 -0.4174  0.3727  1.0927
  186POPC  H10Y21393   1.337   6.871   5.915  0.8829  0.2743 -0.5692
  186POPC  C31121394   1.394   6.672   5.941 -0.5898  0.3192  0.1788
  186POPC  H11X21395   1.295   6.623   5.957 -1.1961  1.2423 -0.5682
  186POPC  H11Y21396   1.464   6.621   6.010 -0.9592  0.6793  0.8338
  186POPC  C31221397   1.433   6.641   5.794  0.2036 -0.6642  0.0600
  186POPC  H12X21398   1.441   6.531   5.779 -2.3131 -0.6788 -2.0938
  186POPC  H12Y21399   1.534   6.683   5.776  0.7412 -0.4791  3.0496
  186POPC  C31321400   1.333   6.683   5.695  0.2535  0.4356  0.5318
  186POPC  H13X21401   1.331   6.793   5.681 -4.2791  0.4229 -0.6583
  186POPC  H13Y21402   1.234   6.653   5.735 -0.3533  0.9336 -0.5513
  186POPC  C31421403   1.362   6.627   5.558  0.8604 -0.2252  0.3538
  186POPC  H14X21404   1.340   6.518   5.555 -3.9547  0.4918  1.8719
  186POPC  H14Y21405   1.467   6.647   5.527 -0.2510  2.3437 -2.1794
  186POPC  C31521406   1.270   6.687   5.450 -0.4774 -0.4428 -0.2252
  186POPC  H15X21407   1.297   6.793   5.431  2.9282 -1.0071  0.8239
  186POPC  H15Y21408   1.165   6.683   5.488  0.5338  0.9945  3.0914
  186POPC  C31621409   1.292   6.620   5.318  0.7153  0.1003 -0.4465
  186POPC  H16X21410   1.247   6.519   5.327  2.3473 -0.6202  0.0126
  186POPC  H16Y21411   1.401   6.618   5.300  1.3666  0.4293  2.8457
  186POPC  H16Z21412   1.247   6.679   5.235 -0.6919  1.5601  1.2868
  187POPC     N21413   6.148   1.973   3.034  0.3832  0.6453  0.2755
  187POPC   C1221414   6.223   2.052   3.134 -0.3466  0.1679 -0.4266
  187POPC  H12A21415   6.174   2.145   3.159  2.3969  1.0635  2.3472
  187POPC  H12B21416   6.320   2.069   3.090 -0.1682  0.5894  0.1134
  187POPC   C1321417   6.112   2.046   2.913  0.2520 -0.1724 -0.5945
  187POPC  H13A21418   6.051   2.134   2.926 -0.8674 -1.2066  1.5497
  187POPC  H13B21419   6.197   2.097   2.868 -0.5883  2.2232  0.3486
  187POPC  H13C21420   6.065   1.988   2.835 -0.5055  1.0184 -1.0682
  187POPC   C1421421   6.231   1.858   2.984 -0.5014 -0.5156  0.5757
  187POPC  H14A21422   6.178   1.781   2.930 -1.3698  0.0290  0.6309
  187POPC  H14B21423   6.315   1.894   2.928  0.2381  0.8536  2.4382
  187POPC  H14C21424   6.280   1.809   3.067  0.6004 -1.7682 -0.7624
  187POPC   C1521425   6.021   1.915   3.088  0.5094 -0.1202  0.3312
  187POPC  H15A21426   5.954   1.994   3.118 -1.8011 -1.8669  0.1058
  187POPC  H15B21427   6.053   1.862   3.176  2.1154 -1.2077 -0.8341
  187POPC  H15C21428   5.975   1.841   3.023  2.2631  0.0634 -1.2160
  187POPC   C1121429   6.265   1.986   3.273 -0.2544 -0.4021  0.3750
  187POPC  H11A21430   6.180   1.938   3.325 -0.1939  1.1640  1.9964
  187POPC  H11B21431   6.307   2.063   3.341 -0.0175  0.9813 -1.2522
  187POPC     P21432   6.403   1.774   3.343 -0.2966 -0.6732  0.5623
  187POPC   O1321433   6.549   1.742   3.331 -0.2760 -0.5863  0.2458
  187POPC   O1421434   6.303   1.669   3.313  0.4231  0.5284 -0.0092
  187POPC   O1221435   6.374   1.896   3.249  0.2037 -0.1498  0.4683
  187POPC   O1121436   6.383   1.825   3.487  0.0025 -0.9843 -0.0786
  187POPC    C121437   6.279   1.783   3.582  1.1744  0.1925  0.2494
  187POPC    HA21438   6.293   1.675   3.602  1.5721  0.3990  1.1318
  187POPC    HB21439   6.180   1.785   3.531  1.1166  0.0901  0.3579
  187POPC    C221440   6.285   1.865   3.710  0.1524 -0.1436 -0.0113
  187POPC    HS21441   6.188   1.849   3.763 -0.2076  0.3064 -0.5227
  187POPC   O2121442   6.289   2.009   3.691  0.4231  0.1252  0.5025
  187POPC   C2121443   6.202   2.064   3.615 -0.1578 -1.0647 -0.1059
  187POPC   O2221444   6.101   2.013   3.556 -0.3562  0.2193  0.5140
  187POPC   C2221445   6.235   2.214   3.581 -0.9135  1.3253  0.6894
  187POPC   H2R21446   6.144   2.259   3.536 -1.9925 -1.2678  0.0949
  187POPC   H2S21447   6.312   2.219   3.502 -1.2671  0.2709  0.2668
  187POPC    C321448   6.405   1.814   3.797  0.6324  0.1236 -0.3626
  187POPC    HX21449   6.494   1.847   3.739  0.9208 -1.6093 -0.9590
  187POPC    HY21450   6.412   1.704   3.810 -2.1598  0.1465  2.4292
  187POPC   O3121451   6.409   1.876   3.927 -0.2606 -0.1448 -0.1824
  187POPC   C3121452   6.324   1.829   4.017  0.2816 -0.1775  0.1974
  187POPC   O3221453   6.254   1.728   4.001 -0.1933 -0.1579 -0.2913
  187POPC   C3221454   6.312   1.919   4.136  0.4098  0.0015  0.1975
  187POPC   H2X21455   6.415   1.926   4.177  0.8775 -1.8761 -0.5440
  187POPC   H2Y21456   6.242   1.867   4.205 -0.1910  1.9238  1.0894
  187POPC   C2321457   6.279   2.292   3.711  0.1978  0.0727  0.6251
  187POPC   H3R21458   6.298   2.401   3.695 -1.4251  0.4132  0.8165
  187POPC   H3S21459   6.379   2.251   3.737  0.0584 -2.0556 -1.8736
  187POPC   C2421460   6.177   2.285   3.830  0.5204 -0.1749 -0.1289
  187POPC   H4R21461   6.250   2.303   3.913  0.3759  1.1198 -0.2501
  187POPC   H4S21462   6.130   2.186   3.846  0.5371  0.0206  1.2835
  187POPC   C2521463   6.071   2.409   3.834  0.5133 -0.0463 -0.3036
  187POPC   H5R21464   5.994   2.393   3.756 -1.2499  0.3615  1.2594
  187POPC   H5S21465   6.121   2.506   3.814  0.5669 -0.1886 -0.8673
  187POPC   C2621466   5.996   2.429   3.971  0.0368  0.3726 -0.7120
  187POPC   H6R21467   5.985   2.328   4.017  2.3082  0.3379 -0.1230
  187POPC   H6S21468   5.894   2.448   3.932 -1.1763 -1.8367  1.1182
  187POPC   C2721469   6.044   2.528   4.079 -0.2880 -0.0585 -0.0218
  187POPC   H7R21470   6.054   2.627   4.030  0.8644 -0.4676 -0.6384
  187POPC   H7S21471   6.145   2.499   4.113 -0.9663 -2.2730  0.2635
  187POPC   C2821472   5.952   2.532   4.203 -1.1074 -0.1062  0.6053
  187POPC   H8R21473   5.923   2.428   4.227 -2.3313 -1.1082 -4.1971
  187POPC   H8S21474   5.850   2.566   4.174 -1.1393 -1.3415 -0.8148
  187POPC   C2921475   6.026   2.595   4.323 -0.3558  0.1104 -0.1239
  187POPC   H9121476   6.131   2.567   4.343 -0.8336 -0.0649  2.5887
  187POPC  C21021477   5.977   2.688   4.404  0.7690  0.1630  0.4935
  187POPC  H10121478   6.038   2.718   4.491 -0.7288 -0.2843  1.7500
  187POPC  C21121479   5.839   2.754   4.386  0.0253 -0.5265  0.7867
  187POPC  H11R21480   5.751   2.692   4.360  0.4863  0.0416 -2.6605
  187POPC  H11S21481   5.859   2.819   4.298 -0.4287 -0.0261  1.0435
  187POPC  C21221482   5.802   2.840   4.506 -0.2730  0.1555 -0.4090
  187POPC  H12R21483   5.707   2.897   4.501 -0.2491  0.1278 -1.1655
  187POPC  H12S21484   5.885   2.913   4.513 -0.3160  0.0654  1.8968
  187POPC  C21321485   5.785   2.770   4.634 -0.1460  0.4956 -0.4011
  187POPC  H13R21486   5.888   2.730   4.650 -0.3869  0.7975  2.3227
  187POPC  H13S21487   5.709   2.689   4.626  1.0670 -0.7183 -0.0240
  187POPC  C21421488   5.737   2.849   4.762 -0.6677 -0.4073  0.1563
  187POPC  H14R21489   5.796   2.944   4.769 -1.6220  0.5565 -2.9055
  187POPC  H14S21490   5.747   2.784   4.851  1.1437 -0.0623  0.2497
  187POPC  C21521491   5.587   2.892   4.753  0.5361 -0.0545 -0.2924
  187POPC  H15R21492   5.568   2.937   4.654 -2.7902  0.6013  0.4971
  187POPC  H15S21493   5.553   2.967   4.828 -0.4859 -2.4191  1.7657
  187POPC  C21621494   5.491   2.780   4.770  0.1338 -0.4237 -0.3508
  187POPC  H16R21495   5.505   2.699   4.695  0.8503 -0.6092 -0.0224
  187POPC  H16S21496   5.390   2.823   4.757  0.7882  1.3411  0.1469
  187POPC  C21721497   5.494   2.722   4.916 -0.3115  0.3975 -0.0826
  187POPC  H17R21498   5.583   2.656   4.910 -0.2017  0.3972  1.2652
  187POPC  H17S21499   5.410   2.654   4.940  0.1742 -0.3839 -0.5628
  187POPC  C21821500   5.513   2.818   5.029  0.5520 -0.5264 -0.0649
  187POPC  H18R21501   5.481   2.766   5.121 -0.9804 -0.8728 -0.7679
  187POPC  H18S21502   5.443   2.903   5.010  2.0848  0.3292 -2.2338
  187POPC  H18T21503   5.614   2.861   5.049  0.7579 -0.7174 -0.6728
  187POPC   C3321504   6.250   2.058   4.096  0.3326 -0.4451 -0.0482
  187POPC   H3X21505   6.141   2.059   4.074  0.1511  2.1586  0.6665
  187POPC   H3Y21506   6.305   2.084   4.003  0.0473  2.5559  0.5119
  187POPC   C3421507   6.269   2.180   4.188 -0.6662  0.1261 -0.2622
  187POPC   H4X21508   6.223   2.270   4.142  0.8973  0.6310 -0.9303
  187POPC   H4Y21509   6.379   2.192   4.201  0.1082 -3.6191 -1.9253
  187POPC   C3521510   6.194   2.159   4.313 -0.5779 -0.2498 -0.4935
  187POPC   H5X21511   6.217   2.059   4.355 -0.2020  0.8036  2.0591
  187POPC   H5Y21512   6.084   2.148   4.302 -0.9852  0.6024  2.0001
  187POPC   C3621513   6.219   2.267   4.420 -0.5439  0.2382 -0.5687
  187POPC   H6X21514   6.198   2.367   4.377  0.7205  0.3573 -0.9571
  187POPC   H6Y21515   6.328   2.269   4.442 -0.9357 -0.2132  1.7455
  187POPC   C3721516   6.127   2.248   4.545 -0.1735  0.2086 -0.3542
  187POPC   H7X21517   6.144   2.148   4.591 -1.0560  0.2131  0.0043
  187POPC   H7Y21518   6.025   2.263   4.503 -0.2632 -0.7136 -0.4651
  187POPC   C3821519   6.157   2.356   4.647 -0.2095  0.0182 -0.1389
  187POPC   H8X21520   6.116   2.455   4.616  0.3964  1.6174  3.6004
  187POPC   H8Y21521   6.259   2.366   4.688 -1.3512  1.6241  2.6142
  187POPC   C3921522   6.081   2.341   4.775  0.4186  0.5197 -0.2327
  187POPC   H9X21523   5.977   2.318   4.742  0.5096  0.9168 -0.8037
  187POPC   H9Y21524   6.071   2.434   4.835  0.6353 -0.6977  1.8141
  187POPC  C31021525   6.131   2.231   4.868  0.0702 -0.0379 -0.6137
  187POPC  H10X21526   6.238   2.256   4.885 -0.4928  1.7123  0.7658
  187POPC  H10Y21527   6.129   2.139   4.806  0.1788 -0.0045 -0.6672
  187POPC  C31121528   6.045   2.215   4.994 -0.5219  0.2923  0.5202
  187POPC  H11X21529   5.941   2.243   4.966 -0.5788 -1.2467 -0.9436
  187POPC  H11Y21530   6.081   2.298   5.059  0.4013 -0.9902  1.6907
  187POPC  C31221531   6.051   2.086   5.066  0.1906  0.4636  0.1491
  187POPC  H12X21532   6.159   2.068   5.088  0.0767 -0.2653  0.1337
  187POPC  H12Y21533   6.025   2.012   4.988 -2.2825  1.3382  0.0542
  187POPC  C31321534   5.958   2.087   5.190 -0.1721  0.1804  0.8104
  187POPC  H13X21535   5.957   2.179   5.253 -1.3530  0.8810 -0.1913
  187POPC  H13Y21536   6.003   2.005   5.250  2.2695  1.8228  1.3569
  187POPC  C31421537   5.817   2.033   5.161 -0.6387 -0.4035 -0.3809
  187POPC  H14X21538   5.823   1.934   5.111 -1.1953 -2.2915  2.9894
  187POPC  H14Y21539   5.762   2.106   5.098  1.7067  2.7505  0.9465
  187POPC  C31521540   5.741   2.008   5.291  0.2658 -0.3366 -0.0919
  187POPC  H15X21541   5.788   1.932   5.356 -0.4515  0.9655  2.0495
  187POPC  H15Y21542   5.656   1.948   5.253  0.3761 -0.9909  0.6771
  187POPC  C31621543   5.700   2.122   5.381  0.4885  0.3886 -0.1375
  187POPC  H16X21544   5.775   2.135   5.462 -0.4343 -2.8391  1.4219
  187POPC  H16Y21545   5.607   2.097   5.437  0.9077  0.9233  0.8178
  187POPC  H16Z21546   5.686   2.215   5.322  1.2265  0.1066 -0.7803
  188POPC     N21547   2.640   3.303   2.660  0.7790  0.2509 -0.4821
  188POPC   C1221548   2.763   3.241   2.714  0.3028 -0.2934  0.1009
  188POPC  H12A21549   2.824   3.322   2.751  0.0837  0.9181 -2.0173
  188POPC  H12B21550   2.825   3.200   2.635 -0.3673  2.4930 -2.0241
  188POPC   C1321551   2.665   3.414   2.560  0.0290  0.4492 -0.0461
  188POPC  H13A21552   2.693   3.499   2.621  1.2711 -0.3697  0.5616
  188POPC  H13B21553   2.737   3.378   2.487  0.3560 -0.4454  0.7003
  188POPC  H13C21554   2.569   3.443   2.520 -0.8510 -1.1520  0.8358
  188POPC   C1421555   2.555   3.201   2.589 -0.0774 -0.2582  0.1876
  188POPC  H14A21556   2.465   3.232   2.538 -0.5589 -1.7667  0.0553
  188POPC  H14B21557   2.615   3.171   2.505 -0.6091  2.1983 -1.1767
  188POPC  H14C21558   2.548   3.110   2.647  1.1962  0.4402  1.4768
  188POPC   C1521559   2.560   3.364   2.773 -0.2903 -0.0839  0.1246
  188POPC  H15A21560   2.612   3.456   2.793 -2.1889  0.9288  0.6682
  188POPC  H15B21561   2.555   3.313   2.868  0.5771  2.1052  1.4375
  188POPC  H15C21562   2.454   3.373   2.755 -0.4204 -1.4810  0.0593
  188POPC   C1121563   2.752   3.125   2.823  0.3747  0.3134  0.7094
  188POPC  H11A21564   2.687   3.161   2.906 -1.0236  0.8847 -0.5960
  188POPC  H11B21565   2.849   3.095   2.868  0.1910 -1.0313  0.2436
  188POPC     P21566   2.776   2.901   2.680  0.3829 -0.2475  0.6891
  188POPC   O1321567   2.887   2.959   2.608 -0.8035  0.1140  0.2406
  188POPC   O1421568   2.685   2.818   2.606  0.0880  0.2074  0.0784
  188POPC   O1221569   2.690   3.008   2.762  0.0777 -0.1339 -0.0733
  188POPC   O1121570   2.845   2.808   2.791 -0.7366 -0.6573  0.1630
  188POPC    C121571   2.770   2.765   2.906  0.4978 -0.9786  0.4305
  188POPC    HA21572   2.666   2.739   2.877  0.2384  0.7486 -0.3348
  188POPC    HB21573   2.766   2.851   2.976 -0.9559  0.5196 -1.3838
  188POPC    C221574   2.849   2.661   2.981 -0.4564 -0.1050  0.3354
  188POPC    HS21575   2.874   2.573   2.919 -1.0310  0.0570 -0.1356
  188POPC   O2121576   2.772   2.617   3.094  0.4251 -0.4605  0.1444
  188POPC   C2121577   2.814   2.510   3.161  0.2340  0.4007  0.0136
  188POPC   O2221578   2.913   2.445   3.130 -0.3210  0.3745  0.4290
  188POPC   C2221579   2.733   2.495   3.285  0.6556  0.1684 -0.2146
  188POPC   H2R21580   2.677   2.399   3.282 -3.6849  2.4527 -0.3177
  188POPC   H2S21581   2.659   2.577   3.294  0.4421 -0.0713  0.2291
  188POPC    C321582   2.987   2.736   3.021  0.6524  0.4164  0.2182
  188POPC    HX21583   3.046   2.766   2.932  1.2320  0.8029  0.7224
  188POPC    HY21584   3.038   2.655   3.077 -2.0040 -3.9255 -2.9779
  188POPC   O3121585   2.968   2.854   3.103 -0.4972  0.1233  0.0267
  188POPC   C3121586   3.079   2.907   3.141  0.0377 -0.5904 -0.7868
  188POPC   O3221587   3.193   2.883   3.104  0.6991  0.0906 -0.2633
  188POPC   C3221588   3.048   3.011   3.254  0.4323  0.1046 -0.1410
  188POPC   H2X21589   3.022   2.940   3.335  1.6649  1.2203  1.2730
  188POPC   H2Y21590   2.946   3.054   3.239  1.2081  2.4375  0.9705
  188POPC   C2321591   2.826   2.490   3.415  0.4947 -1.0114  0.3914
  188POPC   H3R21592   2.915   2.424   3.408 -0.1864 -2.0110  0.9561
  188POPC   H3S21593   2.770   2.460   3.506 -2.0805  0.8680 -0.4815
  188POPC   C2421594   2.895   2.630   3.438  0.9784 -0.0234 -0.4161
  188POPC   H4R21595   2.819   2.710   3.425 -0.0808 -1.1178 -1.2114
  188POPC   H4S21596   2.959   2.630   3.347  1.8023  0.3263  0.1571
  188POPC   C2521597   2.949   2.651   3.582  0.7529 -0.0505  0.2402
  188POPC   H5R21598   3.037   2.585   3.588  1.2138  0.2656 -2.2462
  188POPC   H5S21599   2.872   2.607   3.650  2.7666 -2.3007  1.1969
  188POPC   C2621600   2.996   2.792   3.626  0.3627 -0.4896  0.3085
  188POPC   H6R21601   2.903   2.849   3.647  1.0773  0.4891  0.9214
  188POPC   H6S21602   3.053   2.834   3.541  1.0700 -1.0288  0.5105
  188POPC   C2721603   3.091   2.784   3.750  0.1079  0.0690 -0.4388
  188POPC   H7R21604   3.139   2.879   3.782 -0.5344  0.3896 -0.4110
  188POPC   H7S21605   3.176   2.718   3.724  0.4534  0.2467  0.2256
  188POPC   C2821606   3.014   2.733   3.877 -0.0005  0.5407 -0.3262
  188POPC   H8R21607   3.091   2.717   3.955 -1.0111 -0.6037  0.4872
  188POPC   H8S21608   2.963   2.637   3.851 -0.9729  1.2193 -0.9855
  188POPC   C2921609   2.913   2.830   3.935  0.3663 -0.3457  0.4072
  188POPC   H9121610   2.827   2.833   3.866  1.2275 -0.9019 -0.7233
  188POPC  C21021611   2.909   2.907   4.044  0.1384  0.5526 -0.1736
  188POPC  H10121612   2.828   2.980   4.061 -1.0065 -0.4177 -1.1704
  188POPC  C21121613   3.024   2.914   4.138 -0.2533 -0.1121 -0.7427
  188POPC  H11R21614   3.015   3.019   4.174 -1.8308  0.6893 -3.2114
  188POPC  H11S21615   3.119   2.892   4.085  1.7855  2.1400  1.6474
  188POPC  C21221616   3.020   2.810   4.252  0.0188  0.7977 -0.4835
  188POPC  H12R21617   3.117   2.806   4.305  0.5803 -1.3492 -1.5277
  188POPC  H12S21618   3.006   2.715   4.195  1.5778  0.3687 -0.1996
  188POPC  C21321619   2.909   2.835   4.357 -0.4484  0.0737 -0.1318
  188POPC  H13R21620   2.907   2.759   4.438 -0.1777 -0.8106 -0.9409
  188POPC  H13S21621   2.808   2.820   4.312 -0.7261  0.4682  0.3461
  188POPC  C21421622   2.910   2.977   4.421 -0.6986 -0.0421  0.3328
  188POPC  H14R21623   2.875   3.043   4.339  0.1244  0.4689  0.3859
  188POPC  H14S21624   3.011   2.998   4.461  1.1190 -0.3380 -3.6250
  188POPC  C21521625   2.813   2.993   4.537  0.5306 -0.3515  0.5468
  188POPC  H15R21626   2.851   2.929   4.618 -0.8033  0.0523  1.5293
  188POPC  H15S21627   2.715   2.962   4.494  0.7608  0.6649 -0.7934
  188POPC  C21621628   2.796   3.138   4.594 -0.5070 -0.1234 -1.0768
  188POPC  H16R21629   2.740   3.200   4.521 -0.0097  0.2456 -1.1467
  188POPC  H16S21630   2.896   3.179   4.620 -0.5582 -0.6603  0.0223
  188POPC  C21721631   2.717   3.146   4.722 -0.3764 -1.1710 -0.3403
  188POPC  H17R21632   2.790   3.124   4.804  0.2986 -1.0467 -0.8926
  188POPC  H17S21633   2.655   3.056   4.743 -0.1340 -0.5898  3.7334
  188POPC  C21821634   2.641   3.279   4.738  0.0592 -0.2742  0.5945
  188POPC  H18R21635   2.578   3.291   4.647  0.7121 -2.7091 -0.2586
  188POPC  H18S21636   2.708   3.367   4.753  0.4519 -0.5689  0.5877
  188POPC  H18T21637   2.576   3.252   4.823 -0.6022  0.2825  0.2726
  188POPC   C3321638   3.140   3.111   3.312 -0.0785 -0.4031 -0.7732
  188POPC   H3X21639   3.090   3.207   3.337  0.3524  0.1650 -1.9886
  188POPC   H3Y21640   3.224   3.126   3.239  1.0598  2.1081  0.9149
  188POPC   C3421641   3.211   3.057   3.445  0.2640  0.6630 -0.5462
  188POPC   H4X21642   3.127   3.039   3.515  2.2810 -0.1691  1.8175
  188POPC   H4Y21643   3.266   3.141   3.493  1.0396 -0.8177  1.2578
  188POPC   C3521644   3.297   2.934   3.418 -0.0145  0.1507  0.0126
  188POPC   H5X21645   3.314   2.928   3.308 -0.7802  0.5557 -0.1391
  188POPC   H5Y21646   3.237   2.846   3.450 -1.9552  1.2906 -0.3267
  188POPC   C3621647   3.441   2.922   3.479  0.2647 -0.5167 -0.3484
  188POPC   H6X21648   3.505   3.011   3.457  1.1505 -1.1075 -0.2097
  188POPC   H6Y21649   3.500   2.847   3.423  0.2477 -1.6850  1.1248
  188POPC   C3721650   3.445   2.892   3.628  0.0193  0.0611  0.1328
  188POPC   H7X21651   3.549   2.863   3.655  0.8958  0.9171 -2.1575
  188POPC   H7Y21652   3.386   2.802   3.657  2.1791 -1.3937  0.2386
  188POPC   C3821653   3.415   3.004   3.729  0.6528 -0.4332  0.3162
  188POPC   H8X21654   3.310   3.031   3.706  1.3627  1.2541 -1.1647
  188POPC   H8Y21655   3.483   3.090   3.713 -0.2136 -0.0681 -1.7492
  188POPC   C3921656   3.430   2.952   3.874  1.3246 -0.0799 -0.2508
  188POPC   H9X21657   3.538   2.930   3.890  1.2919  0.0655  0.1954
  188POPC   H9Y21658   3.381   2.852   3.873  2.7102 -0.8393  1.1853
  188POPC  C31021659   3.378   3.035   3.986 -1.0373 -0.4042  0.6032
  188POPC  H10X21660   3.267   3.042   3.993 -1.2825  1.3798 -2.8914
  188POPC  H10Y21661   3.412   3.140   3.976  2.4237 -1.4120  0.6635
  188POPC  C31121662   3.439   2.993   4.128  0.2517 -0.0878  0.0123
  188POPC  H11X21663   3.548   3.013   4.141 -0.2718  2.4303  0.8748
  188POPC  H11Y21664   3.424   2.886   4.155 -1.5113 -0.3556 -1.8310
  188POPC  C31221665   3.375   3.077   4.240 -0.5397  0.2282  0.1719
  188POPC  H12X21666   3.266   3.101   4.233 -0.6713 -0.2967  0.3702
  188POPC  H12Y21667   3.421   3.178   4.236 -2.5026  1.2079  0.7007
  188POPC  C31321668   3.385   3.015   4.375  0.4452  0.4061  0.1792
  188POPC  H13X21669   3.490   2.987   4.401 -0.0409 -1.0312  0.6774
  188POPC  H13Y21670   3.349   2.910   4.375 -0.4074  0.6642  2.4681
  188POPC  C31421671   3.310   3.095   4.482  0.2195  0.7186  0.3349
  188POPC  H14X21672   3.213   3.130   4.441 -1.9505 -4.3192  0.3092
  188POPC  H14Y21673   3.365   3.186   4.513  0.6659  0.1863  1.1795
  188POPC  C31521674   3.262   3.015   4.606 -0.4762 -0.2960 -0.3366
  188POPC  H15X21675   3.342   2.957   4.654 -0.7832  0.5172  1.2105
  188POPC  H15Y21676   3.195   2.931   4.578 -0.9547 -0.0131 -0.0640
  188POPC  C31621677   3.195   3.095   4.713  0.3061 -0.3705 -0.4875
  188POPC  H16X21678   3.262   3.179   4.743 -0.8811 -0.0989  1.5978
  188POPC  H16Y21679   3.182   3.032   4.803 -1.2475 -0.9882 -1.1059
  188POPC  H16Z21680   3.098   3.132   4.674 -0.0108  0.4359  1.0194
  189SAPI   C1221681   1.763   0.829   7.688 -0.2875  0.8222  0.0405
  189SAPI    H221682   1.870   0.812   7.712 -0.3278 -0.0694 -0.3644
  189SAPI    O221683   1.688   0.726   7.757  0.0537 -0.3508  0.1178
  189SAPI   HO221684   1.752   0.673   7.804  0.7651  1.3827  1.2214
  189SAPI   C1321685   1.720   0.965   7.731  0.1925 -0.0011  0.2217
  189SAPI    H321686   1.780   1.040   7.675  2.6835 -1.4242  0.8338
  189SAPI    O321687   1.746   0.976   7.868  0.6594 -0.0445  0.2115
  189SAPI   HO321688   1.657   0.983   7.902  0.5929  1.5744 -0.2397
  189SAPI   C1421689   1.574   0.996   7.701  0.2222  0.3924 -0.7347
  189SAPI    H421690   1.511   0.939   7.772  1.3663  1.0085  0.8271
  189SAPI    O421691   1.541   1.126   7.749  0.4765 -0.1718  0.1567
  189SAPI   HO421692   1.472   1.135   7.815  1.1101  3.3428  0.5803
  189SAPI   C1521693   1.536   0.968   7.556 -0.1195 -0.0468 -0.2173
  189SAPI    H521694   1.577   1.057   7.503 -0.7413  1.1428  1.2327
  189SAPI    O521695   1.396   0.958   7.543 -0.0685 -0.3763 -0.1738
  189SAPI   HO521696   1.359   1.045   7.530 -0.9750 -1.1537 -4.2488
  189SAPI   C1621697   1.602   0.849   7.487 -0.0116  0.3328 -0.5625
  189SAPI    H621698   1.535   0.761   7.500  0.9892 -0.8048 -2.6236
  189SAPI    O621699   1.599   0.876   7.346 -0.2250 -0.2316  0.2831
  189SAPI   HO621700   1.599   0.791   7.300 -0.3776  0.3338 -0.8047
  189SAPI   C1121701   1.745   0.819   7.536 -0.5455  0.6635  0.1985
  189SAPI    H121702   1.797   0.905   7.490 -3.6153  1.8495 -1.2922
  189SAPI     P21703   1.947   0.649   7.460  0.2111 -0.0044  0.2231
  189SAPI   O1321704   1.972   0.542   7.563  0.3298  0.8089  0.3632
  189SAPI   O1421705   2.034   0.766   7.474  0.2245 -0.9309 -0.1914
  189SAPI   O1221706   1.790   0.695   7.481  0.4833  0.5085 -0.1919
  189SAPI   O1121707   1.961   0.588   7.315  0.3425 -0.0794  0.1176
  189SAPI    C121708   1.899   0.463   7.271  0.1586 -0.8150 -0.1260
  189SAPI    HA21709   1.813   0.431   7.334  0.0193 -4.3112 -1.8954
  189SAPI    HB21710   1.855   0.475   7.169 -0.5177  0.5453  0.2936
  189SAPI    C221711   2.003   0.351   7.267 -0.3779  0.1378  0.4286
  189SAPI    HS21712   2.038   0.333   7.371  0.2393 -2.0976 -0.0951
  189SAPI   O2121713   2.110   0.391   7.174  0.2734  0.0165 -0.1847
  189SAPI   C2121714   2.226   0.335   7.191  0.6648  0.5400  0.4638
  189SAPI   O2221715   2.250   0.245   7.270 -0.0786 -0.4049 -0.1701
  189SAPI   C2221716   2.322   0.417   7.102  0.0857  0.6602  0.8319
  189SAPI   H2R21717   2.282   0.426   6.999 -2.5079 -1.6073  1.5294
  189SAPI   H2S21718   2.324   0.515   7.155 -2.8295  0.3348  1.7385
  189SAPI    C321719   1.946   0.211   7.221  0.5829  0.0180  1.0258
  189SAPI    HX21720   1.853   0.186   7.275 -1.0284  1.2324 -1.0365
  189SAPI    HY21721   2.024   0.132   7.229  1.0810  0.5250  1.2609
  189SAPI   O3121722   1.904   0.231   7.083 -0.2344  0.3709 -0.4677
  189SAPI   C3121723   1.833   0.132   7.019 -1.2957 -0.5309  0.1954
  189SAPI   O3221724   1.805   0.028   7.068  0.4811  0.2839 -0.2319
  189SAPI   C3221725   1.795   0.175   6.880  0.2493  0.5329 -0.6314
  189SAPI   H2X21726   1.807   0.085   6.816  1.2259 -0.6905  1.1753
  189SAPI   H2Y21727   1.870   0.245   6.840  0.1458  1.5684  0.8988
  189SAPI   C2321728   2.470   0.362   7.107 -0.0738 -0.0749  0.3549
  189SAPI   H3R21729   2.508   0.355   7.211  0.3280  0.5786  0.2615
  189SAPI   H3S21730   2.529   0.442   7.056 -0.4986  1.7093  2.4910
  189SAPI   C2421731   2.501   0.226   7.037 -0.8048 -0.3688 -1.0566
  189SAPI   H4R21732   2.428   0.149   7.070 -0.8827  0.3288  0.4798
  189SAPI   H4S21733   2.600   0.194   7.077 -1.8299 -0.5409  1.5096
  189SAPI   C2521734   2.511   0.254   6.893  0.2515  0.3056  0.5541
  189SAPI   H5R21735   2.585   0.327   6.858  0.3803 -0.2245 -0.3082
  189SAPI   C2621736   2.410   0.240   6.808 -0.5858  0.0935  0.5457
  189SAPI   H6R21737   2.416   0.274   6.704 -2.0359  0.5600  0.5928
  189SAPI   C2721738   2.297   0.155   6.844 -0.1585  0.1333 -0.4758
  189SAPI   H7R21739   2.252   0.180   6.942  0.7645 -2.0356  0.5617
  189SAPI   H7S21740   2.331   0.050   6.855 -1.1931 -0.3827 -1.8846
  189SAPI   C2821741   2.183   0.162   6.750 -0.2782 -0.2315  0.3408
  189SAPI   H8R21742   2.141   0.262   6.731 -0.8308 -0.1312  1.9237
  189SAPI   C2921743   2.123   0.057   6.682 -0.2927 -0.3022 -0.0036
  189SAPI   H9R21744   2.039   0.082   6.616 -0.8032  1.3048  1.2115
  189SAPI  C21021745   2.166  -0.090   6.699 -0.0416  0.5665  0.1192
  189SAPI  H10R21746   2.139  -0.125   6.800 -2.4432 -0.8695 -0.9395
  189SAPI  H10S21747   2.275  -0.109   6.690  0.3149  1.6547  1.8575
  189SAPI  C21121748   2.104  -0.187   6.596 -0.2623  0.2514  0.5589
  189SAPI  H11R21749   2.020  -0.240   6.643  0.6294 -1.5389  0.2230
  189SAPI  C21221750   2.130  -0.203   6.466 -0.5690 -0.5271  0.6012
  189SAPI  H12R21751   2.077  -0.288   6.419 -1.1909 -0.6380  1.4770
  189SAPI  C21321752   2.230  -0.137   6.376  0.4035  0.0668 -0.5205
  189SAPI  H13R21753   2.280  -0.210   6.309  0.0825  0.0416 -0.7364
  189SAPI  H13S21754   2.308  -0.095   6.443  1.5743 -1.1359 -1.0856
  189SAPI  C21421755   2.157  -0.039   6.287 -0.8376  0.4184 -0.1787
  189SAPI  H14R21756   2.076  -0.067   6.218  0.6416 -0.1131 -1.7411
  189SAPI  C21521757   2.193   0.090   6.270 -0.2467  0.7853  1.0586
  189SAPI  H15R21758   2.133   0.144   6.196  2.5812  2.5665 -0.0584
  189SAPI  C21621759   2.305   0.165   6.340 -0.1241 -0.0247  0.4735
  189SAPI  H16R21760   2.333   0.118   6.436  1.9615  1.0881  0.4869
  189SAPI  H16S21761   2.270   0.265   6.374  1.4952  0.8473 -0.2896
  189SAPI  C21721762   2.425   0.179   6.249  0.2814 -0.7259  0.3799
  189SAPI  H17R21763   2.389   0.230   6.157 -2.1286  1.1969  2.2527
  189SAPI  H17S21764   2.465   0.078   6.228 -1.4209 -1.2019 -0.8718
  189SAPI  C21821765   2.547   0.254   6.307  0.7009 -0.0829 -0.3199
  189SAPI  H18R21766   2.537   0.365   6.316  0.5975 -0.0551 -0.7658
  189SAPI  H18S21767   2.631   0.242   6.235  1.3631  0.7306  0.2914
  189SAPI  C21921768   2.602   0.196   6.441 -0.3061  0.0124 -0.3255
  189SAPI  H19R21769   2.578   0.088   6.443 -2.5964  0.4575 -1.1205
  189SAPI  H19S21770   2.559   0.254   6.525 -0.5334  1.8738 -1.6438
  189SAPI  C22021771   2.755   0.212   6.454  0.4014  0.2763 -0.0264
  189SAPI  H20R21772   2.797   0.160   6.543 -0.7640  0.4556  0.6536
  189SAPI  H20S21773   2.787   0.318   6.438  0.7226 -0.0840 -2.0009
  189SAPI  H20T21774   2.807   0.162   6.370  2.5035  2.4522 -0.1404
  189SAPI   C3321775   1.650   0.229   6.874  0.0899  0.2356 -0.0347
  189SAPI   H3X21776   1.581   0.147   6.906  2.1575 -1.9223 -0.7733
  189SAPI   H3Y21777   1.623   0.242   6.766 -0.0525 -4.1018 -0.7019
  189SAPI   C3421778   1.637   0.359   6.949 -0.2818  0.8488  0.4386
  189SAPI   H4X21779   1.721   0.424   6.916  0.0604  1.3082  2.1361
  189SAPI   H4Y21780   1.648   0.351   7.059  3.0346  0.4547  0.1830
  189SAPI   C3521781   1.511   0.445   6.922  0.5026 -0.4530  0.5670
  189SAPI   H5X21782   1.417   0.395   6.955 -1.1137  0.1886 -2.6550
  189SAPI   H5Y21783   1.489   0.462   6.815 -0.1640 -0.7860  0.6451
  189SAPI   C3621784   1.509   0.591   6.985  0.0002 -0.0942  0.1294
  189SAPI   H6X21785   1.593   0.656   6.951 -0.8343 -0.3005 -2.4800
  189SAPI   H6Y21786   1.531   0.573   7.093  1.4896  1.3324  0.1163
  189SAPI   C3721787   1.380   0.676   6.961 -0.0968 -0.3186 -0.6210
  189SAPI   H7X21788   1.302   0.618   7.014  1.5981 -1.0062  1.2117
  189SAPI   H7Y21789   1.359   0.678   6.851  2.7854 -2.5841 -1.3192
  189SAPI   C3821790   1.383   0.815   7.028  0.2465 -0.2068  0.2051
  189SAPI   H8X21791   1.488   0.844   7.008  0.7863 -1.7674  0.6298
  189SAPI   H8Y21792   1.376   0.816   7.139 -0.2209 -0.7291  0.1833
  189SAPI   C3921793   1.286   0.920   6.971 -0.0876 -0.1931  0.1998
  189SAPI   H9X21794   1.185   0.877   6.985  0.5088 -1.9419 -0.6352
  189SAPI   H9Y21795   1.304   0.930   6.862  0.7630  0.7993  0.4107
  189SAPI  C31021796   1.288   1.061   7.028 -0.0803 -0.1727  0.2472
  189SAPI  H10X21797   1.387   1.105   7.004  0.3756 -1.4395 -0.3251
  189SAPI  H10Y21798   1.272   1.051   7.138  0.2044 -1.7162  0.1671
  189SAPI  C31121799   1.175   1.147   6.973 -0.0437 -0.1351  0.2289
  189SAPI  H11X21800   1.173   1.244   7.028  1.1727  0.8789 -1.4116
  189SAPI  H11Y21801   1.079   1.096   6.995 -0.4823  1.2040  1.5857
  189SAPI  C31221802   1.185   1.182   6.822  0.6186 -0.2412 -0.6814
  189SAPI  H12X21803   1.195   1.084   6.770  1.6053 -1.1787  1.1956
  189SAPI  H12Y21804   1.276   1.241   6.800 -0.5001  1.2157 -1.6687
  189SAPI  C31321805   1.062   1.264   6.776  0.1220 -0.0037  0.2595
  189SAPI  H13X21806   1.074   1.367   6.816 -0.4433  1.4737 -3.0356
  189SAPI  H13Y21807   0.981   1.206   6.826  1.0913 -1.0931  0.6031
  189SAPI  C31421808   1.037   1.292   6.623 -0.4367 -0.0189  0.5513
  189SAPI  H14X21809   0.938   1.341   6.611 -1.0714 -1.2199  0.7451
  189SAPI  H14Y21810   1.027   1.197   6.567  0.8655 -0.0349  0.3183
  189SAPI  C31521811   1.141   1.379   6.556 -0.2559  0.5379 -0.1220
  189SAPI  H15X21812   1.242   1.354   6.597 -0.6324  2.8235  2.4568
  189SAPI  H15Y21813   1.124   1.486   6.578  3.8903  2.0748 -3.0899
  189SAPI  C31621814   1.130   1.381   6.406  0.7726  0.4357 -0.3208
  189SAPI  H16X21815   1.152   1.479   6.358  0.7333 -0.1215 -1.4973
  189SAPI  H16Y21816   1.022   1.362   6.388  1.3389 -2.0040 -1.5957
  189SAPI  C31721817   1.211   1.278   6.330  0.5702  0.5716 -0.0085
  189SAPI  H17X21818   1.195   1.176   6.370  0.1418  0.5627 -0.2054
  189SAPI  H17Y21819   1.316   1.308   6.354  0.4249 -1.2367  3.4764
  189SAPI  C31821820   1.181   1.285   6.172 -0.5834 -0.1673 -0.3388
  189SAPI  H18X21821   1.245   1.208   6.124 -2.7749 -1.9936 -0.4870
  189SAPI  H18Y21822   1.185   1.386   6.127 -1.1311 -0.4050 -0.9396
  189SAPI  H18Z21823   1.075   1.255   6.155 -0.7899 -0.5451  1.4136
  190SAPI   C1221824   0.133   2.264   7.660 -0.7570 -0.2351  0.5161
  190SAPI    H221825   0.138   2.268   7.549  0.5004  0.6769  0.5799
  190SAPI    O221826   0.088   2.392   7.710 -0.0186 -0.0073 -0.0683
  190SAPI   HO221827   0.125   2.453   7.646 -0.4808  0.6074  0.2416
  190SAPI   C1321828   0.036   2.162   7.706 -0.7304 -0.3598 -0.5264
  190SAPI    H321829   0.073   2.066   7.664 -0.8555 -1.1491  1.0745
  190SAPI    O321830  -0.092   2.185   7.650  0.0448 -0.0648  0.5126
  190SAPI   HO321831  -0.119   2.098   7.620 -0.0470  0.4585 -1.0411
  190SAPI   C1421832   0.031   2.143   7.862  0.1717 -0.3632  0.7433
  190SAPI    H421833  -0.008   2.240   7.897 -1.7240 -0.7141 -0.2359
  190SAPI    O421834  -0.061   2.048   7.907  0.0795  0.2576 -0.2741
  190SAPI   HO421835  -0.136   2.094   7.945 -0.3741  0.0005 -0.8487
  190SAPI   C1521836   0.168   2.132   7.918 -0.0030 -0.3403 -0.3486
  190SAPI    H521837   0.194   2.025   7.908  2.9757  0.2165  0.4008
  190SAPI    O521838   0.166   2.157   8.058 -0.7133  0.1710 -0.2543
  190SAPI   HO521839   0.205   2.079   8.098 -0.7206 -0.5020 -1.5331
  190SAPI   C1621840   0.274   2.209   7.849 -0.0401 -0.4121 -0.0267
  190SAPI    H621841   0.280   2.310   7.895 -0.5952 -0.8718  1.0854
  190SAPI    O621842   0.403   2.150   7.882 -0.0135 -1.0443  0.2000
  190SAPI   HO621843   0.463   2.174   7.811  0.0354 -0.3680  0.4670
  190SAPI   C1121844   0.273   2.238   7.700 -0.0322 -0.1018  0.0004
  190SAPI    H121845   0.302   2.144   7.649  0.8427  0.3628 -0.3874
  190SAPI     P21846   0.513   2.336   7.612  0.3418  0.0088 -0.4841
  190SAPI   O1321847   0.568   2.202   7.638 -0.0146  0.1459 -0.2146
  190SAPI   O1421848   0.579   2.448   7.676 -0.0331 -0.3329  0.3849
  190SAPI   O1221849   0.351   2.349   7.655 -0.3383  0.7011  0.0142
  190SAPI   O1121850   0.515   2.357   7.458  0.1087  0.1846  1.0076
  190SAPI    C121851   0.407   2.334   7.375  0.0316  0.3286  0.5747
  190SAPI    HA21852   0.330   2.268   7.419  0.8808  0.1946  1.8956
  190SAPI    HB21853   0.363   2.431   7.343  1.1854  0.9227  0.7306
  190SAPI    C221854   0.457   2.267   7.237  0.6795 -0.0855 -0.2893
  190SAPI    HS21855   0.491   2.167   7.269 -0.1758  0.5131  2.7869
  190SAPI   O2121856   0.563   2.340   7.179  0.6326 -0.5516 -0.9019
  190SAPI   C2121857   0.621   2.286   7.073 -0.9286  0.4832 -0.8638
  190SAPI   O2221858   0.608   2.170   7.034  0.6042 -0.1412 -0.1739
  190SAPI   C2221859   0.742   2.378   7.048 -0.5480 -0.4852 -0.3273
  190SAPI   H2R21860   0.738   2.479   7.092  0.5486 -0.2175 -0.8126
  190SAPI   H2S21861   0.814   2.306   7.093 -1.7270 -2.4912 -1.4544
  190SAPI    C321862   0.326   2.266   7.144  0.4519  0.2456  0.0082
  190SAPI    HX21863   0.291   2.371   7.133 -1.2852 -0.3271 -0.1122
  190SAPI    HY21864   0.246   2.211   7.198 -0.7171  1.6737 -0.2173
  190SAPI   O3121865   0.337   2.236   7.000 -0.2852  0.6749 -0.5481
  190SAPI   C3121866   0.338   2.104   6.973  0.6129  0.0525  1.1430
  190SAPI   O3221867   0.317   2.020   7.053 -0.2042  0.4554  0.2152
  190SAPI   C3221868   0.371   2.084   6.825  0.3384  0.5868 -0.6898
  190SAPI   H2X21869   0.469   2.032   6.823  1.1518  2.0624 -0.5751
  190SAPI   H2Y21870   0.404   2.181   6.782 -0.0650  0.9178 -0.2590
  190SAPI   C2321871   0.777   2.392   6.895  0.4997 -0.1682  0.0821
  190SAPI   H3R21872   0.763   2.291   6.851 -0.9342  0.8754 -1.9579
  190SAPI   H3S21873   0.884   2.422   6.891  0.4377 -0.0693 -1.4106
  190SAPI   C2421874   0.701   2.496   6.806  0.3044 -0.4376 -0.4019
  190SAPI   H4R21875   0.763   2.518   6.716 -0.1235 -0.7924 -0.7906
  190SAPI   H4S21876   0.683   2.590   6.863 -0.1018  0.6072 -2.1791
  190SAPI   C2521877   0.560   2.451   6.770 -0.3840  0.0421  0.1268
  190SAPI   H5R21878   0.496   2.441   6.859  2.3700 -0.8341  2.1517
  190SAPI   C2621879   0.511   2.396   6.655  0.4204 -0.1849 -0.5334
  190SAPI   H6R21880   0.407   2.359   6.657  0.6875 -0.9973 -0.9498
  190SAPI   C2721881   0.587   2.370   6.530 -0.4559  0.3518 -0.2309
  190SAPI   H7R21882   0.682   2.426   6.539  0.0526 -0.3767 -0.9224
  190SAPI   H7S21883   0.520   2.419   6.456 -0.5949  0.2333 -0.1836
  190SAPI   C2821884   0.624   2.226   6.495 -0.5794 -0.0582 -0.2374
  190SAPI   H8R21885   0.693   2.173   6.562  0.6949  0.9906 -0.6944
  190SAPI   C2921886   0.585   2.166   6.383  0.2510  0.2785 -0.1834
  190SAPI   H9R21887   0.626   2.067   6.358  0.9999  0.8993 -1.5727
  190SAPI  C21021888   0.498   2.215   6.274 -0.4041  0.7250 -0.0538
  190SAPI  H10R21889   0.419   2.284   6.311 -0.6133  0.0997  0.6906
  190SAPI  H10S21890   0.447   2.131   6.222  0.5625  0.6190 -0.8651
  190SAPI  C21121891   0.571   2.297   6.171 -0.0945 -0.7506  0.5270
  190SAPI  H11R21892   0.623   2.387   6.207 -0.4562 -0.1856 -0.3062
  190SAPI  C21221893   0.596   2.257   6.037 -0.2912 -0.2623 -0.9495
  190SAPI  H12R21894   0.664   2.319   5.976 -0.8806 -0.6011 -1.9637
  190SAPI  C21321895   0.541   2.139   5.960  0.0246 -1.0555  0.1225
  190SAPI  H13R21896   0.506   2.171   5.859 -2.5516 -0.9152  0.9951
  190SAPI  H13S21897   0.450   2.101   6.012  0.5745 -0.1917  1.7766
  190SAPI  C21421898   0.661   2.044   5.947  0.3232 -0.1329 -0.8245
  190SAPI  H14R21899   0.718   2.022   6.038 -2.1881 -2.4285  0.3128
  190SAPI  C21521900   0.704   1.979   5.835  0.2743 -1.0163  0.0694
  190SAPI  H15R21901   0.793   1.915   5.843  0.2441 -0.9900  0.6486
  190SAPI  C21621902   0.636   1.983   5.702  0.4648 -0.0929 -0.5145
  190SAPI  H16R21903   0.538   2.035   5.699  1.6464  2.2516 -1.1231
  190SAPI  H16S21904   0.617   1.881   5.665 -0.3310 -0.0349 -0.2773
  190SAPI  C21721905   0.711   2.071   5.597  0.0293  0.1859  0.3296
  190SAPI  H17R21906   0.663   2.051   5.499  1.5217 -0.3639 -0.3147
  190SAPI  H17S21907   0.813   2.031   5.583  0.0240 -0.3045  1.5629
  190SAPI  C21821908   0.707   2.222   5.621 -0.3568 -0.0544  0.1713
  190SAPI  H18R21909   0.772   2.235   5.710  0.1138  1.2212 -0.3380
  190SAPI  H18S21910   0.604   2.263   5.630  0.0917  1.3459 -0.6878
  190SAPI  C21921911   0.777   2.299   5.508 -0.1575 -0.2357  0.3757
  190SAPI  H19R21912   0.876   2.254   5.484 -0.8909 -1.0540 -1.3440
  190SAPI  H19S21913   0.795   2.402   5.543 -1.4629 -1.1899  4.3260
  190SAPI  C22021914   0.692   2.313   5.379  0.3789  0.3885 -0.4105
  190SAPI  H20R21915   0.698   2.218   5.322 -0.9469  0.9862 -1.6134
  190SAPI  H20S21916   0.714   2.406   5.321 -0.2321 -0.2402 -1.6936
  190SAPI  H20T21917   0.587   2.324   5.414  0.2646 -1.3567 -0.1266
  190SAPI   C3321918   0.263   2.010   6.747  1.0804  0.1244  0.3936
  190SAPI   H3X21919   0.161   2.049   6.769  0.7124 -0.0300 -0.9816
  190SAPI   H3Y21920   0.275   1.902   6.769  0.1317  0.3897  2.4979
  190SAPI   C3421921   0.284   2.029   6.592  0.6134 -0.5656  0.9188
  190SAPI   H4X21922   0.391   2.022   6.563  0.1991 -1.1837 -0.5120
  190SAPI   H4Y21923   0.249   2.131   6.567 -1.0018 -1.2621  0.1720
  190SAPI   C3521924   0.209   1.927   6.498  0.4210 -0.4042 -0.6545
  190SAPI   H5X21925   0.100   1.942   6.508 -0.1357 -3.6351 -0.6445
  190SAPI   H5Y21926   0.243   1.826   6.530 -1.0691 -1.3129 -1.8332
  190SAPI   C3621927   0.238   1.955   6.350  0.9025 -0.8983 -0.0187
  190SAPI   H6X21928   0.349   1.948   6.345  1.2198  1.3730  1.8617
  190SAPI   H6Y21929   0.205   2.056   6.316  4.1159 -0.0162 -0.8579
  190SAPI   C3721930   0.176   1.852   6.256 -0.6873  0.1895 -0.0456
  190SAPI   H7X21931   0.068   1.835   6.277 -0.1855 -2.0005  1.0270
  190SAPI   H7Y21932   0.220   1.751   6.268 -1.1177 -0.2600 -1.9728
  190SAPI   C3821933   0.193   1.872   6.103 -0.0345 -0.4880  0.3936
  190SAPI   H8X21934   0.180   1.981   6.088  0.1821 -0.4823  0.2357
  190SAPI   H8Y21935   0.099   1.834   6.058  0.2487  1.2076 -1.7841
  190SAPI   C3921936   0.318   1.813   6.031  0.1002  0.5695 -0.9656
  190SAPI   H9X21937   0.311   1.702   6.036  1.0444  0.5089 -0.9337
  190SAPI   H9Y21938   0.405   1.834   6.096  0.2804 -1.3568 -0.5158
  190SAPI  C31021939   0.331   1.865   5.887  0.3594  0.1294  0.3571
  190SAPI  H10X21940   0.437   1.894   5.874  0.1750  1.8481  2.0339
  190SAPI  H10Y21941   0.268   1.956   5.873  1.5241  1.3432  2.5081
  190SAPI  C31121942   0.278   1.759   5.788  0.2896  0.3379 -0.7829
  190SAPI  H11X21943   0.175   1.791   5.760 -0.2842 -1.9076 -1.3989
  190SAPI  H11Y21944   0.282   1.658   5.833  2.7210 -0.3202 -2.2814
  190SAPI  C31221945   0.371   1.759   5.667  0.2163 -0.2318  0.1335
  190SAPI  H12X21946   0.475   1.728   5.689 -0.3162 -1.0778  1.6012
  190SAPI  H12Y21947   0.375   1.864   5.630  0.7660 -0.9444 -1.9474
  190SAPI  C31321948   0.306   1.672   5.555 -0.1280 -0.4421  0.1111
  190SAPI  H13X21949   0.200   1.700   5.541 -0.1813 -0.5276  0.3310
  190SAPI  H13Y21950   0.304   1.567   5.590 -0.9995 -0.1715  0.9140
  190SAPI  C31421951   0.382   1.688   5.421 -0.1870 -0.3530  0.6758
  190SAPI  H14X21952   0.329   1.633   5.340  0.2444  1.7457 -1.1519
  190SAPI  H14Y21953   0.475   1.633   5.444 -0.2219 -0.2612  1.0333
  190SAPI  C31521954   0.409   1.833   5.357  0.2213 -0.6241 -0.0568
  190SAPI  H15X21955   0.472   1.816   5.267  1.5825  0.1237  0.7198
  190SAPI  H15Y21956   0.458   1.900   5.431 -1.1054  0.7199 -0.3450
  190SAPI  C31621957   0.278   1.893   5.312  0.3063  0.1655 -0.4104
  190SAPI  H16X21958   0.196   1.878   5.384 -1.1868 -0.7517 -2.2222
  190SAPI  H16Y21959   0.247   1.826   5.230  0.5286 -1.1444  0.5496
  190SAPI  C31721960   0.286   2.029   5.248 -0.0781 -0.0296 -0.1565
  190SAPI  H17X21961   0.180   2.049   5.221 -0.0156  1.1448  0.3735
  190SAPI  H17Y21962   0.343   2.022   5.153  3.1664  0.1741  1.6104
  190SAPI  C31821963   0.358   2.144   5.317  0.7304  0.2444  0.7065
  190SAPI  H18X21964   0.309   2.240   5.291 -2.8572 -1.0384  2.0187
  190SAPI  H18Y21965   0.466   2.140   5.294  0.6504 -0.5718  0.4401
  190SAPI  H18Z21966   0.341   2.138   5.427 -0.9985 -0.6528  0.4258
  191SAPI   C1221967   2.177   1.618   2.618  0.0519 -0.4894  0.4181
  191SAPI    H221968   2.234   1.700   2.666 -1.4223  0.9395 -0.1913
  191SAPI    O221969   2.047   1.661   2.600  0.3954 -0.2829  0.3141
  191SAPI   HO221970   2.022   1.691   2.688  0.2777 -0.1513  0.2362
  191SAPI   C1321971   2.249   1.576   2.490 -0.0204  0.3096 -0.5160
  191SAPI    H321972   2.354   1.548   2.514  0.7076  2.5408 -0.9162
  191SAPI    O321973   2.263   1.694   2.412  0.0181  0.3432  0.0414
  191SAPI   HO321974   2.318   1.750   2.466 -1.6090  1.0818  1.0070
  191SAPI   C1421975   2.177   1.472   2.412  0.3375 -0.3173  0.2116
  191SAPI    H421976   2.079   1.521   2.392  0.8442 -0.0476 -1.8142
  191SAPI    O421977   2.249   1.444   2.290  0.0479 -0.0375  0.9367
  191SAPI   HO421978   2.344   1.443   2.305  0.2720  3.5301  0.7751
  191SAPI   C1521979   2.143   1.353   2.491 -0.2458  0.3578 -0.1792
  191SAPI    H521980   2.233   1.290   2.502 -1.4593 -1.1503  2.0647
  191SAPI    O521981   2.048   1.266   2.426  0.0305 -0.2591  0.1984
  191SAPI   HO521982   2.107   1.205   2.381  2.5630  2.3129 -0.2222
  191SAPI   C1621983   2.104   1.382   2.639  0.1558 -0.3992 -0.0792
  191SAPI    H621984   2.000   1.420   2.638  0.1844 -0.0241 -3.7744
  191SAPI    O621985   2.114   1.267   2.723 -0.2546  0.0887 -0.4743
  191SAPI   HO621986   2.028   1.263   2.765 -0.2892  0.4144 -0.5158
  191SAPI   C1121987   2.180   1.499   2.707 -0.2406 -0.3989 -0.2444
  191SAPI    H121988   2.284   1.461   2.713  0.9314  2.7688  2.1931
  191SAPI     P21989   2.215   1.588   2.959 -0.0722  0.1178  0.1022
  191SAPI   O1321990   2.296   1.699   2.907 -0.4939 -0.7050 -0.1290
  191SAPI   O1421991   2.283   1.471   3.015  0.1732  0.0194 -0.0236
  191SAPI   O1221992   2.118   1.531   2.835 -0.0584  0.1036  0.2605
  191SAPI   O1121993   2.111   1.640   3.069 -0.4138 -0.4916  0.9116
  191SAPI    C121994   2.117   1.768   3.129 -0.3020 -0.6002 -0.3354
  191SAPI    HA21995   2.125   1.833   3.039 -1.6158  0.5400  0.3382
  191SAPI    HB21996   2.018   1.802   3.166 -0.4368 -1.2051 -0.1309
  191SAPI    C221997   2.223   1.794   3.228 -0.3718 -0.0344 -0.7397
  191SAPI    HS21998   2.320   1.756   3.189 -0.0658  0.3016 -0.3143
  191SAPI   O2121999   2.188   1.747   3.355 -0.0359 -0.0852  0.5904
  191SAPI   C2122000   2.283   1.668   3.409  0.3468  0.0760 -0.4715
  191SAPI   O2222001   2.384   1.628   3.355  0.1703  0.4496  0.3547
  191SAPI   C2222002   2.246   1.634   3.554  0.8369  0.8838  0.6978
  191SAPI   H2R22003   2.293   1.713   3.616  0.5724  0.6203  1.2333
  191SAPI   H2S22004   2.136   1.635   3.568  0.5839  0.4566 -1.0045
  191SAPI    C322005   2.248   1.951   3.242 -0.6981  0.0274 -0.1199
  191SAPI    HX22006   2.150   1.997   3.267  0.0276  2.1335 -0.9365
  191SAPI    HY22007   2.276   1.989   3.142 -2.7477 -1.8945 -1.5266
  191SAPI   O3122008   2.341   1.982   3.339  0.3716 -0.2582  0.1800
  191SAPI   C3122009   2.468   1.977   3.313 -0.1206 -0.2789 -0.5353
  191SAPI   O3222010   2.521   1.948   3.211 -0.0458 -0.3892  0.9344
  191SAPI   C3222011   2.544   2.027   3.450 -0.2329  0.0168 -0.6572
  191SAPI   H2X22012   2.472   2.058   3.528 -0.5795  2.3694 -1.8020
  191SAPI   H2Y22013   2.592   2.122   3.418 -0.2227  1.7861  3.8739
  191SAPI   C2322014   2.304   1.494   3.590  0.5397  0.3908 -1.2526
  191SAPI   H3R22015   2.415   1.492   3.586  0.5395  0.5430 -1.3743
  191SAPI   H3S22016   2.260   1.425   3.515  0.0155  0.3402 -0.8981
  191SAPI   C2422017   2.259   1.441   3.729  0.2726  0.4738  0.1028
  191SAPI   H4R22018   2.225   1.531   3.784 -1.3374  2.0109 -3.1104
  191SAPI   H4S22019   2.349   1.387   3.765 -1.1854 -2.8511 -0.7961
  191SAPI   C2522020   2.139   1.349   3.706 -0.0606  0.5580  0.2940
  191SAPI   H5R22021   2.162   1.250   3.663 -0.9743 -0.4536  2.0302
  191SAPI   C2622022   2.005   1.378   3.731 -0.1218 -0.3543 -0.1711
  191SAPI   H6R22023   1.933   1.296   3.713  0.6716 -1.0840 -0.0692
  191SAPI   C2722024   1.943   1.500   3.791  0.2401 -0.4843 -0.0524
  191SAPI   H7R22025   1.907   1.564   3.708  1.1260  0.4343  0.2477
  191SAPI   H7S22026   2.020   1.566   3.836  0.5659 -0.2724 -0.9083
  191SAPI   C2822027   1.835   1.483   3.890 -0.3945 -0.1635 -0.5910
  191SAPI   H8R22028   1.739   1.441   3.855 -1.5531  0.8125  1.2815
  191SAPI   C2922029   1.835   1.529   4.017  0.2742 -0.9851  0.5213
  191SAPI   H9R22030   1.759   1.484   4.083  0.4119 -0.1332  1.2674
  191SAPI  C21022031   1.947   1.603   4.083  0.0690  0.6942  0.0923
  191SAPI  H10R22032   1.912   1.678   4.158  1.4538  0.6761  0.7800
  191SAPI  H10S22033   1.991   1.665   4.002 -1.1421 -1.4970 -2.4059
  191SAPI  C21122034   2.058   1.518   4.138  0.0920  0.0355 -0.2222
  191SAPI  H11R22035   2.084   1.430   4.078  0.1878  0.8655 -1.4302
  191SAPI  C21222036   2.124   1.532   4.256 -0.4262  0.2529  0.3163
  191SAPI  H12R22037   2.191   1.448   4.278 -0.7142  0.6476  3.1989
  191SAPI  C21322038   2.106   1.634   4.370  0.5651 -0.1266  0.8691
  191SAPI  H13R22039   2.000   1.667   4.377  0.5109 -0.0791 -0.0943
  191SAPI  H13S22040   2.161   1.728   4.344 -1.4985  1.3318  1.5314
  191SAPI  C21422041   2.153   1.587   4.503  0.1106 -0.2139 -0.6730
  191SAPI  H14R22042   2.263   1.583   4.503  0.1857  1.2199 -0.1584
  191SAPI  C21522043   2.084   1.547   4.610 -0.2695  0.1122 -0.2932
  191SAPI  H15R22044   2.139   1.513   4.699  0.1253 -3.4144 -1.7359
  191SAPI  C21622045   1.929   1.541   4.627 -0.4769  0.9462  0.1270
  191SAPI  H16R22046   1.887   1.440   4.614  1.8023 -0.0044 -0.2956
  191SAPI  H16S22047   1.887   1.600   4.543  0.9030 -3.5280 -4.1225
  191SAPI  C21722048   1.868   1.601   4.760  0.2182 -0.0200 -0.0647
  191SAPI  H17R22049   1.899   1.555   4.856  0.2054  1.1269  0.5020
  191SAPI  H17S22050   1.763   1.576   4.734  0.5027  0.6633 -2.0273
  191SAPI  C21822051   1.875   1.756   4.772  0.7892  0.5233 -0.0650
  191SAPI  H18R22052   1.826   1.801   4.682 -1.4419  1.5612  1.5780
  191SAPI  H18S22053   1.982   1.785   4.757  1.2924 -1.4139 -0.4318
  191SAPI  C21922054   1.825   1.825   4.907 -0.8245 -0.2767  0.4247
  191SAPI  H19R22055   1.897   1.779   4.978  1.3475  2.5934  0.2190
  191SAPI  H19S22056   1.722   1.787   4.924 -1.1883  0.1959 -0.6288
  191SAPI  C22022057   1.830   1.979   4.902  0.0451  0.3404  0.3227
  191SAPI  H20R22058   1.741   2.010   4.844  0.7562 -0.4171 -1.2666
  191SAPI  H20S22059   1.926   2.009   4.855 -0.8380  2.1462 -0.4267
  191SAPI  H20T22060   1.839   2.015   5.007 -1.0259 -2.5601  1.5126
  191SAPI   C3322061   2.647   1.927   3.525 -0.5491  0.2525 -0.4728
  191SAPI   H3X22062   2.698   1.991   3.600  1.0098 -1.0078 -0.4256
  191SAPI   H3Y22063   2.731   1.895   3.460  0.1131  0.7829  0.1037
  191SAPI   C3422064   2.580   1.809   3.594  0.5924  0.0864 -0.9696
  191SAPI   H4X22065   2.577   1.726   3.519 -3.3607 -0.4641 -0.3969
  191SAPI   H4Y22066   2.477   1.834   3.627  1.6780 -0.0726  3.0670
  191SAPI   C3522067   2.650   1.768   3.734 -0.3921 -1.1027 -0.2826
  191SAPI   H5X22068   2.583   1.696   3.786 -0.2321  0.0764  1.6334
  191SAPI   H5Y22069   2.645   1.865   3.788 -1.1603 -1.1652 -0.2186
  191SAPI   C3622070   2.791   1.716   3.715 -0.5413 -0.6593 -0.4145
  191SAPI   H6X22071   2.840   1.799   3.659 -1.4278  0.5529  0.5582
  191SAPI   H6Y22072   2.792   1.619   3.661  0.6410 -0.6313 -0.4705
  191SAPI   C3722073   2.872   1.703   3.852  0.3890  0.6224  0.2444
  191SAPI   H7X22074   2.821   1.621   3.906 -1.3318  2.2479  1.2322
  191SAPI   H7Y22075   2.863   1.796   3.912  1.1362  2.3652 -2.1998
  191SAPI   C3822076   3.022   1.689   3.836 -0.8191  0.4122 -0.8401
  191SAPI   H8X22077   3.058   1.783   3.790 -2.3256  1.4380 -0.0034
  191SAPI   H8Y22078   3.027   1.613   3.755  0.1475  1.8740 -2.1959
  191SAPI   C3922079   3.101   1.656   3.964  0.0439 -0.6760 -0.2174
  191SAPI   H9X22080   3.103   1.746   4.029 -0.1184  0.8681 -2.2406
  191SAPI   H9Y22081   3.208   1.635   3.943  0.7688  1.8382  0.6919
  191SAPI  C31022082   3.033   1.541   4.051  0.3489  0.3903 -0.8920
  191SAPI  H10X22083   3.028   1.453   3.983  1.2858  0.4389 -1.0410
  191SAPI  H10Y22084   2.939   1.586   4.090  1.3001  0.9788  0.8074
  191SAPI  C31122085   3.111   1.506   4.185  0.0581 -0.3013  0.2633
  191SAPI  H11X22086   3.217   1.511   4.151 -0.2096  0.8380 -0.4663
  191SAPI  H11Y22087   3.093   1.401   4.217  1.9683 -0.3774  1.2626
  191SAPI  C31222088   3.088   1.601   4.303 -0.3758 -0.1287  0.1333
  191SAPI  H12X22089   2.991   1.596   4.357  0.0183  3.0586  1.3421
  191SAPI  H12Y22090   3.085   1.705   4.266 -1.7740 -0.8868 -2.0987
  191SAPI  C31322091   3.196   1.587   4.409  0.5458 -0.0427  0.0074
  191SAPI  H13X22092   3.294   1.619   4.367 -0.7518  1.0837 -2.3807
  191SAPI  H13Y22093   3.204   1.479   4.434  0.9700 -0.1401 -0.5249
  191SAPI  C31422094   3.174   1.673   4.536  0.2887  0.2504  0.6304
  191SAPI  H14X22095   3.072   1.650   4.574 -0.3731  0.5578 -0.9133
  191SAPI  H14Y22096   3.167   1.777   4.498 -1.5205  0.3301  1.0930
  191SAPI  C31522097   3.283   1.671   4.643 -0.1410 -0.4580 -0.0409
  191SAPI  H15X22098   3.270   1.761   4.707 -0.4594  0.3523 -1.2110
  191SAPI  H15Y22099   3.380   1.667   4.589 -0.9783 -0.1139 -1.6438
  191SAPI  C31622100   3.275   1.543   4.723  0.4765  0.0414 -0.3178
  191SAPI  H16X22101   3.240   1.457   4.660 -2.4622  0.0485  1.1347
  191SAPI  H16Y22102   3.186   1.557   4.788  0.9189 -1.3666  0.6406
  191SAPI  C31722103   3.395   1.515   4.808 -0.0124  0.8082  0.5927
  191SAPI  H17X22104   3.354   1.462   4.896  2.8526  0.8695  2.0928
  191SAPI  H17Y22105   3.448   1.607   4.841  0.6007  1.0086 -0.8559
  191SAPI  C31822106   3.495   1.419   4.744  0.0688 -0.1325 -0.3955
  191SAPI  H18X22107   3.584   1.397   4.807 -0.9290  0.0008  1.1220
  191SAPI  H18Y22108   3.522   1.458   4.643 -0.5247  0.0545 -0.4869
  191SAPI  H18Z22109   3.442   1.323   4.727  2.4891 -1.4571 -0.8962
  192SAPI   C1222110   6.251   4.686   2.701 -0.1845  0.4230  0.1485
  192SAPI    H222111   6.150   4.710   2.663  0.6662  0.1189 -2.4804
  192SAPI    O222112   6.327   4.643   2.583 -0.3423 -0.3202 -0.1117
  192SAPI   HO222113   6.275   4.634   2.503  0.4778  1.5103 -0.9297
  192SAPI   C1322114   6.303   4.809   2.769 -0.1370 -0.1263 -0.2833
  192SAPI    H322115   6.235   4.834   2.853  0.3810 -2.6985  0.9967
  192SAPI    O322116   6.306   4.915   2.673  0.4202 -0.2952 -0.0843
  192SAPI   HO322117   6.213   4.938   2.666  0.3774 -0.5017 -0.2170
  192SAPI   C1422118   6.438   4.776   2.820 -0.4687  0.0058  0.0963
  192SAPI    H422119   6.501   4.796   2.731 -1.3250  1.3936 -0.2283
  192SAPI    O422120   6.480   4.870   2.919  0.1719  0.6008 -0.3210
  192SAPI   HO422121   6.481   4.952   2.869 -0.0099  1.3527  0.8699
  192SAPI   C1522122   6.468   4.625   2.862 -0.2270  0.3698 -0.3334
  192SAPI    H522123   6.464   4.633   2.973 -0.4461 -0.1505 -0.2980
  192SAPI    O522124   6.597   4.589   2.828 -0.2794  0.6102  0.4287
  192SAPI   HO522125   6.642   4.560   2.907  1.1109 -0.4798 -0.6941
  192SAPI   C1622126   6.365   4.518   2.833 -0.4774  0.3987  0.9235
  192SAPI    H622127   6.399   4.457   2.747 -0.5713  0.7258  0.6548
  192SAPI    O622128   6.348   4.424   2.939  0.2592  0.2456  0.4525
  192SAPI   HO622129   6.304   4.343   2.913  0.9960 -0.4705  1.3729
  192SAPI   C1122130   6.228   4.573   2.799 -0.3539  0.0198  0.8589
  192SAPI    H122131   6.184   4.615   2.892 -0.2953 -1.1212  1.4082
  192SAPI     P22132   6.050   4.378   2.827  0.2253 -0.2217 -0.3411
  192SAPI   O1322133   5.940   4.321   2.749 -0.1380 -0.1334  1.0357
  192SAPI   O1422134   6.007   4.445   2.955  0.4933  0.5296 -0.3115
  192SAPI   O1222135   6.142   4.473   2.739 -0.3618  0.0675  0.0670
  192SAPI   O1122136   6.150   4.259   2.857 -0.7129 -0.0335 -0.1527
  192SAPI    C122137   6.112   4.136   2.914  0.7199 -0.4205 -0.1679
  192SAPI    HA22138   6.022   4.096   2.862 -0.6963  1.0158  1.0949
  192SAPI    HB22139   6.196   4.065   2.897 -0.1167 -1.5059  0.1339
  192SAPI    C222140   6.080   4.135   3.065 -0.0118  0.3614 -0.5440
  192SAPI    HS22141   5.973   4.160   3.080  0.1193  0.4588  0.2692
  192SAPI   O2122142   6.162   4.228   3.130 -0.3818  0.1485 -0.3023
  192SAPI   C2122143   6.120   4.310   3.224 -0.5386  0.8139 -0.3165
  192SAPI   O2222144   6.013   4.295   3.287  0.3679 -0.6780  0.3378
  192SAPI   C2222145   6.228   4.417   3.264  0.2960 -0.0834  0.0420
  192SAPI   H2R22146   6.325   4.363   3.261  0.1637 -0.3327  0.2896
  192SAPI   H2S22147   6.226   4.499   3.189 -2.4091  0.2915  0.4173
  192SAPI    C322148   6.097   3.993   3.127  0.6123 -0.6370 -0.4504
  192SAPI    HX22149   6.206   3.975   3.137  0.3310 -1.3018  2.0774
  192SAPI    HY22150   6.050   3.915   3.063  1.2762 -0.8525 -0.6728
  192SAPI   O3122151   6.032   3.979   3.256 -0.0613 -0.0038  0.2740
  192SAPI   C3122152   6.101   4.015   3.365  0.4559 -0.4207  0.2347
  192SAPI   O3222153   6.219   4.048   3.369  0.0905 -0.2163 -0.1055
  192SAPI   C3222154   6.000   4.019   3.477  0.2200  0.1293  0.6530
  192SAPI   H2X22155   5.949   3.921   3.466  3.0507 -1.2953 -1.0347
  192SAPI   H2Y22156   5.935   4.108   3.462  1.3344  0.8115 -0.2987
  192SAPI   C2322157   6.185   4.481   3.397 -0.0953 -0.1986  0.0245
  192SAPI   H3R22158   6.179   4.402   3.475  0.3625  0.8948  1.2295
  192SAPI   H3S22159   6.089   4.534   3.377  0.6199  0.7777 -0.9701
  192SAPI   C2422160   6.275   4.593   3.441 -0.1146  0.3922  0.1091
  192SAPI   H4R22161   6.228   4.634   3.533 -3.6445 -4.1992  0.6966
  192SAPI   H4S22162   6.290   4.679   3.372  0.2307  0.1715 -0.0911
  192SAPI   C2522163   6.404   4.533   3.485 -1.1908  0.2804  0.0508
  192SAPI   H5R22164   6.447   4.471   3.405 -0.5013  2.6994 -1.5862
  192SAPI   C2622165   6.466   4.534   3.603  0.0491 -0.2330  1.0400
  192SAPI   H6R22166   6.565   4.486   3.612  0.7115  1.2820  2.3649
  192SAPI   C2722167   6.416   4.604   3.725  0.0185  1.5189  0.0196
  192SAPI   H7R22168   6.383   4.706   3.695  2.5802  2.7704  1.1671
  192SAPI   H7S22169   6.499   4.621   3.797  1.8155  0.8544 -1.7900
  192SAPI   C2822170   6.300   4.550   3.807 -0.0676  0.4519  0.3586
  192SAPI   H8R22171   6.228   4.497   3.743  0.7751  1.0445 -1.1099
  192SAPI   C2922172   6.269   4.587   3.937 -0.0437 -0.1459  0.7524
  192SAPI   H9R22173   6.185   4.550   3.997 -1.0365  0.3603 -0.2713
  192SAPI  C21022174   6.353   4.677   4.020 -0.0611  0.1048  0.1275
  192SAPI  H10R22175   6.280   4.742   4.074 -0.8666 -0.5816 -0.1210
  192SAPI  H10S22176   6.404   4.755   3.959  2.1923 -0.6712  0.9254
  192SAPI  C21122177   6.453   4.604   4.117  0.4508 -0.3334 -0.3451
  192SAPI  H11R22178   6.561   4.606   4.093  0.1044 -0.2258 -1.9996
  192SAPI  C21222179   6.411   4.552   4.234 -0.0111  0.6397 -0.1603
  192SAPI  H12R22180   6.486   4.501   4.296 -0.2716 -1.3574 -1.3980
  192SAPI  C21322181   6.273   4.539   4.291 -0.2578  0.0670  0.1865
  192SAPI  H13R22182   6.186   4.529   4.222  0.5241 -1.4115 -0.6304
  192SAPI  H13S22183   6.253   4.637   4.339 -0.2441  0.1106  0.1036
  192SAPI  C21422184   6.258   4.431   4.396 -0.2565 -0.1731  1.3764
  192SAPI  H14R22185   6.253   4.327   4.362 -0.6828  0.5209 -0.8347
  192SAPI  C21522186   6.282   4.446   4.523  0.3020 -0.9482  0.5069
  192SAPI  H15R22187   6.266   4.355   4.582 -0.4826 -2.1252 -1.4197
  192SAPI  C21622188   6.296   4.574   4.595 -0.2717  0.5269 -0.5043
  192SAPI  H16R22189   6.196   4.621   4.606 -0.6551 -0.1310 -1.0555
  192SAPI  H16S22190   6.349   4.650   4.533  1.3207  1.0602  1.3880
  192SAPI  C21722191   6.367   4.561   4.729 -0.6005 -0.7089 -0.5709
  192SAPI  H17R22192   6.475   4.536   4.723  0.1981  1.9611  0.9834
  192SAPI  H17S22193   6.312   4.504   4.807  0.2125  0.9398  1.2902
  192SAPI  C21822194   6.361   4.697   4.804  0.0216 -0.1555 -0.3493
  192SAPI  H18R22195   6.256   4.733   4.812 -0.1205 -0.5970 -0.1722
  192SAPI  H18S22196   6.409   4.773   4.739 -0.6104  0.6974  0.1707
  192SAPI  C21922197   6.427   4.680   4.945 -0.3350  0.4625  0.3072
  192SAPI  H19R22198   6.373   4.593   4.988  0.7237 -1.0521 -1.2837
  192SAPI  H19S22199   6.423   4.774   5.003 -1.9602  0.4187  0.2958
  192SAPI  C22022200   6.578   4.642   4.938  0.1312 -0.5012 -0.1277
  192SAPI  H20R22201   6.593   4.537   4.907  3.9758 -0.1247 -0.0345
  192SAPI  H20S22202   6.630   4.621   5.034 -1.0531  1.3626  0.9839
  192SAPI  H20T22203   6.642   4.702   4.869  0.8117  1.7217  2.2648
  192SAPI   C3322204   6.066   4.039   3.621  0.3919  0.7276  0.0797
  192SAPI   H3X22205   6.147   3.963   3.626  0.4941  0.7254 -1.1225
  192SAPI   H3Y22206   5.986   4.002   3.688 -0.0348  0.3589 -0.6205
  192SAPI   C3422207   6.121   4.178   3.645 -0.4158 -0.1543  0.1456
  192SAPI   H4X22208   6.041   4.253   3.631 -1.9613 -1.9599 -1.3337
  192SAPI   H4Y22209   6.186   4.190   3.556 -0.5122  0.1920  0.1228
  192SAPI   C3522210   6.203   4.190   3.769  0.5490 -0.1222 -0.4272
  192SAPI   H5X22211   6.263   4.283   3.767  0.1032  0.1666 -0.3726
  192SAPI   H5Y22212   6.277   4.107   3.769 -0.8058 -1.4350  1.2488
  192SAPI   C3622213   6.122   4.185   3.904 -0.1673 -0.3521  0.7287
  192SAPI   H6X22214   6.199   4.201   3.983 -1.0766  0.4148  1.4860
  192SAPI   H6Y22215   6.092   4.080   3.924  0.6487 -0.7471 -0.0784
  192SAPI   C3722216   6.010   4.282   3.915 -0.6489 -1.5686 -1.0756
  192SAPI   H7X22217   5.924   4.245   3.855 -2.1854  1.9667 -1.3176
  192SAPI   H7Y22218   6.046   4.383   3.885  0.9732 -2.1475 -1.2029
  192SAPI   C3822219   5.964   4.295   4.063  0.7682 -0.0227  0.1274
  192SAPI   H8X22220   6.042   4.342   4.128  2.5675 -0.2911 -1.7414
  192SAPI   H8Y22221   5.945   4.196   4.109  1.1402 -0.0154  0.3045
  192SAPI   C3922222   5.834   4.379   4.069  0.1110  0.9382 -0.5386
  192SAPI   H9X22223   5.752   4.334   4.008  0.4049 -1.3156  0.6186
  192SAPI   H9Y22224   5.858   4.477   4.024  1.4909  0.5388 -0.7158
  192SAPI  C31022225   5.778   4.391   4.206  0.0795 -1.0332 -1.1461
  192SAPI  H10X22226   5.731   4.297   4.241 -3.5008  1.0023 -0.0136
  192SAPI  H10Y22227   5.698   4.467   4.199 -1.4221 -2.5494 -1.0702
  192SAPI  C31122228   5.877   4.423   4.321  0.3645  0.3188 -0.0852
  192SAPI  H11X22229   5.945   4.509   4.299 -0.3083  0.6569 -0.8941
  192SAPI  H11Y22230   5.939   4.332   4.336  0.1191  0.0651 -0.5937
  192SAPI  C31222231   5.811   4.440   4.457  0.2743  0.0231  0.1351
  192SAPI  H12X22232   5.748   4.353   4.486 -0.8206  0.9955  0.7135
  192SAPI  H12Y22233   5.735   4.520   4.449  0.0034 -0.2885 -0.5374
  192SAPI  C31322234   5.917   4.470   4.561 -0.7251 -0.1958  0.3115
  192SAPI  H13X22235   5.971   4.558   4.519  1.0701 -2.1771 -1.8482
  192SAPI  H13Y22236   5.981   4.379   4.566 -2.2058 -1.3138 -0.4753
  192SAPI  C31422237   5.852   4.524   4.686 -0.3062  0.0751  0.0626
  192SAPI  H14X22238   5.780   4.453   4.731 -2.5197  1.4271 -1.1937
  192SAPI  H14Y22239   5.791   4.614   4.662 -0.2320  0.3040  0.7010
  192SAPI  C31522240   5.971   4.566   4.786  0.1140  0.2917 -1.0915
  192SAPI  H15X22241   6.040   4.643   4.747  1.1723  0.1470  0.4304
  192SAPI  H15Y22242   6.035   4.476   4.800  0.6224  0.9769  1.7459
  192SAPI  C31622243   5.910   4.608   4.924  0.1467  0.4329  0.8617
  192SAPI  H16X22244   5.839   4.538   4.972  1.7154 -1.2389  0.8741
  192SAPI  H16Y22245   5.857   4.701   4.894 -0.9528 -0.6808 -0.8206
  192SAPI  C31722246   6.011   4.647   5.027  0.1579  0.3033  0.6367
  192SAPI  H17X22247   5.962   4.706   5.108 -0.6142  4.1400 -2.3040
  192SAPI  H17Y22248   6.087   4.722   4.995 -1.8297  3.1361  2.0887
  192SAPI  C31822249   6.081   4.522   5.082 -0.8362  0.9462  0.1185
  192SAPI  H18X22250   5.994   4.461   5.115 -0.5613  0.2424 -0.4358
  192SAPI  H18Y22251   6.154   4.536   5.164 -0.1822  0.1636 -0.3104
  192SAPI  H18Z22252   6.136   4.470   5.000 -2.3445  1.5546 -1.3442
  193SOD    SOD22253   5.388   0.613   1.839 -0.1122  0.0028 -0.6141
  194SOD    SOD22254   1.231   1.575   8.638 -0.1307 -0.0646  0.3952
  195SOD    SOD22255   2.775   6.627   0.355 -0.1190 -0.1569  0.1646
  196SOD    SOD22256   5.204   4.446   1.677  0.0242 -0.2197  0.5328
  197SOD    SOD22257   2.162   0.960   7.529  0.3407  0.5948  0.4545
  198SOD    SOD22258   2.911   2.861   1.308 -0.0762 -0.2446 -0.6912
  199SOD    SOD22259   4.883   1.408   8.623  0.0342  0.0114  0.0989
  200SOD    SOD22260   6.713   1.453   7.366 -0.0161 -0.0279  0.1641
  201SOD    SOD22261   0.947   5.822   8.204  0.2272 -0.0781 -0.1379
  202SOD    SOD22262   5.585   6.655   7.806 -0.0411  0.0345  0.2985
  203SOD    SOD22263   3.765   0.494   3.136 -0.1062 -0.8887 -0.3886
  204SOD    SOD22264   1.295   3.403   6.707 -0.5037 -0.5119  0.2528
  205SOD    SOD22265   3.565   3.579   2.419  0.2661 -0.3378  0.2013
  206SOD    SOD22266   1.360   6.608   2.502 -0.1570  0.3984 -0.2031
  207SOD    SOD22267   3.084   0.153   8.053  0.3924 -0.2519  0.1911
  208SOD    SOD22268   3.622   2.271   2.763  1.0717 -0.0421 -0.6098
  209SOD    SOD22269   4.255   3.965   1.535 -0.5010  0.8254  0.2003
  210SOD    SOD22270   2.750   2.854   7.764 -0.0746  0.0486  0.2231
  211SOD    SOD22271   0.631   2.881   2.996  0.2782  0.3706  0.6153
  212SOD    SOD22272   6.527   5.879   1.345 -0.5114  0.1280 -0.1821
  213SOD    SOD22273   0.769   6.368   8.084 -0.4130 -0.8609  0.2638
  214SOD    SOD22274   4.129   2.296   8.372  0.6938  0.8958 -0.0123
  215SOD    SOD22275   4.776   5.369   8.714  0.4708  0.6530 -0.1074
  216SOD    SOD22276   1.062   6.532   1.585  0.1166 -0.1678  0.3595
  217SOD    SOD22277   4.964   2.923   2.168  0.3304 -0.3250  0.5419
  218SOD    SOD22278   2.460   6.075   8.711  0.3273  0.1561  0.1607
  219SOD    SOD22279   2.174   6.634   2.826 -0.1743  0.0735  0.4260
  220SOD    SOD22280   6.336   1.383   2.871  0.2777 -0.2902 -0.4064
  221SOD    SOD22281   1.250   3.157   1.382 -0.3902 -0.0256 -0.1369
  222SOD    SOD22282   4.596   6.734   0.501 -0.2929  0.2620  0.4716
  223SOD    SOD22283   1.052   3.080   7.547 -0.6176  0.1781 -0.9378
  224SOD    SOD22284   0.772   1.290   8.488  0.2662 -0.3875 -0.2790
  225SOD    SOD22285   3.007   5.435   2.531  0.4068  0.0113 -0.1363
  226SOD    SOD22286   6.514   4.369   8.410 -0.2496 -0.1466  0.4597
  227SOD    SOD22287   1.263   0.465   2.682 -0.2526  0.0431  0.0479
  228SOD    SOD22288   4.893   0.911   2.213  0.2007 -0.1647  0.2549
  229SOD    SOD22289   2.127   6.164   7.802  0.0932 -0.4142 -0.1069
  230SOD    SOD22290   5.515   0.115   3.131 -0.3836 -0.1530 -0.2314
  231SOD    SOD22291   2.764   5.107   7.360  0.1019  0.2299  0.0939
  232SOD    SOD22292   1.648   0.973   0.103  0.0959  0.1927 -0.2624
  233SOD    SOD22293   6.037   0.477   7.600  0.4057  0.3691 -0.2606
  234CLA    CLA22294   3.020   0.916   8.374 -0.0937  0.2725  0.0903
  235CLA    CLA22295   2.580   0.757   1.069  0.0443 -0.1888 -0.1378
  236CLA    CLA22296   6.600   0.701   2.061 -0.1618 -0.0867  0.0235
  237CLA    CLA22297   1.164   0.325   8.298  0.1485  0.5277  0.2342
  238CLA    CLA22298   4.452   6.527   2.258 -0.3879 -0.1139  0.4143
  239CLA    CLA22299   6.505   5.141   0.631  0.2836  0.0175 -0.6387
  240CLA    CLA22300   4.591   4.004   0.460  0.2331 -0.2751  0.1989
  241CLA    CLA22301   6.594   2.178   1.520 -0.2096 -0.2519 -0.0445
  242CLA    CLA22302   6.469   4.609   1.223  0.1141 -0.1401 -0.2619
  243CLA    CLA22303   6.410   6.774   0.353  0.1369 -0.1652 -0.1218
  244CLA    CLA22304   2.889   5.604   1.142  0.0066  0.0347 -0.0737
  245CLA    CLA22305   4.175   2.423   8.600  0.0197 -0.2819  0.2187
  246CLA    CLA22306   0.979   3.471   2.425  0.0371 -0.1871 -0.3872
  247CLA    CLA22307   5.177   6.171   8.157 -0.0877  0.1821  0.2778
  248CLA    CLA22308   3.235   3.680   0.335  0.1707  0.0401  0.4474
  249CLA    CLA22309   0.141   6.258   1.770 -0.3786 -0.0205  0.4213
  250CLA    CLA22310   3.364   2.154   0.948 -0.5347 -0.2755  0.2828
  251TIP3   OH222311   6.246   4.206   0.652 -0.0762  0.1088  0.1224
  251TIP3    H122312   6.291   4.122   0.641 -0.9543 -0.4385  0.5314
  251TIP3    H222313   6.315   4.271   0.651  0.3928 -0.1405 -4.4704
  252TIP3   OH222314   5.163   1.953   3.000 -0.4541  0.3502  0.0895
  252TIP3    H122315   5.200   1.969   2.914  1.3511 -1.7615  0.3626
  252TIP3    H222316   5.227   1.895   3.043 -1.4748  1.0005  2.6975
  253TIP3   OH222317   0.743   1.073   8.358 -0.3137 -0.5545 -0.4718
  253TIP3    H122318   0.783   0.987   8.366  0.7526 -0.0056  0.3734
  253TIP3    H222319   0.688   1.081   8.436  0.4869 -0.0360  0.0555
  254TIP3   OH222320   4.438   3.597   2.984 -0.1499 -0.5978  0.1740
  254TIP3    H122321   4.382   3.651   3.040  0.0209 -0.5087  0.2588
  254TIP3    H222322   4.526   3.633   2.996  0.3681 -2.3611  2.0237
  255TIP3   OH222323   1.802   5.144   1.437 -0.1142 -0.2594  0.0597
  255TIP3    H122324   1.881   5.106   1.476 -1.0348 -1.3123  0.9218
  255TIP3    H222325   1.748   5.170   1.511 -1.1103 -0.6560 -0.5127
  256TIP3   OH222326   2.661   5.221   3.022  0.5379  0.0967  0.0832
  256TIP3    H122327   2.745   5.267   3.028  1.7605 -1.8466 -1.3548
  256TIP3    H222328   2.680   5.140   2.977 -1.8081 -1.2549  1.3032
  257TIP3   OH222329   4.071   6.763   2.563 -0.2469  0.4181 -0.0344
  257TIP3    H122330   4.117   6.741   2.482 -2.3992 -0.0396 -1.2003
  257TIP3    H222331   4.136   6.811   2.615  1.6096 -0.4524 -1.4333
  258TIP3   OH222332   5.670   0.902   0.305  0.7962 -0.8011  0.2215
  258TIP3    H122333   5.700   0.836   0.242  1.7536 -0.0468 -0.1356
  258TIP3    H222334   5.683   0.861   0.390  1.9593 -0.8596  0.0331
  259TIP3   OH222335   2.649   0.773   1.789 -0.1053 -0.1232 -0.1992
  259TIP3    H122336   2.655   0.678   1.792  0.7933 -0.0608  0.7181
  259TIP3    H222337   2.581   0.795   1.854  0.9818 -0.0728  0.9669
  260TIP3   OH222338   1.753   2.460   0.629  0.2818 -0.0404 -0.4479
  260TIP3    H122339   1.685   2.504   0.680  0.3387  0.1123 -0.5037
  260TIP3    H222340   1.770   2.379   0.677 -0.5459 -0.4938 -0.8792
  261TIP3   OH222341   4.918   0.856   7.669 -0.1182 -0.0674 -0.2060
  261TIP3    H122342   4.857   0.928   7.686  1.3175  1.2565 -0.4357
  261TIP3    H222343   4.949   0.871   7.580  0.4747 -0.7807 -0.1275
  262TIP3   OH222344   1.371   5.511   8.046  0.7239 -0.4194  0.2452
  262TIP3    H122345   1.446   5.455   8.029  1.0289  0.5429 -1.8942
  262TIP3    H222346   1.295   5.458   8.022  0.9184 -0.4003 -0.4148
  263TIP3   OH222347   2.506   2.252   2.228  0.3924 -0.4396  0.2003
  263TIP3    H122348   2.539   2.285   2.311 -0.2972 -0.7549  0.6090
  263TIP3    H222349   2.555   2.300   2.161 -0.5974  1.4693  0.7687
  264TIP3   OH222350   0.838   1.509   8.548  0.5941 -0.1041  0.0944
  264TIP3    H122351   0.770   1.575   8.534 -0.1537 -0.9646 -0.4456
  264TIP3    H222352   0.907   1.556   8.596 -0.1211  0.9363  0.1532
  265TIP3   OH222353   5.815   6.831   2.486 -0.4011  0.4543 -0.2248
  265TIP3    H122354   5.868   6.755   2.508 -1.6062 -0.5679 -0.6787
  265TIP3    H222355   5.764   6.850   2.565  0.8545  1.6575  0.3294
  266TIP3   OH222356   4.275   6.298   1.454 -0.6526 -0.6124 -0.7159
  266TIP3    H122357   4.319   6.213   1.460  1.2788  0.4248  1.0122
  266TIP3    H222358   4.195   6.288   1.504  0.3213 -1.0104  0.8184
  267TIP3   OH222359   0.216   5.714   0.349 -0.4849  0.2817 -0.3888
  267TIP3    H122360   0.140   5.671   0.311  0.7492 -0.5898 -2.0413
  267TIP3    H222361   0.260   5.645   0.399 -0.6738  0.7273  0.4015
  268TIP3   OH222362   0.204   6.598   2.402  0.1287  0.4684 -0.4444
  268TIP3    H122363   0.225   6.550   2.482 -0.6221  0.4553 -0.2470
  268TIP3    H222364   0.122   6.642   2.422 -0.2592  0.1634 -1.3419
  269TIP3   OH222365   0.521   3.341   1.953  0.7197 -0.2589  0.8413
  269TIP3    H122366   0.522   3.432   1.985  0.8178 -0.0758  0.3327
  269TIP3    H222367   0.547   3.289   2.029  0.9621  0.1648  1.0581
  270TIP3   OH222368   2.286   0.842   2.280  0.6984 -0.2336  0.5018
  270TIP3    H122369   2.347   0.862   2.351  0.9918 -1.2261  0.5367
  270TIP3    H222370   2.239   0.924   2.266  1.6405  0.3836  0.8571
  271TIP3   OH222371   1.995   2.557   0.525  0.0025  0.3026 -0.1554
  271TIP3    H122372   2.031   2.578   0.611  1.1535  0.4336 -0.6371
  271TIP3    H222373   1.906   2.527   0.542 -0.1077  1.2130  0.9828
  272TIP3   OH222374   1.322   4.267   1.513 -0.1497  0.0090  0.1584
  272TIP3    H122375   1.325   4.217   1.432  1.7287 -1.2513  0.9492
  272TIP3    H222376   1.285   4.206   1.577  1.0695  0.0050  0.8771
  273TIP3   OH222377   0.078   0.620   1.604 -0.1391 -0.0714 -0.1867
  273TIP3    H122378   0.043   0.694   1.653 -2.1539 -1.5292  0.7691
  273TIP3    H222379   0.124   0.568   1.669  0.9398  0.1276 -0.7713
  274TIP3   OH222380   6.425   1.167   1.802 -0.3666  0.1530 -0.1481
  274TIP3    H122381   6.376   1.250   1.796 -1.7509 -0.5715  0.5546
  274TIP3    H222382   6.394   1.128   1.884  2.8909  0.5422  1.4047
  275TIP3   OH222383   4.985   1.150   1.099 -0.0920  0.0789  0.1621
  275TIP3    H122384   4.953   1.230   1.058  1.7506  1.0735  0.5606
  275TIP3    H222385   4.987   1.086   1.029 -1.9124  0.2343 -0.0952
  276TIP3   OH222386   6.669   1.106   8.439  0.0060 -0.4600  0.0605
  276TIP3    H122387   6.609   1.164   8.485 -1.2573  0.3584 -2.4083
  276TIP3    H222388   6.651   1.019   8.473 -0.5101  0.1580  1.4034
  277TIP3   OH222389   2.870   1.070   8.579 -0.2890 -0.2847  0.0840
  277TIP3    H122390   2.850   1.154   8.537 -1.0154  0.2173  1.3580
  277TIP3    H222391   2.906   1.016   8.509 -0.4033  0.8770 -0.9121
  278TIP3   OH222392   1.856   1.128   0.702  1.0035 -0.2380 -0.1419
  278TIP3    H122393   1.941   1.148   0.663 -0.0356  0.9841 -1.9542
  278TIP3    H222394   1.839   1.202   0.761  1.3586 -0.6933  0.5439
  279TIP3   OH222395   4.867   3.670   0.149 -0.2397 -0.1965  0.0568
  279TIP3    H122396   4.830   3.716   0.224 -0.6936 -0.6398  0.1071
  279TIP3    H222397   4.809   3.595   0.136 -1.0781  0.6857 -1.6833
  280TIP3   OH222398   2.714   6.347   0.052 -0.4958 -0.3576  0.1749
  280TIP3    H122399   2.758   6.371   0.133 -0.0141 -1.6411  0.3207
  280TIP3    H222400   2.657   6.422   0.032  0.9710  0.8927  0.5322
  281TIP3   OH222401   5.077   5.115   2.343 -0.7020  0.8853  0.7063
  281TIP3    H122402   5.057   5.203   2.375 -2.5039  0.5414  0.6379
  281TIP3    H222403   4.993   5.082   2.311  0.0569 -0.6668  0.2406
  282TIP3   OH222404   1.802   0.578   8.379 -0.2858  0.4346  0.3990
  282TIP3    H122405   1.848   0.558   8.460  0.9237 -0.3163 -0.4424
  282TIP3    H222406   1.868   0.620   8.324 -0.0183 -2.2304 -1.4888
  283TIP3   OH222407   4.974   0.327   1.798 -0.3437  0.3141 -0.0375
  283TIP3    H122408   4.890   0.374   1.797 -2.0011 -2.4741 -1.4763
  283TIP3    H222409   4.962   0.258   1.863  1.0406  0.1643  0.0830
  284TIP3   OH222410   6.095   4.514   1.209 -0.6864  0.4916  0.3104
  284TIP3    H122411   6.149   4.472   1.275  0.3978  2.7446  0.9744
  284TIP3    H222412   6.139   4.495   1.126 -0.4028  0.0853  0.5500
  285TIP3   OH222413   3.314   2.248   6.775  0.0841 -0.0749 -0.3807
  285TIP3    H122414   3.310   2.168   6.826  0.3286  0.0950 -0.0944
  285TIP3    H222415   3.306   2.319   6.839  1.9740  0.1868 -0.3772
  286TIP3   OH222416   5.800   6.040   7.743  0.3002  0.4417 -0.6534
  286TIP3    H122417   5.723   6.052   7.687  0.6498  0.3001 -1.1747
  286TIP3    H222418   5.781   5.959   7.791 -0.7837  1.5027  0.7570
  287TIP3   OH222419   3.347   0.803   8.020  0.2840  0.1305 -0.5395
  287TIP3    H122420   3.318   0.715   7.997 -2.1852  0.5728  0.5145
  287TIP3    H222421   3.412   0.789   8.089  0.1112 -0.8827 -0.5664
  288TIP3   OH222422   2.734   1.815   1.858  0.2477 -0.1655 -0.1105
  288TIP3    H122423   2.644   1.827   1.828  0.4110  1.2179 -0.0945
  288TIP3    H222424   2.784   1.798   1.778 -0.0256 -1.0511 -0.1084
  289TIP3   OH222425   4.872   2.343   0.132  0.2684 -0.4523 -0.4671
  289TIP3    H122426   4.960   2.328   0.098  1.7150  0.8119  2.4436
  289TIP3    H222427   4.858   2.437   0.121  0.5857 -0.0936  1.8312
  290TIP3   OH222428   2.373   6.232   0.793 -0.3285  0.3704  0.4746
  290TIP3    H122429   2.325   6.164   0.745  0.2692 -0.0845  0.5081
  290TIP3    H222430   2.404   6.292   0.725  0.1819 -0.0613  0.3145
  291TIP3   OH222431   2.859   3.175   2.430 -0.1602 -0.3239 -0.0597
  291TIP3    H122432   2.810   3.155   2.350  1.6812 -0.3221 -1.2420
  291TIP3    H222433   2.892   3.090   2.459  0.2852 -0.1564 -0.0727
  292TIP3   OH222434   1.308   3.172   7.919  0.0209 -0.0414  0.7360
  292TIP3    H122435   1.259   3.243   7.877 -0.3634 -2.0930 -2.6585
  292TIP3    H222436   1.280   3.093   7.872  2.6695 -2.0568  2.2864
  293TIP3   OH222437   6.835   4.133   7.800  0.0217  0.1940  0.2693
  293TIP3    H122438   6.846   4.221   7.764  0.9743  0.9067  2.1813
  293TIP3    H222439   6.883   4.076   7.739 -0.6298  0.9583 -1.0013
  294TIP3   OH222440   5.166   5.115   8.595  0.4385 -0.2395 -0.1680
  294TIP3    H122441   5.185   5.058   8.669  1.0182 -0.6180 -0.6083
  294TIP3    H222442   5.247   5.120   8.546  0.0193 -0.1053 -0.8645
  295TIP3   OH222443   5.341   1.150   0.039  0.3908  0.1018  0.1197
  295TIP3    H122444   5.338   1.245   0.051 -1.1942  0.2346 -1.0908
  295TIP3    H222445   5.391   1.118   0.114  0.2929  1.8194  0.9556
  296TIP3   OH222446   0.461   6.744   1.494  0.6095 -0.3734  0.2932
  296TIP3    H122447   0.550   6.769   1.472 -0.5379  1.5494 -2.8819
  296TIP3    H222448   0.444   6.667   1.441  0.3321 -0.6459  0.7730
  297TIP3   OH222449   1.761   2.110   0.467 -0.0987  0.1384 -0.0894
  297TIP3    H122450   1.832   2.165   0.501 -0.7105  0.2377  1.0722
  297TIP3    H222451   1.696   2.173   0.435 -0.2847  0.0753  0.1621
  298TIP3   OH222452   0.871   1.889   0.562 -0.2882 -0.1813 -0.0660
  298TIP3    H122453   0.797   1.940   0.595 -0.0388  0.7875 -0.9453
  298TIP3    H222454   0.891   1.928   0.477  2.0779  0.4497  0.6947
  299TIP3   OH222455   3.353   6.675   0.070 -0.5652  0.4702 -0.2205
  299TIP3    H122456   3.325   6.584   0.063  0.4659  0.0274  1.0075
  299TIP3    H222457   3.274   6.723   0.093 -0.9891 -0.2079 -0.2166
  300TIP3   OH222458   4.744   3.225   0.835  0.1205  0.9729 -0.0109
  300TIP3    H122459   4.702   3.162   0.894  0.6007 -1.1829 -1.7968
  300TIP3    H222460   4.673   3.256   0.778  0.3581 -0.3454 -1.0760
  301TIP3   OH222461   5.920   1.978   8.612 -0.3074 -0.3482 -0.2651
  301TIP3    H122462   5.925   2.022   8.697 -1.7102  0.3855 -0.5386
  301TIP3    H222463   5.853   1.911   8.623  2.1571 -2.9519  0.3103
  302TIP3   OH222464   0.532   3.613   2.047 -0.0803 -0.2895  0.3683
  302TIP3    H122465   0.586   3.689   2.066 -1.1846  0.4432  0.7145
  302TIP3    H222466   0.459   3.619   2.110 -0.3896 -1.4200  0.1469
  303TIP3   OH222467   4.287   4.035   0.431 -0.1764 -0.4584 -0.4307
  303TIP3    H122468   4.380   4.017   0.441  0.2894  0.4103 -2.5955
  303TIP3    H222469   4.243   3.967   0.483  1.6460 -1.1064  0.3190
  304TIP3   OH222470   2.802   5.313   2.524  0.0867  0.0286  0.3939
  304TIP3    H122471   2.715   5.299   2.562  0.5292 -1.2844  0.9826
  304TIP3    H222472   2.807   5.250   2.452  0.3711  0.4625  0.0236
  305TIP3   OH222473   3.766   1.395   2.735  0.2798 -0.0224  0.3427
  305TIP3    H122474   3.768   1.400   2.831  0.6087  0.3342  0.3169
  305TIP3    H222475   3.732   1.480   2.707  1.0281  0.2129  0.1118
  306TIP3   OH222476   1.618   6.705   2.046  0.0674  0.3887  0.1482
  306TIP3    H122477   1.634   6.796   2.020 -0.5419  0.3948 -0.2082
  306TIP3    H222478   1.527   6.704   2.075 -0.2024 -0.3005 -0.6830
  307TIP3   OH222479   0.917   3.172   8.454 -0.1605  0.3328  0.7224
  307TIP3    H122480   0.935   3.096   8.399  0.5465  0.3051  0.9723
  307TIP3    H222481   0.987   3.234   8.434  0.4977  0.0644  2.0271
  308TIP3   OH222482   4.323   2.378   0.801 -0.2733 -0.3639 -0.1669
  308TIP3    H122483   4.398   2.363   0.858  0.1599 -1.0695 -0.9141
  308TIP3    H222484   4.325   2.306   0.739 -1.6526 -0.4612 -0.1241
  309TIP3   OH222485   1.460   3.252   1.465 -0.0690 -0.2710 -0.5939
  309TIP3    H122486   1.429   3.240   1.555  0.4633 -0.6689 -0.4569
  309TIP3    H222487   1.461   3.347   1.453  2.5479 -0.0370  0.8054
  310TIP3   OH222488   6.457   1.836   0.231  0.4273 -0.0687 -0.5126
  310TIP3    H122489   6.420   1.841   0.319  1.6465 -1.5254  0.1203
  310TIP3    H222490   6.430   1.750   0.198  1.5134 -0.2982 -0.8289
  311TIP3   OH222491   6.575   1.674   3.074  0.3946 -0.1500 -0.3918
  311TIP3    H122492   6.668   1.696   3.071  0.7514 -1.5972 -1.8068
  311TIP3    H222493   6.551   1.680   3.166  2.3916 -1.6244  0.2792
  312TIP3   OH222494   5.020   4.144   0.081  0.0478  0.3020 -0.3157
  312TIP3    H122495   4.943   4.102   0.043 -0.2309  1.0406 -0.5902
  312TIP3    H222496   5.046   4.086   0.153 -2.0905  1.1081  1.2459
  313TIP3   OH222497   3.643   4.761   2.589 -0.0725  0.4667 -0.4912
  313TIP3    H122498   3.559   4.718   2.571  0.9656 -1.7540 -0.3882
  313TIP3    H222499   3.698   4.737   2.514  1.8466 -2.0621  1.5735
  314TIP3   OH222500   3.185   5.421   7.587 -0.4421  0.1258  0.4196
  314TIP3    H122501   3.245   5.383   7.650 -2.3557  0.0271  2.2966
  314TIP3    H222502   3.233   5.496   7.551  0.3371  0.9110  2.8728
  315TIP3   OH222503   0.643   3.788   7.179  0.2237  0.2540 -0.4234
  315TIP3    H122504   0.569   3.753   7.128  0.4469 -0.6043 -0.1747
  315TIP3    H222505   0.707   3.717   7.178  0.1240  0.1103  1.2923
  316TIP3   OH222506   4.997   2.970   0.622 -0.0443  0.1346  0.0412
  316TIP3    H122507   5.029   2.891   0.665 -1.7276 -1.4160 -1.4195
  316TIP3    H222508   4.906   2.978   0.651 -0.7636 -0.1193 -1.9753
  317TIP3   OH222509   6.554   4.446   3.156 -0.1902  0.6130 -0.3937
  317TIP3    H122510   6.489   4.426   3.089 -1.0008  0.5162  0.3952
  317TIP3    H222511   6.587   4.361   3.185 -1.1841  0.5385  0.5977
  318TIP3   OH222512   1.716   6.543   2.245 -0.5851 -0.1738 -0.1026
  318TIP3    H122513   1.802   6.510   2.220 -0.9752 -1.3753  0.0958
  318TIP3    H222514   1.672   6.561   2.162 -0.6790 -0.9972 -0.2392
  319TIP3   OH222515   2.072   4.323   2.266  0.1265  0.6643 -0.3074
  319TIP3    H122516   2.049   4.396   2.209  0.4113  1.1812  0.2334
  319TIP3    H222517   2.020   4.336   2.345 -0.1076  0.0664 -0.3543
  320TIP3   OH222518   5.554   1.918   8.428  0.2539 -0.4145  0.3489
  320TIP3    H122519   5.569   1.875   8.512 -2.3324 -0.8436  0.6748
  320TIP3    H222520   5.523   1.847   8.371 -0.4246  0.3192 -0.2099
  321TIP3   OH222521   4.236   4.668   2.145 -0.3623 -0.0384  0.3317
  321TIP3    H122522   4.142   4.673   2.131 -0.4464  0.5769  1.0534
  321TIP3    H222523   4.263   4.759   2.160  0.1247 -0.3409  1.4302
  322TIP3   OH222524   5.471   2.648   1.655 -0.5348 -0.0596  0.1104
  322TIP3    H122525   5.554   2.696   1.654 -0.2239 -0.5989 -0.4721
  322TIP3    H222526   5.495   2.558   1.675 -1.0665 -0.0791  0.7010
  323TIP3   OH222527   4.435   3.631   7.007  0.3151 -0.1842  0.2735
  323TIP3    H122528   4.394   3.547   6.985 -0.1336  0.1042  0.0038
  323TIP3    H222529   4.497   3.609   7.077 -0.2230 -0.6510  0.6198
  324TIP3   OH222530   3.504   2.784   8.399  0.0680  0.4557 -0.6297
  324TIP3    H122531   3.474   2.762   8.487  1.8843 -1.0340 -0.3271
  324TIP3    H222532   3.424   2.790   8.347 -0.8772 -1.8912  0.4180
  325TIP3   OH222533   2.072   1.190   1.636 -0.3617  0.3924 -0.1189
  325TIP3    H122534   2.067   1.236   1.720 -0.7246 -0.2087  0.1938
  325TIP3    H222535   2.118   1.109   1.656 -1.0582 -0.0667 -0.3573
  326TIP3   OH222536   5.535   0.529   0.478  0.4164 -0.2547 -0.4582
  326TIP3    H122537   5.507   0.540   0.569 -1.4832 -0.2761 -1.0053
  326TIP3    H222538   5.580   0.611   0.457  0.6728 -0.1603  0.4230
  327TIP3   OH222539   5.410   2.864   2.728 -0.9596  0.3409 -0.1336
  327TIP3    H122540   5.366   2.835   2.648 -2.0183  0.3746  0.4309
  327TIP3    H222541   5.409   2.787   2.785  0.0443  0.2323 -0.2311
  328TIP3   OH222542   5.058   4.587   1.787  0.3164  0.5672 -0.3407
  328TIP3    H122543   5.123   4.657   1.782  1.5103 -0.3382  1.3682
  328TIP3    H222544   5.024   4.591   1.876 -0.9568  0.1056 -0.7692
  329TIP3   OH222545   6.349   4.098   7.851  0.2283  0.1162 -0.1507
  329TIP3    H122546   6.304   4.015   7.836  0.4974  0.1345 -1.1229
  329TIP3    H222547   6.440   4.081   7.827 -0.0028  1.0802 -1.8722
  330TIP3   OH222548   3.076   3.384   1.005 -0.2165  0.4484 -0.0346
  330TIP3    H122549   3.154   3.437   1.023 -0.3544  0.4217  0.6476
  330TIP3    H222550   3.110   3.294   0.997 -0.2673  0.3235  1.0290
  331TIP3   OH222551   3.215   0.563   0.109  0.4376 -0.1428  0.3751
  331TIP3    H122552   3.129   0.553   0.069  0.3393  1.8910 -0.0270
  331TIP3    H222553   3.269   0.601   0.040  1.1476  0.3386  1.1858
  332TIP3   OH222554   1.554   3.142   0.556  0.1202 -0.1969  0.4333
  332TIP3    H122555   1.538   3.203   0.484  0.1020  1.6632  1.9525
  332TIP3    H222556   1.537   3.056   0.518  0.6539  0.6588 -1.9399
  333TIP3   OH222557   4.172   4.762   7.835 -0.0856  0.8617  0.5836
  333TIP3    H122558   4.201   4.736   7.748  1.6805 -1.2809  1.6930
  333TIP3    H222559   4.080   4.785   7.824  0.2911  1.4140 -1.9451
  334TIP3   OH222560   2.259   0.089   1.986 -0.4453 -0.0667  0.6185
  334TIP3    H122561   2.214   0.040   2.054  0.1724 -0.7118  0.5725
  334TIP3    H222562   2.270   0.026   1.914  3.3192 -1.0265  1.7566
  335TIP3   OH222563   3.710   6.819   7.428 -0.2858  0.2589 -0.5938
  335TIP3    H122564   3.803   6.800   7.431 -0.4294 -0.4038  0.0962
  335TIP3    H222565   3.668   6.734   7.412 -0.8066  0.4317 -0.1905
  336TIP3   OH222566   4.467   2.446   8.528 -0.8455  0.3928 -0.4864
  336TIP3    H122567   4.380   2.432   8.564 -1.6878  0.5117 -2.3935
  336TIP3    H222568   4.464   2.535   8.491  0.9106  1.4340  1.6257
  337TIP3   OH222569   5.878   2.030   0.106  0.4166  0.4452  0.2573
  337TIP3    H122570   5.828   2.110   0.121 -0.5228  0.2339 -1.4140
  337TIP3    H222571   5.970   2.056   0.116  0.0643  1.2106  1.7993
  338TIP3   OH222572   2.414   0.049   8.704 -0.4971 -0.1903 -0.1819
  338TIP3    H122573   2.371   0.124   8.664 -0.8273 -0.7250 -0.8596
  338TIP3    H222574   2.403   0.062   8.798 -0.7318  0.4968 -0.3004
  339TIP3   OH222575   4.750   5.075   7.578 -0.3256 -0.0953 -0.2621
  339TIP3    H122576   4.840   5.082   7.547  1.0147 -2.4826  2.5078
  339TIP3    H222577   4.712   5.004   7.527  0.1108 -0.5162 -0.0094
  340TIP3   OH222578   1.844   6.583   8.530 -0.2604  1.2874 -0.4758
  340TIP3    H122579   1.886   6.661   8.493  1.1977  0.9504  0.3885
  340TIP3    H222580   1.888   6.570   8.614 -1.7478  0.5713  0.2288
  341TIP3   OH222581   2.471   5.848   7.783  0.0443 -0.0583 -0.9004
  341TIP3    H122582   2.446   5.763   7.747 -0.7107 -0.2380  0.0158
  341TIP3    H222583   2.567   5.848   7.780  0.1074 -1.4163  0.1107
  342TIP3   OH222584   4.659   4.914   7.391  0.0671  0.7811  0.3808
  342TIP3    H122585   4.744   4.909   7.348  0.2747  2.1827  0.5646
  342TIP3    H222586   4.604   4.962   7.329  0.3449  2.7505  1.5640
  343TIP3   OH222587   1.265   6.311   8.214 -0.9528 -0.0087 -0.2493
  343TIP3    H122588   1.220   6.369   8.153  0.9294  2.3204  0.4053
  343TIP3    H222589   1.330   6.264   8.161 -0.6478  0.5476 -0.3752
  344TIP3   OH222590   3.061   2.532   7.772 -0.2126 -0.8895 -0.2764
  344TIP3    H122591   3.092   2.485   7.694 -1.0339 -0.8215 -0.6555
  344TIP3    H222592   3.029   2.464   7.830  3.0502 -1.2610  1.3326
  345TIP3   OH222593   2.338   0.429   2.225  0.0345 -0.2299  0.4643
  345TIP3    H122594   2.246   0.444   2.204 -0.4512 -4.1842 -1.0625
  345TIP3    H222595   2.337   0.396   2.315 -0.3585 -1.9857 -0.1419
  346TIP3   OH222596   4.163   4.522   1.715  0.5334  0.3669 -0.0102
  346TIP3    H122597   4.182   4.607   1.754  1.3274  0.2602 -0.1472
  346TIP3    H222598   4.241   4.500   1.665  0.8564 -0.9975  1.0090
  347TIP3   OH222599   4.165   4.106   1.104 -0.5598 -0.0266  0.9485
  347TIP3    H122600   4.259   4.090   1.104 -0.0353  2.4706 -1.0256
  347TIP3    H222601   4.132   4.053   1.031  0.0729  2.2156 -1.0864
  348TIP3   OH222602   1.418   2.469   1.992 -0.1312 -0.1538  0.5974
  348TIP3    H122603   1.495   2.415   2.005  0.2703  0.2993  0.1421
  348TIP3    H222604   1.402   2.510   2.077  0.6905  0.4706  0.4644
  349TIP3   OH222605   5.094   4.235   0.714 -0.0423 -0.2603 -0.4691
  349TIP3    H122606   5.162   4.267   0.655  0.3979 -1.8632 -0.8567
  349TIP3    H222607   5.028   4.197   0.656 -1.4560  1.5037 -0.1210
  350TIP3   OH222608   6.123   3.341   2.004  0.1893 -0.3884 -0.5305
  350TIP3    H122609   6.210   3.301   2.004 -0.3748 -1.6704 -1.3517
  350TIP3    H222610   6.084   3.314   1.921 -2.2128 -2.5781  1.1636
  351TIP3   OH222611   4.320   0.828   1.487  0.3552  0.0948 -0.3050
  351TIP3    H122612   4.265   0.872   1.551  1.1550  0.7322 -0.0297
  351TIP3    H222613   4.391   0.790   1.538 -0.1481 -1.2554 -0.5805
  352TIP3   OH222614   2.290   0.841   7.670 -0.0021  0.5880  0.0737
  352TIP3    H122615   2.382   0.817   7.670 -0.0734  0.0480 -2.4867
  352TIP3    H222616   2.247   0.773   7.722  0.9140  0.2890  0.4453
  353TIP3   OH222617   1.786   5.897   2.357  0.1401  0.2353  0.1448
  353TIP3    H122618   1.766   5.990   2.348 -1.2440 -0.0877 -0.4674
  353TIP3    H222619   1.707   5.860   2.397  0.2898 -0.8273 -0.5105
  354TIP3   OH222620   2.871   6.427   1.411  0.0489 -0.2743  0.3611
  354TIP3    H122621   2.810   6.410   1.483 -0.1622 -0.1410  0.2152
  354TIP3    H222622   2.826   6.395   1.333 -0.6160  1.4845 -0.0072
  355TIP3   OH222623   5.691   0.388   2.883 -0.3479 -0.3245 -0.6551
  355TIP3    H122624   5.726   0.446   2.951 -0.6766  0.9533 -1.5480
  355TIP3    H222625   5.757   0.388   2.814  0.0651 -1.7636 -0.2956
  356TIP3   OH222626   0.751   1.634   2.748  0.4021  0.4995 -0.4834
  356TIP3    H122627   0.732   1.716   2.702  2.9149  1.6804  0.4469
  356TIP3    H222628   0.834   1.604   2.712  0.9786 -0.0877  1.2286
  357TIP3   OH222629   1.781   5.537   7.926  0.0385 -0.3297 -0.2472
  357TIP3    H122630   1.849   5.508   7.865 -0.1549 -0.2462 -0.5048
  357TIP3    H222631   1.746   5.616   7.886 -0.0648 -0.2546 -0.0061
  358TIP3   OH222632   0.411   1.102   2.019  0.2474  0.0247  0.2730
  358TIP3    H122633   0.469   1.094   1.943 -0.3542 -0.3260 -0.1620
  358TIP3    H222634   0.462   1.151   2.083  1.1494 -0.5638  0.0287
  359TIP3   OH222635   2.638   3.582   0.419 -0.0515  0.4174 -0.4207
  359TIP3    H122636   2.669   3.563   0.508  0.4941 -0.2847 -0.7469
  359TIP3    H222637   2.700   3.646   0.385  2.5087 -2.5329 -1.8364
  360TIP3   OH222638   4.815   6.806   7.740  0.2252 -0.0764 -0.2107
  360TIP3    H122639   4.881   6.862   7.699 -0.9244  0.0680 -1.9761
  360TIP3    H222640   4.744   6.866   7.763  0.7956 -0.1773  1.9761
  361TIP3   OH222641   6.457   5.014   1.529 -0.2766 -0.0627 -0.0919
  361TIP3    H122642   6.497   5.059   1.455 -0.6907  2.8578  1.3149
  361TIP3    H222643   6.366   5.045   1.530 -0.1944  0.2456  1.7878
  362TIP3   OH222644   2.312   5.409   8.206 -0.2871 -0.0239  0.0558
  362TIP3    H122645   2.259   5.488   8.209 -0.4798 -0.1499  0.0241
  362TIP3    H222646   2.261   5.344   8.254  0.1648  0.0439  0.6467
  363TIP3   OH222647   5.010   5.623   1.939 -0.4685 -0.4541 -0.2135
  363TIP3    H122648   5.013   5.706   1.987  0.6397 -1.6229  1.8774
  363TIP3    H222649   4.920   5.594   1.947 -1.0834  0.8553 -1.6623
  364TIP3   OH222650   2.745   5.220   8.488 -0.0436 -0.4513  0.8721
  364TIP3    H122651   2.728   5.188   8.399 -0.8443 -0.1763  0.9094
  364TIP3    H222652   2.839   5.238   8.490 -0.1624  0.4796 -0.2527
  365TIP3   OH222653   1.413   2.529   0.104  0.2480 -0.0386  0.2801
  365TIP3    H122654   1.477   2.565   0.043  1.1155 -0.0043  1.1904
  365TIP3    H222655   1.417   2.434   0.090 -0.5524  0.0428 -0.6583
  366TIP3   OH222656   4.702   2.473   0.434 -0.0597  0.3130 -0.1520
  366TIP3    H122657   4.702   2.386   0.473  0.9820 -0.2620 -1.3716
  366TIP3    H222658   4.757   2.465   0.356 -0.7644  1.8194 -0.8518
  367TIP3   OH222659   5.451   2.584   8.239 -0.1731 -0.1997 -0.0559
  367TIP3    H122660   5.421   2.577   8.149  1.1522 -2.6812 -0.4194
  367TIP3    H222661   5.533   2.633   8.233 -1.4060  2.0313  0.2447
  368TIP3   OH222662   6.472   5.728   8.309  0.5756 -0.3355 -0.4305
  368TIP3    H122663   6.539   5.746   8.244 -0.6228 -0.2013 -1.6798
  368TIP3    H222664   6.396   5.699   8.258  0.3645 -2.6970  1.0604
  369TIP3   OH222665   5.920   5.203   0.128 -0.3081  0.0211 -0.1975
  369TIP3    H122666   5.918   5.124   0.181  0.3153 -0.6145 -1.0997
  369TIP3    H222667   5.850   5.191   0.063  0.6763 -0.4509 -1.2157
  370TIP3   OH222668   0.265   4.931   1.346 -0.5593  0.4672 -0.1324
  370TIP3    H122669   0.269   4.933   1.250 -2.4726  0.2460 -0.2687
  370TIP3    H222670   0.326   4.999   1.374  1.7392 -0.9374 -1.3948
  371TIP3   OH222671   0.967   6.071   0.697 -0.5492  0.6583 -0.6870
  371TIP3    H122672   0.952   5.996   0.756  0.9123 -1.2656 -2.6034
  371TIP3    H222673   0.977   6.146   0.756  2.2071 -1.3577  1.7322
  372TIP3   OH222674   2.552   0.374   0.053  0.6030  0.8450  0.0968
  372TIP3    H122675   2.617   0.354   0.121  0.3862  0.3691  0.1708
  372TIP3    H222676   2.563   0.303  -0.011 -0.4443  0.2550  0.5491
  373TIP3   OH222677   0.890   4.494   2.533  0.5686 -0.1447 -0.0775
  373TIP3    H122678   0.921   4.551   2.603 -0.6621 -0.2536  0.5936
  373TIP3    H222679   0.969   4.465   2.488  1.3500  0.3645  0.9297
  374TIP3   OH222680   2.926   3.534   2.067  0.3431 -0.3373 -0.1388
  374TIP3    H122681   2.835   3.532   2.038 -0.1138 -1.8865  1.2292
  374TIP3    H222682   2.924   3.584   2.148  1.0934  1.3966 -1.1556
  375TIP3   OH222683   1.402   0.815   0.827 -0.3478 -0.6082  0.4561
  375TIP3    H122684   1.451   0.742   0.789  0.5143 -0.1861  0.7427
  375TIP3    H222685   1.388   0.789   0.918  0.1469 -0.3207  0.6143
  376TIP3   OH222686   3.972   5.392   0.304 -0.3237  0.5221  0.1513
  376TIP3    H122687   3.907   5.380   0.235 -0.8012  1.0713  0.4985
  376TIP3    H222688   4.025   5.467   0.274  0.3053 -0.0689 -0.2421
  377TIP3   OH222689   3.452   2.012   1.967  0.4699 -0.4671 -0.1890
  377TIP3    H122690   3.417   2.001   2.055  1.0454  1.8687  0.3723
  377TIP3    H222691   3.514   1.939   1.957 -0.6186 -1.5776  0.7601
  378TIP3   OH222692   4.523   4.034   7.851 -0.1028 -0.3889  0.1486
  378TIP3    H122693   4.612   4.069   7.864 -0.2048 -0.3200  0.6894
  378TIP3    H222694   4.531   3.942   7.874 -0.3447 -0.2088  0.9787
  379TIP3   OH222695   1.030   6.212   2.359  0.0720  0.4521 -0.0466
  379TIP3    H122696   1.016   6.140   2.297  1.0267 -0.8070  1.1411
  379TIP3    H222697   0.962   6.200   2.425 -0.5309  1.3931 -0.4852
  380TIP3   OH222698   5.025   2.161   2.047 -0.3245  0.5094 -0.3050
  380TIP3    H122699   5.089   2.198   2.108  1.2747 -0.6409 -1.2085
  380TIP3    H222700   5.000   2.077   2.086 -0.6839  0.5946 -0.3479
  381TIP3   OH222701   5.382   6.529   7.751 -0.0459  0.5321 -0.1550
  381TIP3    H122702   5.349   6.479   7.825 -1.3551  1.4251 -0.0990
  381TIP3    H222703   5.308   6.536   7.691  0.8460  0.2756 -1.3142
  382TIP3   OH222704   3.735   0.562   0.551 -0.1179 -0.3607  0.7826
  382TIP3    H122705   3.710   0.526   0.636  2.0180 -2.7387  0.5079
  382TIP3    H222706   3.717   0.493   0.488 -0.2304  0.7878 -0.5081
  383TIP3   OH222707   3.126   4.232   1.045 -0.2005  0.1718 -0.0691
  383TIP3    H122708   3.155   4.302   1.103 -3.4953  0.7636  1.0811
  383TIP3    H222709   3.064   4.181   1.097  0.9555 -2.8121 -1.3403
  384TIP3   OH222710   4.188   0.397   1.451  0.6256 -0.7261 -0.4535
  384TIP3    H122711   4.261   0.425   1.396  0.2442  1.3736  0.0469
  384TIP3    H222712   4.117   0.380   1.389  0.8224 -0.4204 -0.7701
  385TIP3   OH222713   6.153   5.466   1.879  0.0656  0.6945  0.4677
  385TIP3    H122714   6.123   5.446   1.968  1.4158  0.4388  0.8854
  385TIP3    H222715   6.237   5.422   1.871  0.5415  1.7257 -0.5156
  386TIP3   OH222716   6.487   2.448   0.682 -0.0382  0.1313 -0.1903
  386TIP3    H122717   6.446   2.528   0.714 -0.1851  0.5768 -1.4358
  386TIP3    H222718   6.425   2.413   0.618  0.8375  0.0131 -0.9975
  387TIP3   OH222719   4.657   1.356   2.128  0.1780  0.6271 -0.7488
  387TIP3    H122720   4.583   1.416   2.125 -0.0379  0.4253  0.2622
  387TIP3    H222721   4.646   1.300   2.051 -0.7402  0.5660 -0.5749
  388TIP3   OH222722   4.633   1.912   8.575 -0.3072  0.0376 -0.0869
  388TIP3    H122723   4.599   1.903   8.664 -0.2190  1.8884  0.1749
  388TIP3    H222724   4.726   1.891   8.583 -0.2016  0.6446  0.3702
  389TIP3   OH222725   2.306   1.253   7.949  0.4193  0.3979 -0.3249
  389TIP3    H122726   2.348   1.169   7.932  0.3640  0.2422  0.2835
  389TIP3    H222727   2.328   1.306   7.872 -0.8542 -0.6449 -1.4526
  390TIP3   OH222728   2.062   3.951   0.333 -0.7357  0.6219  0.2273
  390TIP3    H122729   1.996   3.997   0.282 -0.9324 -0.0942 -0.1645
  390TIP3    H222730   2.028   3.952   0.423 -3.4903 -3.4250 -0.4900
  391TIP3   OH222731   3.412   4.693   8.485  0.4428  0.3789  0.5914
  391TIP3    H122732   3.353   4.698   8.410 -0.7341  0.2814  1.4778
  391TIP3    H222733   3.478   4.629   8.460  0.0620  0.3373 -0.3517
  392TIP3   OH222734   1.135   1.828   2.005  0.2965  0.4014  0.0034
  392TIP3    H122735   1.058   1.885   1.994  0.6190  0.8673  0.1078
  392TIP3    H222736   1.157   1.800   1.917 -0.6623 -0.6508  0.0668
  393TIP3   OH222737   3.379   5.188   2.455  0.1503  0.2530  0.2565
  393TIP3    H122738   3.451   5.249   2.472 -0.4042  0.4490  2.0411
  393TIP3    H222739   3.405   5.144   2.374  1.6663  1.2145  0.1692
  394TIP3   OH222740   4.807   1.026   1.554  0.0837  0.1764  0.4796
  394TIP3    H122741   4.810   0.966   1.628  1.4741  1.1951  1.2920
  394TIP3    H222742   4.857   0.983   1.485 -0.3067 -0.3023  0.4906
  395TIP3   OH222743   4.858   2.840   7.812 -0.4555  0.0959 -0.1492
  395TIP3    H122744   4.930   2.800   7.764  0.4981  0.8181  0.6341
  395TIP3    H222745   4.806   2.883   7.744 -0.3552 -0.7205 -0.7653
  396TIP3   OH222746   3.546   0.384   3.099 -0.3384 -0.4699  0.2376
  396TIP3    H122747   3.481   0.429   3.045  0.6216  1.1669  0.3723
  396TIP3    H222748   3.524   0.409   3.189 -0.5197 -1.2782  0.4255
  397TIP3   OH222749   5.423   5.081   7.230 -0.0421 -0.2899  0.5209
  397TIP3    H122750   5.414   5.086   7.134  2.3807  1.0323  0.2621
  397TIP3    H222751   5.360   5.145   7.263 -1.0461 -0.9001 -0.1735
  398TIP3   OH222752   1.160   3.240   0.577 -0.7305  0.7956  0.3343
  398TIP3    H122753   1.157   3.265   0.485  2.2471 -2.1898 -0.7839
  398TIP3    H222754   1.227   3.296   0.615 -0.0991  0.2930 -0.0185
  399TIP3   OH222755   1.195   0.807   3.009 -0.2670 -0.0215  0.3958
  399TIP3    H122756   1.201   0.878   2.945  0.4266 -1.2695 -0.9808
  399TIP3    H222757   1.102   0.801   3.030 -0.7956 -0.7274 -1.8853
  400TIP3   OH222758   2.680   2.163   8.403  0.5001 -0.0936 -0.3693
  400TIP3    H122759   2.615   2.233   8.409  0.8971  0.1563  1.8015
  400TIP3    H222760   2.670   2.128   8.315 -0.5161  1.9104 -1.1048
  401TIP3   OH222761   5.875   5.059   7.835 -0.3843  0.4255 -0.0369
  401TIP3    H122762   5.815   5.122   7.794 -1.6935 -0.6925  0.0912
  401TIP3    H222763   5.853   4.975   7.794  0.5715 -0.1357  0.5705
  402TIP3   OH222764   5.329   1.630   2.617  0.7356  0.3318  0.0915
  402TIP3    H122765   5.338   1.705   2.677  1.2220  0.8130 -0.5674
  402TIP3    H222766   5.296   1.559   2.672  0.3502  1.0050  0.7501
  403TIP3   OH222767   5.620   1.086   1.755  0.3922 -0.4589  0.5291
  403TIP3    H122768   5.662   1.169   1.780  0.1446  0.6705 -2.4516
  403TIP3    H222769   5.687   1.037   1.709 -0.5659 -0.0379 -1.4149
  404TIP3   OH222770   4.483   3.955   0.740  0.6565  0.0912  0.7776
  404TIP3    H122771   4.555   3.938   0.800  0.7197  0.1435  0.7170
  404TIP3    H222772   4.512   3.920   0.656  0.4562 -0.2281  0.8407
  405TIP3   OH222773   2.853   5.264   7.522  0.2072 -0.1038  0.5959
  405TIP3    H122774   2.902   5.235   7.598  1.3472 -4.2888 -1.4646
  405TIP3    H222775   2.914   5.323   7.476  0.2913  0.7949  1.8106
  406TIP3   OH222776   4.360   6.467   2.716 -0.0796  0.4482  0.2304
  406TIP3    H122777   4.451   6.455   2.689 -0.3232 -1.0200 -0.0231
  406TIP3    H222778   4.364   6.480   2.810  0.6011  3.4488 -0.1106
  407TIP3   OH222779   1.697   3.118   6.784 -0.0798 -0.3704  0.4993
  407TIP3    H122780   1.790   3.122   6.808 -0.0086  0.4889  0.1312
  407TIP3    H222781   1.698   3.099   6.690 -0.2694 -0.0848  0.4408
  408TIP3   OH222782   2.985   1.975   2.680 -0.2897  0.1420  0.1277
  408TIP3    H122783   2.938   1.950   2.759 -0.0598 -0.4905  0.0683
  408TIP3    H222784   2.947   1.920   2.611  1.0978 -1.0071  0.2291
  409TIP3   OH222785   2.984   6.822   2.382  0.4334  0.1403  0.0935
  409TIP3    H122786   3.048   6.867   2.437 -1.0903 -1.8756  3.9170
  409TIP3    H222787   2.900   6.858   2.410 -0.3847 -0.0940 -1.9218
  410TIP3   OH222788   6.738   1.903   0.409  0.7435  0.4862 -0.1301
  410TIP3    H122789   6.669   1.901   0.343  0.0302  0.2765  0.6080
  410TIP3    H222790   6.733   1.819   0.453  1.1067  0.6811  0.2985
  411TIP3   OH222791   3.561   1.295   7.486 -0.1647 -0.0766  0.8664
  411TIP3    H122792   3.519   1.260   7.564 -0.9509 -1.3961 -0.0968
  411TIP3    H222793   3.572   1.219   7.428 -0.1302  0.9420 -0.5281
  412TIP3   OH222794   5.512   0.199   8.029 -0.1524  0.3179  1.1567
  412TIP3    H122795   5.534   0.200   8.122  0.9878 -0.2290  0.9062
  412TIP3    H222796   5.564   0.269   7.991 -0.0024  0.0158  0.8012
  413TIP3   OH222797   0.744   6.391   7.250  0.2199 -0.1960 -0.1652
  413TIP3    H122798   0.834   6.383   7.280 -0.5275  0.0545  2.4423
  413TIP3    H222799   0.706   6.459   7.306 -1.6564 -0.4929 -0.9873
  414TIP3   OH222800   4.337   1.946   7.823 -0.1157  0.3527  0.1470
  414TIP3    H122801   4.291   1.996   7.891 -0.7699  0.0998 -0.0951
  414TIP3    H222802   4.385   2.012   7.773 -1.5384  0.8611 -0.6201
  415TIP3   OH222803   2.652   5.617   1.916  0.4821  0.2005 -0.0341
  415TIP3    H122804   2.710   5.689   1.890  1.7477  0.5666  3.2284
  415TIP3    H222805   2.565   5.655   1.917  0.4297  0.3188 -2.7501
  416TIP3   OH222806   1.147   0.411   2.497 -0.0479 -0.2083  0.6613
  416TIP3    H122807   1.056   0.441   2.491 -0.2172 -0.6097  1.1343
  416TIP3    H222808   1.167   0.378   2.409 -0.0083  0.8541  0.2662
  417TIP3   OH222809   2.924   2.285   2.218  0.0675 -0.2721 -0.2195
  417TIP3    H122810   2.846   2.319   2.263  0.2979 -0.1032  0.0542
  417TIP3    H222811   2.977   2.247   2.288  1.1147  1.2785 -0.1346
  418TIP3   OH222812   3.896   1.875   8.055  0.3177 -0.2957  0.1363
  418TIP3    H122813   3.827   1.810   8.047  0.3707 -0.4972  1.1346
  418TIP3    H222814   3.866   1.933   8.125  0.1472  0.9291 -0.9245
  419TIP3   OH222815   0.394   0.292   1.917  0.1755 -0.0282  0.4027
  419TIP3    H122816   0.391   0.367   1.976  3.5553 -0.1323  0.8984
  419TIP3    H222817   0.383   0.216   1.974  0.9989 -0.0423  0.5483
  420TIP3   OH222818   4.042   5.884   8.716 -0.1515 -0.1585  0.0598
  420TIP3    H122819   4.023   5.952   8.651  1.5470  2.8515  2.4310
  420TIP3    H222820   4.092   5.818   8.668  1.4663  2.1442 -1.6576
  421TIP3   OH222821   2.134   3.654   1.415  0.2519  0.3600  0.1373
  421TIP3    H122822   2.217   3.652   1.366  0.5155  3.3410  0.2806
  421TIP3    H222823   2.125   3.745   1.442 -0.9641 -0.7037  3.8752
  422TIP3   OH222824   6.304   0.353   8.733 -0.3610 -0.0017  0.0723
  422TIP3    H122825   6.241   0.294   8.692 -0.1183 -0.6900  0.6660
  422TIP3    H222826   6.335   0.409   8.662 -0.4420 -0.7287 -0.5398
  423TIP3   OH222827   3.920   1.048   1.165  0.1406  0.6985  0.7418
  423TIP3    H122828   3.919   0.965   1.212 -0.4775  0.2754 -0.0026
  423TIP3    H222829   3.897   1.113   1.232 -1.9855 -0.0413  0.8010
  424TIP3   OH222830   6.069   5.954   2.544 -0.4704 -0.0690  0.4372
  424TIP3    H122831   6.154   5.911   2.533 -0.1883  0.5648  0.1128
  424TIP3    H222832   6.011   5.905   2.487 -0.5227 -1.0244  1.2709
  425TIP3   OH222833   4.995   5.910   1.705  0.1492 -0.6115 -0.0902
  425TIP3    H122834   5.078   5.863   1.702  1.0568  0.9411 -0.4601
  425TIP3    H222835   4.954   5.890   1.620  1.3320  0.6029 -0.9959
  426TIP3   OH222836   3.148   2.933   8.683  0.5849  0.5806  0.0436
  426TIP3    H122837   3.177   2.945   8.592  2.0376 -0.4018  0.3562
  426TIP3    H222838   3.066   2.982   8.688  0.9938  1.5052 -1.5260
  427TIP3   OH222839   3.716   4.409   7.879 -0.1146 -0.5673  0.1930
  427TIP3    H122840   3.805   4.395   7.848  0.4710 -1.3812  2.0700
  427TIP3    H222841   3.666   4.336   7.843  0.7185 -1.9370  1.6761
  428TIP3   OH222842   4.364   5.791   7.941 -0.4007  0.0215  0.1462
  428TIP3    H122843   4.401   5.835   7.865 -1.3382 -0.3521 -0.5456
  428TIP3    H222844   4.276   5.827   7.949 -0.7670 -0.8687  0.2653
  429TIP3   OH222845   0.460   5.084   8.340 -0.7144  0.2665  0.1154
  429TIP3    H122846   0.400   5.011   8.356 -1.4352  0.7908 -0.1545
  429TIP3    H222847   0.527   5.047   8.282 -0.9720 -0.2226  0.1219
  430TIP3   OH222848   6.409   6.097   1.351  0.0791  0.8877  0.6964
  430TIP3    H122849   6.436   6.179   1.392 -0.9506  1.2616  0.6563
  430TIP3    H222850   6.339   6.064   1.407  1.4638 -0.7537  1.5675
  431TIP3   OH222851   5.530   2.198   2.187  0.0319 -0.2865 -1.1585
  431TIP3    H122852   5.486   2.213   2.103  0.0850  0.8207 -1.0074
  431TIP3    H222853   5.611   2.249   2.181 -0.7074  1.1245  0.1509
  432TIP3   OH222854   0.393   1.606   2.536  0.1852  0.0367  0.7243
  432TIP3    H122855   0.324   1.540   2.540 -0.7239  0.8878 -0.3800
  432TIP3    H222856   0.352   1.685   2.572  1.1961  0.0794  1.8462
  433TIP3   OH222857   2.598   0.309   0.528  0.2761 -0.5687  0.1195
  433TIP3    H122858   2.639   0.391   0.500 -1.4225  0.7488  1.2946
  433TIP3    H222859   2.547   0.281   0.452 -0.3343  0.3109  0.1782
  434TIP3   OH222860   5.144   6.283   0.894 -0.3491 -0.1122  0.0932
  434TIP3    H122861   5.146   6.263   0.800  0.5879 -1.1054  0.3001
  434TIP3    H222862   5.069   6.233   0.928 -2.9936  3.0219 -0.6424
  435TIP3   OH222863   3.850   6.291   0.147  0.4991  0.8088 -0.0847
  435TIP3    H122864   3.801   6.287   0.064  0.0559 -0.2543  0.2038
  435TIP3    H222865   3.939   6.312   0.121  0.4134  0.2752 -0.8619
  436TIP3   OH222866   2.051   1.507   1.561 -0.1265  0.3564 -0.2454
  436TIP3    H122867   2.008   1.593   1.559  1.2022  1.0318 -0.5808
  436TIP3    H222868   2.009   1.461   1.634 -1.5482  0.9023 -0.6755
  437TIP3   OH222869   6.838   2.146   0.293 -0.5799  0.6597 -0.2999
  437TIP3    H122870   6.827   2.064   0.341  0.3498  1.4560  1.4000
  437TIP3    H222871   6.929   2.171   0.310 -0.1812  0.9914 -2.5660
  438TIP3   OH222872   6.829   4.671   1.939  0.4097 -0.3904 -0.1799
  438TIP3    H122873   6.881   4.747   1.966  0.4475 -0.9777  1.5491
  438TIP3    H222874   6.851   4.658   1.847  1.3067  0.9728 -0.1843
  439TIP3   OH222875   0.212   0.686   8.379 -0.1957 -0.3561  0.0929
  439TIP3    H122876   0.150   0.656   8.445 -0.2466  1.6486  1.0279
  439TIP3    H222877   0.158   0.702   8.301 -0.7466  0.6655  0.6723
  440TIP3   OH222878   2.868   6.415   0.276 -0.1333 -0.1304  0.5402
  440TIP3    H122879   2.856   6.361   0.354 -0.7539 -0.6893  0.0756
  440TIP3    H222880   2.960   6.439   0.277  0.3485 -1.8475  0.3515
  441TIP3   OH222881   0.142   2.490   0.921 -0.4752  0.3353 -0.2013
  441TIP3    H122882   0.182   2.411   0.957 -0.9608  1.0826  2.1556
  441TIP3    H222883   0.216   2.550   0.908  0.1960 -1.0009 -3.8633
  442TIP3   OH222884   2.688   1.207   7.965 -0.3044 -0.5083 -0.0872
  442TIP3    H122885   2.666   1.220   8.058  0.2686  0.5375 -0.0855
  442TIP3    H222886   2.674   1.293   7.925 -1.0112 -1.0640 -1.0868
  443TIP3   OH222887   1.713   5.837   0.707 -0.2953 -0.4271 -0.0459
  443TIP3    H122888   1.683   5.819   0.796  0.0294 -1.2625 -0.0988
  443TIP3    H222889   1.727   5.931   0.705 -0.6322 -0.3556  0.6859
  444TIP3   OH222890   6.416   3.817   1.321  0.3000  0.6458 -0.2056
  444TIP3    H122891   6.338   3.763   1.331 -0.6337  1.7465 -1.2775
  444TIP3    H222892   6.487   3.762   1.355 -0.8881 -0.4578  0.6097
  445TIP3   OH222893   3.568   0.974   1.116  0.1330 -0.9068 -0.6409
  445TIP3    H122894   3.502   1.037   1.087  0.1520 -1.1053 -1.1282
  445TIP3    H222895   3.628   0.966   1.042  0.3673 -1.1862 -0.4267
  446TIP3   OH222896   6.362   3.590   7.062  0.0226 -0.0533  0.5056
  446TIP3    H122897   6.455   3.605   7.043  0.3011  0.4209  2.1184
  446TIP3    H222898   6.362   3.516   7.124 -0.5810  0.6613  1.3861
  447TIP3   OH222899   1.147   6.681   2.533  0.3259 -0.0807 -0.5321
  447TIP3    H122900   1.107   6.762   2.501  3.1548  1.6425 -0.0076
  447TIP3    H222901   1.072   6.624   2.553 -1.7464  2.0015 -1.7933
  448TIP3   OH222902   1.494   5.108   0.720 -0.0317 -0.1904 -0.2165
  448TIP3    H122903   1.430   5.038   0.708  2.0169 -2.4852  1.2419
  448TIP3    H222904   1.494   5.125   0.814  2.1297 -0.9598 -0.0319
  449TIP3   OH222905   2.347   2.332   8.096  0.3939  0.2147  0.1081
  449TIP3    H122906   2.371   2.318   8.188  1.0625  2.8269  0.4121
  449TIP3    H222907   2.426   2.308   8.048  0.3543 -0.2726  0.2731
  450TIP3   OH222908   2.050   5.183   7.594  0.1629 -0.8973 -0.3201
  450TIP3    H122909   2.088   5.226   7.517  1.2968 -0.4852  0.4441
  450TIP3    H222910   1.996   5.250   7.635  2.2613  0.0281  1.1054
  451TIP3   OH222911   3.202   2.015   2.189 -0.8101 -0.1115 -0.5935
  451TIP3    H122912   3.154   1.977   2.115 -1.8117  0.9290 -0.5097
  451TIP3    H222913   3.231   2.100   2.157 -1.6868  0.5597  0.3721
  452TIP3   OH222914   1.785   0.219   8.101 -0.2244  0.4013  0.2358
  452TIP3    H122915   1.716   0.285   8.109 -0.4623  0.0648  1.2139
  452TIP3    H222916   1.787   0.177   8.187  1.8023  0.9700  0.5003
  453TIP3   OH222917   6.324   6.341   0.700 -0.1625  0.2384 -0.1587
  453TIP3    H122918   6.408   6.369   0.738  0.6556 -0.9483 -0.9991
  453TIP3    H222919   6.314   6.397   0.623  0.3751 -0.2886 -0.6194
  454TIP3   OH222920   4.028   2.368   8.186  0.1929 -0.2008  0.1138
  454TIP3    H122921   4.078   2.422   8.125 -0.5328 -1.4278 -1.6704
  454TIP3    H222922   3.955   2.424   8.213 -0.9695 -0.4384 -2.2903
  455TIP3   OH222923   0.144   1.399   3.109 -0.7211  0.0276 -0.1422
  455TIP3    H122924   0.152   1.380   3.202 -2.1926 -1.1610 -0.2261
  455TIP3    H222925   0.217   1.350   3.069  1.6997  2.7847  0.5579
  456TIP3   OH222926   2.330   6.679   2.670  0.4015  0.4699 -0.1485
  456TIP3    H122927   2.425   6.684   2.671  0.4558 -0.0563  1.6358
  456TIP3    H222928   2.306   6.692   2.579  2.1781  0.5199 -0.6495
  457TIP3   OH222929   1.632   2.381   1.722  0.2855 -0.3334  0.4455
  457TIP3    H122930   1.615   2.357   1.813  0.5233 -2.7718 -0.0913
  457TIP3    H222931   1.676   2.466   1.727  1.6632 -1.1224  2.6991
  458TIP3   OH222932   0.073   2.890   0.731  0.3832  0.4565 -0.4501
  458TIP3    H122933   0.026   2.967   0.698  1.4883  1.5876  0.5399
  458TIP3    H222934   0.028   2.816   0.690 -0.0337  1.6526 -2.2918
  459TIP3   OH222935   2.289   0.161   3.018  0.3554  0.4099 -0.6740
  459TIP3    H122936   2.382   0.142   3.032 -0.3420 -2.9907  0.2472
  459TIP3    H222937   2.273   0.242   3.067  2.5973  0.4488  0.1023
  460TIP3   OH222938   2.526   3.197   7.310 -0.6736 -0.1002  0.2369
  460TIP3    H122939   2.550   3.247   7.231 -2.3997  0.5723  0.1026
  460TIP3    H222940   2.492   3.114   7.277  0.7537 -0.7897  0.4052
  461TIP3   OH222941   3.695   6.211   7.641 -0.3217  0.1695  0.1106
  461TIP3    H122942   3.749   6.145   7.597  0.1084  0.0700  0.7775
  461TIP3    H222943   3.615   6.164   7.666 -0.7805  0.3466 -0.9797
  462TIP3   OH222944   3.192   1.073   7.349 -0.1709  0.5287 -0.3774
  462TIP3    H122945   3.177   1.119   7.266 -2.3628  0.3947 -0.1171
  462TIP3    H222946   3.127   1.002   7.348 -0.1672  0.4779  1.4183
  463TIP3   OH222947   5.636   5.812   1.320  0.0907 -0.2161 -0.0152
  463TIP3    H122948   5.571   5.838   1.255 -1.3050  0.1292  1.4285
  463TIP3    H222949   5.720   5.837   1.283 -0.8463  2.3881 -0.5909
  464TIP3   OH222950   1.410   0.120   7.861  0.3618 -0.6844  0.2749
  464TIP3    H122951   1.406   0.165   7.945  1.2983 -0.2544  0.1055
  464TIP3    H222952   1.464   0.177   7.806  0.3208 -1.2897 -0.4057
  465TIP3   OH222953   5.142   5.688   1.679  0.1465 -0.5496  0.0118
  465TIP3    H122954   5.079   5.679   1.607  0.9192 -1.3142 -0.6028
  465TIP3    H222955   5.092   5.665   1.757 -1.1953  2.0515  0.0007
  466TIP3   OH222956   2.676   3.326   1.800 -0.0407 -0.0498  0.3923
  466TIP3    H122957   2.737   3.400   1.807 -0.0194 -0.0645  0.3645
  466TIP3    H222958   2.597   3.356   1.844 -0.5760  0.5702 -0.9185
  467TIP3   OH222959   5.630   1.435   1.615 -0.0003  0.0871 -0.2735
  467TIP3    H122960   5.654   1.524   1.587 -1.7534  0.6129 -0.1797
  467TIP3    H222961   5.566   1.406   1.550  0.0118 -0.8367  0.1176
  468TIP3   OH222962   1.288   6.051   0.859  0.6905  0.4644  0.0198
  468TIP3    H122963   1.259   5.960   0.856 -0.6616  0.7858  1.5616
  468TIP3    H222964   1.365   6.049   0.916 -1.2559  0.6186  2.8944
  469TIP3   OH222965   4.717   4.172   7.455  0.3651  0.4910 -0.0643
  469TIP3    H122966   4.725   4.088   7.411  1.2480  0.8013 -0.5204
  469TIP3    H222967   4.726   4.151   7.548  1.9598  0.2194 -0.2510
  470TIP3   OH222968   4.458   0.931   0.072  0.4470  0.5378 -0.4038
  470TIP3    H122969   4.509   1.006   0.041  0.7248  0.1951 -0.7797
  470TIP3    H222970   4.367   0.955   0.053  0.3795  1.4575  0.9169
  471TIP3   OH222971   3.672   4.129   2.381  0.2166 -0.0392 -0.1004
  471TIP3    H122972   3.621   4.202   2.345  1.0001  0.1969 -0.7620
  471TIP3    H222973   3.656   4.057   2.321  1.0786  0.1943 -0.6327
  472TIP3   OH222974   2.191   2.102   2.333 -0.3069 -0.0438  0.6485
  472TIP3    H122975   2.216   2.140   2.417 -0.5261  0.1364  0.6325
  472TIP3    H222976   2.123   2.037   2.354  2.6610 -3.3108  1.1887
  473TIP3   OH222977   5.168   1.796   8.430 -0.2539  0.7237 -0.5159
  473TIP3    H122978   5.223   1.833   8.499  1.4630 -0.3620 -1.2181
  473TIP3    H222979   5.203   1.834   8.349  1.2184 -1.8698 -1.2131
  474TIP3   OH222980   3.328   2.702   8.610  0.1370  0.2276 -0.5428
  474TIP3    H122981   3.263   2.668   8.549 -0.5933  0.2550  0.2063
  474TIP3    H222982   3.293   2.787   8.637  1.2369  0.9428 -1.2993
  475TIP3   OH222983   1.801   3.131   7.866  0.1039 -0.3246 -0.1246
  475TIP3    H122984   1.761   3.129   7.953 -1.3026  0.0426 -0.7363
  475TIP3    H222985   1.859   3.055   7.865 -0.0224 -0.4616  1.0498
  476TIP3   OH222986   4.361   2.846   1.480 -0.1414  0.1947  0.1516
  476TIP3    H122987   4.276   2.889   1.476  0.1146  0.6328 -1.0697
  476TIP3    H222988   4.395   2.868   1.567 -2.5102 -2.5002  1.9487
  477TIP3   OH222989   2.238   4.581   2.000 -0.0645 -0.2916  0.5306
  477TIP3    H122990   2.151   4.555   2.031 -0.4995  0.6077  0.1090
  477TIP3    H222991   2.224   4.607   1.909  0.8074 -0.8991  0.2022
  478TIP3   OH222992   2.002   6.250   7.992 -0.0698 -0.3732 -0.3726
  478TIP3    H122993   1.982   6.343   7.993 -1.3586 -0.5601 -2.6836
  478TIP3    H222994   1.962   6.217   8.073 -0.6721  0.8775 -0.1301
  479TIP3   OH222995   2.316   1.327   8.683 -0.2188 -0.4808 -0.4907
  479TIP3    H122996   2.406   1.311   8.652 -0.5673 -1.7732 -0.8722
  479TIP3    H222997   2.299   1.418   8.658  1.4235  0.2238  0.7282
  480TIP3   OH222998   0.919   4.836   1.733  0.0025  0.4488  0.2116
  480TIP3    H122999   0.924   4.857   1.640  2.0448 -3.9259 -0.9090
  480TIP3    H223000   1.005   4.860   1.767 -0.4419  1.2187  0.8329
  481TIP3   OH223001   4.923   4.789   2.654  0.4456  0.2098  0.3109
  481TIP3    H123002   4.967   4.706   2.670  1.7905  0.2187 -2.7769
  481TIP3    H223003   4.993   4.851   2.635 -0.6219  1.6877  0.9409
  482TIP3   OH223004   6.265   2.341   2.478 -0.0072 -0.1644  0.5576
  482TIP3    H123005   6.303   2.428   2.477 -1.3510  0.4660  1.2039
  482TIP3    H223006   6.282   2.306   2.391 -0.6853  1.3159 -0.2009
  483TIP3   OH223007   6.663   0.399   7.697  0.0537  0.4241  0.3685
  483TIP3    H123008   6.739   0.454   7.683 -0.0609  0.5363  0.1821
  483TIP3    H223009   6.662   0.339   7.622  0.7301 -0.4813  1.0558
  484TIP3   OH223010   1.343   5.814   2.667  0.2302  0.8831 -0.4604
  484TIP3    H123011   1.329   5.722   2.646  0.7308  1.3252 -2.9629
  484TIP3    H223012   1.256   5.847   2.689  0.1273 -0.2592  1.0406
  485TIP3   OH223013   1.014   3.150   7.985 -0.1369 -0.5265 -0.0360
  485TIP3    H123014   1.018   3.122   7.894 -0.1054 -2.0021  0.3879
  485TIP3    H223015   0.943   3.098   8.023 -0.5576  0.5023  0.6494
  486TIP3   OH223016   4.031   3.730   2.159  0.2527  0.0731  0.1723
  486TIP3    H123017   4.023   3.741   2.065  2.4747 -1.4959 -0.2932
  486TIP3    H223018   4.083   3.805   2.188 -0.6830  0.7152  0.2330
  487TIP3   OH223019   4.708   2.099   0.200  0.1433  0.2747 -0.2027
  487TIP3    H123020   4.624   2.146   0.206  0.0626  0.1168 -0.0852
  487TIP3    H223021   4.769   2.164   0.165 -0.3213  0.0199 -1.5579
  488TIP3   OH223022   5.305   1.889   8.662 -0.6764  0.2264 -0.2420
  488TIP3    H123023   5.268   1.977   8.654 -0.3909  0.6659  2.4099
  488TIP3    H223024   5.392   1.903   8.701  0.2206 -1.1357 -1.6189
  489TIP3   OH223025   1.515   5.788   1.826 -0.1315 -0.1269 -0.5061
  489TIP3    H123026   1.602   5.799   1.787  0.0770  0.0780  0.0131
  489TIP3    H223027   1.506   5.694   1.839 -0.9063 -0.4201 -2.6372
  490TIP3   OH223028   0.139   3.326   8.321  0.1388  0.2317  0.4365
  490TIP3    H123029   0.138   3.240   8.278  1.2182 -0.7865  2.3347
  490TIP3    H223030   0.106   3.386   8.254  0.4409 -1.4732 -1.3429
  491TIP3   OH223031   4.442   3.820   8.297 -0.0553  0.1967 -0.1103
  491TIP3    H123032   4.389   3.892   8.331 -0.4244  0.5488 -1.3567
  491TIP3    H223033   4.379   3.765   8.250  0.1179 -1.2864  1.3255
  492TIP3   OH223034   1.135   2.910   8.558 -0.0720  0.2058  0.7362
  492TIP3    H123035   1.117   2.823   8.595 -2.0224  0.4249  0.4145
  492TIP3    H223036   1.091   2.909   8.472  1.5573  0.8476 -0.1416
  493TIP3   OH223037   6.141   4.889   8.155  0.2781  0.4531 -0.0904
  493TIP3    H123038   6.135   4.958   8.090  0.8990  0.6530  0.0573
  493TIP3    H223039   6.186   4.817   8.111  1.2824  0.8258  0.2968
  494TIP3   OH223040   0.568   5.590   1.526 -0.2535 -0.1127 -0.3698
  494TIP3    H123041   0.487   5.626   1.560 -1.4154 -1.9013 -1.1014
  494TIP3    H223042   0.555   5.495   1.526  2.8947 -0.7129  2.1285
  495TIP3   OH223043   5.498   2.149   1.177  0.4009 -0.2478 -0.3044
  495TIP3    H123044   5.553   2.220   1.210  0.6495 -0.5576 -0.0378
  495TIP3    H223045   5.409   2.174   1.200  0.6250 -0.8366  1.3569
  496TIP3   OH223046   5.986   3.317   7.419 -0.5267 -0.2601 -0.1956
  496TIP3    H123047   5.926   3.385   7.388 -1.6150 -1.4956 -0.8986
  496TIP3    H223048   5.942   3.277   7.494  0.4242  0.2302  0.6664
  497TIP3   OH223049   4.576   5.641   8.103  0.0273  0.0516 -0.6483
  497TIP3    H123050   4.531   5.679   8.028 -1.6700 -0.3985  0.1029
  497TIP3    H223051   4.549   5.695   8.178 -0.2650 -0.9568  0.0036
  498TIP3   OH223052   0.963   0.971   0.305 -0.2366  0.1296  0.3372
  498TIP3    H123053   1.047   0.927   0.291 -0.7828 -1.3362  1.4511
  498TIP3    H223054   0.987   1.052   0.351  0.6271  0.1564 -0.1333
  499TIP3   OH223055   1.902   3.876   1.822  0.2731 -0.0164 -0.0301
  499TIP3    H123056   1.945   3.867   1.907 -1.3694 -1.3257  0.7158
  499TIP3    H223057   1.819   3.920   1.842 -1.0578 -2.1352 -0.5836
  500TIP3   OH223058   2.593   6.558   8.456 -0.4141 -0.1454 -0.1026
  500TIP3    H123059   2.511   6.588   8.415  0.2960  0.0730 -1.4127
  500TIP3    H223060   2.632   6.499   8.392  1.3432  1.1536 -0.3148
  501TIP3   OH223061   6.233   2.594   1.389  0.1972  0.4821 -0.2846
  501TIP3    H123062   6.231   2.540   1.310 -0.2289 -1.6170  1.0875
  501TIP3    H223063   6.141   2.615   1.406  0.0424 -1.0136  0.8784
  502TIP3   OH223064   0.491   0.874   0.258  0.6208  0.4712  0.6622
  502TIP3    H123065   0.409   0.918   0.282  1.0180  0.9744  1.1339
  502TIP3    H223066   0.534   0.857   0.341  1.2115  0.6410  0.3981
  503TIP3   OH223067   2.965   2.732   8.543  0.4329  0.3194  0.3625
  503TIP3    H123068   3.026   2.663   8.516  1.3596  0.3995  2.1208
  503TIP3    H223069   3.014   2.784   8.606 -0.6915  1.8393  0.0507
  504TIP3   OH223070   2.852   6.755   8.429 -0.3282  0.7485  0.4526
  504TIP3    H123071   2.874   6.784   8.340  0.8163  0.3894  0.6049
  504TIP3    H223072   2.827   6.664   8.419 -1.4414  1.0481  0.3377
  505TIP3   OH223073   6.125   0.782   0.875  0.1414 -0.3018 -0.0032
  505TIP3    H123074   6.048   0.743   0.918  0.3609 -0.0726  0.6127
  505TIP3    H223075   6.092   0.861   0.834 -0.2770 -1.0317 -1.1258
  506TIP3   OH223076   0.877   0.830   2.441  0.0134  0.4100 -0.6276
  506TIP3    H123077   0.787   0.806   2.421  0.3048  0.1078 -1.6115
  506TIP3    H223078   0.883   0.822   2.537 -0.1656 -2.7093 -0.7756
  507TIP3   OH223079   6.477   2.562   7.489 -0.0468  0.0723 -0.5862
  507TIP3    H123080   6.382   2.576   7.495  0.0752  0.9623 -0.6190
  507TIP3    H223081   6.515   2.641   7.526  0.6823  0.0212 -1.2091
  508TIP3   OH223082   2.341   4.072   0.264 -0.0486  0.5714 -0.4993
  508TIP3    H123083   2.397   4.023   0.205  1.4267  2.7619 -1.0362
  508TIP3    H223084   2.279   4.007   0.298  2.3541 -1.8527 -0.3798
  509TIP3   OH223085   4.551   2.489   1.861 -0.1690  0.0376  0.5587
  509TIP3    H123086   4.564   2.422   1.794 -0.0599  0.4656  0.1432
  509TIP3    H223087   4.472   2.461   1.908  0.8360 -1.3162  1.5559
  510TIP3   OH223088   2.427   0.102   0.207 -0.4159  0.0008  0.2583
  510TIP3    H123089   2.514   0.102   0.247 -1.8121 -1.2195  3.6464
  510TIP3    H223090   2.375   0.158   0.264 -2.1903 -0.4043 -0.9099
  511TIP3   OH223091   6.122   5.386   7.995  0.0709  0.0499 -0.6433
  511TIP3    H123092   6.120   5.436   8.077  0.2799 -3.2971  1.6250
  511TIP3    H223093   6.031   5.384   7.966 -0.0523  1.0283 -0.3697
  512TIP3   OH223094   2.920   5.523   1.461  0.2694  0.1552  0.1604
  512TIP3    H123095   2.827   5.545   1.453 -0.6523 -3.1825  0.3766
  512TIP3    H223096   2.951   5.520   1.370  0.3393  1.6807  0.1034
  513TIP3   OH223097   2.638   0.931   8.510 -0.0441  0.0223  0.1480
  513TIP3    H123098   2.710   0.985   8.545 -1.3682  1.6933  0.4070
  513TIP3    H223099   2.679   0.878   8.442  1.0566  2.4898 -1.2080
  514TIP3   OH223100   3.023   1.154   2.438  0.2966 -0.1752 -0.4114
  514TIP3    H123101   3.115   1.146   2.462 -0.3109 -2.0023  1.6191
  514TIP3    H223102   2.995   1.064   2.423 -1.1667  0.3532 -0.9836
  515TIP3   OH223103   0.954   2.161   2.140  0.0075  0.2398  0.5415
  515TIP3    H123104   1.000   2.202   2.214 -0.1768  1.3985  0.0456
  515TIP3    H223105   1.023   2.141   2.077 -0.0322  0.9938  0.2472
  516TIP3   OH223106   3.634   1.198   1.895  0.0435 -0.1585  0.6160
  516TIP3    H123107   3.592   1.228   1.815  0.6233  1.5375  0.8979
  516TIP3    H223108   3.609   1.264   1.961  3.7747  1.5440  0.5821
  517TIP3   OH223109   6.168   4.626   6.891  0.4441 -0.3235  0.3625
  517TIP3    H123110   6.227   4.652   6.960  0.1999 -0.5844  0.6751
  517TIP3    H223111   6.174   4.695   6.825  0.7338 -0.1174  0.6082
  518TIP3   OH223112   3.428   0.734   2.643 -0.4082 -0.0176 -0.3233
  518TIP3    H123113   3.375   0.805   2.679  0.0241  0.1133  0.0762
  518TIP3    H223114   3.409   0.659   2.700 -1.0061 -0.2827 -0.8574
  519TIP3   OH223115   5.208   5.960   2.550 -0.4214  0.2699 -0.4968
  519TIP3    H123116   5.269   5.886   2.546  0.0176  0.6819 -1.8138
  519TIP3    H223117   5.160   5.956   2.468 -2.5411 -0.3102  0.7043
  520TIP3   OH223118   5.736   2.069   1.715 -0.3570 -0.2353  0.0968
  520TIP3    H123119   5.743   2.005   1.785 -0.9816 -0.0612  0.3198
  520TIP3    H223120   5.826   2.102   1.704 -0.0236 -1.1721 -0.0579
  521TIP3   OH223121   0.632   2.504   8.140  0.4502 -0.1309 -0.4608
  521TIP3    H123122   0.672   2.423   8.109  0.8530 -0.0272 -0.2140
  521TIP3    H223123   0.674   2.521   8.225  0.5182  0.4483 -0.6085
  522TIP3   OH223124   1.529   2.514   0.792 -0.2278  0.5240 -0.0459
  522TIP3    H123125   1.481   2.455   0.850  1.0006 -0.7608 -0.2996
  522TIP3    H223126   1.537   2.595   0.842 -2.4186  0.7092  0.0995
  523TIP3   OH223127   5.703   5.276   0.452 -0.0882 -0.5497  0.5928
  523TIP3    H123128   5.661   5.255   0.369 -0.3462 -0.7212  0.7633
  523TIP3    H223129   5.689   5.198   0.506 -2.6583  0.6493  1.8738
  524TIP3   OH223130   2.075   4.908   8.672 -0.0586  0.8876  0.0250
  524TIP3    H123131   2.163   4.886   8.645  0.1820  0.8278  0.8170
  524TIP3    H223132   2.031   4.824   8.683 -0.2224  0.9171 -0.3764
  525TIP3   OH223133   2.766   5.643   0.038  0.3040  0.0482  0.7128
  525TIP3    H123134   2.762   5.549   0.019  1.3855 -0.0725  0.9888
  525TIP3    H223135   2.715   5.684  -0.031 -0.5363 -0.7732  0.8319
  526TIP3   OH223136   4.163   6.540   1.610  0.3567  0.1070  0.2017
  526TIP3    H123137   4.087   6.599   1.609  0.1180 -0.1779  0.9620
  526TIP3    H223138   4.127   6.456   1.637  0.8793 -0.1311  0.1674
  527TIP3   OH223139   2.886   1.313   8.456  0.4639  0.2805  0.6895
  527TIP3    H123140   2.959   1.335   8.397  1.3961  0.5840  1.9176
  527TIP3    H223141   2.809   1.353   8.415  1.1243  0.6702 -0.2073
  528TIP3   OH223142   4.280   1.473   7.102  0.5994  0.2571  0.2183
  528TIP3    H123143   4.232   1.508   7.177 -0.4208 -1.4668  0.4103
  528TIP3    H223144   4.278   1.544   7.037 -0.3346  1.0067  1.0352
  529TIP3   OH223145   2.892   6.117   1.707 -0.1803  0.1677  0.0142
  529TIP3    H123146   2.964   6.171   1.674 -1.3939  2.0366  0.2808
  529TIP3    H223147   2.844   6.090   1.629  0.0420  0.0215 -0.0734
  530TIP3   OH223148   2.586   4.658   7.330 -0.3132  0.1036 -0.4131
  530TIP3    H123149   2.667   4.614   7.359 -1.1932 -0.6724  1.0255
  530TIP3    H223150   2.545   4.594   7.272 -0.9396 -0.4721  0.6204
  531TIP3   OH223151   5.137   6.479   1.795  0.0220 -0.2156 -0.3622
  531TIP3    H123152   5.130   6.384   1.787  0.1824 -0.2578  0.0014
  531TIP3    H223153   5.149   6.495   1.888  2.2445  0.0098 -0.6282
  532TIP3   OH223154   2.605   2.172   2.510  0.9230  0.2284 -0.1160
  532TIP3    H123155   2.592   2.144   2.600  0.1552 -1.1234 -0.6252
  532TIP3    H223156   2.682   2.230   2.514  1.4635 -0.5358  1.2598
  533TIP3   OH223157   1.935   4.114   8.696  0.0161  0.4475 -0.2430
  533TIP3    H123158   2.014   4.088   8.649 -0.2010 -0.4407 -0.1262
  533TIP3    H223159   1.865   4.108   8.630  0.1550  2.0933 -0.5943
  534TIP3   OH223160   5.339   3.948   7.613  0.0088  0.0393  0.1845
  534TIP3    H123161   5.350   3.879   7.679  0.9427  1.6665  1.8174
  534TIP3    H223162   5.421   3.946   7.563 -0.1409 -0.2909 -0.0544
  535TIP3   OH223163   3.648   1.465   1.231 -0.3791 -0.2741  0.0565
  535TIP3    H123164   3.606   1.532   1.177  0.5175 -0.1158 -0.4690
  535TIP3    H223165   3.686   1.404   1.168 -0.8470 -1.0708  0.5297
  536TIP3   OH223166   0.947   3.651   0.717  0.4619 -0.1543 -0.7460
  536TIP3    H123167   1.028   3.702   0.717 -0.1603  0.8683 -0.5229
  536TIP3    H223168   0.955   3.593   0.793  2.0467 -1.8918 -2.1282
  537TIP3   OH223169   3.322   3.556   8.330  0.0685 -0.1549 -0.7752
  537TIP3    H123170   3.309   3.628   8.392 -0.9531 -1.5736  0.7398
  537TIP3    H223171   3.411   3.568   8.297 -0.1961  1.9950 -0.8768
  538TIP3   OH223172   5.565   1.682   2.100 -0.0806  1.0453  0.0858
  538TIP3    H123173   5.519   1.762   2.123 -0.7549  0.7898 -0.3380
  538TIP3    H223174   5.578   1.637   2.184 -0.2030  1.3273  0.2573
  539TIP3   OH223175   5.330   6.134   7.346  0.0343  0.4095 -0.5336
  539TIP3    H123176   5.380   6.075   7.402 -0.0794 -2.7191 -3.4450
  539TIP3    H223177   5.397   6.177   7.291  0.0115  2.2889  0.7941
  540TIP3   OH223178   4.522   5.005   1.732  0.3125  0.4323  0.4721
  540TIP3    H123179   4.612   5.025   1.710  0.1353  1.0507  0.2885
  540TIP3    H223180   4.478   4.998   1.647 -0.0740  1.4005  0.5812
  541TIP3   OH223181   1.573   2.133   7.780  0.6682  0.0746 -0.2311
  541TIP3    H123182   1.501   2.167   7.726  0.8734  2.2344  0.7402
  541TIP3    H223183   1.593   2.048   7.742 -1.7059 -0.1420 -1.1805
  542TIP3   OH223184   3.723   5.314   1.701 -0.0955 -0.2788 -0.1888
  542TIP3    H123185   3.759   5.313   1.790 -1.0135 -1.6872  0.2010
  542TIP3    H223186   3.652   5.379   1.705 -0.3687 -0.5887  0.2316
  543TIP3   OH223187   5.234   5.368   7.255  0.0888 -0.0817  0.1368
  543TIP3    H123188   5.146   5.397   7.278 -0.2565 -2.2882  1.9988
  543TIP3    H223189   5.291   5.441   7.280 -0.8385 -0.2424  3.1495
  544TIP3   OH223190   3.896   6.801   0.035  0.0018 -0.2223 -0.5031
  544TIP3    H123191   3.907   6.766  -0.054 -1.4728  2.2843 -1.7794
  544TIP3    H223192   3.828   6.868   0.027 -2.0129 -1.5541  3.0395
  545TIP3   OH223193   5.656   0.666   1.427 -0.1562 -0.2412 -0.2966
  545TIP3    H123194   5.571   0.695   1.395  0.9343  3.0341 -0.6447
  545TIP3    H223195   5.653   0.682   1.522  0.1919  0.2864 -0.3705
  546TIP3   OH223196   5.968   1.571   3.038  0.0353  0.5582 -0.2383
  546TIP3    H123197   5.909   1.609   3.103 -1.4057 -0.6862 -0.7493
  546TIP3    H223198   5.962   1.476   3.053  0.2890  0.2964 -1.6592
  547TIP3   OH223199   0.356   2.061   0.098  0.1361 -0.2450  0.0930
  547TIP3    H123200   0.390   1.972   0.087  2.5600  0.8331 -2.5575
  547TIP3    H223201   0.287   2.069   0.032  0.6805  0.1302 -0.4430
  548TIP3   OH223202   4.676   4.595   8.725  0.7705 -0.3421 -0.2096
  548TIP3    H123203   4.706   4.568   8.811 -0.7876 -0.0962  0.4443
  548TIP3    H223204   4.649   4.687   8.736  1.5565  0.0373 -1.2304
  549TIP3   OH223205   4.175   2.822   7.342 -0.5076  0.0003 -0.4586
  549TIP3    H123206   4.099   2.773   7.310  1.4057 -1.1416 -3.8309
  549TIP3    H223207   4.237   2.755   7.370 -0.0043  0.7910  0.3546
  550TIP3   OH223208   4.915   3.577   7.695  0.3968 -0.5689 -0.1400
  550TIP3    H123209   4.914   3.673   7.693  1.5048 -0.5541 -0.8809
  550TIP3    H223210   4.981   3.553   7.631 -0.1963 -1.8512 -0.2929
  551TIP3   OH223211   3.730   4.635   0.227 -1.0295  0.0330  0.3331
  551TIP3    H123212   3.659   4.599   0.174 -0.2534 -0.6866 -0.2241
  551TIP3    H223213   3.805   4.640   0.168 -1.2937  3.4210  0.0843
  552TIP3   OH223214   6.070   1.833   0.222  0.3980 -0.3124  0.8326
  552TIP3    H123215   6.052   1.881   0.141 -0.4229  0.9182  1.7280
  552TIP3    H223216   6.090   1.900   0.287 -0.2653 -1.1866  1.9842
  553TIP3   OH223217   0.880   3.905   0.226  0.7027  0.2178 -0.1910
  553TIP3    H123218   0.967   3.887   0.191  1.2520  0.5383  0.9532
  553TIP3    H223219   0.876   3.853   0.306  0.2880  1.0865  0.3656
  554TIP3   OH223220   1.227   1.109   2.231  0.1044 -0.2393  0.0999
  554TIP3    H123221   1.145   1.110   2.182  0.2750  1.2420 -0.1917
  554TIP3    H223222   1.282   1.175   2.189  1.2809 -0.8682  0.5857
  555TIP3   OH223223   4.987   6.093   7.910  0.1776 -0.0559 -0.0573
  555TIP3    H123224   5.008   6.131   7.825 -2.8398 -1.3906 -1.5433
  555TIP3    H223225   5.062   6.115   7.965  1.3665  2.5496 -2.4723
  556TIP3   OH223226   2.092   6.703   7.869  0.1101 -0.0283  0.0896
  556TIP3    H123227   2.031   6.731   7.937  0.8109 -0.5782  0.9646
  556TIP3    H223228   2.041   6.708   7.788 -0.4456  1.5958  0.5046
  557TIP3   OH223229   1.575   2.070   2.038 -0.7447 -0.0737 -0.0899
  557TIP3    H123230   1.618   1.984   2.034 -1.5390 -0.4333 -1.5862
  557TIP3    H223231   1.502   2.057   2.099 -0.0069 -0.0306  0.8316
  558TIP3   OH223232   4.915   3.826   8.403  0.2312  0.5554 -0.4783
  558TIP3    H123233   4.835   3.833   8.352 -0.5786  0.4821  0.7331
  558TIP3    H223234   4.895   3.763   8.472  0.9130  1.4209  0.5621
  559TIP3   OH223235   1.489   3.295   7.581  0.0802 -0.0694 -0.0722
  559TIP3    H123236   1.469   3.388   7.594  0.5995  0.0022  0.2288
  559TIP3    H223237   1.478   3.255   7.667 -1.0871 -0.4771 -0.3914
  560TIP3   OH223238   1.447   3.934   8.655 -0.5369 -0.1055 -0.4451
  560TIP3    H123239   1.522   3.897   8.610  2.1379  0.7204  2.8850
  560TIP3    H223240   1.386   3.861   8.666  1.1164 -1.5785 -0.7395
  561TIP3   OH223241   6.414   4.134   1.775  0.0518 -0.0003 -0.0808
  561TIP3    H123242   6.467   4.202   1.816  0.7194  0.1698 -1.1831
  561TIP3    H223243   6.401   4.164   1.685  0.4959 -1.3998 -0.6375
  562TIP3   OH223244   0.679   5.047   0.448 -0.1398 -0.2076  0.8195
  562TIP3    H123245   0.716   4.982   0.508  0.2843 -0.3224  0.4362
  562TIP3    H223246   0.750   5.069   0.389 -0.8297 -0.8450 -0.2854
  563TIP3   OH223247   4.166   2.924   0.373 -0.1060  0.0879  0.0833
  563TIP3    H123248   4.119   3.008   0.369 -1.3489 -0.5878  0.0973
  563TIP3    H223249   4.177   2.898   0.282  1.6670  0.9819 -0.0033
  564TIP3   OH223250   0.162   1.727   8.000  0.3266 -0.2087 -0.3795
  564TIP3    H123251   0.245   1.764   7.970 -0.0822  0.1415 -1.1150
  564TIP3    H223252   0.100   1.748   7.930 -0.8160  1.1878  0.9803
  565TIP3   OH223253   6.621   1.535   0.072 -0.1960  0.1246 -0.0218
  565TIP3    H123254   6.612   1.439   0.070  0.4314  0.0498  0.4317
  565TIP3    H223255   6.553   1.564   0.133 -1.0588  0.0615 -0.9345
  566TIP3   OH223256   1.962   3.877   7.753 -0.0484  0.5295 -0.5690
  566TIP3    H123257   1.887   3.933   7.735 -0.2374  0.0517 -1.3590
  566TIP3    H223258   1.927   3.788   7.746  0.9005  0.2499 -2.6468
  567TIP3   OH223259   4.138   5.891   1.035 -0.3497 -0.5620  0.4221
  567TIP3    H123260   4.103   5.806   1.063  0.7529 -0.7863  1.1809
  567TIP3    H223261   4.172   5.874   0.947 -4.3301  0.2811 -1.5504
  568TIP3   OH223262   0.677   1.734   0.661 -0.4518 -0.1168 -0.1730
  568TIP3    H123263   0.772   1.739   0.649 -0.0921 -2.0497  1.3859
  568TIP3    H223264   0.641   1.763   0.577  1.4551  1.6460 -0.4698
  569TIP3   OH223265   3.292   0.996   2.736 -0.1018  0.2964  0.1405
  569TIP3    H123266   3.201   0.988   2.708 -0.6545 -1.4273  2.2054
  569TIP3    H223267   3.287   1.024   2.827  1.4288 -0.0653  0.3616
  570TIP3   OH223268   5.200   4.592   8.285 -0.6217 -0.1642  0.4203
  570TIP3    H123269   5.269   4.526   8.293  1.6060  1.9373 -0.3729
  570TIP3    H223270   5.119   4.541   8.280  0.8358 -2.7542  1.2294
  571TIP3   OH223271   0.593   6.461   1.944 -0.7306 -0.5472 -0.4013
  571TIP3    H123272   0.569   6.510   1.865 -1.6954  0.9337  0.7608
  571TIP3    H223273   0.512   6.454   1.994  0.0382 -0.6864  0.8686
  572TIP3   OH223274   2.014   2.919   7.255  0.2096 -0.4722  0.3740
  572TIP3    H123275   1.925   2.895   7.280  0.1255  1.1021  1.8051
  572TIP3    H223276   2.067   2.844   7.280 -0.7039 -1.4094 -0.4575
  573TIP3   OH223277   6.807   6.814   7.543 -0.8375 -0.0125 -0.2933
  573TIP3    H123278   6.729   6.814   7.597 -0.2378  1.4098  0.6202
  573TIP3    H223279   6.819   6.722   7.518 -3.1003 -0.1806 -0.9537
  574TIP3   OH223280   3.120   0.531   8.612  0.3255 -0.1288 -0.5869
  574TIP3    H123281   3.074   0.467   8.557  1.0581  0.3276 -1.7696
  574TIP3    H223282   3.182   0.574   8.553 -0.0015  1.5512  0.2256
  575TIP3   OH223283   2.340   5.832   7.519  0.3423 -0.3134 -0.0114
  575TIP3    H123284   2.375   5.765   7.577  0.7834 -0.6298 -0.6222
  575TIP3    H223285   2.416   5.884   7.494  0.1679 -0.2135 -0.3426
  576TIP3   OH223286   3.657   3.221   1.294 -0.4338  0.0509 -0.3138
  576TIP3    H123287   3.604   3.231   1.373  0.4493 -0.5363  0.3821
  576TIP3    H223288   3.724   3.290   1.302  0.4780 -0.8568  0.1655
  577TIP3   OH223289   5.814   4.628   2.627  0.3477  0.4764  0.5085
  577TIP3    H123290   5.811   4.535   2.604 -1.0435  0.9367 -1.3996
  577TIP3    H223291   5.722   4.651   2.642  0.5609  1.7535 -0.0383
  578TIP3   OH223292   5.467   6.220   2.467  0.3438 -0.5277  0.0817
  578TIP3    H123293   5.555   6.183   2.462  0.3530 -0.6349  0.8060
  578TIP3    H223294   5.432   6.184   2.549 -0.8383 -1.4824 -0.8114
  579TIP3   OH223295   2.324   5.877   0.398 -0.5506 -0.4440  0.0567
  579TIP3    H123296   2.294   5.949   0.454 -2.4466 -1.3893  0.3391
  579TIP3    H223297   2.381   5.825   0.455 -1.4985 -0.7272  0.7734
  580TIP3   OH223298   4.709   2.710   2.760 -0.1032  0.7373  0.3732
  580TIP3    H123299   4.755   2.666   2.832 -2.6097 -0.0441  1.5902
  580TIP3    H223300   4.641   2.649   2.733  0.6463  1.0889 -2.6421
  581TIP3   OH223301   4.743   5.059   0.641  0.4370  0.1011  0.0254
  581TIP3    H123302   4.792   5.043   0.722 -0.0411  0.6377  0.4312
  581TIP3    H223303   4.674   5.121   0.667  0.6410  0.7390 -0.9232
  582TIP3   OH223304   5.480   5.915   0.641  0.0738 -0.4327 -0.3203
  582TIP3    H123305   5.404   5.904   0.585  1.2842 -1.0035 -1.9402
  582TIP3    H223306   5.495   5.828   0.679  1.3861 -1.0145 -2.0485
  583TIP3   OH223307   2.897   3.320   1.280  0.1471  0.3194  0.7120
  583TIP3    H123308   2.989   3.322   1.308  0.4847  1.9278 -0.3766
  583TIP3    H223309   2.895   3.375   1.201 -1.2262 -2.0304 -0.9929
  584TIP3   OH223310   1.608   1.806   1.297  0.5075  0.3253 -0.4477
  584TIP3    H123311   1.661   1.779   1.372  1.5143 -1.5762 -1.7491
  584TIP3    H223312   1.631   1.744   1.228 -4.8504 -2.0721 -0.5906
  585TIP3   OH223313   0.126   4.157   1.079 -0.2132  0.2000 -0.4669
  585TIP3    H123314   0.137   4.250   1.057  1.3337  0.3017  0.5688
  585TIP3    H223315   0.206   4.134   1.127 -0.7093 -1.5949 -0.4218
  586TIP3   OH223316   2.742   3.876   2.088 -0.3451 -0.1533 -0.2502
  586TIP3    H123317   2.697   3.876   2.003 -1.7523  1.6881  0.4171
  586TIP3    H223318   2.675   3.847   2.150 -1.1872  3.7463  0.9301
  587TIP3   OH223319   5.263   3.754   8.411 -0.1640 -0.3394 -0.0333
  587TIP3    H123320   5.352   3.772   8.441 -0.3317  0.8993 -0.2158
  587TIP3    H223321   5.269   3.755   8.316 -0.0879 -1.8627 -0.0665
  588TIP3   OH223322   6.009   1.008   0.555 -0.2885  0.1074 -0.3912
  588TIP3    H123323   6.075   0.998   0.485  0.3214 -1.2595  0.3531
  588TIP3    H223324   5.975   0.920   0.569 -1.1892  0.5552  0.3108
  589TIP3   OH223325   2.268   4.800   7.335  0.7019  0.0028  0.1704
  589TIP3    H123326   2.335   4.805   7.267  0.7309  0.9968  0.2702
  589TIP3    H223327   2.217   4.880   7.325  2.1370  1.3469  2.8124
  590TIP3   OH223328   6.586   2.970   0.957  0.0657  0.1696 -0.0003
  590TIP3    H123329   6.678   2.987   0.941  0.0506  0.1504 -0.1080
  590TIP3    H223330   6.582   2.941   1.048  0.0343  1.1927  0.3308
  591TIP3   OH223331   2.364   2.993   7.500 -0.0782  1.2862 -0.5357
  591TIP3    H123332   2.408   2.970   7.418 -0.4919  0.2445 -0.4792
  591TIP3    H223333   2.434   3.027   7.556  0.5922  0.1030 -0.6197
  592TIP3   OH223334   3.631   5.874   1.143  0.0096  0.1517  0.1229
  592TIP3    H123335   3.633   5.779   1.156  0.4997 -0.0432 -1.2135
  592TIP3    H223336   3.572   5.886   1.069 -3.2106  1.2558  2.5940
  593TIP3   OH223337   6.568   5.974   0.730  0.7134 -0.2362 -0.1021
  593TIP3    H123338   6.601   6.034   0.797  0.1071  0.3524 -0.3181
  593TIP3    H223339   6.479   6.004   0.713 -0.4031 -2.4748  1.3081
  594TIP3   OH223340   4.252   3.558   2.759 -0.2321  0.2351 -0.0339
  594TIP3    H123341   4.208   3.643   2.753  0.1350  0.5510  1.3700
  594TIP3    H223342   4.320   3.570   2.824 -0.0725 -1.1005  0.0866
  595TIP3   OH223343   5.689   4.506   7.500  0.0968 -0.1871 -0.3096
  595TIP3    H123344   5.704   4.507   7.406  0.7305 -0.8124 -0.2184
  595TIP3    H223345   5.646   4.422   7.516  0.6743 -0.4187  0.0563
  596TIP3   OH223346   1.053   0.646   8.392 -0.2451  0.0911 -0.1576
  596TIP3    H123347   1.071   0.553   8.380  1.5230  0.2868  0.5802
  596TIP3    H223348   1.124   0.677   8.449 -2.3947  1.3178  2.0478
  597TIP3   OH223349   6.340   3.267   0.941  0.0867  0.3239  0.6002
  597TIP3    H123350   6.342   3.181   0.983  1.8641  0.3913  0.7577
  597TIP3    H223351   6.264   3.265   0.883 -0.3535 -1.0518  1.1964
  598TIP3   OH223352   1.491   0.467   0.095  0.0178 -0.3019 -0.1603
  598TIP3    H123353   1.463   0.461   0.004 -0.2041 -0.4685 -0.0814
  598TIP3    H223354   1.420   0.428   0.145  0.3696 -0.6826  0.0457
  599TIP3   OH223355   4.835   0.091   3.209 -0.2060 -0.4224  0.2969
  599TIP3    H123356   4.793   0.082   3.124  2.2995 -2.5560 -0.8481
  599TIP3    H223357   4.928   0.077   3.191  1.0557  3.1656  2.7724
  600TIP3   OH223358   2.931   2.244   2.950 -0.2301 -0.0023 -0.7778
  600TIP3    H123359   2.930   2.308   3.021 -0.8627 -2.1863  1.3296
  600TIP3    H223360   3.021   2.241   2.920  0.1873  0.5299  0.3926
  601TIP3   OH223361   3.084   2.052   8.084  0.0673  0.1568 -0.4708
  601TIP3    H123362   3.082   2.043   7.989  0.6099 -0.0712 -0.4627
  601TIP3    H223363   3.015   2.115   8.104  0.0223  0.2813 -1.0236
  602TIP3   OH223364   5.643   6.563   8.009 -0.3857 -0.3967  0.5538
  602TIP3    H123365   5.675   6.473   8.019  0.0445 -0.3156 -0.0402
  602TIP3    H223366   5.616   6.589   8.097  0.5470 -0.7137  0.9477
  603TIP3   OH223367   1.919   6.318   7.662 -0.1383 -0.3644  0.1795
  603TIP3    H123368   1.904   6.377   7.736  1.0037 -0.0957  0.2069
  603TIP3    H223369   1.985   6.362   7.609  0.1082 -1.2214 -0.2479
  604TIP3   OH223370   1.709   3.064   1.476 -0.7813 -0.2891  0.5303
  604TIP3    H123371   1.657   3.044   1.554  0.9288 -4.9618  0.7956
  604TIP3    H223372   1.646   3.064   1.404 -1.9170  0.7029  1.4766
  605TIP3   OH223373   1.169   4.897   2.972  0.5227  0.3265 -0.4574
  605TIP3    H123374   1.233   4.923   3.038  0.6949  2.0644 -1.2209
  605TIP3    H223375   1.113   4.975   2.961 -0.9736 -0.7303 -0.6772
  606TIP3   OH223376   1.124   0.098   1.894 -0.2487  0.3808 -0.1160
  606TIP3    H123377   1.151   0.180   1.854 -0.3951  0.5684  0.1656
  606TIP3    H223378   1.066   0.057   1.830  0.5688  0.0432 -0.6670
  607TIP3   OH223379   6.344   0.561   8.542  0.0390  0.1213 -0.4049
  607TIP3    H123380   6.370   0.653   8.553  2.1636 -0.2102 -1.9645
  607TIP3    H223381   6.409   0.525   8.482 -1.6351 -2.0366 -1.0602
  608TIP3   OH223382   4.796   3.060   1.628  0.4210  0.4689  0.7575
  608TIP3    H123383   4.841   3.036   1.547  2.6479  0.6173  1.8557
  608TIP3    H223384   4.774   2.976   1.668 -1.3059  0.3922 -0.2644
  609TIP3   OH223385   5.530   3.780   1.730 -0.4737 -0.4268  0.2906
  609TIP3    H123386   5.491   3.767   1.817 -1.5278  0.8220  0.0379
  609TIP3    H223387   5.554   3.873   1.729  2.6426 -1.1196  0.4456
  610TIP3   OH223388   5.060   6.697   2.875  0.0852 -0.5555 -0.5368
  610TIP3    H123389   5.111   6.625   2.912 -1.1963 -0.6497  1.1907
  610TIP3    H223390   4.989   6.653   2.827 -0.5222 -0.4868  0.2653
  611TIP3   OH223391   3.828   0.429   2.908  0.3096 -0.0638  0.3709
  611TIP3    H123392   3.814   0.428   2.813  0.2407 -0.2568  0.3835
  611TIP3    H223393   3.907   0.377   2.921  0.5832  0.3460  0.3781
  612TIP3   OH223394   2.572   5.183   1.600 -0.1568  0.7095  0.0592
  612TIP3    H123395   2.541   5.095   1.618 -1.5934  1.2048  0.1424
  612TIP3    H223396   2.616   5.210   1.681  1.6984 -0.4643 -0.4951
  613TIP3   OH223397   4.245   0.114   8.493 -0.0360  0.0727  0.0416
  613TIP3    H123398   4.204   0.200   8.498 -0.3049 -0.0946  1.0251
  613TIP3    H223399   4.334   0.131   8.460 -0.7746  0.4642 -1.8780
  614TIP3   OH223400   3.613   0.647   3.072  0.0249  0.0898  0.1170
  614TIP3    H123401   3.632   0.741   3.077 -1.8852  0.5793 -0.8436
  614TIP3    H223402   3.534   0.642   3.018  0.4989 -2.1362 -0.4507
  615TIP3   OH223403   2.743   5.086   8.246  0.5143 -0.1303 -0.7208
  615TIP3    H123404   2.788   5.150   8.191 -1.7331  1.8547 -0.4303
  615TIP3    H223405   2.656   5.077   8.207 -0.4827 -0.1690  1.3381
  616TIP3   OH223406   2.237   2.687   8.436  0.3682  0.2349 -0.9083
  616TIP3    H123407   2.204   2.742   8.507  0.2284 -0.4459 -0.4341
  616TIP3    H223408   2.332   2.698   8.439  0.2654  1.8054 -1.9493
  617TIP3   OH223409   1.511   3.888   0.371 -0.1967  0.1760 -0.0828
  617TIP3    H123410   1.438   3.932   0.328 -0.1771  0.1727 -0.1203
  617TIP3    H223411   1.587   3.913   0.318 -0.4052 -1.2543 -1.1108
  618TIP3   OH223412   6.672   6.169   8.135  0.7076  0.4662 -1.0737
  618TIP3    H123413   6.697   6.091   8.087  2.0730  0.2314 -0.0248
  618TIP3    H223414   6.743   6.231   8.119  1.4142  0.2382  0.9284
  619TIP3   OH223415   4.726   1.058   0.220  0.3897 -0.4838  0.2965
  619TIP3    H123416   4.654   1.024   0.273  0.6850  0.1973  1.1600
  619TIP3    H223417   4.697   1.047   0.130  0.5667 -3.1983  0.5013
  620TIP3   OH223418   5.104   2.141   1.763 -0.2176 -0.0590  0.4043
  620TIP3    H123419   5.061   2.140   1.849  2.7293  1.7648  2.0902
  620TIP3    H223420   5.188   2.097   1.778  1.6362  2.8380 -0.6913
  621TIP3   OH223421   6.676   1.114   2.765  1.3396  0.5641  0.3207
  621TIP3    H123422   6.636   1.142   2.683 -1.0439 -0.4104  1.0803
  621TIP3    H223423   6.726   1.190   2.794  0.1782  1.8078 -0.7809
  622TIP3   OH223424   2.773   3.678   1.176  0.3744 -1.0542 -0.0619
  622TIP3    H123425   2.803   3.653   1.263  2.6112 -0.7903 -0.6892
  622TIP3    H223426   2.795   3.603   1.121  0.5124 -0.5755 -0.6712
  623TIP3   OH223427   5.710   0.353   2.321  0.1756  0.4738  0.1830
  623TIP3    H123428   5.655   0.284   2.284  1.0211 -1.0785  1.6907
  623TIP3    H223429   5.796   0.337   2.283  0.1900  1.2501 -0.1219
  624TIP3   OH223430   0.150   5.424   1.514 -0.5140 -0.3545  0.1505
  624TIP3    H123431   0.120   5.333   1.519 -0.7054 -0.2241  2.0034
  624TIP3    H223432   0.070   5.475   1.499 -0.2723 -0.5354 -2.0685
  625TIP3   OH223433   5.928   6.150   1.803  0.6895 -0.2788 -0.9857
  625TIP3    H123434   6.022   6.147   1.821  0.5279 -1.8046 -0.1911
  625TIP3    H223435   5.887   6.135   1.888 -0.2311 -0.9540 -1.5239
  626TIP3   OH223436   3.445   6.202   7.889 -0.2010 -0.0916  0.4177
  626TIP3    H123437   3.484   6.128   7.842 -0.7493  1.2541 -2.3739
  626TIP3    H223438   3.353   6.200   7.863 -0.4585  0.9639  1.1832
  627TIP3   OH223439   0.428   0.519   2.074 -0.0817  0.4731  0.3867
  627TIP3    H123440   0.503   0.489   2.126 -1.6099  0.4823  2.6933
  627TIP3    H223441   0.413   0.609   2.103  0.8983  1.6392 -2.3661
  628TIP3   OH223442   2.325   2.538   3.036  0.2510  0.1841  0.4663
  628TIP3    H123443   2.351   2.602   3.102  0.3681  0.4677  0.1427
  628TIP3    H223444   2.252   2.579   2.990  0.1101 -0.0527  0.4739
  629TIP3   OH223445   3.800   1.949   0.472 -0.1522 -0.4892 -0.2702
  629TIP3    H123446   3.892   1.974   0.466 -0.5549  0.7800 -1.6406
  629TIP3    H223447   3.755   2.009   0.412 -2.0530 -0.1737  1.3728
  630TIP3   OH223448   0.663   0.274   8.676  0.0797  0.0105 -0.5054
  630TIP3    H123449   0.676   0.310   8.588 -0.7626  0.7650 -0.3444
  630TIP3    H223450   0.642   0.351   8.730 -0.8937 -0.6180  0.0421
  631TIP3   OH223451   0.541   4.092   2.305  0.6007  0.1953  0.0677
  631TIP3    H123452   0.604   4.028   2.337  0.9016  1.2397  1.6414
  631TIP3    H223453   0.455   4.056   2.330  0.8088  0.7783  1.7451
  632TIP3   OH223454   6.433   5.502   0.401 -0.1300  0.3518 -0.5483
  632TIP3    H123455   6.464   5.592   0.396  0.8639  0.1436  1.0924
  632TIP3    H223456   6.345   5.508   0.439 -0.0708  0.6417 -0.4580
  633TIP3   OH223457   2.684   3.666   1.468  0.0739 -0.1288  0.0168
  633TIP3    H123458   2.705   3.594   1.528  0.1310 -2.7190 -2.8292
  633TIP3    H223459   2.631   3.726   1.520 -2.9679 -3.9107  1.8461
  634TIP3   OH223460   0.566   1.547   0.379  0.6460 -0.4290  0.8430
  634TIP3    H123461   0.556   1.642   0.383  1.3735 -0.3049  0.0161
  634TIP3    H223462   0.564   1.527   0.285 -0.2924 -1.3214  1.0475
  635TIP3   OH223463   0.156   0.177   8.243  0.3423  0.5466  0.2564
  635TIP3    H123464   0.139   0.126   8.164 -0.2273  2.8556 -1.2093
  635TIP3    H223465   0.244   0.150   8.270  0.1520 -1.0188 -0.5410
  636TIP3   OH223466   3.016   6.078   0.771 -0.1298 -0.0600 -0.3856
  636TIP3    H123467   3.003   6.112   0.859  1.8181  2.1682 -0.8718
  636TIP3    H223468   3.110   6.061   0.765 -0.2226 -0.1637 -2.0441
  637TIP3   OH223469   5.018   2.934   2.727  0.2211  0.0717  0.1642
  637TIP3    H123470   5.086   2.993   2.758  0.2671 -0.8361  1.9036
  637TIP3    H223471   4.936   2.974   2.755  0.1116  0.3833 -0.5732
  638TIP3   OH223472   4.082   5.249   0.779  0.1958  0.2803  0.5277
  638TIP3    H123473   4.085   5.251   0.683  0.3801 -2.2364  0.4190
  638TIP3    H223474   3.990   5.235   0.800  0.0657  1.3873  0.7831
  639TIP3   OH223475   0.431   0.193   1.497 -0.2492 -0.1648  0.0139
  639TIP3    H123476   0.376   0.196   1.419  0.5464 -0.9122 -0.6024
  639TIP3    H223477   0.454   0.101   1.507  0.4474  0.0544  0.5521
  640TIP3   OH223478   2.764   3.108   0.235  0.5135  0.5827  0.2867
  640TIP3    H123479   2.831   3.048   0.265  0.2382 -0.8391 -1.7419
  640TIP3    H223480   2.791   3.194   0.269  2.3577 -0.2389  1.0081
  641TIP3   OH223481   5.036   3.150   8.471  0.2922  0.6758  0.0005
  641TIP3    H123482   4.978   3.110   8.406  1.0126 -1.9370  0.8573
  641TIP3    H223483   5.105   3.191   8.420 -0.0831  0.1931 -0.9205
  642TIP3   OH223484   1.228   5.855   0.360  0.0758  0.0793  0.1137
  642TIP3    H123485   1.137   5.829   0.343 -0.1259 -0.3407  1.7043
  642TIP3    H223486   1.221   5.932   0.417  0.7178  0.3336 -0.1440
  643TIP3   OH223487   3.030   0.281   0.750  0.5637  0.3622 -0.7648
  643TIP3    H123488   3.071   0.358   0.711  0.1715  1.1737  0.3533
  643TIP3    H223489   3.009   0.308   0.840  1.7840 -1.5290  0.1667
  644TIP3   OH223490   3.708   3.287   0.395  0.0528  0.0496 -0.1766
  644TIP3    H123491   3.623   3.325   0.419 -0.1974  1.7116 -3.1666
  644TIP3    H223492   3.686   3.206   0.349  0.1028  0.2680 -0.5880
  645TIP3   OH223493   0.958   1.982   2.792 -0.2553  0.6088 -0.4090
  645TIP3    H123494   0.890   1.980   2.725  0.9601 -1.4890 -1.7162
  645TIP3    H223495   1.013   2.057   2.768  0.5274 -0.4823 -2.2372
  646TIP3   OH223496   0.001   2.702   2.563 -0.2430  1.0190 -0.1814
  646TIP3    H123497   0.014   2.756   2.641  0.6058  1.3348 -0.5237
  646TIP3    H223498   0.002   2.765   2.490 -2.7948  0.9486 -0.3601
  647TIP3   OH223499   0.842   0.264   2.556  0.0669 -0.1126 -0.2100
  647TIP3    H123500   0.790   0.252   2.636  0.9798  1.5643  0.7034
  647TIP3    H223501   0.850   0.359   2.547  2.4633 -0.2931 -0.6120
  648TIP3   OH223502   4.626   4.202   8.230  0.5669  0.1240 -0.2574
  648TIP3    H123503   4.607   4.281   8.179  0.6508 -0.8890 -1.9415
  648TIP3    H223504   4.572   4.210   8.308 -1.2475  0.7582 -1.5101
  649TIP3   OH223505   5.525   4.222   8.440 -0.2464 -0.1252  0.2941
  649TIP3    H123506   5.563   4.306   8.412  0.1929 -1.0159 -1.9701
  649TIP3    H223507   5.433   4.242   8.458 -0.1213  0.8627 -0.1069
  650TIP3   OH223508   0.239   3.995   1.311  0.0804 -0.1448  0.0202
  650TIP3    H123509   0.303   4.067   1.309  0.6993 -0.5893  1.7234
  650TIP3    H223510   0.259   3.943   1.233  1.1231  0.2966 -0.0298
  651TIP3   OH223511   3.781   2.550   0.825  0.0131  0.3648  0.4614
  651TIP3    H123512   3.733   2.557   0.742 -1.2677  0.1952  1.1616
  651TIP3    H223513   3.763   2.633   0.869 -1.8475 -0.7048  1.8479
  652TIP3   OH223514   5.685   3.865   8.340  0.2009  0.3061 -0.3752
  652TIP3    H123515   5.632   3.922   8.284 -0.1075 -0.7184 -1.1586
  652TIP3    H223516   5.689   3.782   8.293  0.8554 -0.2503  0.6190
  653TIP3   OH223517   2.273   2.484   0.472  0.2605  0.5075 -0.2251
  653TIP3    H123518   2.330   2.465   0.546 -1.4217 -0.8677  0.8068
  653TIP3    H223519   2.193   2.519   0.512 -0.5756 -0.0087 -1.3930
  654TIP3   OH223520   3.777   5.637   7.979 -0.1526 -0.2721 -0.2721
  654TIP3    H123521   3.765   5.577   7.905 -0.2292 -0.9290  0.2649
  654TIP3    H223522   3.862   5.678   7.963  0.8535 -2.0220  0.3841
  655TIP3   OH223523   1.254   5.463   7.491  0.3767 -0.0258 -0.0179
  655TIP3    H123524   1.260   5.413   7.411  0.2127 -0.2899  0.1334
  655TIP3    H223525   1.304   5.413   7.555  0.0026 -0.1341  0.1976
  656TIP3   OH223526   2.235   0.783   1.566  0.1717  0.8077 -0.5162
  656TIP3    H123527   2.242   0.791   1.661  1.1687 -0.2667 -0.4762
  656TIP3    H223528   2.276   0.863   1.532 -0.6896  1.4618 -0.0526
  657TIP3   OH223529   2.814   2.607   1.661  0.1648 -0.0772  0.4526
  657TIP3    H123530   2.843   2.518   1.685  1.7304  0.3290  0.1552
  657TIP3    H223531   2.776   2.642   1.742  1.9745 -0.0830  1.3657
  658TIP3   OH223532   2.248   2.265   8.572  0.2210  0.7166  0.3541
  658TIP3    H123533   2.294   2.287   8.652  0.4205  0.4250  0.3186
  658TIP3    H223534   2.189   2.194   8.596 -1.6945  2.3766  0.8885
  659TIP3   OH223535   3.126   2.808   7.510  0.0458 -0.1725 -0.1699
  659TIP3    H123536   3.053   2.746   7.515 -0.5734  0.6320  1.4227
  659TIP3    H223537   3.109   2.870   7.580  1.5710  0.8145 -0.6379
  660TIP3   OH223538   1.749   5.747   2.804  0.3253 -0.2473  0.0518
  660TIP3    H123539   1.822   5.745   2.741  0.2356 -0.6327 -0.0392
  660TIP3    H223540   1.717   5.657   2.806  1.2056 -0.5560  1.6921
  661TIP3   OH223541   4.547   0.736   1.599  1.1577  0.5854  0.2467
  661TIP3    H123542   4.566   0.659   1.652 -0.6202  0.5706  0.9211
  661TIP3    H223543   4.604   0.727   1.523  2.1856 -0.5146  1.1067
  662TIP3   OH223544   3.498   1.562   2.257  0.1870  0.0648 -0.0220
  662TIP3    H123545   3.500   1.520   2.343  0.0302 -0.7375 -0.4036
  662TIP3    H223546   3.410   1.600   2.250  0.4169  0.6963  0.4292
  663TIP3   OH223547   6.497   1.849   2.740 -0.2724  0.4124 -0.0171
  663TIP3    H123548   6.588   1.820   2.738 -0.3909 -0.0864  1.0573
  663TIP3    H223549   6.472   1.857   2.648  0.5352 -0.4910 -0.3267
  664TIP3   OH223550   6.598   3.969   7.787 -0.5141  0.4186 -0.5595
  664TIP3    H123551   6.675   4.026   7.786  0.9096 -1.3782  0.0011
  664TIP3    H223552   6.632   3.882   7.763 -2.6693 -0.1392 -1.9103
  665TIP3   OH223553   0.091   6.658   0.602 -0.3545  0.6897  0.0637
  665TIP3    H123554   0.080   6.585   0.540  2.6442 -0.6847  0.9463
  665TIP3    H223555   0.123   6.730   0.547  0.8190 -0.0477 -0.2674
  666TIP3   OH223556   3.122   4.320   0.183  0.2732  0.3016 -0.9454
  666TIP3    H123557   3.215   4.337   0.169  0.6907 -1.3665 -0.3943
  666TIP3    H223558   3.100   4.254   0.118 -0.0610 -0.6689  0.1329
  667TIP3   OH223559   1.791   2.593   2.468 -0.0018  0.1740 -0.3750
  667TIP3    H123560   1.714   2.539   2.448  0.0655  0.1378 -0.5347
  667TIP3    H223561   1.770   2.679   2.433 -0.6770  0.6223  1.0687
  668TIP3   OH223562   1.402   2.236   0.631 -0.1369 -0.1172  0.0097
  668TIP3    H123563   1.360   2.167   0.682  0.3183  0.7177  1.5588
  668TIP3    H223564   1.414   2.309   0.692  0.6495  0.8409 -1.2165
  669TIP3   OH223565   6.687   3.536   1.931 -0.0990  0.2613 -0.1481
  669TIP3    H123566   6.753   3.468   1.915  0.5819  0.8503  0.1234
  669TIP3    H223567   6.664   3.526   2.024 -0.0107  0.3917 -0.1122
  670TIP3   OH223568   4.390   3.323   2.196  0.0659 -0.8628  0.4246
  670TIP3    H123569   4.413   3.301   2.286 -0.7233 -1.9899  0.3756
  670TIP3    H223570   4.352   3.411   2.201  0.5596 -0.6815  1.0890
  671TIP3   OH223571   5.984   1.654   8.075 -0.4575 -0.0732  0.7756
  671TIP3    H123572   5.891   1.644   8.093 -1.0548  0.2948 -1.7642
  671TIP3    H223573   6.002   1.592   8.004  1.3271 -0.3600  1.4183
  672TIP3   OH223574   0.836   4.780   0.534  0.2324 -0.1455  0.5939
  672TIP3    H123575   0.901   4.757   0.468 -0.0230 -0.0010  0.2884
  672TIP3    H223576   0.785   4.700   0.546 -0.3136  0.0945 -0.0734
  673TIP3   OH223577   4.886   5.760   1.100  0.7182 -0.1603  0.4195
  673TIP3    H123578   4.814   5.737   1.160 -0.1890  0.1115 -0.5321
  673TIP3    H223579   4.845   5.817   1.034  2.1135  1.1703  0.6364
  674TIP3   OH223580   3.362   5.895   7.021 -0.0055 -0.1183 -0.2975
  674TIP3    H123581   3.375   5.871   7.113 -0.2461  0.0225 -0.2248
  674TIP3    H223582   3.380   5.815   6.972 -0.5579 -0.3860 -0.0764
  675TIP3   OH223583   4.962   6.255   2.331 -0.0551 -0.6025 -0.7996
  675TIP3    H123584   5.002   6.265   2.417 -1.4748 -3.8794  0.4228
  675TIP3    H223585   4.910   6.334   2.318  2.9211  1.5958 -0.3558
  676TIP3   OH223586   6.474   3.355   8.555  0.2555 -0.0899  0.4678
  676TIP3    H123587   6.424   3.427   8.516 -2.9226 -2.3104  0.1069
  676TIP3    H223588   6.551   3.346   8.498 -0.4914  1.4839 -0.8709
  677TIP3   OH223589   2.424   6.540   8.058  0.0342  0.0978 -0.2255
  677TIP3    H123590   2.455   6.600   7.991  0.5184 -0.2357 -0.3030
  677TIP3    H223591   2.503   6.507   8.100 -0.2774  0.9612  1.0998
  678TIP3   OH223592   2.548   3.476   7.221 -0.1173  0.6014 -0.5138
  678TIP3    H123593   2.564   3.549   7.161 -1.8380  1.5686  0.1372
  678TIP3    H223594   2.509   3.409   7.165  0.4662  0.5758 -0.9054
  679TIP3   OH223595   2.711   2.682   1.904 -0.4942 -0.6195 -0.2069
  679TIP3    H123596   2.642   2.658   1.967 -1.2886 -0.9348 -1.1660
  679TIP3    H223597   2.708   2.778   1.902 -0.6347 -0.6158  0.0495
  680TIP3   OH223598   2.724   1.511   0.144  0.8454 -0.3058 -0.2721
  680TIP3    H123599   2.790   1.565   0.188 -0.3207  1.8319 -0.9846
  680TIP3    H223600   2.755   1.504   0.054 -0.1399  1.2952 -0.7893
  681TIP3   OH223601   3.537   0.819   0.171 -0.2736 -0.3530  1.1335
  681TIP3    H123602   3.575   0.734   0.192  4.6993  1.7221  1.9080
  681TIP3    H223603   3.533   0.821   0.076 -2.7556 -2.1464  1.1002
  682TIP3   OH223604   1.287   1.392   0.987  0.4197 -0.4471 -0.0297
  682TIP3    H123605   1.242   1.444   1.053  1.3852 -0.6195  0.7873
  682TIP3    H223606   1.220   1.374   0.921 -1.0899 -1.7920  1.7637
  683TIP3   OH223607   6.004   5.071   1.471 -0.3235 -0.3964 -0.0370
  683TIP3    H123608   6.041   5.004   1.528  2.2825  1.4446  0.5944
  683TIP3    H223609   6.028   5.044   1.382  1.6602  0.1455  0.2838
  684TIP3   OH223610   0.963   4.737   2.649 -0.4012  0.6314  0.1088
  684TIP3    H123611   0.933   4.820   2.686 -0.3442  1.2234 -1.1213
  684TIP3    H223612   0.986   4.758   2.559 -1.0647 -0.8812 -0.4444
  685TIP3   OH223613   4.193   4.471   3.082  0.0565 -0.4324  0.6214
  685TIP3    H123614   4.149   4.422   3.152  0.2955 -1.1546  0.2638
  685TIP3    H223615   4.199   4.410   3.009  1.4099 -0.2604  0.5639
  686TIP3   OH223616   5.822   0.193   1.399  0.0290 -0.7916  0.0360
  686TIP3    H123617   5.780   0.279   1.395  1.3884 -0.0717  0.4724
  686TIP3    H223618   5.915   0.211   1.385  0.3168 -2.2246 -0.0698
  687TIP3   OH223619   3.928   4.193   2.285 -0.1580 -1.4658 -0.0696
  687TIP3    H123620   3.977   4.191   2.367 -1.2917 -0.9680  0.6444
  687TIP3    H223621   3.838   4.172   2.310 -0.9372  0.6396 -0.8384
  688TIP3   OH223622   3.980   5.783   1.469 -0.4106 -0.3788 -0.2211
  688TIP3    H123623   3.886   5.768   1.473 -0.6624  1.1853  0.9174
  688TIP3    H223624   3.992   5.844   1.396  0.1676 -2.9482 -2.4494
  689TIP3   OH223625   0.522   3.674   1.630  0.3273 -0.4023  0.0609
  689TIP3    H123626   0.551   3.584   1.616  1.2627 -0.0402 -0.3779
  689TIP3    H223627   0.445   3.683   1.573  0.3432 -0.8699 -0.0398
  690TIP3   OH223628   4.447   5.375   2.700  0.1770  0.5233  0.9972
  690TIP3    H123629   4.447   5.282   2.721  1.5411  0.3434  0.3191
  690TIP3    H223630   4.355   5.397   2.684 -0.0530 -0.9282  0.1987
  691TIP3   OH223631   3.704   0.327   0.402  0.1409  0.5948 -0.4558
  691TIP3    H123632   3.656   0.327   0.319 -0.4568 -0.5421 -0.1286
  691TIP3    H223633   3.715   0.234   0.423 -1.1818  0.8525  1.5751
  692TIP3   OH223634   0.673   5.807   0.974 -0.4195  0.0670  0.4813
  692TIP3    H123635   0.647   5.837   1.061 -0.4652  1.5830 -0.0257
  692TIP3    H223636   0.594   5.818   0.921 -0.1763 -0.1243  0.0764
  693TIP3   OH223637   0.438   6.260   1.828 -0.1533 -0.2242  0.5819
  693TIP3    H123638   0.468   6.172   1.849  0.8268  0.2170  1.0738
  693TIP3    H223639   0.348   6.248   1.796  0.0861 -1.4253  0.3339
  694TIP3   OH223640   1.242   4.522   1.132 -0.7287  0.3489  0.3090
  694TIP3    H123641   1.293   4.532   1.051 -1.1992 -3.7130 -0.6891
  694TIP3    H223642   1.307   4.496   1.198 -0.7186  1.0895  0.6006
  695TIP3   OH223643   4.214   6.704   8.573 -0.1777 -0.0522 -0.6035
  695TIP3    H123644   4.283   6.657   8.525 -0.3273 -1.3729  0.4190
  695TIP3    H223645   4.209   6.789   8.530  0.1925 -0.9150 -2.4743
  696TIP3   OH223646   4.783   5.146   8.368  0.1104 -0.5180 -0.1032
  696TIP3    H123647   4.718   5.155   8.299  2.9526  0.6362 -2.8890
  696TIP3    H223648   4.833   5.068   8.344 -0.5044 -1.7897  2.3599
  697TIP3   OH223649   2.067   2.777   0.332  0.2362  0.8417  0.3745
  697TIP3    H123650   1.991   2.836   0.330 -0.6140 -0.2350  0.4680
  697TIP3    H223651   2.037   2.700   0.379  1.1620  0.0703 -0.2674
  698TIP3   OH223652   1.246   3.447   0.342 -0.2733 -0.2072 -0.1103
  698TIP3    H123653   1.317   3.414   0.397  1.1423  1.8359 -0.6249
  698TIP3    H223654   1.196   3.369   0.318  1.6341 -1.6771  0.4738
  699TIP3   OH223655   4.564   1.665   0.018 -0.8862  0.1225  0.0787
  699TIP3    H123656   4.526   1.603   0.081  2.1092  0.7487  2.7824
  699TIP3    H223657   4.518   1.748   0.035  0.3220  0.4505  2.0651
  700TIP3   OH223658   4.928   3.159   2.245 -0.5307 -0.1140  0.2401
  700TIP3    H123659   4.901   3.245   2.212  1.4711  0.6489  0.4591
  700TIP3    H223660   4.939   3.171   2.339  0.9452 -0.2548  0.1043
  701TIP3   OH223661   1.894   1.521   3.442  0.1670  0.2902  0.2560
  701TIP3    H123662   1.952   1.453   3.476 -0.6055 -0.0120  1.0182
  701TIP3    H223663   1.910   1.522   3.348 -1.4539 -2.5508 -0.1472
  702TIP3   OH223664   1.959   2.042   7.882  0.3808  0.0676 -0.6080
  702TIP3    H123665   2.040   2.092   7.874  1.0237 -0.6322  1.0113
  702TIP3    H223666   1.900   2.098   7.933 -0.4345  0.8273 -2.2848
  703TIP3   OH223667   3.931   2.071   1.057 -0.3971 -0.4239 -0.0314
  703TIP3    H123668   3.867   2.135   1.027 -2.0929 -2.5460 -1.1860
  703TIP3    H223669   3.883   2.018   1.121  0.7698 -0.9681  0.4225
  704TIP3   OH223670   5.378   6.824   2.230 -0.2696  0.0286 -0.3000
  704TIP3    H123671   5.353   6.750   2.174  1.8573 -1.0186  0.0097
  704TIP3    H223672   5.468   6.844   2.203  0.3582  0.3224  1.8666
  705TIP3   OH223673   6.361   2.320   3.165 -0.4571 -0.0869  0.2830
  705TIP3    H123674   6.379   2.403   3.207 -0.2301  0.6730 -1.2420
  705TIP3    H223675   6.267   2.320   3.150 -0.1454  1.2004 -2.1958
  706TIP3   OH223676   1.937   5.098   2.243  0.0597  0.1031  0.0478
  706TIP3    H123677   1.988   5.050   2.177 -0.8927 -2.0673  0.8232
  706TIP3    H223678   2.000   5.116   2.313  0.3479 -0.3503 -0.0863
  707TIP3   OH223679   6.683   4.843   8.426  0.4794  0.1458 -0.2304
  707TIP3    H123680   6.591   4.851   8.452 -0.8500 -1.7372 -3.6344
  707TIP3    H223681   6.722   4.786   8.493 -0.8738  0.7877  1.1523
  708TIP3   OH223682   3.647   2.094   6.788 -0.2677  0.0729  0.7779
  708TIP3    H123683   3.666   2.157   6.858  1.1246  1.3231 -0.6317
  708TIP3    H223684   3.609   2.148   6.718  1.0829 -0.5972 -0.5183
  709TIP3   OH223685   5.679   2.704   0.724 -0.4586  0.4357 -0.1431
  709TIP3    H123686   5.712   2.776   0.778  0.7563  1.0784 -1.6885
  709TIP3    H223687   5.679   2.738   0.635 -2.8275 -0.4761 -0.5398
  710TIP3   OH223688   5.825   5.119   8.268 -0.0541  0.0431 -0.1982
  710TIP3    H123689   5.792   5.166   8.192 -2.4445 -0.0032  0.7352
  710TIP3    H223690   5.917   5.146   8.274 -0.3682  1.7053 -1.8273
  711TIP3   OH223691   5.275   5.547   8.592 -0.4588  0.3731 -0.1206
  711TIP3    H123692   5.239   5.478   8.649 -1.7918  1.0007 -0.1764
  711TIP3    H223693   5.339   5.501   8.538  0.1826 -0.4200  1.2400
  712TIP3   OH223694   6.525   0.247   1.894  0.0435 -0.5817 -0.5827
  712TIP3    H123695   6.521   0.233   1.800  1.6196  1.7666 -1.0860
  712TIP3    H223696   6.587   0.180   1.926  1.2974  0.0446 -1.6092
  713TIP3   OH223697   0.118   5.122   2.368  0.1288 -0.8249 -0.2829
  713TIP3    H123698   0.064   5.060   2.416  0.0367 -0.1190  0.5601
  713TIP3    H223699   0.089   5.208   2.398  2.4135 -0.4187  1.0059
  714TIP3   OH223700   4.243   0.578   0.338 -0.4989  0.3797 -0.6008
  714TIP3    H123701   4.274   0.532   0.260 -1.5109 -1.5932  0.0750
  714TIP3    H223702   4.176   0.519   0.374  0.7665  0.6291  2.4107
  715TIP3   OH223703   0.908   2.568   2.840 -0.1019 -0.3189  0.1057
  715TIP3    H123704   0.917   2.492   2.898  1.2117 -0.9474 -0.8573
  715TIP3    H223705   0.900   2.531   2.753 -0.3627  0.6430 -0.2919
  716TIP3   OH223706   5.315   3.597   1.536 -0.2435  0.0262 -0.5679
  716TIP3    H123707   5.268   3.607   1.453 -1.2630  0.2777  0.0136
  716TIP3    H223708   5.367   3.676   1.544 -0.1139 -0.0142 -0.9792
  717TIP3   OH223709   1.857   2.864   0.647  0.0363 -0.6038  0.0407
  717TIP3    H123710   1.852   2.876   0.552 -1.1267  0.6507  0.2180
  717TIP3    H223711   1.920   2.794   0.659 -1.0125 -1.9467 -1.7477
  718TIP3   OH223712   5.142   2.120   8.610 -0.4784  0.2254 -0.6312
  718TIP3    H123713   5.138   2.184   8.681  1.8125  1.7082 -1.7195
  718TIP3    H223714   5.216   2.149   8.556  0.1150 -2.8643 -1.6717
  719TIP3   OH223715   3.813   6.706   0.859 -0.0628 -0.3539 -0.0144
  719TIP3    H123716   3.844   6.635   0.916 -3.2288 -1.9120 -0.0205
  719TIP3    H223717   3.784   6.774   0.920 -0.8325 -0.8357  0.1732
  720TIP3   OH223718   4.761   2.282   1.978  0.4320  0.5892  0.5373
  720TIP3    H123719   4.750   2.250   1.889  0.3904  1.3141  0.2716
  720TIP3    H223720   4.836   2.233   2.012  2.3698  2.3518 -0.9269
  721TIP3   OH223721   2.559   5.799   1.489 -0.1525 -0.1089  0.1777
  721TIP3    H123722   2.583   5.876   1.541 -0.9766  0.7025 -0.6144
  721TIP3    H223723   2.627   5.794   1.422 -0.2624  0.1249  0.0448
  722TIP3   OH223724   2.538   1.409   3.041 -0.5518 -0.3167 -0.0758
  722TIP3    H123725   2.548   1.415   3.136 -2.3243 -1.3225  0.2128
  722TIP3    H223726   2.447   1.434   3.025 -0.2668 -0.1306 -1.5320
  723TIP3   OH223727   5.270   1.442   2.209 -0.3198 -0.4298 -0.4234
  723TIP3    H123728   5.249   1.384   2.283 -0.4861 -1.6896 -1.4155
  723TIP3    H223729   5.340   1.498   2.242  0.0434 -1.3848  0.4951
  724TIP3   OH223730   2.828   6.117   2.314 -0.0492 -0.1960  0.1310
  724TIP3    H123731   2.783   6.183   2.367 -0.2384 -1.4238  1.5725
  724TIP3    H223732   2.761   6.049   2.299  1.2049 -2.0481  2.2937
  725TIP3   OH223733   4.802   0.092   1.111  0.2496  0.3726 -0.0500
  725TIP3    H123734   4.840   0.006   1.127  0.8977  0.4456 -1.0971
  725TIP3    H223735   4.709   0.082   1.134  0.8362  0.1788  2.5033
  726TIP3   OH223736   0.572   0.527   0.444  0.4281  0.0408  1.0294
  726TIP3    H123737   0.522   0.492   0.370  1.1496 -0.8441  0.9360
  726TIP3    H223738   0.591   0.450   0.498 -0.1961  0.6915  2.2062
  727TIP3   OH223739   6.091   3.224   0.728 -0.0761 -0.3917  0.1460
  727TIP3    H123740   6.004   3.204   0.762  0.2707 -1.1850  0.5815
  727TIP3    H223741   6.076   3.245   0.636 -0.5327 -2.3005 -0.2567
  728TIP3   OH223742   5.800   1.343   2.769  0.2048  0.6675 -0.2476
  728TIP3    H123743   5.788   1.310   2.858 -1.4059 -1.5698 -1.2248
  728TIP3    H223744   5.712   1.363   2.738  0.6361  0.4844 -1.6662
  729TIP3   OH223745   5.049   6.835   8.552  0.1430 -0.3994  0.4451
  729TIP3    H123746   4.958   6.859   8.538  0.0282 -1.6005 -1.1835
  729TIP3    H223747   5.062   6.843   8.646 -1.4278  0.4803  0.6169
  730TIP3   OH223748   4.931   6.676   0.232  0.3319 -0.6795  0.3387
  730TIP3    H123749   4.847   6.682   0.278  0.3716  4.8616  0.4354
  730TIP3    H223750   4.994   6.712   0.294  2.0408 -1.1791 -1.0514
  731TIP3   OH223751   6.399   4.302   0.869 -0.2107  0.1506  0.2761
  731TIP3    H123752   6.439   4.232   0.818 -0.4430 -0.6362  1.1362
  731TIP3    H223753   6.460   4.318   0.941  0.6536  2.0168 -0.7940
  732TIP3   OH223754   0.137   4.872   8.683 -0.3663 -0.0854 -0.1053
  732TIP3    H123755   0.193   4.947   8.664 -1.6222  1.5782  2.2451
  732TIP3    H223756   0.161   4.806   8.618  1.0269  2.2152 -2.0456
  733TIP3   OH223757   5.356   1.308   1.482  0.3069 -0.3278 -0.7183
  733TIP3    H123758   5.333   1.392   1.523 -0.3779 -1.3795  1.1671
  733TIP3    H223759   5.308   1.308   1.398 -1.3499  0.3183  0.1843
  734TIP3   OH223760   2.108   3.115   8.099  0.0670  0.0927 -1.1169
  734TIP3    H123761   2.178   3.086   8.158 -1.0571 -0.8153 -0.1735
  734TIP3    H223762   2.118   3.059   8.022  1.7026  1.4553 -1.9687
  735TIP3   OH223763   4.637   5.388   7.954 -0.2416 -0.7964  0.5056
  735TIP3    H123764   4.608   5.466   7.907 -2.0875 -1.9992 -0.4721
  735TIP3    H223765   4.646   5.321   7.886  0.5994 -1.6339  1.4139
  736TIP3   OH223766   0.617   2.090   2.446  0.2133  0.2544 -0.2446
  736TIP3    H123767   0.528   2.097   2.412  0.1069  0.7176  0.1224
  736TIP3    H223768   0.625   2.163   2.507  0.6731 -0.0936  0.1139
  737TIP3   OH223769   4.464   4.378   8.111  0.0411  0.0071  0.2583
  737TIP3    H123770   4.405   4.337   8.048 -0.3466 -0.3277  0.8247
  737TIP3    H223771   4.498   4.455   8.066  1.6596 -1.4901 -1.2657
  738TIP3   OH223772   1.091   6.456   2.896 -0.0147 -0.0418  0.0414
  738TIP3    H123773   1.175   6.449   2.942  0.0675  0.1254 -0.0819
  738TIP3    H223774   1.031   6.401   2.947  0.2440 -0.4103 -0.0474
  739TIP3   OH223775   6.808   4.261   2.134  0.2926 -0.3101 -0.2686
  739TIP3    H123776   6.757   4.340   2.153 -0.9190 -0.6089 -2.0296
  739TIP3    H223777   6.892   4.293   2.102 -0.3741  0.3117 -1.4651
  740TIP3   OH223778   2.405   6.089   1.259 -0.4993  0.6533 -0.2653
  740TIP3    H123779   2.324   6.065   1.305  0.4717  0.2462  1.2995
  740TIP3    H223780   2.436   6.007   1.220  0.9346  0.0223  2.0584
  741TIP3   OH223781   4.955   1.813   1.646 -0.3610 -0.3461  0.4980
  741TIP3    H123782   4.909   1.731   1.665  1.0517 -2.0418 -2.6501
  741TIP3    H223783   4.890   1.869   1.605 -0.7918 -0.8088  0.5458
  742TIP3   OH223784   1.562   5.356   1.936  0.0579 -0.1522  0.6169
  742TIP3    H123785   1.539   5.272   1.975 -2.0308  0.4553  0.8659
  742TIP3    H223786   1.646   5.380   1.975  0.2874 -1.7271  1.1386
  743TIP3   OH223787   0.904   6.145   1.269  0.4591 -0.1265 -0.3647
  743TIP3    H123788   0.984   6.120   1.223  1.8430 -1.6457  2.6155
  743TIP3    H223789   0.932   6.163   1.359 -2.0936  2.5685  0.0552
  744TIP3   OH223790   4.643   2.736   0.187  0.2563  0.5849 -0.1948
  744TIP3    H123791   4.663   2.669   0.253  0.8284  2.6435  1.8976
  744TIP3    H223792   4.727   2.751   0.143  1.0879  2.2498  1.7506
  745TIP3   OH223793   5.194   2.259   0.956 -0.0855 -0.5224  0.2082
  745TIP3    H123794   5.257   2.322   0.994 -0.6416 -0.1329  0.4963
  745TIP3    H223795   5.140   2.232   1.030 -1.0507  0.0825 -0.2623
  746TIP3   OH223796   5.928   0.637   0.627 -0.1253  0.5664  0.0268
  746TIP3    H123797   5.996   0.597   0.682 -1.0382  0.5178  1.1687
  746TIP3    H223798   5.867   0.567   0.609 -0.0146  0.6714 -0.7887
  747TIP3   OH223799   6.100   4.535   2.107  0.2501 -0.4401  0.7569
  747TIP3    H123800   6.119   4.463   2.048 -0.0125 -0.6057  0.8716
  747TIP3    H223801   6.055   4.494   2.181  1.4412 -0.3899  1.5445
  748TIP3   OH223802   6.568   6.032   7.859  0.1925  0.1066  0.1095
  748TIP3    H123803   6.492   6.045   7.916  0.7719  1.8537  0.5509
  748TIP3    H223804   6.624   5.970   7.905 -0.6025 -0.6144  0.1276
  749TIP3   OH223805   5.327   4.544   0.803 -0.0422  0.3014 -0.1811
  749TIP3    H123806   5.300   4.629   0.840 -0.2408  0.1561  0.0112
  749TIP3    H223807   5.364   4.566   0.717 -1.4902  0.4512 -0.8106
  750TIP3   OH223808   0.749   5.379   0.081  0.8056  0.1499  0.0861
  750TIP3    H123809   0.770   5.393   0.173  1.4780  0.5899 -0.1288
  750TIP3    H223810   0.785   5.455   0.036 -0.3060  0.3915 -0.4391
  751TIP3   OH223811   6.514   3.617   2.960  0.0678  0.2942 -0.2903
  751TIP3    H123812   6.495   3.645   3.049  0.3212 -0.0364 -0.1303
  751TIP3    H223813   6.531   3.698   2.912  2.8165  0.3514  0.6153
  752TIP3   OH223814   1.683   2.381   1.052 -0.0592  0.1044  0.1656
  752TIP3    H123815   1.604   2.434   1.055  1.7646  2.9634  1.7150
  752TIP3    H223816   1.672   2.318   1.124 -0.4457  1.2474  1.1278
  753TIP3   OH223817   3.267   1.462   0.789 -0.5825 -0.4118  0.1905
  753TIP3    H123818   3.228   1.385   0.832 -0.9098  0.1823  0.9702
  753TIP3    H223819   3.345   1.482   0.842  0.7623 -1.4990 -1.2638
  754TIP3   OH223820   4.790   1.260   1.712 -0.1067 -0.1854  0.0709
  754TIP3    H123821   4.801   1.185   1.655 -1.1914  0.2842 -0.7916
  754TIP3    H223822   4.870   1.311   1.701 -0.4556  0.0956 -1.3549
  755TIP3   OH223823   0.872   4.716   0.040 -0.1741  0.0818  0.1046
  755TIP3    H123824   0.822   4.777   0.094 -0.5226 -0.6044  0.5766
  755TIP3    H223825   0.958   4.757   0.031 -0.1637  0.2939  1.0424
  756TIP3   OH223826   5.170   5.430   0.061 -0.2567 -0.5634 -0.4989
  756TIP3    H123827   5.201   5.372   0.131 -0.7070  1.2995  1.3483
  756TIP3    H223828   5.076   5.415   0.058 -0.1916 -0.8929 -0.9711
  757TIP3   OH223829   0.435   2.991   3.010  0.5324  0.2708  0.0683
  757TIP3    H123830   0.350   2.984   3.054  1.3094 -0.2698  1.5480
  757TIP3    H223831   0.423   3.061   2.946 -1.5109 -0.8827 -0.9470
  758TIP3   OH223832   2.022   6.614   2.665 -0.4681  0.2908  0.3407
  758TIP3    H123833   1.931   6.645   2.662 -1.4661 -1.9789  2.9264
  758TIP3    H223834   2.025   6.541   2.604 -1.0751 -1.0236  1.8108
  759TIP3   OH223835   0.964   6.629   7.639  0.4258  0.0611  0.1442
  759TIP3    H123836   0.906   6.691   7.683  3.5087  1.2281  2.9828
  759TIP3    H223837   0.988   6.674   7.557 -1.8523 -0.0862 -0.6772
  760TIP3   OH223838   3.746   5.061   7.544 -0.0361  0.8944 -0.3582
  760TIP3    H123839   3.787   5.041   7.460  0.0069 -2.0869  0.2371
  760TIP3    H223840   3.660   5.097   7.522 -0.5307 -0.9916 -1.7681
  761TIP3   OH223841   3.293   0.285   7.687 -0.7879 -0.5234 -0.1019
  761TIP3    H123842   3.379   0.325   7.671 -0.7688 -0.9355 -1.1488
  761TIP3    H223843   3.279   0.229   7.610 -2.6496  0.6712 -0.7003
  762TIP3   OH223844   3.765   5.196   2.388 -0.0810 -0.6145  0.0504
  762TIP3    H123845   3.704   5.258   2.428 -0.6253 -0.9675 -0.2209
  762TIP3    H223846   3.851   5.220   2.424 -0.2774  0.3091 -0.0743
  763TIP3   OH223847   2.641   3.964   8.179 -0.1533  0.6205 -0.1971
  763TIP3    H123848   2.594   3.881   8.174 -1.9231  1.6276 -3.1819
  763TIP3    H223849   2.661   3.975   8.272 -2.9061 -1.5397  0.7988
  764TIP3   OH223850   3.283   6.593   3.219  0.1207  0.1076  0.6454
  764TIP3    H123851   3.264   6.571   3.127  0.4941  0.0276  0.5869
  764TIP3    H223852   3.197   6.594   3.261 -0.1298  0.8967  0.1344
  765TIP3   OH223853   5.293   0.820   0.164 -0.6694 -0.3574  0.1467
  765TIP3    H123854   5.362   0.817   0.230  0.8945  2.0533 -1.2204
  765TIP3    H223855   5.214   0.844   0.213  0.4525  1.3417  1.2164
  766TIP3   OH223856   6.659   6.291   1.825 -0.3011  0.0722  0.7993
  766TIP3    H123857   6.754   6.292   1.811 -0.2579 -0.5303  1.0108
  766TIP3    H223858   6.647   6.339   1.907 -0.0294 -1.0565  1.5318
  767TIP3   OH223859   4.880   1.382   0.945 -0.4279 -0.3681  0.0443
  767TIP3    H123860   4.956   1.440   0.954 -0.8074  0.3025 -0.9192
  767TIP3    H223861   4.876   1.362   0.851  0.5358 -3.1394  0.5041
  768TIP3   OH223862   2.590   5.699   8.574  0.3223 -0.6654 -0.0820
  768TIP3    H123863   2.630   5.750   8.503  0.7998 -0.0748  0.5996
  768TIP3    H223864   2.504   5.674   8.540  0.5533 -0.4048 -0.8772
  769TIP3   OH223865   2.486   5.338   8.526 -0.0649 -0.5231 -0.9988
  769TIP3    H123866   2.498   5.426   8.490 -0.0957 -0.0389  0.1493
  769TIP3    H223867   2.571   5.295   8.512  0.0139 -0.2448 -1.3853
  770TIP3   OH223868   6.521   4.026   1.185 -0.7035  0.4858  0.2728
  770TIP3    H123869   6.466   3.948   1.198 -1.7441  1.1104 -0.2624
  770TIP3    H223870   6.536   4.060   1.273  0.8559 -1.0243  0.6467
  771TIP3   OH223871   5.016   6.174   8.626 -0.1167  0.6981  0.4160
  771TIP3    H123872   5.081   6.242   8.610  1.6034 -0.8452  0.4815
  771TIP3    H223873   5.046   6.099   8.574 -0.5241 -0.8176  2.2343
  772TIP3   OH223874   3.852   5.795   1.894  0.4203 -0.1901  0.0573
  772TIP3    H123875   3.888   5.802   1.982 -0.1081 -0.5338  0.3083
  772TIP3    H223876   3.926   5.766   1.840  0.5089 -0.9764  0.5788
  773TIP3   OH223877   4.816   0.709   0.838 -0.4454 -0.8136  0.0121
  773TIP3    H123878   4.857   0.705   0.752 -0.7239  1.0233 -0.2447
  773TIP3    H223879   4.723   0.725   0.819 -0.3573  0.5760  0.6378
  774TIP3   OH223880   4.204   0.737   0.708 -0.0649  0.2709  0.1521
  774TIP3    H123881   4.117   0.698   0.704  0.1272 -0.0420 -1.9289
  774TIP3    H223882   4.222   0.746   0.802 -2.0706 -0.2103  0.6251
  775TIP3   OH223883   5.142   3.922   0.864 -0.4769  0.1841 -0.6168
  775TIP3    H123884   5.068   3.983   0.868  0.8287  2.0614 -2.6186
  775TIP3    H223885   5.120   3.853   0.927 -2.7418  1.9398  0.6767
  776TIP3   OH223886   2.005   5.848   2.200 -0.2548  0.2115 -0.1475
  776TIP3    H123887   1.952   5.892   2.266 -3.6313  0.1041 -2.5521
  776TIP3    H223888   1.988   5.754   2.215 -0.3799  0.1534 -0.6348
  777TIP3   OH223889   1.363   1.198   0.473 -0.0165  0.4722  0.5196
  777TIP3    H123890   1.457   1.185   0.471 -0.2093 -1.2301  0.7450
  777TIP3    H223891   1.335   1.154   0.554 -1.3948 -2.4200 -1.3678
  778TIP3   OH223892   5.451   5.733   2.215 -0.2809  0.3698 -0.2990
  778TIP3    H123893   5.439   5.812   2.268  0.6288  0.8875 -0.8393
  778TIP3    H223894   5.366   5.688   2.219 -0.0657  0.0790  2.0580
  779TIP3   OH223895   5.123   4.567   7.097 -0.0197 -0.2657  0.2432
  779TIP3    H123896   5.104   4.483   7.137 -0.0669 -0.5440 -0.3522
  779TIP3    H223897   5.064   4.628   7.141  0.5943 -0.3759  1.2653
  780TIP3   OH223898   3.792   0.334   2.371 -0.1102  0.2064  0.3359
  780TIP3    H123899   3.846   0.255   2.369  1.9125  1.4852 -2.0109
  780TIP3    H223900   3.725   0.318   2.304  1.6400  1.2219 -1.7685
  781TIP3   OH223901   5.578   2.283   1.748  0.1401 -0.2107  0.1419
  781TIP3    H123902   5.612   2.362   1.791 -1.7360  2.0721 -2.1765
  781TIP3    H223903   5.649   2.220   1.755  1.9274  1.7933  1.7904
  782TIP3   OH223904   6.261   5.618   2.371 -0.0954  0.2607  0.2861
  782TIP3    H123905   6.284   5.694   2.425  1.8489 -0.7434  0.9806
  782TIP3    H223906   6.238   5.655   2.286  3.6919  1.6053 -0.3675
  783TIP3   OH223907   3.850   2.685   8.583  0.0583 -0.2387  0.6013
  783TIP3    H123908   3.944   2.692   8.595  0.3595 -2.9706  0.4878
  783TIP3    H223909   3.817   2.659   8.669 -0.6610  0.9485  0.7079
  784TIP3   OH223910   2.887   1.599   0.352 -0.1964  0.1156  0.8009
  784TIP3    H123911   2.945   1.568   0.282 -0.0839  2.6647 -0.3497
  784TIP3    H223912   2.900   1.536   0.423  1.8345 -0.9965 -0.4398
  785TIP3   OH223913   3.932   0.788   1.261 -0.7780 -1.0475  0.5583
  785TIP3    H123914   4.000   0.753   1.319  0.8624  0.3929 -0.4093
  785TIP3    H223915   3.958   0.760   1.174  0.0891  1.5998 -0.1459
  786TIP3   OH223916   6.528   1.837   0.828 -0.4017 -0.2689  0.6649
  786TIP3    H123917   6.612   1.864   0.866  0.7105 -1.1837 -1.0035
  786TIP3    H223918   6.481   1.920   0.814  0.5507  0.3344  0.8925
  787TIP3   OH223919   1.020   2.848   7.530 -0.4660  0.1901 -0.4928
  787TIP3    H123920   0.954   2.799   7.480  0.2133 -1.4631  0.1447
  787TIP3    H223921   1.031   2.798   7.611 -2.0985  3.2090  1.7856
  788TIP3   OH223922   6.017   0.384   2.466  0.6523 -0.0355 -0.4730
  788TIP3    H123923   6.045   0.436   2.541  0.0744 -1.0275  0.4496
  788TIP3    H223924   6.017   0.446   2.393 -1.1824  1.6038  0.8019
  789TIP3   OH223925   5.479   4.842   8.021  0.3507  0.0127 -0.2386
  789TIP3    H123926   5.415   4.845   8.092  0.3653  0.7254 -0.2496
  789TIP3    H223927   5.561   4.872   8.061  0.0181  1.9669 -0.8879
  790TIP3   OH223928   0.133   5.583   2.473  0.0026  0.3329 -0.3681
  790TIP3    H123929   0.078   5.628   2.408 -1.6754  0.4840  1.0710
  790TIP3    H223930   0.117   5.490   2.456  0.7842  0.3261 -1.1370
  791TIP3   OH223931   6.590   5.399   1.462  0.3842 -0.4601 -0.1464
  791TIP3    H123932   6.594   5.318   1.411 -1.0358 -2.0790  2.1038
  791TIP3    H223933   6.650   5.383   1.535  1.2911  1.2140 -0.4777
  792TIP3   OH223934   0.503   3.754   2.860  0.2660  0.7297 -0.1736
  792TIP3    H123935   0.571   3.772   2.925 -1.3924  0.4324  1.7485
  792TIP3    H223936   0.535   3.796   2.780  3.0990 -0.1872  0.3741
  793TIP3   OH223937   2.440   5.208   7.878  0.1748 -0.1618 -0.5459
  793TIP3    H123938   2.377   5.243   7.814  0.7254 -0.4633 -1.2661
  793TIP3    H223939   2.518   5.262   7.867 -0.2921  0.9268  1.1130
  794TIP3   OH223940   3.811   3.959   7.454 -0.3877  0.2365  0.3080
  794TIP3    H123941   3.725   3.984   7.421  0.5009  0.8455 -1.6683
  794TIP3    H223942   3.820   3.867   7.430 -0.0485  0.4787 -0.5366
  795TIP3   OH223943   3.339   6.039   2.338 -0.3624 -0.2495  0.2734
  795TIP3    H123944   3.374   6.019   2.425 -0.0359 -0.6851  0.0420
  795TIP3    H223945   3.245   6.051   2.353 -0.0619  1.5670  1.0096
  796TIP3   OH223946   2.423   6.643   2.208  0.1955  0.1281  0.1860
  796TIP3    H123947   2.388   6.717   2.257  0.8559  0.4260  0.2263
  796TIP3    H223948   2.518   6.658   2.206  0.2904 -0.4601 -0.2262
  797TIP3   OH223949   3.889   1.042   8.334  0.1793 -0.2255 -0.3787
  797TIP3    H123950   3.843   0.958   8.343  1.3613 -0.7372  1.2873
  797TIP3    H223951   3.965   1.034   8.391  2.0023  0.8655 -2.5385
  798TIP3   OH223952   6.041   4.394   7.178  0.4564 -0.5718  0.3783
  798TIP3    H123953   6.094   4.372   7.101  1.0422 -0.2428  0.6757
  798TIP3    H223954   6.017   4.486   7.164  2.4082  0.1906  1.5998
  799TIP3   OH223955   4.651   4.423   7.602  0.0305 -0.0981  0.3608
  799TIP3    H123956   4.663   4.361   7.530  0.1637  0.0159  0.2852
  799TIP3    H223957   4.737   4.432   7.641 -0.2757 -1.1175  1.3298
  800TIP3   OH223958   1.028   5.890   1.577  0.0765  0.0606 -0.1159
  800TIP3    H123959   0.969   5.816   1.578  0.5853 -0.4258  2.6434
  800TIP3    H223960   1.112   5.854   1.606  1.3424  1.0376 -2.3651
  801TIP3   OH223961   1.828   1.946   2.151  0.2289  0.1775 -0.7143
  801TIP3    H123962   1.870   1.912   2.230 -0.0247 -0.2587 -0.7633
  801TIP3    H223963   1.780   2.023   2.181 -1.2201 -0.9247 -0.1023
  802TIP3   OH223964   4.219   5.228   8.452  0.0702 -0.4599  0.2832
  802TIP3    H123965   4.200   5.321   8.440 -0.8631 -0.6697  0.0487
  802TIP3    H223966   4.134   5.188   8.471  0.2824 -1.4294 -0.6927
  803TIP3   OH223967   3.128   3.373   1.906  0.1151  0.5875  0.4932
  803TIP3    H123968   3.202   3.370   1.966 -0.0343  0.0154  0.6566
  803TIP3    H223969   3.077   3.449   1.935 -0.5911 -0.3648  1.8645
  804TIP3   OH223970   4.059   2.276   2.677  0.0201  0.4101  0.2701
  804TIP3    H123971   4.016   2.270   2.762  1.0050  0.9167  0.8125
  804TIP3    H223972   4.145   2.313   2.695 -0.5063  2.5757 -1.1610
  805TIP3   OH223973   6.213   4.805   1.215  0.3280  0.2347  0.2843
  805TIP3    H123974   6.228   4.715   1.184  0.9035  0.4523 -0.0719
  805TIP3    H223975   6.277   4.818   1.284 -0.7329 -0.1324  1.3769
  806TIP3   OH223976   3.783   4.799   7.879 -0.2918 -0.6013 -0.5101
  806TIP3    H123977   3.810   4.732   7.817  0.3370 -1.4469  0.6302
  806TIP3    H223978   3.723   4.754   7.939  1.0897 -0.5218  1.0163
  807TIP3   OH223979   4.382   4.014   0.026 -0.0600  0.7716 -0.6655
  807TIP3    H123980   4.418   4.028  -0.062  1.0824  0.5380 -0.2389
  807TIP3    H223981   4.456   4.024   0.085 -0.8447  1.0655  0.3022
  808TIP3   OH223982   4.846   5.421   2.324  0.2746 -0.0524 -0.2754
  808TIP3    H123983   4.862   5.515   2.326 -0.7053  0.1199  1.4138
  808TIP3    H223984   4.911   5.384   2.384  0.0266 -0.3365 -0.1790
  809TIP3   OH223985   5.582   4.042   1.669  0.4141  0.0382  0.4194
  809TIP3    H123986   5.648   4.087   1.721  1.0286  0.0228 -0.3222
  809TIP3    H223987   5.590   4.081   1.581 -0.5906  0.0692  0.3244
  810TIP3   OH223988   6.309   6.073   0.630 -0.3267  0.2898 -0.1688
  810TIP3    H123989   6.300   6.164   0.659 -0.7281 -0.2436  1.4775
  810TIP3    H223990   6.238   6.060   0.568  0.4036  1.3977 -1.2982
  811TIP3   OH223991   3.341   3.123   2.730 -0.1030  0.2161  0.1202
  811TIP3    H123992   3.317   3.169   2.810 -0.8420 -0.6264  0.3897
  811TIP3    H223993   3.286   3.045   2.728 -1.4199  1.0959 -2.0929
  812TIP3   OH223994   1.832   2.610   2.764  0.1630  0.3140 -0.0636
  812TIP3    H123995   1.802   2.519   2.769 -1.4530  0.7089 -1.3220
  812TIP3    H223996   1.847   2.624   2.670 -0.3029  1.5209  0.0252
  813TIP3   OH223997   2.508   2.655   2.338  0.6172 -0.3677  0.4205
  813TIP3    H123998   2.420   2.620   2.321  0.1888  1.2373 -1.0284
  813TIP3    H223999   2.517   2.652   2.433 -0.3826 -1.9575  0.5055
  814TIP3   OH224000   4.483   4.642   6.954  0.4755 -0.0062  0.6163
  814TIP3    H124001   4.566   4.682   6.981 -0.2273  0.9135  1.5068
  814TIP3    H224002   4.494   4.549   6.976  1.0047  0.2286  1.4097
  815TIP3   OH224003   0.752   1.173   1.212 -0.3610 -0.6632  0.1687
  815TIP3    H124004   0.731   1.248   1.267  0.1836 -0.8218  0.6023
  815TIP3    H224005   0.733   1.097   1.267  0.6559 -0.8175  0.3358
  816TIP3   OH224006   5.776   6.081   2.050 -0.5314  0.0172 -0.6938
  816TIP3    H124007   5.761   5.990   2.025  1.1814 -0.5502  0.1761
  816TIP3    H224008   5.777   6.080   2.146  2.1082  0.4232 -0.6480
  817TIP3   OH224009   6.529   6.098   0.444 -0.0682 -0.0083  0.2959
  817TIP3    H124010   6.530   6.009   0.478 -0.1949  0.2247  0.9288
  817TIP3    H224011   6.585   6.147   0.503 -0.1554  0.3737  0.0677
  818TIP3   OH224012   1.426   1.071   0.069 -0.4980  0.0231  0.5968
  818TIP3    H124013   1.347   1.049   0.020  0.2932 -0.1707 -0.6369
  818TIP3    H224014   1.404   1.152   0.115 -0.3367  2.0386 -2.5636
  819TIP3   OH224015   2.443   4.904   7.521 -0.3365  0.2546 -0.6319
  819TIP3    H124016   2.526   4.917   7.476 -0.1122 -0.0319 -0.3072
  819TIP3    H224017   2.388   4.858   7.458 -0.3711  0.7508 -0.9734
  820TIP3   OH224018   2.514   5.092   0.530  0.2429 -0.2565  0.7870
  820TIP3    H124019   2.435   5.079   0.478 -0.2533  1.5847  1.0266
  820TIP3    H224020   2.586   5.080   0.468 -0.3415  1.9582 -0.4045
  821TIP3   OH224021   5.038   5.184   1.933  0.0599 -0.1285  0.8464
  821TIP3    H124022   4.946   5.156   1.935  0.7087 -2.5854 -0.0552
  821TIP3    H224023   5.041   5.252   1.865 -0.7525 -1.5326 -0.6616
  822TIP3   OH224024   2.185   5.645   0.296  0.1111 -0.1808  0.1285
  822TIP3    H124025   2.106   5.640   0.350  0.6249 -3.5521  0.8334
  822TIP3    H224026   2.235   5.718   0.332 -0.4960 -1.0216  2.9612
  823TIP3   OH224027   2.312   5.281   8.728 -0.0680 -0.0716  0.2277
  823TIP3    H124028   2.356   5.336   8.793 -0.0067  0.8369 -0.5608
  823TIP3    H224029   2.364   5.292   8.648 -1.2669  0.4087 -0.5123
  824TIP3   OH224030   3.792   3.452   2.457  0.0600  0.4336  0.6844
  824TIP3    H124031   3.851   3.469   2.383  0.1379 -0.6082  0.4947
  824TIP3    H224032   3.843   3.476   2.534 -0.2991  2.3094  0.3875
  825TIP3   OH224033   0.626   3.413   1.638 -0.1821  0.1017 -0.4647
  825TIP3    H124034   0.658   3.476   1.573  2.5384  1.4929  2.0005
  825TIP3    H224035   0.703   3.364   1.665 -1.3946 -1.0839  1.0678
  826TIP3   OH224036   3.148   2.343   1.950 -0.0406 -0.0209 -0.2548
  826TIP3    H124037   3.208   2.298   1.891 -1.3020 -1.1096 -0.7743
  826TIP3    H224038   3.187   2.332   2.037 -0.0238 -1.7226 -0.4299
  827TIP3   OH224039   2.011   0.271   0.751  0.3131 -1.2132 -0.2898
  827TIP3    H124040   2.066   0.338   0.793 -0.7362  0.4110 -1.4187
  827TIP3    H224041   1.974   0.222   0.824 -0.3647  0.6469  0.6757
  828TIP3   OH224042   3.768   6.597   0.393 -0.0009 -0.1861 -0.0207
  828TIP3    H124043   3.836   6.615   0.328  0.2712 -0.5900  0.1487
  828TIP3    H224044   3.709   6.535   0.350  1.1525 -1.8621  0.7183
  829TIP3   OH224045   4.133   0.671   1.400  0.1646  0.4771 -0.0297
  829TIP3    H124046   4.206   0.611   1.409 -0.8724 -0.8730 -0.2932
  829TIP3    H224047   4.169   0.757   1.422  1.6925 -0.2236  0.2989
  830TIP3   OH224048   3.007   6.658   8.650 -0.3370 -0.1615  0.4753
  830TIP3    H124049   2.992   6.564   8.649 -2.9306  0.2060 -0.6725
  830TIP3    H224050   2.971   6.690   8.568 -0.2136  1.9290  1.1696
  831TIP3   OH224051   5.614   6.464   0.259 -0.0688 -0.4495  0.3098
  831TIP3    H124052   5.637   6.424   0.176 -2.4005 -1.1128 -0.0828
  831TIP3    H224053   5.642   6.401   0.325  0.3858 -0.6168 -0.0358
  832TIP3   OH224054   1.599   4.301   0.642 -0.1011  0.5875  0.0400
  832TIP3    H124055   1.549   4.272   0.718  1.1478  0.4657  0.8398
  832TIP3    H224056   1.545   4.277   0.567 -0.3242 -1.4060  0.7852
  833TIP3   OH224057   6.421   1.300   0.096  0.5814  0.6181 -0.1542
  833TIP3    H124058   6.422   1.395   0.108  2.9816  0.8177 -1.4694
  833TIP3    H224059   6.339   1.272   0.138 -1.4321  3.5020 -1.8187
  834TIP3   OH224060   0.864   0.398   8.360 -0.4582  0.3492  0.5502
  834TIP3    H124061   0.953   0.373   8.337 -1.0188 -1.3396 -0.0121
  834TIP3    H224062   0.872   0.445   8.443  0.9620  0.4834  0.3619
  835TIP3   OH224063   2.613   5.358   1.094  0.1191 -0.5030  0.1879
  835TIP3    H124064   2.619   5.313   1.178  0.1922  0.4047  0.6798
  835TIP3    H224065   2.699   5.401   1.084 -0.2366  0.2052  0.1240
  836TIP3   OH224066   0.766   3.743   2.673  0.2083 -0.2250  0.2713
  836TIP3    H124067   0.806   3.807   2.613  0.3510  0.7813  1.4075
  836TIP3    H224068   0.724   3.796   2.740  0.3738 -1.3320  1.2871
  837TIP3   OH224069   4.336   5.468   0.393 -0.1809 -0.9691  0.1470
  837TIP3    H124070   4.338   5.418   0.311  2.1865 -1.0509  0.1971
  837TIP3    H224071   4.373   5.553   0.370  2.0754 -1.5424  1.4160
  838TIP3   OH224072   0.644   5.621   7.384  0.2331  0.4697  0.1296
  838TIP3    H124073   0.735   5.641   7.363  0.8709 -1.2652  1.0759
  838TIP3    H224074   0.608   5.584   7.303  0.8170 -0.2243  0.1805
  839TIP3   OH224075   3.898   3.706   7.713  0.2936 -0.4615 -0.3784
  839TIP3    H124076   3.836   3.774   7.738  0.2310 -0.9708  0.8944
  839TIP3    H224077   3.893   3.703   7.617  0.3566  1.3636 -0.4662
  840TIP3   OH224078   0.287   3.716   1.489  0.0393  0.2662 -0.7793
  840TIP3    H124079   0.275   3.794   1.434 -1.3199  0.7959  0.2194
  840TIP3    H224080   0.229   3.650   1.451 -0.3131  0.3845 -0.4531
  841TIP3   OH224081   6.671   2.432   8.643  0.5507 -0.8549  0.3447
  841TIP3    H124082   6.698   2.397   8.728 -0.3493 -4.3195 -0.6332
  841TIP3    H224083   6.716   2.376   8.579 -1.9054 -1.0292 -1.3670
  842TIP3   OH224084   5.049   1.358   1.602  0.5417 -0.1198 -0.4043
  842TIP3    H124085   5.127   1.307   1.625  1.2052  0.2104 -1.8646
  842TIP3    H224086   5.018   1.320   1.521 -2.4940 -2.0619  1.4739
  843TIP3   OH224087   6.562   5.708   6.979  0.2975 -0.2345 -0.2678
  843TIP3    H124088   6.501   5.669   7.042 -0.1087  0.4582 -0.2216
  843TIP3    H224089   6.507   5.766   6.926  1.0532  1.0541  0.3154
  844TIP3   OH224090   4.112   1.846   2.715  0.6205 -0.1866  0.6354
  844TIP3    H124091   4.065   1.873   2.794 -1.0164 -0.3245 -0.2491
  844TIP3    H224092   4.205   1.858   2.738  0.1486  1.5798  1.9254
  845TIP3   OH224093   6.500   6.442   3.209  0.1190  0.5077  0.0812
  845TIP3    H124094   6.489   6.519   3.265 -1.5328  1.2585 -1.1845
  845TIP3    H224095   6.414   6.399   3.211  0.6603 -0.6274 -0.2190
  846TIP3   OH224096   4.291   5.082   0.009 -0.2453  0.3625 -0.9921
  846TIP3    H124097   4.306   5.125   0.093 -2.1080  1.7909 -1.3256
  846TIP3    H224098   4.330   5.141  -0.056  1.2792 -0.7835 -1.1683
  847TIP3   OH224099   5.105   2.919   1.683  0.4254  0.1143 -0.1576
  847TIP3    H124100   5.128   2.829   1.662 -1.4895 -0.9253  1.8045
  847TIP3    H224101   5.056   2.950   1.607 -1.3589 -1.5211  0.2676
  848TIP3   OH224102   0.626   5.678   2.029  0.4202  1.0040  0.3261
  848TIP3    H124103   0.713   5.645   2.051  0.4101  1.5142  1.1934
  848TIP3    H224104   0.633   5.708   1.939  0.7003 -0.4035 -0.1397
  849TIP3   OH224105   3.475   1.089   7.318 -0.0235 -0.4225 -0.3075
  849TIP3    H124106   3.475   1.049   7.231  0.9671 -3.0122  0.7834
  849TIP3    H224107   3.383   1.110   7.335 -0.3763 -0.8996 -1.5395
  850TIP3   OH224108   0.905   4.853   1.029 -0.5941 -0.2354 -0.1139
  850TIP3    H124109   0.893   4.805   0.947 -1.1386  1.0153 -0.7953
  850TIP3    H224110   0.994   4.832   1.056 -0.1715 -0.1473 -1.3789
  851TIP3   OH224111   1.310   4.746   1.651 -0.3333  0.3954 -0.2673
  851TIP3    H124112   1.246   4.761   1.581  0.2630 -1.4706 -1.2826
  851TIP3    H224113   1.295   4.656   1.679  0.3326  0.6853  1.0977
  852TIP3   OH224114   5.947   3.467   7.672  0.3717  0.1589  0.4165
  852TIP3    H124115   5.976   3.558   7.670  1.6008 -0.2277 -0.1527
  852TIP3    H224116   5.851   3.472   7.673  0.4229  1.4468  0.3462
  853TIP3   OH224117   4.441   0.906   7.828  0.5404  0.0574 -0.2366
  853TIP3    H124118   4.376   0.928   7.761 -0.0894  0.1682  0.4076
  853TIP3    H224119   4.398   0.843   7.885 -0.1163  2.2648  1.9107
  854TIP3   OH224120   2.525   0.489   2.876  0.3813  0.3459 -0.5964
  854TIP3    H124121   2.459   0.494   2.944  0.6275  0.6898 -0.3810
  854TIP3    H224122   2.600   0.536   2.911  0.7760 -0.1173 -0.8008
  855TIP3   OH224123   0.610   4.862   0.693  0.5727  0.0509 -0.3339
  855TIP3    H124124   0.591   4.804   0.620  0.8633 -1.0162  0.4079
  855TIP3    H224125   0.527   4.868   0.741  0.0764  1.6462 -1.3342
  856TIP3   OH224126   3.344   2.560   0.302  0.4653  0.2098 -0.5051
  856TIP3    H124127   3.265   2.586   0.255 -1.2030 -1.0751  1.4187
  856TIP3    H224128   3.392   2.641   0.314 -1.1473  1.2483 -0.7200
  857TIP3   OH224129   4.800   4.587   2.041  0.1183 -0.1281 -0.2020
  857TIP3    H124130   4.787   4.609   1.948  2.4852 -0.8446 -0.7758
  857TIP3    H224131   4.765   4.663   2.088 -1.1768  0.2376 -1.6589
  858TIP3   OH224132   4.099   0.791   8.199 -0.0623 -0.4255  0.7665
  858TIP3    H124133   4.012   0.770   8.234 -1.5172  1.0901 -1.6753
  858TIP3    H224134   4.107   0.885   8.210  0.4976 -0.2962 -0.6419
  859TIP3   OH224135   1.202   0.721   0.568 -0.1561  0.5062  0.1107
  859TIP3    H124136   1.288   0.717   0.611 -0.3984  0.2316  0.5786
  859TIP3    H224137   1.221   0.744   0.477  0.3952  0.7124  0.2762
  860TIP3   OH224138   3.632   0.207   1.540 -0.1161 -0.0568 -0.0554
  860TIP3    H124139   3.696   0.196   1.470 -0.8960 -0.1820 -0.7674
  860TIP3    H224140   3.577   0.280   1.511 -1.6619 -1.3343 -0.5577
  861TIP3   OH224141   3.900   0.661   0.036 -0.3900  0.3379 -0.4444
  861TIP3    H124142   3.867   0.577   0.067 -0.9555  0.6224 -0.2565
  861TIP3    H224143   3.988   0.642   0.002 -0.4641 -0.2987 -0.2850
  862TIP3   OH224144   2.279   0.865   1.010  0.0085 -0.2921  0.4012
  862TIP3    H124145   2.361   0.841   1.052 -0.5496  0.1686  1.8120
  862TIP3    H224146   2.213   0.853   1.077 -1.0129 -0.1109 -0.5390
  863TIP3   OH224147   3.072   6.440   7.617  0.0354 -0.7229  0.0804
  863TIP3    H124148   3.035   6.363   7.574  1.5501 -1.5953  0.2847
  863TIP3    H224149   3.122   6.484   7.548 -1.4256  0.5168 -0.2289
  864TIP3   OH224150   6.082   2.625   0.799 -0.1887  0.0576 -0.4807
  864TIP3    H124151   6.055   2.555   0.739 -2.1599 -1.1083  1.5935
  864TIP3    H224152   6.130   2.580   0.868  1.8619  1.3417 -0.9810
  865TIP3   OH224153   1.242   3.896   1.307  0.1469 -0.4507 -0.1732
  865TIP3    H124154   1.186   3.972   1.321  1.5716  0.6108 -0.0928
  865TIP3    H224155   1.222   3.838   1.381  0.2334  0.5682  0.6648
  866TIP3   OH224156   1.455   1.471   1.356  0.0075  0.7316 -0.5042
  866TIP3    H124157   1.489   1.510   1.436 -2.1523  2.6002 -0.3856
  866TIP3    H224158   1.398   1.401   1.385  0.4722  0.3579 -0.4920
  867TIP3   OH224159   4.681   5.867   1.800 -0.0157  0.2129 -0.4348
  867TIP3    H124160   4.586   5.873   1.793  0.1268  0.8464 -2.3089
  867TIP3    H224161   4.709   5.957   1.817  0.2049 -0.1291  1.1194
  868TIP3   OH224162   3.434   5.606   7.857  0.3695  0.8331 -0.0411
  868TIP3    H124163   3.402   5.573   7.941  2.4317 -0.7261  0.2122
  868TIP3    H224164   3.433   5.701   7.867 -0.4630  0.7150  1.3192
  869TIP3   OH224165   5.853   1.893   7.261 -0.6365  0.0210 -0.1724
  869TIP3    H124166   5.928   1.853   7.218 -1.0971 -1.2865  0.1995
  869TIP3    H224167   5.862   1.987   7.243  1.9606  0.1359  1.2016
  870TIP3   OH224168   1.859   5.455   1.531 -0.0525 -0.5897  0.5056
  870TIP3    H124169   1.845   5.464   1.437  0.5790  0.1637  0.4708
  870TIP3    H224170   1.934   5.511   1.550  0.7089 -1.7960  1.2358
  871TIP3   OH224171   1.376   3.400   0.625 -0.1703  0.4407  0.4671
  871TIP3    H124172   1.397   3.460   0.696  0.0071  1.5569 -0.4949
  871TIP3    H224173   1.458   3.389   0.577 -0.0519 -1.0730  0.9696
  872TIP3   OH224174   2.344   6.285   8.719  0.3044  0.4140 -0.7004
  872TIP3    H124175   2.257   6.307   8.752 -0.0523 -0.2955 -1.1495
  872TIP3    H224176   2.352   6.332   8.636  0.8029  1.3779 -0.1311
  873TIP3   OH224177   3.709   0.059   1.041  0.4230 -0.5245  0.2999
  873TIP3    H124178   3.630   0.052   0.988 -0.1025  0.2810  0.9519
  873TIP3    H224179   3.690   0.130   1.103  1.6723 -0.2859  0.4290
  874TIP3   OH224180   1.969   3.945   7.293  0.3391 -0.2696  0.0234
  874TIP3    H124181   2.037   3.963   7.229 -0.2063 -1.4067 -0.9244
  874TIP3    H224182   1.978   3.851   7.311 -1.2439 -0.5533 -0.4859
  875TIP3   OH224183   1.481   5.980   8.668 -0.6325 -0.6742  0.2913
  875TIP3    H124184   1.510   6.067   8.641 -0.1647 -0.7080  0.6873
  875TIP3    H224185   1.388   5.991   8.687  0.0971  0.5703  3.7262
  876TIP3   OH224186   5.501   1.345   7.525  0.3394 -0.2016 -0.3033
  876TIP3    H124187   5.430   1.294   7.488 -0.1446 -0.7910  1.3408
  876TIP3    H224188   5.461   1.427   7.553  0.0431 -0.9067  1.4889
  877TIP3   OH224189   2.102   5.344   0.301  0.2940 -0.0012  0.0272
  877TIP3    H124190   2.061   5.272   0.253 -0.5897  1.6007 -1.7434
  877TIP3    H224191   2.045   5.419   0.284  2.8901  1.8976 -0.9402
  878TIP3   OH224192   6.480   3.199   8.065  0.0242 -0.2735 -0.2477
  878TIP3    H124193   6.530   3.117   8.068  0.2282 -0.1420 -0.0529
  878TIP3    H224194   6.401   3.176   8.016  0.9146 -0.1300 -1.8356
  879TIP3   OH224195   6.538   1.766   8.102  0.0971 -0.4180  0.1239
  879TIP3    H124196   6.560   1.855   8.073  1.6097 -0.4719  0.9866
  879TIP3    H224197   6.444   1.759   8.088 -0.0046  1.2167 -0.2337
  880TIP3   OH224198   6.477   1.868   2.013 -0.4795  0.2318  0.1670
  880TIP3    H124199   6.456   1.808   1.941 -1.7171  1.4853 -0.5681
  880TIP3    H224200   6.392   1.897   2.045  0.0718 -0.0715  1.9796
  881TIP3   OH224201   4.964   0.285   8.562  0.3073  0.8907  0.2609
  881TIP3    H124202   4.933   0.275   8.471  0.7396 -0.8310  0.2727
  881TIP3    H224203   5.057   0.308   8.553 -0.0507  2.4389  0.2717
  882TIP3   OH224204   3.750   4.983   1.088 -0.3389 -0.0722 -0.1044
  882TIP3    H124205   3.789   5.009   1.005  1.1298  0.9829  0.8690
  882TIP3    H224206   3.659   5.013   1.082  0.3797  2.3053 -0.4033
  883TIP3   OH224207   1.971   1.428   7.903 -0.0089  0.0233  0.1356
  883TIP3    H124208   1.937   1.356   7.850 -0.4069 -1.1721  1.9129
  883TIP3    H224209   1.895   1.460   7.952 -0.4140  3.3951 -2.3635
  884TIP3   OH224210   6.546   4.266   7.075 -0.0691 -0.1936 -0.4305
  884TIP3    H124211   6.545   4.190   7.133 -0.1580  0.2672  0.1834
  884TIP3    H224212   6.520   4.232   6.990  1.5916 -1.1717 -0.5782
  885TIP3   OH224213   1.468   2.612   1.617 -0.0351  0.0188  0.2894
  885TIP3    H124214   1.385   2.578   1.651  0.1760  1.8188  2.8568
  885TIP3    H224215   1.532   2.543   1.635 -0.4707 -0.2313  0.8943
  886TIP3   OH224216   4.984   0.937   8.194 -0.1593  0.0050  0.0892
  886TIP3    H124217   5.004   0.845   8.177  0.5007  0.3830 -1.3190
  886TIP3    H224218   5.070   0.979   8.201 -0.4433  0.7963 -0.9924
  887TIP3   OH224219   0.577   3.817   2.416  0.3666 -0.1077 -0.7392
  887TIP3    H124220   0.576   3.754   2.488  0.2406  0.9997  0.2563
  887TIP3    H224221   0.667   3.817   2.384  0.2919 -1.0202 -0.9696
  888TIP3   OH224222   3.859   6.687   1.667 -0.2604 -0.6831 -0.3977
  888TIP3    H124223   3.855   6.593   1.685  0.2922 -0.2436  2.4078
  888TIP3    H224224   3.844   6.728   1.751  1.4354  1.7469 -1.1806
  889TIP3   OH224225   4.284   3.085   2.650  0.2667 -0.7914 -0.4151
  889TIP3    H124226   4.194   3.114   2.662 -0.9889 -3.8285 -1.4844
  889TIP3    H224227   4.329   3.111   2.730 -2.4402 -2.1271  1.6996
  890TIP3   OH224228   3.645   1.407   8.633 -0.2817 -0.0779  0.8335
  890TIP3    H124229   3.660   1.380   8.724  0.9418 -0.4804  0.5287
  890TIP3    H224230   3.663   1.328   8.582  0.2321  0.4614  0.1665
  891TIP3   OH224231   4.498   4.554   8.352  0.1662 -0.3557  0.0692
  891TIP3    H124232   4.583   4.579   8.316  0.3826 -0.0875  0.7413
  891TIP3    H224233   4.459   4.497   8.286  0.4142  0.3714 -0.7221
  892TIP3   OH224234   3.659   4.829   1.336 -0.4086 -0.4068  0.1062
  892TIP3    H124235   3.738   4.841   1.388  0.0310 -2.0132 -0.1346
  892TIP3    H224236   3.685   4.854   1.247  0.0557 -1.6076 -0.1092
  893TIP3   OH224237   2.066   5.696   7.727 -0.0698  0.0509  0.2024
  893TIP3    H124238   2.092   5.619   7.677  1.9045  0.6233  0.2694
  893TIP3    H224239   2.029   5.661   7.808 -0.2940 -0.8236 -0.2617
  894TIP3   OH224240   4.491   4.243   1.817 -0.0935  0.4354 -0.0776
  894TIP3    H124241   4.572   4.194   1.807 -1.0624 -1.1134 -0.7919
  894TIP3    H224242   4.471   4.238   1.910  0.5196  0.6586  0.0694
  895TIP3   OH224243   5.271   0.980   7.623 -0.7323  0.4536  0.4751
  895TIP3    H124244   5.252   0.896   7.581 -1.9580  1.0681 -0.2695
  895TIP3    H224245   5.366   0.980   7.637 -0.5195 -0.4511 -0.8381
  896TIP3   OH224246   3.219   3.247   0.537 -0.1209  0.1155  0.0044
  896TIP3    H124247   3.176   3.189   0.600 -2.2785  2.0893  0.4450
  896TIP3    H224248   3.151   3.307   0.508  1.3320  0.6578 -2.6329
  897TIP3   OH224249   0.382   4.013   8.657  0.2696  0.3733  0.5750
  897TIP3    H124250   0.467   3.975   8.636  0.3143  0.4859  0.5516
  897TIP3    H224251   0.373   4.000   8.751  0.3475  0.4329  0.5900
  898TIP3   OH224252   0.810   3.781   0.478 -0.6732 -0.7579 -0.0402
  898TIP3    H124253   0.729   3.731   0.475 -1.6736  0.5559  2.4299
  898TIP3    H224254   0.849   3.761   0.563  0.9782 -0.3999 -0.6608
  899TIP3   OH224255   6.809   3.660   1.153  0.0950 -0.0266 -0.0406
  899TIP3    H124256   6.719   3.633   1.136 -0.0148  0.6327 -0.5349
  899TIP3    H224257   6.807   3.755   1.148  0.9638 -0.0380 -0.7505
  900TIP3   OH224258   3.283   2.715   2.042  0.0880 -0.2005  0.3588
  900TIP3    H124259   3.297   2.731   2.135 -1.2127  1.3855  0.3316
  900TIP3    H224260   3.205   2.768   2.020 -0.6195 -1.8067 -1.2612
  901TIP3   OH224261   1.184   3.711   2.082 -0.1437  0.2498  0.3112
  901TIP3    H124262   1.175   3.771   2.156 -1.0273  0.3053  0.1712
  901TIP3    H224263   1.258   3.746   2.032 -0.4775  1.0732  0.3737
  902TIP3   OH224264   3.983   4.598   2.421 -0.2952 -0.2971  0.3466
  902TIP3    H124265   4.066   4.553   2.429  0.5256  1.3881  2.0686
  902TIP3    H224266   4.006   4.690   2.405 -1.7754  0.2668  1.1559
  903TIP3   OH224267   1.821   1.880   2.555  0.0580 -0.1012  0.2932
  903TIP3    H124268   1.889   1.904   2.618 -0.5171  0.1099  0.8332
  903TIP3    H224269   1.772   1.960   2.540 -0.0586 -0.2459 -0.1252
  904TIP3   OH224270   1.601   3.211   8.510  0.3078 -0.0607  0.1299
  904TIP3    H124271   1.549   3.291   8.495 -0.0050 -0.2152  0.3773
  904TIP3    H224272   1.591   3.162   8.428 -0.5377 -0.4206  0.4359
  905TIP3   OH224273   3.111   4.273   1.926 -0.3802  0.6331  0.3304
  905TIP3    H124274   3.119   4.273   2.021 -2.4867  3.0690  0.6104
  905TIP3    H224275   3.120   4.365   1.900 -0.1192  0.0696 -1.8082
  906TIP3   OH224276   0.668   0.649   2.384  0.0947  0.0119  0.3900
  906TIP3    H124277   0.608   0.692   2.323  0.1481  0.9170  0.9452
  906TIP3    H224278   0.673   0.559   2.354  0.0020  0.4060 -0.8394
  907TIP3   OH224279   5.097   5.894   3.246  0.4767 -0.2108 -0.0367
  907TIP3    H124280   5.039   5.969   3.256 -0.4537 -1.0950  1.6293
  907TIP3    H224281   5.159   5.901   3.319  1.3607 -0.2538 -0.7614
  908TIP3   OH224282   2.427   4.716   1.091 -0.4364  0.6373 -0.4067
  908TIP3    H124283   2.522   4.709   1.079 -0.5603 -0.8003 -0.8326
  908TIP3    H224284   2.395   4.749   1.007 -0.4387 -0.4496 -0.8544
  909TIP3   OH224285   1.716   5.987   8.435  0.1718 -1.0021  0.0400
  909TIP3    H124286   1.743   5.930   8.507  1.1139 -0.6494 -0.0199
  909TIP3    H224287   1.715   5.930   8.359 -0.9049 -1.3945  0.3296
  910TIP3   OH224288   6.247   0.859   1.467 -0.1069 -0.2538  0.0938
  910TIP3    H124289   6.280   0.788   1.521  3.4385 -1.7394 -3.4916
  910TIP3    H224290   6.160   0.829   1.439  0.2763 -1.9998  0.6414
  911TIP3   OH224291   2.009   2.245   2.584  0.5356 -0.4971  0.1722
  911TIP3    H124292   2.095   2.206   2.602  0.3928 -0.0118  2.1863
  911TIP3    H224293   1.955   2.218   2.659 -0.7386  0.1586 -0.4818
  912TIP3   OH224294   0.917   6.628   0.298  0.5607 -0.0713  0.1965
  912TIP3    H124295   0.825   6.640   0.273  0.5110  0.3591  0.5617
  912TIP3    H224296   0.963   6.697   0.251  0.8942 -1.1101 -1.0295
  913TIP3   OH224297   2.212   2.931   1.393 -0.7296  0.2032 -0.0578
  913TIP3    H124298   2.263   2.869   1.340 -1.0335 -0.0870 -0.0183
  913TIP3    H224299   2.277   2.988   1.433 -0.3875 -0.5396  0.4612
  914TIP3   OH224300   4.203   4.318   2.024 -0.2159 -0.4255  0.0299
  914TIP3    H124301   4.267   4.344   1.958 -0.1810  1.2605  0.6957
  914TIP3    H224302   4.128   4.288   1.973  0.2197 -0.2162 -0.7596
  915TIP3   OH224303   3.476   3.986   2.204 -0.1278 -0.2687 -0.2501
  915TIP3    H124304   3.407   3.921   2.216 -1.1326  0.9588  0.8890
  915TIP3    H224305   3.541   3.942   2.149 -1.2939 -1.8320 -0.4434
  916TIP3   OH224306   0.895   1.183   8.646  0.3923 -1.1717 -0.2662
  916TIP3    H124307   0.934   1.097   8.662  1.6464 -0.6211 -0.3037
  916TIP3    H224308   0.889   1.223   8.733 -0.2240 -1.2987 -0.2451
  917TIP3   OH224309   1.043   0.065   2.167  0.3562 -0.4955  0.6189
  917TIP3    H124310   1.021  -0.027   2.150 -0.3768 -0.1894 -0.1106
  917TIP3    H224311   1.079   0.097   2.085  1.2451 -0.3033  1.0713
  918TIP3   OH224312   0.278   3.599   8.300 -0.0675 -0.3667  0.1786
  918TIP3    H124313   0.308   3.537   8.366  0.2581  0.6999  1.0563
  918TIP3    H224314   0.274   3.683   8.346 -0.7293  0.2235 -0.9191
  919TIP3   OH224315   4.409   1.918   2.763 -0.3976  0.1736  0.2726
  919TIP3    H124316   4.413   1.849   2.696 -0.0918 -1.2555  1.6950
  919TIP3    H224317   4.497   1.921   2.800 -0.3669  1.4681  0.1307
  920TIP3   OH224318   4.301   2.404   8.253 -0.2206 -0.4997 -0.1651
  920TIP3    H124319   4.277   2.476   8.195 -0.0251  0.2698  0.6740
  920TIP3    H224320   4.395   2.391   8.239 -0.0779 -0.0013  0.3054
  921TIP3   OH224321   1.896   4.465   1.203 -0.5153 -0.5726  0.2616
  921TIP3    H124322   1.804   4.470   1.229  0.0113  0.4014  2.1036
  921TIP3    H224323   1.901   4.387   1.147 -2.2887 -1.1414  0.8320
  922TIP3   OH224324   5.879   1.904   7.547 -0.5939  0.0034 -0.0488
  922TIP3    H124325   5.865   1.934   7.457 -0.4420  1.2603  0.3192
  922TIP3    H224326   5.967   1.866   7.546 -0.2778  0.7186 -0.2737
  923TIP3   OH224327   1.610   3.656   7.986  0.8821 -0.0988 -0.1894
  923TIP3    H124328   1.521   3.687   8.006  1.4584  0.4977  1.6469
  923TIP3    H224329   1.600   3.561   7.978 -0.2203  0.1079 -1.9439
  924TIP3   OH224330   0.278   0.831   0.643  0.2938 -0.1060  0.6352
  924TIP3    H124331   0.276   0.818   0.738  1.5017  1.1382  0.8712
  924TIP3    H224332   0.371   0.825   0.620  0.0429 -0.1485 -0.4346
  925TIP3   OH224333   6.476   5.775   0.347 -0.6073  0.6232  0.2681
  925TIP3    H124334   6.406   5.831   0.315 -1.1628  0.1927  0.7169
  925TIP3    H224335   6.554   5.806   0.301 -0.8881  1.7972  0.5616
  926TIP3   OH224336   3.648   2.288   8.454 -0.1176 -0.1090  0.1409
  926TIP3    H124337   3.671   2.372   8.414 -1.2049  0.9875  1.6900
  926TIP3    H224338   3.633   2.309   8.546 -0.7884 -1.9517  0.4872
  927TIP3   OH224339   2.182   2.301   2.133 -0.2583  0.0862  0.2000
  927TIP3    H124340   2.242   2.287   2.060  1.6908  1.9492  1.3418
  927TIP3    H224341   2.218   2.247   2.203 -0.1655  0.8509  0.7521
  928TIP3   OH224342   0.659   2.296   2.666  0.0288 -0.1549 -0.0754
  928TIP3    H124343   0.742   2.341   2.651  0.4835 -1.3767 -1.3845
  928TIP3    H224344   0.644   2.306   2.760  1.5196  0.3027  0.1400
  929TIP3   OH224345   0.782   5.010   1.916  0.4229  0.5515  0.2461
  929TIP3    H124346   0.813   4.967   1.837  0.2164  1.7203 -0.4776
  929TIP3    H224347   0.751   4.938   1.971 -0.5013 -0.2026 -1.1970
  930TIP3   OH224348   2.294   2.929   0.642 -0.1848  0.2027  0.1258
  930TIP3    H124349   2.368   2.889   0.596 -0.6120 -1.1441  0.5747
  930TIP3    H224350   2.282   2.876   0.720 -2.5050 -0.5045 -0.6113
  931TIP3   OH224351   0.572   1.962   7.499 -0.0047 -0.2816  0.0206
  931TIP3    H124352   0.501   1.947   7.436 -0.4572 -2.1210  0.8957
  931TIP3    H224353   0.546   2.040   7.547 -2.3749 -1.8790  1.5027
  932TIP3   OH224354   3.272   0.609   2.081  0.2448 -0.0823  0.2935
  932TIP3    H124355   3.360   0.645   2.072 -0.1521  0.8313 -0.1312
  932TIP3    H224356   3.214   0.680   2.053 -0.5448 -1.4028 -1.6529
  933TIP3   OH224357   0.961   6.638   1.001 -0.6612  0.0044 -0.5984
  933TIP3    H124358   1.001   6.666   0.919  0.1011  1.7206  0.3063
  933TIP3    H224359   0.981   6.545   1.008 -0.2091 -0.0207 -2.0491
  934TIP3   OH224360   2.625   0.499   1.767 -0.1363  0.3433 -0.2777
  934TIP3    H124361   2.679   0.429   1.730  0.3900  1.4559 -1.7436
  934TIP3    H224362   2.536   0.465   1.767 -0.0064 -0.0443 -1.7511
  935TIP3   OH224363   1.083   1.580   7.552  0.4783 -0.6047  0.1241
  935TIP3    H124364   1.013   1.569   7.616 -0.9849 -0.8130 -1.4335
  935TIP3    H224365   1.038   1.583   7.467  2.3891 -1.1822 -0.9800
  936TIP3   OH224366   6.788   3.951   1.152 -0.1825  0.8358  0.6391
  936TIP3    H124367   6.701   3.978   1.122 -0.9956  0.0747  2.1686
  936TIP3    H224368   6.838   4.032   1.156 -0.8776  1.3231 -0.0568
  937TIP3   OH224369   0.197   3.902   0.909 -0.0266 -0.1118 -0.3385
  937TIP3    H124370   0.177   3.978   0.963  0.9259 -0.1493  0.0837
  937TIP3    H224371   0.233   3.837   0.969  0.9244 -0.2022 -0.9749
  938TIP3   OH224372   3.935   0.574   2.380  0.1455  0.0401  0.3964
  938TIP3    H124373   3.881   0.645   2.346 -1.2823 -0.6748  1.1246
  938TIP3    H224374   3.881   0.496   2.371  0.2718 -0.4085  2.9308
  939TIP3   OH224375   2.966   0.161   2.152  0.2991 -0.0689 -0.0388
  939TIP3    H124376   2.966   0.090   2.217 -3.0719  1.8190  2.3185
  939TIP3    H224377   3.041   0.215   2.176  0.9993 -1.0927  0.1652
  940TIP3   OH224378   5.212   1.578   0.629 -0.0529  0.2446 -0.6540
  940TIP3    H124379   5.293   1.617   0.661  0.1052  0.4110 -1.2416
  940TIP3    H224380   5.236   1.487   0.611 -0.6263 -0.3864  1.4883
  941TIP3   OH224381   3.164   0.114   7.398 -0.0804  0.1587 -0.4029
  941TIP3    H124382   3.177   0.207   7.414  0.9169  0.1898 -1.2610
  941TIP3    H224383   3.249   0.083   7.366 -0.6651 -0.8469 -1.0431
  942TIP3   OH224384   1.726   1.787   1.546  0.4632 -0.0724  0.0038
  942TIP3    H124385   1.779   1.725   1.596 -1.7206 -1.3388  0.9460
  942TIP3    H224386   1.714   1.861   1.605  0.4603 -0.1836  0.1456
  943TIP3   OH224387   0.492   4.363   1.000 -0.4200  0.3996 -0.5870
  943TIP3    H124388   0.507   4.315   0.918 -2.4810  1.5057 -1.7050
  943TIP3    H224389   0.547   4.440   0.992 -0.3293  0.3185 -0.7699
  944TIP3   OH224390   4.189   3.559   1.895  0.0621 -0.3468  0.3889
  944TIP3    H124391   4.123   3.628   1.889 -0.7879 -1.0998  0.8292
  944TIP3    H224392   4.266   3.603   1.931  0.3565  0.8928 -1.6126
  945TIP3   OH224393   2.030   1.385   1.832 -0.4667 -0.6692 -0.0249
  945TIP3    H124394   1.949   1.397   1.882 -1.0314  0.8972 -1.2263
  945TIP3    H224395   2.086   1.457   1.861  0.0135 -0.9952 -0.1369
  946TIP3   OH224396   2.299   4.800   0.418 -0.5469  0.5045  0.7499
  946TIP3    H124397   2.392   4.783   0.432 -0.5427 -0.1137  0.0555
  946TIP3    H224398   2.261   4.806   0.506  0.1288  0.6638  1.0325
  947TIP3   OH224399   2.646   2.038   8.131  0.6134  0.5244  0.0391
  947TIP3    H124400   2.570   2.036   8.073  1.3524  1.6937 -1.0234
  947TIP3    H224401   2.693   1.957   8.111  0.8292  0.8828 -0.9936
  948TIP3   OH224402   2.410   2.088   0.219 -0.0040  0.2462 -0.4811
  948TIP3    H124403   2.447   2.161   0.269  0.7593 -1.3173  1.3901
  948TIP3    H224404   2.456   2.011   0.252  0.1361 -0.9822 -3.3045
  949TIP3   OH224405   3.263   2.010   0.464  0.1225 -0.7076 -0.1345
  949TIP3    H124406   3.320   2.057   0.403  0.7362  0.6035  1.4040
  949TIP3    H224407   3.269   2.059   0.546 -4.7666  0.7247 -0.3436
  950TIP3   OH224408   6.688   5.189   0.893  0.6394 -0.0400 -0.7061
  950TIP3    H124409   6.639   5.186   0.811 -0.4545 -0.0239 -0.0716
  950TIP3    H224410   6.778   5.208   0.867  0.2961  0.0097 -1.8933
  951TIP3   OH224411   2.838   4.369   2.069  0.5201 -0.2122 -0.0375
  951TIP3    H124412   2.768   4.360   2.005 -1.5346 -1.2507  2.1822
  951TIP3    H224413   2.870   4.279   2.082 -0.4135 -0.3426  1.6831
  952TIP3   OH224414   5.017   2.693   0.408 -0.2070  0.4554  0.3509
  952TIP3    H124415   4.940   2.747   0.427  0.0877  1.6576 -1.5957
  952TIP3    H224416   5.032   2.705   0.314  1.0917 -1.4592  0.2609
  953TIP3   OH224417   4.907   0.979   1.974  0.6068 -0.0670 -0.1144
  953TIP3    H124418   4.830   0.956   1.923 -0.2922  0.8720  0.7838
  953TIP3    H224419   4.977   0.989   1.909 -0.1574 -0.3431 -0.9970
  954TIP3   OH224420   3.389   2.107   8.144 -0.0307  0.2127 -0.4748
  954TIP3    H124421   3.378   2.058   8.063  0.3524 -0.1066 -0.3383
  954TIP3    H224422   3.388   2.040   8.213  1.7132  0.2406 -0.3760
  955TIP3   OH224423   1.505   4.155   2.067  0.1710  0.3448  0.1757
  955TIP3    H124424   1.463   4.163   2.153  0.0163  1.4859  0.0178
  955TIP3    H224425   1.444   4.197   2.006 -0.7250 -2.3032 -0.8802
  956TIP3   OH224426   1.572   4.315   8.514  0.1850 -0.1393 -0.6040
  956TIP3    H124427   1.519   4.254   8.567  1.8025 -1.2764 -0.2013
  956TIP3    H224428   1.508   4.368   8.467 -1.3042 -0.8009  0.5817
  957TIP3   OH224429   0.781   4.666   0.878 -0.7607 -0.1767 -0.4062
  957TIP3    H124430   0.870   4.658   0.844  0.4622  1.6899  2.0549
  957TIP3    H224431   0.736   4.722   0.815  0.6737  1.1315 -0.3137
  958TIP3   OH224432   0.542   1.415   2.406 -0.6628  0.9076 -0.0313
  958TIP3    H124433   0.506   1.494   2.447  1.7279  0.8647  2.3589
  958TIP3    H224434   0.631   1.439   2.382 -0.0952 -0.8740  0.1604
  959TIP3   OH224435   5.825   0.780   2.495  0.2702 -0.3488 -0.5983
  959TIP3    H124436   5.823   0.875   2.500 -0.7772 -0.4348  1.9031
  959TIP3    H224437   5.913   0.759   2.464  0.4654  1.3948 -1.3292
  960TIP3   OH224438   2.214   3.062   2.121  0.1473 -0.4717 -0.0541
  960TIP3    H124439   2.267   3.004   2.176  0.3593  0.2301  0.4974
  960TIP3    H224440   2.163   3.002   2.066  0.1639 -1.1893  0.6837
  961TIP3   OH224441   3.540   5.517   7.578  0.4843 -0.2588 -0.1225
  961TIP3    H124442   3.507   5.491   7.664  0.3445  1.5624  0.4328
  961TIP3    H224443   3.460   5.532   7.527  0.4454  1.3997  0.3493
  962TIP3   OH224444   5.407   5.260   2.280  0.4800  0.0411 -0.2219
  962TIP3    H124445   5.369   5.245   2.194 -0.1389 -1.1760  0.2384
  962TIP3    H224446   5.461   5.183   2.297 -0.5088 -0.4042  1.0455
  963TIP3   OH224447   3.668   4.760   2.165 -0.3839 -0.5014  0.7060
  963TIP3    H124448   3.764   4.763   2.167 -0.3305 -1.8829  0.5474
  963TIP3    H224449   3.643   4.844   2.126  0.8832 -1.1851 -1.7943
  964TIP3   OH224450   2.921   4.628   0.865 -0.1760  0.1762  0.5099
  964TIP3    H124451   2.919   4.545   0.912  1.0680  0.9248  1.9660
  964TIP3    H224452   2.976   4.611   0.789  0.8911 -0.1113  1.3177
  965TIP3   OH224453   4.166   6.774   0.990 -0.4641  0.0347  0.6790
  965TIP3    H124454   4.096   6.837   0.975 -0.5333  0.1431  1.4009
  965TIP3    H224455   4.153   6.745   1.080  0.1489 -0.2853  0.6714
  966TIP3   OH224456   1.912   1.862   7.248 -0.2540  0.2183  0.3174
  966TIP3    H124457   1.862   1.920   7.306  0.3548 -0.1352  1.2172
  966TIP3    H224458   1.991   1.912   7.227 -0.5199  0.3862 -0.3102
  967TIP3   OH224459   3.541   5.272   0.795 -0.3033 -0.4208 -0.0637
  967TIP3    H124460   3.573   5.189   0.760 -2.9831 -0.8740 -1.7192
  967TIP3    H224461   3.608   5.336   0.771  1.2226 -1.8856  0.1539
  968TIP3   OH224462   1.357   6.098   7.822  0.0939  0.3113 -0.3417
  968TIP3    H124463   1.377   6.012   7.786 -2.6669 -1.4530  1.9323
  968TIP3    H224464   1.324   6.148   7.747 -1.2528 -1.6832 -1.1431
  969TIP3   OH224465   2.221   2.439   7.497  0.2957 -0.5635  0.2830
  969TIP3    H124466   2.193   2.529   7.479 -1.4462 -1.0536  0.3455
  969TIP3    H224467   2.172   2.386   7.433  0.8994 -1.5132  0.5954
  970TIP3   OH224468   0.008   4.018   2.244 -0.5170 -0.5681  0.0831
  970TIP3    H124469  -0.003   3.961   2.168 -0.0758 -0.2170 -0.2495
  970TIP3    H224470  -0.022   4.104   2.214  0.6364 -0.1859 -0.0353
  971TIP3   OH224471   6.040   3.032   1.148 -0.6621  1.0026 -0.3486
  971TIP3    H124472   6.132   3.060   1.154 -0.2340 -0.4119  0.0988
  971TIP3    H224473   6.044   2.948   1.103 -1.4724 -0.1865  1.6567
  972TIP3   OH224474   1.967   5.084   8.474 -0.3553 -0.0636  0.0785
  972TIP3    H124475   2.021   5.155   8.510 -0.3434 -0.0726  0.0785
  972TIP3    H224476   1.984   5.010   8.532  0.6793 -0.4659 -0.7085
  973TIP3   OH224477   0.966   5.777   0.347 -0.4434  0.7662  0.0524
  973TIP3    H124478   0.921   5.808   0.268 -0.1201  0.8263 -0.1131
  973TIP3    H224479   0.967   5.852   0.405 -3.6204 -0.1371  1.5103
  974TIP3   OH224480   1.521   4.408   2.508  0.0421 -0.6083  0.0349
  974TIP3    H124481   1.529   4.327   2.560 -1.0107 -1.0374 -0.4465
  974TIP3    H224482   1.445   4.452   2.546  0.1774 -0.1935 -0.1793
  975TIP3   OH224483   4.082   0.292   8.355 -0.0948 -0.3625  0.2024
  975TIP3    H124484   4.009   0.260   8.407 -0.2244  1.5283  1.2911
  975TIP3    H224485   4.042   0.329   8.277 -0.1849 -0.4850  0.1909
  976TIP3   OH224486   3.440   2.125   0.282 -0.5393 -0.5282 -0.3901
  976TIP3    H124487   3.528   2.145   0.314 -0.9903  0.7007  0.0879
  976TIP3    H224488   3.447   2.135   0.187 -0.1297 -0.5792 -0.3680
  977TIP3   OH224489   2.904   0.248   0.029 -0.3255 -0.1608 -0.6950
  977TIP3    H124490   2.987   0.213  -0.003 -0.4484  0.4916 -1.7918
  977TIP3    H224491   2.847   0.251  -0.048 -1.0178  0.3971 -0.1849
  978TIP3   OH224492   2.311   0.472   0.096  0.4249  0.3953 -0.3853
  978TIP3    H124493   2.397   0.443   0.066  1.2531  1.9959  0.3446
  978TIP3    H224494   2.312   0.460   0.191 -0.8755 -1.3121 -0.5389
  979TIP3   OH224495   6.601   0.218   2.696  0.7370  0.2040  0.5130
  979TIP3    H124496   6.542   0.161   2.747 -0.1436 -0.1147 -0.7974
  979TIP3    H224497   6.581   0.306   2.727  1.2900 -0.0815  1.7551
  980TIP3   OH224498   3.655   3.864   7.807 -0.2407 -0.1152 -0.0557
  980TIP3    H124499   3.589   3.915   7.854 -1.3608  0.4254 -2.1253
  980TIP3    H224500   3.613   3.839   7.725  1.8997 -0.3163 -1.1662
  981TIP3   OH224501   0.973   2.504   7.888 -0.2026  0.1605 -0.6452
  981TIP3    H124502   0.979   2.423   7.838 -0.2538  0.3558 -0.9698
  981TIP3    H224503   0.903   2.553   7.846 -0.1630  0.3794 -0.4580
  982TIP3   OH224504   0.681   5.989   7.148 -0.2577  0.2228  0.4081
  982TIP3    H124505   0.762   5.946   7.118 -1.3168 -0.6142 -1.4654
  982TIP3    H224506   0.621   5.917   7.166 -0.8048  0.8479  1.1614
  983TIP3   OH224507   1.961   4.910   0.299  0.2592  0.5162  0.0005
  983TIP3    H124508   2.012   4.980   0.259  1.0055 -0.8132 -1.4989
  983TIP3    H224509   2.019   4.834   0.298 -0.9359 -0.4430  0.4445
  984TIP3   OH224510   0.828   3.755   8.066  0.1699  0.2496  0.1868
  984TIP3    H124511   0.773   3.682   8.037  0.0483  1.1593 -2.0517
  984TIP3    H224512   0.777   3.797   8.136 -0.3944 -0.9396  0.5160
  985TIP3   OH224513   5.793   6.070   8.497 -0.4369 -0.1386  0.1128
  985TIP3    H124514   5.813   6.163   8.484 -0.2388 -0.3492 -1.2465
  985TIP3    H224515   5.821   6.052   8.586  0.5580  0.8598  0.0286
  986TIP3   OH224516   5.013   6.338   7.691 -0.2990  0.3072  0.2892
  986TIP3    H124517   5.012   6.335   7.786 -2.9142 -0.1452  0.3157
  986TIP3    H224518   5.008   6.432   7.670  0.9535  0.4477  0.5549
  987TIP3   OH224519   6.764   6.042   0.926  0.6087 -0.0259 -0.3110
  987TIP3    H124520   6.820   6.078   0.858  1.2459  0.6059  0.5137
  987TIP3    H224521   6.790   6.089   1.006 -1.1540  0.3333  0.0909
  988TIP3   OH224522   2.969   3.740   1.885  0.4436  1.0120 -0.2698
  988TIP3    H124523   2.967   3.726   1.979  1.2554  0.4395 -0.3260
  988TIP3    H224524   3.062   3.749   1.864  0.6747 -2.4457 -1.4846
  989TIP3   OH224525   1.524   4.703   7.163  0.3962 -0.1094  0.3513
  989TIP3    H124526   1.619   4.703   7.161  0.3973 -0.0455  0.4411
  989TIP3    H224527   1.500   4.614   7.138  0.4627  0.1401 -0.6586
  990TIP3   OH224528   3.499   1.491   0.966 -0.7286  0.2648  0.1909
  990TIP3    H124529   3.517   1.398   0.951 -0.9123  0.3793 -0.8805
  990TIP3    H224530   3.529   1.534   0.885  0.1720  1.2549  1.0237
  991TIP3   OH224531   0.964   2.851   1.552  0.2235 -0.0367 -0.3280
  991TIP3    H124532   0.895   2.857   1.619  0.1870  1.0732 -0.4452
  991TIP3    H224533   1.004   2.765   1.567 -0.1434 -0.0394  0.7683
  992TIP3   OH224534   3.929   5.522   2.217  0.2243  0.4052  0.4255
  992TIP3    H124535   3.959   5.505   2.306  0.1364 -1.0169  0.2114
  992TIP3    H224536   3.833   5.517   2.222  0.2443 -1.0919  0.0391
  993TIP3   OH224537   4.968   0.189   2.428 -0.2123  0.2276  0.0071
  993TIP3    H124538   5.060   0.167   2.413 -0.5713 -0.2704 -1.7634
  993TIP3    H224539   4.931   0.109   2.465 -0.6774 -1.0114 -2.8130
  994TIP3   OH224540   6.803   6.444   7.208 -0.9285 -0.1664 -0.1688
  994TIP3    H124541   6.747   6.375   7.243 -0.6415  0.6449  2.0366
  994TIP3    H224542   6.769   6.525   7.246  2.0875  0.2851  1.9250
  995TIP3   OH224543   3.378   1.758   7.007 -0.5301  0.3647 -0.0088
  995TIP3    H124544   3.453   1.723   6.957 -1.1510 -1.8082  0.4571
  995TIP3    H224545   3.389   1.853   7.004  1.0265  0.1881 -1.8211
  996TIP3   OH224546   5.820   5.450   7.198 -0.2235  0.3324  0.1319
  996TIP3    H124547   5.828   5.517   7.266  0.9460 -1.3093  1.7022
  996TIP3    H224548   5.726   5.432   7.193 -0.3736  0.8191  0.9716
  997TIP3   OH224549   3.304   2.313   8.394  0.3576 -0.0903 -0.5100
  997TIP3    H124550   3.284   2.233   8.443 -0.3004  0.2102 -0.2752
  997TIP3    H224551   3.395   2.302   8.367 -0.3171 -1.9147 -2.3468
  998TIP3   OH224552   3.574   6.131   0.341 -0.6950 -0.1176  0.6107
  998TIP3    H124553   3.628   6.124   0.420  0.5814  0.1028 -0.2028
  998TIP3    H224554   3.581   6.224   0.316 -0.5405 -0.3149 -0.1114
  999TIP3   OH224555   1.925   6.404   2.165  0.4193  0.7734  0.4498
  999TIP3    H124556   2.010   6.423   2.125  0.7786 -0.7210  0.4153
  999TIP3    H224557   1.880   6.351   2.099  0.5308 -0.6909  1.5041
 1000TIP3   OH224558   3.991   5.727   7.816  0.0657 -1.1076 -0.2604
 1000TIP3    H124559   3.906   5.737   7.773  0.2181  0.0239 -0.3164
 1000TIP3    H224560   4.043   5.801   7.785  0.0774 -0.0403  2.1402
 1001TIP3   OH224561   5.172   6.398   2.757  0.6031  0.4654  0.1104
 1001TIP3    H124562   5.210   6.484   2.771 -0.4446  1.4073 -2.1384
 1001TIP3    H224563   5.119   6.381   2.835 -0.6419  2.7650 -0.1381
 1002TIP3   OH224564   2.033   6.599   1.502  0.2793  0.3275  0.0744
 1002TIP3    H124565   2.083   6.656   1.443 -0.3040 -0.2985 -1.0334
 1002TIP3    H224566   1.942   6.626   1.490  0.2273  0.7460  1.3045
 1003TIP3   OH224567   2.636   4.629   0.706  0.4422  0.0427  0.2892
 1003TIP3    H124568   2.634   4.534   0.713  0.1984 -0.0308 -0.6850
 1003TIP3    H224569   2.716   4.655   0.753  0.7389 -0.6698  0.1867
 1004TIP3   OH224570   0.870   1.640   7.382 -0.3650  0.3510  0.3003
 1004TIP3    H124571   0.798   1.577   7.391 -0.5420  0.5165  0.0696
 1004TIP3    H224572   0.828   1.718   7.345 -0.1022  0.5196  0.3581
 1005TIP3   OH224573   1.381   2.733   7.695 -0.2249  0.6690  0.2156
 1005TIP3    H124574   1.395   2.656   7.749  0.3331  0.3955 -0.3125
 1005TIP3    H224575   1.469   2.757   7.664 -0.7551 -0.7459 -2.7162
 1006TIP3   OH224576   2.836   3.732   8.037  0.0334  0.2577  0.0809
 1006TIP3    H124577   2.755   3.688   8.013  0.8882 -1.3912  0.0685
 1006TIP3    H224578   2.864   3.688   8.117  1.1677  0.4684 -0.1857
 1007TIP3   OH224579   2.214   4.518   7.795 -0.1355 -0.7943 -0.3575
 1007TIP3    H124580   2.241   4.595   7.845  1.2347 -1.4910  0.0203
 1007TIP3    H224581   2.147   4.476   7.849  1.3847 -1.5810  0.9942
 1008TIP3   OH224582   1.578   3.145   1.245  0.1406 -0.1690 -0.5449
 1008TIP3    H124583   1.644   3.189   1.192  1.0807 -0.3685  0.4206
 1008TIP3    H224584   1.550   3.211   1.308 -1.3477  0.2293 -1.5736
 1009TIP3   OH224585   5.607   4.831   1.825 -0.8385 -0.0989 -0.1066
 1009TIP3    H124586   5.653   4.857   1.905 -0.9582 -0.8316  0.2069
 1009TIP3    H224587   5.562   4.750   1.848  1.3544 -1.9006 -1.6700
 1010TIP3   OH224588   6.037   6.126   0.599  0.5150  0.0903  0.5428
 1010TIP3    H124589   5.977   6.060   0.636  0.6887 -0.2515  0.2177
 1010TIP3    H224590   6.020   6.205   0.650 -1.6940  0.6101 -0.8361
 1011TIP3   OH224591   3.442   6.124   8.159 -0.3560  0.2971 -0.3318
 1011TIP3    H124592   3.472   6.162   8.076  0.6441  2.6670  1.0210
 1011TIP3    H224593   3.487   6.040   8.164  2.6794  1.7910 -0.4686
 1012TIP3   OH224594   3.444   0.746   0.828  0.2056  0.3523  0.7954
 1012TIP3    H124595   3.370   0.806   0.840 -0.4530 -0.2705 -0.0036
 1012TIP3    H224596   3.409   0.661   0.854 -0.1530 -0.3869 -1.8233
 1013TIP3   OH224597   1.127   4.103   8.093 -0.2198  0.0789 -0.2568
 1013TIP3    H124598   1.135   4.106   8.189  0.3304  2.1542 -0.3060
 1013TIP3    H224599   1.109   4.011   8.073 -0.8582 -0.3190  1.8650
 1014TIP3   OH224600   0.495   4.406   3.185  0.2999 -0.5587  0.1493
 1014TIP3    H124601   0.583   4.402   3.148 -0.3107  2.0822 -1.8227
 1014TIP3    H224602   0.447   4.338   3.139  0.9846 -1.2659  0.4402
 1015TIP3   OH224603   1.894   2.197   7.509  0.2341 -0.2497 -0.3098
 1015TIP3    H124604   1.840   2.119   7.524 -0.9366  0.6649  0.3725
 1015TIP3    H224605   1.832   2.264   7.480  1.2737  0.3560 -1.2089
 1016TIP3   OH224606   0.075   3.557   1.411  0.9275  0.0387  0.2182
 1016TIP3    H124607   0.024   3.603   1.343  1.6843  0.3079 -0.1781
 1016TIP3    H224608   0.009   3.527   1.473  0.2147 -0.1954 -0.6248
 1017TIP3   OH224609   2.560   6.622   0.310 -0.1005  0.1259  0.4458
 1017TIP3    H124610   2.504   6.552   0.277 -1.4495  1.1909  0.3893
 1017TIP3    H224611   2.501   6.679   0.360  1.3529  0.1506  2.2130
 1018TIP3   OH224612   4.563   3.597   2.083 -0.4121  0.0717  0.4267
 1018TIP3    H124613   4.552   3.569   2.174 -0.6534 -0.2837  0.2869
 1018TIP3    H224614   4.628   3.536   2.048 -0.2673  0.2535  0.3808
 1019TIP3   OH224615   5.835   3.527   7.341  0.5479  0.0717 -0.0887
 1019TIP3    H124616   5.854   3.544   7.249 -0.2663 -2.2441 -0.7667
 1019TIP3    H224617   5.858   3.608   7.386  2.2874  0.8039 -2.1291
 1020TIP3   OH224618   5.082   0.532   7.414 -0.4229  0.0204 -0.0210
 1020TIP3    H124619   5.142   0.524   7.339  0.2638  3.0391  0.0818
 1020TIP3    H224620   5.082   0.445   7.454  4.5372 -0.0385  0.4365
 1021TIP3   OH224621   1.117   5.253   0.405 -0.1599 -0.3535  0.0102
 1021TIP3    H124622   1.089   5.342   0.381  0.0819  0.3060  1.9891
 1021TIP3    H224623   1.201   5.266   0.450 -1.1928 -1.3220  2.3120
 1022TIP3   OH224624   5.401   5.863   8.196 -0.3618 -0.6353  0.0745
 1022TIP3    H124625   5.340   5.936   8.190 -1.3635 -1.3404  1.1950
 1022TIP3    H224626   5.370   5.812   8.271  2.2372 -0.4317  1.4056
 1023TIP3   OH224627   1.759   5.663   2.178 -0.2009  0.2413  0.3703
 1023TIP3    H124628   1.822   5.649   2.249  1.4444 -3.1949 -1.5174
 1023TIP3    H224629   1.758   5.758   2.166  1.4969  0.7306  3.1868
 1024TIP3   OH224630   0.224   2.973   0.034  0.3359  0.1896  0.3449
 1024TIP3    H124631   0.180   2.897  -0.003  0.1307  0.6462 -0.3691
 1024TIP3    H224632   0.191   2.978   0.124  0.3949 -0.5933  0.4131
 1025TIP3   OH224633   3.547   1.286   3.362  0.1111 -0.0016 -0.2192
 1025TIP3    H124634   3.629   1.323   3.395 -0.1846 -0.1251  0.6749
 1025TIP3    H224635   3.550   1.302   3.267  1.4426 -0.5262 -0.2964
 1026TIP3   OH224636   0.905   5.071   7.832 -0.2989  0.0788 -0.2352
 1026TIP3    H124637   0.940   5.040   7.915  1.7579  2.9063  0.0915
 1026TIP3    H224638   0.811   5.080   7.848 -0.1454 -0.7368  1.3229
 1027TIP3   OH224639   5.614   6.608   8.654  0.4557 -0.0156  0.0815
 1027TIP3    H124640   5.598   6.645   8.567 -1.5227  0.5915  0.6566
 1027TIP3    H224641   5.643   6.682   8.707  1.9687 -0.4475 -0.1191
 1028TIP3   OH224642   6.729   5.362   8.564 -0.0444 -0.1157 -0.6952
 1028TIP3    H124643   6.685   5.334   8.644 -0.1112  2.0163  0.0641
 1028TIP3    H224644   6.662   5.406   8.513  0.0869 -1.1379 -1.8113
 1029TIP3   OH224645   6.129   6.550   2.765  0.2444 -0.1863 -0.4041
 1029TIP3    H124646   6.216   6.544   2.726 -0.0704 -0.6146 -1.0504
 1029TIP3    H224647   6.128   6.481   2.832 -0.1105 -1.1993 -1.4263
 1030TIP3   OH224648   4.794   1.596   2.103  0.0533  0.5069  0.9256
 1030TIP3    H124649   4.742   1.632   2.031  0.4636 -2.3262 -0.9308
 1030TIP3    H224650   4.760   1.508   2.116  2.1191 -0.2073  1.9760
 1031TIP3   OH224651   2.662   1.719   0.543 -0.0024 -0.4324  0.3870
 1031TIP3    H124652   2.608   1.641   0.552  0.0405 -0.7196 -1.4379
 1031TIP3    H224653   2.740   1.690   0.495 -1.6751  1.3068 -3.8488
 1032TIP3   OH224654   3.563   3.060   8.041  0.4155 -0.1409 -0.0190
 1032TIP3    H124655   3.652   3.025   8.029  0.8245  0.9751 -0.4547
 1032TIP3    H224656   3.566   3.145   7.997 -0.6144  0.2977  0.7360
 1033TIP3   OH224657   6.392   1.490   0.693  0.1276  0.3749 -0.3161
 1033TIP3    H124658   6.325   1.422   0.697 -0.0485  0.6057  1.1105
 1033TIP3    H224659   6.456   1.456   0.630 -1.0643 -0.0623 -1.3369
 1034TIP3   OH224660   0.871   2.508   0.176 -0.1301  0.7634  0.1481
 1034TIP3    H124661   0.855   2.415   0.195 -1.4435  1.1071  0.8483
 1034TIP3    H224662   0.958   2.525   0.213 -0.1163 -0.0466  0.5174
 1035TIP3   OH224663   5.673   3.555   0.960  0.4151 -0.5043 -0.0498
 1035TIP3    H124664   5.763   3.541   0.932  0.0757 -0.0667 -1.4408
 1035TIP3    H224665   5.648   3.639   0.922 -1.4966 -1.9319 -2.2850
 1036TIP3   OH224666   5.152   3.187   2.805  0.2527  0.3765 -0.0382
 1036TIP3    H124667   5.195   3.254   2.858 -0.0251  0.2113  0.3950
 1036TIP3    H224668   5.060   3.191   2.831  0.5432 -1.5438  1.4832
 1037TIP3   OH224669   2.485   4.902   7.195 -0.0134 -0.1355 -0.1961
 1037TIP3    H124670   2.574   4.928   7.217 -0.1463 -0.9173  1.3858
 1037TIP3    H224671   2.493   4.812   7.163 -0.3936 -0.8786  1.6722
 1038TIP3   OH224672   4.755   1.326   2.843  0.4214  0.1157  0.4679
 1038TIP3    H124673   4.840   1.369   2.832  0.3977  0.0918  0.1987
 1038TIP3    H224674   4.748   1.313   2.938  1.3776 -1.2125  0.3859
 1039TIP3   OH224675   2.709   0.476   1.092  0.3197 -0.0549 -0.5319
 1039TIP3    H124676   2.676   0.565   1.105  0.6633  0.0248 -0.1819
 1039TIP3    H224677   2.675   0.450   1.006  0.4935  0.5393 -0.7856
 1040TIP3   OH224678   2.694   3.236   1.420 -0.3675  0.3945  0.0108
 1040TIP3    H124679   2.760   3.282   1.369  1.4012 -2.0728 -0.0953
 1040TIP3    H224680   2.632   3.201   1.356  0.3495 -0.4140 -0.2652
 1041TIP3   OH224681   5.264   5.251   0.235  0.1780 -0.0395 -0.2282
 1041TIP3    H124682   5.318   5.300   0.297  2.3078 -1.5509 -0.7859
 1041TIP3    H224683   5.225   5.181   0.287 -0.5254  0.4882 -0.0230
 1042TIP3   OH224684   3.334   0.312   2.453 -0.6022 -0.1530  0.1306
 1042TIP3    H124685   3.410   0.310   2.511  0.9501  0.8898 -1.7585
 1042TIP3    H224686   3.307   0.404   2.450  0.5952  0.1896 -2.2433
 1043TIP3   OH224687   1.533   4.164   7.005  0.1279  0.1503 -0.1473
 1043TIP3    H124688   1.616   4.182   6.961  1.1237  0.9883  1.9535
 1043TIP3    H224689   1.527   4.068   7.006  0.9877  0.0870 -0.4719
 1044TIP3   OH224690   5.901   0.578   0.935 -0.0060  0.6388  0.1273
 1044TIP3    H124691   5.859   0.517   0.875  1.3508  2.5613 -3.0384
 1044TIP3    H224692   5.962   0.524   0.986 -0.5051 -0.9661 -0.9013
 1045TIP3   OH224693   0.638   0.301   1.361 -0.0486  0.3678  0.3329
 1045TIP3    H124694   0.618   0.213   1.391 -0.9977  0.6760  0.6426
 1045TIP3    H224695   0.555   0.348   1.367 -0.1968  0.5975 -2.3033
 1046TIP3   OH224696   0.414   2.907   2.177 -0.0547  0.9997 -0.4566
 1046TIP3    H124697   0.326   2.921   2.143 -0.6056 -1.6663 -0.3077
 1046TIP3    H224698   0.467   2.885   2.101 -0.1002  0.1826 -0.2637
 1047TIP3   OH224699   1.594   2.038   0.857  0.0150  0.1336  0.1446
 1047TIP3    H124700   1.619   2.128   0.836 -0.5437 -0.0358 -1.3056
 1047TIP3    H224701   1.572   1.998   0.773  0.2875 -1.3809  0.7594
 1048TIP3   OH224702   1.521   5.059   1.000 -0.1942 -0.0369 -0.1616
 1048TIP3    H124703   1.443   5.005   1.012 -0.1978  0.1713  0.8759
 1048TIP3    H224704   1.592   4.996   0.989 -0.6052 -0.2352 -2.0716
 1049TIP3   OH224705   2.239   3.508   1.987 -0.2589 -0.4417  0.4866
 1049TIP3    H124706   2.256   3.578   1.924  4.0805 -1.6053  0.0267
 1049TIP3    H224707   2.181   3.448   1.941 -0.4633  0.6938 -0.7963
 1050TIP3   OH224708   0.643   4.601   2.494  0.2252  0.7491 -0.0622
 1050TIP3    H124709   0.734   4.588   2.522  0.3948  0.8622 -0.5429
 1050TIP3    H224710   0.629   4.533   2.427 -0.7324 -0.6710  1.4999
 1051TIP3   OH224711   5.641   5.743   3.145  0.5822 -0.2920  0.0982
 1051TIP3    H124712   5.729   5.754   3.181  0.4852  1.8760 -0.2099
 1051TIP3    H224713   5.586   5.727   3.222  1.2876 -2.3397  0.2349
 1052TIP3   OH224714   4.351   6.024   0.225 -0.3544  0.4185 -0.0378
 1052TIP3    H124715   4.353   5.953   0.288  0.1694 -1.7671 -2.3560
 1052TIP3    H224716   4.259   6.029   0.197 -0.2915  0.2737 -0.2717
 1053TIP3   OH224717   5.682   1.966   1.275 -0.2739 -0.3784  0.3604
 1053TIP3    H124718   5.612   2.024   1.246 -0.1912  1.1887  2.9629
 1053TIP3    H224719   5.762   2.017   1.265  0.1546 -1.0891  0.0910
 1054TIP3   OH224720   6.116   5.946   1.135  0.0931 -0.2994  0.5148
 1054TIP3    H124721   6.186   5.959   1.200 -0.7326  1.7094  1.0998
 1054TIP3    H224722   6.162   5.933   1.052  1.1591 -1.8169  1.2954
 1055TIP3   OH224723   5.866   5.999   8.758  0.5755  0.2767  0.5922
 1055TIP3    H124724   5.848   6.008   8.851  1.7345  0.4562  0.8192
 1055TIP3    H224725   5.851   5.907   8.738 -2.5837  0.7759  0.2661
 1056TIP3   OH224726   0.053   6.029   8.676 -0.1543 -0.4419 -0.0473
 1056TIP3    H124727   0.117   5.992   8.736 -1.0732 -1.1152  0.5457
 1056TIP3    H224728  -0.031   6.020   8.722 -1.3389 -3.4417 -2.3831
 1057TIP3   OH224729   4.626   2.068   3.199 -0.5670  0.4536  0.5777
 1057TIP3    H124730   4.641   2.138   3.135  1.1109 -0.7245 -0.4127
 1057TIP3    H224731   4.712   2.050   3.236 -0.7052 -1.8201 -0.0387
 1058TIP3   OH224732   2.268   4.555   0.836 -0.3496 -0.1687 -0.0746
 1058TIP3    H124733   2.325   4.502   0.892  1.6497  0.5335 -1.3583
 1058TIP3    H224734   2.239   4.627   0.892  0.8572  0.0068  0.3532
 1059TIP3   OH224735   2.839   6.313   8.067 -0.1396  0.1985  0.0128
 1059TIP3    H124736   2.779   6.364   8.012  0.2326  0.7371  0.0879
 1059TIP3    H224737   2.925   6.351   8.049  0.4400 -1.5830 -1.2799
 1060TIP3   OH224738   6.297   1.337   4.005 -0.3185 -0.0934 -0.0609
 1060TIP3    H124739   6.336   1.338   3.918  1.7667 -1.2981  0.8018
 1060TIP3    H224740   6.367   1.364   4.064 -1.6170  0.4646  1.3083
 1061TIP3   OH224741   3.826   0.839   2.108  0.2722 -0.9356  0.2580
 1061TIP3    H124742   3.809   0.887   2.028 -0.3607 -1.6176 -0.0278
 1061TIP3    H224743   3.851   0.751   2.079  0.0582 -1.1839  0.7996
 1062TIP3   OH224744   1.642   5.033   8.242  0.4153 -0.4802 -0.0817
 1062TIP3    H124745   1.666   5.031   8.334 -1.0616 -0.4272  0.3436
 1062TIP3    H224746   1.688   5.109   8.207  1.3988 -0.8073  0.4859
 1063TIP3   OH224747   4.531   1.481   1.563 -0.2171 -0.2038 -0.4924
 1063TIP3    H124748   4.467   1.467   1.493  1.2462  0.3034 -2.0031
 1063TIP3    H224749   4.592   1.407   1.555  0.8214  0.6583 -0.7782
 1064TIP3   OH224750   4.907   1.965   8.606 -0.1087  0.1063 -0.2350
 1064TIP3    H124751   4.928   1.908   8.680 -0.1150  0.3931 -0.0079
 1064TIP3    H224752   4.982   2.024   8.600  1.1824 -1.5990 -2.1574
 1065TIP3   OH224753   0.597   2.009   0.532 -0.3224  0.1593 -0.2681
 1065TIP3    H124754   0.593   1.971   0.619 -0.4291  2.7432  0.9667
 1065TIP3    H224755   0.585   2.103   0.546  1.9938  0.9961 -2.8237
 1066TIP3   OH224756   2.885   3.056   0.891 -0.6546 -0.5924 -0.7199
 1066TIP3    H124757   2.848   3.131   0.938  0.9166 -0.7842  0.9683
 1066TIP3    H224758   2.834   3.050   0.811 -2.3097  0.8779  0.1514
 1067TIP3   OH224759   3.533   0.702   1.148 -0.9800 -0.0602 -0.0886
 1067TIP3    H124760   3.439   0.684   1.149 -1.1615  0.7928 -0.6098
 1067TIP3    H224761   3.540   0.793   1.178 -0.1643 -0.6608  1.7148
 1068TIP3   OH224762   4.264   5.186   0.250 -0.0917 -0.5912 -0.4424
 1068TIP3    H124763   4.353   5.171   0.282 -0.4352 -1.0826  0.3224
 1068TIP3    H224764   4.209   5.129   0.304 -0.7944 -0.8261 -1.3774
 1069TIP3   OH224765   2.119   6.758   7.450 -0.0904 -1.0224 -0.0889
 1069TIP3    H124766   2.055   6.797   7.510  1.6515  0.9554  0.6231
 1069TIP3    H224767   2.068   6.732   7.374 -1.6998  0.8753  0.2586
 1070TIP3   OH224768   1.915   0.700   3.721 -0.3413 -0.0607 -0.1906
 1070TIP3    H124769   1.857   0.752   3.665  2.4194  0.9635 -2.3048
 1070TIP3    H224770   1.941   0.625   3.668  2.2766  0.8842 -0.3840
 1071TIP3   OH224771   5.343   1.991   1.398  0.3493 -0.2349 -0.2413
 1071TIP3    H124772   5.275   1.939   1.440  0.3066  0.2384  0.2975
 1071TIP3    H224773   5.425   1.955   1.431  0.2987  0.7966  1.0987
 1072TIP3   OH224774   6.129   0.404   1.725  0.4614 -0.4601 -0.6891
 1072TIP3    H124775   6.169   0.318   1.739 -0.1929 -1.0189 -2.1046
 1072TIP3    H224776   6.038   0.393   1.752  1.3266  1.1545  3.8126
 1073TIP3   OH224777   2.164   1.799   6.768  0.2655  0.1295 -0.2076
 1073TIP3    H124778   2.088   1.740   6.768  0.6678 -0.3897 -0.5661
 1073TIP3    H224779   2.236   1.745   6.799  0.3051  0.8816  1.1279
 1074TIP3   OH224780   4.857   5.567   8.660 -0.7560 -0.4285  0.0846
 1074TIP3    H124781   4.813   5.609   8.586 -0.7036 -0.1155  0.2309
 1074TIP3    H224782   4.846   5.628   8.733  0.3810 -0.0998 -0.0088
 1075TIP3   OH224783   6.794   1.818   3.428 -0.1465  0.0194 -0.0844
 1075TIP3    H124784   6.782   1.804   3.522  0.9642 -0.4485  0.0006
 1075TIP3    H224785   6.719   1.773   3.388 -0.4501 -0.0663  0.5520
 1076TIP3   OH224786   3.800   5.347   0.061  1.3446 -0.3764 -0.0781
 1076TIP3    H124787   3.867   5.316  -0.000 -0.3908 -1.1860 -1.6594
 1076TIP3    H224788   3.768   5.428   0.022  2.8772  1.2599  1.8406
 1077TIP3   OH224789   0.248   1.404   0.821 -0.2075  0.3263  0.0187
 1077TIP3    H124790   0.297   1.483   0.844 -2.7347  2.6290 -1.7804
 1077TIP3    H224791   0.184   1.394   0.891  1.7145 -1.8051  1.6041
 1078TIP3   OH224792   4.432   6.128   3.079 -1.0823  0.0708  0.2280
 1078TIP3    H124793   4.480   6.210   3.066  0.0251 -0.6863 -0.5279
 1078TIP3    H224794   4.496   6.067   3.114 -1.0688 -1.3595 -2.0732
 1079TIP3   OH224795   6.690   3.447   2.857  0.0231 -0.2280  0.1571
 1079TIP3    H124796   6.743   3.406   2.925  1.6011  1.8373  0.2767
 1079TIP3    H224797   6.632   3.507   2.905 -0.3269 -0.2891 -0.1819
 1080TIP3   OH224798   6.788   1.312   8.006 -0.5516  0.1787  0.3267
 1080TIP3    H124799   6.732   1.331   8.081 -1.5510  0.0811 -0.3759
 1080TIP3    H224800   6.825   1.225   8.025 -1.6875 -0.3515  0.2051
 1081TIP3   OH224801   1.565   1.587   2.063  0.6050 -0.4549  0.0732
 1081TIP3    H124802   1.607   1.586   2.149  0.4776 -0.1655  0.1422
 1081TIP3    H224803   1.473   1.605   2.082  0.2860 -1.8709 -0.0193
 1082TIP3   OH224804   4.293   3.445   1.657  0.2431 -0.1054  0.1713
 1082TIP3    H124805   4.361   3.511   1.652  1.0121 -0.5280  3.1488
 1082TIP3    H224806   4.250   3.461   1.741 -0.5825 -2.4031  0.2588
 1083TIP3   OH224807   4.149   6.107   2.070  0.6957  0.4858  0.0990
 1083TIP3    H124808   4.231   6.059   2.083  0.3947 -0.3072 -0.8736
 1083TIP3    H224809   4.101   6.057   2.005 -1.0613  0.3466  1.4262
 1084TIP3   OH224810   0.330   5.785   1.783 -0.1622  0.1933  0.1997
 1084TIP3    H124811   0.331   5.689   1.781 -0.5186  0.1924 -0.0120
 1084TIP3    H224812   0.317   5.811   1.692 -2.1851  0.3998  0.5016
 1085TIP3   OH224813   0.381   5.717   1.277  0.1060  0.4453  0.0190
 1085TIP3    H124814   0.357   5.625   1.285  2.0220  0.0116  1.5477
 1085TIP3    H224815   0.315   5.754   1.219 -1.5788 -1.5479  0.5524
 1086TIP3   OH224816   3.024   1.993   1.040  0.1297  0.3469  0.3109
 1086TIP3    H124817   3.073   1.982   0.959 -2.1049  1.1657 -1.2391
 1086TIP3    H224818   3.029   2.087   1.059 -0.3495  0.3453  0.4565
 1087TIP3   OH224819   6.122   0.511   2.684  0.0383 -0.2903  0.0860
 1087TIP3    H124820   6.115   0.606   2.681 -0.1554 -0.3123 -1.7571
 1087TIP3    H224821   6.211   0.494   2.713  0.6336  0.5161 -1.1606
 1088TIP3   OH224822   3.047   1.890   0.773 -0.1632 -0.4307  0.2925
 1088TIP3    H124823   3.019   1.804   0.744 -2.3835 -0.1490  1.3917
 1088TIP3    H224824   3.141   1.880   0.791 -0.1989 -2.3745 -0.3582
 1089TIP3   OH224825   2.949   0.301   1.812  0.3141 -0.7087 -0.8445
 1089TIP3    H124826   2.882   0.295   1.880  0.2592 -0.7069 -0.8980
 1089TIP3    H224827   3.024   0.253   1.848 -0.0701 -1.6040 -1.2042
 1090TIP3   OH224828   1.745   5.111   7.463 -1.0369  0.5377  0.0456
 1090TIP3    H124829   1.702   5.090   7.546 -0.3859  1.0531  0.5195
 1090TIP3    H224830   1.759   5.026   7.421  0.3894  0.0984  1.3534
 1091TIP3   OH224831   6.629   0.921   1.161  0.1408  0.6847 -0.3998
 1091TIP3    H124832   6.577   0.982   1.215 -0.5123  0.5312 -0.8363
 1091TIP3    H224833   6.652   0.850   1.221  0.1798  0.9497 -0.0976
 1092TIP3   OH224834   4.700   3.274   8.216 -0.4087  0.2207  0.1158
 1092TIP3    H124835   4.771   3.226   8.174 -0.6834  0.0707 -0.1781
 1092TIP3    H224836   4.659   3.209   8.274 -0.9986 -0.0031 -0.5403
 1093TIP3   OH224837   4.706   2.637   7.257  0.1149  0.3545 -0.1359
 1093TIP3    H124838   4.737   2.559   7.211  3.1876 -0.0272  2.2638
 1093TIP3    H224839   4.689   2.608   7.346 -1.0899  1.9720  0.2191
 1094TIP3   OH224840   4.397   3.354   7.016 -0.0338 -0.2803  0.3123
 1094TIP3    H124841   4.467   3.289   7.015 -0.1137 -0.3671  0.2959
 1094TIP3    H224842   4.317   3.302   7.016 -0.1279 -0.1899 -1.2240
 1095TIP3   OH224843   0.991   1.265   7.963  0.1387  0.5560 -0.1063
 1095TIP3    H124844   1.057   1.212   8.008  0.3444 -0.5855 -1.6469
 1095TIP3    H224845   1.041   1.314   7.898 -0.5375 -1.1669 -2.0804
 1096TIP3   OH224846   6.225   5.114   0.801 -0.3032  0.9269  0.0209
 1096TIP3    H124847   6.220   5.029   0.845 -0.6589  0.7905 -0.2836
 1096TIP3    H224848   6.317   5.121   0.772 -0.2735  0.6493  0.0475
 1097TIP3   OH224849   0.195   5.612   0.669  0.2846 -0.1289  0.0517
 1097TIP3    H124850   0.200   5.604   0.764  1.3362 -0.8133 -0.0458
 1097TIP3    H224851   0.119   5.669   0.654 -0.5354 -0.8443  1.2546
 1098TIP3   OH224852   6.103   5.851   1.939 -0.6298  0.3516 -0.2766
 1098TIP3    H124853   6.050   5.783   1.898  0.3723  0.0905 -1.1814
 1098TIP3    H224854   6.119   5.819   2.028  0.6504 -1.1011 -0.9912
 1099TIP3   OH224855   0.020   1.561   0.316  0.7563 -0.0321  0.7059
 1099TIP3    H124856   0.024   1.531   0.407  0.5385 -3.1694 -0.2161
 1099TIP3    H224857  -0.073   1.554   0.293  1.0697 -1.1197 -0.2942
 1100TIP3   OH224858   2.519   0.013   8.200  0.3080 -0.3672 -0.0864
 1100TIP3    H124859   2.505   0.101   8.166  3.3467  0.5634  0.7766
 1100TIP3    H224860   2.534   0.026   8.294  1.2944 -1.7454 -0.0267
 1101TIP3   OH224861   5.794   1.303   2.353  0.0390  0.1960  0.0579
 1101TIP3    H124862   5.715   1.257   2.381 -1.5315  0.8391 -2.9538
 1101TIP3    H224863   5.839   1.325   2.435 -4.1136  2.0056  2.1315
 1102TIP3   OH224864   4.032   1.213   7.313  0.9305 -0.7900 -1.3617
 1102TIP3    H124865   3.983   1.208   7.230 -1.3176  2.2171 -0.3805
 1102TIP3    H224866   4.060   1.304   7.318 -1.0396 -0.2115  2.1604
 1103TIP3   OH224867   6.197   5.190   0.068  0.6304  0.0597  0.6554
 1103TIP3    H124868   6.266   5.248   0.102 -0.3868  0.1882  2.6862
 1103TIP3    H224869   6.128   5.195   0.134 -0.5592 -1.4884 -0.4107
 1104TIP3   OH224870   2.618   2.483   1.070 -0.3513 -0.7338 -0.4336
 1104TIP3    H124871   2.607   2.511   1.160  1.5457 -1.5574  0.1139
 1104TIP3    H224872   2.530   2.485   1.032 -1.1121 -0.0048  1.3132
 1105TIP3   OH224873   0.063   1.553   1.261  0.1932 -0.4267  0.4258
 1105TIP3    H124874   0.130   1.622   1.266  0.3632 -0.5465 -0.1501
 1105TIP3    H224875   0.027   1.560   1.173 -1.6123  0.5998  1.2041
 1106TIP3   OH224876   3.604   6.680   8.729 -0.7976  0.1289 -0.2553
 1106TIP3    H124877   3.525   6.641   8.765 -1.6595  1.0696 -1.0458
 1106TIP3    H224878   3.641   6.731   8.801  0.1066 -1.7114  0.6507
 1107TIP3   OH224879   6.350   0.641   0.797 -0.3615  0.2733 -0.5603
 1107TIP3    H124880   6.260   0.672   0.807 -0.6381 -0.0902 -1.7494
 1107TIP3    H224881   6.367   0.590   0.876 -0.6582  1.5860  0.3956
 1108TIP3   OH224882   0.151   6.794   7.738  0.8413 -0.1402  0.1363
 1108TIP3    H124883   0.080   6.811   7.676 -0.4701  0.9919  1.8428
 1108TIP3    H224884   0.174   6.702   7.724 -0.6215 -0.3993 -0.8139
 1109TIP3   OH224885   2.004   4.944   1.455  0.0201 -0.0227 -0.2723
 1109TIP3    H124886   2.074   4.969   1.515 -1.3839 -0.4076  1.6191
 1109TIP3    H224887   2.034   4.973   1.369  1.7882  1.2191  0.7146
 1110TIP3   OH224888   2.558   5.743   7.011 -0.3322 -0.2941  0.3299
 1110TIP3    H124889   2.595   5.665   6.969 -0.1547 -1.4139  2.4154
 1110TIP3    H224890   2.467   5.719   7.030 -0.9140  0.8335 -0.8824
 1111TIP3   OH224891   1.276   0.414   2.012 -0.2266  0.0089 -0.2517
 1111TIP3    H124892   1.238   0.416   1.924  0.3564  0.3447 -0.5073
 1111TIP3    H224893   1.319   0.498   2.021  2.4796 -1.1866 -0.9204
 1112TIP3   OH224894   6.734   5.765   7.605 -0.1153 -0.1748 -0.1507
 1112TIP3    H124895   6.680   5.711   7.548  1.5967 -0.5497 -1.5135
 1112TIP3    H224896   6.782   5.703   7.660  0.4287  0.0346 -0.3809
 1113TIP3   OH224897   5.024   5.375   8.043  0.2931  0.3315 -0.1555
 1113TIP3    H124898   4.996   5.359   8.133  0.3705  0.4071 -0.1188
 1113TIP3    H224899   4.951   5.422   8.003 -0.7693 -1.7553 -0.8116
 1114TIP3   OH224900   1.664   4.082   1.826  0.2944  0.6371  0.2120
 1114TIP3    H124901   1.620   4.105   1.908 -0.3125  2.5405 -0.6114
 1114TIP3    H224902   1.593   4.056   1.767  0.7573 -1.0537  0.3484
 1115TIP3   OH224903   1.649   4.954   6.811  0.0197 -0.3335 -0.0889
 1115TIP3    H124904   1.575   4.929   6.757 -0.9769  0.5454  0.8155
 1115TIP3    H224905   1.610   5.004   6.883  1.5531  0.8299 -0.0136
 1116TIP3   OH224906   0.517   3.851   1.393 -0.1215 -0.0721  0.3879
 1116TIP3    H124907   0.609   3.860   1.419 -0.0178  0.0929 -0.0412
 1116TIP3    H224908   0.472   3.921   1.442  0.2178  0.8456 -0.5742
 1117TIP3   OH224909   5.667   1.766   0.925 -0.3494  0.1112 -0.6250
 1117TIP3    H124910   5.761   1.753   0.917 -0.7448 -2.2002 -2.7568
 1117TIP3    H224911   5.638   1.698   0.986 -0.5557  1.5159  0.9050
 1118TIP3   OH224912   2.601   4.651   8.125 -0.0465  0.1030 -0.1857
 1118TIP3    H124913   2.629   4.562   8.146 -0.5443 -0.3317 -1.2816
 1118TIP3    H224914   2.521   4.664   8.177  0.8110  0.4711  1.0962
 1119TIP3   OH224915   3.212   1.673   8.528  0.0649  0.2359 -0.3686
 1119TIP3    H124916   3.299   1.635   8.514  0.8882  2.1137 -0.6248
 1119TIP3    H224917   3.197   1.665   8.622  0.6916  0.2484 -0.2630
 1120TIP3   OH224918   5.769   4.368   3.101 -0.1768 -0.3871 -0.0404
 1120TIP3    H124919   5.798   4.392   3.189 -0.1227 -2.0784  0.4318
 1120TIP3    H224920   5.848   4.371   3.048  0.2495 -1.6381  0.4960
 1121TIP3   OH224921   5.356   0.233   1.945  0.8507  0.3516 -0.0360
 1121TIP3    H124922   5.301   0.253   2.021 -1.9266 -0.9481 -1.5230
 1121TIP3    H224923   5.345   0.308   1.887 -1.7258 -0.9876 -1.4745
 1122TIP3   OH224924   0.334   6.093   1.531  0.2714 -0.3192 -0.1087
 1122TIP3    H124925   0.417   6.133   1.505  0.1864 -0.6265 -0.8720
 1122TIP3    H224926   0.294   6.157   1.590  0.9890 -0.1156  0.1696
 1123TIP3   OH224927   3.865   2.597   8.176  0.3521 -0.2794  0.1751
 1123TIP3    H124928   3.881   2.689   8.195  2.0497 -0.2722 -1.1142
 1123TIP3    H224929   3.812   2.567   8.250 -0.9571  1.8942  0.2093
 1124TIP3   OH224930   1.402   1.614   0.862  0.0012  0.1245 -0.2479
 1124TIP3    H124931   1.494   1.594   0.845  0.0049 -0.0195 -0.0588
 1124TIP3    H224932   1.364   1.530   0.887 -0.0333  0.3097  0.3249
 1125TIP3   OH224933   6.347   5.353   1.556 -0.1183 -0.1663 -0.3061
 1125TIP3    H124934   6.437   5.370   1.530 -0.4569 -0.7299 -1.9863
 1125TIP3    H224935   6.297   5.355   1.474 -1.2927 -1.9244  0.2919
 1126TIP3   OH224936   1.405   2.068   1.060 -0.1619  0.0473  0.0854
 1126TIP3    H124937   1.440   2.061   0.971 -0.6840 -1.1599 -0.0381
 1126TIP3    H224938   1.327   2.013   1.059  0.6553 -1.2203  1.7109
 1127TIP3   OH224939   0.865   5.980   8.653 -0.1335 -0.3722 -0.4586
 1127TIP3    H124940   0.828   5.896   8.623 -0.8923 -0.4411  0.6001
 1127TIP3    H224941   0.889   6.025   8.572  0.1757 -1.5566 -1.0622
 1128TIP3   OH224942   6.159   3.533   8.079  0.2373  0.2874 -0.5082
 1128TIP3    H124943   6.170   3.481   7.999  0.3223 -0.4006 -0.0663
 1128TIP3    H224944   6.242   3.580   8.089  1.4385 -1.9108  0.7347
 1129TIP3   OH224945   2.236   5.305   2.430 -0.3121  0.2007  0.1049
 1129TIP3    H124946   2.316   5.312   2.481 -0.4936 -0.4072  0.4859
 1129TIP3    H224947   2.196   5.223   2.459 -1.3762  0.7806  0.3749
 1130TIP3   OH224948   6.545   4.035   7.239  0.1353  0.3960  0.7117
 1130TIP3    H124949   6.505   3.959   7.197 -0.2839  1.1167 -0.2288
 1130TIP3    H224950   6.507   4.036   7.327  0.6589 -0.8553  0.9746
 1131TIP3   OH224951   0.621   2.248   1.753  0.0989  0.0664 -0.4004
 1131TIP3    H124952   0.677   2.238   1.831 -2.6235  0.3157  1.7223
 1131TIP3    H224953   0.677   2.218   1.680  3.6937  2.2407  1.1761
 1132TIP3   OH224954   0.397   2.552   8.336 -0.0434 -0.3437  0.5961
 1132TIP3    H124955   0.448   2.629   8.311  1.0327 -0.7538  1.4311
 1132TIP3    H224956   0.319   2.587   8.379  0.8049  0.2886  1.6626
 1133TIP3   OH224957   6.759   0.975   7.875  0.2895  0.0654 -0.4559
 1133TIP3    H124958   6.775   1.019   7.958  0.2305 -1.9250  0.6673
 1133TIP3    H224959   6.845   0.974   7.832  0.5465  0.1833  0.0431
 1134TIP3   OH224960   5.860   5.959   8.170  0.1284 -0.4247  0.0858
 1134TIP3    H124961   5.858   5.941   8.264 -2.2401  0.0164  0.1651
 1134TIP3    H224962   5.899   6.046   8.163 -0.0323 -0.3028  0.6727
 1135TIP3   OH224963   3.475   6.434   7.388 -0.5947  0.1632  0.4103
 1135TIP3    H124964   3.425   6.514   7.374  0.4951  0.6630 -0.9768
 1135TIP3    H224965   3.489   6.399   7.300 -1.5595 -1.9072  1.0287
 1136TIP3   OH224966   3.326   0.208   1.405  0.5591  0.0433 -0.0052
 1136TIP3    H124967   3.256   0.191   1.468  0.7747 -0.0147  0.2191
 1136TIP3    H224968   3.377   0.278   1.444  1.4429 -0.8556  0.4956
 1137TIP3   OH224969   5.581   5.287   7.343 -0.2871 -0.1465 -0.1971
 1137TIP3    H124970   5.547   5.318   7.427  1.3461  0.3286  0.3241
 1137TIP3    H224971   5.539   5.202   7.330  2.2291 -2.0726  2.9784
 1138TIP3   OH224972   2.634   4.690   1.711 -0.2910  0.0082 -0.4451
 1138TIP3    H124973   2.544   4.676   1.683 -0.9699  1.5498  0.8354
 1138TIP3    H224974   2.627   4.729   1.798  1.5741  1.2394 -0.7783
 1139TIP3   OH224975   0.947   3.966   2.587 -0.1253  0.6780  0.7606
 1139TIP3    H124976   0.986   3.893   2.539 -1.9187 -0.2917  0.6797
 1139TIP3    H224977   1.006   3.981   2.661  0.1379 -1.0544  0.9440
 1140TIP3   OH224978   5.884   2.180   8.395 -0.5913 -0.1495  0.1386
 1140TIP3    H124979   5.904   2.108   8.454 -2.1738  1.1088  2.3706
 1140TIP3    H224980   5.820   2.145   8.334 -0.3222 -0.9950  0.3359
 1141TIP3   OH224981   0.385   0.322   1.215  0.2664  0.6819 -0.2074
 1141TIP3    H124982   0.302   0.276   1.205  0.6573  0.2356 -1.6485
 1141TIP3    H224983   0.436   0.296   1.138  1.4754  1.4907  0.2968
 1142TIP3   OH224984   5.100   1.553   0.237  0.5086  0.3189  0.8443
 1142TIP3    H124985   5.105   1.473   0.288  0.0803 -0.2926 -0.0554
 1142TIP3    H224986   5.015   1.591   0.258  0.8652  0.7558  1.5595
 1143TIP3   OH224987   1.111   0.515   0.016 -0.6315 -0.7559  0.2522
 1143TIP3    H124988   1.136   0.607   0.020 -0.3410 -0.8324  0.1988
 1143TIP3    H224989   1.047   0.511  -0.055 -2.7457 -0.1158  2.0116
 1144TIP3   OH224990   4.475   5.705   0.934  0.1707 -0.7207  0.1971
 1144TIP3    H124991   4.538   5.633   0.932  0.5040 -0.5003  1.5760
 1144TIP3    H224992   4.434   5.704   0.847  0.2407 -2.4900  0.1447
 1145TIP3   OH224993   0.574   5.195   0.762 -0.3187  0.0283  0.6034
 1145TIP3    H124994   0.550   5.130   0.696  0.3805 -1.3957  1.6927
 1145TIP3    H224995   0.495   5.205   0.815 -0.4804  0.2034  0.3318
 1146TIP3   OH224996   6.728   5.437   8.178 -0.3931  0.8423 -0.0641
 1146TIP3    H124997   6.653   5.393   8.218 -0.4645 -1.9444 -2.8965
 1146TIP3    H224998   6.799   5.426   8.241 -1.7048  1.3905  1.5953
 1147TIP3   OH224999   0.990   4.840   7.636  0.3177  0.1434 -0.5357
 1147TIP3    H125000   1.038   4.859   7.556 -1.8077  2.8004 -1.3224
 1147TIP3    H225001   0.998   4.919   7.689 -2.0437  0.2063 -0.1667
 1148TIP3   OH225002   4.488   4.818   0.022  0.1036 -0.5094 -0.0714
 1148TIP3    H125003   4.467   4.747   0.082  0.7602 -2.2267 -1.7507
 1148TIP3    H225004   4.417   4.881   0.033 -0.3407 -1.2663  1.6931
 1149TIP3   OH225005   1.567   1.742   2.428  0.2796  0.5009 -0.5656
 1149TIP3    H125006   1.652   1.698   2.428  0.5475  0.9889 -1.5545
 1149TIP3    H225007   1.508   1.679   2.469  0.9963 -0.0852 -0.4047
 1150TIP3   OH225008   4.764   2.114   8.290  0.4273 -0.0092 -0.1005
 1150TIP3    H125009   4.755   2.182   8.357  2.6148 -0.9946  1.3361
 1150TIP3    H225010   4.800   2.039   8.338  2.0392 -0.7873 -2.3590
 1151TIP3   OH225011   6.775   4.992   2.516  0.0979  0.2884  0.0117
 1151TIP3    H125012   6.692   4.946   2.523  1.8746 -3.1241  0.9441
 1151TIP3    H225013   6.778   5.048   2.594 -0.5925 -0.9222  0.9339
 1152TIP3   OH225014   3.284   2.709   1.240 -1.3392  0.8876  0.2733
 1152TIP3    H125015   3.312   2.714   1.148  0.7943 -3.6066  0.4182
 1152TIP3    H225016   3.360   2.739   1.290  0.1762 -2.7402  0.4801
 1153TIP3   OH225017   5.302   5.284   0.587  0.0199 -0.3435  0.4909
 1153TIP3    H125018   5.307   5.195   0.621 -0.9412 -1.0787 -1.1496
 1153TIP3    H225019   5.372   5.289   0.523 -0.7555 -0.4043 -0.3925
 1154TIP3   OH225020   4.347   2.560   2.179  0.1737 -0.0803 -0.2107
 1154TIP3    H125021   4.390   2.558   2.264  1.7420 -0.7520 -0.9830
 1154TIP3    H225022   4.387   2.487   2.130 -1.5906 -0.5178 -1.1007
 1155TIP3   OH225023   5.853   5.034   7.390  0.1892  0.1432  0.2042
 1155TIP3    H125024   5.910   5.065   7.319  2.4419 -0.5355  1.6094
 1155TIP3    H225025   5.810   4.956   7.355 -0.5290  1.0989 -1.1438
 1156TIP3   OH225026   5.611   3.748   7.939 -0.0770  0.2153  0.8275
 1156TIP3    H125027   5.539   3.790   7.986 -2.2141 -1.1153 -1.0274
 1156TIP3    H225028   5.593   3.654   7.947  2.0224 -0.2077  1.0928
 1157TIP3   OH225029   3.217   5.005   1.284 -0.4463 -0.3218  0.5276
 1157TIP3    H125030   3.251   4.919   1.261 -0.1149 -0.2712  0.8339
 1157TIP3    H225031   3.133   4.987   1.327 -1.0519 -0.4243 -0.6215
 1158TIP3   OH225032   0.530   1.812   0.376  0.3180  0.2457 -0.1770
 1158TIP3    H125033   0.437   1.830   0.370  0.3005 -0.3605 -2.3284
 1158TIP3    H225034   0.566   1.885   0.426 -1.1486  1.0371 -0.2487
 1159TIP3   OH225035   4.997   6.154   0.557  0.1790  0.1289  0.2973
 1159TIP3    H125036   4.929   6.181   0.494 -0.8089 -0.4262  1.0960
 1159TIP3    H225037   4.954   6.088   0.611  1.9505 -1.6822 -0.4028
 1160TIP3   OH225038   5.516   4.898   1.573  0.3454  0.7694  0.6440
 1160TIP3    H125039   5.460   4.974   1.587 -1.0337 -0.4555  2.2059
 1160TIP3    H225040   5.542   4.871   1.661 -1.0898 -1.8942  0.3555
 1161TIP3   OH225041   1.948   0.469   3.379 -0.3445  0.0050 -0.5921
 1161TIP3    H125042   2.002   0.536   3.419 -1.1611  0.4991 -0.2854
 1161TIP3    H225043   1.906   0.513   3.304  0.1183 -0.5290 -1.1764
 1162TIP3   OH225044   1.284   5.233   1.797 -0.1918  0.6184  0.2809
 1162TIP3    H125045   1.319   5.202   1.713 -0.2764  1.9116 -0.2564
 1162TIP3    H225046   1.360   5.232   1.856 -0.5321 -2.2444  0.8246
 1163TIP3   OH225047   5.101   6.531   0.559 -0.3082  0.3000 -0.0818
 1163TIP3    H125048   5.105   6.558   0.651 -0.5834  0.4650 -0.1174
 1163TIP3    H225049   5.130   6.440   0.559 -0.5034  0.2375  0.1944
 1164TIP3   OH225050   0.236   1.757   3.564  0.1466 -0.6796 -0.7959
 1164TIP3    H125051   0.209   1.842   3.529 -1.5133 -1.2713 -1.0483
 1164TIP3    H225052   0.236   1.769   3.659  0.4636 -0.2549 -0.8463
 1165TIP3   OH225053   4.366   0.028   7.526 -0.6654 -0.1299  0.5706
 1165TIP3    H125054   4.437   0.092   7.517 -0.6117 -0.0116  1.7464
 1165TIP3    H225055   4.397  -0.033   7.592 -1.2574 -0.6442  0.3790
 1166TIP3   OH225056   4.162   5.443   7.801 -0.3076 -0.6155 -0.1204
 1166TIP3    H125057   4.093   5.476   7.744  0.7119 -1.1905 -1.7606
 1166TIP3    H225058   4.153   5.347   7.797 -0.3273 -0.6639  0.8448
 1167TIP3   OH225059   0.121   4.220   8.560 -0.6131 -0.6033  0.3938
 1167TIP3    H125060   0.128   4.231   8.655  0.6253  0.4365  0.2044
 1167TIP3    H225061   0.197   4.266   8.524 -0.6434 -1.6172 -1.0736
 1168TIP3   OH225062   2.141   5.612   1.869  0.0711  0.1086 -0.1277
 1168TIP3    H125063   2.135   5.631   1.776 -0.4338  1.2901  0.1242
 1168TIP3    H225064   2.060   5.566   1.890  0.4611 -0.7056 -0.3838
 1169TIP3   OH225065   0.153   1.401   7.841  0.0909  0.0773  0.0641
 1169TIP3    H125066   0.092   1.352   7.896  0.5567 -0.5806 -0.0024
 1169TIP3    H225067   0.208   1.449   7.903 -0.1682  0.2837  0.1360
 1170TIP3   OH225068   6.659   5.529   2.794  0.3620 -0.3949 -0.2282
 1170TIP3    H125069   6.671   5.434   2.793  0.4152 -0.3894 -0.7965
 1170TIP3    H225070   6.616   5.548   2.711  1.0418  0.1601 -0.4683
 1171TIP3   OH225071   6.236   5.050   1.793 -0.2449  0.2062 -0.4259
 1171TIP3    H125072   6.165   5.038   1.856 -0.6427 -1.5667 -1.1491
 1171TIP3    H225073   6.198   5.026   1.708  1.4258 -1.7370 -0.7039
 1172TIP3   OH225074   2.154   4.032   7.103  0.5669 -0.1475  0.2216
 1172TIP3    H125075   2.228   4.093   7.108 -0.6975  1.3102  2.2100
 1172TIP3    H225076   2.091   4.075   7.045 -0.3510  0.5249  1.6713
 1173TIP3   OH225077   1.657   5.245   1.644 -0.1180 -0.5105 -0.1750
 1173TIP3    H125078   1.687   5.332   1.617  0.3392 -0.8695 -0.8411
 1173TIP3    H225079   1.718   5.220   1.714 -0.4813 -0.1465  0.2825
 1174TIP3   OH225080   0.514   1.962   0.796  0.0413 -0.0975  0.5952
 1174TIP3    H125081   0.519   1.892   0.861  0.3555 -1.3728 -0.7473
 1174TIP3    H225082   0.424   1.993   0.802  0.0678 -0.1608  1.6411
 1175TIP3   OH225083   1.627   2.701   1.405 -0.4862 -0.0765  0.8354
 1175TIP3    H125084   1.544   2.747   1.415 -2.5509 -3.1427 -0.4910
 1175TIP3    H225085   1.661   2.694   1.494 -1.2745  1.7990  1.3407
 1176TIP3   OH225086   4.681   6.220   7.681 -0.1349 -0.2002  0.4847
 1176TIP3    H125087   4.685   6.293   7.742 -0.6191  0.0154  0.2680
 1176TIP3    H225088   4.587   6.203   7.670 -0.1043  0.3215 -0.8377
 1177TIP3   OH225089   1.082   3.916   2.202 -0.1153  0.2937 -0.2102
 1177TIP3    H125090   1.132   3.873   2.272  1.2947  0.8233 -0.8516
 1177TIP3    H225091   1.034   3.986   2.247 -1.3760 -1.0404  0.6243
 1178TIP3   OH225092   2.540   2.605   0.020  0.4082  0.1234 -0.3323
 1178TIP3    H125093   2.623   2.572  -0.015  0.7962 -0.3850  1.0074
 1178TIP3    H225094   2.529   2.690  -0.021  0.7636 -0.4970 -1.7789
 1179TIP3   OH225095   1.046   4.202   1.577 -0.1315 -0.2968  0.6732
 1179TIP3    H125096   0.990   4.276   1.553 -0.6491 -1.4566 -2.1326
 1179TIP3    H225097   1.055   4.208   1.672 -2.2913  1.8423  0.8348
 1180TIP3   OH225098   5.556   2.065   0.895  0.3845  0.0284  0.1476
 1180TIP3    H125099   5.560   2.092   0.987 -0.2194 -0.9211  0.4530
 1180TIP3    H225100   5.561   1.970   0.897  0.1332 -0.0134 -0.7940
 1181TIP3   OH225101   6.071   2.604   1.678 -0.2319  0.5066  0.8249
 1181TIP3    H125102   6.158   2.611   1.718  0.7042  2.1374 -1.3128
 1181TIP3    H225103   6.089   2.573   1.589 -1.9156  0.3963  0.4974
 1182TIP3   OH225104   1.116   3.542   1.320  0.0398 -0.1319  0.2138
 1182TIP3    H125105   1.076   3.618   1.362 -1.9882 -0.9220 -0.1630
 1182TIP3    H225106   1.065   3.529   1.240 -0.2204 -2.3240  0.6569
 1183TIP3   OH225107   6.787   4.403   0.045 -0.0727  0.6307 -0.6733
 1183TIP3    H125108   6.881   4.425   0.041 -0.1577  1.5441  1.1406
 1183TIP3    H225109   6.781   4.337   0.113 -0.7278  0.3928 -0.9574
 1184TIP3   OH225110   0.663   5.727   1.758 -0.0735  0.4835 -0.4019
 1184TIP3    H125111   0.759   5.721   1.753 -0.0533 -1.1082  0.9135
 1184TIP3    H225112   0.633   5.682   1.679  0.2908 -0.9613  0.2415
 1185TIP3   OH225113   2.119   2.104   2.953  0.3149 -0.2150 -0.1796
 1185TIP3    H125114   2.054   2.136   2.891  1.1552 -0.0761 -1.0044
 1185TIP3    H225115   2.184   2.060   2.899  0.5516 -0.9709  0.6997
 1186TIP3   OH225116   0.545   1.686   8.049 -0.4357 -1.0427  0.2321
 1186TIP3    H125117   0.532   1.713   7.958  1.5938  0.4339  0.3099
 1186TIP3    H225118   0.515   1.760   8.101 -0.7931 -1.5375  0.7359
 1187TIP3   OH225119   5.570   0.681   2.391 -0.0103  0.0573  0.0965
 1187TIP3    H125120   5.660   0.665   2.365  0.1645  0.0722  0.6742
 1187TIP3    H225121   5.547   0.765   2.352  0.0913 -0.1327 -0.3787
 1188TIP3   OH225122   4.766   0.660   3.370  0.0110 -0.7618 -0.6949
 1188TIP3    H125123   4.672   0.670   3.388  0.3440 -1.2146  1.5370
 1188TIP3    H225124   4.780   0.566   3.368  0.4309 -0.6957 -1.1170
 1189TIP3   OH225125   1.601   4.536   0.414 -0.0774  0.3072 -0.7779
 1189TIP3    H125126   1.661   4.461   0.410 -2.5683 -1.8389 -0.2981
 1189TIP3    H225127   1.580   4.555   0.322 -1.6793 -1.5993 -0.8702
 1190TIP3   OH225128   5.933   3.291   1.151 -0.4300 -0.3273 -0.6401
 1190TIP3    H125129   5.954   3.198   1.150  1.5640  0.0056  0.9560
 1190TIP3    H225130   6.010   3.333   1.112 -1.2039  0.6695 -1.1335
 1191TIP3   OH225131   5.110   0.830   2.168  0.1850  0.5276  0.7543
 1191TIP3    H125132   5.133   0.801   2.079 -0.8983  1.4720  0.1375
 1191TIP3    H225133   5.135   0.757   2.224 -1.9062 -1.3841 -0.6560
 1192TIP3   OH225134   3.130   1.715   2.498  0.1968 -0.5773  0.3130
 1192TIP3    H125135   3.038   1.741   2.494  0.9034  2.2871  1.0052
 1192TIP3    H225136   3.137   1.663   2.578 -0.8301 -1.1096  0.0817
 1193TIP3   OH225137   5.513   0.433   1.799  0.3151 -0.6821  0.4211
 1193TIP3    H125138   5.571   0.378   1.852  0.2184 -0.1736  1.0669
 1193TIP3    H225139   5.508   0.388   1.715  1.2893 -0.9719  0.5044
 1194TIP3   OH225140   6.594   1.995   3.531  0.0419  0.2458 -0.0485
 1194TIP3    H125141   6.514   1.942   3.531  0.4270 -0.3804 -1.8815
 1194TIP3    H225142   6.639   1.970   3.612 -0.3794 -1.3218 -0.2778
 1195TIP3   OH225143   1.104   1.028   8.390 -0.4236  0.2331 -0.1267
 1195TIP3    H125144   1.032   0.968   8.371  0.8981 -0.9023 -1.7886
 1195TIP3    H225145   1.112   1.081   8.311 -0.1795  1.1727  0.5081
 1196TIP3   OH225146   5.255   6.196   1.547  0.1313 -0.0771 -0.1329
 1196TIP3    H125147   5.280   6.120   1.599  0.4714 -1.1895 -1.8467
 1196TIP3    H225148   5.160   6.192   1.542  0.2095 -1.2318 -1.3468
 1197TIP3   OH225149   4.253   1.526   2.795  0.8031  0.2203  0.2928
 1197TIP3    H125150   4.253   1.498   2.704 -2.3828  2.7574 -0.7075
 1197TIP3    H225151   4.179   1.481   2.834  1.2163  0.3123  1.2007
 1198TIP3   OH225152   2.523   4.894   7.799  0.2811  0.1791  0.0041
 1198TIP3    H125153   2.495   4.875   7.710 -0.3741 -2.0285  0.6184
 1198TIP3    H225154   2.531   4.989   7.802 -1.7260  0.4774 -1.8066
 1199TIP3   OH225155   2.995   5.465   7.327 -0.4989 -0.6141 -0.0858
 1199TIP3    H125156   2.972   5.546   7.373 -2.7158 -0.3938 -1.4697
 1199TIP3    H225157   3.073   5.488   7.276  0.8460 -0.3303  1.9662
 1200TIP3   OH225158   4.495   5.835   7.679  0.1627  0.0171  0.3683
 1200TIP3    H125159   4.559   5.792   7.736 -0.6554 -1.2410  0.3950
 1200TIP3    H225160   4.537   5.836   7.593  0.9605  0.9241  0.7541
 1201TIP3   OH225161   1.399   0.105   0.087  0.2306 -0.6585  0.1537
 1201TIP3    H125162   1.416   0.139  -0.001 -1.4985 -4.6770 -2.0189
 1201TIP3    H225163   1.369   0.182   0.137  0.7911  1.7122 -2.8527
 1202TIP3   OH225164   6.389   3.191   1.995 -0.2938  0.4393 -0.4474
 1202TIP3    H125165   6.433   3.275   1.985 -0.7346  0.6022 -1.1725
 1202TIP3    H225166   6.359   3.169   1.906 -0.5562 -0.2730 -0.1950
 1203TIP3   OH225167   2.157   1.304   1.412 -0.0303  0.0412 -0.5152
 1203TIP3    H125168   2.116   1.388   1.433  0.5896 -0.4811  3.7602
 1203TIP3    H225169   2.130   1.246   1.483  2.7222 -2.2252 -1.1406
 1204TIP3   OH225170   5.942   1.673   0.895 -0.1551 -0.3450  0.2766
 1204TIP3    H125171   6.006   1.688   0.825 -0.4336 -1.4162 -0.2346
 1204TIP3    H225172   5.991   1.689   0.975  0.1346  1.0411 -0.1487
 1205TIP3   OH225173   1.217   1.173   7.550 -0.0493  0.1207 -0.2107
 1205TIP3    H125174   1.142   1.130   7.510 -0.0826 -0.1212  0.1067
 1205TIP3    H225175   1.273   1.199   7.477  0.5652 -1.5392 -0.3689
 1206TIP3   OH225176   2.312   5.759   2.290  0.1345 -0.3685  0.0149
 1206TIP3    H125177   2.263   5.745   2.209  1.0860 -1.0903 -0.4562
 1206TIP3    H225178   2.394   5.711   2.277 -0.6315 -2.5632  2.3211
 1207TIP3   OH225179   4.492   4.430   8.602 -0.0765  0.0937 -0.5244
 1207TIP3    H125180   4.526   4.498   8.660  0.6376 -0.6770  0.0041
 1207TIP3    H225181   4.491   4.470   8.515 -1.3797  1.3497  0.0212
 1208TIP3   OH225182   5.410   1.408   8.227  0.4617  0.0024  0.2754
 1208TIP3    H125183   5.384   1.441   8.141  0.7946  0.7594  0.4546
 1208TIP3    H225184   5.463   1.331   8.208  0.5960  0.2092 -0.2092
 1209TIP3   OH225185   2.352   3.511   2.389  0.0595 -0.5116 -0.2775
 1209TIP3    H125186   2.267   3.471   2.376 -0.9520  1.7086 -1.0804
 1209TIP3    H225187   2.334   3.605   2.394  2.6047  0.1993 -2.0921
 1210TIP3   OH225188   6.041   5.554   0.776  0.5189  0.5822 -0.0268
 1210TIP3    H125189   6.015   5.463   0.786 -1.8732  0.8800 -2.3991
 1210TIP3    H225190   6.027   5.592   0.863  1.0533 -1.1458  0.8615
 1211TIP3   OH225191   4.908   3.144   2.530  0.5673 -0.3530  0.0403
 1211TIP3    H125192   4.866   3.223   2.564 -0.3768 -0.3971 -0.9543
 1211TIP3    H225193   4.850   3.073   2.559  0.0147 -0.4319 -1.1812
 1212TIP3   OH225194   1.082   4.232   0.493  0.2369  0.1487  0.0516
 1212TIP3    H125195   1.176   4.224   0.509  0.1452 -0.7034  0.1943
 1212TIP3    H225196   1.075   4.264   0.403  0.6558 -0.4427 -0.1987
 1213TIP3   OH225197   0.697   1.278   1.463 -0.5694 -0.4723  0.2238
 1213TIP3    H125198   0.679   1.359   1.511 -0.6231 -0.8628  0.8581
 1213TIP3    H225199   0.723   1.215   1.529 -0.5831 -1.0005 -0.2630
 1214TIP3   OH225200   6.088   1.340   0.170 -0.0596  0.1334 -0.3383
 1214TIP3    H125201   6.017   1.276   0.166  1.6213 -1.7899 -2.0436
 1214TIP3    H225202   6.155   1.298   0.224 -0.4364  2.2821  1.9829
 1215TIP3   OH225203   3.733   5.994   8.737 -0.3961  0.1864  0.4607
 1215TIP3    H125204   3.733   6.040   8.822 -1.9647  1.2330 -0.0512
 1215TIP3    H225205   3.783   6.051   8.679 -0.3157  0.0501  0.3961
 1216TIP3   OH225206   1.747   0.534   2.399  0.0887 -0.3015 -0.2819
 1216TIP3    H125207   1.736   0.568   2.311  1.7665  0.4182 -0.2474
 1216TIP3    H225208   1.741   0.439   2.389 -1.3617 -0.1735 -0.8880
 1217TIP3   OH225209   3.115   5.043   7.152  0.5899 -0.5005  0.5017
 1217TIP3    H125210   3.159   5.070   7.233 -0.8880  0.0880  1.1308
 1217TIP3    H225211   3.114   5.121   7.097  1.4441 -0.8561 -0.0428
 1218TIP3   OH225212   4.856   3.364   8.594 -0.1218  0.4893  0.3407
 1218TIP3    H125213   4.822   3.378   8.506 -1.4946 -2.6443  0.2409
 1218TIP3    H225214   4.898   3.278   8.590 -1.4128 -0.3896  3.0077
 1219TIP3   OH225215   5.732   0.043   2.760 -0.0022 -0.2902 -0.6054
 1219TIP3    H125216   5.651   0.077   2.798  0.3594  0.2519 -0.3058
 1219TIP3    H225217   5.769  -0.014   2.827 -0.7545 -1.5456 -1.2174
 1220TIP3   OH225218   2.410   3.775   0.362 -0.0272 -0.5601 -0.2118
 1220TIP3    H125219   2.401   3.814   0.449  0.8197  1.1227 -0.8348
 1220TIP3    H225220   2.496   3.733   0.362  0.1485 -0.2016 -0.3678
 1221TIP3   OH225221   2.977   3.188   8.050  0.1256  0.0187 -0.3542
 1221TIP3    H125222   2.974   3.259   8.115 -1.5323  0.1582 -0.5169
 1221TIP3    H225223   2.905   3.209   7.990  0.7286 -0.8778 -1.4142
 1222TIP3   OH225224   5.382   0.096   0.001 -0.2816  0.7356 -0.4054
 1222TIP3    H125225   5.338   0.011  -0.007 -1.3390  1.0995  1.1420
 1222TIP3    H225226   5.407   0.102   0.093  1.7445  1.2045 -0.9264
 1223TIP3   OH225227   0.595   3.931   8.447  0.1878 -0.2705 -0.8030
 1223TIP3    H125228   0.644   3.855   8.417  2.2488  1.0606 -0.9941
 1223TIP3    H225229   0.553   3.966   8.369 -1.7615 -1.8112 -0.5256
 1224TIP3   OH225230   6.344   0.993   0.629 -0.2447 -0.4972  0.5852
 1224TIP3    H125231   6.353   0.986   0.724 -0.2305 -0.9744  0.5514
 1224TIP3    H225232   6.358   0.904   0.597  3.3125  0.1399 -0.1610
 1225TIP3   OH225233   4.071   3.373   2.641 -0.6109 -0.0137 -0.2485
 1225TIP3    H125234   4.157   3.397   2.674 -1.0023  0.2101  0.6277
 1225TIP3    H225235   4.058   3.284   2.671 -1.1820  0.3648  0.6815
 1226TIP3   OH225236   3.884   6.352   7.734 -0.9353  0.3588 -0.3241
 1226TIP3    H125237   3.830   6.279   7.703  1.7857 -1.7326 -0.4796
 1226TIP3    H225238   3.854   6.367   7.824  0.1593 -2.8730  0.7154
 1227TIP3   OH225239   2.171   3.871   7.543  0.1614 -0.3682 -0.5602
 1227TIP3    H125240   2.128   3.892   7.460 -0.6917 -0.0892 -0.0606
 1227TIP3    H225241   2.112   3.906   7.609 -0.0828 -2.1882  0.2362
 1228TIP3   OH225242   3.138   6.590   2.511  0.1254  0.1863 -0.0272
 1228TIP3    H125243   3.164   6.682   2.502  0.3824  0.0365 -0.9917
 1228TIP3    H225244   3.049   6.593   2.544  0.2759  0.7762  0.3408
 1229TIP3   OH225245   4.378   3.713   7.483  0.0044 -0.1866 -0.2399
 1229TIP3    H125246   4.283   3.723   7.487  0.1153  0.4480  1.9320
 1229TIP3    H225247   4.413   3.793   7.522  1.3812 -1.0744  0.4500
 1230TIP3   OH225248   3.492   4.783   0.877 -0.3780  0.1487  0.2077
 1230TIP3    H125249   3.459   4.713   0.933  0.6694 -0.8627 -0.4009
 1230TIP3    H225250   3.446   4.862   0.907  1.8072  0.1827  4.1271
 1231TIP3   OH225251   3.875   6.739   8.482 -0.5167  0.1793  0.0699
 1231TIP3    H125252   3.798   6.795   8.472 -0.4742  0.1894 -0.2181
 1231TIP3    H225253   3.946   6.798   8.505 -0.2431  0.3975 -1.2397
 1232TIP3   OH225254   0.441   0.048   8.673 -0.5881  0.8334  0.3510
 1232TIP3    H125255   0.515   0.098   8.638 -0.7421  1.2731  0.6402
 1232TIP3    H225256   0.364   0.091   8.635 -0.6622 -1.3421 -2.2429
 1233TIP3   OH225257   1.982   3.959   0.604  0.0659 -0.0909 -0.0396
 1233TIP3    H125258   1.960   3.872   0.636  0.1893  0.4516  1.6127
 1233TIP3    H225259   1.925   4.018   0.654  0.8922  0.8572 -0.1906
 1234TIP3   OH225260   4.959   2.031   1.002 -0.3501  0.1513  0.5584
 1234TIP3    H125261   4.872   1.992   0.991 -0.7897  0.5448  2.3485
 1234TIP3    H225262   4.945   2.105   1.061  1.0237  0.9650 -0.0833
 1235TIP3   OH225263   2.465   3.338   2.003 -0.7683  0.2285 -0.0105
 1235TIP3    H125264   2.454   3.253   1.959  1.7374  0.4327 -1.2273
 1235TIP3    H225265   2.379   3.379   2.000 -1.9712 -2.1049  0.3154
 1236TIP3   OH225266   5.864   3.857   7.931 -0.0870  0.5428 -0.2001
 1236TIP3    H125267   5.780   3.812   7.943  0.1764  0.1657  0.3223
 1236TIP3    H225268   5.913   3.836   8.011  0.0327  1.8121  0.0807
 1237TIP3   OH225269   0.134   2.766   2.242  0.1146 -0.0466 -0.5839
 1237TIP3    H125270   0.063   2.748   2.181 -0.9825  1.7378  0.0929
 1237TIP3    H225271   0.147   2.860   2.237  1.1104 -0.0801  0.7487
 1238TIP3   OH225272   2.712   6.107   0.900 -0.3419  0.6687 -0.5744
 1238TIP3    H125273   2.624   6.077   0.879  0.5168 -1.9895 -0.7974
 1238TIP3    H225274   2.719   6.096   0.995 -0.5090  1.7027 -0.4346
 1239TIP3   OH225275   3.888   0.796   8.575  0.7531  0.0306  0.2522
 1239TIP3    H125276   3.970   0.836   8.604  0.5391 -0.7970  2.1391
 1239TIP3    H225277   3.855   0.749   8.652 -1.9187  0.9929 -0.1953
 1240TIP3   OH225278   4.355   1.928   1.824  0.5348 -0.8272 -0.2947
 1240TIP3    H125279   4.353   1.858   1.759  2.3835  0.1144 -1.4620
 1240TIP3    H225280   4.272   1.921   1.870  0.4167 -3.4103 -0.7470
 1241TIP3   OH225281   2.486   2.808   1.427 -0.0730  0.4044 -0.3668
 1241TIP3    H125282   2.469   2.730   1.479 -2.6837  0.6471 -0.7099
 1241TIP3    H225283   2.508   2.774   1.340 -0.9152  0.0364 -0.4409
 1242TIP3   OH225284   4.507   1.729   7.936 -0.1844 -0.1214 -0.1640
 1242TIP3    H125285   4.539   1.699   7.851  0.0713  0.2421 -0.1979
 1242TIP3    H225286   4.492   1.823   7.924  3.5234  0.8217  1.2318
 1243TIP3   OH225287   0.152   0.385   0.953  0.4771  0.7295 -0.1024
 1243TIP3    H125288   0.113   0.297   0.949  0.3771  0.8017 -2.0586
 1243TIP3    H225289   0.081   0.441   0.984 -0.5614  0.5951 -2.0435
 1244TIP3   OH225290   5.873   0.343   1.767 -0.2223  0.1156  0.3394
 1244TIP3    H125291   5.853   0.312   1.679  0.6259 -1.2437  0.5848
 1244TIP3    H225292   5.805   0.304   1.822  0.3892 -0.6903  0.5415
 1245TIP3   OH225293   0.388   3.209   0.842 -0.1480  0.1110 -0.2101
 1245TIP3    H125294   0.370   3.204   0.936 -0.2489 -2.3114 -0.2873
 1245TIP3    H225295   0.346   3.290   0.813  0.0488  1.0080  1.8452
 1246TIP3   OH225296   4.816   3.135   7.986  0.4356  0.3034 -0.6188
 1246TIP3    H125297   4.890   3.141   8.046  0.5458 -0.3437 -0.6831
 1246TIP3    H225298   4.840   3.192   7.913  0.0943  1.4579  0.1425
 1247TIP3   OH225299   2.300   2.858   2.268  0.3040 -0.4559 -0.5795
 1247TIP3    H125300   2.286   2.868   2.362 -2.3089 -0.9647 -0.8336
 1247TIP3    H225301   2.362   2.786   2.260  0.2021 -0.7102  0.7491
 1248TIP3   OH225302   6.018   2.752   0.580  0.4043  0.2438  0.0599
 1248TIP3    H125303   5.980   2.668   0.554 -0.2506  0.3165  0.7478
 1248TIP3    H225304   6.045   2.739   0.671 -1.2622  1.2723  0.7529
 1249TIP3   OH225305   5.221   6.786   2.015  0.0214 -0.3320 -0.1961
 1249TIP3    H125306   5.180   6.702   2.036 -0.9502 -0.0879 -1.0420
 1249TIP3    H225307   5.162   6.852   2.051 -0.9123  0.0527 -2.2897
 1250TIP3   OH225308   3.867   3.217   7.518  0.5056 -1.2798 -0.4665
 1250TIP3    H125309   3.948   3.231   7.469 -1.4889 -0.4317 -3.8613
 1250TIP3    H225310   3.832   3.134   7.485 -0.6702 -0.9393 -0.1318
 1251TIP3   OH225311   0.901   3.093   7.722 -0.6956  0.3039 -0.0355
 1251TIP3    H125312   0.832   3.027   7.715 -1.2046  0.8113  0.1034
 1251TIP3    H225313   0.855   3.177   7.715 -0.0165  0.6455 -0.5643
 1252TIP3   OH225314   6.687   1.849   2.489 -0.4242  0.0862  0.1443
 1252TIP3    H125315   6.737   1.907   2.432 -0.6840 -0.7821 -1.0164
 1252TIP3    H225316   6.605   1.834   2.441 -1.1218  0.2084  1.2650
 1253TIP3   OH225317   0.571   3.870   7.867  0.5174 -0.6095 -0.3928
 1253TIP3    H125318   0.613   3.785   7.855  2.2863 -0.0883  1.6376
 1253TIP3    H225319   0.626   3.931   7.818  1.3193 -0.1632  0.9962
 1254TIP3   OH225320   0.658   0.488   0.095  0.0713  0.3847  0.4581
 1254TIP3    H125321   0.599   0.560   0.073  1.7172  1.7870  0.4156
 1254TIP3    H225322   0.714   0.523   0.164  3.2042  0.4763 -1.8916
 1255TIP3   OH225323   3.717   2.949   8.629  0.3859  0.2677 -0.1546
 1255TIP3    H125324   3.746   2.880   8.569  0.8669  0.5054 -0.2034
 1255TIP3    H225325   3.725   3.030   8.579 -1.7063  0.2273 -0.6432
 1256TIP3   OH225326   4.267   4.402   2.261  0.5302 -0.0208  0.2459
 1256TIP3    H125327   4.245   4.490   2.232  0.2467 -0.0582  0.3463
 1256TIP3    H225328   4.249   4.346   2.185  2.1658  0.1915 -0.3407
 1257TIP3   OH225329   1.508   3.562   7.648 -0.2260  0.0675  0.6295
 1257TIP3    H125330   1.597   3.596   7.637 -0.3584  0.4796  0.8164
 1257TIP3    H225331   1.488   3.577   7.741 -0.1497 -0.8591  0.8007
 1258TIP3   OH225332   6.681   6.327   2.618 -0.1844  0.4462 -0.3480
 1258TIP3    H125333   6.645   6.265   2.681  0.4591  0.9594  0.5497
 1258TIP3    H225334   6.666   6.413   2.658  0.8706  0.7373 -0.5430
 1259TIP3   OH225335   1.523   6.826   3.242  0.3657 -0.1042  0.0085
 1259TIP3    H125336   1.453   6.848   3.303  1.8290 -0.4655  1.9085
 1259TIP3    H225337   1.600   6.814   3.297  2.4320  2.1783 -2.1163
 1260TIP3   OH225338   6.661   2.924   8.075 -0.0259 -0.1817  0.4022
 1260TIP3    H125339   6.682   2.986   8.005 -0.0573 -0.0556  0.5064
 1260TIP3    H225340   6.647   2.841   8.029 -2.7672  0.4566 -0.0601
 1261TIP3   OH225341   5.763   2.212   7.796  0.5957  0.4852  0.1375
 1261TIP3    H125342   5.786   2.233   7.706  1.1892  1.1076  0.4290
 1261TIP3    H225343   5.816   2.135   7.818 -2.6822 -2.5810 -1.4426
 1262TIP3   OH225344   2.487   5.934   0.858 -0.4993 -0.4174 -0.1325
 1262TIP3    H125345   2.547   5.859   0.863 -0.4202 -0.7121 -3.4152
 1262TIP3    H225346   2.406   5.897   0.823 -0.8074  0.8433 -0.7931
 1263TIP3   OH225347   1.452   1.251   8.594  0.4643 -0.0157  0.1511
 1263TIP3    H125348   1.532   1.202   8.614 -0.4065 -0.8169  1.8705
 1263TIP3    H225349   1.381   1.188   8.608 -0.4595  0.2038 -2.8166
 1264TIP3   OH225350   4.658   4.819   3.088  0.2019 -0.1962  0.4535
 1264TIP3    H125351   4.585   4.828   3.028 -0.1113  0.8442  0.9617
 1264TIP3    H225352   4.662   4.903   3.134  0.8592 -0.7155  1.3949
 1265TIP3   OH225353   6.659   6.651   7.337 -0.3703  0.2499 -0.2310
 1265TIP3    H125354   6.576   6.698   7.334  1.1609  3.6871  3.2499
 1265TIP3    H225355   6.722   6.710   7.295  1.0028 -0.4187  0.7974
 1266TIP3   OH225356   6.628   2.292   2.453 -0.3534 -0.7064  0.9060
 1266TIP3    H125357   6.628   2.376   2.499 -0.5572 -1.3422  2.0943
 1266TIP3    H225358   6.595   2.229   2.517 -0.2107 -1.7021  0.0304
 1267TIP3   OH225359   2.557   3.226   0.746  0.4963 -0.8983 -0.3768
 1267TIP3    H125360   2.582   3.171   0.672  2.5369  0.1100 -0.5152
 1267TIP3    H225361   2.462   3.236   0.737  0.7404 -0.1954 -3.3301
 1268TIP3   OH225362   1.412   0.523   1.516 -0.4961  0.5112 -0.3576
 1268TIP3    H125363   1.483   0.458   1.517 -0.8089  0.1548 -0.7151
 1268TIP3    H225364   1.420   0.568   1.600 -0.7254 -0.5024  0.2303
 1269TIP3   OH225365   0.136   1.167   2.631 -0.1256  0.8847 -0.1720
 1269TIP3    H125366   0.093   1.211   2.704 -0.3244  1.7059 -0.7675
 1269TIP3    H225367   0.225   1.151   2.661  0.2194  2.4992 -0.2380
 1270TIP3   OH225368   1.889   5.440   8.213  0.2164 -0.1100  0.2312
 1270TIP3    H125369   1.812   5.490   8.185  2.4782  2.6294 -1.6117
 1270TIP3    H225370   1.932   5.414   8.131  2.8414  1.1635  1.1057
 1271TIP3   OH225371   4.670   1.555   1.827  0.9561  0.3986  0.1149
 1271TIP3    H125372   4.754   1.511   1.837  2.1085  2.3285 -0.5478
 1271TIP3    H225373   4.647   1.544   1.734  1.0695  0.8741  0.0286
 1272TIP3   OH225374   3.999   4.311   7.827 -0.0947 -0.1443 -0.1891
 1272TIP3    H125375   4.065   4.296   7.895 -0.1345 -0.6891 -0.2660
 1272TIP3    H225376   4.030   4.259   7.753  0.2892  0.9380 -0.8203
 1273TIP3   OH225377   1.578   1.017   1.139  0.2435 -0.1072 -0.0397
 1273TIP3    H125378   1.655   1.050   1.184 -0.3840  0.8629  0.3557
 1273TIP3    H225379   1.558   0.934   1.183  1.4156 -0.7031 -0.5716
 1274TIP3   OH225380   0.505   3.186   2.177  0.1937 -0.4280 -0.5068
 1274TIP3    H125381   0.431   3.246   2.168  0.3078 -0.4396 -1.6990
 1274TIP3    H225382   0.478   3.125   2.246 -0.2023  0.5670  0.2424
 1275TIP3   OH225383   3.447   2.170   7.550 -0.3120 -0.7891  0.2645
 1275TIP3    H125384   3.507   2.242   7.531 -2.1019  1.3773  2.0326
 1275TIP3    H225385   3.384   2.172   7.478  0.4946 -1.6193 -0.4722
 1276TIP3   OH225386   1.065   3.554   0.045 -0.1373 -0.5141 -0.0172
 1276TIP3    H125387   1.042   3.598   0.126 -0.6437 -0.6233 -0.0998
 1276TIP3    H225388   1.151   3.515   0.062  0.3163  0.4955  0.0576
 1277TIP3   OH225389   1.043   3.560   7.340  0.0026  0.4342 -0.3490
 1277TIP3    H125390   1.130   3.521   7.351 -0.4616 -0.5545 -0.0414
 1277TIP3    H225391   1.025   3.550   7.246 -0.3755 -0.7176 -0.1745
 1278TIP3   OH225392   4.137   5.154   7.849  0.2341  0.2498 -0.1456
 1278TIP3    H125393   4.088   5.181   7.926  1.2190  0.1209  0.5396
 1278TIP3    H225394   4.084   5.084   7.810  0.6942 -1.1286  1.5720
 1279TIP3   OH225395   2.977   0.323   0.448 -0.6094 -0.4467 -0.1460
 1279TIP3    H125396   3.056   0.275   0.420  0.5933  0.0947  2.0935
 1279TIP3    H225397   2.968   0.394   0.384  1.0787 -0.1985 -0.1548
 1280TIP3   OH225398   5.366   6.345   7.968 -0.4434  0.3151 -0.1642
 1280TIP3    H125399   5.328   6.425   8.003  0.2400  0.4674  0.2462
 1280TIP3    H225400   5.328   6.275   8.021  0.0377  0.4878  0.4198
 1281TIP3   OH225401   2.800   3.333   7.597 -0.3120 -0.1822  0.4189
 1281TIP3    H125402   2.869   3.346   7.662 -1.5613  0.8107  1.6248
 1281TIP3    H225403   2.785   3.421   7.561 -0.1705 -0.5928 -0.6670
 1282TIP3   OH225404   3.431   3.672   1.644  0.1753 -0.5967  0.2773
 1282TIP3    H125405   3.452   3.764   1.631 -0.0370 -0.5090  0.5495
 1282TIP3    H225406   3.399   3.642   1.559  1.3385 -0.7184 -0.1390
 1283TIP3   OH225407   6.586   2.203   0.602 -0.3985  0.3973 -0.4405
 1283TIP3    H125408   6.535   2.156   0.668 -0.2349 -0.1490 -0.6948
 1283TIP3    H225409   6.569   2.295   0.619 -0.5018  0.2518  0.2481
 1284TIP3   OH225410   0.794   0.063   8.738  0.2681 -0.3821 -0.3330
 1284TIP3    H125411   0.801   0.038   8.646  1.5125 -0.1877 -0.3173
 1284TIP3    H225412   0.747   0.146   8.736 -1.0941 -1.1411 -0.6473
 1285TIP3   OH225413   6.243   1.510   3.077 -0.1394  0.2141 -0.9866
 1285TIP3    H125414   6.151   1.536   3.069 -0.2516  0.6543  1.1062
 1285TIP3    H225415   6.277   1.566   3.147  1.9417  0.5753 -2.2147
 1286TIP3   OH225416   4.529   1.850   2.280  0.3312 -0.4731  0.4266
 1286TIP3    H125417   4.454   1.830   2.225 -0.8368 -0.0554  1.7950
 1286TIP3    H225418   4.593   1.889   2.221 -1.2069  0.7682 -0.4749
 1287TIP3   OH225419   3.858   5.855   0.827 -0.1032  0.1001 -0.1161
 1287TIP3    H125420   3.791   5.788   0.836 -1.4821  1.0740 -2.4948
 1287TIP3    H225421   3.917   5.821   0.760 -0.8301  1.2152 -1.3627
 1288TIP3   OH225422   4.636   5.512   0.078  0.3970  0.0270 -0.1722
 1288TIP3    H125423   4.549   5.548   0.062 -0.3475 -1.7715 -0.3578
 1288TIP3    H225424   4.663   5.551   0.161 -1.1015 -0.2967  0.4962
 1289TIP3   OH225425   4.397   3.686   1.128  0.5564 -0.4430 -0.2589
 1289TIP3    H125426   4.437   3.606   1.163  2.9270  1.5613  2.1101
 1289TIP3    H225427   4.454   3.712   1.056  0.1033 -0.5982 -0.6755
 1290TIP3   OH225428   4.373   6.605   1.423 -0.4258  0.0819 -0.2665
 1290TIP3    H125429   4.365   6.698   1.406  0.3152  0.4577  1.2691
 1290TIP3    H225430   4.299   6.584   1.480 -0.8212 -0.3600 -0.9338
 1291TIP3   OH225431   0.674   3.947   1.168 -0.1621 -0.3512  0.3266
 1291TIP3    H125432   0.603   3.930   1.231 -0.3864  1.1603  0.5184
 1291TIP3    H225433   0.630   3.979   1.090  0.1628 -1.6959 -0.4526
 1292TIP3   OH225434   5.003   0.625   0.640 -0.0779 -0.3509  0.5115
 1292TIP3    H125435   4.952   0.567   0.583  0.5174 -0.3060 -0.0793
 1292TIP3    H225436   5.093   0.594   0.631  0.0832 -0.0676  1.1020
 1293TIP3   OH225437   1.813   3.893   0.983 -0.1171 -0.0765 -0.2269
 1293TIP3    H125438   1.760   3.940   1.048 -0.6228 -2.4628  1.2193
 1293TIP3    H225439   1.890   3.863   1.032  1.1792  0.8828 -1.5995
 1294TIP3   OH225440   3.400   6.299   8.352  0.2433 -0.0486  0.0985
 1294TIP3    H125441   3.494   6.311   8.344  0.3873  0.2884  1.9642
 1294TIP3    H225442   3.381   6.224   8.296  1.7592 -0.6576  0.3520
 1295TIP3   OH225443   6.629   3.779   2.136  0.0757 -0.0571 -0.7832
 1295TIP3    H125444   6.630   3.700   2.190 -0.5581  0.1894 -0.4120
 1295TIP3    H225445   6.663   3.750   2.051  2.0148 -0.2412 -0.0044
 1296TIP3   OH225446   4.942   2.828   2.374 -0.3873 -0.2181 -0.4809
 1296TIP3    H125447   4.946   2.753   2.433 -1.1737  0.6757  0.7656
 1296TIP3    H225448   4.855   2.866   2.389 -0.5488  0.1515 -2.1008
 1297TIP3   OH225449   4.633   2.932   8.300  0.4918 -0.4012  0.3928
 1297TIP3    H125450   4.538   2.925   8.287  0.4321  2.3834 -1.7314
 1297TIP3    H225451   4.645   2.926   8.395 -2.3890  3.1324  1.2094
 1298TIP3   OH225452   6.618   2.525   2.600  0.6253  0.1448 -0.3681
 1298TIP3    H125453   6.632   2.514   2.694  0.7200 -0.7748 -0.4772
 1298TIP3    H225454   6.682   2.591   2.574  2.0569 -1.0912 -0.1424
 1299TIP3   OH225455   1.450   3.363   2.700 -0.0722 -0.3869  0.2637
 1299TIP3    H125456   1.447   3.430   2.768 -0.4668  0.6212 -0.7088
 1299TIP3    H225457   1.500   3.292   2.738 -0.1610  0.2120  1.5498
 1300TIP3   OH225458   6.346   1.614   2.790  0.1490  0.1882  0.2187
 1300TIP3    H125459   6.423   1.669   2.774 -0.1269  0.2546 -0.9230
 1300TIP3    H225460   6.271   1.670   2.769 -0.1271 -0.7532 -1.5090
 1301TIP3   OH225461   3.663   1.518   0.469  0.4123  0.1088 -0.2070
 1301TIP3    H125462   3.594   1.489   0.410 -1.6227  1.1558  1.5089
 1301TIP3    H225463   3.701   1.595   0.426 -0.0423 -0.0005 -0.8082
 1302TIP3   OH225464   3.911   1.424   0.273 -0.5496 -0.3687  0.3812
 1302TIP3    H125465   3.953   1.472   0.202  1.3817 -1.2004  0.8788
 1302TIP3    H225466   3.900   1.488   0.343 -0.1118 -0.1333  0.2345
 1303TIP3   OH225467   2.134   5.608   0.014 -0.8443 -0.4907 -0.4635
 1303TIP3    H125468   2.055   5.554   0.016 -0.5910 -0.9322  2.5542
 1303TIP3    H225469   2.157   5.620   0.106  2.8843 -0.7721 -1.1888
 1304TIP3   OH225470   5.461   2.685   1.094  0.2585  0.5049 -0.4191
 1304TIP3    H125471   5.469   2.771   1.053  0.0527  0.9986  0.5306
 1304TIP3    H225472   5.452   2.705   1.187  0.2203 -0.5534 -0.1913
 1305TIP3   OH225473   3.696   5.743   2.575  0.2123  0.6976 -0.3113
 1305TIP3    H125474   3.776   5.791   2.597  0.4198  1.0356 -1.7209
 1305TIP3    H225475   3.708   5.658   2.617  0.4611  1.3760  1.0539
 1306TIP3   OH225476   1.798   1.491   1.942 -0.2107 -0.0460 -0.0147
 1306TIP3    H125477   1.712   1.515   1.975 -0.6365  0.6374 -1.5776
 1306TIP3    H225478   1.788   1.486   1.847  0.9364 -2.1311 -0.1073
 1307TIP3   OH225479   2.402   3.305   7.068 -0.0991 -0.2346  0.0786
 1307TIP3    H125480   2.317   3.324   7.028 -0.3472  0.0910  0.7484
 1307TIP3    H225481   2.449   3.255   7.001 -1.5359 -2.1385  0.3912
 1308TIP3   OH225482   2.434   4.310   1.673  0.5677  0.1637  0.0889
 1308TIP3    H125483   2.424   4.394   1.629 -0.1919 -0.1120 -0.2866
 1308TIP3    H225484   2.354   4.301   1.725 -0.1634 -1.0834 -1.1810
 1309TIP3   OH225485   0.681   1.656   3.278 -0.2885  0.4028 -0.3055
 1309TIP3    H125486   0.717   1.567   3.275  0.5878  0.7764 -0.9135
 1309TIP3    H225487   0.590   1.645   3.251 -0.8284 -0.6117  1.6869
 1310TIP3   OH225488   4.090   4.060   2.484 -0.0244 -0.2001 -0.4162
 1310TIP3    H125489   4.153   4.077   2.553 -0.3569 -0.6869  0.0127
 1310TIP3    H225490   4.041   3.984   2.514 -0.4657 -0.1490 -0.9860
 1311TIP3   OH225491   1.339   3.315   2.973  0.3913  0.1802  0.1544
 1311TIP3    H125492   1.403   3.253   3.008  0.9427  0.1880 -0.8019
 1311TIP3    H225493   1.390   3.395   2.955  0.2285  0.0433 -1.0253
 1312TIP3   OH225494   1.569   4.765   8.363  0.5301 -0.1379 -0.4006
 1312TIP3    H125495   1.490   4.770   8.418  1.3841  0.5196  0.8209
 1312TIP3    H225496   1.556   4.687   8.309 -1.5769  0.7052 -1.2413
 1313TIP3   OH225497   5.641   3.577   1.597  1.1361  0.1789 -0.1473
 1313TIP3    H125498   5.683   3.627   1.527  0.6977  0.1938 -0.3968
 1313TIP3    H225499   5.584   3.641   1.640  0.4635 -0.1401 -0.5575
 1314TIP3   OH225500   0.043   1.252   3.385 -0.0118  0.6008 -0.2624
 1314TIP3    H125501   0.061   1.343   3.409 -0.6503  0.1542  2.2053
 1314TIP3    H225502   0.128   1.217   3.356  0.4645  1.6910 -0.2260
 1315TIP3   OH225503   2.926   3.886   0.178 -0.8105  0.1861 -0.0293
 1315TIP3    H125504   2.977   3.967   0.168 -0.0409  0.0163  2.0718
 1315TIP3    H225505   2.989   3.816   0.165 -0.6913 -0.0320  1.5390
 1316TIP3   OH225506   0.865   4.224   7.314 -0.2998 -0.4011  0.3803
 1316TIP3    H125507   0.919   4.254   7.241 -0.3360  0.8788  0.8678
 1316TIP3    H225508   0.823   4.144   7.280  1.3656 -1.0675 -0.2174
 1317TIP3   OH225509   0.051   1.234   8.322  0.3431  0.2974 -0.0360
 1317TIP3    H125510  -0.029   1.204   8.364  0.5474  1.7861  1.5156
 1317TIP3    H225511   0.109   1.258   8.394  0.1151  4.5232 -1.0386
 1318TIP3   OH225512   6.713   4.530   2.150 -0.1058  0.0007 -0.2829
 1318TIP3    H125513   6.622   4.558   2.150 -0.4412 -1.0550 -0.3506
 1318TIP3    H225514   6.750   4.569   2.070 -1.0572 -1.2592 -1.3980
 1319TIP3   OH225515   2.450   2.856   8.709 -0.3007 -0.3360  0.4388
 1319TIP3    H125516   2.367   2.902   8.694  1.5117  2.6458 -1.5495
 1319TIP3    H225517   2.493   2.907   8.778  0.4960 -0.9579  0.4163
 1320TIP3   OH225518   2.229   2.378   0.217 -0.3946  0.1667 -0.1966
 1320TIP3    H125519   2.183   2.299   0.245 -1.2042  0.9584  0.8142
 1320TIP3    H225520   2.264   2.415   0.298 -1.4360  1.6857 -0.3873
 1321TIP3   OH225521   2.809   2.101   7.797 -0.0663  0.0788  0.6909
 1321TIP3    H125522   2.894   2.060   7.811 -0.0815 -0.0321  0.4567
 1321TIP3    H225523   2.761   2.039   7.741 -0.9306 -0.7154  2.2254
 1322TIP3   OH225524   2.801   5.921   0.672 -0.4366 -0.2923 -0.2975
 1322TIP3    H125525   2.878   5.977   0.679  0.3336 -1.2178 -1.0120
 1322TIP3    H225526   2.762   5.923   0.759 -0.2904  1.1259 -0.2446
 1323TIP3   OH225527   0.583   6.099   0.082  0.3644 -0.0792 -0.2294
 1323TIP3    H125528   0.610   6.191   0.083 -0.3508  0.2245 -2.4009
 1323TIP3    H225529   0.546   6.083   0.169  0.1376  1.8069  0.0611
 1324TIP3   OH225530   2.162   3.965   8.113 -0.7334  0.3609  0.3370
 1324TIP3    H125531   2.215   3.900   8.158 -0.7253 -0.3813 -0.7073
 1324TIP3    H225532   2.116   4.011   8.182 -1.4335 -1.3516  1.0553
 1325TIP3   OH225533   4.326   1.533   0.604 -0.1310  0.6824  0.0301
 1325TIP3    H125534   4.299   1.469   0.537 -0.0484  2.6680 -2.0329
 1325TIP3    H225535   4.259   1.526   0.672  0.2710 -2.0561  0.2707
 1326TIP3   OH225536   5.123   2.025   0.429  0.4393 -0.4070 -0.4516
 1326TIP3    H125537   5.152   1.953   0.373 -0.5515 -0.3731 -1.0471
 1326TIP3    H225538   5.198   2.044   0.486  0.5870 -2.1749  0.0044
 1327TIP3   OH225539   5.829   6.082   2.343 -0.3765 -0.3118  0.2924
 1327TIP3    H125540   5.923   6.088   2.360 -0.4865 -1.1619  1.3339
 1327TIP3    H225541   5.789   6.139   2.408 -0.6771 -1.6201  1.2878
 1328TIP3   OH225542   1.436   6.370   1.450  0.3325 -0.4871 -0.4688
 1328TIP3    H125543   1.394   6.312   1.514 -1.5560  0.7380 -0.5339
 1328TIP3    H225544   1.510   6.409   1.498  0.0981 -1.0221  0.3521
 1329TIP3   OH225545   1.419   1.521   7.643 -0.3560 -0.6565  0.1461
 1329TIP3    H125546   1.485   1.477   7.590 -0.3872  0.7553 -1.1129
 1329TIP3    H225547   1.335   1.495   7.605 -0.6442 -2.9238  2.1064
 1330TIP3   OH225548   3.823   3.090   0.099  0.1823 -0.6185 -0.2872
 1330TIP3    H125549   3.801   3.174   0.059  0.5681 -0.0258  0.7159
 1330TIP3    H225550   3.779   3.025   0.044 -1.1255  0.3044 -0.3827
 1331TIP3   OH225551   1.914   1.182   8.124 -0.6157 -0.2940 -0.2316
 1331TIP3    H125552   1.893   1.184   8.031  0.2349 -0.7821 -0.4460
 1331TIP3    H225553   2.001   1.141   8.128 -0.1481  0.7568  0.6868
 1332TIP3   OH225554   2.069   5.440   7.480  0.5174 -0.0512  0.3389
 1332TIP3    H125555   2.041   5.483   7.400 -0.5764 -0.7800  0.3113
 1332TIP3    H225556   2.139   5.380   7.452  0.4751  0.0480  0.0192
 1333TIP3   OH225557   6.659   4.961   8.739 -0.3003  0.0297 -0.0716
 1333TIP3    H125558   6.714   5.039   8.746 -1.0552  0.5440  0.1855
 1333TIP3    H225559   6.573   4.995   8.714 -0.1922 -0.8669 -1.8454
 1334TIP3   OH225560   5.305   3.175   8.722  0.0465  0.3854  0.4095
 1334TIP3    H125561   5.222   3.223   8.716 -0.5885 -0.8232 -1.6888
 1334TIP3    H225562   5.281   3.089   8.758  0.0637 -0.5132 -1.5950
 1335TIP3   OH225563   0.115   4.055   8.055  0.2570 -0.0742 -0.5795
 1335TIP3    H125564   0.198   4.038   8.010  0.4182  1.7317 -1.0579
 1335TIP3    H225565   0.050   4.062   7.985  0.0550  0.3572 -0.3525
 1336TIP3   OH225566   2.170   2.676   0.099 -0.2736  0.4420  0.0809
 1336TIP3    H125567   2.155   2.582   0.091  0.2256  0.4407 -1.0380
 1336TIP3    H225568   2.138   2.698   0.186 -0.2558 -0.7890  0.4155
 1337TIP3   OH225569   4.787   3.645   0.727  0.4706 -0.3960  0.2594
 1337TIP3    H125570   4.710   3.682   0.683  1.2590  0.3862 -0.5162
 1337TIP3    H225571   4.792   3.555   0.695 -1.5791 -1.3314  2.3089
 1338TIP3   OH225572   5.631   6.499   1.091  0.0699 -0.2984  0.3727
 1338TIP3    H125573   5.589   6.500   1.177 -0.6296  2.1064  0.0768
 1338TIP3    H225574   5.566   6.459   1.033 -0.7054  0.7465  0.4703
 1339TIP3   OH225575   1.437   6.021   1.872 -0.1380  0.0530  0.5576
 1339TIP3    H125576   1.466   5.932   1.852 -1.2179 -0.4948  1.3218
 1339TIP3    H225577   1.471   6.038   1.960 -1.4550 -0.3287  1.1703
 1340TIP3   OH225578   3.882   2.722   2.037  0.0709  0.0942  0.0516
 1340TIP3    H125579   3.950   2.748   2.099  0.2807 -1.1117  0.3454
 1340TIP3    H225580   3.805   2.707   2.091 -0.6623  2.1113 -0.3506
 1341TIP3   OH225581   1.780   5.247   8.375  1.1566 -0.4492 -0.0549
 1341TIP3    H125582   1.824   5.309   8.316  0.6210 -0.4020 -0.4103
 1341TIP3    H225583   1.850   5.189   8.406  1.2341 -1.3649 -1.8477
 1342TIP3   OH225584   4.750   6.148   8.577  0.1899  0.3589  0.1278
 1342TIP3    H125585   4.750   6.074   8.517  1.5397  0.1574  0.3401
 1342TIP3    H225586   4.843   6.164   8.595 -0.1338  1.3191  1.0487
 1343TIP3   OH225587   1.391   4.214   8.698  0.4211 -0.0649 -0.2108
 1343TIP3    H125588   1.299   4.198   8.721  0.8905  0.1987  2.1072
 1343TIP3    H225589   1.429   4.127   8.689 -0.1888 -0.1890 -2.0150
 1344TIP3   OH225590   5.491   4.336   1.353 -0.7222 -0.5547  0.5207
 1344TIP3    H125591   5.509   4.429   1.364 -1.8576 -0.3306  0.5774
 1344TIP3    H225592   5.501   4.320   1.259  0.1242 -0.5340  0.5961
 1345TIP3   OH225593   1.029   6.425   0.465  0.4725  0.2031 -0.5965
 1345TIP3    H125594   1.118   6.427   0.431  0.2600 -2.8181 -1.6035
 1345TIP3    H225595   0.979   6.484   0.408  1.2115 -0.5459 -2.0431
 1346TIP3   OH225596   4.035   6.508   0.828 -0.3067 -0.4369 -0.1283
 1346TIP3    H125597   4.068   6.537   0.913 -0.1696 -0.8474 -0.0405
 1346TIP3    H225598   4.034   6.413   0.833  0.4707 -0.5077 -0.8696
 1347TIP3   OH225599   6.746   4.829   7.684 -0.2077  0.5095  0.2521
 1347TIP3    H125600   6.655   4.800   7.686  0.6564 -2.6655 -0.8759
 1347TIP3    H225601   6.751   4.890   7.611 -1.4310  0.7127  0.3244
 1348TIP3   OH225602   1.836   4.310   7.698  0.1926 -0.1292  0.2140
 1348TIP3    H125603   1.818   4.395   7.658  1.7786  0.4142  0.5886
 1348TIP3    H225604   1.907   4.327   7.760 -0.3946 -1.4772  1.3028
 1349TIP3   OH225605   0.514   3.715   0.023 -0.1510 -0.3231 -0.1479
 1349TIP3    H125606   0.597   3.669   0.008 -0.5112 -0.9833 -0.1503
 1349TIP3    H225607   0.461   3.653   0.074 -0.6882  0.0451 -0.2493
 1350TIP3   OH225608   0.746   3.045   2.819 -0.2620 -0.1834  0.2853
 1350TIP3    H125609   0.729   3.048   2.725 -2.8072 -0.6129  0.6386
 1350TIP3    H225610   0.696   3.119   2.854 -0.4889 -0.8453  1.4012
 1351TIP3   OH225611   6.170   3.230   8.583  0.1422 -0.3036 -0.0629
 1351TIP3    H125612   6.132   3.276   8.659  0.9735 -0.5792  0.5400
 1351TIP3    H225613   6.151   3.287   8.509  0.2029  0.4852  0.5121
 1352TIP3   OH225614   6.420   6.813   2.281  0.0627 -0.3966 -0.0969
 1352TIP3    H125615   6.411   6.881   2.214 -1.5142  1.1803  1.5668
 1352TIP3    H225616   6.488   6.846   2.340 -1.6456  0.5400  1.4747
 1353TIP3   OH225617   2.074   3.355   8.344 -0.5500  0.0942  0.5746
 1353TIP3    H125618   2.045   3.339   8.255  1.5664  0.7027 -0.2889
 1353TIP3    H225619   2.001   3.327   8.399 -2.2781  0.5994 -1.3543
 1354TIP3   OH225620   6.692   1.206   0.971 -0.1072  0.3454  0.0485
 1354TIP3    H125621   6.664   1.118   0.995 -1.7900  0.5926 -0.8656
 1354TIP3    H225622   6.611   1.256   0.965  0.9289  2.8357  3.5275
 1355TIP3   OH225623   1.035   0.449   1.197  0.5062 -0.1407  0.2464
 1355TIP3    H125624   1.102   0.468   1.261 -1.5404  1.4326  2.0686
 1355TIP3    H225625   1.032   0.526   1.140 -0.8611  0.5915  1.2562
 1356TIP3   OH225626   4.139   3.530   7.685  0.0666 -0.2529  0.1934
 1356TIP3    H125627   4.157   3.567   7.599  0.6383  0.3812  0.5750
 1356TIP3    H225628   4.044   3.542   7.696 -0.1918 -1.2791 -0.7616
 1357TIP3   OH225629   1.736   4.035   7.719  0.0099  0.0211 -0.1195
 1357TIP3    H125630   1.734   4.017   7.625 -0.0939 -1.4922  0.1550
 1357TIP3    H225631   1.741   4.131   7.724  0.7349  0.1078 -1.6697
 1358TIP3   OH225632   2.387   6.703   0.536 -0.3050 -1.0187 -0.0510
 1358TIP3    H125633   2.309   6.757   0.548  1.4233  2.6783 -3.3160
 1358TIP3    H225634   2.453   6.742   0.594 -0.1127 -2.5645  0.8513
 1359TIP3   OH225635   1.452   1.772   7.780 -0.7473  0.6250 -0.6459
 1359TIP3    H125636   1.461   1.682   7.749 -1.2614  0.1024  0.6445
 1359TIP3    H225637   1.515   1.822   7.728  1.5828 -0.9411  0.4932
 1360TIP3   OH225638   3.534   0.381   2.217 -0.3740  0.4666 -0.1742
 1360TIP3    H125639   3.481   0.455   2.246 -0.6891 -0.3296  1.3848
 1360TIP3    H225640   3.481   0.339   2.149 -1.4101  0.1535  0.7951
 1361TIP3   OH225641   3.767   4.768   0.720 -0.4675  0.4683  0.5121
 1361TIP3    H125642   3.829   4.716   0.772  0.6498  0.9260 -0.3083
 1361TIP3    H225643   3.682   4.731   0.740  0.1618 -0.7693  1.0056
 1362TIP3   OH225644   0.020   5.594   7.803  0.1879 -0.2567 -0.3372
 1362TIP3    H125645  -0.061   5.585   7.854  0.1193  0.1926 -0.3581
 1362TIP3    H225646   0.082   5.633   7.863 -0.3070  1.6232 -0.9704
 1363TIP3   OH225647   5.156   0.114   7.880  0.0241  0.0575 -0.3603
 1363TIP3    H125648   5.132   0.207   7.875 -0.5956  0.0323  1.5558
 1363TIP3    H225649   5.095   0.071   7.821  0.2767  0.8388 -1.2281
 1364TIP3   OH225650   1.113   3.150   7.327 -0.5468 -0.2676 -0.2670
 1364TIP3    H125651   1.125   3.072   7.272  1.2517  0.6904 -1.3522
 1364TIP3    H225652   1.131   3.223   7.268 -0.8454  0.9176  1.0586
 1365TIP3   OH225653   3.864   3.977   1.188  0.4803 -0.3543 -0.0036
 1365TIP3    H125654   3.825   4.048   1.137  0.0982  0.5665  1.4758
 1365TIP3    H225655   3.876   3.906   1.126  0.3996  0.8347 -1.4328
 1366TIP3   OH225656   1.254   0.343   0.195 -0.0592 -0.1561  0.5289
 1366TIP3    H125657   1.209   0.390   0.125  0.9058 -1.4345 -1.0149
 1366TIP3    H225658   1.185   0.323   0.258 -1.4110 -0.8549 -1.0904
 1367TIP3   OH225659   6.681   1.489   8.194 -0.6202 -0.0983 -0.4018
 1367TIP3    H125660   6.640   1.516   8.276  0.5653 -0.5079  0.3603
 1367TIP3    H225661   6.667   1.563   8.134 -0.2126  0.8418  0.6419
 1368TIP3   OH225662   2.774   5.908   1.823  0.1776  0.1283  0.4010
 1368TIP3    H125663   2.839   5.838   1.832  0.9673  0.9946  1.7139
 1368TIP3    H225664   2.825   5.984   1.794 -0.7729  0.0408 -1.6614
 1369TIP3   OH225665   4.186   1.520   1.589 -0.2051 -0.2272 -0.8881
 1369TIP3    H125666   4.138   1.437   1.593 -0.3808 -0.0745  0.4653
 1369TIP3    H225667   4.119   1.586   1.572 -0.5124 -0.0233  0.9273
 1370TIP3   OH225668   6.088   5.237   0.574 -0.4053  0.0990 -1.3444
 1370TIP3    H125669   6.114   5.180   0.647 -2.9577  1.4349  0.7754
 1370TIP3    H225670   6.161   5.231   0.512  1.4918 -1.8303  0.8688
 1371TIP3   OH225671   0.308   4.480   2.320  0.3059  0.1082 -0.8099
 1371TIP3    H125672   0.300   4.402   2.375  1.5694 -1.9241 -3.3072
 1371TIP3    H225673   0.255   4.546   2.365  0.7489 -1.5326  2.4562
 1372TIP3   OH225674   2.287   0.316   0.415  0.2518 -0.5641  0.3303
 1372TIP3    H125675   2.270   0.395   0.467  1.3509 -0.1070  0.0440
 1372TIP3    H225676   2.201   0.286   0.388 -0.1575  1.2764 -0.5992
 1373TIP3   OH225677   5.682   5.047   0.611  0.1957  0.0545 -0.3367
 1373TIP3    H125678   5.675   5.032   0.705  1.8165  0.7879 -0.0555
 1373TIP3    H225679   5.649   4.967   0.571  0.0584 -0.5155  0.8728
 1374TIP3   OH225680   0.091   3.675   7.900  0.2986  0.2553  0.0007
 1374TIP3    H125681   0.017   3.708   7.949 -0.8317 -2.1949  0.0963
 1374TIP3    H225682   0.164   3.677   7.962  0.0055  1.3943  0.3341
 1375TIP3   OH225683   0.302   3.643   3.019  0.2024 -0.0828 -0.1535
 1375TIP3    H125684   0.263   3.559   2.994  0.0006 -0.1493  0.3655
 1375TIP3    H225685   0.378   3.653   2.962  0.9334 -1.1922  0.5858
 1376TIP3   OH225686   4.460   0.770   2.188  0.0417  0.0397  0.2832
 1376TIP3    H125687   4.483   0.861   2.207 -0.8227  0.5762 -1.0761
 1376TIP3    H225688   4.437   0.733   2.274  1.2516  0.8308  0.9806
 1377TIP3   OH225689   2.367   5.024   1.897  0.4458  0.0654  0.2394
 1377TIP3    H125690   2.419   5.096   1.931  0.0872  0.4516 -0.0256
 1377TIP3    H225691   2.429   4.951   1.891  0.7914  0.3283  0.5783
 1378TIP3   OH225692   2.137   4.060   7.854  0.1432 -0.1924  0.0609
 1378TIP3    H125693   2.112   3.971   7.826 -0.8413 -0.4014  1.4894
 1378TIP3    H225694   2.100   4.068   7.941  2.0025  0.8897  0.8039
 1379TIP3   OH225695   2.346   6.625   8.326 -0.0840  0.0349 -0.4761
 1379TIP3    H125696   2.331   6.720   8.323  0.4307  0.1334 -0.0404
 1379TIP3    H225697   2.374   6.603   8.237 -0.3419  0.2709 -0.6167
 1380TIP3   OH225698   6.323   6.246   2.902  0.4268 -0.3527  0.6538
 1380TIP3    H125699   6.264   6.199   2.843 -0.6057  2.1698 -0.4676
 1380TIP3    H225700   6.265   6.296   2.959  1.4688  0.1091  1.3259
 1381TIP3   OH225701   5.114   2.631   1.615  0.3946  0.8250 -0.3586
 1381TIP3    H125702   5.145   2.592   1.534 -0.2079  0.3822 -0.3849
 1381TIP3    H225703   5.066   2.561   1.659  0.3119  1.1936  0.1597
 1382TIP3   OH225704   0.272   2.116   0.352 -0.1772 -0.5256 -0.5011
 1382TIP3    H125705   0.320   2.115   0.269 -0.6451 -1.0872 -0.7750
 1382TIP3    H225706   0.253   2.024   0.370  0.7911 -0.4904  0.7558
 1383TIP3   OH225707   3.699   2.860   8.224 -0.8697  0.3653  0.0669
 1383TIP3    H125708   3.628   2.830   8.280  0.1904 -0.0419  1.2178
 1383TIP3    H225709   3.679   2.822   8.138 -1.6600 -0.3255  0.5421
 1384TIP3   OH225710   5.256   4.811   0.843 -0.0535 -0.4265  0.3925
 1384TIP3    H125711   5.268   4.902   0.817  0.3100 -0.8671 -1.1137
 1384TIP3    H225712   5.177   4.811   0.896  0.1641  0.8140  0.7609
 1385TIP3   OH225713   3.682   1.671   8.699  0.4921 -0.5647 -0.1846
 1385TIP3    H125714   3.767   1.699   8.666  1.0410 -1.3082  0.5649
 1385TIP3    H225715   3.662   1.592   8.648  0.2433 -0.3918 -0.3585
 1386TIP3   OH225716   3.800   6.629   7.817 -0.0837  0.0623 -0.1248
 1386TIP3    H125717   3.781   6.552   7.762 -0.4989 -0.0959  0.2344
 1386TIP3    H225718   3.802   6.702   7.756  0.2675 -0.2276 -0.4648
 1387TIP3   OH225719   1.079   3.854   7.988  0.1931 -0.2100  0.6006
 1387TIP3    H125720   1.001   3.803   8.010 -0.2100  1.1902  2.7130
 1387TIP3    H225721   1.057   3.897   7.905  0.3894 -3.0002 -1.0307
 1388TIP3   OH225722   4.115   0.580   8.624 -0.1029  0.3682 -0.2244
 1388TIP3    H125723   4.156   0.644   8.566 -0.5311  1.4439  0.6264
 1388TIP3    H225724   4.040   0.546   8.575  0.5222  0.0070 -0.9411
 1389TIP3   OH225725   5.650   6.812   0.085 -0.3812  0.1942  0.2940
 1389TIP3    H125726   5.621   6.896   0.120 -0.5972 -0.5193  1.9607
 1389TIP3    H225727   5.680   6.764   0.162 -1.8087 -1.8657 -0.3391
 1390TIP3   OH225728   1.725   1.092   7.251 -0.3326 -0.9042 -0.1119
 1390TIP3    H125729   1.681   1.015   7.287 -1.6639 -0.7184 -1.2216
 1390TIP3    H225730   1.807   1.059   7.216 -0.1524 -1.5146  0.8482
 1391TIP3   OH225731   4.082   6.449   2.691 -0.2108  0.1331  0.0654
 1391TIP3    H125732   4.174   6.466   2.710 -0.3375  1.2276 -0.2517
 1391TIP3    H225733   4.066   6.492   2.607 -1.5286  1.8191  1.1025
 1392TIP3   OH225734   3.444   5.555   1.962  1.0663  0.1226 -0.2918
 1392TIP3    H125735   3.348   5.553   1.967  0.8556  3.2547 -0.9475
 1392TIP3    H225736   3.463   5.523   1.873  0.3307  2.0809 -1.2283
 1393TIP3   OH225737   1.129   4.013   0.933  0.4935  0.5438  0.2481
 1393TIP3    H125738   1.143   4.107   0.936 -0.3324  0.6559  1.4447
 1393TIP3    H225739   1.062   3.996   0.999  0.5731 -0.8786  0.0141
 1394TIP3   OH225740   2.486   1.808   0.779 -0.1719 -0.4258  0.9224
 1394TIP3    H125741   2.576   1.794   0.810  1.0910  1.8764 -1.3826
 1394TIP3    H225742   2.455   1.720   0.757  1.2782 -1.3384  2.2582
 1395TIP3   OH225743   5.951   0.893   0.102 -0.3368  0.4428 -0.7457
 1395TIP3    H125744   5.887   0.878   0.033 -2.1138  0.9846  0.7237
 1395TIP3    H225745   5.983   0.806   0.125 -0.3338  0.1925 -1.6410
 1396TIP3   OH225746   6.166   0.930   8.347  0.1454 -0.2091  0.1614
 1396TIP3    H125747   6.194   0.925   8.255 -0.3014  0.2579 -0.0087
 1396TIP3    H225748   6.086   0.982   8.344 -0.3016 -0.8526  0.7278
 1397TIP3   OH225749   1.504   2.471   7.507  0.5260 -0.3696 -0.0527
 1397TIP3    H125750   1.490   2.395   7.565  0.1451  0.1843  0.5912
 1397TIP3    H225751   1.567   2.439   7.442 -0.1100 -1.4352 -0.1793
 1398TIP3   OH225752   6.790   1.245   0.704  0.1210 -0.1021  0.5462
 1398TIP3    H125753   6.804   1.163   0.657  3.2802  0.0206  1.0872
 1398TIP3    H225754   6.773   1.218   0.794  0.2906 -0.1730  0.5567
 1399TIP3   OH225755   2.303   3.724   2.160  0.5147 -0.2576 -0.1039
 1399TIP3    H125756   2.274   3.777   2.085  0.1058  0.5895  0.6371
 1399TIP3    H225757   2.269   3.636   2.142  1.4058 -0.3576 -1.4677
 1400TIP3   OH225758   5.278   4.979   2.240  0.0950  0.0037  0.5795
 1400TIP3    H125759   5.217   5.038   2.285 -0.7941 -2.2008  2.4711
 1400TIP3    H225760   5.364   5.014   2.260 -0.4324  1.3372  0.6115
 1401TIP3   OH225761   6.381   3.011   7.526 -0.0267 -0.3317 -0.2706
 1401TIP3    H125762   6.467   3.013   7.484  0.8331 -2.8928  1.1337
 1401TIP3    H225763   6.327   2.956   7.470  0.8339 -2.9307  1.2802
 1402TIP3   OH225764   6.831   4.568   8.284  0.1424  0.0669  0.1244
 1402TIP3    H125765   6.790   4.482   8.295  0.9237 -0.0791  2.4766
 1402TIP3    H225766   6.758   4.629   8.283 -0.4745 -0.6282 -2.3779
 1403TIP3   OH225767   6.676   3.377   8.374  0.4427 -0.0281 -0.7673
 1403TIP3    H125768   6.732   3.392   8.299  1.0816  0.3264 -0.2285
 1403TIP3    H225769   6.596   3.338   8.337  1.0707 -0.6379 -1.5252
 1404TIP3   OH225770   1.885   1.284   2.126  0.0939  0.5641  0.1941
 1404TIP3    H125771   1.866   1.364   2.077  0.7175 -0.1155 -1.2583
 1404TIP3    H225772   1.925   1.314   2.207  0.4180  1.7272 -0.3712
 1405TIP3   OH225773   6.281   6.531   8.086  1.0530  0.3626  0.4371
 1405TIP3    H125774   6.320   6.444   8.080 -0.8821 -0.5125 -0.4063
 1405TIP3    H225775   6.354   6.591   8.076  2.3080 -1.1626  0.0557
 1406TIP3   OH225776   4.169   5.095   7.288 -0.2318  0.1418 -0.5664
 1406TIP3    H125777   4.128   5.022   7.243  0.6532  0.8571 -2.6533
 1406TIP3    H225778   4.184   5.161   7.219  2.3410  0.8037  0.4958
 1407TIP3   OH225779   6.570   3.539   7.717 -0.0481 -0.5904 -0.1218
 1407TIP3    H125780   6.637   3.496   7.664  0.6901  0.7247 -0.3054
 1407TIP3    H225781   6.533   3.606   7.659 -0.0925  0.0404  0.6224
 1408TIP3   OH225782   6.634   4.643   2.514 -0.1214  0.0948 -0.0220
 1408TIP3    H125783   6.598   4.690   2.438 -0.9860 -0.7339 -0.1366
 1408TIP3    H225784   6.565   4.646   2.579 -0.2199 -1.0559 -0.0509
 1409TIP3   OH225785   2.754   4.923   7.201  0.1628 -0.1388  0.2330
 1409TIP3    H125786   2.815   4.864   7.245  1.0912  0.0038 -0.8031
 1409TIP3    H225787   2.767   4.904   7.107 -0.5233  0.7382 -0.0470
 1410TIP3   OH225788   6.486   6.750   0.656 -0.1130 -0.1415  0.0438
 1410TIP3    H125789   6.446   6.737   0.570 -0.1684  0.9309 -0.1026
 1410TIP3    H225790   6.531   6.668   0.674  1.3370  0.2078 -1.7781
 1411TIP3   OH225791   6.047   3.603   8.475 -0.9937  0.0735 -0.3597
 1411TIP3    H125792   6.072   3.674   8.416  1.5000  1.3227  1.9773
 1411TIP3    H225793   6.078   3.523   8.430  0.9581  0.9816 -0.7663
 1412TIP3   OH225794   2.231   1.541   1.888 -0.7799  0.2692  0.1959
 1412TIP3    H125795   2.285   1.565   1.813 -1.4391 -1.6954 -0.9766
 1412TIP3    H225796   2.282   1.474   1.933 -1.1658  0.1817  0.5005
 1413TIP3   OH225797   4.212   5.242   2.321 -0.1929 -0.1126 -0.3162
 1413TIP3    H125798   4.170   5.255   2.236  1.3438  2.9190 -0.7418
 1413TIP3    H225799   4.140   5.234   2.382 -1.3859  0.6581 -1.5597
 1414TIP3   OH225800   6.075   1.046   0.823 -0.2198 -0.5450  0.3511
 1414TIP3    H125801   6.087   1.048   0.728  1.7512 -0.0817  0.5592
 1414TIP3    H225802   6.057   1.137   0.846 -0.2496 -0.5811  0.4662
 1415TIP3   OH225803   4.328   2.098   0.703  0.1335 -0.1235  0.5376
 1415TIP3    H125804   4.410   2.081   0.750  0.2068 -2.0145 -0.1732
 1415TIP3    H225805   4.259   2.070   0.764  0.1886 -1.6652 -0.0700
 1416TIP3   OH225806   2.529   3.763   1.135 -0.1783 -0.3149 -0.4472
 1416TIP3    H125807   2.527   3.732   1.044 -0.0329 -1.9966  0.1014
 1416TIP3    H225808   2.620   3.752   1.162 -0.5269 -1.2931  0.3765
 1417TIP3   OH225809   4.613   6.571   1.542  0.7424  0.0900 -0.1254
 1417TIP3    H125810   4.674   6.524   1.486  0.2329 -1.3238  0.4571
 1417TIP3    H225811   4.539   6.592   1.485  0.2838 -1.2255 -0.0422
 1418TIP3   OH225812   3.542   5.501   0.505 -0.1389  0.0109 -0.2720
 1418TIP3    H125813   3.605   5.538   0.443  0.5057  0.1524  0.4466
 1418TIP3    H225814   3.526   5.412   0.473  2.6953 -1.1232  1.0800
 1419TIP3   OH225815   3.082   4.659   2.907  0.1025 -0.0212  0.0218
 1419TIP3    H125816   3.161   4.690   2.862  0.5067 -0.8298  0.1514
 1419TIP3    H225817   3.021   4.638   2.837  0.0904  0.3679 -0.0870
 1420TIP3   OH225818   2.109   5.550   0.621 -0.3211  0.7927 -0.3521
 1420TIP3    H125819   2.070   5.552   0.708 -0.5939 -0.6847 -0.4123
 1420TIP3    H225820   2.155   5.466   0.618 -1.7409  0.0338 -2.2245
 1421TIP3   OH225821   3.582   5.770   0.016 -0.7011 -0.0985 -0.1733
 1421TIP3    H125822   3.523   5.839   0.045 -1.9315 -0.3941 -1.8491
 1421TIP3    H225823   3.661   5.817  -0.013 -0.4996  0.3721  1.0589
 1422TIP3   OH225824   4.372   3.265   0.374 -0.1905  0.1181  0.0294
 1422TIP3    H125825   4.387   3.238   0.283 -0.2833 -1.4272  0.4431
 1422TIP3    H225826   4.278   3.284   0.378  0.0928  1.8491 -0.5772
 1423TIP3   OH225827   2.174   0.799   8.165  0.0232 -0.4090  0.1477
 1423TIP3    H125828   2.151   0.885   8.130  0.1353  0.2927  1.7299
 1423TIP3    H225829   2.269   0.794   8.155 -0.0628 -0.6521 -0.5867
 1424TIP3   OH225830   3.676   1.198   8.458 -0.6496 -0.6896 -0.1127
 1424TIP3    H125831   3.598   1.171   8.410 -0.9079  1.2765 -0.8993
 1424TIP3    H225832   3.747   1.146   8.421 -1.1720 -0.6205 -1.2394
 1425TIP3   OH225833   1.239   4.250   6.955  0.4638 -0.8965  0.0985
 1425TIP3    H125834   1.233   4.312   6.884  1.3230  1.2469  1.7827
 1425TIP3    H225835   1.332   4.225   6.957  0.2183 -1.8719 -0.2576
 1426TIP3   OH225836   5.684   4.522   8.031  0.3659 -0.2514 -0.1741
 1426TIP3    H125837   5.627   4.564   7.966  0.9719  0.8630  0.0017
 1426TIP3    H225838   5.752   4.586   8.049 -0.2670 -0.1602  2.2408
 1427TIP3   OH225839   2.537   6.635   1.545  0.1180  0.6894  0.3463
 1427TIP3    H125840   2.588   6.581   1.606  0.4274  0.6217  0.0328
 1427TIP3    H225841   2.518   6.576   1.471  1.5830  1.3482 -0.6132
 1428TIP3   OH225842   4.788   6.103   1.324  0.0629 -1.0835 -0.1529
 1428TIP3    H125843   4.731   6.124   1.398  0.0063 -2.2303  0.1458
 1428TIP3    H225844   4.856   6.048   1.361  1.2648  0.0661 -0.5531
 1429TIP3   OH225845   3.120   4.542   7.671 -0.7191  0.3234 -0.1368
 1429TIP3    H125846   3.130   4.555   7.577  1.2910 -1.7081 -0.2935
 1429TIP3    H225847   3.089   4.452   7.679  0.7589 -0.1126  1.1459
 1430TIP3   OH225848   6.458   0.353   2.309  0.0389 -0.2848  0.4840
 1430TIP3    H125849   6.413   0.409   2.246  1.7940  0.6128 -0.0506
 1430TIP3    H225850   6.551   0.377   2.300  0.4933 -1.1484  2.4144
 1431TIP3   OH225851   5.789   3.468   2.466  0.2236 -0.0219  0.0144
 1431TIP3    H125852   5.863   3.446   2.523  1.6280  0.6855 -1.4465
 1431TIP3    H225853   5.773   3.561   2.482  0.9047  0.2897 -0.9909
 1432TIP3   OH225854   6.422   6.331   8.679  0.3059 -0.1740  0.2709
 1432TIP3    H125855   6.517   6.316   8.689  0.2053 -2.9721 -1.6714
 1432TIP3    H225856   6.392   6.257   8.626 -2.6240  1.8041 -1.0786
 1433TIP3   OH225857   2.575   3.533   7.506  0.6246  0.3858  0.3632
 1433TIP3    H125858   2.495   3.558   7.552  1.0983  2.6435  0.0835
 1433TIP3    H225859   2.545   3.492   7.425 -0.2046 -0.7154  1.1937
 1434TIP3   OH225860   2.553   1.349   0.847  0.4133 -0.3829 -0.1162
 1434TIP3    H125861   2.639   1.321   0.815 -0.2862 -1.6272 -0.9640
 1434TIP3    H225862   2.498   1.272   0.840 -0.8944  0.5072  0.0234
 1435TIP3   OH225863   5.095   1.538   0.895  0.5004  0.8569 -0.1147
 1435TIP3    H125864   5.119   1.548   0.803 -1.6450  1.0983 -0.6929
 1435TIP3    H225865   5.085   1.627   0.927 -0.3993  0.7701 -0.1310
 1436TIP3   OH225866   0.292   5.476   8.549  0.2085  0.3035 -0.4379
 1436TIP3    H125867   0.332   5.560   8.572  1.5553 -0.7111  1.1176
 1436TIP3    H225868   0.223   5.499   8.487 -1.1970  2.8889  1.8365
 1437TIP3   OH225869   1.713   3.353   6.935  0.4154 -0.0913  0.3727
 1437TIP3    H125870   1.673   3.273   6.901 -0.8495  0.7665 -0.2282
 1437TIP3    H225871   1.744   3.399   6.857 -0.2979  0.7403  0.5716
 1438TIP3   OH225872   2.247   3.167   1.860  0.4379 -0.0017  0.3698
 1438TIP3    H125873   2.171   3.226   1.848  0.7923  0.6020  1.0202
 1438TIP3    H225874   2.223   3.113   1.935  0.1585 -0.6268 -0.1627
 1439TIP3   OH225875   2.657   3.574   7.921 -0.1072  0.1327  0.3622
 1439TIP3    H125876   2.579   3.630   7.923  0.2998  0.8687 -1.9750
 1439TIP3    H225877   2.693   3.586   7.834  1.2262 -2.1710  0.5209
 1440TIP3   OH225878   1.104   1.528   1.181 -0.0897 -1.0566  0.7279
 1440TIP3    H125879   1.055   1.453   1.214 -0.4284 -0.9288  0.5241
 1440TIP3    H225880   1.038   1.594   1.163  0.1838 -0.7908  0.6865
 1441TIP3   OH225881   3.699   6.311   8.366  0.4496  0.5755  0.2663
 1441TIP3    H125882   3.794   6.307   8.354  0.2743  0.3181 -1.3967
 1441TIP3    H225883   3.684   6.392   8.415  1.3890  2.2312 -1.9446
 1442TIP3   OH225884   2.455   4.086   7.916  0.2247  0.3164  0.1864
 1442TIP3    H125885   2.444   4.136   7.835 -1.0285 -0.5362 -0.2016
 1442TIP3    H225886   2.377   4.030   7.920  0.6742 -0.2450  1.5635
 1443TIP3   OH225887   4.253   0.401   1.052 -0.1531  0.6332 -0.3251
 1443TIP3    H125888   4.309   0.411   1.129  0.5683 -0.1250 -0.7330
 1443TIP3    H225889   4.213   0.487   1.040  0.9176  1.1980 -0.0032
 1444TIP3   OH225890   3.036   0.827   7.395 -0.8496 -0.1447  0.5799
 1444TIP3    H125891   3.060   0.737   7.372  2.0656  0.6840 -0.0440
 1444TIP3    H225892   3.043   0.830   7.491  0.9879 -0.1866  0.4981
 1445TIP3   OH225893   2.624   2.529   8.492  0.4015 -0.0870  0.3383
 1445TIP3    H125894   2.695   2.511   8.431 -0.2997 -1.1839 -0.1965
 1445TIP3    H225895   2.653   2.489   8.574 -0.7736 -3.2445 -0.6253
 1446TIP3   OH225896   2.387   3.118   1.491  0.1855  0.0651  0.1349
 1446TIP3    H125897   2.449   3.080   1.553 -1.4086 -1.8133  0.7254
 1446TIP3    H225898   2.378   3.209   1.518  1.0559 -0.1982  1.4075
 1447TIP3   OH225899   4.722   3.402   1.067 -0.3584  0.6284 -0.2296
 1447TIP3    H125900   4.676   3.336   1.016 -0.3448 -0.0912  0.6652
 1447TIP3    H225901   4.677   3.484   1.047 -0.5892  0.2990 -1.0884
 1448TIP3   OH225902   2.083   1.844   1.943 -0.0549  0.6576  0.2962
 1448TIP3    H125903   2.047   1.829   2.030 -1.6423  1.7893 -0.1235
 1448TIP3    H225904   2.076   1.939   1.930  0.0064  0.4833 -1.1238
 1449TIP3   OH225905   3.762   0.946   1.821 -0.6277  0.2638 -0.2174
 1449TIP3    H125906   3.714   1.025   1.846 -0.8959  0.5533 -1.5507
 1449TIP3    H225907   3.849   0.977   1.797 -0.5059  0.0551 -0.0492
 1450TIP3   OH225908   4.511   0.127   8.647 -0.5335  0.7164 -0.4866
 1450TIP3    H125909   4.505   0.223   8.644  0.9872  1.0315  2.6564
 1450TIP3    H225910   4.593   0.107   8.602 -0.1878  1.0171  0.0084
 1451TIP3   OH225911   5.966   6.631   2.546  0.3661  0.5456  0.0894
 1451TIP3    H125912   6.005   6.619   2.632  1.7063  2.0254 -0.2729
 1451TIP3    H225913   6.041   6.640   2.486 -0.5155  1.7593 -0.8880
 1452TIP3   OH225914   6.029   5.138   2.092 -0.0255 -0.1233  0.4296
 1452TIP3    H125915   6.098   5.071   2.099 -0.7196 -0.7330  1.9464
 1452TIP3    H225916   5.950   5.095   2.125 -0.3385  1.6130  2.1511
 1453TIP3   OH225917   6.631   1.685   4.036 -0.4312  0.4742  0.1079
 1453TIP3    H125918   6.593   1.756   3.985 -3.1685 -0.7373  0.3139
 1453TIP3    H225919   6.640   1.613   3.975  2.7599  1.0005 -0.2093
 1454TIP3   OH225920   2.920   1.421   7.757  0.7164 -0.1603  0.5761
 1454TIP3    H125921   2.866   1.499   7.747 -2.0347 -1.7676  1.7832
 1454TIP3    H225922   2.922   1.405   7.851  0.0958 -2.2399  0.2850
 1455TIP3   OH225923   5.674   2.020   0.421  0.0763 -0.1815 -0.7370
 1455TIP3    H125924   5.733   1.946   0.409  0.8915  0.1177  1.1164
 1455TIP3    H225925   5.729   2.089   0.456 -1.2490  0.2809  0.5359
 1456TIP3   OH225926   5.710   5.751   7.736 -0.7643  0.3159 -0.5203
 1456TIP3    H125927   5.731   5.688   7.805 -2.4309 -0.1090 -0.3642
 1456TIP3    H225928   5.651   5.704   7.677 -1.2303  1.4115 -0.9561
 1457TIP3   OH225929   0.623   6.578   7.406 -0.3258 -0.1807  0.6585
 1457TIP3    H125930   0.649   6.638   7.476 -1.3516  0.7787  0.2313
 1457TIP3    H225931   0.562   6.628   7.352 -1.2218 -1.6111  0.2893
 1458TIP3   OH225932   3.624   3.210   1.011 -0.0587  0.6113  0.2124
 1458TIP3    H125933   3.580   3.290   1.038  0.6588  0.9045  0.5440
 1458TIP3    H225934   3.686   3.192   1.082  2.2004  1.6297 -1.4000
 1459TIP3   OH225935   3.040   1.845   0.455 -0.0517  0.1474  0.3855
 1459TIP3    H125936   3.110   1.785   0.482 -0.6002 -0.5438  0.3045
 1459TIP3    H225937   3.085   1.927   0.435  0.5848  0.1196  1.6134
 1460TIP3   OH225938   3.734   4.808   0.436  0.6391  0.1826  0.1330
 1460TIP3    H125939   3.740   4.747   0.510 -1.0389 -0.2425 -0.0258
 1460TIP3    H225940   3.736   4.751   0.358 -1.1988  0.2261 -0.0095
 1461TIP3   OH225941   0.703   5.145   6.821  0.0275  0.6645 -0.4947
 1461TIP3    H125942   0.659   5.060   6.827  3.8432 -1.5223 -0.2654
 1461TIP3    H225943   0.697   5.169   6.729 -1.1420  0.1863 -0.5524
 1462TIP3   OH225944   0.517   5.051   1.388 -0.4188  0.2175 -0.4478
 1462TIP3    H125945   0.544   5.026   1.300 -0.5658  2.1332 -1.0826
 1462TIP3    H225946   0.530   5.146   1.391 -1.3186  0.3265  1.2879
 1463TIP3   OH225947   6.358   2.120   1.302 -0.3623  0.4164  0.0534
 1463TIP3    H125948   6.407   2.148   1.225 -1.3015  2.0579  0.0047
 1463TIP3    H225949   6.423   2.112   1.371  0.3405 -0.0739 -0.6544
 1464TIP3   OH225950   0.358   2.655   0.900 -0.4083 -0.4065  0.1967
 1464TIP3    H125951   0.439   2.701   0.923  0.2665 -0.1306 -2.3995
 1464TIP3    H225952   0.291   2.724   0.899 -0.2598 -0.2597  0.3717
 1465TIP3   OH225953   2.545   5.154   7.372  0.2742 -0.2570  0.5273
 1465TIP3    H125954   2.459   5.119   7.347  0.4067  0.3428 -0.9038
 1465TIP3    H225955   2.526   5.235   7.418  0.0320 -1.0803  1.9110
 1466TIP3   OH225956   6.697   3.192   2.174 -0.6094 -0.1214 -0.0535
 1466TIP3    H125957   6.689   3.280   2.139 -0.4329 -0.5224 -1.1418
 1466TIP3    H225958   6.703   3.136   2.097  2.7313 -0.8123  0.5712
 1467TIP3   OH225959   6.305   4.925   8.450  0.2412  0.3180  0.0391
 1467TIP3    H125960   6.349   4.949   8.532 -0.5216 -0.3899  0.6774
 1467TIP3    H225961   6.213   4.916   8.474 -0.0482  0.4312 -0.9821
 1468TIP3   OH225962   0.192   2.873   8.351 -0.0329  0.6143 -0.0066
 1468TIP3    H125963   0.104   2.911   8.350  0.2023  1.3192 -3.1423
 1468TIP3    H225964   0.187   2.803   8.417 -2.6047  1.3260  0.6589
 1469TIP3   OH225965   5.091   5.353   0.946  0.3906  0.2037 -0.2198
 1469TIP3    H125966   5.025   5.369   0.879  0.3005 -1.1175 -0.4669
 1469TIP3    H225967   5.153   5.426   0.937 -2.0130  2.6533  1.3361
 1470TIP3   OH225968   6.415   1.185   0.992  0.1030  0.1916 -0.0696
 1470TIP3    H125969   6.427   1.175   1.087  0.9011 -0.3823 -0.2269
 1470TIP3    H225970   6.379   1.102   0.964  1.3642 -0.2273 -0.5059
 1471TIP3   OH225971   5.628   2.568   7.895  0.3504 -0.0847 -0.4925
 1471TIP3    H125972   5.672   2.483   7.896  0.1660 -0.3253  3.3643
 1471TIP3    H225973   5.538   2.549   7.920  0.4001  1.2000  0.8384
 1472TIP3   OH225974   5.471   0.256   2.571 -0.7991 -0.1485  0.2503
 1472TIP3    H125975   5.543   0.230   2.628 -1.3863 -0.4148  0.8900
 1472TIP3    H225976   5.392   0.233   2.620 -1.3644  1.9363  0.4322
 1473TIP3   OH225977   1.958   1.001   2.885  0.2083  0.2339 -0.1153
 1473TIP3    H125978   2.050   0.981   2.868 -0.0340 -2.2025  0.9076
 1473TIP3    H225979   1.957   1.093   2.911  2.6531 -0.1372  1.6699
 1474TIP3   OH225980   0.012   6.041   1.573 -0.1141  0.2174  0.4113
 1474TIP3    H125981  -0.020   5.979   1.638 -1.4174  1.1296  0.6670
 1474TIP3    H225982   0.065   6.103   1.623 -0.8683  0.7439  0.5686
 1475TIP3   OH225983   5.685   4.893   8.600  0.2700 -0.3356 -0.7616
 1475TIP3    H125984   5.625   4.818   8.603  0.1325 -0.1780  1.1117
 1475TIP3    H225985   5.772   4.854   8.605  0.2498 -0.4335 -1.1317
 1476TIP3   OH225986   5.325   5.104   1.558 -0.2289  0.0246  0.3467
 1476TIP3    H125987   5.244   5.153   1.576 -0.1751 -0.6183  2.5448
 1476TIP3    H225988   5.392   5.147   1.611  0.5649 -0.3829 -0.3049
 1477TIP3   OH225989   6.105   3.896   1.252  0.0109  0.1427 -0.3801
 1477TIP3    H125990   6.057   3.882   1.170  0.7955 -1.7042 -0.5691
 1477TIP3    H225991   6.186   3.940   1.226 -0.0267  0.1337 -0.5123
 1478TIP3   OH225992   6.424   5.472   7.659  0.1529 -0.0126  0.4056
 1478TIP3    H125993   6.431   5.567   7.655  2.1539 -0.1441 -1.3189
 1478TIP3    H225994   6.439   5.444   7.569 -1.1753 -1.9452  0.7337
 1479TIP3   OH225995   4.739   0.509   1.809  0.7035 -0.1252 -0.4286
 1479TIP3    H125996   4.668   0.456   1.846  0.6398  1.1676  1.3905
 1479TIP3    H225997   4.739   0.589   1.860  1.3807  1.3095 -2.5393
 1480TIP3   OH225998   2.342   5.343   2.016  0.1146  0.4668 -0.5281
 1480TIP3    H125999   2.417   5.368   2.070 -0.8680 -0.1138  1.1781
 1480TIP3    H226000   2.371   5.357   1.926  1.1999  3.2181  0.1696
 1481TIP3   OH226001   5.997   5.935   7.193  0.3802 -0.5425  0.0168
 1481TIP3    H126002   6.074   5.969   7.239  0.7178 -0.7145 -0.4069
 1481TIP3    H226003   6.025   5.849   7.161 -0.0975 -0.7463  0.1282
 1482TIP3   OH226004   0.541   2.738   2.820 -0.0152  0.1023 -0.0146
 1482TIP3    H126005   0.524   2.652   2.859 -0.5988  0.2941  0.1627
 1482TIP3    H226006   0.454   2.774   2.802  0.1802 -0.6987 -3.1411
 1483TIP3   OH226007   4.952   0.261   1.494  0.5751 -0.4228  0.1895
 1483TIP3    H126008   4.960   0.169   1.467  0.1613 -0.1361 -0.9585
 1483TIP3    H226009   4.962   0.259   1.589 -2.7117 -2.0820  0.6305
 1484TIP3   OH226010   0.537   5.960   1.796 -0.0637 -0.5603  0.6225
 1484TIP3    H126011   0.604   5.898   1.768 -0.3370  0.6863 -3.4575
 1484TIP3    H226012   0.456   5.909   1.795  0.1051 -0.8311  0.1125
 1485TIP3   OH226013   1.889   5.444   8.750 -0.5079 -0.0192 -0.1842
 1485TIP3    H126014   1.806   5.485   8.727 -1.0043 -1.6386 -1.4345
 1485TIP3    H226015   1.875   5.408   8.837 -1.0602 -0.1000 -0.3017
 1486TIP3   OH226016   0.684   4.516   0.053 -0.2541  0.0719  0.0503
 1486TIP3    H126017   0.667   4.499  -0.039 -3.4462  0.1165  0.5235
 1486TIP3    H226018   0.717   4.606   0.055  0.4547 -0.1409 -1.0631
 1487TIP3   OH226019   1.992   3.630   8.391  0.6071 -0.0905  0.0863
 1487TIP3    H126020   1.976   3.649   8.484 -0.2821 -1.6292  0.2957
 1487TIP3    H226021   2.005   3.535   8.389  1.6002  0.0605 -1.2493
 1488TIP3   OH226022   2.606   6.356   8.240  0.2276  0.6605 -0.4649
 1488TIP3    H126023   2.659   6.363   8.160  1.9632  0.5188  0.6209
 1488TIP3    H226024   2.647   6.286   8.289 -0.9204  0.6438  0.4942
 1489TIP3   OH226025   3.399   3.103   0.359 -0.3582  0.2410  0.0565
 1489TIP3    H126026   3.348   3.108   0.440 -1.0794 -0.4450 -0.3439
 1489TIP3    H226027   3.481   3.061   0.384 -1.1777 -1.3700  0.1735
 1490TIP3   OH226028   1.927   4.877   7.370 -0.4742 -0.1915 -0.2783
 1490TIP3    H126029   1.973   4.937   7.311  0.1937 -1.9122 -1.6103
 1490TIP3    H226030   1.988   4.863   7.442 -0.7942  0.9941  0.2394
 1491TIP3   OH226031   3.038   2.750   1.476  0.3536  0.8137 -0.3409
 1491TIP3    H126032   3.101   2.678   1.482 -0.0101  0.5823  1.7887
 1491TIP3    H226033   2.989   2.744   1.558 -0.7373  2.5436 -0.8315
 1492TIP3   OH226034   1.083   2.518   1.142 -0.4806  0.2729  0.4038
 1492TIP3    H126035   1.022   2.508   1.069  0.9378 -0.5763 -0.7312
 1492TIP3    H226036   1.031   2.558   1.212 -2.3596 -0.5663 -0.4440
 1493TIP3   OH226037   2.657   5.533   7.212  0.7187  0.1340  0.0193
 1493TIP3    H126038   2.660   5.590   7.289 -0.9369  1.7781 -1.0425
 1493TIP3    H226039   2.570   5.495   7.213  0.2844  0.9808 -1.5214
 1494TIP3   OH226040   2.646   6.077   0.102  0.2649  0.3309  0.2654
 1494TIP3    H126041   2.677   6.167   0.087  1.9375 -0.2086  0.2781
 1494TIP3    H226042   2.668   6.061   0.194 -0.5161  0.0797  0.4108
 1495TIP3   OH226043   2.711   3.103   6.699 -0.0977 -0.2859 -0.3062
 1495TIP3    H126044   2.698   3.177   6.641 -0.2423 -1.2763 -1.5889
 1495TIP3    H226045   2.630   3.098   6.750 -0.7799 -0.5613 -1.3948
 1496TIP3   OH226046   6.342   3.671   2.079 -0.3538  0.1319 -0.8722
 1496TIP3    H126047   6.268   3.678   2.139  0.2878 -1.1224  0.1196
 1496TIP3    H226048   6.312   3.714   1.999 -1.6046  0.9455 -0.0104
 1497TIP3   OH226049   0.934   4.613   1.415  0.3377 -0.1741 -0.4435
 1497TIP3    H126050   1.016   4.646   1.454  0.7597  0.4608 -1.7968
 1497TIP3    H226051   0.875   4.688   1.418 -0.1342 -0.5666  0.3229
 1498TIP3   OH226052   3.505   2.415   8.640  0.1552 -0.4255  0.2967
 1498TIP3    H126053   3.448   2.485   8.608  1.2384  0.2925 -0.1521
 1498TIP3    H226054   3.517   2.435   8.733  2.1184  1.2757 -0.2312
 1499TIP3   OH226055   6.086   6.127   2.157 -0.4341  0.4926  0.1142
 1499TIP3    H126056   6.127   6.179   2.226  1.4318  2.1405 -2.0711
 1499TIP3    H226057   6.001   6.169   2.143  0.2848  1.8780 -0.3531
 1500TIP3   OH226058   2.864   5.217   0.829 -0.6332  0.0377  0.4977
 1500TIP3    H126059   2.960   5.217   0.822 -0.6878 -0.2383 -0.4234
 1500TIP3    H226060   2.834   5.223   0.738 -1.4988  1.6730  0.8574
 1501TIP3   OH226061   5.529   3.906   8.760 -0.3966 -0.3773 -0.7157
 1501TIP3    H126062   5.529   3.824   8.809  0.3550 -0.7721 -1.3411
 1501TIP3    H226063   5.438   3.934   8.759 -0.3096  0.1885  1.7755
 1502TIP3   OH226064   4.006   4.922   8.129 -0.0009  0.2287  0.1425
 1502TIP3    H126065   4.073   4.973   8.175 -0.3754  0.0840  0.8694
 1502TIP3    H226066   4.046   4.836   8.115 -0.2717 -0.0941  1.2246
 1503TIP3   OH226067   2.233   0.631   1.998 -0.0751  0.0641  0.2692
 1503TIP3    H126068   2.304   0.582   1.956 -0.5220 -1.3651  1.0883
 1503TIP3    H226069   2.266   0.652   2.085 -1.0475 -1.7693  1.1562
 1504TIP3   OH226070   5.576   1.935   1.537 -0.2633  0.3812 -0.4441
 1504TIP3    H126071   5.638   1.917   1.467  1.4341 -0.3811  1.1557
 1504TIP3    H226072   5.628   1.975   1.606 -2.0511  1.9453  0.0745
 1505TIP3   OH226073   4.540   0.913   2.743 -0.0336  0.1143  0.1163
 1505TIP3    H126074   4.630   0.881   2.742  0.3105  1.0575 -1.3694
 1505TIP3    H226075   4.547   1.006   2.720 -1.4699 -0.0350 -1.0529
 1506TIP3   OH226076   5.685   0.710   7.935 -0.0208  0.3137 -0.4604
 1506TIP3    H126077   5.605   0.753   7.965  0.7631  1.2786  0.3372
 1506TIP3    H226078   5.735   0.780   7.892  1.6317  0.4530  1.5469
 1507TIP3   OH226079   2.168   1.465   8.113 -1.0122  0.0139 -0.2408
 1507TIP3    H126080   2.108   1.454   8.039 -3.3226 -1.4815  1.7232
 1507TIP3    H226081   2.236   1.399   8.098 -0.3855  0.9745 -1.9213
 1508TIP3   OH226082   6.490   0.172   1.588  0.0551  0.3111 -0.2437
 1508TIP3    H126083   6.489   0.241   1.522  0.9317  0.5498 -0.0134
 1508TIP3    H226084   6.555   0.109   1.556 -0.0459  0.0653  0.0272
 1509TIP3   OH226085   3.704   4.116   1.020  0.3083 -0.4256 -0.3536
 1509TIP3    H126086   3.706   4.193   0.962 -0.4536  0.2533  0.4927
 1509TIP3    H226087   3.701   4.042   0.960  1.9700  0.1395 -1.2086
 1510TIP3   OH226088   3.807   6.358   8.026 -0.2504 -0.0788  0.0794
 1510TIP3    H126089   3.825   6.266   8.044 -0.0292 -0.1346 -0.4114
 1510TIP3    H226090   3.735   6.381   8.085 -0.4140 -0.6124  0.0865
 1511TIP3   OH226091   4.874   4.433   0.901  0.1115 -0.2260  0.2853
 1511TIP3    H126092   4.875   4.342   0.874 -1.9552  0.0548 -0.9018
 1511TIP3    H226093   4.957   4.469   0.868  1.4020 -1.8325  1.5921
 1512TIP3   OH226094   5.885   1.282   3.037 -0.0712 -0.1155  0.1343
 1512TIP3    H126095   5.930   1.303   3.120  1.0677 -2.2611  0.1272
 1512TIP3    H226096   5.812   1.226   3.063  1.2110 -2.1123 -0.3807
 1513TIP3   OH226097   2.357   5.255   1.292  0.2668 -0.3562 -0.6986
 1513TIP3    H126098   2.447   5.277   1.317  0.8075 -2.6123 -0.4319
 1513TIP3    H226099   2.342   5.168   1.331 -2.2990  0.2711 -0.1125
 1514TIP3   OH226100   0.734   5.309   1.180 -0.5665 -0.0880 -0.6559
 1514TIP3    H126101   0.816   5.260   1.169 -0.2315  0.7436 -2.1957
 1514TIP3    H226102   0.740   5.379   1.115 -2.0805  0.5746 -0.1110
 1515TIP3   OH226103   3.734   6.091   0.876 -0.2948 -0.3372 -0.0049
 1515TIP3    H126104   3.789   6.013   0.887  0.6929  0.4566  0.8422
 1515TIP3    H226105   3.777   6.159   0.928 -1.3787  0.6685 -0.3706
 1516TIP3   OH226106   6.324   1.588   1.560 -0.2846 -0.4743  0.1582
 1516TIP3    H126107   6.229   1.578   1.563 -0.2637 -0.6190  0.4331
 1516TIP3    H226108   6.350   1.597   1.652 -0.2287  1.5995 -0.0139
 1517TIP3   OH226109   6.695   3.628   8.632  0.2052  0.7171 -0.1472
 1517TIP3    H126110   6.708   3.633   8.538  0.1840 -1.2217 -0.2917
 1517TIP3    H226111   6.769   3.577   8.664 -0.1937  0.6966  0.7895
 1518TIP3   OH226112   6.373   5.699   8.726 -0.2842 -0.2981  0.5484
 1518TIP3    H126113   6.336   5.787   8.718 -0.2815 -0.4268 -1.7103
 1518TIP3    H226114   6.299   5.645   8.756 -1.3746 -0.1279 -1.6154
 1519TIP3   OH226115   5.264   3.937   1.242  0.1135 -0.1164  0.2997
 1519TIP3    H126116   5.230   3.849   1.256  1.7628 -0.8079  0.2481
 1519TIP3    H226117   5.356   3.924   1.217  0.3130  1.6026 -0.0382
 1520TIP3   OH226118   3.999   0.245   7.288 -0.3607  0.2135 -0.0728
 1520TIP3    H126119   4.065   0.305   7.320  0.1954  0.1361 -1.0214
 1520TIP3    H226120   4.046   0.162   7.274 -0.7668  0.0062 -0.2434
 1521TIP3   OH226121   2.664   4.415   8.530  0.1776  0.1057  0.0359
 1521TIP3    H126122   2.624   4.420   8.618 -0.2412 -0.2696 -0.1264
 1521TIP3    H226123   2.711   4.497   8.520  0.1804  0.1764  0.5940
 1522TIP3   OH226124   3.502   5.991   2.553  0.1839 -0.2623 -0.2904
 1522TIP3    H126125   3.489   5.966   2.645  0.0789  3.6767  0.9357
 1522TIP3    H226126   3.595   5.974   2.537  0.6069  0.5354  1.1261
 1523TIP3   OH226127   5.791   2.280   0.103 -0.6122  0.2464 -0.5153
 1523TIP3    H126128   5.821   2.298   0.014  1.6082 -0.2720  0.0800
 1523TIP3    H226129   5.820   2.355   0.154  0.7513 -0.7765  0.2863
 1524TIP3   OH226130   2.251   3.711   2.920 -0.1324 -0.3814  0.6958
 1524TIP3    H126131   2.157   3.692   2.929 -0.7607  0.4913 -2.4952
 1524TIP3    H226132   2.260   3.802   2.945 -0.3633 -0.1886  0.1088
 1525TIP3   OH226133   5.799   1.691   3.226  0.3529 -0.0325  0.0743
 1525TIP3    H126134   5.768   1.627   3.292  1.7607  0.0325  0.8307
 1525TIP3    H226135   5.840   1.760   3.278  0.8068  0.4036 -0.8567
 1526TIP3   OH226136   5.360   2.791   2.161  0.4623  0.3234 -0.2710
 1526TIP3    H126137   5.341   2.698   2.170  1.7058 -0.1125 -1.7075
 1526TIP3    H226138   5.424   2.796   2.090 -0.2627  2.3508 -0.8664
 1527TIP3   OH226139   5.171   0.733   1.900  0.0530 -0.5998  0.2586
 1527TIP3    H126140   5.120   0.653   1.882  0.8631 -0.4841 -3.3439
 1527TIP3    H226141   5.127   0.801   1.850  0.2275  0.9647  2.1273
 1528TIP3   OH226142   0.089   5.331   8.398 -0.2022 -0.3409  0.8833
 1528TIP3    H126143   0.081   5.243   8.361  0.4497  0.2291 -0.6767
 1528TIP3    H226144   0.026   5.332   8.470 -2.5169 -1.1016 -1.0027
 1529TIP3   OH226145   3.079   1.997   7.796  0.4470  0.7442 -0.1488
 1529TIP3    H126146   3.146   1.933   7.819 -2.0108 -3.3681 -2.9745
 1529TIP3    H226147   3.114   2.041   7.718  0.1420 -1.1840 -1.4504
 1530TIP3   OH226148   1.090   2.152   1.911  0.2037  0.0790 -0.3726
 1530TIP3    H126149   1.035   2.102   1.851 -0.5025  0.3346  0.0592
 1530TIP3    H226150   1.157   2.191   1.854 -0.7152  0.6779 -1.0605
 1531TIP3   OH226151   3.161   5.698   2.047 -0.3742 -0.2367  0.1203
 1531TIP3    H126152   3.232   5.758   2.069 -0.8235  0.9979 -1.6168
 1531TIP3    H226153   3.161   5.635   2.118  0.1247  1.7952  2.0261
 1532TIP3   OH226154   3.462   4.879   7.701 -0.1490 -0.5589  0.5942
 1532TIP3    H126155   3.503   4.794   7.684 -0.3378 -1.2709  3.2241
 1532TIP3    H226156   3.370   4.858   7.718  0.0839 -0.1028  2.7408
 1533TIP3   OH226157   3.855   3.184   0.612  0.1221  0.9465  0.2475
 1533TIP3    H126158   3.809   3.246   0.555  0.4253  0.6636 -0.3105
 1533TIP3    H226159   3.800   3.178   0.690 -0.0429  1.7198  0.1988
 1534TIP3   OH226160   1.840   2.843   1.583 -0.3487  0.1921 -0.2828
 1534TIP3    H126161   1.763   2.889   1.549  0.4901  1.8826 -0.0447
 1534TIP3    H226162   1.912   2.903   1.566  0.4097  0.2657  2.6604
 1535TIP3   OH226163   5.246   4.714   0.304 -0.0613 -0.1298  0.6711
 1535TIP3    H126164   5.151   4.700   0.305 -0.2106  0.8462  0.9589
 1535TIP3    H226165   5.271   4.705   0.213 -0.5317  0.2473  0.5013
 1536TIP3   OH226166   1.654   6.714   7.760 -0.2730  0.4035  0.0251
 1536TIP3    H126167   1.578   6.715   7.819 -0.6700  0.5756 -0.4760
 1536TIP3    H226168   1.702   6.794   7.781 -1.3991  1.4161 -1.1259
 1537TIP3   OH226169   0.282   0.835   2.050  0.3629  0.7201  0.2446
 1537TIP3    H126170   0.191   0.828   2.021  0.0114  0.0573  1.4398
 1537TIP3    H226171   0.301   0.929   2.045 -0.5525  0.9330  0.4652
 1538TIP3   OH226172   5.014   1.201   7.327 -0.0233 -0.1667 -0.2564
 1538TIP3    H126173   4.935   1.255   7.333  0.9351  1.4121 -1.1115
 1538TIP3    H226174   4.987   1.124   7.276 -1.4682 -0.6611  1.1688
 1539TIP3   OH226175   3.484   4.954   7.984 -0.0771  0.0013  0.8250
 1539TIP3    H126176   3.400   4.999   7.981  0.3097  0.7222  0.6100
 1539TIP3    H226177   3.494   4.916   7.897 -0.2298 -0.1796  0.8858
 1540TIP3   OH226178   0.720   5.648   1.287  0.0288 -0.0411 -0.4350
 1540TIP3    H126179   0.672   5.627   1.367 -2.0329  0.4823 -1.4782
 1540TIP3    H226180   0.719   5.744   1.283  0.6221 -0.0441 -0.8013
 1541TIP3   OH226181   1.882   0.087   2.489  0.7685  0.4722  0.4287
 1541TIP3    H126182   1.854   0.079   2.580 -1.4584 -0.0879 -0.2326
 1541TIP3    H226183   1.947   0.157   2.490 -0.1913  1.4172  2.2764
 1542TIP3   OH226184   0.397   5.683   7.773 -0.0109  0.0489  0.6183
 1542TIP3    H126185   0.313   5.647   7.746 -0.2943  0.1298  1.3815
 1542TIP3    H226186   0.423   5.741   7.700 -0.5758 -0.0290  0.3509
 1543TIP3   OH226187   6.685   0.493   1.537 -0.3199  0.3054 -0.1049
 1543TIP3    H126188   6.768   0.539   1.540  2.2360 -3.7147 -1.0425
 1543TIP3    H226189   6.668   0.466   1.627  0.8155 -0.9691 -0.2427
 1544TIP3   OH226190   1.767   4.116   2.154  0.0186 -0.2708  0.6247
 1544TIP3    H126191   1.678   4.096   2.127  0.5696 -1.1513 -0.6259
 1544TIP3    H226192   1.758   4.188   2.216 -1.5604 -0.4198  0.5919
 1545TIP3   OH226193   3.978   0.184   8.588  0.4014  0.3819  0.1577
 1545TIP3    H126194   3.888   0.212   8.606  0.5967  0.5938  0.8312
 1545TIP3    H226195   4.021   0.187   8.673  1.1508  0.6450 -0.2261
 1546TIP3   OH226196   4.346   0.428   8.439  0.7017  0.5867  0.0799
 1546TIP3    H126197   4.262   0.381   8.437  1.3594 -0.6243 -0.1725
 1546TIP3    H226198   4.323   0.518   8.463 -0.5928  0.1082  0.7224
 1547TIP3   OH226199   4.853   4.079   0.589 -0.2773 -0.5347  0.2400
 1547TIP3    H126200   4.766   4.070   0.551 -0.1434 -1.5962  0.1502
 1547TIP3    H226201   4.900   4.001   0.558  0.5336 -0.2478  0.7302
 1548TIP3   OH226202   6.754   4.694   8.664  0.2507 -0.3096 -0.5304
 1548TIP3    H126203   6.801   4.775   8.682  1.5211 -1.1194 -0.0620
 1548TIP3    H226204   6.706   4.675   8.745 -0.0151 -0.0676 -0.6268
 1549TIP3   OH226205   6.659   1.699   0.561  0.2744 -0.1585 -0.0481
 1549TIP3    H126206   6.732   1.637   0.562  0.8663  0.5245  0.4527
 1549TIP3    H226207   6.640   1.715   0.653  0.7468  1.1035 -0.1531
 1550TIP3   OH226208   5.925   4.568   8.315 -0.3529  0.2424 -0.0002
 1550TIP3    H126209   5.917   4.661   8.335 -1.1389  0.1763  0.0123
 1550TIP3    H226210   5.878   4.524   8.387 -1.2235 -0.0989 -0.7592
 1551TIP3   OH226211   2.149   3.939   2.306 -0.2248  0.2561  0.2986
 1551TIP3    H126212   2.234   3.938   2.351 -0.1065  1.4546  0.1415
 1551TIP3    H226213   2.171   3.953   2.214 -0.5006 -1.5248 -0.0693
 1552TIP3   OH226214   2.567   2.145   3.011 -0.2280 -0.1645 -0.5174
 1552TIP3    H126215   2.473   2.159   3.020 -0.4887 -1.7873 -0.3722
 1552TIP3    H226216   2.601   2.149   3.101  0.1314  1.9435 -0.6874
 1553TIP3   OH226217   4.198   0.375   7.902  0.6675 -0.1848  0.0480
 1553TIP3    H126218   4.200   0.359   7.807 -0.0265  0.7673 -0.1459
 1553TIP3    H226219   4.130   0.442   7.913  0.7524 -0.2767  1.2215
 1554TIP3   OH226220   0.350   3.664   2.311 -0.1569 -0.8199  0.7881
 1554TIP3    H126221   0.284   3.667   2.380  0.3037  0.7353  1.2005
 1554TIP3    H226222   0.427   3.706   2.350  0.8706 -1.9921  0.0928
 1555TIP3   OH226223   5.139   6.228   1.260  0.3108  0.0020  0.2378
 1555TIP3    H126224   5.101   6.144   1.287 -0.3424 -1.0589 -3.4383
 1555TIP3    H226225   5.231   6.208   1.243  0.7263  0.6583  1.6159
 1556TIP3   OH226226   2.968   5.523   7.718 -0.2125 -0.6213  0.3436
 1556TIP3    H126227   3.047   5.491   7.675  0.7355  1.3448  0.5372
 1556TIP3    H226228   2.932   5.587   7.657 -0.5688 -0.0808  1.1179
 1557TIP3   OH226229   0.552   6.299   3.033  0.0870  0.0364  0.0722
 1557TIP3    H126230   0.481   6.340   2.984 -0.6544  0.4502  1.4218
 1557TIP3    H226231   0.518   6.212   3.056 -0.7160  0.8225  2.1194
 1558TIP3   OH226232   6.267   1.141   8.537  0.1692  0.3002  0.0392
 1558TIP3    H126233   6.245   1.070   8.477  0.9110 -0.7638  0.9988
 1558TIP3    H226234   6.215   1.124   8.615  1.9168 -0.4113  1.0881
 1559TIP3   OH226235   2.385   6.386   0.220 -0.2830 -0.4081  0.5732
 1559TIP3    H126236   2.393   6.316   0.285  1.2592 -0.0292  0.8367
 1559TIP3    H226237   2.408   6.344   0.137 -1.5330 -0.7169  0.3655
 1560TIP3   OH226238   2.558   3.425   8.134  0.5536 -0.0337  0.4493
 1560TIP3    H126239   2.554   3.474   8.216  0.8237  0.6091  0.0781
 1560TIP3    H226240   2.524   3.485   8.068 -1.1461 -1.0636  0.3088
 1561TIP3   OH226241   6.319   3.199   0.170  0.1413  0.2439 -0.3710
 1561TIP3    H126242   6.241   3.253   0.157  0.8082  0.9990 -1.3439
 1561TIP3    H226243   6.348   3.221   0.259 -0.5468  0.2018 -0.1233
 1562TIP3   OH226244   3.800   1.692   0.340 -0.4908 -0.5665  0.5644
 1562TIP3    H126245   3.839   1.766   0.386  0.1772 -1.1876  1.0058
 1562TIP3    H226246   3.757   1.732   0.264  0.5474  0.2035  0.3471
 1563TIP3   OH226247   2.542   1.566   2.355  0.1334  0.5102 -0.5268
 1563TIP3    H126248   2.510   1.605   2.274 -1.4828  2.6257  1.0049
 1563TIP3    H226249   2.628   1.605   2.368  1.6369 -1.8615 -2.4444
 1564TIP3   OH226250   1.402   6.418   1.007 -0.3541 -0.2783 -0.6103
 1564TIP3    H126251   1.441   6.370   0.934  1.0984  0.3263 -0.2840
 1564TIP3    H226252   1.387   6.506   0.972  1.7292  0.4586  0.1532
 1565TIP3   OH226253   3.594   0.282   2.596 -0.4727 -0.5246  0.3630
 1565TIP3    H126254   3.644   0.228   2.657  0.9911 -0.9584 -1.1320
 1565TIP3    H226255   3.575   0.362   2.645 -2.0514 -2.0060  2.3846
 1566TIP3   OH226256   6.336   6.243   0.306  0.4367  0.0991  0.2285
 1566TIP3    H126257   6.387   6.311   0.262  0.5195 -0.6693 -0.8912
 1566TIP3    H226258   6.400   6.178   0.334  0.1930 -0.3660 -0.2670
 1567TIP3   OH226259   1.523   1.432   2.433  0.1742  0.0984  0.0110
 1567TIP3    H126260   1.618   1.424   2.425  0.6893  2.2040  2.5857
 1567TIP3    H226261   1.495   1.351   2.475  1.0768  0.0991  0.6395
 1568TIP3   OH226262   1.590   3.500   8.465  0.0790 -0.3091 -0.0947
 1568TIP3    H126263   1.510   3.552   8.472 -0.1580 -0.3943 -1.7749
 1568TIP3    H226264   1.660   3.564   8.461  0.0140 -0.2044  0.4235
 1569TIP3   OH226265   2.491   6.535   2.469  0.0087  0.1353 -0.7849
 1569TIP3    H126266   2.507   6.625   2.499 -1.8632  0.3876 -0.3998
 1569TIP3    H226267   2.448   6.546   2.384  0.2625 -0.4129 -0.9857
 1570TIP3   OH226268   0.382   1.501   1.062  0.0393 -0.1642 -0.1354
 1570TIP3    H126269   0.304   1.456   1.096  0.6634 -1.0716  0.1206
 1570TIP3    H226270   0.450   1.483   1.126  0.7225 -0.2335 -0.8582
 1571TIP3   OH226271   1.471   3.586   2.231 -0.3469 -0.4772 -0.2452
 1571TIP3    H126272   1.403   3.542   2.282 -2.2975 -0.0283 -2.2373
 1571TIP3    H226273   1.444   3.571   2.140  0.6265  2.1596 -1.0535
 1572TIP3   OH226274   3.998   1.489   1.373  0.6294  0.1767 -0.2247
 1572TIP3    H126275   3.956   1.564   1.414 -0.1110  0.2201 -1.0337
 1572TIP3    H226276   3.940   1.465   1.301  0.5669 -1.4985  0.3270
 1573TIP3   OH226277   0.508   4.687   3.164 -0.2804 -0.0694 -0.1313
 1573TIP3    H126278   0.484   4.595   3.172  0.2554 -0.0762  2.1991
 1573TIP3    H226279   0.601   4.686   3.139 -0.1227 -0.1988  0.4341
 1574TIP3   OH226280   1.288   6.603   1.624 -0.1063 -0.1978 -0.5012
 1574TIP3    H126281   1.368   6.557   1.598 -0.5688 -0.4351 -1.5676
 1574TIP3    H226282   1.319   6.685   1.662  0.6280  0.4299 -2.3532
 1575TIP3   OH226283   3.908   0.456   8.125  0.7873  0.5081  0.3652
 1575TIP3    H126284   3.923   0.363   8.108  5.3161  1.3741 -2.0137
 1575TIP3    H226285   3.875   0.490   8.042  1.3436  1.3335  0.4682
 1576TIP3   OH226286   3.809   5.042   8.439 -0.0703  0.1597 -0.1065
 1576TIP3    H126287   3.715   5.036   8.419  0.0307 -1.3679 -0.2195
 1576TIP3    H226288   3.848   5.081   8.361 -0.5806  0.6408 -0.1311
 1577TIP3   OH226289   4.421   2.644   0.813 -0.6756 -0.3420  0.2150
 1577TIP3    H126290   4.373   2.565   0.790  0.4721 -0.8560 -0.5362
 1577TIP3    H226291   4.511   2.626   0.785 -0.5457  1.5221 -0.7231
 1578TIP3   OH226292   4.099   5.211   3.031 -0.6306 -0.2701  0.1649
 1578TIP3    H126293   4.070   5.130   3.073  1.5496 -1.4512 -0.4685
 1578TIP3    H226294   4.180   5.187   2.985 -0.3956  2.0699 -0.7840
 1579TIP3   OH226295   6.106   4.082   0.077  0.1411  0.3786 -0.0635
 1579TIP3    H126296   6.152   4.165   0.087 -0.1798  0.4892  0.5006
 1579TIP3    H226297   6.141   4.045  -0.004  1.5943  0.2399  0.5819
 1580TIP3   OH226298   4.025   1.109   1.801  0.4153 -0.2605 -1.1087
 1580TIP3    H126299   3.991   1.167   1.733  3.3866  0.3952 -2.1894
 1580TIP3    H226300   4.065   1.168   1.865 -0.3147 -0.9900  0.0682
 1581TIP3   OH226301   2.320   5.050   0.336 -0.6091  0.4425 -0.6579
 1581TIP3    H126302   2.299   4.957   0.333  2.2629 -0.3244 -0.0020
 1581TIP3    H226303   2.273   5.088   0.262 -3.2640 -1.1526  0.1092
 1582TIP3   OH226304   0.604   2.740   2.527 -0.4983  0.6834 -0.1506
 1582TIP3    H126305   0.511   2.736   2.504 -0.6373 -2.5455  0.4763
 1582TIP3    H226306   0.606   2.720   2.621  0.6971  3.9692  0.6561
 1583TIP3   OH226307   3.214   2.078   2.596 -0.0585 -0.9700 -0.2443
 1583TIP3    H126308   3.177   2.143   2.535  0.5275  0.1378  0.5462
 1583TIP3    H226309   3.138   2.035   2.634 -0.4541 -2.3155 -2.3478
 1584TIP3   OH226310   0.917   0.767   2.740  0.0608  0.4288  0.4034
 1584TIP3    H126311   0.929   0.734   2.829  1.0178  0.9911  0.4975
 1584TIP3    H226312   0.824   0.791   2.735 -0.5973 -1.8589  0.4552
 1585TIP3   OH226313   0.898   2.646   1.322 -0.6267  0.2352 -0.1353
 1585TIP3    H126314   0.950   2.632   1.401 -0.0716  0.9797 -0.3433
 1585TIP3    H226315   0.815   2.681   1.353 -1.3361 -1.7159  0.2549
 1586TIP3   OH226316   2.317   0.986   7.353 -0.8353  0.1379  0.5491
 1586TIP3    H126317   2.401   0.941   7.345  0.5675  1.8668  3.6896
 1586TIP3    H226318   2.326   1.063   7.298 -1.1223 -0.5573 -0.5114
 1587TIP3   OH226319   4.285   3.609   2.230 -0.1981  0.3229 -0.4507
 1587TIP3    H126320   4.202   3.645   2.198  0.1692 -0.2633 -2.1800
 1587TIP3    H226321   4.318   3.676   2.290 -0.8373  1.6185 -1.4707
 1588TIP3   OH226322   5.016   6.072   0.127  0.1288  0.1602  0.1592
 1588TIP3    H126323   5.045   6.117   0.048  0.1893 -1.3149 -0.6955
 1588TIP3    H226324   5.095   6.028   0.159 -0.1060  0.0052  0.5269
 1589TIP3   OH226325   5.253   4.761   1.812  0.4135  0.0951  0.0712
 1589TIP3    H126326   5.323   4.750   1.876  0.6102 -0.3014 -0.2045
 1589TIP3    H226327   5.297   4.750   1.727 -0.2602 -1.7625 -0.0683
 1590TIP3   OH226328   6.551   4.472   1.471 -0.3044  0.3868 -0.1856
 1590TIP3    H126329   6.608   4.516   1.534 -1.1210  1.8155 -0.4108
 1590TIP3    H226330   6.544   4.533   1.398 -0.8124 -0.4833 -0.8742
 1591TIP3   OH226331   2.516   5.346   2.247  0.1140  0.1840  0.3113
 1591TIP3    H126332   2.611   5.357   2.238  0.1885  0.1499  1.0486
 1591TIP3    H226333   2.505   5.254   2.272 -0.3456 -0.9046 -3.2460
 1592TIP3   OH226334   6.388   4.995   7.949  0.0612 -0.0327  0.0728
 1592TIP3    H126335   6.347   4.913   7.921  0.9515 -0.3573 -0.3143
 1592TIP3    H226336   6.347   5.062   7.895 -0.3920 -0.2743  0.1124
 1593TIP3   OH226337   1.361   3.062   3.264  0.3815  0.0602  0.4789
 1593TIP3    H126338   1.356   3.154   3.290 -0.7721  0.2121 -0.1852
 1593TIP3    H226339   1.430   3.060   3.197  0.4225  0.4395  0.5033
 1594TIP3   OH226340   6.364   0.571   1.275 -0.2011 -0.0641 -0.5674
 1594TIP3    H126341   6.452   0.605   1.257  0.6693 -1.9010 -0.1244
 1594TIP3    H226342   6.342   0.606   1.361 -1.1628  2.6852 -1.8496
 1595TIP3   OH226343   2.302   5.628   8.531 -0.3621  0.6366 -0.0274
 1595TIP3    H126344   2.255   5.551   8.500  0.2656 -0.2236  1.0977
 1595TIP3    H226345   2.267   5.644   8.619  0.3575  0.9007  0.2216
 1596TIP3   OH226346   0.344   5.784   2.966  0.5532  0.3915 -0.1291
 1596TIP3    H126347   0.251   5.770   2.981  0.3802  1.2914 -0.3345
 1596TIP3    H226348   0.377   5.698   2.939 -0.0157 -0.1696  0.8695
 1597TIP3   OH226349   0.804   6.405   0.899 -0.2560 -0.2967 -0.5021
 1597TIP3    H126350   0.731   6.467   0.896 -0.9676 -1.1569 -2.2221
 1597TIP3    H226351   0.880   6.454   0.868 -0.1498  0.4918  0.9249
 1598TIP3   OH226352   2.425   4.808   0.817  0.8979  0.0940 -0.4441
 1598TIP3    H126353   2.482   4.880   0.793  1.8202 -0.4711 -0.0101
 1598TIP3    H226354   2.476   4.729   0.797  0.2687 -0.4232 -0.0598
 1599TIP3   OH226355   5.076   0.169   0.974 -0.2289  0.6492  0.1172
 1599TIP3    H126356   5.000   0.136   1.021  0.9484  0.4028  1.9634
 1599TIP3    H226357   5.140   0.098   0.979  0.9034  1.6481  0.5998
 1600TIP3   OH226358   0.403   3.238   0.171  0.3478 -0.4198 -0.2122
 1600TIP3    H126359   0.336   3.188   0.123 -1.9468  0.8673  1.4480
 1600TIP3    H226360   0.409   3.194   0.256  0.3962  0.4539  0.2380
 1601TIP3   OH226361   2.368   4.190   8.280  0.0958  0.2414  0.0325
 1601TIP3    H126362   2.418   4.123   8.326  0.5660  0.2803 -0.4104
 1601TIP3    H226363   2.430   4.227   8.217  0.1465  1.7981  0.9457
 1602TIP3   OH226364   2.372   3.602   7.989 -0.0596  0.0856  0.6806
 1602TIP3    H126365   2.370   3.672   7.925  0.0972 -1.4616 -1.0933
 1602TIP3    H226366   2.313   3.535   7.955  0.5264 -1.0729  1.8019
 1603TIP3   OH226367   2.634   1.292   1.935 -0.0968  0.0291 -0.1548
 1603TIP3    H126368   2.597   1.380   1.931 -0.6947 -0.1763  0.7456
 1603TIP3    H226369   2.683   1.284   1.853  0.4963  1.4308  0.0258
 1604TIP3   OH226370   4.215   3.266   0.801 -0.7461 -0.1473  0.0933
 1604TIP3    H126371   4.305   3.242   0.777  0.0563 -0.2423  2.7856
 1604TIP3    H226372   4.168   3.270   0.718  1.9293  0.7230 -1.5027
 1605TIP3   OH226373   6.139   1.761   2.322  0.5767 -0.4628 -0.0698
 1605TIP3    H126374   6.169   1.835   2.376  1.2008  0.6861 -1.9194
 1605TIP3    H226375   6.112   1.695   2.386  0.4469  1.1656  1.6548
 1606TIP3   OH226376   0.739   1.204   0.284 -0.3896  0.4064  0.4354
 1606TIP3    H126377   0.781   1.177   0.365 -1.7983 -0.9875  0.7494
 1606TIP3    H226378   0.655   1.241   0.312 -0.1657  1.5127 -0.2873
 1607TIP3   OH226379   0.550   1.816   1.490  0.0887 -0.1482  0.6572
 1607TIP3    H126380   0.522   1.891   1.543 -0.0645  2.3168 -2.5827
 1607TIP3    H226381   0.476   1.756   1.492  0.1504 -0.2350  3.2187
 1608TIP3   OH226382   2.359   6.810   7.912 -0.0442 -0.1574 -0.1301
 1608TIP3    H126383   2.333   6.871   7.981 -0.0135 -0.2413 -0.0444
 1608TIP3    H226384   2.278   6.764   7.889  0.4234 -2.0274  1.7053
 1609TIP3   OH226385   6.358   5.093   8.230  0.2884 -0.2202 -0.0651
 1609TIP3    H126386   6.384   5.049   8.149  2.0938  1.3802 -0.4451
 1609TIP3    H226387   6.322   5.024   8.285 -0.2310 -1.4909 -1.9203
 1610TIP3   OH226388   2.572   1.455   7.898  0.4056 -0.3369 -0.9520
 1610TIP3    H126389   2.517   1.518   7.944  1.5341 -0.9958  1.4657
 1610TIP3    H226390   2.566   1.481   7.806 -0.9739  1.8579 -0.3290
 1611TIP3   OH226391   2.985   5.810   1.567 -0.4659  0.2595 -0.2544
 1611TIP3    H126392   3.071   5.849   1.548 -0.7672  0.6267 -0.8866
 1611TIP3    H226393   2.975   5.821   1.661  0.1675  0.2492 -0.1771
 1612TIP3   OH226394   1.623   1.340   7.270 -0.1557 -0.4645 -0.4582
 1612TIP3    H126395   1.659   1.252   7.263  0.3334 -0.2571 -0.6070
 1612TIP3    H226396   1.692   1.397   7.237  0.7221  0.2383  2.2768
 1613TIP3   OH226397   1.914   6.286   0.852 -0.2127 -0.1849  0.2608
 1613TIP3    H126398   1.943   6.374   0.875 -0.4586  0.0696 -0.3872
 1613TIP3    H226399   1.927   6.235   0.932  0.1030  0.3934  0.5857
 1614TIP3   OH226400   4.655   5.876   7.465  0.1671  0.0016  0.6513
 1614TIP3    H126401   4.710   5.878   7.387 -0.3444 -0.4152  0.2697
 1614TIP3    H226402   4.582   5.934   7.445 -1.0802 -1.7218 -0.0518
 1615TIP3   OH226403   3.392   2.698   2.873 -0.0147 -0.1378 -0.0804
 1615TIP3    H126404   3.451   2.760   2.916 -1.0485  0.6793  0.2124
 1615TIP3    H226405   3.348   2.653   2.945 -0.9410  0.4396 -0.2738
 1616TIP3   OH226406   1.374   1.330   0.207 -0.1551  0.4896  0.4069
 1616TIP3    H126407   1.344   1.333   0.298  2.4957 -1.0859  1.4327
 1616TIP3    H226408   1.439   1.400   0.201  2.1913 -1.5135  0.8341
 1617TIP3   OH226409   4.050   2.690   2.266  0.0620  0.3422  0.0073
 1617TIP3    H126410   4.059   2.622   2.334  1.9191  0.2453 -0.2878
 1617TIP3    H226411   4.070   2.772   2.311  0.8563  0.3299 -0.3196
 1618TIP3   OH226412   2.433   0.665   8.505  0.7380  0.0925 -0.0015
 1618TIP3    H126413   2.483   0.718   8.567  0.4132 -0.9129  1.1523
 1618TIP3    H226414   2.342   0.691   8.519  0.8094  1.1377 -1.3327
 1619TIP3   OH226415   5.622   5.343   8.236  0.4315  0.0865  0.3872
 1619TIP3    H126416   5.563   5.297   8.296  0.6695 -1.6891 -0.6704
 1619TIP3    H226417   5.614   5.435   8.261 -0.8506 -0.3875  1.9248
 1620TIP3   OH226418   2.112   5.484   8.382 -0.3078  0.1130  0.2703
 1620TIP3    H126419   2.033   5.534   8.364  0.0259  1.0803  1.3838
 1620TIP3    H226420   2.082   5.407   8.430 -0.6980 -0.2060 -0.4631
 1621TIP3   OH226421   0.655   2.581   7.336 -0.2928  0.0618  0.0861
 1621TIP3    H126422   0.619   2.496   7.312  0.3010 -0.6638  1.6514
 1621TIP3    H226423   0.692   2.568   7.423 -0.2086  1.9367  0.3727
 1622TIP3   OH226424   6.548   2.541   1.943  0.4655  0.1012  0.0918
 1622TIP3    H126425   6.593   2.522   1.861  1.8840  2.7438  0.1306
 1622TIP3    H226426   6.615   2.581   1.999 -1.1096  0.9688  1.4694
 1623TIP3   OH226427   5.539   4.651   8.653  0.5209 -0.3844  0.4135
 1623TIP3    H126428   5.582   4.597   8.720  0.5857 -0.2793  0.4580
 1623TIP3    H226429   5.456   4.607   8.636  0.3947 -0.2770  0.7423
 1624TIP3   OH226430   2.935   1.742   7.582  0.0235 -0.2273 -0.1828
 1624TIP3    H126431   3.000   1.718   7.648  0.2203  0.3625 -0.1588
 1624TIP3    H226432   2.857   1.693   7.606 -0.1032  0.4506  0.8582
 1625TIP3   OH226433   6.563   0.695   7.740 -0.0285 -0.3214 -0.6960
 1625TIP3    H126434   6.651   0.658   7.744 -0.5847 -1.6185  1.6023
 1625TIP3    H226435   6.507   0.621   7.715 -0.6394  0.0819 -0.5567
 1626TIP3   OH226436   4.930   5.384   0.156 -0.6985  0.0188 -0.5757
 1626TIP3    H126437   4.955   5.475   0.176 -0.3011  0.3003 -2.2246
 1626TIP3    H226438   4.889   5.353   0.237  1.2424  0.9027  0.8254
 1627TIP3   OH226439   6.445   1.031   0.042 -0.3574  0.6524 -0.4687
 1627TIP3    H126440   6.356   1.033   0.008  0.0269  1.2925 -1.4818
 1627TIP3    H226441   6.466   1.123   0.061 -0.1812  0.4200  0.4830
 1628TIP3   OH226442   3.275   0.846   0.303  0.7843  0.0756 -0.2937
 1628TIP3    H126443   3.233   0.910   0.245  0.8695 -0.3111 -0.8000
 1628TIP3    H226444   3.365   0.841   0.271  1.2765  1.0326  0.9045
 1629TIP3   OH226445   4.537   1.730   8.391  0.4025  0.1898  0.0628
 1629TIP3    H126446   4.572   1.784   8.461  0.1520  0.6482 -0.1578
 1629TIP3    H226447   4.532   1.789   8.316 -0.7503  0.1086  0.0682
 1630TIP3   OH226448   1.343   1.311   8.308  0.3171 -0.5420  0.3675
 1630TIP3    H126449   1.251   1.303   8.333  0.4218 -1.4311  0.4887
 1630TIP3    H226450   1.391   1.301   8.390  0.6077 -2.3263  0.0166
 1631TIP3   OH226451   1.431   0.807   8.327 -0.1057  0.4829 -0.0432
 1631TIP3    H126452   1.454   0.724   8.283 -0.3068 -0.2501  1.1837
 1631TIP3    H226453   1.374   0.781   8.399  0.2708  1.6342  0.7039
 1632TIP3   OH226454   2.418   4.350   1.002 -0.1323 -0.0406  0.1477
 1632TIP3    H126455   2.438   4.268   0.956  1.2389 -0.3181  1.1866
 1632TIP3    H226456   2.502   4.380   1.036 -0.9263  0.7579  1.4929
 1633TIP3   OH226457   0.831   2.854   2.399 -0.3826  0.7962 -0.0891
 1633TIP3    H126458   0.818   2.927   2.459 -3.1850 -0.2624  0.7254
 1633TIP3    H226459   0.754   2.799   2.410  1.4084 -2.1310 -0.9402
 1634TIP3   OH226460   3.003   0.408   1.549 -0.2566  0.0705 -0.2014
 1634TIP3    H126461   2.965   0.362   1.624 -0.0173 -0.0129 -0.1305
 1634TIP3    H226462   3.043   0.487   1.586  2.1686 -1.2449  0.1633
 1635TIP3   OH226463   6.226   5.394   1.289  0.1376 -0.4130 -0.0756
 1635TIP3    H126464   6.135   5.366   1.298  0.6511 -2.5789 -0.8844
 1635TIP3    H226465   6.221   5.482   1.254 -1.6631 -0.6186 -0.4043
 1636TIP3   OH226466   6.310   5.978   8.001 -0.3151 -0.0355 -0.3303
 1636TIP3    H126467   6.299   6.040   8.073 -0.3397 -0.4401  0.0180
 1636TIP3    H226468   6.235   5.918   8.008  1.1976 -1.8915  1.1375
 1637TIP3   OH226469   2.693   4.176   0.177  0.5206  0.1631 -0.2849
 1637TIP3    H126470   2.704   4.258   0.128  0.8754  0.0752 -0.3548
 1637TIP3    H226471   2.761   4.179   0.243  1.2807 -0.6103 -1.0168
 1638TIP3   OH226472   1.328   0.011   3.421 -0.5149  0.0202 -0.2394
 1638TIP3    H126473   1.274   0.085   3.448 -2.0443 -1.2465  0.3172
 1638TIP3    H226474   1.356  -0.030   3.503 -0.9735 -0.8978 -0.5269
 1639TIP3   OH226475   5.931   4.730   8.624  0.1767 -0.2120  0.3403
 1639TIP3    H126476   5.909   4.637   8.621  0.1896 -0.2108  0.1531
 1639TIP3    H226477   5.953   4.752   8.533 -1.3574  0.3381  0.0654
 1640TIP3   OH226478   1.797   5.817   8.645 -0.1175  0.3084  0.5820
 1640TIP3    H126479   1.833   5.828   8.732 -1.3827 -1.1405  1.3378
 1640TIP3    H226480   1.725   5.755   8.656  1.9319 -2.8801 -2.0188
 1641TIP3   OH226481   6.658   3.426   0.603 -0.0545 -0.1268  0.3199
 1641TIP3    H126482   6.655   3.401   0.695  0.1482  1.9449  0.9247
 1641TIP3    H226483   6.582   3.483   0.590  0.4562  0.3913 -0.5371
 1642TIP3   OH226484   2.989   5.564   2.720 -0.5021 -0.1050  0.0920
 1642TIP3    H126485   2.929   5.589   2.791  0.4787 -0.8021  1.2122
 1642TIP3    H226486   3.072   5.605   2.744  0.4038 -2.0753  0.5101
 1643TIP3   OH226487   4.265   0.686   8.411 -0.3782  0.1344 -0.4885
 1643TIP3    H126488   4.340   0.738   8.440  0.8512 -1.5383 -0.4830
 1643TIP3    H226489   4.248   0.716   8.322 -0.7515  1.6338  0.0645
 1644TIP3   OH226490   2.224   2.116   6.859  0.2657 -0.2733  0.2211
 1644TIP3    H126491   2.308   2.101   6.904 -0.7456 -0.6695  2.0858
 1644TIP3    H226492   2.206   2.033   6.814  0.7741 -0.2435 -0.0498
 1645TIP3   OH226493   2.877   0.183   3.583  0.8122  0.1028  0.0876
 1645TIP3    H126494   2.972   0.190   3.571  0.7344  0.4982 -0.3139
 1645TIP3    H226495   2.845   0.272   3.572  0.4168  0.0143  0.4816
 1646TIP3   OH226496   3.493   3.189   8.566 -0.2118 -0.2661  0.4628
 1646TIP3    H126497   3.516   3.140   8.646 -0.5431  0.6510  1.1325
 1646TIP3    H226498   3.484   3.279   8.595  0.7978  0.2894 -0.8419
 1647TIP3   OH226499   4.531   2.930   1.946 -0.1863  0.9027 -0.1398
 1647TIP3    H126500   4.530   2.872   1.870  0.4259  1.2520 -0.4211
 1647TIP3    H226501   4.461   2.993   1.929 -0.0198  1.0082 -0.4385
 1648TIP3   OH226502   5.235   4.359   0.492  0.2868  0.5010 -0.0662
 1648TIP3    H126503   5.247   4.404   0.408  0.9127  0.0809 -0.2135
 1648TIP3    H226504   5.316   4.310   0.504  0.2247  0.6059  0.8212
 1649TIP3   OH226505   3.145   2.532   8.445 -0.5176 -1.1372  0.1600
 1649TIP3    H126506   3.202   2.457   8.427  1.1088  0.0223  0.3418
 1649TIP3    H226507   3.125   2.567   8.358  3.2891  1.4694  0.0892
 1650TIP3   OH226508   2.143   0.062   2.802 -0.3785 -0.1273 -0.4151
 1650TIP3    H126509   2.080   0.129   2.774  0.3923  1.2720  1.0204
 1650TIP3    H226510   2.171   0.091   2.889  2.8201 -0.2343 -1.2994
 1651TIP3   OH226511   4.004   5.543   0.738  0.2656  0.4682  0.1022
 1651TIP3    H126512   3.982   5.546   0.831 -0.6212  0.0854 -0.0846
 1651TIP3    H226513   4.050   5.459   0.727 -0.1605  0.2349  0.0884
 1652TIP3   OH226514   3.727   3.946   1.418  0.2063  0.2242 -0.7990
 1652TIP3    H126515   3.782   3.950   1.339  0.7424  0.5906 -0.4137
 1652TIP3    H226516   3.688   4.033   1.424 -0.4463 -0.0416 -1.0831
 1653TIP3   OH226517   3.556   6.808   0.236 -0.5364  0.4536  0.5713
 1653TIP3    H126518   3.478   6.755   0.222 -0.2798  0.1166  0.3749
 1653TIP3    H226519   3.572   6.804   0.330  0.3660 -1.1277  0.3921
 1654TIP3   OH226520   2.381   2.014   2.154 -0.2731  0.4940  1.0398
 1654TIP3    H126521   2.311   2.041   2.214  1.3356  1.0782  2.7642
 1654TIP3    H226522   2.453   2.075   2.172  0.6448  0.0428 -0.8001
 1655TIP3   OH226523   3.655   0.970   3.266  0.1968  0.1867  0.0771
 1655TIP3    H126524   3.626   1.053   3.304 -0.4432  0.2763 -0.5895
 1655TIP3    H226525   3.606   0.903   3.313 -0.2145  0.2666 -0.2350
 1656TIP3   OH226526   3.048   1.707   1.140  0.0905 -0.3813  0.2327
 1656TIP3    H126527   3.045   1.780   1.078  0.1660 -0.0375  0.6307
 1656TIP3    H226528   3.075   1.746   1.223 -1.0462 -0.6412  0.7564
 1657TIP3   OH226529   5.298   6.261   7.619  0.4499  0.2568  0.1617
 1657TIP3    H126530   5.309   6.229   7.530  1.7603 -0.4860  0.5583
 1657TIP3    H226531   5.205   6.279   7.627  0.3523  0.6356 -1.4479
 1658TIP3   OH226532   2.132   5.762   1.184 -0.3479  0.5228  0.0601
 1658TIP3    H126533   2.140   5.719   1.099  1.9742  0.7422  0.1046
 1658TIP3    H226534   2.155   5.694   1.248 -1.8165  0.4322  0.5250
 1659TIP3   OH226535   6.098   6.235   2.397 -0.5042 -0.3312 -0.1474
 1659TIP3    H126536   6.099   6.163   2.460  0.2764 -0.6096 -0.4587
 1659TIP3    H226537   6.177   6.286   2.417 -1.6495  1.1361  0.8353
 1660TIP3   OH226538   2.812   1.441   1.390 -0.4583  0.0618 -0.1594
 1660TIP3    H126539   2.784   1.356   1.356  1.4630 -0.9837  0.7158
 1660TIP3    H226540   2.731   1.485   1.414 -1.5415 -1.2254 -1.2856
 1661TIP3   OH226541   5.294   6.596   8.046  0.0736 -0.2357 -0.6293
 1661TIP3    H126542   5.322   6.682   8.016 -1.2457  0.5315  0.2414
 1661TIP3    H226543   5.198   6.599   8.042 -0.0676 -0.9840  1.1694
 1662TIP3   OH226544   4.177   3.357   0.158 -0.2181  0.3884 -0.2961
 1662TIP3    H126545   4.121   3.405   0.097  0.8372  1.8654 -0.1440
 1662TIP3    H226546   4.141   3.378   0.244  0.6213  1.4683 -0.1872
 1663TIP3   OH226547   4.409   3.329   8.161  0.4143  0.0522  0.2375
 1663TIP3    H126548   4.414   3.390   8.087  0.1203 -2.4717 -2.0258
 1663TIP3    H226549   4.489   3.347   8.211  1.2085  1.1227 -1.2932
 1664TIP3   OH226550   5.973   0.562   2.246 -0.5060  0.6919  0.3377
 1664TIP3    H126551   6.022   0.644   2.246  0.2000  0.2757  0.7487
 1664TIP3    H226552   5.995   0.520   2.163 -0.4413  0.6731  0.3640
 1665TIP3   OH226553   5.657   1.623   2.598  0.5366  0.0285  0.1697
 1665TIP3    H126554   5.721   1.649   2.664  1.0035  1.5348 -0.8409
 1665TIP3    H226555   5.599   1.562   2.644  2.7005 -1.4549  1.0930
 1666TIP3   OH226556   5.570   0.116   0.977  0.1623  0.6332 -0.0685
 1666TIP3    H126557   5.603   0.057   0.910 -2.3655 -1.9169  0.7392
 1666TIP3    H226558   5.615   0.089   1.058 -2.3758 -1.7472  0.7031
 1667TIP3   OH226559   0.145   2.815   0.975 -0.4750 -0.6043  0.1674
 1667TIP3    H126560   0.102   2.811   0.890  1.9378 -2.1988 -1.1064
 1667TIP3    H226561   0.170   2.907   0.985 -3.9439  0.4083  1.0056
 1668TIP3   OH226562   2.267   1.625   7.207  0.3179  0.0452 -0.4522
 1668TIP3    H126563   2.174   1.617   7.231  0.5706 -0.8876  0.2379
 1668TIP3    H226564   2.288   1.543   7.163  0.7882  0.3055 -0.7213
 1669TIP3   OH226565   5.411   4.794   2.077 -0.5468 -0.4057 -0.3439
 1669TIP3    H126566   5.349   4.854   2.118  1.1432  1.2209 -0.0380
 1669TIP3    H226567   5.496   4.838   2.084  0.7289 -2.6678 -0.4744
 1670TIP3   OH226568   2.922   2.980   8.224  0.1037 -0.2198  0.2236
 1670TIP3    H126569   2.982   2.971   8.299  0.7921  0.1465 -0.2662
 1670TIP3    H226570   2.951   3.060   8.181 -0.4058 -0.3340 -0.3313
 1671TIP3   OH226571   0.832   1.475   1.812  0.0836 -0.1947  0.3935
 1671TIP3    H126572   0.816   1.515   1.727  0.6213  0.1555  0.4532
 1671TIP3    H226573   0.835   1.549   1.873 -1.0279 -0.5017  0.8342
 1672TIP3   OH226574   0.538   2.505   1.832 -0.3337  0.0158  0.4294
 1672TIP3    H126575   0.551   2.517   1.926  0.2524  0.6169  0.2770
 1672TIP3    H226576   0.557   2.413   1.817  3.0283  0.5812  0.3859
 1673TIP3   OH226577   6.726   6.332   0.339  0.4468  0.1420  0.2651
 1673TIP3    H126578   6.755   6.321   0.249  2.6539  1.7105  0.7097
 1673TIP3    H226579   6.653   6.394   0.334  0.6443  0.3224 -0.4372
 1674TIP3   OH226580   3.578   1.835   1.624 -0.0695 -0.1935 -0.2047
 1674TIP3    H126581   3.559   1.877   1.540 -0.1301 -1.1629 -0.6811
 1674TIP3    H226582   3.549   1.745   1.613 -1.6766  0.0572  1.4227
 1675TIP3   OH226583   4.233   3.687   8.174  0.4102 -0.5556  0.0187
 1675TIP3    H126584   4.146   3.707   8.139 -0.2248 -2.7211  0.2139
 1675TIP3    H226585   4.291   3.691   8.098  0.5631  2.6297  0.1509
 1676TIP3   OH226586   4.357   0.321   0.784  0.0266  0.2919  0.2944
 1676TIP3    H126587   4.451   0.303   0.785 -0.0936 -0.3507  1.4671
 1676TIP3    H226588   4.330   0.318   0.876 -1.4404 -1.2179 -0.1258
 1677TIP3   OH226589   1.222   3.003   1.606 -0.1450 -0.1465 -0.1790
 1677TIP3    H126590   1.295   2.974   1.660  1.6431 -0.7904 -2.7434
 1677TIP3    H226591   1.157   2.933   1.615  1.3018 -1.6812 -1.0084
 1678TIP3   OH226592   1.886   4.728   1.154  0.5745 -0.1242 -0.3942
 1678TIP3    H126593   1.854   4.747   1.243 -0.9687 -0.3860 -0.8591
 1678TIP3    H226594   1.903   4.634   1.155  0.4525 -0.1474 -0.3968
 1679TIP3   OH226595   5.245   2.627   1.883  0.4817  0.0838  0.0483
 1679TIP3    H126596   5.302   2.627   1.807 -0.0976  2.6419 -0.5094
 1679TIP3    H226597   5.158   2.603   1.849  0.7026 -1.3500  0.4331
 1680TIP3   OH226598   3.876   3.546   2.741  0.0744  0.9966 -0.6552
 1680TIP3    H126599   3.967   3.552   2.710  0.1206  2.6659 -0.3356
 1680TIP3    H226600   3.842   3.635   2.731 -0.9665  0.8141  0.9086
 1681TIP3   OH226601   1.379   0.658   2.056  0.2780  0.6983 -0.4519
 1681TIP3    H126602   1.465   0.686   2.088  0.1890  0.8044 -0.3023
 1681TIP3    H226603   1.351   0.727   1.997  0.1153  0.8671 -0.1822
 1682TIP3   OH226604   1.334   4.483   6.750  0.1972 -0.6412  0.0970
 1682TIP3    H126605   1.423   4.468   6.719 -0.1642 -0.7616 -0.9084
 1682TIP3    H226606   1.338   4.569   6.792  1.0949 -1.2425  1.3263
 1683TIP3   OH226607   6.450   6.551   1.033 -0.5687  0.5089  0.1336
 1683TIP3    H126608   6.440   6.455   1.029 -1.1804  0.6020 -1.8131
 1683TIP3    H226609   6.544   6.565   1.017 -0.1101  0.2005  2.3181
 1684TIP3   OH226610   4.998   2.987   1.942 -0.0212  0.5372 -1.1668
 1684TIP3    H126611   5.011   3.081   1.926 -0.1126  0.6686 -0.4976
 1684TIP3    H226612   5.060   2.944   1.883  1.4637  1.0768 -0.0632
 1685TIP3   OH226613   6.676   3.751   8.078 -0.7314 -0.7060 -0.3817
 1685TIP3    H126614   6.677   3.824   8.016 -1.2226 -0.2987  0.0788
 1685TIP3    H226615   6.667   3.793   8.164  0.8702 -1.2085  0.0656
 1686TIP3   OH226616   4.738   4.687   0.561 -0.3000 -0.0261  0.1751
 1686TIP3    H126617   4.794   4.745   0.510 -1.9490 -0.1115 -1.8475
 1686TIP3    H226618   4.781   4.602   0.556 -0.2397  0.0519 -0.7881
 1687TIP3   OH226619   0.792   2.890   1.796  0.7838 -0.6107  0.1015
 1687TIP3    H126620   0.821   2.799   1.799  0.0290 -0.8323  1.0934
 1687TIP3    H226621   0.727   2.897   1.865  1.5359  0.9394  0.7107
 1688TIP3   OH226622   3.601   6.417   0.247 -0.4128  0.6804  0.0328
 1688TIP3    H126623   3.674   6.390   0.191 -0.5091  0.2371  0.1208
 1688TIP3    H226624   3.525   6.417   0.188 -0.8006 -1.2312  0.4705
 1689TIP3   OH226625   0.582   2.796   0.977  0.1995 -0.2028  0.0274
 1689TIP3    H126626   0.519   2.856   1.018 -0.3290  0.1338 -1.2121
 1689TIP3    H226627   0.656   2.853   0.953 -0.3055 -0.0102 -1.1567
 1690TIP3   OH226628   5.453   6.649   2.424  0.0986  0.4354  0.4575
 1690TIP3    H126629   5.367   6.647   2.464 -0.0740  1.4047  0.1497
 1690TIP3    H226630   5.458   6.733   2.379  0.5731 -0.2937 -0.9224
 1691TIP3   OH226631   2.006   5.963   7.849 -0.4226  0.1405  0.2058
 1691TIP3    H126632   2.055   5.881   7.854 -0.1253  0.0667 -2.6244
 1691TIP3    H226633   1.919   5.940   7.884  0.2329 -0.8064  1.3181
 1692TIP3   OH226634   2.151   0.072   8.399  0.2706 -0.3239 -0.4226
 1692TIP3    H126635   2.109   0.031   8.323 -1.0441 -1.8374  1.0312
 1692TIP3    H226636   2.187  -0.002   8.448  1.8581  0.6972  0.0278
 1693TIP3   OH226637   0.072   3.308   2.450 -0.3456  0.3397 -0.1852
 1693TIP3    H126638   0.001   3.243   2.445 -0.7279  0.7461 -0.0502
 1693TIP3    H226639   0.027   3.392   2.456  0.0996  0.8265 -2.4566
 1694TIP3   OH226640   6.292   3.054   0.702 -0.0167  0.4840  0.0833
 1694TIP3    H126641   6.214   3.094   0.740 -0.0852  0.6963 -0.2827
 1694TIP3    H226642   6.305   2.974   0.753 -1.1351 -0.1392 -0.5814
 1695TIP3   OH226643   1.098   2.779   0.216 -0.3324 -0.1183 -0.4791
 1695TIP3    H126644   1.066   2.772   0.126  0.4378 -0.4099 -0.7397
 1695TIP3    H226645   1.041   2.843   0.257 -0.4850  0.2622 -1.2699
 1696TIP3   OH226646   0.022   0.406   0.326  0.4211 -0.1485  0.0334
 1696TIP3    H126647  -0.053   0.465   0.323 -2.3161 -3.2828  0.3958
 1696TIP3    H226648   0.068   0.428   0.407 -0.8562  1.0422  0.4664
 1697TIP3   OH226649   0.967   0.058   2.430  0.2528  0.3476  0.4751
 1697TIP3    H126650   0.922   0.139   2.456 -0.0687  0.3675 -0.1203
 1697TIP3    H226651   1.003   0.078   2.343  0.2355 -0.1237  0.3591
 1698TIP3   OH226652   4.029   2.832   8.349 -0.8569 -0.0059  0.0481
 1698TIP3    H126653   4.119   2.821   8.319 -1.3248 -0.2533 -1.3499
 1698TIP3    H226654   4.034   2.824   8.444  0.8505  1.8004  0.1780
 1699TIP3   OH226655   0.784   1.991   1.044  0.4756  0.0398  0.6544
 1699TIP3    H126656   0.692   2.004   1.022 -0.6647 -2.7716  3.1080
 1699TIP3    H226657   0.830   2.004   0.961 -2.5475 -1.9470 -1.5491
 1700TIP3   OH226658   3.410   6.407   1.389  0.2043 -0.8272 -0.2212
 1700TIP3    H126659   3.319   6.432   1.373  0.3336 -0.1922 -0.0021
 1700TIP3    H226660   3.430   6.343   1.321 -0.5220 -1.2620 -0.0354
 1701TIP3   OH226661   4.387   1.548   2.385  0.4770  0.0325 -0.1646
 1701TIP3    H126662   4.300   1.574   2.415  0.4482 -0.2177 -0.0293
 1701TIP3    H226663   4.371   1.498   2.305  0.5017  0.0543 -0.1831
 1702TIP3   OH226664   2.818   2.224   0.097 -0.2470  0.6558  0.3120
 1702TIP3    H126665   2.899   2.190   0.059 -1.3513 -2.3729  0.3978
 1702TIP3    H226666   2.838   2.236   0.190  0.0749 -0.3040  0.3771
 1703TIP3   OH226667   3.636   0.472   0.792 -0.5625  0.4252 -0.1180
 1703TIP3    H126668   3.551   0.440   0.822  0.2677 -1.5328  0.2990
 1703TIP3    H226669   3.649   0.554   0.839 -2.2481  0.7988 -0.2609
 1704TIP3   OH226670   4.449   2.621   8.141  0.4528  0.1342 -0.1118
 1704TIP3    H126671   4.522   2.649   8.196  1.0340  0.9449 -1.2672
 1704TIP3    H226672   4.382   2.689   8.153 -0.7974 -1.3352  2.1007
 1705TIP3   OH226673   4.864   5.858   7.271  0.1240 -0.6751 -0.0800
 1705TIP3    H126674   4.883   5.926   7.206 -0.6651 -0.2296  0.1442
 1705TIP3    H226675   4.950   5.825   7.297  0.6009  1.0747  0.7076
 1706TIP3   OH226676   2.450   1.822   1.897  0.1181  0.0926  0.0599
 1706TIP3    H126677   2.402   1.863   1.825  0.5777  0.3306 -0.1195
 1706TIP3    H226678   2.383   1.783   1.953 -0.3408  1.3023  0.3653
 1707TIP3   OH226679   0.346   1.162   0.158  0.6769 -0.8369  0.3488
 1707TIP3    H126680   0.264   1.141   0.202 -0.3088  2.4366  0.3262
 1707TIP3    H226681   0.326   1.156   0.065 -0.1291  1.5549  0.3054
 1708TIP3   OH226682   2.756   3.638   2.782 -0.1055  0.2354  0.2519
 1708TIP3    H126683   2.719   3.681   2.705 -1.8562 -1.7122 -0.0690
 1708TIP3    H226684   2.759   3.707   2.849 -2.1218  1.0708 -0.4429
 1709TIP3   OH226685   6.387   0.759   2.316 -0.4561  0.2866  0.4736
 1709TIP3    H126686   6.435   0.761   2.233 -0.9807  1.5555  0.1735
 1709TIP3    H226687   6.421   0.682   2.362 -0.5622 -0.7761 -1.1459
 1710TIP3   OH226688   0.754   5.305   0.575 -0.8225 -0.0265 -0.0511
 1710TIP3    H126689   0.696   5.266   0.641 -0.7818  0.9719  0.5960
 1710TIP3    H226690   0.827   5.340   0.625 -0.0677 -0.5108 -0.7836
 1711TIP3   OH226691   0.875   0.037   8.459 -0.2231 -0.2303  0.0713
 1711TIP3    H126692   0.918   0.081   8.386 -0.0106  2.1700  1.5455
 1711TIP3    H226693   0.791   0.008   8.423 -0.5666  1.8188 -0.8977
 1712TIP3   OH226694   6.051   3.724   8.218 -0.0721  0.0078 -0.2741
 1712TIP3    H126695   6.057   3.645   8.165 -0.1151 -1.1544  1.3751
 1712TIP3    H226696   6.096   3.791   8.167 -0.1455 -1.0348 -1.7630
 1713TIP3   OH226697   2.054   2.476   2.451 -0.0711 -0.3565  0.1629
 1713TIP3    H126698   2.020   2.404   2.505 -0.4370  1.6830  2.8684
 1713TIP3    H226699   1.979   2.532   2.435  0.5571  0.3921 -0.2365
 1714TIP3   OH226700   6.666   6.632   7.987 -0.6958  0.3901 -0.2154
 1714TIP3    H126701   6.631   6.630   8.076 -1.8667 -1.2454 -0.6698
 1714TIP3    H226702   6.632   6.714   7.950 -1.4168  0.3749  0.3942
 1715TIP3   OH226703   5.783   1.633   1.496 -0.3138  0.4264 -0.2319
 1715TIP3    H126704   5.783   1.614   1.402  0.1647 -0.1907 -0.1115
 1715TIP3    H226705   5.744   1.720   1.503 -1.5695 -0.0458 -0.9015
 1716TIP3   OH226706   3.702   0.138   2.149  0.0682  0.1722  0.2306
 1716TIP3    H126707   3.758   0.070   2.186 -0.1918 -0.3226 -0.2512
 1716TIP3    H226708   3.760   0.189   2.093 -0.2900 -1.6052 -1.9334
 1717TIP3   OH226709   5.443   1.415   0.088  0.6837 -0.0418 -0.2410
 1717TIP3    H126710   5.404   1.497   0.055  0.7660  0.1026  0.0199
 1717TIP3    H226711   5.490   1.441   0.167 -0.9008 -0.6764  0.9356
 1718TIP3   OH226712   4.092   2.701   8.700  0.3828  0.3055  0.3858
 1718TIP3    H126713   4.127   2.615   8.678 -0.2953  0.1437 -0.0956
 1718TIP3    H226714   4.131   2.722   8.785 -1.1866 -1.4752  1.6107
 1719TIP3   OH226715   1.311   1.061   0.692 -0.1522 -0.7488  0.1811
 1719TIP3    H126716   1.217   1.078   0.691  0.0034  0.2328  0.6541
 1719TIP3    H226717   1.321   0.981   0.743 -0.6917 -0.5576  0.5923
 1720TIP3   OH226718   4.954   4.019   1.595 -0.4775 -0.7707 -0.3794
 1720TIP3    H126719   4.975   4.101   1.550 -0.6297 -0.4987  0.0381
 1720TIP3    H226720   4.858   4.017   1.598 -0.4871 -1.1816 -0.7778
 1721TIP3   OH226721   3.339   2.905   0.548  0.2196  0.0856  0.0646
 1721TIP3    H126722   3.262   2.867   0.590 -0.8451  2.8266  0.8217
 1721TIP3    H226723   3.402   2.915   0.620  0.7453 -0.8233 -0.2616
 1722TIP3   OH226724   1.254   0.002   1.312 -0.3444  0.4270  0.4966
 1722TIP3    H126725   1.295  -0.079   1.283  1.8685  1.6340 -0.0057
 1722TIP3    H226726   1.192   0.024   1.243 -0.5234 -0.5307  0.3453
 1723TIP3   OH226727   4.518   6.350   1.278  0.3791  0.4000 -0.0058
 1723TIP3    H126728   4.428   6.363   1.248  0.9381 -0.2420 -2.1369
 1723TIP3    H226729   4.509   6.325   1.370 -1.6410 -0.0184 -0.2601
 1724TIP3   OH226730   2.650   4.804   1.403 -0.9130 -0.1012 -0.5686
 1724TIP3    H126731   2.676   4.805   1.311 -1.4283  0.3551 -0.7209
 1724TIP3    H226732   2.705   4.738   1.444  0.5206  0.8708 -0.8525
 1725TIP3   OH226733   3.883   0.479   7.591  0.5009 -0.3100  0.2960
 1725TIP3    H126734   3.808   0.425   7.614  0.6988 -0.6861  0.0775
 1725TIP3    H226735   3.863   0.512   7.503  0.3250  0.0713  0.4804
 1726TIP3   OH226736   2.510   5.837   8.288 -0.0864  0.5024  0.3225
 1726TIP3    H126737   2.574   5.884   8.235 -0.9192 -0.5887 -1.7320
 1726TIP3    H226738   2.430   5.888   8.280 -0.8558 -0.8966 -1.4983
 1727TIP3   OH226739   3.380   3.069   2.090  0.7354 -0.0403 -0.3831
 1727TIP3    H126740   3.325   2.992   2.102  0.6906 -0.3555 -2.3441
 1727TIP3    H226741   3.470   3.036   2.095  0.8394  0.4067  2.3773
 1728TIP3   OH226742   1.112   3.486   1.026 -0.2307  0.1627 -0.1929
 1728TIP3    H126743   1.081   3.576   1.021  1.7954  0.8198 -2.7411
 1728TIP3    H226744   1.050   3.436   0.973 -0.8082  0.1742  0.4463
 1729TIP3   OH226745   5.916   6.333   2.716  0.7013 -0.0879 -0.0475
 1729TIP3    H126746   5.919   6.428   2.720 -0.6433 -0.0125 -0.3629
 1729TIP3    H226747   5.886   6.306   2.803 -1.7214 -0.0236 -0.7943
 1730TIP3   OH226748   0.772   2.932   8.592  0.2025 -0.4228 -0.6826
 1730TIP3    H126749   0.830   2.999   8.556  0.5844 -0.2379  0.2522
 1730TIP3    H226750   0.782   2.857   8.532  2.1284 -0.7388 -0.0568
 1731TIP3   OH226751   4.937   4.864   8.372 -0.1311 -0.6271 -0.1358
 1731TIP3    H126752   4.870   4.818   8.322  0.6266 -2.1118  0.1653
 1731TIP3    H226753   4.908   4.857   8.463 -0.5110  0.3882 -0.1581
 1732TIP3   OH226754   1.586   5.550   2.451 -0.2567  0.0317 -0.0681
 1732TIP3    H126755   1.562   5.477   2.393 -2.6614 -1.6269  2.7337
 1732TIP3    H226756   1.660   5.517   2.502 -0.7866 -0.1562  0.5978
 1733TIP3   OH226757   1.431   4.870   8.109  0.3885 -0.3815  0.0628
 1733TIP3    H126758   1.514   4.900   8.146  0.7381 -0.0130 -0.9990
 1733TIP3    H226759   1.434   4.775   8.118  1.3224 -0.4445 -0.7569
 1734TIP3   OH226760   6.192   3.619   0.293 -0.3676 -0.5704 -0.3512
 1734TIP3    H126761   6.120   3.683   0.286 -0.8780 -1.2192 -1.3091
 1734TIP3    H226762   6.258   3.651   0.231 -2.2323 -2.9321 -3.8916
 1735TIP3   OH226763   5.941   5.510   0.157 -0.1691  0.1885 -0.0324
 1735TIP3    H126764   5.924   5.496   0.250 -0.7741  1.2989  0.0433
 1735TIP3    H226765   5.934   5.423   0.118  1.1002 -0.4399  1.0996
 1736TIP3   OH226766   2.274   5.040   8.448  0.3854 -0.2339 -0.3471
 1736TIP3    H126767   2.217   5.107   8.409 -0.5253 -0.7872  0.0204
 1736TIP3    H226768   2.360   5.082   8.451 -0.1935  0.9891  0.0211
 1737TIP3   OH226769   3.556   3.332   2.352 -0.0777  0.0276  0.5312
 1737TIP3    H126770   3.490   3.325   2.284  1.4905  0.7212 -1.1226
 1737TIP3    H226771   3.633   3.287   2.317  0.8707  0.6384  1.7220
 1738TIP3   OH226772   2.629   0.055   1.284 -0.3049  0.3312  0.7928
 1738TIP3    H126773   2.663   0.145   1.281  0.6872 -0.0529 -0.6380
 1738TIP3    H226774   2.675   0.014   1.357  0.4405  0.5403  0.4488
 1739TIP3   OH226775   3.200   5.847   0.996  0.1804  0.2039  0.0639
 1739TIP3    H126776   3.232   5.904   1.066  0.6573  0.4383 -0.3434
 1739TIP3    H226777   3.226   5.891   0.915 -0.3975 -0.0499 -0.2658
 1740TIP3   OH226778   3.855   4.226   3.214 -0.3658 -0.2027 -0.2790
 1740TIP3    H126779   3.928   4.261   3.265 -0.2177 -2.0213  0.8368
 1740TIP3    H226780   3.896   4.189   3.136 -0.6519  3.1615 -2.2127
 1741TIP3   OH226781   4.646   5.209   2.971  0.0134  0.0455  0.1086
 1741TIP3    H126782   4.650   5.165   2.887  1.2111 -0.7398  0.5446
 1741TIP3    H226783   4.731   5.191   3.012  0.1744  1.9606  0.7132
 1742TIP3   OH226784   5.930   6.611   7.928  0.0499  0.2649 -0.2698
 1742TIP3    H126785   5.866   6.570   7.987 -1.4321  1.0657 -1.2671
 1742TIP3    H226786   5.911   6.704   7.933 -0.2146  0.3467 -2.0835
 1743TIP3   OH226787   1.586   5.949   2.123 -0.1263  0.7794  0.3460
 1743TIP3    H126788   1.539   5.867   2.114 -0.6628  1.1103  0.0980
 1743TIP3    H226789   1.572   5.975   2.214  0.9939  0.0354  0.7556
 1744TIP3   OH226790   6.297   2.701   0.537 -0.5227 -0.3574 -0.2891
 1744TIP3    H126791   6.212   2.737   0.561 -0.3370 -1.0115  1.5411
 1744TIP3    H226792   6.352   2.717   0.613 -0.0135 -3.0423  0.0155
 1745TIP3   OH226793   0.630   5.741   7.936 -0.2244  0.0870 -0.3497
 1745TIP3    H126794   0.561   5.680   7.911 -0.7924  0.1769  0.8863
 1745TIP3    H226795   0.599   5.826   7.907 -1.7854  0.4867  2.1308
 1746TIP3   OH226796   6.215   3.640   1.335 -0.3799  0.7475 -0.0530
 1746TIP3    H126797   6.134   3.686   1.312  0.5477  2.6545  0.2730
 1746TIP3    H226798   6.208   3.625   1.429 -1.0931 -0.7200 -0.3036
 1747TIP3   OH226799   5.989   2.208   1.716 -0.5626 -0.1904  0.1720
 1747TIP3    H126800   6.030   2.243   1.637  0.7299 -2.2113 -0.1357
 1747TIP3    H226801   6.038   2.128   1.735 -1.0343  0.0542  2.8640
 1748TIP3   OH226802   2.214   3.859   0.652 -0.0954  0.1094 -0.1746
 1748TIP3    H126803   2.260   3.940   0.675  0.5100 -0.3072  0.0950
 1748TIP3    H226804   2.135   3.889   0.607  0.3271  0.8444 -0.4537
 1749TIP3   OH226805   2.405   4.067   1.523  0.5621  0.2380  0.0713
 1749TIP3    H126806   2.418   4.108   1.609 -0.2102 -1.0246  0.8304
 1749TIP3    H226807   2.461   3.989   1.526  0.7951  0.3674 -0.7293
 1750TIP3   OH226808   2.200   4.263   1.848  0.1815  0.1429 -0.0490
 1750TIP3    H126809   2.175   4.326   1.781 -1.4530 -0.0196  0.3646
 1750TIP3    H226810   2.123   4.255   1.904  0.7443 -1.3501  0.5794
 1751TIP3   OH226811   3.650   3.010   0.420  0.4020  0.4435  0.0682
 1751TIP3    H126812   3.704   2.977   0.492  1.5944  1.2596 -0.3998
 1751TIP3    H226813   3.670   2.951   0.347  0.0598  0.2917  0.0951
 1752TIP3   OH226814   1.246   0.963   0.346 -0.2878 -0.8212  0.2386
 1752TIP3    H126815   1.304   0.893   0.317 -0.4233 -0.5050 -0.8335
 1752TIP3    H226816   1.304   1.024   0.393  0.2067 -0.6242 -0.6139
 1753TIP3   OH226817   3.213   6.381   8.038 -0.3604  0.3263 -0.3803
 1753TIP3    H126818   3.234   6.295   8.002 -1.1672 -0.7763  1.6406
 1753TIP3    H226819   3.190   6.364   8.130 -0.7300  2.6751  0.0236
 1754TIP3   OH226820   2.879   1.578   2.347  0.3750  0.7819  0.3173
 1754TIP3    H126821   2.958   1.527   2.362 -1.3953 -1.9038  1.2645
 1754TIP3    H226822   2.835   1.533   2.274 -0.7149  1.6340  0.4184
 1755TIP3   OH226823   5.008   1.582   8.514 -0.1932  0.5916  0.4034
 1755TIP3    H126824   5.047   1.669   8.527 -0.7471  1.0171 -0.6436
 1755TIP3    H226825   5.023   1.563   8.421 -0.4440 -0.2473  0.5320
 1756TIP3   OH226826   6.248   1.449   8.010 -0.2112  0.4588 -0.1345
 1756TIP3    H126827   6.171   1.432   8.063 -1.4814  2.8664 -1.0190
 1756TIP3    H226828   6.294   1.365   8.005 -2.8809 -1.1215  0.2477
 1757TIP3   OH226829   3.866   1.536   8.433  0.2501 -0.3898 -0.1477
 1757TIP3    H126830   3.958   1.510   8.423  0.1131 -1.4686  1.1171
 1757TIP3    H226831   3.827   1.520   8.347  1.4848  1.2171 -1.0623
 1758TIP3   OH226832   3.914   0.207   1.946 -0.3371  0.0985 -0.3680
 1758TIP3    H126833   3.886   0.118   1.925  1.8391 -0.3461 -1.6901
 1758TIP3    H226834   3.925   0.249   1.861  2.1550  0.4475  0.0647
 1759TIP3   OH226835   2.753   2.858   1.489 -0.3721 -0.3684 -0.0582
 1759TIP3    H126836   2.660   2.878   1.479 -0.4814  0.8039  2.5247
 1759TIP3    H226837   2.756   2.794   1.560  0.8784  1.4663  1.6429
 1760TIP3   OH226838   0.935   3.547   2.731 -0.6681  0.4553 -0.2099
 1760TIP3    H126839   0.924   3.489   2.655  0.2175  1.4868 -1.1499
 1760TIP3    H226840   0.888   3.627   2.708  0.0068  0.9560  0.1258
 1761TIP3   OH226841   0.331   0.644   1.816  0.1661  1.0234 -0.4590
 1761TIP3    H126842   0.293   0.562   1.786  0.1349  0.4509  1.0446
 1761TIP3    H226843   0.353   0.628   1.908 -0.0758  2.7809 -0.0563
 1762TIP3   OH226844   5.172   4.723   8.556  0.8635  0.1697 -0.4560
 1762TIP3    H126845   5.081   4.749   8.573  1.1536  1.6018 -0.9836
 1762TIP3    H226846   5.187   4.749   8.465  1.3769 -1.3750 -0.8473
 1763TIP3   OH226847   0.370   4.920   1.088  0.3866  0.5625  0.0486
 1763TIP3    H126848   0.358   4.889   0.998 -0.6120  1.4007 -0.1252
 1763TIP3    H226849   0.465   4.931   1.097  1.0243 -3.6638  0.5381
 1764TIP3   OH226850   1.735   5.655   8.401 -0.2824  0.0899 -0.1661
 1764TIP3    H126851   1.661   5.708   8.432  1.3052  1.0335  2.3931
 1764TIP3    H226852   1.773   5.707   8.330 -0.0146  1.3900  0.8827
 1765TIP3   OH226853   4.608   0.208   1.893 -0.3789  0.0811 -0.4675
 1765TIP3    H126854   4.598   0.147   1.966  1.6875 -0.1867 -0.3265
 1765TIP3    H226855   4.526   0.203   1.845 -0.9110 -1.4971  0.5361
 1766TIP3   OH226856   6.406   2.657   8.329  0.6095  0.4016  0.1290
 1766TIP3    H126857   6.497   2.687   8.332  0.8291 -0.1772 -0.5648
 1766TIP3    H226858   6.361   2.712   8.393  1.5077  0.4911  0.7110
 1767TIP3   OH226859   5.798   6.597   1.836  0.7057 -0.0130 -0.1303
 1767TIP3    H126860   5.738   6.663   1.801  2.2884  0.7307 -1.5684
 1767TIP3    H226861   5.784   6.599   1.931  0.1785  1.8471 -0.2162
 1768TIP3   OH226862   6.164   1.057   8.758  0.4904 -0.2049 -0.2699
 1768TIP3    H126863   6.098   1.124   8.738  0.9570  0.7480  1.2331
 1768TIP3    H226864   6.115   0.988   8.803  0.3100 -0.0593 -0.2416
 1769TIP3   OH226865   0.189   2.064   8.645 -0.1678  0.2316  0.3808
 1769TIP3    H126866   0.179   2.157   8.662 -1.7112  0.7537 -2.7344
 1769TIP3    H226867   0.100   2.031   8.632  0.4048 -1.4996  0.5070
 1770TIP3   OH226868   3.144   5.700   2.905 -0.8356 -0.3124  0.5421
 1770TIP3    H126869   3.179   5.760   2.972 -1.6683 -0.8647  1.4954
 1770TIP3    H226870   3.065   5.664   2.944 -0.4586 -1.8973 -0.0974
 1771TIP3   OH226871   4.173   5.368   7.482 -0.0136  0.0365  0.1496
 1771TIP3    H126872   4.258   5.357   7.525 -0.7737  0.6114  1.8808
 1771TIP3    H226873   4.194   5.406   7.396  1.5023 -0.3359  0.3350
 1772TIP3   OH226874   4.653   3.229   1.420 -0.0724  0.5726 -0.6130
 1772TIP3    H126875   4.707   3.171   1.474 -0.4932 -1.1348 -1.9452
 1772TIP3    H226876   4.568   3.231   1.466 -0.9093 -2.0566 -1.8252
 1773TIP3   OH226877   5.390   6.115   2.734 -0.1907  0.6510  0.9155
 1773TIP3    H126878   5.309   6.077   2.701  0.4576  1.2378 -1.5541
 1773TIP3    H226879   5.451   6.042   2.739 -0.4140  0.4843  1.2904
 1774TIP3   OH226880   0.061   2.776   8.720  0.5487  0.1873  0.0739
 1774TIP3    H126881   0.109   2.725   8.655  1.2512  0.5392  0.3113
 1774TIP3    H226882  -0.030   2.747   8.710  0.7941 -0.4498 -0.4107
 1775TIP3   OH226883   4.449   6.765   0.958 -0.1571 -0.6122  0.1461
 1775TIP3    H126884   4.353   6.763   0.958 -0.1545 -1.4963 -1.0383
 1775TIP3    H226885   4.471   6.823   1.031 -1.5963  0.0293  0.1122
 1776TIP3   OH226886   0.335   5.250   1.890  0.2119 -0.4993 -0.0877
 1776TIP3    H126887   0.391   5.284   1.959  0.0082 -0.6712  0.1674
 1776TIP3    H226888   0.251   5.293   1.903 -0.0656 -1.1359  0.2756
 1777TIP3   OH226889   4.260   3.880   7.700  0.0893  0.6363  0.5942
 1777TIP3    H126890   4.174   3.887   7.743 -1.4539  1.6921 -2.4038
 1777TIP3    H226891   4.296   3.968   7.706  0.5166  0.4433  0.9139
 1778TIP3   OH226892   0.617   0.228   8.111 -0.1717 -0.1309 -0.3944
 1778TIP3    H126893   0.653   0.142   8.088 -0.3314 -0.8050  1.6983
 1778TIP3    H226894   0.526   0.225   8.081 -0.0880 -0.5805 -0.6146
 1779TIP3   OH226895   5.635   3.409   0.117 -0.3225 -0.5712  0.3863
 1779TIP3    H126896   5.576   3.458   0.059  0.9034 -1.4694 -1.7465
 1779TIP3    H226897   5.577   3.352   0.167 -1.5823  1.4245  1.3321
 1780TIP3   OH226898   1.900   0.781   2.431 -0.0106 -0.2038  0.0649
 1780TIP3    H126899   1.873   0.873   2.433  1.6325  0.3319 -0.3850
 1780TIP3    H226900   1.819   0.732   2.439 -1.0292  1.2856 -0.6025
 1781TIP3   OH226901   3.689   4.795   2.855 -0.2924  0.2475 -0.6279
 1781TIP3    H126902   3.602   4.818   2.890  0.1369  2.0272 -0.6165
 1781TIP3    H226903   3.675   4.784   2.761 -0.5518  0.4456 -0.6140
 1782TIP3   OH226904   6.703   5.793   7.200  0.4195  0.4054  0.7343
 1782TIP3    H126905   6.769   5.860   7.184  0.8845 -0.2434 -0.1404
 1782TIP3    H226906   6.643   5.800   7.126  0.6115 -0.3042  0.5037
 1783TIP3   OH226907   4.471   5.282   7.576 -0.2468 -0.3913  0.2573
 1783TIP3    H126908   4.490   5.255   7.666  1.0804 -0.5379 -0.0512
 1783TIP3    H226909   4.502   5.372   7.571 -1.7023  0.1373  0.3600
 1784TIP3   OH226910   6.185   6.321   0.939 -0.2409 -0.3351  0.3891
 1784TIP3    H126911   6.254   6.289   0.998  0.3982  1.6522  0.8181
 1784TIP3    H226912   6.229   6.334   0.856 -1.3788 -4.1811 -1.0289
 1785TIP3   OH226913   6.588   3.363   0.863 -0.1005  0.5681  0.3267
 1785TIP3    H126914   6.506   3.332   0.901 -0.0713 -0.5603 -0.4666
 1785TIP3    H226915   6.610   3.441   0.912 -0.8688  0.0329  1.5583
 1786TIP3   OH226916   3.382   0.159   8.295 -0.1958  0.3082  0.0820
 1786TIP3    H126917   3.438   0.084   8.318 -1.6998 -0.5188  1.2369
 1786TIP3    H226918   3.408   0.182   8.206  1.5563 -0.4086  0.3555
 1787TIP3   OH226919   4.712   0.571   2.946 -0.0620 -0.6854  0.1432
 1787TIP3    H126920   4.675   0.639   3.002  1.0615 -0.5400  0.7321
 1787TIP3    H226921   4.735   0.616   2.865  1.2236 -0.2107  0.7467
 1788TIP3   OH226922   3.270   2.143   1.785 -0.0344 -0.3601  0.2628
 1788TIP3    H126923   3.218   2.091   1.724  0.3254  0.6345 -0.9231
 1788TIP3    H226924   3.348   2.089   1.801 -0.6137 -1.0921  0.7016
 1789TIP3   OH226925   1.686   4.365   1.385 -0.2308  0.1643 -0.5866
 1789TIP3    H126926   1.755   4.392   1.446 -1.1804 -0.2633  0.6978
 1789TIP3    H226927   1.671   4.273   1.404 -2.2106  0.6086  0.2299
 1790TIP3   OH226928   5.992   4.671   0.275  0.6880  0.5995 -0.8155
 1790TIP3    H126929   6.042   4.729   0.333  1.3922  1.1074 -1.8904
 1790TIP3    H226930   5.973   4.594   0.328  0.5961  1.3892  0.3426
 1791TIP3   OH226931   2.448   1.887   8.326 -0.3373 -0.2709 -0.4164
 1791TIP3    H126932   2.504   1.963   8.317 -1.8154  0.7362 -1.6045
 1791TIP3    H226933   2.403   1.900   8.410  0.3092 -0.4979 -0.0230
 1792TIP3   OH226934   3.554   1.582   0.710  0.0893  0.1340 -0.0481
 1792TIP3    H126935   3.542   1.670   0.674  1.0286  0.6912  0.9067
 1792TIP3    H226936   3.590   1.531   0.638  1.6996  1.1484 -0.0259
 1793TIP3   OH226937   0.739   1.610   2.401 -0.6442  0.0522 -0.2143
 1793TIP3    H126938   0.673   1.680   2.397 -0.7488 -0.1102 -1.6489
 1793TIP3    H226939   0.811   1.649   2.452 -1.4204  0.5715  0.5241
 1794TIP3   OH226940   6.523   5.286   8.306  0.2478  0.4471 -0.0062
 1794TIP3    H126941   6.459   5.351   8.336 -0.4632 -1.1130  2.0482
 1794TIP3    H226942   6.470   5.213   8.275  1.0396 -0.1321 -0.0113
 1795TIP3   OH226943   4.830   4.331   2.473 -0.0073 -0.0361  0.0242
 1795TIP3    H126944   4.855   4.350   2.563 -1.0700 -0.5409  0.4449
 1795TIP3    H226945   4.760   4.394   2.454  0.5353  0.3872 -0.6261
 1796TIP3   OH226946   4.616   5.289   2.141 -0.8210 -0.4168  0.1192
 1796TIP3    H126947   4.700   5.325   2.167 -0.3025 -2.3810  1.3715
 1796TIP3    H226948   4.563   5.366   2.119  1.6733  0.8038 -2.1046
 1797TIP3   OH226949   3.833   3.494   2.001 -0.1263  0.1793 -0.5012
 1797TIP3    H126950   3.880   3.434   1.943 -0.4626  0.2526 -0.8575
 1797TIP3    H226951   3.758   3.524   1.949 -0.3728  0.3333 -0.0651
 1798TIP3   OH226952   5.822   1.465   7.930 -0.2560  0.5430 -1.1121
 1798TIP3    H126953   5.753   1.414   7.886  0.2038  0.2265 -1.4771
 1798TIP3    H226954   5.889   1.476   7.864  0.3843  0.1875 -0.5377
 1799TIP3   OH226955   2.104   4.668   1.719 -1.0305  0.1565 -0.2680
 1799TIP3    H126956   2.085   4.646   1.628 -2.5449 -0.2841  0.1294
 1799TIP3    H226957   2.021   4.699   1.755 -0.1109  1.8176  0.5693
 1800TIP3   OH226958   4.355   5.790   1.684 -0.2047  0.2743 -0.2610
 1800TIP3    H126959   4.367   5.708   1.732  0.0203 -0.1022 -0.9561
 1800TIP3    H226960   4.276   5.828   1.721  0.9038  0.8570  1.6514
 1801TIP3   OH226961   2.623   5.323   0.368 -0.3255  0.6199 -0.3729
 1801TIP3    H126962   2.528   5.323   0.370 -0.3498  0.7914  1.7904
 1801TIP3    H226963   2.647   5.374   0.291 -1.9542  0.1730 -1.2084
 1802TIP3   OH226964   3.371   1.522   7.793 -0.8059 -0.0418 -0.1016
 1802TIP3    H126965   3.327   1.584   7.851 -0.4972  0.9132 -0.8593
 1802TIP3    H226966   3.463   1.545   7.800 -0.8198  0.4891 -1.4056
 1803TIP3   OH226967   6.553   3.640   2.682 -0.3733 -0.0296  0.5900
 1803TIP3    H126968   6.580   3.719   2.728 -0.4581 -0.8168  2.0684
 1803TIP3    H226969   6.568   3.569   2.745  1.6234 -1.4782 -1.3762
 1804TIP3   OH226970   3.222   3.265   7.869 -0.1975  0.2243  0.2961
 1804TIP3    H126971   3.168   3.231   7.940 -0.6064 -0.7972 -0.4770
 1804TIP3    H226972   3.286   3.321   7.912  0.5281 -1.5505  1.6600
 1805TIP3   OH226973   5.201   1.571   1.495  0.2085 -0.6847  0.0497
 1805TIP3    H126974   5.128   1.597   1.439 -0.5562 -0.9239  0.9193
 1805TIP3    H226975   5.213   1.645   1.555  0.0067 -1.0781  0.5773
 1806TIP3   OH226976   0.180   5.830   7.960 -0.0644 -0.1853  0.5953
 1806TIP3    H126977   0.237   5.856   7.888 -0.2163  1.6983  1.0986
 1806TIP3    H226978   0.098   5.879   7.945 -0.3521 -0.3226  1.6408
 1807TIP3   OH226979   5.949   5.394   0.410 -0.3697 -0.5399 -0.3762
 1807TIP3    H126980   5.966   5.356   0.496 -2.3856 -0.1647  0.2412
 1807TIP3    H226981   5.869   5.349   0.380 -1.2922  1.2778 -0.7912
 1808TIP3   OH226982   2.187   2.779   1.669 -0.4138  0.5328  0.2737
 1808TIP3    H126983   2.199   2.771   1.574 -0.3321  1.5209  0.1983
 1808TIP3    H226984   2.270   2.815   1.701 -1.0772  1.9159  0.4832
 1809TIP3   OH226985   5.367   6.728   7.388  0.0973  0.1382  0.1227
 1809TIP3    H126986   5.350   6.781   7.310 -1.4026  0.0053  0.3196
 1809TIP3    H226987   5.312   6.650   7.376 -1.5840  0.9153  2.0786
 1810TIP3   OH226988   4.139   4.337   2.516  0.1849  0.2027  0.3022
 1810TIP3    H126989   4.175   4.345   2.428  0.4338  0.9793  0.4716
 1810TIP3    H226990   4.162   4.248   2.543  2.6355  0.9046  0.7066
 1811TIP3   OH226991   6.707   0.484   2.280  1.3727  0.0845  0.2931
 1811TIP3    H126992   6.700   0.535   2.200 -0.2250 -0.4685  0.0485
 1811TIP3    H226993   6.714   0.549   2.350 -2.1915  0.8327  0.1628
 1812TIP3   OH226994   3.484   6.583   1.575  0.1178 -0.2411 -0.2518
 1812TIP3    H126995   3.488   6.504   1.521 -0.4078  0.5879 -1.5385
 1812TIP3    H226996   3.461   6.653   1.514  2.1035  1.2063  0.5356
 1813TIP3   OH226997   1.336   2.066   1.392 -0.0513 -0.2960 -0.1315
 1813TIP3    H126998   1.419   2.085   1.435  0.1448  0.4083 -0.8069
 1813TIP3    H226999   1.336   2.120   1.313 -2.4795  2.2239  1.3888
 1814TIP3   OH227000   0.484   1.441   8.608  0.1471 -0.1163  0.8764
 1814TIP3    H127001   0.394   1.473   8.596  0.1212 -0.5650 -0.3497
 1814TIP3    H227002   0.531   1.477   8.533  0.8177 -0.4956  1.1118
 1815TIP3   OH227003   2.928   3.905   8.632  0.4690 -0.0542  0.2459
 1815TIP3    H127004   2.938   3.844   8.559  1.0772 -0.1830  0.4310
 1815TIP3    H227005   2.841   3.887   8.667 -0.5118  1.0791 -1.4146
 1816TIP3   OH227006   6.792   2.866   2.761  0.0650 -0.7244  0.0220
 1816TIP3    H127007   6.835   2.950   2.772 -0.6492 -0.3272 -0.1479
 1816TIP3    H227008   6.816   2.816   2.839  0.9513 -0.5791 -0.1427
 1817TIP3   OH227009   5.663   0.009   2.262 -0.5576 -0.0119 -0.5052
 1817TIP3    H127010   5.718   0.078   2.226 -1.6964  0.2686 -1.7989
 1817TIP3    H227011   5.699  -0.007   2.349  1.1106  0.6351 -1.0342
 1818TIP3   OH227012   4.548   4.662   2.592 -0.3180 -0.5619 -0.0924
 1818TIP3    H127013   4.492   4.646   2.669 -0.8097 -2.5645 -0.8206
 1818TIP3    H227014   4.631   4.692   2.629 -1.0136 -0.0483  1.1340
 1819TIP3   OH227015   4.185   4.546   1.310 -0.5628 -0.0348 -0.0164
 1819TIP3    H127016   4.145   4.461   1.331  0.1867 -0.0044  1.6683
 1819TIP3    H227017   4.259   4.524   1.253  0.6077 -0.7132  1.6962
 1820TIP3   OH227018   0.437   4.248   8.511  0.1973 -0.9443  0.1158
 1820TIP3    H127019   0.446   4.186   8.438 -1.4167 -0.9051 -0.1430
 1820TIP3    H227020   0.403   4.196   8.583 -0.2601 -0.5480  0.1864
 1821TIP3   OH227021   0.022   1.572   2.800  0.0936  0.1015 -0.3792
 1821TIP3    H127022   0.100   1.592   2.749 -0.0560  1.6500 -0.0642
 1821TIP3    H227023  -0.031   1.652   2.795 -0.2716  0.0349  1.5460
 1822TIP3   OH227024   3.995   6.623   8.211 -0.4126 -0.3821  0.6223
 1822TIP3    H127025   4.060   6.691   8.228 -0.3672 -0.4626  0.7712
 1822TIP3    H227026   3.933   6.631   8.283 -0.9973  0.2074  0.0646
 1823TIP3   OH227027   3.122   2.122   7.561  0.5935  0.8808  0.3616
 1823TIP3    H127028   3.079   2.206   7.545  2.7492  2.0269  0.2570
 1823TIP3    H227029   3.108   2.072   7.480 -0.4511  1.2156  0.3128
 1824TIP3   OH227030   1.617   2.301   0.310  0.5130  0.4137  0.4365
 1824TIP3    H127031   1.652   2.388   0.328 -0.1155  0.8270 -0.3048
 1824TIP3    H227032   1.602   2.300   0.216  0.8130 -0.6122  0.3902
 1825TIP3   OH227033   0.038   3.361   1.893 -0.7229  0.1636 -0.4143
 1825TIP3    H127034   0.092   3.398   1.963 -1.1670  2.3063 -1.1316
 1825TIP3    H227035   0.081   3.279   1.869  1.0073  0.7892  0.4528
 1826TIP3   OH227036   2.289   1.954   2.809  0.1560  0.8330  0.0945
 1826TIP3    H127037   2.286   1.870   2.855 -1.9093  2.4393  3.2136
 1826TIP3    H227038   2.309   1.931   2.719 -0.9593 -3.0691  0.6701
 1827TIP3   OH227039   3.483   2.078   8.758  0.1899  0.3317 -0.0961
 1827TIP3    H127040   3.425   2.033   8.697  1.3928 -1.1623 -0.2037
 1827TIP3    H227041   3.570   2.067   8.720  0.7602  0.9083  1.0030
 1828TIP3   OH227042   0.123   6.088   1.341 -0.1876  0.1993 -0.5262
 1828TIP3    H127043   0.217   6.091   1.358 -0.1344  0.1099 -0.7931
 1828TIP3    H227044   0.085   6.049   1.420  0.1760 -1.3422 -1.0662
 1829TIP3   OH227045   2.706   0.131   7.375 -0.2211  0.2369 -0.2606
 1829TIP3    H127046   2.713   0.217   7.334 -0.1199  0.4458  0.1796
 1829TIP3    H227047   2.745   0.071   7.313 -0.8471  0.4226 -0.8420
 1830TIP3   OH227048   2.291   3.683   8.584 -0.1502  0.3343  0.2028
 1830TIP3    H127049   2.343   3.631   8.646  3.5090  1.0722 -1.9220
 1830TIP3    H227050   2.242   3.619   8.534 -0.8045 -0.4886  1.8411
 1831TIP3   OH227051   1.174   1.126   8.154 -0.0096  0.0604 -0.0975
 1831TIP3    H127052   1.178   1.057   8.088 -0.5760  1.2508 -1.4249
 1831TIP3    H227053   1.249   1.182   8.135 -2.2053  2.5419 -2.2832
 1832TIP3   OH227054   4.423   0.246   8.144  0.0194 -0.3653 -0.2052
 1832TIP3    H127055   4.332   0.217   8.139  0.3733 -1.3796 -1.2815
 1832TIP3    H227056   4.472   0.176   8.100  1.6114 -1.1221  2.5636
 1833TIP3   OH227057   2.809   2.308   0.922  0.1676 -0.2358  0.4473
 1833TIP3    H127058   2.901   2.325   0.942  0.0865 -2.0067  2.6587
 1833TIP3    H227059   2.765   2.390   0.943  1.1379  0.4812 -0.1773
 1834TIP3   OH227060   5.984   1.447   0.482 -0.6189  0.0302  0.0848
 1834TIP3    H127061   6.046   1.491   0.425 -0.6459 -1.2270 -0.9651
 1834TIP3    H227062   6.034   1.376   0.523 -0.5733  0.9644  1.7518
 1835TIP3   OH227063   4.969   6.705   1.174  0.2682  0.0801 -0.2035
 1835TIP3    H127064   5.036   6.696   1.242  0.2752 -1.2674 -0.3617
 1835TIP3    H227065   4.994   6.640   1.108 -2.2188 -1.8516  0.6108
 1836TIP3   OH227066   1.639   4.424   2.070 -0.5447 -0.4303  0.5181
 1836TIP3    H127067   1.614   4.338   2.035 -0.6332 -0.2551  0.1453
 1836TIP3    H227068   1.657   4.408   2.163  0.2981 -1.0221  0.2635
 1837TIP3   OH227069   1.445   0.466   1.206  0.8663  0.0642  0.1610
 1837TIP3    H127070   1.418   0.386   1.161  0.6505 -0.2545  0.8555
 1837TIP3    H227071   1.397   0.466   1.288 -1.7087  2.5609 -1.1630
 1838TIP3   OH227072   4.260   1.724   7.689  0.7679  0.4224 -0.2102
 1838TIP3    H127073   4.257   1.660   7.761 -0.1240 -0.9256 -1.3794
 1838TIP3    H227074   4.279   1.807   7.731  1.6018 -0.5449  1.4298
 1839TIP3   OH227075   1.584   5.590   0.259  0.0716 -0.2245  0.3449
 1839TIP3    H127076   1.633   5.520   0.303  1.8829  0.5218 -0.3712
 1839TIP3    H227077   1.560   5.650   0.329  1.5675  0.1622  0.5747
 1840TIP3   OH227078   1.549   3.967   7.252  0.2315  0.1536  0.1641
 1840TIP3    H127079   1.518   4.053   7.281 -1.7161 -0.2878 -0.4931
 1840TIP3    H227080   1.517   3.958   7.163  1.9715 -0.5440 -0.4439
 1841TIP3   OH227081   1.767   1.539   2.261 -0.0032  0.1594  0.0990
 1841TIP3    H127082   1.788   1.487   2.339 -0.5727  0.5740  0.5342
 1841TIP3    H227083   1.851   1.548   2.215  0.0796 -1.3147 -0.1012
 1842TIP3   OH227084   4.287   6.314   2.447  0.2770  0.0913 -0.2520
 1842TIP3    H127085   4.354   6.352   2.390  0.5283 -0.1897 -0.1421
 1842TIP3    H227086   4.280   6.376   2.520  2.9635 -1.5913  1.5813
 1843TIP3   OH227087   6.589   0.249   0.739  0.3851 -0.1697 -0.0913
 1843TIP3    H127088   6.537   0.177   0.704  1.6153 -0.3533 -1.6618
 1843TIP3    H227089   6.679   0.226   0.718  0.9432  1.0870  0.7851
 1844TIP3   OH227090   3.806   5.930   7.771 -0.2742 -0.2589 -0.1834
 1844TIP3    H127091   3.716   5.924   7.802 -0.6420  2.0231 -0.6387
 1844TIP3    H227092   3.802   5.992   7.698  1.6316 -0.3389 -0.4084
 1845TIP3   OH227093   1.343   5.345   7.268 -0.3799 -0.5057 -0.3178
 1845TIP3    H127094   1.329   5.355   7.174 -1.9328  3.3323  0.1338
 1845TIP3    H227095   1.425   5.391   7.285  0.6105 -2.3398  0.1333
 1846TIP3   OH227096   0.820   1.565   0.924 -0.0205 -0.5340  0.3404
 1846TIP3    H127097   0.861   1.588   0.841 -1.2365  0.4904 -0.0069
 1846TIP3    H227098   0.788   1.476   0.911  0.1610 -0.5311 -0.1456
 1847TIP3   OH227099   1.788   6.381   1.771 -0.5488 -0.4215  0.1334
 1847TIP3    H127100   1.840   6.316   1.818  0.1582 -0.2791 -0.4468
 1847TIP3    H227101   1.707   6.387   1.822 -0.2600 -1.0976  0.6957
 1848TIP3   OH227102   4.795   1.595   7.824 -0.2181  0.5784 -0.8397
 1848TIP3    H127103   4.735   1.652   7.777 -2.2961 -1.4286 -0.8088
 1848TIP3    H227104   4.779   1.508   7.787  0.4297 -0.5302  1.3422
 1849TIP3   OH227105   5.496   1.573   2.346  0.3974  0.4645 -0.4231
 1849TIP3    H127106   5.459   1.594   2.432  0.2462 -0.1688 -0.3257
 1849TIP3    H227107   5.583   1.538   2.366 -0.4235 -1.7292 -0.3187
 1850TIP3   OH227108   5.644   4.926   2.070  0.1958 -0.0636 -0.5208
 1850TIP3    H127109   5.614   5.015   2.090 -1.2819 -0.2128 -1.8748
 1850TIP3    H227110   5.717   4.912   2.130 -0.2453  1.6450  0.5056
 1851TIP3   OH227111   1.951   1.349   8.331  0.2395  0.5698  0.1560
 1851TIP3    H127112   1.900   1.416   8.286  0.7400  1.5135  0.9360
 1851TIP3    H227113   1.957   1.277   8.269 -1.6016  0.6237 -0.1482
 1852TIP3   OH227114   6.460   6.222   1.088  0.0167  0.4334 -0.0867
 1852TIP3    H127115   6.554   6.228   1.072  0.0508 -1.3206 -0.7599
 1852TIP3    H227116   6.452   6.161   1.162 -0.6064  0.3503 -0.2177
 1853TIP3   OH227117   1.172   6.539   1.920  0.2797 -0.0478 -0.3004
 1853TIP3    H127118   1.178   6.473   1.850 -0.8657 -0.6006  0.0937
 1853TIP3    H227119   1.079   6.556   1.928  0.5069  1.0224  0.1873
 1854TIP3   OH227120   3.326   1.045   0.816  0.0862  0.7918  0.4207
 1854TIP3    H127121   3.363   1.005   0.737  1.3541  0.5810  1.0868
 1854TIP3    H227122   3.248   1.091   0.786 -0.7528 -1.1582 -0.5888
 1855TIP3   OH227123   1.184   4.256   1.077 -0.2088 -0.0908  0.6215
 1855TIP3    H127124   1.164   4.335   1.127 -2.2558  0.0107 -0.2384
 1855TIP3    H227125   1.181   4.285   0.986  1.0696 -0.7630  0.3497
 1856TIP3   OH227126   6.178   3.118   1.414 -0.0597  0.1058  0.5244
 1856TIP3    H127127   6.242   3.057   1.376 -0.7487 -0.6813  0.5987
 1856TIP3    H227128   6.124   3.063   1.471 -0.0786  0.9740  1.3600
 1857TIP3   OH227129   0.801   4.449   8.304  0.1319 -0.2112 -0.2834
 1857TIP3    H127130   0.800   4.411   8.217  1.7592  2.3662 -1.5817
 1857TIP3    H227131   0.894   4.455   8.327 -0.1498  1.0423  0.6963
 1858TIP3   OH227132   5.362   5.447   0.802 -0.5217 -0.4442 -0.1687
 1858TIP3    H127133   5.332   5.412   0.719 -0.2244 -1.9485  0.3248
 1858TIP3    H227134   5.357   5.542   0.792 -0.9639 -0.6129 -1.7082
 1859TIP3   OH227135   3.578   1.231   8.053 -0.2622  0.2785  0.3860
 1859TIP3    H127136   3.496   1.197   8.019  0.5004  0.4945 -1.8204
 1859TIP3    H227137   3.644   1.169   8.023  0.4261  0.0768  2.1727
 1860TIP3   OH227138   5.047   5.940   1.311  0.1134 -0.0426  0.0953
 1860TIP3    H127139   4.973   5.881   1.322 -1.4679  1.8036 -0.2065
 1860TIP3    H227140   5.116   5.902   1.365 -1.5405 -0.9862  1.6580
 1861TIP3   OH227141   2.770   6.260   2.553 -0.6549 -0.7536  0.8054
 1861TIP3    H127142   2.830   6.254   2.627 -0.6036  0.6419  0.8863
 1861TIP3    H227143   2.778   6.350   2.522 -0.2466 -1.4394 -1.2613
 1862TIP3   OH227144   3.096   3.264   8.545 -0.2341  0.0674  0.0746
 1862TIP3    H127145   3.029   3.302   8.487 -0.6607 -2.1185 -0.9640
 1862TIP3    H227146   3.046   3.227   8.617  0.1809  1.3930  1.0826
 1863TIP3   OH227147   3.563   0.223   0.161 -0.3968 -0.1089 -0.5773
 1863TIP3    H127148   3.477   0.259   0.137 -0.7735  0.0896  0.9970
 1863TIP3    H227149   3.546   0.130   0.178 -0.4103  0.0417  0.2485
 1864TIP3   OH227150   5.970   4.239   1.942 -0.0732 -0.6888  0.0043
 1864TIP3    H127151   5.956   4.199   1.856 -2.4797  0.5330 -0.2224
 1864TIP3    H227152   6.064   4.258   1.944  0.3522 -2.3360 -1.6161
 1865TIP3   OH227153   5.590   3.113   2.235 -0.2570 -0.5916  0.3946
 1865TIP3    H127154   5.654   3.041   2.232  2.1463  1.2592  2.5688
 1865TIP3    H227155   5.515   3.075   2.281  0.0099 -2.2860 -0.4639
 1866TIP3   OH227156   0.703   5.048   2.387 -0.1357  0.1723  0.2673
 1866TIP3    H127157   0.734   5.068   2.299 -0.4373  1.2912  0.3986
 1866TIP3    H227158   0.763   5.095   2.445  0.5313 -1.1906  0.7013
 1867TIP3   OH227159   5.562   1.105   0.572  0.1090  0.1009 -1.2415
 1867TIP3    H127160   5.518   1.190   0.563 -1.5360 -0.4512  0.8860
 1867TIP3    H227161   5.639   1.124   0.626  0.0262  0.3303 -1.2005
 1868TIP3   OH227162   6.464   1.570   2.461  0.0939  0.3661 -0.5414
 1868TIP3    H127163   6.490   1.634   2.394  0.3481  1.4005  0.5035
 1868TIP3    H227164   6.382   1.533   2.429 -1.2015  2.7383 -0.2571
 1869TIP3   OH227165   3.558   4.814   1.745 -0.2194 -0.4720  0.1924
 1869TIP3    H127166   3.603   4.891   1.710 -1.3887  0.2551  0.2256
 1869TIP3    H227167   3.543   4.834   1.837  0.8845 -1.4389  0.6023
 1870TIP3   OH227168   3.567   2.124   7.155  0.4248  0.2228 -0.0711
 1870TIP3    H127169   3.561   2.058   7.224  1.5062  0.3753  0.1891
 1870TIP3    H227170   3.661   2.131   7.138  0.1761  0.1761 -1.5738
 1871TIP3   OH227171   4.891   5.828   8.320 -0.3063  0.9702 -0.1241
 1871TIP3    H127172   4.880   5.910   8.272 -0.2666 -0.2181 -2.2614
 1871TIP3    H227173   4.876   5.759   8.255  0.2159 -0.7400  1.4690
 1872TIP3   OH227174   6.761   0.905   0.317 -0.3371 -0.1771 -0.6251
 1872TIP3    H127175   6.728   0.817   0.334  0.2513 -0.4748 -1.0089
 1872TIP3    H227176   6.704   0.962   0.369 -1.3002 -0.6957 -1.0815
 1873TIP3   OH227177   6.714   6.283   0.614 -0.4826 -0.1649 -0.0936
 1873TIP3    H127178   6.807   6.272   0.637 -0.8887 -1.6636  0.9642
 1873TIP3    H227179   6.715   6.295   0.519  0.8956  1.5534  0.0697
 1874TIP3   OH227180   2.256   0.994   1.762 -0.4466 -0.4853 -0.7342
 1874TIP3    H127181   2.350   0.989   1.748 -0.2003 -0.3413  0.7003
 1874TIP3    H227182   2.247   1.033   1.849 -1.8286 -0.4984 -0.8551
 1875TIP3   OH227183   1.848   0.765   3.438  0.2129 -0.0783  0.0632
 1875TIP3    H127184   1.937   0.758   3.473  0.2177  2.1461  0.6199
 1875TIP3    H227185   1.860   0.773   3.343  0.3936 -2.5968 -0.1872
 1876TIP3   OH227186   0.765   1.949   7.995  0.5695 -0.1958  0.5303
 1876TIP3    H127187   0.678   1.988   7.992  0.6998  0.0399 -1.3142
 1876TIP3    H227188   0.825   2.018   7.965  1.0412 -1.1115 -0.7844
 1877TIP3   OH227189   1.408   2.977   0.096 -0.3385 -0.1489  0.1553
 1877TIP3    H127190   1.342   2.914   0.067  0.7192 -1.1036 -0.2622
 1877TIP3    H227191   1.489   2.926   0.104  0.5575  1.1461 -0.1797
 1878TIP3   OH227192   0.715   0.002   0.934 -0.1853  0.0210  0.7513
 1878TIP3    H127193   0.791  -0.016   0.989 -0.7599  0.8204  1.8395
 1878TIP3    H227194   0.684  -0.085   0.907  1.5575 -0.3006 -0.3843
 1879TIP3   OH227195   0.421   4.992   2.871  0.1987 -0.4092 -0.7170
 1879TIP3    H127196   0.509   4.956   2.858  1.8945  2.8836  0.3504
 1879TIP3    H227197   0.396   4.965   2.959  1.2979  0.6744 -0.0491
 1880TIP3   OH227198   3.289   5.137   1.993 -0.4161  0.2379 -0.1803
 1880TIP3    H127199   3.215   5.077   2.004  0.1847 -0.7927 -1.4117
 1880TIP3    H227200   3.304   5.139   1.899  1.6496 -0.2606  0.0954
 1881TIP3   OH227201   0.327   3.499   0.759 -0.1669  0.6562  0.1763
 1881TIP3    H127202   0.357   3.571   0.702 -2.1945  2.4404  1.2213
 1881TIP3    H227203   0.237   3.522   0.780 -0.4379 -1.5486  1.6738
 1882TIP3   OH227204   3.130   4.473   8.146  0.2047 -0.8581  0.2523
 1882TIP3    H127205   3.133   4.481   8.242 -1.4442 -0.3335  0.2896
 1882TIP3    H227206   3.139   4.563   8.114  1.2794 -1.0822 -0.1378
 1883TIP3   OH227207   5.310   6.609   1.103 -0.2859 -0.1238  0.0860
 1883TIP3    H127208   5.223   6.571   1.097 -0.8025  0.8875  0.8169
 1883TIP3    H227209   5.335   6.597   1.195  0.2936 -0.3055 -0.0926
 1884TIP3   OH227210   2.724   6.627   1.116 -0.1655 -0.0560  0.1430
 1884TIP3    H127211   2.742   6.534   1.128  2.6200  0.1795 -1.3366
 1884TIP3    H227212   2.677   6.632   1.033 -1.0873 -0.1721  0.6450
 1885TIP3   OH227213   3.596   2.111   1.172 -0.1327 -0.1299  0.7279
 1885TIP3    H127214   3.531   2.179   1.157  0.5706  0.2973 -0.5500
 1885TIP3    H227215   3.591   2.055   1.094  1.2074  0.0757  0.4711
 1886TIP3   OH227216   4.091   6.224   7.924  0.5727 -0.6697 -0.7566
 1886TIP3    H127217   4.011   6.189   7.961 -0.3374  0.0799 -1.9472
 1886TIP3    H227218   4.086   6.319   7.940  1.2918 -0.6227 -0.7332
 1887TIP3   OH227219   3.276   4.746   1.197 -0.0694  0.3722  0.0691
 1887TIP3    H127220   3.326   4.724   1.276 -1.0576 -0.4297  0.4972
 1887TIP3    H227221   3.311   4.689   1.129  1.9645  2.2439 -0.5668
 1888TIP3   OH227222   1.549   5.386   0.444  0.9056 -0.2428  0.3248
 1888TIP3    H127223   1.568   5.312   0.385 -1.0750  0.8979 -1.9803
 1888TIP3    H227224   1.471   5.358   0.491  0.0890  0.3347 -0.6291
 1889TIP3   OH227225   4.685   0.201   7.767  0.0445  0.4261 -0.3190
 1889TIP3    H127226   4.629   0.258   7.820 -1.0473 -1.3393  0.5256
 1889TIP3    H227227   4.662   0.223   7.677  0.3516  1.9715 -0.0439
 1890TIP3   OH227228   3.214   1.202   7.114 -0.0457 -0.2043  0.4930
 1890TIP3    H127229   3.248   1.284   7.150  0.9048 -1.5593  2.9045
 1890TIP3    H227230   3.291   1.161   7.074 -0.1973 -0.5591  0.5677
 1891TIP3   OH227231   5.541   6.010   3.354  0.4620 -0.4555 -0.1469
 1891TIP3    H127232   5.598   6.037   3.426  0.2992  1.4085 -0.6628
 1891TIP3    H227233   5.579   6.053   3.277 -1.6366  0.9527 -0.4881
 1892TIP3   OH227234   4.309   1.988   8.621 -0.8323 -0.2840  0.3229
 1892TIP3    H127235   4.369   2.039   8.567 -0.0765 -1.2908  0.1829
 1892TIP3    H227236   4.364   1.948   8.688 -1.3488 -1.1783  0.2303
 1893TIP3   OH227237   3.482   0.492   8.241  0.0231 -0.0673  0.0798
 1893TIP3    H127238   3.497   0.565   8.181 -1.0568 -0.8413 -1.2024
 1893TIP3    H227239   3.457   0.419   8.184  0.6575 -1.3350  1.3519
 1894TIP3   OH227240   4.163   6.824   8.265  0.4611  0.0726 -0.3543
 1894TIP3    H127241   4.144   6.881   8.190  1.2821  1.2226  0.2692
 1894TIP3    H227242   4.163   6.884   8.340 -0.5007 -1.0787  0.6012
 1895TIP3   OH227243   0.093   6.378   0.939 -0.2801  0.3527  0.7100
 1895TIP3    H127244   0.075   6.307   1.000 -1.3694  0.0837  0.0944
 1895TIP3    H227245   0.050   6.455   0.978  3.0601  1.3969  2.7366
 1896TIP3   OH227246   5.865   4.713   8.054 -0.0173 -0.2195  0.3551
 1896TIP3    H127247   5.923   4.702   7.979 -0.5721  0.5652 -0.2129
 1896TIP3    H227248   5.919   4.691   8.130  0.2990 -1.9215 -0.3149
 1897TIP3   OH227249   6.068   6.329   2.979 -0.8623 -0.2342 -0.1432
 1897TIP3    H127250   6.017   6.254   3.009 -2.5714 -0.1974 -2.6593
 1897TIP3    H227251   6.037   6.402   3.033 -2.0903 -0.5923 -0.3357
 1898TIP3   OH227252   2.091   4.041   1.733  0.6016 -0.1983  0.0969
 1898TIP3    H127253   2.020   4.009   1.790  1.8210 -0.7806  1.3406
 1898TIP3    H227254   2.108   4.130   1.763 -0.0990  0.2290 -0.7225
 1899TIP3   OH227255   4.914   3.923   1.029  0.0230  0.4002 -0.2023
 1899TIP3    H127256   4.915   3.989   1.098  0.4156  0.2145 -0.0297
 1899TIP3    H227257   4.965   3.849   1.064 -0.9792 -0.2717 -0.1213
 1900TIP3   OH227258   0.815   2.283   1.936  0.0205  0.1563  0.2710
 1900TIP3    H127259   0.876   2.238   1.994 -1.6767 -2.9898 -0.1395
 1900TIP3    H227260   0.867   2.307   1.859  0.6971 -3.6209 -0.6722
 1901TIP3   OH227261   5.374   2.219   1.570 -0.2019  0.6565 -0.8867
 1901TIP3    H127262   5.382   2.128   1.543 -1.7481  0.2308 -0.0073
 1901TIP3    H227263   5.440   2.230   1.639 -0.0364  0.2032 -0.9698
 1902TIP3   OH227264   0.445   6.828   0.422  0.2182 -0.4004 -0.4750
 1902TIP3    H127265   0.399   6.744   0.414 -1.4532  0.4655 -0.5335
 1902TIP3    H227266   0.529   6.814   0.380  1.3711 -3.0168  2.3451
 1903TIP3   OH227267   1.335   6.765   2.027  0.0311 -0.2498  0.3343
 1903TIP3    H127268   1.266   6.702   2.008 -0.3142 -0.2984  1.6339
 1903TIP3    H227269   1.335   6.825   1.952 -2.8403  0.9820  1.2004
 1904TIP3   OH227270   6.621   3.193   0.348 -0.0170 -0.4696 -0.3498
 1904TIP3    H127271   6.631   3.286   0.328 -0.2807 -0.3661 -0.0076
 1904TIP3    H227272   6.625   3.149   0.263  1.1683 -0.2429 -0.4354
 1905TIP3   OH227273   1.635   1.683   3.101 -0.2790  0.0415 -0.0940
 1905TIP3    H127274   1.663   1.772   3.080  1.4398 -0.1130  1.2996
 1905TIP3    H227275   1.573   1.695   3.173 -0.5122  0.1537 -0.3141
 1906TIP3   OH227276   3.646   4.191   8.430  0.2452  0.2874  0.1946
 1906TIP3    H127277   3.724   4.241   8.455  0.6718  0.1730 -0.8733
 1906TIP3    H227278   3.576   4.256   8.428  0.7726  0.8422 -1.0617
 1907TIP3   OH227279   5.879   6.621   2.277 -0.1669 -0.3392  0.0230
 1907TIP3    H127280   5.946   6.598   2.342  1.7871  0.8688 -1.4318
 1907TIP3    H227281   5.820   6.545   2.276  0.8875 -1.2636  1.7213
 1908TIP3   OH227282   1.782   1.059   1.990  0.5720  0.2631 -0.3055
 1908TIP3    H127283   1.796   1.107   1.909  0.9475 -0.3564 -0.6103
 1908TIP3    H227284   1.809   1.120   2.059  1.7652  0.2280 -0.7257
 1909TIP3   OH227285   3.614   5.573   1.155  0.0512  0.6618  0.0288
 1909TIP3    H127286   3.675   5.531   1.215 -0.5827 -0.6230 -0.1868
 1909TIP3    H227287   3.530   5.572   1.201  0.2094  2.7215  0.4694
 1910TIP3   OH227288   4.731   0.939   0.531 -0.2759 -0.5469 -0.1587
 1910TIP3    H127289   4.637   0.922   0.539 -0.3623  0.3541  1.3155
 1910TIP3    H227290   4.736   1.031   0.506  0.1790 -0.1262  1.3425
 1911TIP3   OH227291   5.130   2.316   0.056 -0.6523  0.9257 -0.4397
 1911TIP3    H127292   5.142   2.303   0.150 -2.3855  1.9237 -0.0155
 1911TIP3    H227293   5.209   2.362   0.028 -0.5310  1.5094  0.7603
 1912TIP3   OH227294   3.919   2.655   7.844  0.0452 -0.8199 -0.0344
 1912TIP3    H127295   3.883   2.567   7.837  0.8914 -1.1260 -0.8400
 1912TIP3    H227296   3.980   2.650   7.918 -0.9276 -0.5203  0.8083
 1913TIP3   OH227297   0.883   1.938   8.726 -0.7344  0.6113 -0.7419
 1913TIP3    H127298   0.825   1.894   8.788  0.1711  1.0532  0.4399
 1913TIP3    H227299   0.836   2.018   8.702 -0.7920  0.7655 -0.1133
 1914TIP3   OH227300   2.412   0.925   2.033  0.4757 -0.1938  0.2649
 1914TIP3    H127301   2.382   0.898   2.119  0.1316 -1.2233 -0.1578
 1914TIP3    H227302   2.467   1.001   2.049  0.0693 -0.1115  1.3464
 1915TIP3   OH227303   2.449   2.358   3.263 -0.7650 -0.1598 -0.2446
 1915TIP3    H127304   2.409   2.351   3.176  0.7966 -0.5984 -0.9648
 1915TIP3    H227305   2.406   2.434   3.302 -1.2729  0.2478 -1.5179
 1916TIP3   OH227306   1.108   3.247   6.667  0.1988  0.2738  0.4815
 1916TIP3    H127307   1.132   3.177   6.728  2.0505  1.1852  0.8659
 1916TIP3    H227308   1.054   3.203   6.602 -0.5705 -1.0410  1.9367
 1917TIP3   OH227309   6.521   4.873   2.220 -0.1421  0.1822  0.1154
 1917TIP3    H127310   6.474   4.822   2.154  1.7548 -1.4351 -0.1176
 1917TIP3    H227311   6.603   4.899   2.176  0.3768  0.5981  1.2784
 1918TIP3   OH227312   3.691   0.166   7.914  0.4383  0.0827 -0.1498
 1918TIP3    H127313   3.734   0.172   8.000 -0.9922 -0.6208  0.6557
 1918TIP3    H227314   3.763   0.162   7.851  1.5383  1.5625  0.9253
 1919TIP3   OH227315   3.811   2.356   2.871  0.0233 -0.3408  0.3340
 1919TIP3    H127316   3.818   2.444   2.907 -0.5062 -0.3340  0.4377
 1919TIP3    H227317   3.883   2.308   2.910  0.1827 -0.0105  0.4486
 1920TIP3   OH227318   3.111   0.811   8.663  0.1394  0.0256 -0.4097
 1920TIP3    H127319   3.111   0.717   8.650  1.3271 -0.0296 -0.1403
 1920TIP3    H227320   3.094   0.848   8.576 -1.2647 -0.4283 -0.3480
 1921TIP3   OH227321   0.853   6.795   3.413  0.1395 -0.0883 -0.4985
 1921TIP3    H127322   0.870   6.884   3.383 -0.7528  0.5666  0.8766
 1921TIP3    H227323   0.903   6.788   3.494 -0.5050 -0.5447 -0.1408
 1922TIP3   OH227324   4.225   2.693   7.686 -0.1073  0.4090 -0.6270
 1922TIP3    H127325   4.245   2.753   7.759  0.2293 -1.1827  0.6360
 1922TIP3    H227326   4.300   2.701   7.628  0.5212  0.3020  0.1536
 1923TIP3   OH227327   5.403   6.436   2.249  0.0951  0.2603 -0.1549
 1923TIP3    H127328   5.414   6.356   2.300 -1.8720  0.8580  1.3448
 1923TIP3    H227329   5.444   6.504   2.302 -0.5569  0.6325 -0.1077
 1924TIP3   OH227330   6.273   0.747   7.305  0.1863  0.3100  0.0305
 1924TIP3    H127331   6.307   0.817   7.250 -1.1563  0.4514 -0.6677
 1924TIP3    H227332   6.318   0.758   7.388 -2.4143  4.2882  1.2254
 1925TIP3   OH227333   3.590   6.451   1.948  0.0532 -0.2226 -0.3612
 1925TIP3    H127334   3.511   6.451   1.894 -1.0367 -1.0561  1.1580
 1925TIP3    H227335   3.628   6.364   1.935  0.5494  0.0559 -0.8199
 1926TIP3   OH227336   4.833   0.755   2.755  0.1767  0.0637 -0.2255
 1926TIP3    H127337   4.831   0.843   2.717  0.0490 -0.2768 -1.0386
 1926TIP3    H227338   4.918   0.750   2.799 -0.3662  1.0495  0.9687
 1927TIP3   OH227339   5.270   1.803   0.892  0.5870  0.2683 -0.2046
 1927TIP3    H127340   5.196   1.855   0.864  0.3043 -0.0680 -0.0886
 1927TIP3    H227341   5.257   1.791   0.986  0.7589  0.1614 -0.1920
 1928TIP3   OH227342   3.986   0.110   0.390  0.0482 -0.5733  0.7342
 1928TIP3    H127343   4.009   0.089   0.480 -2.4409  1.2194  1.9409
 1928TIP3    H227344   3.899   0.071   0.378  1.3267 -2.9525 -1.8554
 1929TIP3   OH227345   4.747   1.816   8.076  0.7175  0.4550  0.1280
 1929TIP3    H127346   4.760   1.726   8.046  1.8634  0.0533  1.7078
 1929TIP3    H227347   4.762   1.812   8.170  0.8573  2.3209  0.2172
 1930TIP3   OH227348   2.649   3.992   0.515 -0.1195  0.0875  0.5699
 1930TIP3    H127349   2.631   3.955   0.601 -1.8665 -0.2721  0.1047
 1930TIP3    H227350   2.620   4.083   0.521  0.4987  0.2854  0.5845
 1931TIP3   OH227351   5.474   4.715   8.298 -0.2192  0.4472 -0.0006
 1931TIP3    H127352   5.429   4.794   8.328 -2.0577 -0.6877  0.3885
 1931TIP3    H227353   5.559   4.746   8.267 -1.5541  2.8313 -1.5726
 1932TIP3   OH227354   1.068   2.578   1.530  0.1666  0.2306  0.5388
 1932TIP3    H127355   1.157   2.614   1.529  0.7497 -1.0114 -1.7795
 1932TIP3    H227356   1.078   2.490   1.491 -2.2039  0.4817 -0.8325
 1933TIP3   OH227357   2.567   4.802   1.944  0.0581  0.0177 -0.1094
 1933TIP3    H127358   2.546   4.741   2.015 -0.3873  0.7606  0.4131
 1933TIP3    H227359   2.650   4.842   1.971  0.6582 -0.7717 -0.7392
 1934TIP3   OH227360   6.189   4.075   1.468 -0.1031  0.1402  0.1733
 1934TIP3    H127361   6.274   4.102   1.434  0.6335 -0.5362  1.4326
 1934TIP3    H227362   6.139   4.050   1.390  0.8402  0.5241 -0.5758
 1935TIP3   OH227363   5.892   1.133   0.232  0.1789  0.3502 -0.0221
 1935TIP3    H127364   5.902   1.054   0.179 -0.7600  1.1438 -1.4530
 1935TIP3    H227365   5.874   1.100   0.321  2.7113 -1.0112  0.0989
 1936TIP3   OH227366   4.132   2.954   2.362 -0.2167  0.4723 -0.4457
 1936TIP3    H127367   4.106   2.978   2.273 -1.1916  1.8460  0.1696
 1936TIP3    H227368   4.056   2.975   2.416  0.7639  0.7686  0.8683
 1937TIP3   OH227369   0.601   0.090   0.680  0.2157 -0.5290 -0.3229
 1937TIP3    H127370   0.669   0.092   0.748  0.3877  0.4886 -0.5076
 1937TIP3    H227371   0.579  -0.002   0.672  0.8133 -0.7642  0.5035
 1938TIP3   OH227372   2.979   5.353   8.463 -0.0456 -0.0378  0.3070
 1938TIP3    H127373   3.049   5.409   8.429  0.9954 -0.6009  1.4463
 1938TIP3    H227374   2.986   5.272   8.411 -1.9672  1.0255 -1.7912
 1939TIP3   OH227375   5.578   2.572   2.266  0.2875 -0.0584  0.1734
 1939TIP3    H127376   5.495   2.581   2.220  0.2073 -3.7164 -0.7077
 1939TIP3    H227377   5.634   2.639   2.227 -1.7348  1.4098 -0.3650
 1940TIP3   OH227378   2.391   1.187   0.509 -0.2962 -0.2114 -0.0877
 1940TIP3    H127379   2.321   1.197   0.446  0.8835  0.9573 -1.2967
 1940TIP3    H227380   2.468   1.165   0.457  0.5822  0.1733  0.9884
 1941TIP3   OH227381   6.653   0.779   8.466  0.4952 -0.5521 -0.0750
 1941TIP3    H127382   6.735   0.761   8.512  0.3723  0.6737  0.6618
 1941TIP3    H227383   6.586   0.772   8.534  0.0601 -0.8076 -0.5225
 1942TIP3   OH227384   6.526   5.941   1.129  0.4701  0.3848 -0.2285
 1942TIP3    H127385   6.614   5.937   1.090  0.9661  0.5484  0.8399
 1942TIP3    H227386   6.467   5.913   1.059  1.6372 -3.0607 -0.0009
 1943TIP3   OH227387   2.360   1.732   0.239  0.0582 -0.4088 -0.1115
 1943TIP3    H127388   2.442   1.766   0.204  0.3019 -2.2853 -1.4779
 1943TIP3    H227389   2.386   1.657   0.293 -0.6769 -0.3839  0.2929
 1944TIP3   OH227390   2.971   6.462   0.922  0.1521 -0.3363  0.1305
 1944TIP3    H127391   3.021   6.401   0.975  0.6974  0.9953  1.2200
 1944TIP3    H227392   3.036   6.526   0.893 -0.1929 -0.8483 -1.9203
 1945TIP3   OH227393   5.889   0.219   2.137  0.2947 -0.0503  0.2306
 1945TIP3    H127394   5.921   0.136   2.102 -0.7117  0.1574 -1.2725
 1945TIP3    H227395   5.964   0.278   2.130 -0.4298  0.6629 -4.0316
 1946TIP3   OH227396   5.185   5.036   0.364  0.3311  0.1584 -0.1815
 1946TIP3    H127397   5.194   4.965   0.427 -0.7655  0.5781  0.4803
 1946TIP3    H227398   5.100   5.075   0.384 -0.0906  0.2556 -1.9786
 1947TIP3   OH227399   4.789   3.091   2.800  0.2541 -0.1627  0.2735
 1947TIP3    H127400   4.744   3.062   2.880 -1.6397  0.4491 -0.5106
 1947TIP3    H227401   4.738   3.166   2.770  2.4372  1.2462 -0.1697
 1948TIP3   OH227402   0.381   4.737   1.475  0.1751 -0.3423 -0.1699
 1948TIP3    H127403   0.342   4.817   1.442 -0.8401  0.0661  1.8903
 1948TIP3    H227404   0.314   4.670   1.462  0.3371 -0.4954 -0.2348
 1949TIP3   OH227405   3.996   6.286   2.899  0.1554  0.0157  0.0501
 1949TIP3    H127406   4.018   6.330   2.817 -2.4448  1.6478  0.1027
 1949TIP3    H227407   3.945   6.210   2.873  0.3307 -0.1277  0.1220
 1950TIP3   OH227408   1.534   3.226   0.063  0.1645  0.2901  0.1347
 1950TIP3    H127409   1.494   3.147   0.101 -2.9737  1.7241  0.1498
 1950TIP3    H227410   1.535   3.209  -0.031  0.7895 -0.2746  0.2338
 1951TIP3   OH227411   5.025   5.221   0.495  0.3353 -0.7694 -0.1755
 1951TIP3    H127412   5.113   5.258   0.507  0.7886 -1.6069 -0.7570
 1951TIP3    H227413   4.995   5.202   0.584 -0.1620  1.4669  0.1992
 1952TIP3   OH227414   0.378   0.373   7.957  0.3626  0.0492 -0.0763
 1952TIP3    H127415   0.442   0.344   7.892 -0.2296  0.0969 -0.6839
 1952TIP3    H227416   0.297   0.385   7.908 -0.5923 -1.6987  0.9751
 1953TIP3   OH227417   0.251   2.160   8.358  0.8799 -0.7310  0.1180
 1953TIP3    H127418   0.270   2.111   8.437 -0.3259 -3.1282 -0.9648
 1953TIP3    H227419   0.241   2.093   8.290 -1.0946  0.9869 -1.4331
 1954TIP3   OH227420   3.190   6.749   7.148 -0.0799 -0.2374  0.2929
 1954TIP3    H127421   3.208   6.814   7.079  0.7457 -0.9774 -0.2195
 1954TIP3    H227422   3.277   6.724   7.179 -0.4009 -0.9399  0.6303
 1955TIP3   OH227423   6.228   2.634   2.205 -0.2072  0.6354  0.0750
 1955TIP3    H127424   6.292   2.591   2.262  1.0384  0.5457 -1.3264
 1955TIP3    H227425   6.209   2.717   2.249  0.7219  0.5658  0.6325
 1956TIP3   OH227426   6.516   3.745   0.467  0.8308  0.0333 -0.5537
 1956TIP3    H127427   6.425   3.721   0.488  1.1457 -2.1216 -1.4490
 1956TIP3    H227428   6.551   3.779   0.549 -0.4786 -0.0546  0.0721
 1957TIP3   OH227429   0.781   5.535   1.031 -0.3097 -0.0588  0.3071
 1957TIP3    H127430   0.764   5.577   1.115  0.2772 -1.0228  0.9324
 1957TIP3    H227431   0.795   5.607   0.970  0.1004  0.6556  1.2239
 1958TIP3   OH227432   5.968   6.516   0.245  0.0374 -0.5441 -0.3140
 1958TIP3    H127433   6.051   6.551   0.213 -0.4867 -0.3488 -1.4947
 1958TIP3    H227434   5.988   6.425   0.267  0.8128 -0.2105  0.4339
 1959TIP3   OH227435   0.882   1.359   8.279 -0.1994 -0.0589 -1.0360
 1959TIP3    H127436   0.964   1.410   8.277 -0.0525 -0.2087  0.0937
 1959TIP3    H227437   0.815   1.421   8.250 -0.0736  0.9290  0.6415
 1960TIP3   OH227438   1.600   0.424   2.804 -0.8367 -0.2356 -0.4360
 1960TIP3    H127439   1.619   0.451   2.894  2.2050 -1.3697 -0.6067
 1960TIP3    H227440   1.529   0.361   2.813 -2.8186  2.0100  0.7394
 1961TIP3   OH227441   1.257   3.004   7.659  0.3624  0.1152  0.3615
 1961TIP3    H127442   1.257   2.908   7.665  1.6304  0.1942  3.2516
 1961TIP3    H227443   1.349   3.027   7.650  0.2018  1.1066  1.1413
 1962TIP3   OH227444   2.582   0.016   8.489  0.1766  1.0526  0.3164
 1962TIP3    H127445   2.522   0.015   8.563  0.6769  3.1789  0.8176
 1962TIP3    H227446   2.627  -0.068   8.493 -1.8978 -0.1119  0.6071
 1963TIP3   OH227447   2.855   5.892   8.576  0.2549  0.3265 -0.7127
 1963TIP3    H127448   2.913   5.853   8.641  0.3382  2.1718  0.4121
 1963TIP3    H227449   2.826   5.974   8.616 -1.0363  0.7306 -2.3400
 1964TIP3   OH227450   5.971   5.761   1.493 -0.3275 -0.2886 -0.1196
 1964TIP3    H127451   6.063   5.784   1.510 -0.8806  1.1957  1.1203
 1964TIP3    H227452   5.962   5.672   1.526  0.4503 -0.0860  0.7040
 1965TIP3   OH227453   5.431   6.182   1.205  0.3117 -0.1314 -0.2958
 1965TIP3    H127454   5.506   6.180   1.146  0.2642  1.1602 -0.4201
 1965TIP3    H227455   5.467   6.159   1.291  0.5864 -0.8882 -0.6035
 1966TIP3   OH227456   6.812   0.960   0.619  0.0194  0.3587 -0.0680
 1966TIP3    H127457   6.792   0.956   0.713  3.0899  1.1760  0.7375
 1966TIP3    H227458   6.834   0.870   0.595 -0.3360  0.2200  0.1246
 1967TIP3   OH227459   5.725   0.696   0.129 -0.5883 -0.1451 -0.2084
 1967TIP3    H127460   5.754   0.671   0.041 -0.8639 -0.7050 -0.1453
 1967TIP3    H227461   5.634   0.667   0.132 -0.5584 -0.1842  0.2877
 1968TIP3   OH227462   1.729   3.491   0.779 -0.4950  0.0776  0.2074
 1968TIP3    H127463   1.675   3.480   0.857 -0.1994  0.2739  0.4397
 1968TIP3    H227464   1.756   3.402   0.756  0.6193  0.1441  1.1844
 1969TIP3   OH227465   3.366   3.644   2.299 -0.3331  0.3613 -0.0664
 1969TIP3    H127466   3.348   3.703   2.226 -2.7333  1.1885  1.0802
 1969TIP3    H227467   3.279   3.612   2.326  0.5251 -0.4494  1.9703
 1970TIP3   OH227468   4.908   5.191   8.618 -0.0969 -0.1540 -0.0582
 1970TIP3    H127469   4.880   5.194   8.527  0.6385  0.2666 -0.2768
 1970TIP3    H227470   4.997   5.157   8.615  1.0871  2.6475  0.1847
 1971TIP3   OH227471   0.233   2.161   2.191  0.2154 -0.3600  0.0218
 1971TIP3    H127472   0.171   2.221   2.151 -1.2274 -2.0561 -0.4116
 1971TIP3    H227473   0.187   2.125   2.266  1.5022 -0.0536  0.9991
 1972TIP3   OH227474   3.386   1.177   2.567  0.0843  0.2420 -0.1372
 1972TIP3    H127475   3.435   1.113   2.515  0.2795  0.1995  0.0990
 1972TIP3    H227476   3.363   1.131   2.647  0.5768  0.5922  0.2106
 1973TIP3   OH227477   3.161   3.397   1.318  0.4696  0.5747 -0.1418
 1973TIP3    H127478   3.217   3.432   1.249 -0.1948 -0.2475 -1.1303
 1973TIP3    H227479   3.210   3.412   1.399  1.5417  1.0061 -0.8460
 1974TIP3   OH227480   0.898   5.283   6.934  1.0109 -0.0488 -0.2261
 1974TIP3    H127481   0.822   5.239   6.895  1.5517 -0.5465 -0.7156
 1974TIP3    H227482   0.860   5.361   6.977  0.5234  1.1593 -2.6593
 1975TIP3   OH227483   6.491   5.477   1.095  0.0912 -0.5196 -0.1346
 1975TIP3    H127484   6.413   5.436   1.058 -1.0256  1.9955 -0.7699
 1975TIP3    H227485   6.564   5.425   1.060 -1.2122 -1.9665 -0.8018
 1976TIP3   OH227486   2.383   4.186   0.520 -0.1386 -0.1341 -0.2643
 1976TIP3    H127487   2.387   4.165   0.426  0.7185  0.1209 -0.2949
 1976TIP3    H227488   2.364   4.280   0.523 -1.7022 -0.4408 -0.1556
 1977TIP3   OH227489   4.367   6.432   1.982 -0.3342 -0.1480  0.1002
 1977TIP3    H127490   4.417   6.472   2.053 -0.2402 -1.4843  0.8198
 1977TIP3    H227491   4.396   6.479   1.903 -1.4676  2.3477  1.0460
 1978TIP3   OH227492   5.362   0.551   2.081  0.4085 -0.4625 -0.3158
 1978TIP3    H127493   5.436   0.585   2.131 -0.2708  2.0750 -0.8687
 1978TIP3    H227494   5.300   0.521   2.147  1.4559 -1.6092  0.1788
 1979TIP3   OH227495   0.660   6.151   8.411 -0.2039 -0.0765  0.8053
 1979TIP3    H127496   0.659   6.184   8.501  0.7386  2.9135 -0.1536
 1979TIP3    H227497   0.603   6.211   8.363  2.2272  0.7758 -1.2415
 1980TIP3   OH227498   5.583   5.919   2.442 -0.2747 -0.5526 -0.6058
 1980TIP3    H127499   5.648   5.967   2.390 -1.0162  1.1449 -0.0577
 1980TIP3    H227500   5.605   5.941   2.533  0.6513 -3.0171 -0.1612
 1981TIP3   OH227501   6.301   1.419   1.875  0.7052 -0.3101  0.0684
 1981TIP3    H127502   6.279   1.510   1.854  0.0304  0.3073  2.9291
 1981TIP3    H227503   6.341   1.424   1.962 -2.0140 -2.9311  1.6600
 1982TIP3   OH227504   3.939   5.260   8.016  0.3187 -0.6022 -0.1685
 1982TIP3    H127505   3.880   5.184   8.014  0.1511 -0.5412  1.2451
 1982TIP3    H227506   3.891   5.329   7.970 -0.9966 -0.3950  1.4093
 1983TIP3   OH227507   3.714   2.256   0.275  0.6431  1.2638 -0.1138
 1983TIP3    H127508   3.789   2.200   0.257 -0.0034 -0.4160  1.9917
 1983TIP3    H227509   3.748   2.323   0.335  0.8729  1.7158 -0.7351
 1984TIP3   OH227510   0.016   1.521   0.599 -0.0102 -0.0139 -0.0641
 1984TIP3    H127511   0.097   1.553   0.639  0.6582 -0.2292 -1.2116
 1984TIP3    H227512   0.003   1.435   0.639 -0.5773  0.6732  1.3270
 1985TIP3   OH227513   1.446   1.757   3.308  0.4607  0.3747  0.0461
 1985TIP3    H127514   1.444   1.672   3.352 -0.3930 -0.6059 -1.7605
 1985TIP3    H227515   1.378   1.809   3.351  0.0763 -0.3340  0.3024
 1986TIP3   OH227516   4.192   4.959   2.081  0.4360  0.6667 -0.5230
 1986TIP3    H127517   4.107   5.002   2.082 -0.2444 -0.6218 -0.2558
 1986TIP3    H227518   4.248   5.017   2.030 -0.1618  2.3349  0.6429
 1987TIP3   OH227519   0.884   6.690   1.279  0.2977  0.4137 -0.2745
 1987TIP3    H127520   0.930   6.677   1.197  0.8328  1.2971 -0.1250
 1987TIP3    H227521   0.823   6.616   1.285  0.7528 -0.0345 -1.1153
 1988TIP3   OH227522   1.064   0.678   0.820  0.6373  0.8773  0.1689
 1988TIP3    H127523   1.080   0.584   0.818  2.5969  1.1597  0.4043
 1988TIP3    H227524   1.122   0.714   0.753 -0.9852  1.8435 -0.7784
 1989TIP3   OH227525   4.204   4.660   6.978 -0.0923 -0.5413 -0.1248
 1989TIP3    H127526   4.196   4.567   6.959 -1.5237 -0.6491  0.7576
 1989TIP3    H227527   4.296   4.681   6.963  0.4755 -2.3203  0.6045
 1990TIP3   OH227528   1.745   0.119   2.745  0.1383 -0.3571 -0.7118
 1990TIP3    H127529   1.689   0.133   2.821  2.1041 -0.3971  0.8027
 1990TIP3    H227530   1.757   0.024   2.741  0.6844 -0.2918 -0.6008
 1991TIP3   OH227531   2.437   2.392   0.671  0.1265  0.0060  0.2624
 1991TIP3    H127532   2.444   2.300   0.646  2.0271  0.3546 -0.6611
 1991TIP3    H227533   2.527   2.423   0.673 -0.5651  2.7825 -3.0686
 1992TIP3   OH227534   0.688   6.285   1.165 -0.0929 -0.3715  0.7228
 1992TIP3    H127535   0.769   6.240   1.190  0.3766  0.0531 -0.0105
 1992TIP3    H227536   0.702   6.310   1.074 -1.2695 -0.7777  0.4119
 1993TIP3   OH227537   6.295   5.955   8.711 -0.0679 -0.2802  0.0650
 1993TIP3    H127538   6.373   5.987   8.666 -1.6922  0.4744 -2.4358
 1993TIP3    H227539   6.223   6.008   8.675 -1.8048 -1.2587  1.9011
 1994TIP3   OH227540   5.068   1.417   0.007  0.1024  0.2383 -0.1087
 1994TIP3    H127541   5.088   1.490   0.065  1.5970 -0.3665  0.1797
 1994TIP3    H227542   5.152   1.395  -0.034 -0.6084 -0.3840 -1.2849
 1995TIP3   OH227543   1.083   2.576   2.028 -0.0386 -0.6487 -0.4407
 1995TIP3    H127544   1.127   2.653   2.063 -0.4781 -0.4991 -0.2086
 1995TIP3    H227545   0.997   2.577   2.069 -0.4760 -0.6064 -1.3495
 1996TIP3   OH227546   1.844   4.911   3.118  0.5051  0.0151 -0.0157
 1996TIP3    H127547   1.922   4.874   3.076 -0.0788  0.1385 -1.2799
 1996TIP3    H227548   1.846   5.004   3.095  0.2319  0.1105  0.3462
 1997TIP3   OH227549   4.330   2.927   8.293 -0.6973  0.3287  0.4811
 1997TIP3    H127550   4.342   2.969   8.208 -0.7582  0.6585  0.6304
 1997TIP3    H227551   4.299   2.998   8.350  1.9340  0.7893  1.4894
 1998TIP3   OH227552   3.844   2.458   0.425  0.2925 -0.1797 -0.4755
 1998TIP3    H127553   3.897   2.531   0.456 -0.4597 -0.4628  1.6599
 1998TIP3    H227554   3.775   2.449   0.491 -0.9508 -1.3985 -1.8652
 1999TIP3   OH227555   1.152   3.485   7.898 -0.6389 -0.1808 -0.3423
 1999TIP3    H127556   1.064   3.450   7.912 -1.4772  1.5730 -1.0375
 1999TIP3    H227557   1.149   3.525   7.812 -0.0806  2.5264  0.8039
 2000TIP3   OH227558   4.664   1.215   0.820 -0.1004 -0.2898  0.2483
 2000TIP3    H127559   4.734   1.176   0.873  0.1462 -0.4509 -0.1943
 2000TIP3    H227560   4.585   1.168   0.846 -0.6368  1.7808  2.8822
 2001TIP3   OH227561   4.266   1.854   2.204 -0.2904 -0.3389  0.9343
 2001TIP3    H127562   4.188   1.811   2.171 -1.8096  2.6708  0.1798
 2001TIP3    H227563   4.249   1.866   2.298  0.2038 -1.4277  1.1764
 2002TIP3   OH227564   3.223   5.101   8.013 -0.3024 -0.0242  0.0907
 2002TIP3    H127565   3.131   5.075   8.015 -0.3826  0.2441 -0.0713
 2002TIP3    H227566   3.221   5.197   8.014  0.0045 -0.0190  1.0629
 2003TIP3   OH227567   2.092   0.773   1.825  0.3258  0.1163 -0.2400
 2003TIP3    H127568   2.140   0.855   1.812 -0.7810  0.6083 -1.4907
 2003TIP3    H227569   2.141   0.727   1.894  0.4177  2.2610  1.2431
 2004TIP3   OH227570   3.283   0.036   0.464 -0.4707  0.5038  0.1324
 2004TIP3    H127571   3.326  -0.044   0.435 -0.8906  0.3909 -0.2017
 2004TIP3    H227572   3.349   0.083   0.514 -0.0930  0.1436 -0.0255
 2005TIP3   OH227573   3.106   2.951   2.760  0.3039 -0.0792  0.3810
 2005TIP3    H127574   3.091   3.033   2.806  0.1444  0.1892 -0.1405
 2005TIP3    H227575   3.022   2.932   2.717  0.9992  0.7472 -1.4778
 2006TIP3   OH227576   1.953   0.616   8.095  0.1498 -0.0780 -0.1542
 2006TIP3    H127577   2.016   0.687   8.102 -0.3338  0.2884  0.6043
 2006TIP3    H227578   1.870   0.658   8.075 -0.6925 -0.1000  2.7629
 2007TIP3   OH227579   5.227   1.040   8.214  0.0611 -0.2189 -0.5124
 2007TIP3    H127580   5.238   0.963   8.158  0.4951 -0.2475 -0.3921
 2007TIP3    H227581   5.230   1.114   8.153 -0.7774 -0.3133 -0.6775
 2008TIP3   OH227582   5.190   5.437   2.063  0.3341 -0.0106  0.5248
 2008TIP3    H127583   5.169   5.344   2.058  2.2516 -0.5495  1.3295
 2008TIP3    H227584   5.139   5.477   1.992 -0.3893 -1.6922  0.0372
 2009TIP3   OH227585   3.166   4.757   0.253  0.3692  0.4650  0.6095
 2009TIP3    H127586   3.235   4.808   0.210  0.6359 -0.5320 -0.2008
 2009TIP3    H227587   3.090   4.767   0.195 -0.1678  1.4868  1.4537
 2010TIP3   OH227588   3.538   0.553   7.858  0.0607  0.4618 -0.3788
 2010TIP3    H127589   3.560   0.492   7.788 -0.7850 -1.7249  1.1468
 2010TIP3    H227590   3.449   0.529   7.884  0.9690 -0.0322  2.5936
 2011TIP3   OH227591   4.406   4.334   0.144  0.3080  0.2297  0.0279
 2011TIP3    H127592   4.426   4.326   0.051  0.3567  0.4480  0.0187
 2011TIP3    H227593   4.465   4.272   0.187 -0.4844 -0.6869 -0.1753
 2012TIP3   OH227594   4.225   0.684   1.865 -0.1238 -0.3464  0.2256
 2012TIP3    H127595   4.222   0.764   1.813  3.8936  0.3319  0.7248
 2012TIP3    H227596   4.215   0.714   1.956 -0.1868 -0.6192  0.3095
 2013TIP3   OH227597   3.763   5.043   8.048 -0.5091 -0.3340 -0.1093
 2013TIP3    H127598   3.836   4.996   8.088 -0.1608  0.5057  0.2634
 2013TIP3    H227599   3.751   5.002   7.963  0.1542 -0.7221 -0.0155
 2014TIP3   OH227600   3.748   6.031   1.342  0.4470 -0.0410  0.2206
 2014TIP3    H127601   3.827   5.981   1.361  0.4338  0.1776  0.8873
 2014TIP3    H227602   3.697   5.975   1.284  0.4418 -0.8075  0.9446
 2015TIP3   OH227603   0.807   5.612   8.182  0.5560  0.1027  0.4052
 2015TIP3    H127604   0.838   5.541   8.238  0.1851 -1.9021 -1.7403
 2015TIP3    H227605   0.719   5.584   8.156  0.8932  0.6620 -1.5073
 2016TIP3   OH227606   4.782   5.941   7.964  0.5754 -0.4008 -0.2101
 2016TIP3    H127607   4.712   6.003   7.987 -0.9846 -1.6344 -1.3634
 2016TIP3    H227608   4.859   5.996   7.950 -0.2651  1.0763  0.6127
 2017TIP3   OH227609   5.510   3.775   8.524 -0.3913  1.0277  0.3224
 2017TIP3    H127610   5.582   3.808   8.469 -0.7083  2.1421  0.5411
 2017TIP3    H227611   5.533   3.803   8.613 -2.0246  3.2111  0.1470
 2018TIP3   OH227612   2.743   2.380   2.772 -0.4105 -0.0137 -0.1012
 2018TIP3    H127613   2.774   2.312   2.832  0.4115 -0.6577 -1.2020
 2018TIP3    H227614   2.655   2.401   2.803  0.0443 -0.2035  1.4098
 2019TIP3   OH227615   6.590   3.229   1.671 -0.2731  0.9448  0.1078
 2019TIP3    H127616   6.502   3.233   1.709 -0.6516 -0.3618 -0.5908
 2019TIP3    H227617   6.579   3.182   1.588  1.1794  0.1966  0.3045
 2020TIP3   OH227618   4.675   0.727   8.711 -0.1863  0.3000 -0.3032
 2020TIP3    H127619   4.711   0.639   8.713  2.3020  1.2505 -0.1751
 2020TIP3    H227620   4.590   0.719   8.755  1.0310 -1.5896  1.9515
 2021TIP3   OH227621   0.425   1.209   0.897  0.1562  0.3696 -0.2459
 2021TIP3    H127622   0.369   1.274   0.854  0.6593  0.8422 -0.1876
 2021TIP3    H227623   0.381   1.190   0.980 -0.0294  0.5745 -0.2978
 2022TIP3   OH227624   2.136   4.224   1.434  0.2409 -0.3950 -0.4423
 2022TIP3    H127625   2.137   4.259   1.345  2.9856  1.0210  0.0234
 2022TIP3    H227626   2.229   4.214   1.457 -0.3636 -0.5895  2.2732
 2023TIP3   OH227627   0.597   5.951   2.147 -0.2773 -0.2586  0.3004
 2023TIP3    H127628   0.593   5.875   2.089  0.8048  0.3699 -0.6436
 2023TIP3    H227629   0.592   5.915   2.235 -0.2968 -1.3759 -0.1431
 2024TIP3   OH227630   1.149   1.547   1.576 -0.2160  0.2295  0.5484
 2024TIP3    H127631   1.129   1.503   1.659 -0.5427  0.2637  0.4855
 2024TIP3    H227632   1.244   1.537   1.567 -0.1753  0.2523  0.9415
 2025TIP3   OH227633   4.560   0.236   3.351 -0.2983 -0.8790 -0.1724
 2025TIP3    H127634   4.496   0.195   3.410 -1.6351  0.9106 -0.3249
 2025TIP3    H227635   4.606   0.161   3.311 -4.0075 -2.4520 -2.0160
 2026TIP3   OH227636   6.615   4.025   0.900 -0.0453  0.3103  0.2266
 2026TIP3    H127637   6.686   4.069   0.852 -2.3488  2.0159 -1.8606
 2026TIP3    H227638   6.584   4.091   0.962 -0.2934 -0.1818  0.6333
 2027TIP3   OH227639   6.514   4.015   7.516 -0.0020 -0.1332  0.2780
 2027TIP3    H127640   6.506   4.032   7.610 -0.0147 -0.4020  0.3267
 2027TIP3    H227641   6.595   3.964   7.507  1.1945  1.7347 -0.1027
 2028TIP3   OH227642   2.006   5.283   6.799 -0.4850 -0.1199  0.7678
 2028TIP3    H127643   1.972   5.372   6.788  0.2477  0.0464 -0.2634
 2028TIP3    H227644   2.086   5.295   6.851 -2.1985 -0.5722  3.7553
 2029TIP3   OH227645   0.382   2.965   1.006 -0.1230 -0.5716 -0.0373
 2029TIP3    H127646   0.354   3.004   1.089 -2.1021 -1.1624 -0.3911
 2029TIP3    H227647   0.333   3.013   0.939  0.0097 -1.3810 -0.7279
 2030TIP3   OH227648   6.356   0.520   2.110  0.7045 -0.6442 -0.8108
 2030TIP3    H127649   6.435   0.572   2.097 -1.1702  2.4328 -0.7778
 2030TIP3    H227650   6.292   0.558   2.050 -1.0928 -2.3638 -0.1093
 2031TIP3   OH227651   2.519   3.172   7.992  0.5739 -0.5574 -0.4000
 2031TIP3    H127652   2.470   3.108   8.044 -0.2851 -1.7406 -2.5373
 2031TIP3    H227653   2.488   3.257   8.023  0.5424 -1.1722  1.3865
 2032TIP3   OH227654   0.956   5.816   7.964 -0.0317  0.1972 -0.0598
 2032TIP3    H127655   1.008   5.738   7.984  2.1029  1.3826 -0.7584
 2032TIP3    H227656   0.891   5.785   7.900  1.4645 -0.7997 -1.1712
 2033TIP3   OH227657   0.114   1.562   8.225  0.1026  0.4910  0.0856
 2033TIP3    H127658   0.115   1.618   8.148  2.2380 -0.8525 -0.9503
 2033TIP3    H227659   0.047   1.497   8.207 -1.1001  1.5624  0.4932
 2034TIP3   OH227660   6.161   1.681   0.729  0.3315  0.2243 -0.0439
 2034TIP3    H127661   6.196   1.769   0.717  1.4493 -0.1930  0.0677
 2034TIP3    H227662   6.238   1.624   0.727 -0.3170 -0.6929  0.4879
 2035TIP3   OH227663   5.550   2.380   8.431 -0.3067 -0.2821  0.4266
 2035TIP3    H127664   5.624   2.438   8.446  1.7435 -2.4571 -0.6496
 2035TIP3    H227665   5.496   2.425   8.366  0.1448  1.2524  1.0910
 2036TIP3   OH227666   5.688   0.114   0.344  0.5343  0.5613  0.1086
 2036TIP3    H127667   5.593   0.103   0.336  0.6386 -0.7954  0.3619
 2036TIP3    H227668   5.722   0.024   0.349  2.1713  0.8319 -3.3568
 2037TIP3   OH227669   6.711   0.042   1.525  0.4651  0.2813  0.0680
 2037TIP3    H127670   6.690  -0.041   1.483 -0.5872 -0.1454  1.3733
 2037TIP3    H227671   6.772   0.018   1.595  0.5578  0.6929  0.1327
 2038TIP3   OH227672   0.419   1.905   3.285 -0.1137  0.1753  0.0258
 2038TIP3    H127673   0.468   1.830   3.319  0.6992  0.2992 -0.8370
 2038TIP3    H227674   0.354   1.924   3.353  1.4808  0.4532  1.5536
 2039TIP3   OH227675   0.900   5.533   2.054  0.8312 -0.6028 -0.8678
 2039TIP3    H127676   0.848   5.454   2.069  0.4664 -0.2000  0.0403
 2039TIP3    H227677   0.911   5.572   2.141  1.0159  0.3437 -1.3039
 2040TIP3   OH227678   5.984   3.354   1.483 -0.3385  0.0830  0.3034
 2040TIP3    H127679   6.059   3.323   1.434 -1.2489 -0.5704 -0.7135
 2040TIP3    H227680   5.953   3.430   1.434 -1.3238 -0.6428 -0.2300
 2041TIP3   OH227681   6.181   3.553   7.328  0.1276 -0.2011  0.2037
 2041TIP3    H127682   6.112   3.488   7.343  2.7233 -2.5666  3.2209
 2041TIP3    H227683   6.246   3.507   7.276  1.4058  0.4418  1.1926
 2042TIP3   OH227684   3.978   5.772   0.260 -0.1731  0.5765  0.1051
 2042TIP3    H127685   4.023   5.855   0.275  1.9464 -0.6937  1.2174
 2042TIP3    H227686   4.037   5.723   0.203  0.3193 -1.4118  2.1789
 2043TIP3   OH227687   4.134   3.251   7.700  0.0556  0.0192 -0.6031
 2043TIP3    H127688   4.087   3.249   7.783  0.1642  0.2392 -0.5342
 2043TIP3    H227689   4.175   3.338   7.698  2.4807 -1.0274  0.4332
 2044TIP3   OH227690   0.419   2.356   0.339 -0.0393 -0.2906  0.2227
 2044TIP3    H127691   0.375   2.283   0.384  1.5563 -0.2946  1.8826
 2044TIP3    H227692   0.456   2.409   0.409  0.3648  1.1598 -1.0344
 2045TIP3   OH227693   4.695   1.950   0.922  0.2119  0.1188 -0.1438
 2045TIP3    H127694   4.625   1.909   0.973  1.1583  0.2523  1.3200
 2045TIP3    H227695   4.719   1.885   0.857 -1.5441  0.2316 -0.9575
 2046TIP3   OH227696   2.890   0.934   2.343  0.7707  0.4135 -0.2040
 2046TIP3    H127697   2.846   0.955   2.261  2.2420 -0.3818 -1.2468
 2046TIP3    H227698   2.888   0.838   2.348  1.1037  0.4293  0.4639
 2047TIP3   OH227699   0.794   5.652   7.706 -0.0748 -0.3616  0.6687
 2047TIP3    H127700   0.759   5.570   7.669 -0.4209 -0.1983  0.6293
 2047TIP3    H227701   0.738   5.668   7.782  0.7670 -0.8164  1.4067
 2048TIP3   OH227702   4.441   1.821   0.857  0.0287 -0.3852 -0.5112
 2048TIP3    H127703   4.442   1.917   0.855 -1.5676 -0.3457 -0.8117
 2048TIP3    H227704   4.487   1.795   0.777 -1.1779  0.1796 -1.4178
 2049TIP3   OH227705   1.294   6.144   0.383 -0.1445 -0.1293  0.0162
 2049TIP3    H127706   1.279   6.215   0.320  0.0427  0.7560  0.9556
 2049TIP3    H227707   1.388   6.127   0.377 -0.0912  0.1034  0.2275
 2050TIP3   OH227708   6.173   3.912   8.053  0.0711 -0.0111 -0.2402
 2050TIP3    H127709   6.197   4.002   8.030  0.6652 -0.2232 -0.4541
 2050TIP3    H227710   6.183   3.863   7.971  0.7121 -0.4658  0.1072
 2051TIP3   OH227711   2.846   2.182   1.977  0.1939  0.7185  0.0549
 2051TIP3    H127712   2.770   2.150   2.026 -1.1489  1.0561 -1.7251
 2051TIP3    H227713   2.908   2.208   2.045  0.1761 -2.6980  1.6248
 2052TIP3   OH227714   6.011   0.335   0.443 -0.0317 -0.0247  0.1944
 2052TIP3    H127715   6.011   0.248   0.483  1.0227 -0.3996 -0.5628
 2052TIP3    H227716   6.047   0.392   0.511 -1.8768  0.0633  1.1355
 2053TIP3   OH227717   4.043   3.695   8.516 -0.1389 -1.0506 -0.1958
 2053TIP3    H127718   4.100   3.723   8.587  0.0409 -1.8357 -0.0233
 2053TIP3    H227719   4.074   3.742   8.439 -0.1424 -0.4267  0.1805
 2054TIP3   OH227720   2.182   5.985   1.789  0.1463 -0.4604 -0.3849
 2054TIP3    H127721   2.271   5.952   1.773  0.4618 -0.9685  1.9859
 2054TIP3    H227722   2.163   6.041   1.714  0.9226 -3.3226 -2.9273
 2055TIP3   OH227723   4.211   0.050   7.294 -0.0284 -0.6782  0.0008
 2055TIP3    H127724   4.241  -0.037   7.265  1.4422 -0.4698  0.8231
 2055TIP3    H227725   4.258   0.065   7.375  0.1404  1.1374 -0.4072
 2056TIP3   OH227726   6.344   5.274   7.843 -0.3609 -0.0098  0.5082
 2056TIP3    H127727   6.280   5.314   7.903 -1.3252 -0.0591 -0.4584
 2056TIP3    H227728   6.373   5.347   7.788 -0.9221 -0.3196 -0.2115
 2057TIP3   OH227729   1.566   1.928   0.553 -0.0489  0.1335 -0.8116
 2057TIP3    H127730   1.634   1.994   0.541 -0.3207  0.3532 -1.1318
 2057TIP3    H227731   1.591   1.858   0.493  0.9207 -0.6099  0.3963
 2058TIP3   OH227732   3.548   3.567   7.795  0.0808 -0.2850 -0.8149
 2058TIP3    H127733   3.589   3.494   7.750  0.4198  0.4256 -1.6743
 2058TIP3    H227734   3.617   3.632   7.804 -0.6675  0.6598 -1.6855
 2059TIP3   OH227735   0.612   0.737   1.905  0.3391  0.0493 -0.4641
 2059TIP3    H127736   0.553   0.724   1.979  0.8164 -1.9357 -0.3821
 2059TIP3    H227737   0.555   0.742   1.829 -0.0531  0.4281 -0.1510
 2060TIP3   OH227738   5.976   0.640   1.339 -0.6267  0.0304  0.0425
 2060TIP3    H127739   5.967   0.607   1.428 -0.5011 -1.2258 -0.3862
 2060TIP3    H227740   5.886   0.659   1.312 -0.6842  0.2342  0.3775
 2061TIP3   OH227741   1.814   3.646   7.791 -0.3375 -0.1245  0.0293
 2061TIP3    H127742   1.755   3.675   7.860 -0.0465  0.0832  0.1934
 2061TIP3    H227743   1.802   3.551   7.787 -2.5525  0.1422 -1.6664
 2062TIP3   OH227744   3.839   3.205   7.797 -0.1672  0.0617 -0.2521
 2062TIP3    H127745   3.757   3.249   7.816  1.3195  3.4912 -1.1021
 2062TIP3    H227746   3.844   3.204   7.702  0.2956 -1.1720 -0.2330
 2063TIP3   OH227747   5.610   3.856   1.444 -0.1304  0.1423  0.3110
 2063TIP3    H127748   5.603   3.858   1.540 -1.0399 -1.2751  0.2991
 2063TIP3    H227749   5.704   3.850   1.427  0.0159 -0.0741  1.1279
 2064TIP3   OH227750   0.126   1.110   1.469 -0.5350 -0.1614 -0.6636
 2064TIP3    H127751   0.078   1.190   1.491  1.2513  0.5914  0.7828
 2064TIP3    H227752   0.146   1.118   1.376  0.2276  1.4567 -0.3943
 2065TIP3   OH227753   1.454   0.466   2.556  0.1470  0.0475 -0.0688
 2065TIP3    H127754   1.488   0.431   2.474 -3.0005 -2.6028 -0.4259
 2065TIP3    H227755   1.524   0.451   2.620  2.3426  1.4326 -1.9769
 2066TIP3   OH227756   6.317   2.171   0.372 -0.4562  0.4223  0.3589
 2066TIP3    H127757   6.405   2.179   0.334 -0.9031  0.3981 -0.7194
 2066TIP3    H227758   6.295   2.260   0.399 -1.0681  0.9513 -1.6695
 2067TIP3   OH227759   4.424   5.821   1.228 -0.1702  0.2083 -0.0498
 2067TIP3    H127760   4.419   5.815   1.132 -0.0483 -1.1511  0.0011
 2067TIP3    H227761   4.350   5.768   1.259 -1.8049  2.7226  0.6413
 2068TIP3   OH227762   6.612   4.790   0.401 -0.4809  0.0211 -0.1068
 2068TIP3    H127763   6.650   4.873   0.431 -0.9464 -0.4141  1.8166
 2068TIP3    H227764   6.524   4.789   0.439  0.2485 -2.2708  1.7780
 2069TIP3   OH227765   4.392   5.970   2.021 -0.0947 -0.1718  0.5188
 2069TIP3    H127766   4.462   5.977   2.086  0.2219  1.3791  0.0395
 2069TIP3    H227767   4.389   6.056   1.979 -2.0372 -0.3201  0.2608
 2070TIP3   OH227768   6.177   0.600   3.347 -0.0511  0.1350  0.0809
 2070TIP3    H127769   6.132   0.528   3.303 -0.1314  0.1677  0.1090
 2070TIP3    H227770   6.215   0.651   3.275 -0.1201  0.1480  0.0537
 2071TIP3   OH227771   4.656   2.427   1.287  0.2761 -0.1376 -0.6204
 2071TIP3    H127772   4.619   2.513   1.269  1.8713  0.9090  0.8373
 2071TIP3    H227773   4.622   2.372   1.217 -1.7035  1.3793 -0.9547
 2072TIP3   OH227774   1.031   1.307   1.366 -0.3798 -0.5986 -0.0648
 2072TIP3    H127775   0.946   1.346   1.347 -0.5518  1.5001  4.0706
 2072TIP3    H227776   1.011   1.215   1.388 -1.4641 -0.3435  0.0735
 2073TIP3   OH227777   1.047   0.420   0.393 -0.4864 -0.2633  0.2872
 2073TIP3    H127778   0.992   0.498   0.383  0.7266  0.5510 -0.2223
 2073TIP3    H227779   1.047   0.403   0.487 -0.6723  0.4187  0.4138
 2074TIP3   OH227780   0.202   0.802   0.319 -0.6025  0.3250 -0.2321
 2074TIP3    H127781   0.112   0.833   0.312 -0.2006  1.7488  0.7007
 2074TIP3    H227782   0.220   0.801   0.412  0.2714 -0.2094 -0.3974
 2075TIP3   OH227783   1.194   0.272   2.254 -0.6788  0.2004 -0.3064
 2075TIP3    H127784   1.144   0.196   2.225 -0.2141  0.2678 -1.3356
 2075TIP3    H227785   1.214   0.320   2.173 -0.5135  1.1367  0.2709
 2076TIP3   OH227786   6.016   0.709   7.678  0.0645  0.3403 -0.0312
 2076TIP3    H127787   5.934   0.756   7.671 -0.2732 -0.2150  0.1528
 2076TIP3    H227788   6.083   0.776   7.663 -0.4046  0.8679  0.1862
 2077TIP3   OH227789   2.044   1.762   8.361 -0.1045 -0.0989 -0.2684
 2077TIP3    H127790   2.093   1.810   8.294  0.4751  1.2155  1.0599
 2077TIP3    H227791   1.956   1.799   8.358 -0.0266  0.0912 -0.1523
 2078TIP3   OH227792   5.961   6.353   0.751 -0.0700  0.0043  0.0503
 2078TIP3    H127793   5.988   6.403   0.827 -0.3923  1.0166 -0.4919
 2078TIP3    H227794   5.961   6.415   0.679  1.1974 -1.1468 -1.0124
 2079TIP3   OH227795   2.937   0.675   1.164  0.2860  0.1039 -0.4061
 2079TIP3    H127796   2.854   0.638   1.135  0.3626 -0.6387  0.2954
 2079TIP3    H227797   3.000   0.648   1.098  0.4198 -1.4017  0.2993
 2080TIP3   OH227798   0.597   3.615   0.440  0.3208  0.8082  0.4492
 2080TIP3    H127799   0.505   3.598   0.420  0.3384 -2.1548  2.3629
 2080TIP3    H227800   0.645   3.550   0.388  1.5821  3.1910 -1.6177
 2081TIP3   OH227801   0.377   5.730   2.256  0.1976 -0.0030 -0.8208
 2081TIP3    H127802   0.452   5.735   2.315  0.4838  0.5488 -1.2167
 2081TIP3    H227803   0.402   5.665   2.191 -0.7959 -1.8793  0.5674
 2082TIP3   OH227804   2.513   5.911   2.662  0.6202 -0.1160  0.3995
 2082TIP3    H127805   2.424   5.882   2.643  0.8117  0.1773 -1.0619
 2082TIP3    H227806   2.519   5.998   2.623  1.7178 -0.3622 -0.0217
 2083TIP3   OH227807   4.007   1.335   2.667 -0.4064  0.3161 -0.3301
 2083TIP3    H127808   3.920   1.369   2.686 -0.7747 -0.3752 -0.7344
 2083TIP3    H227809   4.046   1.318   2.753 -0.9934 -0.1647 -0.1539
 2084TIP3   OH227810   5.643   0.388   0.929 -0.4421  0.1094 -0.1177
 2084TIP3    H127811   5.637   0.419   1.020  2.3100 -3.9319  1.7412
 2084TIP3    H227812   5.584   0.312   0.926  1.5855 -1.5139 -0.7268
 2085TIP3   OH227813   4.145   6.351   2.156  0.3348  0.0546  0.4668
 2085TIP3    H127814   4.138   6.258   2.134  0.4792  0.2089 -0.2668
 2085TIP3    H227815   4.236   6.373   2.134  0.1805  0.4671  0.2333
 2086TIP3   OH227816   1.051   0.703   1.093  0.1867  0.3066  0.5806
 2086TIP3    H127817   1.078   0.684   1.003  2.3043 -2.3725  1.6249
 2086TIP3    H227818   1.064   0.797   1.102  2.1225  0.3012 -1.2836
 2087TIP3   OH227819   4.914   1.981   7.941  0.4676 -0.1305  0.2427
 2087TIP3    H127820   4.837   1.931   7.969 -0.6580  1.2200 -0.3479
 2087TIP3    H227821   4.983   1.915   7.932 -0.5834 -1.3613  0.8752
 2088TIP3   OH227822   3.507   1.800   8.057 -0.1075 -0.4913 -0.2120
 2088TIP3    H127823   3.513   1.822   8.150  1.9007 -1.7623  0.0124
 2088TIP3    H227824   3.500   1.705   8.055 -0.8321 -0.4353 -1.3786
 2089TIP3   OH227825   6.684   6.688   2.180 -0.4606  0.4545 -0.1729
 2089TIP3    H127826   6.711   6.614   2.127  2.4527  2.4179 -1.6554
 2089TIP3    H227827   6.613   6.729   2.130 -0.5754 -0.0896 -0.4559
 2090TIP3   OH227828   5.015   5.108   7.515  0.4450 -0.0285 -0.3173
 2090TIP3    H127829   5.020   5.037   7.452 -0.8036  0.8300 -1.4490
 2090TIP3    H227830   5.102   5.149   7.512  0.4031  0.0104 -1.5269
 2091TIP3   OH227831   6.137   6.120   8.542 -0.7947 -0.3464 -0.2509
 2091TIP3    H127832   6.165   6.109   8.451 -2.0704 -0.6996 -0.6259
 2091TIP3    H227833   6.075   6.193   8.538 -2.6543 -1.8471 -0.1033
 2092TIP3   OH227834   1.025   6.450   0.734 -0.1259  0.0561 -0.3198
 2092TIP3    H127835   1.101   6.392   0.744  0.7323  1.3477  0.8548
 2092TIP3    H227836   0.984   6.420   0.652  1.3406 -0.9924 -0.7230
 2093TIP3   OH227837   2.855   1.867   8.427  0.1908 -0.2970 -0.5847
 2093TIP3    H127838   2.930   1.829   8.382  0.7825 -0.3877  0.4556
 2093TIP3    H227839   2.871   1.962   8.424  1.3935 -0.3879  1.3471
 2094TIP3   OH227840   2.725   1.656   8.546 -1.0785 -0.7029 -0.0249
 2094TIP3    H127841   2.654   1.653   8.482 -1.3618  2.4365  0.0166
 2094TIP3    H227842   2.765   1.742   8.534 -0.9267 -0.0897  3.7487
 2095TIP3   OH227843   2.796   5.091   8.749 -0.2259 -0.0373 -0.0848
 2095TIP3    H127844   2.776   5.138   8.667  1.3861 -0.7391 -0.9289
 2095TIP3    H227845   2.727   5.118   8.809 -0.9993  1.1426 -1.4275
 2096TIP3   OH227846   3.179   1.692   1.700 -0.3025  0.3200 -0.8330
 2096TIP3    H127847   3.228   1.675   1.781 -0.1242  1.3564 -0.7101
 2096TIP3    H227848   3.133   1.610   1.683 -2.2469  0.7634  1.6467
 2097TIP3   OH227849   4.515   6.005   1.634  0.2154  0.2071  0.0903
 2097TIP3    H127850   4.484   6.046   1.553 -0.1286 -0.2869 -0.0316
 2097TIP3    H227851   4.468   5.921   1.639 -0.0475  0.3918  0.9892
 2098TIP3   OH227852   1.510   5.320   2.276 -0.2389  0.4357  0.0387
 2098TIP3    H127853   1.466   5.330   2.192 -0.3915  1.6772  0.2500
 2098TIP3    H227854   1.443   5.288   2.336  0.0480 -1.1875 -0.4574
 2099TIP3   OH227855   1.172   5.462   2.017  0.2761  0.1244 -0.7645
 2099TIP3    H127856   1.164   5.541   2.070 -0.1998 -0.1136 -0.4762
 2099TIP3    H227857   1.086   5.450   1.977  0.3103 -0.3063 -0.7180
 2100TIP3   OH227858   2.864   6.799   0.903  0.0850  0.9842  0.3747
 2100TIP3    H127859   2.944   6.747   0.893 -0.8413 -0.6054  0.8701
 2100TIP3    H227860   2.846   6.797   0.996 -0.8654  0.7895  0.1924
 2101TIP3   OH227861   0.961   2.007   0.842  0.4043 -0.1073 -0.0683
 2101TIP3    H127862   1.021   2.011   0.917 -1.0957  1.2302  1.1137
 2101TIP3    H227863   0.982   1.923   0.799  0.6038 -1.4144  2.4335
 2102TIP3   OH227864   2.596   6.522   0.899 -0.2337 -0.2028 -0.3730
 2102TIP3    H127865   2.661   6.469   0.854 -2.5028 -1.9974 -1.7451
 2102TIP3    H227866   2.552   6.461   0.958 -0.2693  1.1200  1.0251
 2103TIP3   OH227867   2.767   5.419   2.147 -0.4085 -0.3308 -0.2108
 2103TIP3    H127868   2.731   5.454   2.065  2.7457  0.1015 -1.5518
 2103TIP3    H227869   2.829   5.352   2.119  0.3516 -0.5749  1.8899
 2104TIP3   OH227870   2.989   2.667   0.911  0.1271  0.6143 -0.2996
 2104TIP3    H127871   2.894   2.675   0.896  0.2064  1.0818 -0.5952
 2104TIP3    H227872   3.005   2.573   0.914 -0.2660  0.5233 -0.8322
 2105TIP3   OH227873   3.820   1.673   0.876  0.2660  0.1004  0.3780
 2105TIP3    H127874   3.839   1.695   0.785  0.5081 -1.6409 -0.0378
 2105TIP3    H227875   3.829   1.755   0.923  0.1575  1.0367 -1.1645
 2106TIP3   OH227876   2.970   3.730   2.249  0.0529  0.0461 -0.5172
 2106TIP3    H127877   3.018   3.811   2.268  0.9636 -0.1448 -1.8005
 2106TIP3    H227878   3.013   3.664   2.303  0.8578  0.0031 -1.1775
 2107TIP3   OH227879   6.833   0.665   8.636  0.2498 -0.1834  0.1849
 2107TIP3    H127880   6.762   0.603   8.655  2.2172 -1.9180  2.3180
 2107TIP3    H227881   6.901   0.645   8.700  2.1654  2.3179 -0.9038
 2108TIP3   OH227882   0.406   1.595   3.220  0.3194  0.1867  0.0386
 2108TIP3    H127883   0.325   1.580   3.269 -1.3623  0.0451 -2.6033
 2108TIP3    H227884   0.431   1.508   3.187  1.6790  0.2003  0.9291
 2109TIP3   OH227885   0.483   5.545   1.052  0.3668  0.0496  0.1279
 2109TIP3    H127886   0.516   5.597   1.125  2.3651 -0.9377 -0.0014
 2109TIP3    H227887   0.558   5.534   0.994  0.1952 -3.2206  0.3060
 2110TIP3   OH227888   3.649   5.863   8.375 -0.1951  0.0322  0.2681
 2110TIP3    H127889   3.582   5.826   8.317 -0.2672  0.6124 -0.0298
 2110TIP3    H227890   3.601   5.918   8.436 -0.1293 -0.6716  0.9664
 2111TIP3   OH227891   0.112   3.972   2.588 -0.1782 -0.4443  0.4746
 2111TIP3    H127892   0.081   3.972   2.678  0.8071  1.2193  0.8476
 2111TIP3    H227893   0.158   4.055   2.578  0.0929 -0.7763 -1.4449
 2112TIP3   OH227894   5.100   1.151   7.778 -0.2080 -0.1034  0.0280
 2112TIP3    H127895   5.163   1.205   7.825  0.8264 -1.2306 -0.0214
 2112TIP3    H227896   5.153   1.088   7.730 -1.3257 -0.1843 -1.1607
 2113TIP3   OH227897   5.564   3.427   7.714  0.1340  0.9431 -0.1828
 2113TIP3    H127898   5.474   3.394   7.713 -0.1577  1.7348 -0.2946
 2113TIP3    H227899   5.560   3.509   7.665  1.4572 -0.3558 -2.6794
 2114TIP3   OH227900   0.825   6.241   0.028 -0.0678 -0.1184 -0.6146
 2114TIP3    H127901   0.819   6.224   0.122 -2.6847 -0.2608 -0.7558
 2114TIP3    H227902   0.808   6.156  -0.012 -1.2006  0.3842 -1.2259
 2115TIP3   OH227903   1.409   2.318   2.374  0.2400 -0.2870  0.4858
 2115TIP3    H127904   1.446   2.231   2.384  2.2567  0.2326 -1.5777
 2115TIP3    H227905   1.453   2.372   2.439 -1.2053 -0.7974  1.9478
 2116TIP3   OH227906   2.082   4.670   0.304 -0.1403  0.0675  0.3435
 2116TIP3    H127907   2.155   4.706   0.355 -0.4110  2.2694 -0.6876
 2116TIP3    H227908   2.061   4.587   0.347  1.2409  0.6408  2.2633
 2117TIP3   OH227909   6.528   1.057   7.443 -0.2122  0.6838  0.3082
 2117TIP3    H127910   6.461   1.078   7.377 -0.0610  0.8322  0.2023
 2117TIP3    H227911   6.591   1.129   7.437  0.1819  0.3196  0.1139
 2118TIP3   OH227912   3.067   2.486   8.118  0.4441  0.1521  0.0480
 2118TIP3    H127913   3.148   2.442   8.093  0.0888 -0.3338 -0.2777
 2118TIP3    H227914   3.068   2.569   8.069  1.1815  0.5802  0.7682
 2119TIP3   OH227915   1.919   3.952   1.298 -0.2770 -0.0103 -0.0661
 2119TIP3    H127916   1.972   3.889   1.250 -0.0561  0.0160  0.1406
 2119TIP3    H227917   1.982   4.002   1.350 -0.3993  0.6474 -0.5306
 2120TIP3   OH227918   4.540   0.398   8.760  0.2925  0.5688 -0.0945
 2120TIP3    H127919   4.490   0.479   8.763  1.0621  1.1086 -1.4180
 2120TIP3    H227920   4.627   0.423   8.729  0.1605 -0.9367 -1.8564
 2121TIP3   OH227921   3.267   3.301   7.118 -0.0546 -0.1373  0.1211
 2121TIP3    H127922   3.316   3.336   7.192 -0.5967  0.0454  0.3942
 2121TIP3    H227923   3.326   3.236   7.079  0.6696  0.5495  0.0438
 2122TIP3   OH227924   5.517   5.579   1.793 -0.4680 -0.4038  0.2869
 2122TIP3    H127925   5.481   5.664   1.819 -1.8799 -1.2739  1.2918
 2122TIP3    H227926   5.521   5.583   1.698 -0.9690  0.6127  0.2938
 2123TIP3   OH227927   0.684   5.046   7.504  0.1186 -0.2922  0.5043
 2123TIP3    H127928   0.673   4.952   7.488 -0.8518 -0.3612  1.4879
 2123TIP3    H227929   0.615   5.069   7.566  1.3629  0.7417  1.5867
 2124TIP3   OH227930   5.409   0.810   0.416  0.1936  0.2383 -0.2364
 2124TIP3    H127931   5.371   0.878   0.472 -2.0030 -0.1817 -1.1207
 2124TIP3    H227932   5.501   0.836   0.406 -0.2358  2.2793  0.6171
 2125TIP3   OH227933   4.495   1.997   1.523 -0.4356  0.5999 -1.4269
 2125TIP3    H127934   4.408   2.033   1.504 -1.0816 -0.3980 -0.5132
 2125TIP3    H227935   4.480   1.903   1.535  0.4675  0.6270  0.3092
 2126TIP3   OH227936   0.042   3.832   1.683 -0.9828  0.4086 -0.4593
 2126TIP3    H127937   0.058   3.821   1.590  0.4770 -0.0720 -0.1765
 2126TIP3    H227938   0.071   3.749   1.722 -0.2155  1.1298  0.5570
 2127TIP3   OH227939   0.395   5.046   8.708  0.4799  0.1352 -0.1668
 2127TIP3    H127940   0.449   5.100   8.651 -2.1032  2.0689 -0.9984
 2127TIP3    H227941   0.385   5.099   8.788 -1.3343  0.5670 -0.6286
 2128TIP3   OH227942   6.699   2.301   2.166 -0.3992  0.5840  0.2698
 2128TIP3    H127943   6.696   2.206   2.152  0.0817  0.5250  0.5473
 2128TIP3    H227944   6.650   2.314   2.248 -0.4247  0.5722  0.2566
 2129TIP3   OH227945   1.365   5.591   8.415 -0.1910 -0.6938  0.3233
 2129TIP3    H127946   1.435   5.526   8.421 -0.7663 -1.4467 -0.8457
 2129TIP3    H227947   1.408   5.674   8.436  0.9996 -1.1640 -0.1544
 2130TIP3   OH227948   1.612   5.396   7.755  0.2622  0.4522 -0.3362
 2130TIP3    H127949   1.582   5.487   7.753 -0.0061  0.3558 -0.8328
 2130TIP3    H227950   1.662   5.389   7.837 -1.6594  0.4259  0.8936
 2131TIP3   OH227951   4.198   3.422   1.022  0.2439  0.3324 -0.5526
 2131TIP3    H127952   4.199   3.360   0.949 -0.9920 -0.4561  0.0697
 2131TIP3    H227953   4.291   3.443   1.036  0.7714 -1.7730 -0.4806
 2132TIP3   OH227954   5.704   3.840   0.512  0.4818  0.3119  0.1505
 2132TIP3    H127955   5.748   3.920   0.542  0.4819  1.2947 -2.2763
 2132TIP3    H227956   5.758   3.769   0.547  3.6205  1.4555 -1.9710
 2133TIP3   OH227957   5.498   3.758   2.065  0.0057 -0.7559  0.3406
 2133TIP3    H127958   5.435   3.686   2.062 -2.3732  1.1932  0.2750
 2133TIP3    H227959   5.478   3.804   2.146 -0.2994  1.2369 -0.7825
 2134TIP3   OH227960   1.511   4.238   0.398  0.0905 -0.0136  0.0048
 2134TIP3    H127961   1.484   4.317   0.351  1.0468 -0.2339 -0.9391
 2134TIP3    H227962   1.490   4.166   0.339 -0.0130 -0.4121  0.5200
 2135TIP3   OH227963   4.912   0.763   1.693  0.1305  0.6415  0.0065
 2135TIP3    H127964   4.843   0.703   1.663  0.4223 -0.4795  1.4543
 2135TIP3    H227965   4.974   0.767   1.621  0.2096 -1.0127 -0.0461
 2136TIP3   OH227966   5.962   1.847   3.392  0.5967 -0.1325 -0.7235
 2136TIP3    H127967   5.995   1.911   3.455  0.6049 -0.1386 -0.7215
 2136TIP3    H227968   6.022   1.773   3.399 -0.8352 -1.2101  1.1019
 2137TIP3   OH227969   1.417   4.665   7.524  0.0173 -0.7935 -0.0863
 2137TIP3    H127970   1.339   4.661   7.468  0.5831 -0.4207 -0.9136
 2137TIP3    H227971   1.490   4.649   7.465  0.4754 -3.3385  1.0353
 2138TIP3   OH227972   3.379   0.894   8.403  0.2419  0.0612  0.0162
 2138TIP3    H127973   3.417   0.950   8.335 -2.6450 -0.4334 -2.2137
 2138TIP3    H227974   3.310   0.948   8.442  0.1040 -0.5936  0.7072
 2139TIP3   OH227975   0.610   2.553   2.091  0.0114 -0.0905 -0.2181
 2139TIP3    H127976   0.608   2.463   2.122  0.2941  0.2994  0.9580
 2139TIP3    H227977   0.686   2.592   2.133 -1.4282  1.3643  1.2263
 2140TIP3   OH227978   3.682   3.419   7.586  0.0675 -0.3751  0.2922
 2140TIP3    H127979   3.703   3.485   7.521 -0.2732 -0.9252 -0.3832
 2140TIP3    H227980   3.741   3.346   7.568  0.3259 -0.3343  0.9254
 2141TIP3   OH227981   1.467   3.816   1.182  0.2685  0.0584  0.5931
 2141TIP3    H127982   1.509   3.832   1.267 -1.5553  1.8666  1.2221
 2141TIP3    H227983   1.375   3.838   1.196 -0.3020 -0.7239 -1.5696
 2142TIP3   OH227984   5.149   2.902   7.725 -0.5011 -0.3474 -0.1661
 2142TIP3    H127985   5.100   2.969   7.678  1.0299  0.2426 -0.9903
 2142TIP3    H227986   5.238   2.909   7.690  0.2137 -1.2597  1.3996
 2143TIP3   OH227987   6.512   1.463   7.466 -0.0475  0.2353 -0.2484
 2143TIP3    H127988   6.437   1.404   7.454 -0.8671  0.6298  2.2773
 2143TIP3    H227989   6.484   1.523   7.535  2.4552  0.6723  0.4743
 2144TIP3   OH227990   0.860   2.004   7.513  0.0769  0.0148  0.5389
 2144TIP3    H127991   0.876   2.091   7.477  0.0810  0.0621  0.6547
 2144TIP3    H227992   0.773   1.981   7.483  0.0737  0.0614  0.5124
 2145TIP3   OH227993   4.125   1.576   2.466 -0.2915 -0.1336  0.3000
 2145TIP3    H127994   4.036   1.546   2.450 -0.1044 -0.8506  0.5628
 2145TIP3    H227995   4.129   1.591   2.560 -0.1889  0.0730  0.2629
 2146TIP3   OH227996   0.388   5.024   0.600  0.1253  0.2689  0.1803
 2146TIP3    H127997   0.406   4.935   0.570  2.4961  1.3779 -2.0182
 2146TIP3    H227998   0.293   5.027   0.611 -0.4510 -1.5767 -3.0730
 2147TIP3   OH227999   0.971   5.401   0.701  0.5384 -0.6723  0.0051
 2147TIP3    H128000   0.982   5.319   0.749  0.8384  0.7602  2.5108
 2147TIP3    H228001   1.058   5.440   0.698  0.3552 -0.3084 -0.9588
 2148TIP3   OH228002   5.223   6.720   1.411  0.2358  0.3170 -0.3438
 2148TIP3    H128003   5.314   6.749   1.419  0.4765 -0.2960 -0.8476
 2148TIP3    H228004   5.220   6.635   1.455 -0.2554  0.6541  0.2897
 2149TIP3   OH228005   6.283   1.067   2.381  0.2741 -0.5700 -0.3582
 2149TIP3    H128006   6.306   1.002   2.314  2.6208 -0.6795  0.4445
 2149TIP3    H228007   6.196   1.042   2.410  0.0125 -1.7141 -1.9765
 2150TIP3   OH228008   1.513   2.458   7.016  1.1681  0.1558 -0.2662
 2150TIP3    H128009   1.546   2.529   7.071  0.9845  0.5416 -0.6481
 2150TIP3    H228010   1.588   2.431   6.964  0.9050  1.0369 -1.1385
 2151TIP3   OH228011   3.697   5.760   1.516 -0.5689 -0.0482  0.5014
 2151TIP3    H128012   3.616   5.787   1.473 -0.4993  0.6060  0.7612
 2151TIP3    H228013   3.680   5.772   1.609 -1.0933 -2.4821  0.7791
 2152TIP3   OH228014   4.718   4.094   1.859  0.2517 -0.1332  0.1174
 2152TIP3    H128015   4.731   4.080   1.952 -0.5743 -0.0714  0.2474
 2152TIP3    H228016   4.726   4.006   1.820  1.9214  0.0124  0.0609
 2153TIP3   OH228017   4.575   6.796   2.329 -0.1895  0.4416  0.1319
 2153TIP3    H128018   4.509   6.853   2.368  0.2386  0.7673  0.4028
 2153TIP3    H228019   4.531   6.713   2.314 -0.5043  0.4749  0.8467
 2154TIP3   OH228020   6.045   6.831   0.345 -0.0423  0.0573 -0.1161
 2154TIP3    H128021   6.006   6.891   0.282 -1.5405  0.0023  0.6974
 2154TIP3    H228022   6.138   6.832   0.325 -0.2843  1.1872 -1.3407
 2155TIP3   OH228023   6.079   0.271   1.047 -0.4640 -0.1067  0.2018
 2155TIP3    H128024   6.092   0.208   1.118 -1.3785  0.5194  0.9425
 2155TIP3    H228025   6.117   0.352   1.081  0.0692 -0.0707 -0.4670
 2156TIP3   OH228026   2.389   5.419   7.238  0.0471 -0.5041 -0.2764
 2156TIP3    H128027   2.330   5.357   7.193 -2.4050  1.2938  0.2497
 2156TIP3    H228028   2.363   5.505   7.205  1.2206  0.5081  1.3015
 2157TIP3   OH228029   3.756   3.878   2.240 -0.1524  0.2100  0.0923
 2157TIP3    H128030   3.834   3.868   2.293 -0.3203  3.0009  1.0376
 2157TIP3    H228031   3.702   3.802   2.261  0.6694  0.1823  2.3779
 2158TIP3   OH228032   6.209   2.089   8.083  0.5352 -0.6778 -0.1038
 2158TIP3    H128033   6.143   2.022   8.098 -0.6287 -0.1218 -2.2881
 2158TIP3    H228034   6.162   2.172   8.094  1.5070 -0.2225  0.7698
 2159TIP3   OH228035   5.607   6.768   8.415 -0.0865  0.3497  0.3016
 2159TIP3    H128036   5.691   6.795   8.377  0.1076  0.0743  0.5248
 2159TIP3    H228037   5.571   6.705   8.352  0.6045 -0.7083  0.9342
 2160TIP3   OH228038   6.678   5.645   8.016 -0.4374  0.1957  0.1029
 2160TIP3    H128039   6.598   5.637   7.964 -0.4872  1.0270  0.0478
 2160TIP3    H228040   6.687   5.559   8.058 -1.4552  0.1480  0.2521
 2161TIP3   OH228041   1.455   1.516   8.652  0.0141  0.8112  0.8050
 2161TIP3    H128042   1.513   1.566   8.595 -0.2478  2.0904  1.6185
 2161TIP3    H228043   1.463   1.426   8.621  1.1209  1.2200 -0.1852
 2162TIP3   OH228044   1.575   3.531   1.169 -0.1107 -0.4386 -0.3770
 2162TIP3    H128045   1.519   3.602   1.137 -0.2661 -1.0836 -1.5780
 2162TIP3    H228046   1.552   3.455   1.115  1.5322 -0.8596 -0.5517
 2163TIP3   OH228047   3.474   6.433   0.967 -0.2253 -0.2379 -0.3577
 2163TIP3    H128048   3.519   6.492   1.027  0.3909 -1.1932  0.1207
 2163TIP3    H228049   3.502   6.462   0.880 -0.0071  0.2399 -0.1311
 2164TIP3   OH228050   2.375   5.999   0.147 -0.2295  0.2898 -0.4115
 2164TIP3    H128051   2.282   6.021   0.148 -0.4690 -0.6720  0.1135
 2164TIP3    H228052   2.400   5.994   0.239  0.6058  1.5422 -0.5549
 2165TIP3   OH228053   5.266   0.691   7.559 -0.1750 -0.1454 -0.2896
 2165TIP3    H128054   5.262   0.659   7.649  0.0355 -1.6955 -0.8003
 2165TIP3    H228055   5.191   0.650   7.515  0.0526  0.1352 -0.9539
 2166TIP3   OH228056   1.984   3.712   8.044  0.3971  0.1164 -0.1221
 2166TIP3    H128057   2.063   3.763   8.059  0.7718 -0.1737 -1.0861
 2166TIP3    H228058   1.915   3.778   8.031  0.6922  0.3712 -0.3927
 2167TIP3   OH228059   5.020   1.522   8.254  0.4872 -0.3441 -0.6086
 2167TIP3    H128060   5.031   1.432   8.224 -1.7621 -0.6317 -0.7348
 2167TIP3    H228061   5.052   1.575   8.181 -0.9915 -1.0568 -1.8330
 2168TIP3   OH228062   3.313   4.001   1.884 -0.4475 -0.1028  0.0827
 2168TIP3    H128063   3.365   3.974   1.809 -0.7073 -0.6851  0.1077
 2168TIP3    H228064   3.267   4.080   1.855 -0.0009  0.0810 -0.1264
 2169TIP3   OH228065   4.676   6.567   1.126  0.8828 -0.5102  0.5482
 2169TIP3    H128066   4.659   6.655   1.158  1.0896 -0.3592  0.2483
 2169TIP3    H228067   4.611   6.512   1.169  0.6580 -0.1875  0.6178
 2170TIP3   OH228068   4.444   4.170   7.361  0.0939 -0.8296 -0.4154
 2170TIP3    H128069   4.525   4.158   7.410 -0.0870 -0.6342 -0.0648
 2170TIP3    H228070   4.395   4.235   7.411  0.1243 -0.2448 -1.1232
 2171TIP3   OH228071   5.805   5.747   0.089 -0.1917  0.6561 -0.0961
 2171TIP3    H128072   5.834   5.665   0.128 -0.8973  0.0801 -0.7330
 2171TIP3    H228073   5.718   5.726   0.053 -0.2878  1.6245 -0.4441
 2172TIP3   OH228074   2.815   4.611   8.589  0.5918 -0.1805 -0.0970
 2172TIP3    H128075   2.891   4.638   8.641 -0.0483  1.3762  0.0950
 2172TIP3    H228076   2.800   4.685   8.529 -0.9014 -0.3452  0.0361
 2173TIP3   OH228077   4.664   5.953   0.921 -0.4065  0.2250  0.0068
 2173TIP3    H128078   4.611   5.997   0.987 -1.0521 -0.4963 -0.0181
 2173TIP3    H228079   4.610   5.879   0.891  1.1155 -1.3626  0.9538
 2174TIP3   OH228080   0.356   1.864   1.935  0.1327  0.6414  0.1036
 2174TIP3    H128081   0.279   1.913   1.963 -0.4706 -0.7845  1.0041
 2174TIP3    H228082   0.323   1.800   1.872  0.8249  0.9750 -0.6238
 2175TIP3   OH228083   4.767   3.455   1.972 -0.2071 -0.1967  0.4301
 2175TIP3    H128084   4.725   3.370   1.965  0.5200 -0.4869 -0.8060
 2175TIP3    H228085   4.806   3.456   2.060  0.4580 -1.4674  0.1640
 2176TIP3   OH228086   1.759   5.942   2.991 -0.1684  0.1870  0.1512
 2176TIP3    H128087   1.728   5.887   2.920 -1.0075  0.7805  0.0326
 2176TIP3    H228088   1.826   5.890   3.036 -1.3563 -1.1642  0.4158
 2177TIP3   OH228089   4.797   6.157   0.337 -0.2496  0.0463 -0.7934
 2177TIP3    H128090   4.796   6.183   0.245 -1.5192  2.2597 -0.2327
 2177TIP3    H228091   4.706   6.168   0.366  0.3753  0.7880  1.0381
 2178TIP3   OH228092   5.867   5.446   8.200 -0.0627  0.2466  0.0277
 2178TIP3    H128093   5.893   5.470   8.288 -0.7077  0.7011  0.1026
 2178TIP3    H228094   5.791   5.389   8.212 -0.1539  0.3107 -0.2278
 2179TIP3   OH228095   3.728   0.942   2.824 -0.2593  0.2207 -0.3066
 2179TIP3    H128096   3.716   1.015   2.763 -0.9522 -0.1270 -0.5983
 2179TIP3    H228097   3.736   0.865   2.767 -0.9151 -0.1090  0.0405
 2180TIP3   OH228098   1.807   1.626   1.173  0.2563  0.5789 -0.7966
 2180TIP3    H128099   1.878   1.574   1.134 -0.5664 -0.4425 -0.9860
 2180TIP3    H228100   1.850   1.702   1.210  1.5802 -0.4669 -0.0948
 2181TIP3   OH228101   6.342   6.563   2.064 -0.1429  0.1802 -0.9228
 2181TIP3    H128102   6.351   6.631   2.131 -0.3870 -0.7697  0.1011
 2181TIP3    H228103   6.303   6.609   1.989  0.7257  1.4033 -0.6674
 2182TIP3   OH228104   3.132   2.075   7.161 -0.2687  0.1208  0.3498
 2182TIP3    H128105   3.104   2.094   7.072 -0.2980 -2.7515 -0.3730
 2182TIP3    H228106   3.051   2.060   7.209 -0.2137 -0.5344  0.2527
 2183TIP3   OH228107   1.175   0.667   2.232 -0.4543  0.0484 -0.0395
 2183TIP3    H128108   1.144   0.578   2.245 -1.7170  0.5820  0.9115
 2183TIP3    H228109   1.251   0.659   2.175 -1.6042 -1.4596 -1.4309
 2184TIP3   OH228110   1.541   5.392   0.842  0.2957 -0.0366 -0.0679
 2184TIP3    H128111   1.593   5.435   0.910  1.8861 -1.5870 -0.1960
 2184TIP3    H228112   1.454   5.381   0.881  0.8485  0.1286  1.2914
 2185TIP3   OH228113   2.499   1.615   8.707 -0.6325  0.3016 -0.0019
 2185TIP3    H128114   2.524   1.684   8.769  1.9387 -2.3204  2.1303
 2185TIP3    H228115   2.579   1.593   8.660 -0.9383 -2.2622  0.5189
 2186TIP3   OH228116   2.232   1.951   7.300  0.4085 -0.1379  0.0033
 2186TIP3    H128117   2.220   1.886   7.369 -0.1090  1.2237  1.2685
 2186TIP3    H228118   2.319   1.935   7.266 -0.1314 -2.1990 -0.5246
 2187TIP3   OH228119   4.043   1.468   2.022 -0.9365 -0.3518  0.0897
 2187TIP3    H128120   4.069   1.378   1.999 -1.7245 -0.7354  0.6559
 2187TIP3    H228121   4.048   1.471   2.117  1.3386  0.9302 -0.0223
 2188TIP3   OH228122   1.563   1.272   1.567 -0.3849  0.1670  0.3811
 2188TIP3    H128123   1.604   1.308   1.488  0.4174 -1.4096  0.0502
 2188TIP3    H228124   1.475   1.246   1.539 -0.1775 -0.1885  0.0498
 2189TIP3   OH228125   1.682   1.866   0.163  0.3180  0.2554  0.1895
 2189TIP3    H128126   1.739   1.825   0.228  0.1164 -0.2213  0.0663
 2189TIP3    H228127   1.598   1.878   0.208  0.8388  2.0708  0.7721
 2190TIP3   OH228128   6.240   4.163   7.091  0.4533  0.1717  0.1640
 2190TIP3    H128129   6.220   4.250   7.058  1.0476 -0.2267 -1.3256
 2190TIP3    H228130   6.162   4.111   7.073 -0.1737  0.5223  1.6836
 2191TIP3   OH228131   1.496   5.639   0.719 -0.3004 -0.1946  0.2298
 2191TIP3    H128132   1.563   5.672   0.659  0.0362 -0.0125  0.7004
 2191TIP3    H228133   1.533   5.556   0.752 -0.5084 -0.3220  0.1394
 2192TIP3   OH228134   4.063   4.369   7.175  0.4322  0.2458  0.0067
 2192TIP3    H128135   4.146   4.392   7.217  0.1563 -1.3316  1.5539
 2192TIP3    H228136   3.996   4.393   7.240 -0.5178  2.8463 -1.7822
 2193TIP3   OH228137   6.142   5.667   3.066 -0.2083  0.5303  0.2614
 2193TIP3    H128138   6.059   5.630   3.037  0.5338 -2.0884  1.1753
 2193TIP3    H228139   6.184   5.698   2.985 -0.3649 -1.8759 -0.8261
 2194TIP3   OH228140   2.760   5.405   6.973  0.5417  0.2597 -0.1764
 2194TIP3    H128141   2.768   5.490   7.017 -0.5591  0.9034 -1.1494
 2194TIP3    H228142   2.665   5.389   6.970  0.7392 -1.0276  0.0092
 2195TIP3   OH228143   5.210   6.669   2.522 -0.0481 -0.9081 -0.1140
 2195TIP3    H128144   5.205   6.733   2.593 -0.6130  0.0640 -1.0027
 2195TIP3    H228145   5.144   6.604   2.543 -3.5737  1.7124 -1.9345
 2196TIP3   OH228146   5.478   4.082   2.823 -0.2050  0.6718  0.3451
 2196TIP3    H128147   5.570   4.097   2.799 -0.0118  0.4047  0.9033
 2196TIP3    H228148   5.470   3.987   2.827 -0.9411  0.6215 -1.3298
 2197TIP3   OH228149   3.742   2.261   2.561 -0.2183 -0.0521  0.4882
 2197TIP3    H128150   3.685   2.275   2.485 -0.7181  0.4113  0.9359
 2197TIP3    H228151   3.788   2.180   2.542 -0.5616 -0.1003 -0.1755
 2198TIP3   OH228152   2.877   4.835   0.600 -0.1217 -0.0310 -0.1591
 2198TIP3    H128153   2.966   4.808   0.620 -0.1627  1.3806  2.4150
 2198TIP3    H228154   2.862   4.806   0.510  1.9435 -2.7564  0.2604
 2199TIP3   OH228155   3.120   5.247   2.461 -0.3581 -0.1932 -0.4544
 2199TIP3    H128156   3.074   5.182   2.409 -0.6537 -1.5457  1.4038
 2199TIP3    H228157   3.210   5.214   2.468 -0.5979 -0.6582  0.8026
 2200TIP3   OH228158   3.639   2.641   0.627 -0.2323  0.1853 -0.1196
 2200TIP3    H128159   3.640   2.711   0.693 -2.3962 -0.1854  0.3920
 2200TIP3    H228160   3.617   2.685   0.545 -1.2806  0.1584  0.1414
 2201TIP3   OH228161   3.937   1.319   8.667  0.1597 -0.3670 -0.0763
 2201TIP3    H128162   3.874   1.289   8.732  0.8154 -0.4374  0.5384
 2201TIP3    H228163   3.884   1.343   8.592 -0.5134 -1.5114  0.0068
 2202TIP3   OH228164   3.325   0.030   2.224 -0.0598  0.3198  0.0664
 2202TIP3    H128165   3.259  -0.000   2.287 -0.3479 -0.6643 -0.6795
 2202TIP3    H228166   3.390   0.076   2.277 -0.5875  0.0079  1.0072
 2203TIP3   OH228167   2.730   6.660   8.170 -0.0690 -0.3936  0.0864
 2203TIP3    H128168   2.654   6.718   8.172  0.4235  0.3477 -1.3320
 2203TIP3    H228169   2.759   6.662   8.079  3.4093  1.6437  1.0506
 2204TIP3   OH228170   1.703   2.787   8.008  0.1058 -0.2161  0.5221
 2204TIP3    H128171   1.726   2.721   8.073  0.9936 -0.1825  0.2618
 2204TIP3    H228172   1.735   2.870   8.044 -1.5759  0.2157  1.1456
 2205TIP3   OH228173   0.816   2.977   8.059  0.5133  0.1352  0.0193
 2205TIP3    H128174   0.764   2.997   8.137 -2.2258  0.0615 -1.6554
 2205TIP3    H228175   0.785   2.891   8.031  2.3749 -0.4170 -0.4762
 2206TIP3   OH228176   4.660   5.497   1.240 -0.3369 -0.0602 -0.7567
 2206TIP3    H128177   4.735   5.443   1.217 -0.4649 -0.5939  0.0609
 2206TIP3    H228178   4.697   5.583   1.260 -0.0652 -0.0227 -1.3958
 2207TIP3   OH228179   2.634   1.968   0.419 -0.0290  0.0169  0.4733
 2207TIP3    H128180   2.646   1.878   0.447 -0.1330 -0.2031 -0.1666
 2207TIP3    H228181   2.715   2.012   0.445  1.1422 -0.8557 -1.4654
 2208TIP3   OH228182   1.746   1.452   1.410 -0.5579  0.3590 -0.4972
 2208TIP3    H128183   1.708   1.512   1.346 -0.6316 -0.4396 -1.2299
 2208TIP3    H228184   1.812   1.403   1.360 -0.4342 -0.0961  0.1026
 2209TIP3   OH228185   1.116   6.782   0.796  0.1610 -0.1984  0.4440
 2209TIP3    H128186   1.096   6.814   0.708 -0.2885  0.5502  0.8050
 2209TIP3    H228187   1.165   6.701   0.782  0.6991  0.2667 -0.5078
 2210TIP3   OH228188   4.372   6.605   8.083 -0.2806 -0.0651 -0.1120
 2210TIP3    H128189   4.286   6.639   8.059 -0.1658  0.5869  0.3810
 2210TIP3    H228190   4.357   6.512   8.100 -1.1364  0.2706  1.1146
 2211TIP3   OH228191   5.472   0.873   7.894 -0.2771  0.7513 -0.1610
 2211TIP3    H128192   5.522   0.927   7.955  1.5411 -0.7551 -0.2305
 2211TIP3    H228193   5.475   0.922   7.812  0.3772  1.0956  0.0559
 2212TIP3   OH228194   6.470   5.416   7.382 -0.3667 -0.1130  0.0910
 2212TIP3    H128195   6.391   5.448   7.340 -0.3886 -0.9148 -0.5037
 2212TIP3    H228196   6.511   5.360   7.316  0.8791  0.5640  0.2608
 2213TIP3   OH228197   3.024   4.954   0.042 -0.6654  0.1017 -0.6032
 2213TIP3    H128198   2.932   4.972   0.023 -0.5233  0.8818 -0.5596
 2213TIP3    H228199   3.069   4.967  -0.042 -0.5606 -0.0524 -0.5716
 2214TIP3   OH228200   4.007   3.345   7.945  0.7959  0.2413  0.1915
 2214TIP3    H128201   3.944   3.288   7.901  0.3969  1.0951 -0.3894
 2214TIP3    H228202   3.975   3.352   8.035  0.0100  0.7124 -0.1094
 2215TIP3   OH228203   5.005   1.147   1.365  0.2344 -0.4403 -0.6257
 2215TIP3    H128204   5.008   1.141   1.270  0.4445 -2.2880 -0.5252
 2215TIP3    H228205   4.919   1.113   1.389  0.7832 -1.4784 -0.0748
 2216TIP3   OH228206   3.142   4.471   8.422 -0.2497  0.3316  0.3469
 2216TIP3    H128207   3.107   4.389   8.457 -1.4206  0.8675  0.4766
 2216TIP3    H228208   3.130   4.534   8.493  2.1263  0.2902  0.8494
 2217TIP3   OH228209   2.233   0.419   2.802  0.0679 -0.1001 -0.0324
 2217TIP3    H128210   2.154   0.365   2.798  0.5281 -0.7308 -2.5959
 2217TIP3    H228211   2.234   0.454   2.891 -2.2721 -1.2807  0.5386
 2218TIP3   OH228212   0.344   3.024   0.614 -0.3643 -0.2830 -0.5096
 2218TIP3    H128213   0.368   3.093   0.676  0.4211 -0.1210 -0.9771
 2218TIP3    H228214   0.278   2.973   0.660  0.4042 -0.3440  0.5776
 2219TIP3   OH228215   1.332   3.055   8.431 -0.5412  0.5041  0.1514
 2219TIP3    H128216   1.285   3.058   8.347  0.4660 -1.9983 -0.6180
 2219TIP3    H228217   1.290   2.983   8.478  0.5424  0.2093  0.6943
 2220TIP3   OH228218   5.237   5.311   1.215  0.3161  0.3293  0.2155
 2220TIP3    H128219   5.197   5.238   1.168  0.8098  0.4624 -0.4134
 2220TIP3    H228220   5.281   5.362   1.148 -0.9431  1.8427  0.4768
 2221TIP3   OH228221   4.433   0.515   8.169 -0.8504  0.3544 -0.0600
 2221TIP3    H128222   4.454   0.423   8.152 -1.2099  0.3625 -0.5664
 2221TIP3    H228223   4.379   0.514   8.247 -1.1204  0.1074 -0.2502
 2222TIP3   OH228224   0.795   2.608   7.603 -0.3018 -0.1200 -0.3554
 2222TIP3    H128225   0.717   2.564   7.635  0.7104 -1.6745  0.0592
 2222TIP3    H228226   0.827   2.658   7.679  0.4194 -1.3991  0.2045
 2223TIP3   OH228227   2.190   5.515   1.008  0.5734 -0.3625 -0.2229
 2223TIP3    H128228   2.111   5.520   0.954 -0.8550 -1.5167  1.6093
 2223TIP3    H228229   2.200   5.421   1.026  1.0258 -0.0364  1.3978
 2224TIP3   OH228230   1.115   4.608   0.553  0.4297  0.4138 -0.4423
 2224TIP3    H128231   1.103   4.684   0.496 -0.7058  1.1345  0.7107
 2224TIP3    H228232   1.210   4.599   0.561  0.5793  1.7062 -0.6137
 2225TIP3   OH228233   2.426   3.031   8.409  0.4937 -0.4277 -0.2885
 2225TIP3    H128234   2.449   2.943   8.438 -0.4366 -0.4505  0.4351
 2225TIP3    H228235   2.353   3.057   8.466  1.5660  1.3195  0.3783
 2226TIP3   OH228236   5.035   3.662   0.802 -0.4204  0.2722  0.3928
 2226TIP3    H128237   5.082   3.595   0.753  0.4865  1.7184 -0.7970
 2226TIP3    H228238   4.946   3.661   0.766 -0.2876  0.0138  0.0738
 2227TIP3   OH228239   2.267   2.546   2.292  0.6172 -0.3390  0.4918
 2227TIP3    H128240   2.249   2.484   2.221  0.0390  0.7541 -0.3604
 2227TIP3    H228241   2.186   2.549   2.343  0.8078 -0.6331  0.8149
 2228TIP3   OH228242   5.225   0.571   0.028 -0.4459 -0.8079  0.5548
 2228TIP3    H128243   5.165   0.570   0.103 -0.0994 -0.4382  0.8466
 2228TIP3    H228244   5.287   0.641   0.049  0.2588 -1.3738  0.3930
 2229TIP3   OH228245   1.613   2.080   1.241  0.0351 -0.1551 -0.3586
 2229TIP3    H128246   1.635   1.988   1.259 -0.8716 -0.4848 -0.8549
 2229TIP3    H228247   1.539   2.075   1.181  2.2313  0.8967 -3.4165
 2230TIP3   OH228248   0.375   6.520   7.975  0.6499  0.0860 -0.2914
 2230TIP3    H128249   0.311   6.537   8.045 -0.3616 -0.9644 -0.9244
 2230TIP3    H228250   0.326   6.533   7.894  1.1519 -0.9704 -0.7898
 2231TIP3   OH228251   5.291   1.247   8.422  0.0843 -0.1380 -0.0323
 2231TIP3    H128252   5.320   1.167   8.379 -1.4089 -2.1045  2.3513
 2231TIP3    H228253   5.333   1.318   8.372  3.1049 -2.4331 -1.0541
 2232TIP3   OH228254   1.096   4.483   8.540  0.1252  0.3283  0.6308
 2232TIP3    H128255   1.024   4.542   8.518  0.0404 -0.1977 -0.5751
 2232TIP3    H228256   1.130   4.453   8.456  1.9042  0.7117  1.1658
 2233TIP3   OH228257   4.803   4.685   1.413  0.3373 -0.0590 -0.7928
 2233TIP3    H128258   4.784   4.776   1.391  0.1009 -0.0915 -0.7193
 2233TIP3    H228259   4.899   4.682   1.420  0.2313  0.9465  2.4771
 2234TIP3   OH228260   4.685   0.034   1.530 -0.0528 -0.6953  0.2686
 2234TIP3    H128261   4.652   0.010   1.616  0.6108 -3.2604 -0.1016
 2234TIP3    H228262   4.780   0.023   1.536  0.4287  2.5286  0.1400
 2235TIP3   OH228263   5.663   2.076   8.221 -0.7847  0.4690  0.0615
 2235TIP3    H128264   5.635   2.043   8.307 -0.0957 -0.2355  0.0325
 2235TIP3    H228265   5.643   2.005   8.161 -0.0380  0.4219 -0.1420
 2236TIP3   OH228266   6.702   1.169   1.806 -0.3428 -0.2963 -0.9551
 2236TIP3    H128267   6.696   1.154   1.712 -0.7799 -0.2122 -0.9415
 2236TIP3    H228268   6.617   1.142   1.841  0.4010 -2.0063 -0.3494
 2237TIP3   OH228269   2.153   5.055   0.894 -0.2903  0.1564  0.1043
 2237TIP3    H128270   2.199   5.131   0.929 -1.3213  1.3570 -1.0476
 2237TIP3    H228271   2.179   5.050   0.802 -0.3447 -0.8142  0.1277
 2238TIP3   OH228272   4.160   2.153   0.045 -0.0813 -0.1941 -0.6941
 2238TIP3    H128273   4.118   2.098  -0.020 -0.2461  0.7146 -1.3637
 2238TIP3    H228274   4.174   2.237   0.002  0.4893  0.1943  0.1953
 2239TIP3   OH228275   3.205   6.595   0.587 -0.3930  0.6697 -0.0321
 2239TIP3    H128276   3.185   6.502   0.577  0.0939  0.5117  0.4320
 2239TIP3    H228277   3.300   6.598   0.600 -0.3437  1.2662 -0.4438
 2240TIP3   OH228278   0.236   3.220   1.057 -0.6946  0.1960  0.3313
 2240TIP3    H128279   0.262   3.245   1.146 -0.5798 -0.7341  0.5737
 2240TIP3    H228280   0.140   3.225   1.059 -0.9245 -2.5614  1.4308
 2241TIP3   OH228281   3.301   2.358   8.111  0.8412 -0.3455  0.3508
 2241TIP3    H128282   3.272   2.353   8.202  2.7999  0.3386  1.0699
 2241TIP3    H228283   3.322   2.267   8.087  0.7232 -0.4705  0.7218
 2242TIP3   OH228284   1.840   6.355   3.265 -0.3140 -0.1420  0.1459
 2242TIP3    H128285   1.905   6.313   3.322  1.3046  0.7559 -0.9371
 2242TIP3    H228286   1.840   6.446   3.292 -1.0458 -0.1126  0.0521
 2243TIP3   OH228287   2.717   0.353   1.350 -0.1291 -0.2735 -0.0253
 2243TIP3    H128288   2.793   0.366   1.407 -0.7842 -1.5591  1.1921
 2243TIP3    H228289   2.739   0.401   1.269  1.8724 -0.4502  0.3698
 2244TIP3   OH228290   5.914   2.416   1.054 -0.2824  0.2634 -0.5002
 2244TIP3    H128291   5.850   2.473   1.012 -0.5511  0.9163  0.7673
 2244TIP3    H228292   5.871   2.386   1.134  0.3473 -0.6820 -0.5067
 2245TIP3   OH228293   0.500   2.115   3.067 -0.3591  0.4560 -0.4033
 2245TIP3    H128294   0.429   2.178   3.054 -0.3183  0.2191 -1.9129
 2245TIP3    H228295   0.464   2.052   3.129 -1.1217  0.8728 -0.4073
 2246TIP3   OH228296   5.893   2.528   2.117 -0.5400 -0.5163 -0.0464
 2246TIP3    H128297   5.924   2.514   2.028 -1.2778  2.2424 -0.8196
 2246TIP3    H228298   5.874   2.440   2.150  2.4707 -1.8782 -1.5319
 2247TIP3   OH228299   5.388   0.462   2.813 -0.2211 -0.1694 -0.3961
 2247TIP3    H128300   5.442   0.507   2.748 -0.6117 -1.0345 -1.3340
 2247TIP3    H228301   5.425   0.489   2.897 -0.0357  1.3817 -0.9431
 2248TIP3   OH228302   1.563   0.763   0.006 -0.8070  0.3800 -0.0671
 2248TIP3    H128303   1.603   0.678   0.023  2.6140  2.1874  2.2199
 2248TIP3    H228304   1.574   0.775  -0.089 -0.5942 -1.3464 -0.2960
 2249TIP3   OH228305   5.641   0.966   8.119 -0.3544  0.3143 -0.1012
 2249TIP3    H128306   5.726   1.006   8.103 -0.6835  1.2207  0.3439
 2249TIP3    H228307   5.657   0.902   8.188  0.0693  0.0981 -0.3992
 2250TIP3   OH228308   6.657   0.477   1.797  0.0940  0.1750 -0.4088
 2250TIP3    H128309   6.616   0.405   1.845 -0.5498 -0.2279 -1.5135
 2250TIP3    H228310   6.637   0.555   1.848  0.0596 -0.3213  0.3545
 2251TIP3   OH228311   5.769   2.638   3.123  0.2637  0.3739 -0.0422
 2251TIP3    H128312   5.843   2.691   3.154 -0.8562  1.4500  0.9498
 2251TIP3    H228313   5.802   2.549   3.120  1.6081  0.8352  0.3524
 2252TIP3   OH228314   2.963   5.447   1.740 -0.0675 -0.5275  0.0350
 2252TIP3    H128315   3.003   5.360   1.732  1.4596  0.0171  1.2747
 2252TIP3    H228316   2.959   5.480   1.650 -0.2108 -1.6626 -0.3965
 2253TIP3   OH228317   0.868   5.178   2.564 -0.8679  0.5334  0.0011
 2253TIP3    H128318   0.870   5.270   2.535  0.5868  2.0869  4.2555
 2253TIP3    H228319   0.952   5.142   2.535 -0.8272  0.9857 -0.4665
 2254TIP3   OH228320   3.747   5.622   0.889 -0.1085  0.1011 -0.3916
 2254TIP3    H128321   3.752   5.547   0.829  0.0684  0.6703 -1.1105
 2254TIP3    H228322   3.681   5.597   0.954  1.3465 -1.4842  0.5579
 2255TIP3   OH228323   6.663   0.754   8.014  0.1752 -0.0531  0.1029
 2255TIP3    H128324   6.568   0.747   8.016  0.1324  0.2800 -0.4963
 2255TIP3    H228325   6.680   0.823   7.950  0.8839 -1.3041 -1.1068
 2256TIP3   OH228326   4.585   1.973   0.631  0.3701  0.0138 -0.5182
 2256TIP3    H128327   4.537   2.018   0.562 -1.5828 -1.4556 -0.2369
 2256TIP3    H228328   4.658   1.930   0.587 -1.7635 -2.2780 -2.1098
 2257TIP3   OH228329   2.033   3.018   1.159  0.1917 -0.0964  0.3079
 2257TIP3    H128330   2.089   2.960   1.212 -1.2085 -0.0188  1.9608
 2257TIP3    H228331   1.983   2.958   1.104  0.6497 -0.2754  0.0785
 2258TIP3   OH228332   3.142   6.545   7.372  0.1089  0.3648  0.1380
 2258TIP3    H128333   3.080   6.613   7.348 -0.6536  0.0227  1.0970
 2258TIP3    H228334   3.206   6.544   7.300 -0.8962  0.8268 -0.7806
 2259TIP3   OH228335   2.049   3.429   7.205 -0.7553 -0.1767  0.0209
 2259TIP3    H128336   2.113   3.380   7.257 -0.9253  0.5814  0.9662
 2259TIP3    H228337   2.081   3.422   7.115 -0.4472 -1.4917  0.2168
 2260TIP3   OH228338   0.042   0.775   1.952  0.4061  0.0633  0.3193
 2260TIP3    H128339   0.028   0.760   1.858  0.1206  1.2624  0.1493
 2260TIP3    H228340  -0.046   0.768   1.990  0.3375  0.7573  0.3045
 2261TIP3   OH228341   4.375   5.144   1.926 -0.3903 -0.2057 -0.0478
 2261TIP3    H128342   4.439   5.137   1.996 -1.4473  0.2830  1.0070
 2261TIP3    H228343   4.410   5.090   1.855 -0.1114 -2.1418  1.4829
 2262TIP3   OH228344   4.733   0.350   7.077 -0.7043  0.3778  0.6747
 2262TIP3    H128345   4.778   0.404   7.142 -3.1955  2.4160  0.8948
 2262TIP3    H228346   4.757   0.390   6.993 -3.4881  2.9058  0.8878
 2263TIP3   OH228347   3.845   0.497   8.415  0.5033 -0.7136  0.0408
 2263TIP3    H128348   3.852   0.589   8.439  0.6176 -0.3749 -1.1934
 2263TIP3    H228349   3.864   0.496   8.321 -1.3124 -1.7380 -0.3669
 2264TIP3   OH228350   5.116   5.976   7.477  0.6328 -0.3296  0.4661
 2264TIP3    H128351   5.181   5.942   7.539  0.5324  0.6620  1.1474
 2264TIP3    H228352   5.032   5.963   7.520  0.6873  2.3024  1.5931
 2265TIP3   OH228353   1.035   2.534   7.477 -0.1081 -0.4526  0.1667
 2265TIP3    H128354   1.046   2.444   7.508  1.1943  0.0678  1.3229
 2265TIP3    H228355   0.953   2.562   7.517 -0.0174 -0.8041  0.6102
 2266TIP3   OH228356   0.085   4.319   1.822 -0.1812 -0.1822 -0.0409
 2266TIP3    H128357   0.152   4.343   1.886 -0.4999 -0.6419  0.4720
 2266TIP3    H228358   0.118   4.354   1.739  0.5451 -0.1308  0.2599
 2267TIP3   OH228359   4.076   1.451   7.845 -0.4414 -0.1761  0.7138
 2267TIP3    H128360   4.169   1.462   7.829 -0.6467  0.6070  0.0370
 2267TIP3    H228361   4.035   1.455   7.759 -1.3654  2.1718  1.1995
 2268TIP3   OH228362   0.548   3.033   1.302  0.1415  0.4640 -0.2625
 2268TIP3    H128363   0.482   2.966   1.318  0.6052  0.0312 -0.1351
 2268TIP3    H228364   0.498   3.111   1.280 -0.3874 -0.0961 -1.0854
 2269TIP3   OH228365   1.799   3.029   0.869 -0.2258 -0.3436  0.2309
 2269TIP3    H128366   1.817   2.993   0.783 -1.6280 -0.1118 -0.1865
 2269TIP3    H228367   1.844   2.971   0.930  0.1711 -0.9353 -0.6146
 2270TIP3   OH228368   6.430   3.820   0.220  0.6203  0.8548  0.3943
 2270TIP3    H128369   6.488   3.797   0.148  0.2996 -1.6876  0.8339
 2270TIP3    H228370   6.479   3.795   0.299  1.1300  3.9463  1.1751
 2271TIP3   OH228371   1.385   6.174   1.633  0.2647 -0.1486  0.5498
 2271TIP3    H128372   1.463   6.135   1.593 -1.0216 -0.8346 -1.4250
 2271TIP3    H228373   1.373   6.125   1.715  1.0862 -1.0191  0.1696
 2272TIP3   OH228374   0.959   3.506   2.103  0.6377  0.5872  0.0092
 2272TIP3    H128375   0.966   3.498   2.198  2.9500  0.6324 -0.1028
 2272TIP3    H228376   1.037   3.555   2.077 -0.6955  1.8654 -1.7907
 2273TIP3   OH228377   3.621   3.335   1.560 -0.3450 -0.1027  0.1266
 2273TIP3    H128378   3.586   3.273   1.625 -1.0902 -1.5453 -1.5594
 2273TIP3    H228379   3.715   3.317   1.559 -0.3011  0.0243  0.8615
 2274TIP3   OH228380   1.433   5.703   2.144  0.0017 -0.4351 -0.5019
 2274TIP3    H128381   1.488   5.634   2.108  0.2647 -0.4790 -0.0233
 2274TIP3    H228382   1.347   5.689   2.104 -1.1592 -3.6129  2.5711
 2275TIP3   OH228383   2.560   5.536   8.311 -0.5882 -0.4914  0.1465
 2275TIP3    H128384   2.560   5.631   8.308 -0.0299 -0.5090 -1.8739
 2275TIP3    H228385   2.481   5.510   8.263  0.4022 -1.0019 -1.3076
 2276TIP3   OH228386   4.778   4.832   2.175 -0.2261 -0.4326 -0.0542
 2276TIP3    H128387   4.782   4.847   2.269 -0.4243 -0.3661 -0.0551
 2276TIP3    H228388   4.856   4.874   2.140 -0.8294  0.7035 -0.0757
 2277TIP3   OH228389   2.447   2.550   2.011 -0.4647  0.1289 -0.2900
 2277TIP3    H128390   2.515   2.483   2.012 -2.8057 -2.4554  1.2781
 2277TIP3    H228391   2.451   2.589   2.098 -1.7516 -1.0067  0.3228
 2278TIP3   OH228392   0.190   1.019   7.822  0.5757 -0.4295 -0.3623
 2278TIP3    H128393   0.203   0.941   7.769  1.3321 -0.2016 -0.5302
 2278TIP3    H228394   0.258   1.014   7.889  1.0433  0.3851 -0.7540
 2279TIP3   OH228395   0.095   2.123   1.051 -0.2049 -0.1606  0.0118
 2279TIP3    H128396   0.010   2.120   1.094 -0.6822  2.1200 -0.6513
 2279TIP3    H228397   0.158   2.133   1.122 -0.5512 -0.9267  0.4413
 2280TIP3   OH228398   4.539   2.992   3.004  0.2342 -0.2699  0.2827
 2280TIP3    H128399   4.454   2.948   3.009  0.5220 -0.8727  0.0193
 2280TIP3    H228400   4.518   3.085   3.008 -0.3945 -0.4263  0.7836
 2281TIP3   OH228401   5.900   5.834   1.237  0.0122  0.0718  0.3695
 2281TIP3    H128402   5.967   5.895   1.209 -0.0114 -0.6360 -1.2959
 2281TIP3    H228403   5.932   5.800   1.321  1.8770 -0.4937 -0.5398
 2282TIP3   OH228404   0.989   0.090   8.180  0.7690 -0.3584  0.3641
 2282TIP3    H128405   0.955   0.122   8.097 -0.8263  0.5484  1.3000
 2282TIP3    H228406   1.062   0.148   8.200  0.3577  0.2315  0.1820
 2283TIP3   OH228407   1.572   4.690   0.152  0.4519 -0.2269 -0.2847
 2283TIP3    H128408   1.538   4.718   0.067 -0.2351 -2.7807 -0.9580
 2283TIP3    H228409   1.667   4.689   0.141  0.4183  0.4617 -0.6767
 2284TIP3   OH228410   2.965   2.387   1.762  0.1057  0.8680 -0.0274
 2284TIP3    H128411   3.027   2.358   1.828 -0.9348  0.7085  0.9055
 2284TIP3    H228412   2.915   2.309   1.740 -1.2136  1.4457  0.8419
 2285TIP3   OH228413   2.562   2.941   0.897  0.4395 -0.1737  0.3461
 2285TIP3    H128414   2.579   2.966   0.806 -0.9914 -1.3914 -0.2986
 2285TIP3    H228415   2.509   3.012   0.932  2.0465  0.9292  0.6706
 2286TIP3   OH228416   1.064   3.986   8.564 -0.4936  0.0258  0.2463
 2286TIP3    H128417   0.976   4.022   8.560  0.3428  2.3400  0.7549
 2286TIP3    H228418   1.108   4.037   8.632  1.3118 -0.8833 -0.1572
 2287TIP3   OH228419   1.788   0.871   0.835 -0.4275  0.1391 -0.1490
 2287TIP3    H128420   1.742   0.886   0.917  0.5080 -1.7460  0.7970
 2287TIP3    H228421   1.794   0.957   0.795 -1.5483  1.0006  1.4106
 2288TIP3   OH228422   1.738   5.166   7.968 -0.5055  0.7381 -0.2495
 2288TIP3    H128423   1.811   5.109   7.993 -1.5312  0.0594  1.3519
 2288TIP3    H228424   1.701   5.124   7.890  0.2819  0.6276 -0.5767
 2289TIP3   OH228425   3.096   4.716   8.032 -0.1124 -0.0309 -0.3912
 2289TIP3    H128426   3.026   4.689   8.091 -0.6159  1.3473 -0.3337
 2289TIP3    H228427   3.058   4.786   7.979  0.6745 -0.4903 -1.6140
 2290TIP3   OH228428   6.803   0.520   7.983 -0.0599 -0.5168 -0.0023
 2290TIP3    H128429   6.836   0.534   7.894 -0.0317  1.7325  0.3053
 2290TIP3    H228430   6.752   0.598   8.003  1.6223  0.0367  2.6962
 2291TIP3   OH228431   4.471   4.832   7.589  0.4554 -0.1136  0.2986
 2291TIP3    H128432   4.401   4.878   7.544  0.3014 -1.3870 -0.8297
 2291TIP3    H228433   4.551   4.858   7.543  0.4931 -0.1789  0.3267
 2292TIP3   OH228434   2.950   0.475   0.239 -0.4115 -0.7127 -0.0615
 2292TIP3    H128435   2.982   0.398   0.191 -0.2797  0.2641 -1.6320
 2292TIP3    H228436   2.917   0.533   0.170  0.7068  1.2053  0.9464
 2293TIP3   OH228437   2.999   6.029   7.860  0.1660 -0.1560  0.3730
 2293TIP3    H128438   2.982   5.986   7.777  1.1127  0.4628 -0.1551
 2293TIP3    H228439   2.925   6.003   7.916 -0.4185 -0.6673 -0.6104
 2294TIP3   OH228440   6.416   3.840   0.985 -0.0147 -0.2080 -0.2472
 2294TIP3    H128441   6.484   3.897   0.948 -1.1480  0.8707 -0.7519
 2294TIP3    H228442   6.336   3.892   0.980 -1.1785 -1.9544 -1.0034
 2295TIP3   OH228443   2.665   5.864   2.886 -0.3591  0.2196 -0.6021
 2295TIP3    H128444   2.604   5.900   2.950  0.8727  0.3651  0.5580
 2295TIP3    H228445   2.611   5.841   2.811 -2.2109 -1.7049  1.1612
 2296TIP3   OH228446   3.724   4.550   1.967  0.8948 -0.0641  0.3991
 2296TIP3    H128447   3.682   4.613   2.026  0.6035 -0.2005  0.3383
 2296TIP3    H228448   3.764   4.485   2.026 -0.3815 -0.8467  0.4488
 2297TIP3   OH228449   2.035   0.347   8.040 -0.5312 -0.3946  0.4193
 2297TIP3    H128450   2.018   0.442   8.040  1.2053  0.0072 -1.5910
 2297TIP3    H228451   1.949   0.307   8.054 -1.5375  1.4825 -0.0185
 2298TIP3   OH228452   4.572   2.373   8.228  0.1577  0.5352  0.1054
 2298TIP3    H128453   4.536   2.338   8.146  2.9597 -1.5703 -0.3583
 2298TIP3    H228454   4.629   2.445   8.200  0.1617  0.6152  0.3196
 2299TIP3   OH228455   1.732   4.349   2.340 -0.4513  0.0719  0.0687
 2299TIP3    H128456   1.669   4.385   2.403  0.1096 -0.4644  0.9665
 2299TIP3    H228457   1.809   4.326   2.393  0.4197  0.5052 -0.9762
 2300TIP3   OH228458   3.924   0.014   2.786 -0.4245  0.3591  0.2326
 2300TIP3    H128459   3.972  -0.022   2.711 -1.7781 -1.4871  0.1904
 2300TIP3    H228460   3.852   0.064   2.747 -0.7136 -0.0134  0.2788
 2301TIP3   OH228461   3.931   6.103   8.556 -0.4230  0.5703 -0.0314
 2301TIP3    H128462   3.871   6.060   8.495 -1.3637  0.8525  0.6725
 2301TIP3    H228463   3.973   6.172   8.505  0.7311 -0.8150 -1.0422
 2302TIP3   OH228464   3.061   3.534   0.729 -0.6736  0.0853 -0.0319
 2302TIP3    H128465   3.149   3.572   0.732 -0.2662 -0.7565 -0.8531
 2302TIP3    H228466   3.056   3.481   0.809 -0.0076 -0.7527 -0.5294
 2303TIP3   OH228467   4.056   0.853   2.344 -0.2763  0.5379 -0.1427
 2303TIP3    H128468   4.003   0.865   2.265 -1.2458  1.2496  0.6013
 2303TIP3    H228469   4.015   0.909   2.409  2.1297  2.0928  0.1348
 2304TIP3   OH228470   4.111   3.313   0.456 -0.1880  0.2012  0.7079
 2304TIP3    H128471   4.060   3.238   0.486 -1.3392  0.8383  0.4229
 2304TIP3    H228472   4.050   3.387   0.463 -0.1353  0.5934 -1.9607
 2305TIP3   OH228473   1.053   1.113   0.716 -0.4568 -0.1060 -0.2979
 2305TIP3    H128474   1.044   1.183   0.781 -1.5564 -1.2396  0.8372
 2305TIP3    H228475   0.997   1.043   0.749  2.6520 -2.6400  0.0671
 2306TIP3   OH228476   2.674   3.218   1.023  0.1985  0.5660  0.4018
 2306TIP3    H128477   2.606   3.227   1.090 -0.8314 -0.4648 -0.4652
 2306TIP3    H228478   2.626   3.221   0.940  1.2606  0.2279 -0.2400
 2307TIP3   OH228479   6.062   3.838   0.198 -0.7372 -0.5225 -0.0613
 2307TIP3    H128480   6.101   3.910   0.148 -1.8402 -0.3357 -0.6837
 2307TIP3    H228481   5.969   3.841   0.177 -0.8378 -2.0377  0.0356
 2308TIP3   OH228482   3.496   0.447   1.489 -0.2837  0.5225 -0.4009
 2308TIP3    H128483   3.494   0.523   1.431  0.3640  0.2478 -0.7961
 2308TIP3    H228484   3.454   0.478   1.570 -1.8722  0.6821 -1.2592
 2309TIP3   OH228485   0.116   6.154   8.441 -0.5275 -0.1570 -0.0875
 2309TIP3    H128486   0.055   6.106   8.497 -0.4150 -0.1853  0.0112
 2309TIP3    H228487   0.164   6.211   8.501 -2.4467  2.0242 -0.4700
 2310TIP3   OH228488   2.048   3.308   0.004  0.1847  0.7948  0.2298
 2310TIP3    H128489   1.969   3.292  -0.047  1.4782 -0.4931 -1.4913
 2310TIP3    H228490   2.078   3.394  -0.025 -0.0346  0.8389  0.1344
 2311TIP3   OH228491   0.763   3.518   1.429  0.1377 -0.7101  0.0245
 2311TIP3    H128492   0.751   3.600   1.381 -2.3985 -0.7015  0.5640
 2311TIP3    H228493   0.809   3.460   1.368 -0.0384  0.3768 -1.1686
 2312TIP3   OH228494   5.558   1.052   1.442  0.2888  0.3682  0.3016
 2312TIP3    H128495   5.507   1.019   1.516  1.2672  0.2949  0.9622
 2312TIP3    H228496   5.527   1.142   1.430 -0.0841  0.2834  0.6233
 2313TIP3   OH228497   3.082   5.987   8.411  0.1509  0.1227  0.2214
 2313TIP3    H128498   3.160   5.979   8.465 -0.1459 -0.8588  0.5219
 2313TIP3    H228499   3.017   5.931   8.453  0.0522 -1.0523 -1.4112
 2314TIP3   OH228500   0.628   2.724   1.407 -0.1268 -0.4907 -0.2449
 2314TIP3    H128501   0.574   2.745   1.483  1.7478  0.6321  0.8295
 2314TIP3    H228502   0.616   2.800   1.348 -0.2140 -0.5474 -0.3010
 2315TIP3   OH228503   2.143   2.823   8.157 -0.2043  0.5254  0.9334
 2315TIP3    H128504   2.073   2.881   8.188  0.8228  1.3647  1.7559
 2315TIP3    H228505   2.168   2.772   8.234 -0.4499 -0.3636  0.4422
 2316TIP3   OH228506   0.792   1.226   1.764  0.6543  0.3271 -0.0613
 2316TIP3    H128507   0.857   1.176   1.813 -2.0630  0.0020  3.5973
 2316TIP3    H228508   0.813   1.317   1.783  2.0543  0.4088 -1.8174
 2317TIP3   OH228509   5.360   0.362   0.297 -0.1516  0.1266  0.9593
 2317TIP3    H128510   5.422   0.422   0.339 -0.1579  0.7324  0.1443
 2317TIP3    H228511   5.275   0.387   0.331 -0.1182  0.3760  0.8637
 2318TIP3   OH228512   1.742   4.701   1.432  0.5341  0.1249 -0.5439
 2318TIP3    H128513   1.741   4.763   1.505  0.0329 -0.7784  0.2371
 2318TIP3    H228514   1.674   4.637   1.454  0.0502  0.0838 -2.0315
 2319TIP3   OH228515   4.073   1.920   1.909 -0.0054  0.0203  0.1191
 2319TIP3    H128516   4.053   1.977   1.834 -2.7133 -1.9581 -0.8544
 2319TIP3    H228517   4.063   1.976   1.985  1.5525  1.7838 -0.8785
 2320TIP3   OH228518   3.134   2.532   1.590 -0.0738 -0.7052 -0.0553
 2320TIP3    H128519   3.066   2.488   1.641 -1.2229 -0.1334 -1.0323
 2320TIP3    H228520   3.185   2.580   1.654 -1.5248  0.0592  0.5659
 2321TIP3   OH228521   0.094   0.049   8.010 -0.4858 -0.5521 -0.4722
 2321TIP3    H128522   0.119   0.017   7.923  0.8811  0.1994 -0.3998
 2321TIP3    H228523   0.026   0.114   7.992 -0.7417 -0.9302 -0.9112
 2322TIP3   OH228524   3.569   4.582   7.674  0.0067 -0.1256 -0.2960
 2322TIP3    H128525   3.607   4.497   7.697 -1.3770 -0.7311 -0.1611
 2322TIP3    H228526   3.615   4.608   7.594  0.9256 -0.6656  0.0361
 2323TIP3   OH228527   5.631   3.954   0.266 -0.6489 -0.2286 -0.6040
 2323TIP3    H128528   5.692   3.990   0.201  0.1073  1.9906  1.2279
 2323TIP3    H228529   5.686   3.930   0.340 -1.6569 -1.3626 -0.2020
 2324TIP3   OH228530   2.329   2.659   0.739  0.1304  0.1458  0.2687
 2324TIP3    H128531   2.373   2.575   0.747  1.0225  0.7638  2.4189
 2324TIP3    H228532   2.236   2.639   0.750  0.4207 -0.4741  1.9010
 2325TIP3   OH228533   6.816   1.580   0.979  0.1051  0.0051 -0.7364
 2325TIP3    H128534   6.838   1.489   1.002  2.2026  0.3185 -1.2521
 2325TIP3    H228535   6.725   1.577   0.950  0.4149 -2.1164 -1.6619
 2326TIP3   OH228536   5.655   6.049   1.717 -0.3326 -0.5075 -0.0014
 2326TIP3    H128537   5.679   5.960   1.692 -0.9208 -0.0816 -2.3117
 2326TIP3    H228538   5.737   6.088   1.747  0.7682 -0.7410 -2.5070
 2327TIP3   OH228539   2.487   2.795   0.512 -0.4312  0.8794 -0.5788
 2327TIP3    H128540   2.471   2.767   0.422 -1.4277  1.9998 -0.7709
 2327TIP3    H228541   2.442   2.729   0.565 -0.8683  0.8778 -0.9435
 2328TIP3   OH228542   1.336   3.711   0.251 -0.0769  0.5080 -0.2429
 2328TIP3    H128543   1.302   3.623   0.270 -0.6172  0.7705  0.0326
 2328TIP3    H228544   1.414   3.719   0.307 -1.5091  1.1766  1.7970
 2329TIP3   OH228545   1.604   0.497   1.887  0.3660  0.6766 -0.1223
 2329TIP3    H128546   1.552   0.577   1.890  2.1233  1.8626 -0.1851
 2329TIP3    H228547   1.682   0.517   1.939  0.1786 -1.5074  1.1029
 2330TIP3   OH228548   3.157   2.155   1.256 -0.3717  0.6094  0.5523
 2330TIP3    H128549   3.223   2.161   1.187 -0.9804 -1.4052 -0.2794
 2330TIP3    H228550   3.202   2.189   1.334 -0.0668  4.1352 -0.9634
 2331TIP3   OH228551   1.658   0.291   0.426  0.5910  0.1413  0.4116
 2331TIP3    H128552   1.597   0.234   0.472  1.0516  0.0966  0.9794
 2331TIP3    H228553   1.689   0.352   0.493  0.9902  0.3124  0.0761
 2332TIP3   OH228554   3.198   3.290   7.445  0.1705 -1.4115  0.0814
 2332TIP3    H128555   3.232   3.340   7.371  0.2692  1.7528  2.0948
 2332TIP3    H228556   3.273   3.275   7.502 -0.4941 -0.6006  1.2163
 2333TIP3   OH228557   5.371   4.856   1.140 -0.1026  0.1442 -0.3402
 2333TIP3    H128558   5.347   4.786   1.079  0.6543 -1.4841  1.1393
 2333TIP3    H228559   5.464   4.871   1.124 -0.5184  1.7927 -1.5308
 2334TIP3   OH228560   2.363   2.147   1.173  0.1895 -0.3219  0.3303
 2334TIP3    H128561   2.346   2.118   1.083 -0.4486  1.5468 -0.2055
 2334TIP3    H228562   2.398   2.070   1.217 -0.9211 -1.7230 -1.1072
 2335TIP3   OH228563   0.092   3.219   0.702  0.4712 -0.1600 -0.6622
 2335TIP3    H128564   0.103   3.313   0.716 -0.3364 -0.2192  0.5141
 2335TIP3    H228565   0.102   3.208   0.607  1.2912  0.9954 -0.7312
 2336TIP3   OH228566   4.596   3.655   0.942 -0.2902  0.0996 -0.0982
 2336TIP3    H128567   4.665   3.668   0.876 -1.6178  1.0709 -1.3674
 2336TIP3    H228568   4.532   3.599   0.899 -1.5880  1.4412  0.0240
 2337TIP3   OH228569   6.569   1.531   8.481  0.0246 -0.1179  0.7435
 2337TIP3    H128570   6.535   1.454   8.526  0.7625 -0.4182  0.7992
 2337TIP3    H228571   6.496   1.593   8.481 -0.6849 -0.9239  0.4234
 2338TIP3   OH228572   2.944   5.039   8.023  0.0824  0.3790 -0.1910
 2338TIP3    H128573   2.857   5.002   8.004 -0.6688  0.5728  2.5162
 2338TIP3    H228574   2.926   5.128   8.055  1.3433  0.6819 -0.2650
 2339TIP3   OH228575   0.443   3.528   1.034  0.0462 -0.3915  0.6537
 2339TIP3    H128576   0.484   3.450   1.072  1.1142 -0.1853 -0.0411
 2339TIP3    H228577   0.429   3.505   0.942  2.2456  0.9087 -0.0782
 2340TIP3   OH228578   2.477   5.715   0.100  0.2090 -0.3656 -0.1879
 2340TIP3    H128579   2.517   5.727   0.014  0.1448 -0.1090 -0.1825
 2340TIP3    H228580   2.455   5.803   0.129  0.2216 -0.4520  0.0885
 2341TIP3   OH228581   0.291   6.202   0.118 -0.0841 -0.5596  0.1845
 2341TIP3    H128582   0.375   6.245   0.104 -0.4864  0.5993  1.1835
 2341TIP3    H228583   0.315   6.111   0.137  0.9900 -0.1650  0.8768
 2342TIP3   OH228584   6.808   5.206   1.540 -0.5620 -0.3303 -0.0745
 2342TIP3    H128585   6.808   5.183   1.633 -1.9991  0.0676  0.0556
 2342TIP3    H228586   6.801   5.122   1.494  0.3911 -0.5449  0.1470
 2343TIP3   OH228587   6.158   2.418   1.168 -0.4313  0.3972  0.0211
 2343TIP3    H128588   6.071   2.429   1.132 -0.9947  1.1123  1.5117
 2343TIP3    H228589   6.173   2.323   1.168 -0.7440  0.3423 -1.2610
 2344TIP3   OH228590   6.394   5.219   2.558  0.1082  0.7961  0.2390
 2344TIP3    H128591   6.350   5.143   2.520  0.3663  0.9258 -0.3331
 2344TIP3    H228592   6.444   5.184   2.632 -0.3355  0.5280  0.4181
 2345TIP3   OH228593   2.996   0.933   2.796  0.2397  0.1335 -0.5806
 2345TIP3    H128594   2.927   0.892   2.848 -0.0545 -0.3445 -1.3239
 2345TIP3    H228595   3.032   1.001   2.853  0.0483 -0.4866  0.3061
 2346TIP3   OH228596   3.744   3.344   8.745  0.0138 -0.2171  0.0597
 2346TIP3    H128597   3.769   3.415   8.804 -2.1314 -0.2428  1.1271
 2346TIP3    H228598   3.678   3.383   8.687  0.4892 -0.7664 -0.8707
 2347TIP3   OH228599   4.463   1.886   3.330 -0.4489  0.0190  0.2171
 2347TIP3    H128600   4.555   1.902   3.310 -0.2052 -0.3390  1.0144
 2347TIP3    H228601   4.419   1.968   3.306 -0.2082 -0.4025 -1.8153
 2348TIP3   OH228602   1.935   6.731   0.400 -0.0200  0.3720 -0.6369
 2348TIP3    H128603   1.875   6.677   0.452 -0.0008 -0.0729 -1.0726
 2348TIP3    H228604   1.945   6.812   0.451  0.2606 -0.1914  0.2165
 2349TIP3   OH228605   2.191   6.334   1.873  0.0124  0.9024  0.3414
 2349TIP3    H128606   2.215   6.383   1.794  0.0582  0.5284  0.1235
 2349TIP3    H228607   2.205   6.396   1.944 -0.2076  1.3073  0.0402
 2350TIP3   OH228608   3.240   0.057   2.506  0.0836 -0.2843  0.1530
 2350TIP3    H128609   3.300  -0.000   2.555  1.5549  1.2286  0.2083
 2350TIP3    H228610   3.296   0.128   2.474 -1.7712  1.4144  0.5433
 2351TIP3   OH228611   3.957   0.367   0.643 -0.1879 -1.0006  0.6486
 2351TIP3    H128612   4.027   0.302   0.633 -0.1370 -1.0573  1.3272
 2351TIP3    H228613   3.900   0.331   0.710 -0.2959 -0.4613  0.8551
 2352TIP3   OH228614   3.925   5.279   7.566  0.6240 -0.4048 -0.1596
 2352TIP3    H128615   3.877   5.204   7.530 -0.7882  1.0618 -1.4811
 2352TIP3    H228616   4.011   5.275   7.524 -0.3487  0.1829 -2.3783
 2353TIP3   OH228617   4.212   0.922   8.701  0.6822  0.0406 -0.0987
 2353TIP3    H128618   4.132   0.902   8.748  1.1719  0.1669  0.8179
 2353TIP3    H228619   4.186   0.928   8.609  0.0640 -2.2831 -0.1300
 2354TIP3   OH228620   5.844   5.712   3.314 -0.2570  0.8901 -0.0579
 2354TIP3    H128621   5.869   5.787   3.368  1.3799  0.6724 -0.4526
 2354TIP3    H228622   5.871   5.636   3.366 -1.9720  0.5341  0.3740
 2355TIP3   OH228623   6.297   0.217   7.802 -0.7115  0.3422  0.2445
 2355TIP3    H128624   6.228   0.152   7.790  0.1000 -0.4639 -0.2650
 2355TIP3    H228625   6.326   0.238   7.713  1.8996 -1.8344  0.4316
 2356TIP3   OH228626   5.001   0.939   0.160 -0.4767  0.6457  0.1977
 2356TIP3    H128627   4.914   0.978   0.151 -0.7003  0.1181  0.0105
 2356TIP3    H228628   4.999   0.894   0.244  0.4740  2.7332  1.4049
 2357TIP3   OH228629   6.809   0.259   7.899  0.3902  0.2128  0.6991
 2357TIP3    H128630   6.736   0.301   7.854  0.9517 -0.4012 -0.8458
 2357TIP3    H228631   6.840   0.325   7.961 -1.8346  0.2716  1.8331
 2358TIP3   OH228632   2.584   1.460   3.304 -0.5588 -0.2475 -0.0950
 2358TIP3    H128633   2.534   1.538   3.327  1.1703  0.8469  0.1252
 2358TIP3    H228634   2.672   1.476   3.340  0.1186 -1.8532 -0.9208
 2359TIP3   OH228635   4.758   6.340   7.910 -0.6633 -0.4372 -0.3979
 2359TIP3    H128636   4.832   6.281   7.919  0.3125  0.6183 -1.1557
 2359TIP3    H228637   4.751   6.384   7.995 -0.2928 -0.4057 -0.3829
 2360TIP3   OH228638   0.393   2.368   1.081 -0.0751 -0.6902  0.0879
 2360TIP3    H128639   0.329   2.332   1.143  0.3516 -0.2890  0.7717
 2360TIP3    H228640   0.458   2.411   1.136  1.3894 -2.0213 -0.5112
 2361TIP3   OH228641   5.450   6.630   0.775 -0.2867 -0.1921  0.0635
 2361TIP3    H128642   5.508   6.663   0.706  0.0730 -0.8276  0.0481
 2361TIP3    H228643   5.509   6.584   0.835 -0.6701 -0.1103  0.5053
 2362TIP3   OH228644   2.813   6.135   1.408  0.0120  0.4133  0.1824
 2362TIP3    H128645   2.900   6.108   1.382  0.2219 -1.2845  2.3276
 2362TIP3    H228646   2.755   6.099   1.341  0.7689 -0.5542  0.0347
 2363TIP3   OH228647   1.544   1.204   8.130 -0.1120 -0.2257  0.3572
 2363TIP3    H128648   1.482   1.243   8.191  0.2106 -1.0047  1.2133
 2363TIP3    H228649   1.541   1.260   8.052  0.1635  1.3609  1.4387
 2364TIP3   OH228650   5.371   6.297   8.374 -0.0536  0.4765  0.2433
 2364TIP3    H128651   5.307   6.273   8.307 -0.1707  0.6990  0.2728
 2364TIP3    H228652   5.320   6.348   8.438 -0.0770 -0.2504  0.8136
 2365TIP3   OH228653   1.812   5.888   8.215 -0.0111  0.1915  0.6211
 2365TIP3    H128654   1.756   5.896   8.138 -0.1367  1.1412  0.7979
 2365TIP3    H228655   1.873   5.963   8.207 -0.1974  0.4479  1.5775
 2366TIP3   OH228656   0.036   2.076   2.678 -0.1566 -0.0667 -0.1092
 2366TIP3    H128657  -0.016   2.143   2.723 -1.5066 -0.7254 -0.6424
 2366TIP3    H228658   0.124   2.087   2.714 -0.4525  1.6411  0.2087
 2367TIP3   OH228659   0.497   5.473   0.216 -0.1746 -0.1453 -0.7589
 2367TIP3    H128660   0.562   5.403   0.224  0.2005  0.1927 -0.8070
 2367TIP3    H228661   0.506   5.523   0.297 -0.2497  0.0063 -0.8430
 2368TIP3   OH228662   0.178   4.586   1.326 -0.1139 -0.1417 -0.1527
 2368TIP3    H128663   0.178   4.642   1.248 -0.1722 -0.3549 -0.3070
 2368TIP3    H228664   0.085   4.571   1.345 -0.1333 -2.4444 -1.7544
 2369TIP3   OH228665   6.700   6.610   1.786 -0.1042  0.1880 -0.3884
 2369TIP3    H128666   6.730   6.560   1.862 -0.4856  0.7790  0.1706
 2369TIP3    H228667   6.760   6.684   1.780  1.4455 -1.1297 -2.1850
 2370TIP3   OH228668   4.840   0.475   0.475  0.4111  0.0625  0.5791
 2370TIP3    H128669   4.861   0.383   0.489  1.5785  0.0769 -0.8856
 2370TIP3    H228670   4.745   0.476   0.462  0.5254 -1.1001 -0.5396
 2371TIP3   OH228671   5.739   6.586   0.857 -0.5295  0.1653  0.1501
 2371TIP3    H128672   5.717   6.561   0.946 -0.0699  0.8915  0.4855
 2371TIP3    H228673   5.832   6.565   0.849 -0.9032 -1.2612 -0.6582
 2372TIP3   OH228674   3.313   0.254   8.571 -0.8537  0.2013 -0.2607
 2372TIP3    H128675   3.392   0.307   8.560  0.6945 -1.8035  0.3979
 2372TIP3    H228676   3.314   0.195   8.495 -1.4518 -0.1615  0.0114
 2373TIP3   OH228677   4.736   1.497   8.081 -0.0399  0.5045  0.3096
 2373TIP3    H128678   4.823   1.505   8.120  0.5588 -1.9608 -0.3240
 2373TIP3    H228679   4.749   1.521   7.989 -0.5758  2.3747  0.6873
 2374TIP3   OH228680   5.377   4.304   1.606  0.1818  0.7347  0.0064
 2374TIP3    H128681   5.338   4.224   1.570  1.9532  0.0193 -0.4702
 2374TIP3    H228682   5.451   4.322   1.547 -0.3076  2.8530 -0.0037
 2375TIP3   OH228683   5.805   1.128   0.987 -0.1867  0.4961 -0.3171
 2375TIP3    H128684   5.830   1.048   1.032  1.0526  0.4650 -1.0241
 2375TIP3    H228685   5.806   1.195   1.055  0.4453  0.2169 -0.0431
 2376TIP3   OH228686   4.814   4.023   8.106 -0.2651  0.0033 -0.3591
 2376TIP3    H128687   4.777   3.935   8.113 -0.6649 -0.0130 -2.1191
 2376TIP3    H228688   4.746   4.081   8.141 -0.1790 -0.3513  0.3989
 2377TIP3   OH228689   1.100   0.283   0.804 -0.0649 -0.7027  0.6396
 2377TIP3    H128690   1.048   0.341   0.749 -0.6327  0.0420  1.9172
 2377TIP3    H228691   1.070   0.195   0.781 -2.4588 -0.2908  1.7827
 2378TIP3   OH228692   6.058   0.915   7.299 -0.6520  0.6736  0.3957
 2378TIP3    H128693   6.092   0.841   7.349 -2.3083 -0.0709  0.4675
 2378TIP3    H228694   6.097   0.992   7.341  1.3067 -0.1177  0.1588
 2379TIP3   OH228695   6.792   6.274   2.384 -0.0873 -0.1166  0.2665
 2379TIP3    H128696   6.758   6.284   2.473 -0.4094  0.2202  0.1141
 2379TIP3    H228697   6.771   6.184   2.360  0.6465 -0.4237  0.7912
 2380TIP3   OH228698   3.505   5.969   1.527 -0.2054 -0.0371  0.2090
 2380TIP3    H128699   3.566   6.028   1.484 -1.0089  1.3142  0.8647
 2380TIP3    H228700   3.519   5.984   1.620 -2.7896  1.7472  0.4182
 2381TIP3   OH228701   3.446   3.390   1.888 -0.4487  0.1416 -0.4138
 2381TIP3    H128702   3.412   3.407   1.976  2.4659 -0.0908  0.8747
 2381TIP3    H228703   3.460   3.477   1.850 -0.3447  0.2832 -0.0536
 2382TIP3   OH228704   1.976   5.727   2.636  0.0040  0.3006  0.5135
 2382TIP3    H128705   1.958   5.655   2.575  1.0842 -0.1252  0.6759
 2382TIP3    H228706   2.060   5.762   2.608 -0.2377  1.1408  0.7947
 2383TIP3   OH228707   2.462   2.052   6.952 -0.6345 -0.3266  0.1590
 2383TIP3    H128708   2.473   2.005   7.034 -1.6128 -0.4616  0.2171
 2383TIP3    H228709   2.531   2.017   6.895 -2.0179 -2.7075 -0.1808
 2384TIP3   OH228710   0.570   6.776   1.990 -0.7138 -0.0082 -0.2004
 2384TIP3    H128711   0.555   6.705   1.928  3.0661 -2.1417  0.9766
 2384TIP3    H228712   0.634   6.833   1.947 -0.9239  0.6102  0.2899
 2385TIP3   OH228713   3.929   3.438   8.420 -0.0062  0.2730 -0.2782
 2385TIP3    H128714   3.961   3.512   8.471  0.3176 -0.3327  0.4100
 2385TIP3    H228715   4.003   3.378   8.412 -0.0824  0.2934 -1.3665
 2386TIP3   OH228716   1.843   4.085   0.195 -0.7520 -0.1839  0.4240
 2386TIP3    H128717   1.879   4.105   0.108  0.4854  0.5556  1.0847
 2386TIP3    H228718   1.757   4.047   0.176 -0.4647 -0.1593 -1.1302
 2387TIP3   OH228719   4.695   2.902   2.554  0.2977 -0.0093 -0.0235
 2387TIP3    H128720   4.615   2.862   2.520  0.4863 -0.1687 -0.2806
 2387TIP3    H228721   4.698   2.876   2.646  1.2558 -1.9628 -0.5512
 2388TIP3   OH228722   2.431   1.127   0.777 -0.3393 -0.0000  0.0655
 2388TIP3    H128723   2.415   1.147   0.684  1.9694  2.8102  0.1308
 2388TIP3    H228724   2.351   1.152   0.821 -0.8751  0.2224 -0.9989
 2389TIP3   OH228725   0.499   2.670   7.806  0.2766 -0.2019 -0.1496
 2389TIP3    H128726   0.493   2.722   7.726 -1.3357 -0.8247 -0.4713
 2389TIP3    H228727   0.490   2.580   7.777 -1.4646 -0.3767  0.8037
 2390TIP3   OH228728   5.045   4.840   1.002  0.5129  0.0903  0.2976
 2390TIP3    H128729   5.045   4.909   1.069  2.0958  1.6709 -1.2313
 2390TIP3    H228730   4.953   4.814   0.996  0.2622  0.1232  2.8118
 2391TIP3   OH228731   4.713   2.312   7.798 -0.2460  0.7186 -0.0198
 2391TIP3    H128732   4.715   2.286   7.707 -2.7407 -0.8975  0.3062
 2391TIP3    H228733   4.701   2.407   7.796  2.0019  1.0357 -1.2873
 2392TIP3   OH228734   1.803   1.277   1.182  0.1889 -0.0488  0.0522
 2392TIP3    H128735   1.822   1.297   1.091 -0.5400  3.2445  0.5147
 2392TIP3    H228736   1.707   1.275   1.187  0.2183 -0.0058  0.7683
 2393TIP3   OH228737   3.018   2.830   1.971 -0.4764  0.1505 -0.6861
 2393TIP3    H128738   2.965   2.751   1.974  0.5468 -0.5936 -1.4819
 2393TIP3    H228739   2.994   2.872   1.889  1.2157 -0.9765 -1.7987
 2394TIP3   OH228740   3.783   3.017   0.870  0.5657  0.1807  0.1071
 2394TIP3    H128741   3.736   3.094   0.901  2.1292  1.1941  0.0828
 2394TIP3    H228742   3.826   2.982   0.948 -0.8236 -1.2300  0.2947
 2395TIP3   OH228743   4.341   3.453   7.890  0.0697 -0.4865  0.3932
 2395TIP3    H128744   4.255   3.432   7.855  1.2948 -2.1855 -1.8458
 2395TIP3    H228745   4.349   3.548   7.877 -1.1388 -0.4285 -0.0729
 2396TIP3   OH228746   2.035   3.203   2.283  0.4070 -0.2969  0.8886
 2396TIP3    H128747   2.076   3.158   2.357  0.5621 -0.4105  0.7337
 2396TIP3    H228748   2.077   3.166   2.206  0.6285  0.2051  0.7654
 2397TIP3   OH228749   5.424   0.110   0.278  0.5303  0.0299 -0.3831
 2397TIP3    H128750   5.370   0.188   0.265 -0.3655 -0.6642 -1.0473
 2397TIP3    H228751   5.369   0.052   0.330  0.5387 -0.7740 -1.2365
 2398TIP3   OH228752   1.453   6.796   2.389  0.2208 -0.0839 -0.1651
 2398TIP3    H128753   1.501   6.836   2.316  1.7113  1.2960  1.4746
 2398TIP3    H228754   1.411   6.870   2.433 -0.8997 -0.9315  0.2207
 2399TIP3   OH228755   5.781   0.110   3.107  0.0411  0.2916 -0.3479
 2399TIP3    H128756   5.785   0.032   3.052  0.3235 -0.4184  0.6397
 2399TIP3    H228757   5.840   0.173   3.066  0.8013 -0.4822 -0.4665
 2400TIP3   OH228758   3.883   3.867   0.819 -0.4645  0.0093  0.8625
 2400TIP3    H128759   3.978   3.862   0.813 -0.5080 -1.4807  1.2343
 2400TIP3    H228760   3.853   3.777   0.821 -1.9102  0.4498  0.6322
 2401TIP3   OH228761   3.142   1.221   7.787  0.1843 -0.2356  0.0271
 2401TIP3    H128762   3.057   1.178   7.795 -0.3469  1.0145  1.6483
 2401TIP3    H228763   3.123   1.303   7.741  0.4171  0.2536  0.7888
 2402TIP3   OH228764   0.598   1.456   2.871  0.3758  0.2640  0.2234
 2402TIP3    H128765   0.622   1.540   2.833 -1.4386  0.5746 -0.3161
 2402TIP3    H228766   0.679   1.404   2.866  1.0982  1.4244 -0.9194
 2403TIP3   OH228767   2.807   0.123   2.523 -0.2589 -0.2654  0.3750
 2403TIP3    H128768   2.799   0.127   2.619 -1.0005  0.2913  0.3005
 2403TIP3    H228769   2.865   0.195   2.501  0.8129 -1.0726  0.4845
 2404TIP3   OH228770   0.293   3.473   8.033 -0.1046 -0.8113 -0.3771
 2404TIP3    H128771   0.289   3.519   8.117 -1.4580 -2.5622  0.5849
 2404TIP3    H228772   0.381   3.438   8.029  0.2052 -0.0946 -0.0433
 2405TIP3   OH228773   1.045   2.209   8.397  0.4998  0.0399 -0.5046
 2405TIP3    H128774   0.964   2.168   8.369 -0.7359  1.7347  0.4423
 2405TIP3    H228775   1.071   2.266   8.324 -0.1254  0.8129 -0.1375
 2406TIP3   OH228776   6.287   4.380   1.351 -0.4607  0.3831  0.4253
 2406TIP3    H128777   6.333   4.335   1.422 -0.4678 -0.8908 -0.3455
 2406TIP3    H228778   6.348   4.450   1.324  0.0095  0.1862  0.9506
 2407TIP3   OH228779   6.331   5.709   7.616  0.3225  0.0316  0.0231
 2407TIP3    H128780   6.320   5.717   7.521 -3.0624 -1.7052  0.0956
 2407TIP3    H228781   6.287   5.786   7.652  1.0550  0.3615  0.2441
 2408TIP3   OH228782   3.268   1.700   0.605 -0.4013 -0.7175 -0.1711
 2408TIP3    H128783   3.287   1.609   0.630  0.8138 -0.6455 -0.7913
 2408TIP3    H228784   3.287   1.751   0.684  0.1155 -0.8680 -0.1936
 2409TIP3   OH228785   1.050   2.355   2.969  0.1654 -0.5694 -0.3172
 2409TIP3    H128786   1.122   2.415   2.993 -0.6886  0.2560  0.2524
 2409TIP3    H228787   1.016   2.324   3.052 -1.7705  1.0437 -0.4152
 2410TIP3   OH228788   5.518   1.021   8.384  0.1920  0.0756  0.3303
 2410TIP3    H128789   5.498   1.003   8.476  2.9084 -1.7205  0.6973
 2410TIP3    H228790   5.545   0.937   8.348  0.1913  0.9358 -1.8573
 2411TIP3   OH228791   3.438   5.695   2.444 -0.1390  0.7075  0.3114
 2411TIP3    H128792   3.452   5.668   2.353 -0.9819 -1.2927  0.7188
 2411TIP3    H228793   3.526   5.712   2.477  0.1688  1.6035 -0.8969
 2412TIP3   OH228794   2.092   4.658   0.031 -0.0488  0.9053  0.3984
 2412TIP3    H128795   2.109   4.676   0.123 -1.1456  1.4455  0.5009
 2412TIP3    H228796   2.060   4.567   0.029  0.7177  0.6248  0.4462
 2413TIP3   OH228797   4.383   1.253   0.143  0.4766  0.1981  0.1681
 2413TIP3    H128798   4.391   1.339   0.186 -0.0028  0.8725 -1.0550
 2413TIP3    H228799   4.313   1.265   0.080  0.6008 -1.0319 -0.2128
 2414TIP3   OH228800   6.807   1.830   2.735  0.7313  0.2489 -0.1793
 2414TIP3    H128801   6.849   1.913   2.756 -0.9234  1.5090 -1.4985
 2414TIP3    H228802   6.770   1.844   2.647 -1.5702 -1.0294  0.4908
 2415TIP3   OH228803   6.531   3.968   8.626 -0.0709 -0.7182  0.1695
 2415TIP3    H128804   6.615   3.945   8.664  0.1576 -0.1104  0.0349
 2415TIP3    H228805   6.469   3.906   8.665  0.3204 -0.7201  0.7935
 2416TIP3   OH228806   6.172   4.284   7.935 -0.7297 -0.0921 -0.0325
 2416TIP3    H128807   6.243   4.220   7.925 -0.7380 -0.2070  0.6188
 2416TIP3    H228808   6.093   4.231   7.937 -0.9518  0.1052 -1.8659
 2417TIP3   OH228809   4.987   5.116   1.286  0.0379  0.8731 -0.8049
 2417TIP3    H128810   5.028   5.151   1.365  2.0201 -0.1652 -1.3214
 2417TIP3    H228811   5.059   5.079   1.235 -1.4073 -0.0243 -2.3099
 2418TIP3   OH228812   4.220   1.012   0.281  0.5308 -0.0089 -0.0315
 2418TIP3    H128813   4.175   1.070   0.220 -1.0814 -0.1920  0.9136
 2418TIP3    H228814   4.163   0.935   0.288  1.0373 -0.3057  1.1297
 2419TIP3   OH228815   0.923   3.273   0.981  0.6860 -0.5261 -0.4280
 2419TIP3    H128816   1.002   3.220   0.971 -0.4427 -2.1164 -1.3506
 2419TIP3    H228817   0.850   3.212   0.968 -0.7233  0.8830  0.3661
 2420TIP3   OH228818   1.637   4.795   1.673  0.1067 -0.7135  0.2712
 2420TIP3    H128819   1.555   4.843   1.664  0.7438  0.7342  1.6968
 2420TIP3    H228820   1.616   4.723   1.732 -0.6804 -1.8169 -1.2986
 2421TIP3   OH228821   5.189   5.072   1.104  0.2024  0.3563 -0.5679
 2421TIP3    H128822   5.244   4.994   1.105  0.3862  0.4864 -0.1961
 2421TIP3    H228823   5.219   5.122   1.028  1.7429  1.2162  0.5311
 2422TIP3   OH228824   0.400   4.671   7.730 -0.0857  0.3047  0.1485
 2422TIP3    H128825   0.393   4.745   7.791  1.1665 -0.1449  0.8823
 2422TIP3    H228826   0.429   4.598   7.784  2.2280  0.1637 -1.1348
 2423TIP3   OH228827   5.101   0.129   0.426  0.5859 -0.5531 -0.5644
 2423TIP3    H128828   5.110   0.034   0.423 -0.5778 -0.7372  0.7437
 2423TIP3    H228829   5.173   0.159   0.482 -0.1546 -0.8725  0.5845
 2424TIP3   OH228830   1.581   0.917   0.332 -0.3867 -0.3786  0.4976
 2424TIP3    H128831   1.608   0.991   0.386 -0.6834  0.3099 -0.2746
 2424TIP3    H228832   1.569   0.845   0.394  0.1789  0.1400  1.2223
 2425TIP3   OH228833   5.835   0.460   7.476  0.2194 -0.1427  0.0554
 2425TIP3    H128834   5.790   0.397   7.419  1.4605 -0.6419 -0.4147
 2425TIP3    H228835   5.772   0.532   7.486 -2.3355 -2.5034  2.7185
 2426TIP3   OH228836   6.114   2.654   2.506  0.2761 -0.6316  0.2009
 2426TIP3    H128837   6.149   2.739   2.532 -0.3699 -1.0220  2.6811
 2426TIP3    H228838   6.180   2.618   2.447  1.5132  0.7960  0.6376
 2427TIP3   OH228839   4.759   2.717   7.549  0.3298 -0.2320 -0.0104
 2427TIP3    H128840   4.832   2.676   7.502 -0.1000 -0.7905 -0.1976
 2427TIP3    H228841   4.683   2.662   7.529 -0.1417  0.3291  0.2021
 2428TIP3   OH228842   4.546   5.325   0.493  0.0194 -0.6612 -0.2006
 2428TIP3    H128843   4.494   5.253   0.529 -1.3861  1.2188  1.7778
 2428TIP3    H228844   4.482   5.380   0.448 -0.0852  2.1195  2.9408
 2429TIP3   OH228845   5.581   6.731   7.575 -0.0598 -0.0510 -0.5000
 2429TIP3    H128846   5.653   6.763   7.521  0.8485 -1.3689 -0.1210
 2429TIP3    H228847   5.511   6.711   7.513  0.5841 -0.5369 -1.0864
 2430TIP3   OH228848   4.148   1.210   7.057 -0.2682  0.3133  0.0332
 2430TIP3    H128849   4.063   1.238   7.092 -1.5277  1.2660 -3.3526
 2430TIP3    H228850   4.192   1.292   7.035 -0.1666 -0.1671 -1.7233
 2431TIP3   OH228851   3.445   3.950   1.633  0.2899  0.2650 -0.4240
 2431TIP3    H128852   3.359   3.991   1.639  1.0123  1.6360  1.1901
 2431TIP3    H228853   3.492   4.003   1.569  1.4827  2.6165  2.2230
 2432TIP3   OH228854   3.841   3.030   8.385 -0.0526 -0.0103  0.2228
 2432TIP3    H128855   3.770   2.969   8.366  0.7203 -0.8255 -0.0829
 2432TIP3    H228856   3.920   2.985   8.357  0.4596  1.4955 -0.9328
 2433TIP3   OH228857   1.817   5.486   1.965 -0.1283 -0.9751  0.2979
 2433TIP3    H128858   1.816   5.530   2.050  2.1268 -1.2368  0.5332
 2433TIP3    H228859   1.798   5.556   1.902 -0.5052 -0.4972  0.9286
 2434TIP3   OH228860   6.266   3.606   2.554 -0.3476 -0.2294 -0.1152
 2434TIP3    H128861   6.246   3.523   2.598  0.1628 -0.5802 -0.5260
 2434TIP3    H228862   6.221   3.600   2.470 -3.0448  1.3053  1.1093
 2435TIP3   OH228863   6.715   3.128   2.439 -0.5393  0.3154 -0.4299
 2435TIP3    H128864   6.696   3.034   2.447 -0.3033  0.2346 -0.7667
 2435TIP3    H228865   6.690   3.150   2.349 -0.1324  0.4610 -0.5118
 2436TIP3   OH228866   4.195   1.301   8.730  0.0225  0.4250  0.1064
 2436TIP3    H128867   4.231   1.293   8.641  0.8172  2.0554  0.2523
 2436TIP3    H228868   4.100   1.296   8.718  0.0602  1.7227 -0.9988
 2437TIP3   OH228869   2.680   2.988   0.640 -0.2377 -0.0008 -0.4965
 2437TIP3    H128870   2.771   2.964   0.623 -0.6631 -0.7206 -1.9515
 2437TIP3    H228871   2.629   2.914   0.608 -1.3122 -0.4683  2.0390
 2438TIP3   OH228872   1.437   4.028   1.662  0.0135  0.5643 -0.2110
 2438TIP3    H128873   1.417   3.942   1.626  0.9442  0.5778 -0.7946
 2438TIP3    H228874   1.367   4.044   1.726  0.1573 -0.8694  0.3427
 2439TIP3   OH228875   2.158   2.867   8.654  0.0289 -0.0648  0.3799
 2439TIP3    H128876   2.149   2.958   8.681 -0.3056  0.4137 -1.2292
 2439TIP3    H228877   2.160   2.817   8.736 -4.9421  0.8793  1.4161
 2440TIP3   OH228878   5.551   1.552   1.060  0.4010 -0.1188 -0.1720
 2440TIP3    H128879   5.472   1.502   1.037  0.3622 -0.6042  0.9815
 2440TIP3    H228880   5.622   1.506   1.016  0.1625 -0.2145 -0.4630
 2441TIP3   OH228881   4.606   6.434   2.552  0.1354  0.6571  0.4702
 2441TIP3    H128882   4.603   6.522   2.590 -1.5346  0.5967  0.5700
 2441TIP3    H228883   4.552   6.441   2.473 -1.8136 -0.7475  1.5992
 2442TIP3   OH228884   0.761   5.278   7.320  0.5507 -0.1323 -0.2094
 2442TIP3    H128885   0.737   5.210   7.384 -1.7158  1.0444  0.2884
 2442TIP3    H228886   0.854   5.293   7.335  0.5884 -1.5238  1.2145
 2443TIP3   OH228887   2.834   0.355   7.797 -0.1053 -0.1674  0.3095
 2443TIP3    H128888   2.853   0.376   7.706 -1.5207 -1.2580 -0.2740
 2443TIP3    H228889   2.753   0.402   7.817  0.8329  1.0388  1.4070
 2444TIP3   OH228890   0.486   1.534   0.673  0.2424 -0.5272 -0.5846
 2444TIP3    H128891   0.557   1.597   0.660  0.4670 -0.5749  0.3221
 2444TIP3    H228892   0.529   1.450   0.682 -0.0997 -0.9312 -2.4053
 2445TIP3   OH228893   6.200   6.698   1.366 -0.2085  0.0015 -0.8678
 2445TIP3    H128894   6.277   6.699   1.424 -0.8699  1.0242  0.0219
 2445TIP3    H228895   6.129   6.666   1.421 -0.4718 -0.7530 -1.6375
 2446TIP3   OH228896   4.945   5.077   8.031 -0.7099  0.2342  0.1313
 2446TIP3    H128897   4.970   5.161   7.994  0.0071  0.0911  0.2779
 2446TIP3    H228898   4.932   5.020   7.955 -0.3870  0.2593  0.0540
 2447TIP3   OH228899   6.380   2.818   8.569 -0.0611  0.3707  1.0204
 2447TIP3    H128900   6.463   2.775   8.590  0.9803  0.6718 -2.0262
 2447TIP3    H228901   6.367   2.881   8.639  2.5248  0.6098  1.3658
 2448TIP3   OH228902   5.917   1.024   8.401  0.0463 -0.1497  0.2509
 2448TIP3    H128903   5.882   1.033   8.490  1.1582  2.9462  0.4761
 2448TIP3    H228904   5.845   1.050   8.344 -0.0825 -0.3352  0.3259
 2449TIP3   OH228905   4.233   0.368   7.366  0.6515  0.2026  0.1350
 2449TIP3    H128906   4.255   0.460   7.352  1.4392  0.5648  2.9943
 2449TIP3    H228907   4.313   0.320   7.343  0.3220  0.2302 -1.1154
 2450TIP3   OH228908   6.047   5.143   1.162  0.1562  0.5077  0.1284
 2450TIP3    H128909   6.014   5.230   1.187  0.8611  0.5684  0.8974
 2450TIP3    H228910   6.018   5.131   1.072 -0.0717  1.4905  0.0609
 2451TIP3   OH228911   5.252   0.034   8.353 -0.0669  0.1280 -0.0253
 2451TIP3    H128912   5.196   0.026   8.430 -1.2265  0.3891 -0.8107
 2451TIP3    H228913   5.338   0.058   8.387  0.2898 -2.7481  1.4521
 2452TIP3   OH228914   4.180   3.616   1.429  0.0229 -0.0819  0.0590
 2452TIP3    H128915   4.268   3.586   1.450 -0.4947 -2.1067 -0.3800
 2452TIP3    H228916   4.183   3.638   1.337  0.0865 -0.1376  0.0478
 2453TIP3   OH228917   3.068   5.194   1.105 -0.3425 -0.2642 -0.5100
 2453TIP3    H128918   3.129   5.198   1.031 -0.6994 -0.9510 -0.8494
 2453TIP3    H228919   2.991   5.149   1.070 -1.4082  1.3355 -0.3303
 2454TIP3   OH228920   0.540   2.081   8.131  0.0475 -0.2121  0.4478
 2454TIP3    H128921   0.528   2.163   8.179  0.4183  0.6631 -0.9053
 2454TIP3    H228922   0.493   2.094   8.049  1.8259 -0.5677 -0.6619
 2455TIP3   OH228923   4.177   4.967   0.404 -0.1287  0.9049 -0.3150
 2455TIP3    H128924   4.231   4.920   0.467 -2.0136  1.8994  2.1865
 2455TIP3    H228925   4.183   4.915   0.324 -0.1568 -2.2201  1.5755
 2456TIP3   OH228926   1.076   4.938   7.341 -0.2079 -0.4611  0.5732
 2456TIP3    H128927   1.072   5.020   7.391  0.9527 -1.7145  2.9188
 2456TIP3    H228928   1.162   4.940   7.299  0.0759 -0.6968  1.1237
 2457TIP3   OH228929   3.736   6.313   1.427 -0.2505  0.1023 -0.3367
 2457TIP3    H128930   3.816   6.284   1.469  0.5139  2.8412  0.2726
 2457TIP3    H228931   3.704   6.236   1.381  2.1385 -1.3556  0.2837
 2458TIP3   OH228932   4.688   2.265   7.522  0.3314 -0.5055 -1.1462
 2458TIP3    H128933   4.671   2.358   7.506 -0.6180 -0.6348 -0.8965
 2458TIP3    H228934   4.689   2.225   7.435  1.1205 -0.2063 -1.2835
 2459TIP3   OH228935   5.485   1.605   0.258  0.1249 -0.5650  0.1901
 2459TIP3    H128936   5.525   1.589   0.343  0.2830 -1.9248 -0.1200
 2459TIP3    H228937   5.541   1.671   0.217  0.5168 -0.5009  0.8204
 2460TIP3   OH228938   6.401   2.233   2.873  0.1564  0.4123  0.3228
 2460TIP3    H128939   6.404   2.318   2.828 -0.5777  0.1452 -0.2508
 2460TIP3    H228940   6.388   2.255   2.965  1.4627  0.9596  0.4056
 2461TIP3   OH228941   0.531   0.112   8.353 -0.9726  0.6606  0.1531
 2461TIP3    H128942   0.556   0.135   8.263 -1.0678  1.4595  0.3245
 2461TIP3    H228943   0.506   0.195   8.393 -1.9009  0.1789  0.6168
 2462TIP3   OH228944   5.948   0.404   7.810 -0.5970  0.4154  0.0007
 2462TIP3    H128945   5.959   0.425   7.902 -0.9917  0.0795  0.1323
 2462TIP3    H228946   5.940   0.308   7.808  2.9386  0.0100 -0.7554
 2463TIP3   OH228947   6.465   3.831   2.480  0.2197  0.1378 -0.2364
 2463TIP3    H128948   6.400   3.770   2.515 -0.3147  1.5598  1.4026
 2463TIP3    H228949   6.544   3.778   2.470  0.1551 -0.5959  2.3911
 2464TIP3   OH228950   0.225   5.390   7.661 -0.5025  0.1799  0.2337
 2464TIP3    H128951   0.215   5.355   7.749 -0.1460 -1.5252 -0.3651
 2464TIP3    H228952   0.182   5.326   7.604  0.9080  0.2606 -0.9994
 2465TIP3   OH228953   3.169   5.940   1.779 -0.0629  0.0212 -1.0232
 2465TIP3    H128954   3.195   5.848   1.772  0.4111 -0.1044  1.3032
 2465TIP3    H228955   3.079   5.936   1.811 -0.2387  0.3760 -1.4743
 2466TIP3   OH228956   3.515   0.541   8.738  0.3532  0.6335  0.2750
 2466TIP3    H128957   3.564   0.477   8.687 -1.0593 -0.2110 -0.0695
 2466TIP3    H228958   3.511   0.618   8.681  2.4965  1.2825  0.8922
 2467TIP3   OH228959   4.464   1.767   2.545 -0.5115 -0.0614  0.5089
 2467TIP3    H128960   4.448   1.676   2.519  0.3204 -0.4780  1.4025
 2467TIP3    H228961   4.474   1.814   2.462 -2.1053 -0.5404 -0.0019
 2468TIP3   OH228962   3.116   5.196   0.135  0.3838 -0.2108 -0.0747
 2468TIP3    H128963   3.086   5.107   0.116  1.2774 -0.1923 -1.8121
 2468TIP3    H228964   3.078   5.217   0.220 -3.4084 -0.6543 -1.4905
 2469TIP3   OH228965   1.096   1.769   1.741 -0.0422  0.5925  0.4231
 2469TIP3    H128966   1.103   1.692   1.685  1.1440 -1.3015  2.9588
 2469TIP3    H228967   1.149   1.836   1.698 -2.4359  0.7041 -2.7157
 2470TIP3   OH228968   0.706   1.501   2.085  0.0965  0.0284  0.6325
 2470TIP3    H128969   0.654   1.548   2.021 -0.4583 -1.7697 -0.3119
 2470TIP3    H228970   0.739   1.569   2.144 -1.2522  1.4817 -0.2070
 2471TIP3   OH228971   1.860   5.710   0.983  0.2299  0.3213 -0.7113
 2471TIP3    H128972   1.879   5.714   1.076  0.1161 -0.2192 -0.6645
 2471TIP3    H228973   1.766   5.727   0.976  0.1283 -0.2338 -0.6800
 2472TIP3   OH228974   4.482   6.386   8.739  0.6950 -0.1303  0.1690
 2472TIP3    H128975   4.558   6.337   8.771 -1.2952 -2.0544  2.2599
 2472TIP3    H228976   4.427   6.399   8.816  0.6362  4.8802 -0.3671
 2473TIP3   OH228977   6.434   0.784   1.798 -0.4856 -0.3665 -0.3690
 2473TIP3    H128978   6.450   0.877   1.782 -1.8304 -0.1846 -0.7732
 2473TIP3    H228979   6.490   0.763   1.873  0.3080  0.6035 -0.6635
 2474TIP3   OH228980   6.333   2.584   0.991 -0.3532  0.8138  0.5865
 2474TIP3    H128981   6.299   2.522   1.056 -0.3124 -0.7967 -0.8488
 2474TIP3    H228982   6.428   2.573   0.995 -0.3983 -0.3449 -0.6557
 2475TIP3   OH228983   4.406   2.757   1.759  0.2964 -0.8116 -0.2612
 2475TIP3    H128984   4.457   2.677   1.747  0.2983 -0.6582 -1.3570
 2475TIP3    H228985   4.317   2.732   1.735 -0.0473 -0.9208  1.0618
 2476TIP3   OH228986   6.518   6.660   2.595 -0.1632  0.0826 -0.1200
 2476TIP3    H128987   6.454   6.593   2.619  0.7726 -0.5557  0.6410
 2476TIP3    H228988   6.484   6.741   2.634 -0.4258 -0.2809  0.4064
 2477TIP3   OH228989   0.194   5.920   0.820  0.0163  0.2393 -0.2308
 2477TIP3    H128990   0.116   5.864   0.822  0.1712 -0.0038  2.2269
 2477TIP3    H228991   0.164   6.001   0.777 -1.6335  0.1822  0.7154
 2478TIP3   OH228992   1.214   4.025   8.350  0.2021  0.1960 -0.0110
 2478TIP3    H128993   1.174   4.001   8.434 -0.7339  0.1041 -0.4714
 2478TIP3    H228994   1.288   4.081   8.374 -0.9870  1.4672  0.8202
 2479TIP3   OH228995   6.352   1.740   8.430 -1.0457  0.7148 -0.4648
 2479TIP3    H128996   6.296   1.801   8.478 -1.3184 -0.2881  0.5467
 2479TIP3    H228997   6.292   1.692   8.373 -0.9557  0.8388 -0.6630
 2480TIP3   OH228998   0.388   4.548   8.687  0.1755  1.2175  0.3066
 2480TIP3    H128999   0.437   4.629   8.704  1.6647  0.5307 -0.5469
 2480TIP3    H229000   0.411   4.525   8.597 -0.9085  0.2833  0.2483
 2481TIP3   OH229001   4.491   6.707   7.740 -0.3185 -0.0745 -0.0297
 2481TIP3    H129002   4.566   6.648   7.734 -0.3002 -0.0822  0.2420
 2481TIP3    H229003   4.415   6.650   7.750 -0.3723 -0.0696 -0.4277
 2482TIP3   OH229004   0.485   6.634   1.744 -0.0057  0.2836 -0.2632
 2482TIP3    H129005   0.400   6.591   1.732 -0.1413 -0.6438  3.0096
 2482TIP3    H229006   0.481   6.711   1.688 -2.8030 -0.0191 -0.6330
 2483TIP3   OH229007   0.093   0.498   1.314 -0.3941 -0.2553 -0.1662
 2483TIP3    H129008   0.117   0.539   1.397  6.1195 -0.1963 -1.5179
 2483TIP3    H229009   0.082   0.405   1.336  1.8635 -0.3574  0.8216
 2484TIP3   OH229010   2.721   5.349   1.828  0.2737  0.3947 -0.4196
 2484TIP3    H129011   2.709   5.441   1.850  0.1979  0.4852 -0.8278
 2484TIP3    H229012   2.806   5.346   1.783  0.6977  0.1250  0.3827
 2485TIP3   OH229013   2.850   5.676   2.939 -0.1205 -0.3270 -0.1807
 2485TIP3    H129014   2.790   5.748   2.923 -2.1354 -1.6892  0.8179
 2485TIP3    H229015   2.852   5.667   3.035 -0.8905 -2.3082 -0.2963
 2486TIP3   OH229016   2.906   0.110   1.499  0.2947  0.1159 -0.0482
 2486TIP3    H129017   2.894   0.018   1.475  2.0664  0.2253 -1.5083
 2486TIP3    H229018   2.991   0.113   1.542  0.3081  1.1000 -0.1228
 2487TIP3   OH229019   3.464   4.120   0.080  0.2921  0.7145 -0.0730
 2487TIP3    H129020   3.451   4.068   0.159  2.6495  2.5633  1.7205
 2487TIP3    H229021   3.423   4.205   0.100 -1.2162  0.4633 -1.8775
 2488TIP3   OH229022   0.573   0.693   1.441  0.0064 -0.0236 -0.8557
 2488TIP3    H129023   0.496   0.665   1.392 -0.6613 -1.4531  0.8671
 2488TIP3    H229024   0.647   0.651   1.396 -0.5024 -0.6701 -1.1131
 2489TIP3   OH229025   4.909   1.008   0.905  0.2607  0.0560  0.6668
 2489TIP3    H129026   4.984   0.959   0.872 -0.4895 -0.5833 -0.1502
 2489TIP3    H229027   4.836   0.946   0.900 -0.4126  0.7948  1.0420
 2490TIP3   OH229028   6.596   6.028   8.639  0.2660  0.6976 -0.5170
 2490TIP3    H129029   6.615   5.935   8.649 -2.9432 -0.1879 -1.2657
 2490TIP3    H229030   6.528   6.031   8.571 -0.1960  3.5054 -0.0492
 2491TIP3   OH229031   1.724   2.392   7.356 -0.7290  0.5019 -0.2254
 2491TIP3    H129032   1.734   2.346   7.272  0.6538  0.1462  0.1074
 2491TIP3    H229033   1.749   2.482   7.337 -0.3064  0.3966 -0.1765
 2492TIP3   OH229034   3.794   2.163   2.154  0.0004  0.2424 -0.2667
 2492TIP3    H129035   3.736   2.123   2.219 -0.7431  2.9954  0.9394
 2492TIP3    H229036   3.750   2.149   2.071  0.4145 -2.4170 -0.1207
 2493TIP3   OH229037   4.850   6.697   0.516 -0.2753 -0.5439 -0.1466
 2493TIP3    H129038   4.858   6.718   0.609 -2.2847 -1.5548  0.2978
 2493TIP3    H229039   4.921   6.635   0.500 -1.1000 -1.9285  1.2472
 2494TIP3   OH229040   2.657   5.553   1.319 -0.7738  0.2653 -0.0984
 2494TIP3    H129041   2.580   5.586   1.273 -1.2123  0.7347  0.9615
 2494TIP3    H229042   2.731   5.593   1.273 -1.1598  0.1241 -0.8716
 2495TIP3   OH229043   2.384   6.705   1.014  0.0288  0.7550  0.0007
 2495TIP3    H129044   2.425   6.634   0.965 -0.1314 -1.2388  2.5887
 2495TIP3    H229045   2.429   6.784   0.983 -0.1034 -0.3228 -3.2903
 2496TIP3   OH229046   3.240   0.881   1.389  0.2098 -0.1727 -0.0110
 2496TIP3    H129047   3.169   0.944   1.402  0.8328  0.8657 -1.4559
 2496TIP3    H229048   3.315   0.918   1.434 -0.3474 -1.7775  2.4309
 2497TIP3   OH229049   3.307   1.829   7.876  0.6390 -0.8065  0.1813
 2497TIP3    H129050   3.361   1.815   7.954  0.2721  1.3242  0.8582
 2497TIP3    H229051   3.371   1.837   7.804  1.0441 -1.2749  0.4795
 2498TIP3   OH229052   0.054   5.848   1.911 -0.3484  0.3936 -0.3285
 2498TIP3    H129053   0.143   5.839   1.877  0.3110 -0.3822  1.4803
 2498TIP3    H229054   0.058   5.923   1.969 -1.2502  1.2016 -1.2778
 2499TIP3   OH229055   5.549   3.623   7.185 -0.4244  0.7483 -0.0576
 2499TIP3    H129056   5.518   3.608   7.096 -0.5447  0.2665  0.0643
 2499TIP3    H229057   5.642   3.601   7.183 -0.1077  2.0115 -0.3771
 2500TIP3   OH229058   4.385   5.521   1.817  0.2011 -0.7303 -0.4794
 2500TIP3    H129059   4.358   5.431   1.835  1.9967 -1.3866 -0.7949
 2500TIP3    H229060   4.367   5.568   1.898 -0.6167 -1.4015 -0.2536
 2501TIP3   OH229061   1.579   2.431   2.570 -0.0161 -0.3201 -0.1696
 2501TIP3    H129062   1.620   2.419   2.656  1.1408  1.2369 -0.4588
 2501TIP3    H229063   1.541   2.518   2.573 -2.0290 -1.1415 -0.4713
 2502TIP3   OH229064   2.555   1.836   2.956 -0.0922  0.5182  0.1192
 2502TIP3    H129065   2.480   1.777   2.945 -0.1231  0.5200  0.3118
 2502TIP3    H229066   2.529   1.894   3.028  0.6161 -0.3077  1.0556
 2503TIP3   OH229067   3.110   0.647   0.422  0.4065  0.4884  0.0436
 2503TIP3    H129068   3.064   0.599   0.354  2.8491  0.3285 -1.6326
 2503TIP3    H229069   3.158   0.715   0.376  1.3983  1.0051  1.7255
 2504TIP3   OH229070   4.353   6.121   7.913  0.1573  0.7196  0.2594
 2504TIP3    H129071   4.271   6.170   7.915  1.0242  2.2309  0.1509
 2504TIP3    H229072   4.361   6.092   7.822 -1.7675 -2.2271  0.8839
 2505TIP3   OH229073   0.672   6.494   1.347  0.3224 -1.0960  0.4835
 2505TIP3    H129074   0.670   6.419   1.287 -0.8824 -0.3391 -0.4726
 2505TIP3    H229075   0.581   6.505   1.376 -0.1217  1.5777 -1.5071
 2506TIP3   OH229076   5.670   0.244   1.942 -0.9410 -0.0494 -0.3013
 2506TIP3    H129077   5.585   0.220   1.979 -0.5960 -0.4857  0.2148
 2506TIP3    H229078   5.734   0.203   2.000 -0.3817 -0.1168 -0.9609
 2507TIP3   OH229079   0.876   0.525   2.557  0.8113  0.3646  0.1836
 2507TIP3    H129080   0.862   0.570   2.640 -0.3302  1.0653 -0.3592
 2507TIP3    H229081   0.842   0.585   2.491 -0.2142 -1.0225 -0.6126
 2508TIP3   OH229082   3.226   5.567   0.375  0.1137 -0.6373 -0.5788
 2508TIP3    H129083   3.131   5.573   0.369 -0.1288 -2.4812  0.6280
 2508TIP3    H229084   3.242   5.505   0.446  2.2750  1.9400  1.4097
 2509TIP3   OH229085   5.435   4.265   0.762  0.0272 -0.7323  0.4078
 2509TIP3    H129086   5.395   4.347   0.791  0.0976 -1.4234  2.6039
 2509TIP3    H229087   5.519   4.261   0.806  0.3005 -1.7033 -0.1530
 2510TIP3   OH229088   6.758   5.819   1.311  0.3447  0.3625  0.0288
 2510TIP3    H129089   6.794   5.745   1.262  1.4001 -0.4652  1.9514
 2510TIP3    H229090   6.811   5.823   1.390 -2.1661  0.7367  1.8013
 2511TIP3   OH229091   6.276   5.914   0.929 -0.4341 -0.4393 -0.5997
 2511TIP3    H129092   6.332   5.975   0.881 -1.6223 -0.2186 -1.7669
 2511TIP3    H229093   6.256   5.845   0.866 -0.6655 -1.0335  0.1100
 2512TIP3   OH229094   4.557   3.690   0.605 -0.5549  0.3892 -0.0116
 2512TIP3    H129095   4.586   3.777   0.577 -1.1182 -0.1454 -2.5240
 2512TIP3    H229096   4.502   3.659   0.533 -1.3267 -1.5809  1.3460
 2513TIP3   OH229097   0.053   6.737   0.860 -0.0762 -0.0201  0.2405
 2513TIP3    H129098   0.048   6.706   0.770  1.0469  0.2023  0.0844
 2513TIP3    H229099  -0.029   6.783   0.874  0.4686  1.5474 -1.2983
 2514TIP3   OH229100   5.716   2.934   0.872 -0.7244  0.0497  0.5496
 2514TIP3    H129101   5.738   3.027   0.871 -0.0170 -0.0256  2.9489
 2514TIP3    H229102   5.627   2.931   0.906 -0.6689 -0.1765  0.6716
 2515TIP3   OH229103   6.368   0.772   3.516 -0.1745  0.0123  0.3145
 2515TIP3    H129104   6.442   0.797   3.461 -0.6144 -0.0775 -0.3310
 2515TIP3    H229105   6.317   0.711   3.461 -2.1660  2.0725 -0.3015
 2516TIP3   OH229106   5.337   0.310   1.042  0.1771 -0.0852  0.2961
 2516TIP3    H129107   5.300   0.335   0.957  2.1153  0.5105 -0.4112
 2516TIP3    H229108   5.339   0.215   1.039 -0.3272 -0.0958 -0.0592
 2517TIP3   OH229109   2.312   4.138   7.669  0.2888 -0.2804  0.1013
 2517TIP3    H129110   2.248   4.100   7.729 -1.7777  0.8169 -1.2901
 2517TIP3    H229111   2.265   4.148   7.587  2.6667 -0.5997 -1.3903
 2518TIP3   OH229112   3.212   6.025   8.665  0.0867  0.4707  0.0257
 2518TIP3    H129113   3.193   5.932   8.672  2.4401 -0.0515  0.2081
 2518TIP3    H229114   3.161   6.066   8.735 -0.4016 -0.7557  0.4064
 2519TIP3   OH229115   5.567   3.559   7.465  0.1396  0.4389  0.2343
 2519TIP3    H129116   5.660   3.560   7.444 -0.2535 -0.0188 -1.7506
 2519TIP3    H229117   5.524   3.589   7.385 -1.5018 -0.7482  0.6177
 2520TIP3   OH229118   0.534   2.573   0.491  0.2404 -0.3972 -0.2486
 2520TIP3    H129119   0.625   2.544   0.505  0.0685 -0.7241  0.1877
 2520TIP3    H229120   0.526   2.652   0.543  0.5511  0.1568 -1.0243
 2521TIP3   OH229121   3.508   4.003   8.245 -0.1826  0.1290 -0.8232
 2521TIP3    H129122   3.598   3.986   8.217  0.0820  1.0286 -0.5490
 2521TIP3    H229123   3.517   4.048   8.329 -0.8944 -0.0265 -0.6631
 2522TIP3   OH229124   6.186   3.420   7.826 -0.3656  0.2352 -0.2928
 2522TIP3    H129125   6.246   3.415   7.751 -0.1352 -0.4884 -0.0633
 2522TIP3    H229126   6.100   3.403   7.789 -0.1147 -1.2581 -0.2219
 2523TIP3   OH229127   4.989   6.838   1.506 -0.4716 -0.0341 -0.4596
 2523TIP3    H129128   5.001   6.763   1.565  1.3929  1.4695  1.2025
 2523TIP3    H229129   5.068   6.839   1.452 -0.9383  0.1768 -1.1502
 2524TIP3   OH229130   3.110   6.150   3.019 -0.3054 -0.5762  0.5731
 2524TIP3    H129131   3.054   6.227   3.021 -0.6297 -0.7866  0.0651
 2524TIP3    H229132   3.199   6.185   3.014 -0.3936 -0.2392  1.2848
 2525TIP3   OH229133   5.533   6.554   1.354  0.0328 -0.6466 -0.3222
 2525TIP3    H129134   5.500   6.487   1.414 -0.8175  1.4686  1.7347
 2525TIP3    H229135   5.626   6.561   1.375 -0.4489  0.7712  1.5762
 2526TIP3   OH229136   3.304   2.457   7.387  0.8980  0.2771  0.7234
 2526TIP3    H129137   3.223   2.423   7.425  0.2042 -0.0833 -0.9945
 2526TIP3    H229138   3.343   2.383   7.342  3.1844 -0.0325  3.0111
 2527TIP3   OH229139   4.775   5.548   1.514 -0.3971  0.8631 -0.2008
 2527TIP3    H129140   4.732   5.574   1.596  0.8584 -0.2764  0.8820
 2527TIP3    H229141   4.762   5.453   1.509 -1.8109  1.1105 -2.1848
 2528TIP3   OH229142   2.855   4.441   1.038 -0.2854  0.0336  0.0624
 2528TIP3    H129143   2.778   4.417   1.090  0.6400 -1.4399  0.8410
 2528TIP3    H229144   2.929   4.420   1.095  0.7330 -0.4583 -1.3863
 2529TIP3   OH229145   4.967   0.653   8.582 -0.2701 -0.4247 -0.4047
 2529TIP3    H129146   5.057   0.630   8.557 -0.9087 -3.3159 -0.3845
 2529TIP3    H229147   4.917   0.642   8.501 -0.7710  0.2744 -0.1953
 2530TIP3   OH229148   4.003   1.807   2.237 -0.5379  0.1170  0.2571
 2530TIP3    H129149   3.920   1.758   2.230  0.1468 -1.1308  0.5133
 2530TIP3    H229150   4.017   1.816   2.331 -0.2467  0.0886  0.2156
 2531TIP3   OH229151   1.438   0.550   0.793 -0.7620 -0.0314  0.4147
 2531TIP3    H129152   1.376   0.528   0.863 -0.2101 -0.0334  0.9088
 2531TIP3    H229153   1.424   0.482   0.727 -2.2455  0.7297 -0.1142
 2532TIP3   OH229154   4.181   2.537   8.001  0.4637 -0.0110 -0.0860
 2532TIP3    H129155   4.252   2.511   7.942 -0.6495 -0.8982 -1.0879
 2532TIP3    H229156   4.171   2.631   7.984 -0.0817 -0.3162 -1.6297
 2533TIP3   OH229157   4.101   4.882   8.734 -0.1564  0.3043 -0.5109
 2533TIP3    H129158   4.181   4.934   8.734 -0.3709  0.6353 -0.6698
 2533TIP3    H229159   4.115   4.817   8.804  0.4611  0.0282 -0.8751
 2534TIP3   OH229160   2.823   3.646   0.865 -0.1035 -0.0322  0.3678
 2534TIP3    H129161   2.829   3.592   0.787  0.1284  0.5223 -0.0048
 2534TIP3    H229162   2.809   3.584   0.936  2.2727 -0.7963  0.2558
 2535TIP3   OH229163   0.618   6.597   0.875  0.2062  0.1621  0.2977
 2535TIP3    H129164   0.586   6.598   0.785  0.9109  1.4287  0.0332
 2535TIP3    H229165   0.542   6.621   0.928 -0.2606 -0.7784  0.0677
 2536TIP3   OH229166   3.097   3.515   1.648  0.1121 -0.0531  0.6701
 2536TIP3    H129167   3.184   3.510   1.608 -0.3883  2.8295 -1.0167
 2536TIP3    H229168   3.113   3.503   1.742  2.3263  0.3510  0.3994
 2537TIP3   OH229169   2.215   0.042   0.650 -0.0194  0.0536 -0.3776
 2537TIP3    H129170   2.273   0.058   0.724 -2.5740  0.4157  1.6889
 2537TIP3    H229171   2.165   0.123   0.640 -1.9573 -1.0633 -0.3044
 2538TIP3   OH229172   6.720   1.230   2.431  0.1737  0.3734 -0.8159
 2538TIP3    H129173   6.767   1.295   2.379  0.0445  1.0307 -0.1405
 2538TIP3    H229174   6.783   1.161   2.447 -0.1051 -0.3689 -2.7537
 2539TIP3   OH229175   0.588   5.804   7.584 -0.1269 -0.3095  0.5376
 2539TIP3    H129176   0.672   5.758   7.581  0.8412  1.3920  0.1153
 2539TIP3    H229177   0.540   5.771   7.507  1.8305  1.6210 -1.6485
 2540TIP3   OH229178   4.563   1.178   2.696 -0.6916 -1.1672 -0.2562
 2540TIP3    H129179   4.635   1.220   2.743 -0.4141 -2.3419  0.3955
 2540TIP3    H229180   4.488   1.235   2.713 -0.5180 -1.3555  1.3185
 2541TIP3   OH229181   5.719   5.142   8.713 -0.6355  0.1053  0.1515
 2541TIP3    H129182   5.683   5.073   8.658 -0.9826  1.8825 -1.9939
 2541TIP3    H229183   5.730   5.216   8.654  2.6099  0.9901  1.6656
 2542TIP3   OH229184   5.694   1.273   7.771  0.3929  0.2226 -0.1867
 2542TIP3    H129185   5.649   1.264   7.687  1.3857 -0.0004 -0.7253
 2542TIP3    H229186   5.735   1.187   7.785  0.6372  0.4103  0.2787
 2543TIP3   OH229187   2.410   4.507   0.572  0.1787  0.4518 -0.5089
 2543TIP3    H129188   2.485   4.561   0.597  1.3838 -1.7527  1.0307
 2543TIP3    H229189   2.343   4.529   0.637  1.1281 -0.7493  0.9544
 2544TIP3   OH229190   4.895   0.413   2.716 -0.2285 -0.2094 -0.2249
 2544TIP3    H129191   4.829   0.480   2.730 -0.5030 -0.9842  2.7968
 2544TIP3    H229192   4.848   0.330   2.728  0.8403 -0.8402 -0.2345
 2545TIP3   OH229193   3.339   2.211   7.288  0.4236  0.0170 -0.3704
 2545TIP3    H129194   3.415   2.187   7.235 -0.5830 -2.2294 -0.9142
 2545TIP3    H229195   3.266   2.164   7.248 -0.8662  0.3891  1.4235
 2546TIP3   OH229196   6.429   2.712   3.060 -0.2800  0.2479  0.0960
 2546TIP3    H129197   6.353   2.673   3.103  1.8194 -2.4361  1.7296
 2546TIP3    H229198   6.398   2.738   2.973 -2.7087 -2.1138  0.1467
 2547TIP3   OH229199   4.630   6.647   2.718 -0.0284 -0.3676  0.1703
 2547TIP3    H129200   4.560   6.612   2.774 -0.0991  0.8181  0.8371
 2547TIP3    H229201   4.608   6.739   2.707  0.4802 -0.3813 -1.0867
 2548TIP3   OH229202   3.567   3.236   7.775  0.2633 -0.3878  0.0893
 2548TIP3    H129203   3.583   3.281   7.692  0.1967 -0.0704  0.2469
 2548TIP3    H229204   3.485   3.189   7.761 -0.6432  0.9817  0.4987
 2549TIP3   OH229205   0.848   0.581   1.935 -0.7356  0.0647  0.2619
 2549TIP3    H129206   0.843   0.486   1.933 -0.4397  0.0463  0.2971
 2549TIP3    H229207   0.758   0.611   1.926 -0.6269 -0.1753 -2.6060
 2550TIP3   OH229208   5.509   0.603   8.622 -0.0732  0.7250  0.5771
 2550TIP3    H129209   5.501   0.534   8.688  0.7069 -0.2457 -0.2963
 2550TIP3    H229210   5.425   0.648   8.624 -1.9244 -2.3161 -1.0266
 2551TIP3   OH229211   1.650   0.802   8.494 -0.1205  0.4205  0.0904
 2551TIP3    H129212   1.708   0.749   8.440  0.8730  0.2697  1.2517
 2551TIP3    H229213   1.586   0.839   8.433  0.1366 -0.8187 -0.9636
 2552TIP3   OH229214   2.986   5.522   2.317 -0.1221  0.2800 -0.4248
 2552TIP3    H129215   2.910   5.487   2.271 -0.8847  1.4568 -0.1210
 2552TIP3    H229216   2.964   5.614   2.332  0.9263  0.3867  0.5799
 2553TIP3   OH229217   1.421   3.844   7.487  0.2846  0.0781  0.3546
 2553TIP3    H129218   1.472   3.783   7.541  0.1820 -0.8192 -0.5456
 2553TIP3    H229219   1.485   3.882   7.428  0.1595  0.0190  0.1811
 2554TIP3   OH229220   4.445   2.333   2.100  0.4184 -0.1104  0.0213
 2554TIP3    H129221   4.400   2.248   2.095  0.5200 -0.1577 -0.1039
 2554TIP3    H229222   4.536   2.311   2.119  0.5633 -0.0638 -0.5854
 2555TIP3   OH229223   5.655   5.006   7.575 -0.6488 -0.5950 -0.3285
 2555TIP3    H129224   5.720   5.026   7.508  0.1130  2.1656  1.0490
 2555TIP3    H229225   5.642   4.911   7.570  1.9416 -0.9507 -2.0242
 2556TIP3   OH229226   0.674   6.312   2.606  0.7196  0.0615 -0.4629
 2556TIP3    H129227   0.599   6.359   2.642  1.0151  0.6646 -0.6290
 2556TIP3    H229228   0.707   6.260   2.679 -0.4528 -0.9918 -0.6408
 2557TIP3   OH229229   5.480   1.604   7.587 -0.1714 -0.0385 -0.1793
 2557TIP3    H129230   5.565   1.641   7.562  0.7312 -0.9873  1.3050
 2557TIP3    H229231   5.439   1.672   7.640  0.0288  0.1051 -0.2077
 2558TIP3   OH229232   6.685   3.831   0.042 -0.0814  0.7757 -0.1394
 2558TIP3    H129233   6.697   3.765  -0.026  1.0753  2.1862 -1.3789
 2558TIP3    H229234   6.772   3.867   0.056 -0.5025  1.3211  1.2858
 2559TIP3   OH229235   5.163   4.483   1.223  0.5042 -0.0223 -0.1266
 2559TIP3    H129236   5.249   4.462   1.188 -0.0439 -1.0314 -0.9253
 2559TIP3    H229237   5.107   4.491   1.145 -0.2019  0.2233  0.3993
 2560TIP3   OH229238   3.398   4.265   0.552 -0.1694  0.2427 -0.0509
 2560TIP3    H129239   3.422   4.271   0.460  0.2149  0.3265  0.0546
 2560TIP3    H229240   3.315   4.217   0.552  0.6651 -1.2456 -0.3073
 2561TIP3   OH229241   1.960   6.308   1.165 -0.3821 -0.1781  0.3695
 2561TIP3    H129242   1.999   6.306   1.252 -0.2803  1.7900  0.4047
 2561TIP3    H229243   2.005   6.379   1.120 -0.8683 -0.7601 -1.0910
 2562TIP3   OH229244   6.073   0.696   0.297  0.4246  0.9612 -0.0192
 2562TIP3    H129245   6.115   0.632   0.239 -0.1428  0.6370 -0.0806
 2562TIP3    H229246   5.990   0.655   0.321  2.0287 -0.5359  3.8621
 2563TIP3   OH229247   1.040   6.759   1.503 -0.5000  0.0271  0.2346
 2563TIP3    H129248   0.982   6.736   1.430  0.0605 -0.9800  0.0872
 2563TIP3    H229249   1.112   6.807   1.462 -0.6699  0.3238  0.2737
 2564TIP3   OH229250   3.129   6.096   1.272  0.6481  0.0022 -0.3053
 2564TIP3    H129251   3.220   6.104   1.245  1.0359 -2.5697  0.0355
 2564TIP3    H229252   3.132   6.047   1.354 -1.0197  0.4892  0.0926
 2565TIP3   OH229253   3.130   1.405   1.911 -0.1192 -0.1570  0.0858
 2565TIP3    H129254   3.151   1.495   1.934  1.4465 -0.5117  0.1450
 2565TIP3    H229255   3.175   1.390   1.828 -1.3374 -0.5399 -0.5338
 2566TIP3   OH229256   1.121   6.107   7.967 -0.3105 -0.3386 -1.1467
 2566TIP3    H129257   1.142   6.030   8.021  0.1396  1.0951  0.8124
 2566TIP3    H229258   1.197   6.117   7.910  2.0235  1.4365  1.9718
 2567TIP3   OH229259   5.324   1.401   1.035 -0.2616 -0.3741 -0.0302
 2567TIP3    H129260   5.266   1.425   0.963 -1.3696 -0.8724  0.6570
 2567TIP3    H229261   5.270   1.411   1.114  0.7100 -0.4883  0.6806
 2568TIP3   OH229262   3.017   1.925   1.960  0.3091 -0.1669  0.0151
 2568TIP3    H129263   2.926   1.955   1.954  0.1482 -0.8197 -1.3442
 2568TIP3    H229264   3.061   1.975   1.891  0.3560 -1.8802 -1.2517
 2569TIP3   OH229265   5.701   6.789   0.686 -0.2928 -0.0272 -0.6761
 2569TIP3    H129266   5.726   6.725   0.753 -1.5232  1.5917  1.4623
 2569TIP3    H229267   5.783   6.818   0.648  0.4761 -0.6864  0.4240
 2570TIP3   OH229268   5.098   5.776   8.115 -0.3216  0.1352 -0.0984
 2570TIP3    H129269   5.011   5.739   8.101 -0.8848  0.4692  2.0463
 2570TIP3    H229270   5.101   5.854   8.060 -1.1181 -0.2613 -0.7164
 2571TIP3   OH229271   1.227   2.233   1.673  0.2192 -0.0891 -0.5273
 2571TIP3    H129272   1.273   2.304   1.717 -0.6609 -0.2218  0.6414
 2571TIP3    H229273   1.294   2.165   1.663  0.4669 -0.0128  0.5123
 2572TIP3   OH229274   1.837   5.941   1.976 -0.1225 -0.6581 -0.2316
 2572TIP3    H129275   1.892   5.912   2.049 -1.4457 -1.2669  0.5570
 2572TIP3    H229276   1.759   5.977   2.018  0.0826  1.1520 -1.2974
 2573TIP3   OH229277   6.559   3.055   0.636 -0.4114 -0.2868  0.3385
 2573TIP3    H129278   6.511   2.996   0.694 -1.1926  1.4448  1.5427
 2573TIP3    H229279   6.550   3.141   0.677 -1.8702  1.2494 -2.8507
 2574TIP3   OH229280   0.824   3.988   7.148 -0.1964 -0.0197 -0.0707
 2574TIP3    H129281   0.833   3.995   7.053 -0.2937  1.0023 -0.0143
 2574TIP3    H229282   0.762   3.917   7.161  2.1012 -2.2965 -0.6679
 2575TIP3   OH229283   2.810   4.606   1.528  0.1539 -0.2565  0.4626
 2575TIP3    H129284   2.897   4.603   1.566  1.3111 -1.0803 -2.0473
 2575TIP3    H229285   2.751   4.620   1.603  2.4125  0.5231  2.1896
 2576TIP3   OH229286   1.860   0.580   3.081  0.2393  0.6772  0.0915
 2576TIP3    H129287   1.871   0.675   3.075  1.0458  0.5158 -1.3188
 2576TIP3    H229288   1.949   0.545   3.090  0.0359 -0.0073 -0.4627
 2577TIP3   OH229289   5.638   5.615   0.515  0.0487 -0.3493 -0.2192
 2577TIP3    H129290   5.574   5.608   0.444 -2.5566  0.9032  1.8681
 2577TIP3    H229291   5.681   5.699   0.500 -1.0029  0.2558  0.0205
 2578TIP3   OH229292   2.185   6.476   0.689 -0.3203 -0.5944 -0.3867
 2578TIP3    H129293   2.173   6.440   0.776  0.2640 -2.9503 -1.1908
 2578TIP3    H229294   2.278   6.497   0.684 -0.3633 -0.4109 -0.4301
 2579TIP3   OH229295   3.789   1.057   0.614  0.0301  0.0085 -0.3413
 2579TIP3    H129296   3.712   1.096   0.574 -1.8230 -0.8230  2.1706
 2579TIP3    H229297   3.781   0.963   0.597  0.7327 -0.0421 -0.4356
 2580TIP3   OH229298   6.250   0.220   1.884  0.2998  0.2162 -0.3477
 2580TIP3    H129299   6.342   0.245   1.895  0.4360 -0.1223 -0.6828
 2580TIP3    H229300   6.243   0.135   1.928 -0.0629  0.6468  0.4409
 2581TIP3   OH229301   5.479   0.132   8.503  0.8374 -0.2834 -0.1253
 2581TIP3    H129302   5.540   0.059   8.489  4.8029  2.4056  1.4711
 2581TIP3    H229303   5.455   0.125   8.595  0.6784 -0.0007 -0.1453
 2582TIP3   OH229304   4.583   4.665   1.117 -0.2510 -0.2752  0.0402
 2582TIP3    H129305   4.579   4.757   1.143 -0.6507 -0.5406  0.9180
 2582TIP3    H229306   4.586   4.668   1.021  0.5246  0.6761  0.0797
 2583TIP3   OH229307   4.902   5.705   2.298  0.7227  0.6639  0.7449
 2583TIP3    H129308   4.893   5.765   2.372 -1.0452  0.6194  0.6086
 2583TIP3    H229309   4.872   5.755   2.223 -1.5316 -0.5678  0.7473
 2584TIP3   OH229310   5.097   4.228   1.741  0.2370 -0.2817  0.1414
 2584TIP3    H129311   5.164   4.177   1.695  1.3471  0.0445  1.3477
 2584TIP3    H229312   5.081   4.179   1.822 -0.9474 -0.3153 -0.0959
 2585TIP3   OH229313   1.378   1.437   1.881 -0.2471  0.3475 -0.0475
 2585TIP3    H129314   1.424   1.353   1.883 -1.6982 -0.4583  0.9284
 2585TIP3    H229315   1.410   1.483   1.958 -1.6393 -0.5568  1.1095
 2586TIP3   OH229316   4.224   4.769   1.855 -0.2950 -0.1604 -0.2310
 2586TIP3    H129317   4.214   4.832   1.926 -0.2229 -2.6718  2.1748
 2586TIP3    H229318   4.309   4.728   1.870 -1.0771 -2.0400 -0.6122
 2587TIP3   OH229319   0.004   0.891   2.783  0.0023  0.0497  0.2411
 2587TIP3    H129320   0.032   0.860   2.697  0.5499 -0.3468  0.5524
 2587TIP3    H229321  -0.049   0.968   2.765  0.0179 -0.0992 -0.4578
 2588TIP3   OH229322   6.401   2.392   8.682  0.0007 -0.6367  0.2841
 2588TIP3    H129323   6.482   2.443   8.690  0.5259 -1.7045  2.2360
 2588TIP3    H229324   6.431   2.304   8.660 -0.4936 -1.3531  2.2935
 2589TIP3   OH229325   0.431   4.576   2.041 -0.1994 -0.0267  0.4060
 2589TIP3    H129326   0.429   4.546   1.951 -0.5874  0.9060  0.0852
 2589TIP3    H229327   0.380   4.512   2.090  1.5847 -1.5833  0.3222
 2590TIP3   OH229328   0.809   5.190   2.189  0.0859 -0.5421 -0.2044
 2590TIP3    H129329   0.898   5.223   2.194 -0.4678  0.9362  0.3750
 2590TIP3    H229330   0.800   5.157   2.100  0.8552  0.3227 -0.6079
 2591TIP3   OH229331   3.392   2.628   7.982 -0.1228 -0.1238  0.0043
 2591TIP3    H129332   3.479   2.663   7.966  0.0343 -0.6516 -0.3155
 2591TIP3    H229333   3.405   2.534   7.992 -0.3804 -0.0134  1.8982
 2592TIP3   OH229334   4.298   2.178   0.448  0.1756 -0.1446 -0.5462
 2592TIP3    H129335   4.298   2.149   0.539  0.2147 -0.5072 -0.6588
 2592TIP3    H229336   4.260   2.266   0.450  0.6926  0.0765 -0.1087
 2593TIP3   OH229337   5.335   2.525   0.561  0.3676 -0.5128 -0.6023
 2593TIP3    H129338   5.371   2.445   0.597  0.9704  0.1709  0.3591
 2593TIP3    H229339   5.247   2.501   0.532 -0.3164 -1.0315  1.6757
 2594TIP3   OH229340   2.073   1.284   7.689 -0.0648  0.0834  0.7059
 2594TIP3    H129341   2.047   1.354   7.629 -0.8253 -1.2391 -0.5541
 2594TIP3    H229342   2.160   1.310   7.720  0.2000  0.9722 -0.7037
 2595TIP3   OH229343   2.090   2.628   1.046  0.0165  0.2059  0.4483
 2595TIP3    H129344   2.159   2.634   1.112  0.0891 -0.3599  0.4345
 2595TIP3    H229345   2.025   2.568   1.084 -0.6895  1.0735  0.6460
 2596TIP3   OH229346   0.634   5.849   2.785 -0.1603 -0.4157 -0.0805
 2596TIP3    H129347   0.582   5.793   2.843 -1.7894 -0.5722 -1.6135
 2596TIP3    H229348   0.670   5.789   2.720 -1.4002  0.1849 -1.3660
 2597TIP3   OH229349   4.693   3.881   8.763 -0.8958  0.7250 -0.1886
 2597TIP3    H129350   4.688   3.788   8.740 -1.2233  0.2234  1.7493
 2597TIP3    H229351   4.702   3.926   8.678  0.9349 -1.1570 -1.1044
 2598TIP3   OH229352   1.173   0.517   1.421 -0.0231  0.1568 -0.6236
 2598TIP3    H129353   1.179   0.612   1.425  0.0005  0.1549 -0.6089
 2598TIP3    H229354   1.253   0.487   1.464 -0.6729  0.1254  0.6428
 2599TIP3   OH229355   3.134   6.698   1.931  0.3322  0.1219  0.7055
 2599TIP3    H129356   3.182   6.615   1.936  0.5509  0.1566 -0.4835
 2599TIP3    H229357   3.078   6.698   2.009  1.2139 -0.5736  1.3659
 2600TIP3   OH229358   1.094   0.061   1.094 -0.2030 -0.2210  0.0075
 2600TIP3    H129359   1.005   0.091   1.112 -0.1083  0.1256 -0.0918
 2600TIP3    H229360   1.089   0.024   1.006 -0.1008  0.4260 -0.2766
 2601TIP3   OH229361   5.041   4.469   7.905 -0.4180 -0.8525  0.1122
 2601TIP3    H129362   5.106   4.538   7.894 -0.5393 -1.0134 -2.0220
 2601TIP3    H229363   5.091   4.394   7.936  0.0511 -0.3945  0.4883
 2602TIP3   OH229364   2.017   2.020   0.648  0.0625 -0.9085  0.7463
 2602TIP3    H129365   1.984   2.107   0.623 -1.1129 -1.4110  0.5075
 2602TIP3    H229366   2.083   2.000   0.582  0.2964 -0.2330  0.7639
 2603TIP3   OH229367   4.551   3.628   7.283  0.0082  0.4076 -0.3674
 2603TIP3    H129368   4.488   3.646   7.354  0.3568 -1.3987  0.4653
 2603TIP3    H229369   4.634   3.617   7.328  0.7075  1.4515 -1.3380
 2604TIP3   OH229370   3.205   6.017   8.032  0.1356  0.0740 -0.8363
 2604TIP3    H129371   3.148   6.039   7.958 -0.0249  1.0274 -0.4412
 2604TIP3    H229372   3.284   5.981   7.991  0.0655  0.6366 -1.4848
 2605TIP3   OH229373   2.017   4.454   7.957 -0.3464 -0.3800  0.3947
 2605TIP3    H129374   2.066   4.379   7.990 -0.5610 -0.1609  1.2435
 2605TIP3    H229375   2.015   4.515   8.031 -0.3584  0.3715 -0.2148
 2606TIP3   OH229376   1.519   5.802   8.456 -0.1603  0.0469  0.0790
 2606TIP3    H129377   1.535   5.855   8.377  0.9424  0.5525  0.6151
 2606TIP3    H229378   1.504   5.866   8.525 -0.0478 -0.3699  0.4917
 2607TIP3   OH229379   0.830   6.716   3.155 -0.1819 -0.0427  0.5008
 2607TIP3    H129380   0.741   6.747   3.140 -1.0684 -1.9522  1.4636
 2607TIP3    H229381   0.852   6.745   3.243 -0.3110 -0.5288  0.6991
 2608TIP3   OH229382   0.627   3.873   2.094 -0.3665 -0.5455  0.0996
 2608TIP3    H129383   0.720   3.871   2.114 -0.4387 -0.9931  0.3862
 2608TIP3    H229384   0.588   3.925   2.165 -0.3048 -0.1340 -0.1613
 2609TIP3   OH229385   1.021   5.310   1.819  0.3686  0.2877  0.1995
 2609TIP3    H129386   1.114   5.291   1.837  0.2693  0.2588  0.6927
 2609TIP3    H229387   1.014   5.303   1.724  0.8185  0.0313  0.1783
 2610TIP3   OH229388   1.178   1.727   2.427 -0.3787  0.2576 -0.0966
 2610TIP3    H129389   1.106   1.780   2.462 -0.3389 -0.9695  2.0514
 2610TIP3    H229390   1.153   1.709   2.336 -1.6061  1.7851 -0.1060
 2611TIP3   OH229391   0.358   2.165   0.628  0.6100 -0.1006 -0.3577
 2611TIP3    H129392   0.309   2.145   0.548 -0.7111 -0.2234  0.4552
 2611TIP3    H229393   0.307   2.124   0.698  1.1881  0.8748  0.6661
 2612TIP3   OH229394   4.859   3.951   2.581  0.1826  0.5146  0.1099
 2612TIP3    H129395   4.822   3.863   2.572  0.6552  0.3534 -0.2982
 2612TIP3    H229396   4.921   3.944   2.654 -0.4664  0.7453  0.6894
 2613TIP3   OH229397   0.957   3.262   0.203 -0.8815  0.1588  0.4858
 2613TIP3    H129398   1.018   3.320   0.157 -1.1496 -0.9527 -1.3712
 2613TIP3    H229399   0.870   3.294   0.178 -1.0316 -0.7640 -0.2368
 2614TIP3   OH229400   3.003   6.828   7.599 -0.3085 -0.5151  0.9380
 2614TIP3    H129401   3.029   6.864   7.684  1.1171  1.8850 -0.4041
 2614TIP3    H229402   3.065   6.866   7.537 -0.5789 -3.0853 -1.0906
 2615TIP3   OH229403   2.279   0.274   8.569 -1.0657  0.0497 -0.2703
 2615TIP3    H129404   2.291   0.368   8.553 -1.9686  0.3550  0.7067
 2615TIP3    H229405   2.223   0.244   8.497 -0.0824  0.0698 -1.0548
 2616TIP3   OH229406   4.481   3.300   2.947 -0.3253  0.1068 -0.1340
 2616TIP3    H129407   4.391   3.271   2.960 -1.0288  1.6200 -1.2279
 2616TIP3    H229408   4.478   3.395   2.963  0.5235  0.5988 -2.3810
 2617TIP3   OH229409   1.362   2.896   0.602 -0.3770  0.4523  0.4679
 2617TIP3    H129410   1.356   2.802   0.622  0.2867  0.3698  0.3073
 2617TIP3    H229411   1.312   2.938   0.671 -0.8402 -0.0327  0.4372
 2618TIP3   OH229412   3.813   5.551   1.322  0.5232  0.1021 -0.4869
 2618TIP3    H129413   3.760   5.593   1.390  0.8093  0.9755 -0.7901
 2618TIP3    H229414   3.851   5.475   1.366 -0.3491 -0.0922 -0.0464
 2619TIP3   OH229415   3.313   5.609   1.124 -0.3518 -0.1978 -0.3660
 2619TIP3    H129416   3.237   5.553   1.136 -1.3916  1.5282  1.9852
 2619TIP3    H229417   3.282   5.681   1.070  0.2033 -0.5114 -1.1128
 2620TIP3   OH229418   2.174   1.089   8.122 -0.2406  0.3917 -0.4914
 2620TIP3    H129419   2.219   1.114   8.042 -0.4989 -1.8140 -1.4112
 2620TIP3    H229420   2.217   1.139   8.191  2.8076 -0.6203 -1.4697
 2621TIP3   OH229421   0.387   6.696   0.122  0.3946  0.3376  0.1482
 2621TIP3    H129422   0.379   6.748   0.042  0.0734 -1.2016 -0.8570
 2621TIP3    H229423   0.297   6.674   0.145  0.6131 -1.5095 -0.6465
 2622TIP3   OH229424   3.854   2.042   2.458 -0.2567  0.1969  1.0858
 2622TIP3    H129425   3.856   1.954   2.496  1.0370 -0.8125 -1.1530
 2622TIP3    H229426   3.796   2.035   2.383 -0.7189  1.4774  1.2886
 2623TIP3   OH229427   6.055   3.256   1.748  0.2544  0.0326 -0.0259
 2623TIP3    H129428   6.030   3.295   1.664 -1.9045 -2.3037 -0.6052
 2623TIP3    H229429   5.974   3.216   1.781  1.6162 -1.3544  1.8880
 2624TIP3   OH229430   5.746   6.387   8.755 -0.0621  0.3328 -0.0042
 2624TIP3    H129431   5.704   6.464   8.716 -1.3324 -1.3275 -2.1077
 2624TIP3    H229432   5.813   6.362   8.692 -1.5313 -1.8570 -0.8115
 2625TIP3   OH229433   0.249   4.332   7.615  0.8087 -0.0355 -0.0027
 2625TIP3    H129434   0.231   4.362   7.526  0.1372 -0.7600 -0.1165
 2625TIP3    H229435   0.312   4.261   7.604  2.8916  1.6668  0.3091
 2626TIP3   OH229436   1.459   4.590   8.109 -0.4910 -0.2740  0.3047
 2626TIP3    H129437   1.549   4.584   8.077 -0.0701  1.1230  1.1512
 2626TIP3    H229438   1.415   4.514   8.070  0.2197  0.7319 -2.7710
 2627TIP3   OH229439   1.301   3.712   8.693 -0.4535  0.0973  0.4661
 2627TIP3    H129440   1.313   3.645   8.761 -2.4641 -0.6538  0.1708
 2627TIP3    H229441   1.283   3.661   8.614 -1.6919  0.9817  0.1641
 2628TIP3   OH229442   5.713   5.090   1.740  0.0345 -0.4844 -0.4959
 2628TIP3    H129443   5.688   4.999   1.754  0.9452 -1.2256 -3.0636
 2628TIP3    H229444   5.791   5.102   1.795 -0.4688 -1.0171  0.3664
 2629TIP3   OH229445   1.379   6.689   7.868 -0.2476 -0.0681 -0.1216
 2629TIP3    H129446   1.386   6.781   7.843  0.0762 -0.3963 -1.2673
 2629TIP3    H229447   1.295   6.661   7.831 -1.3628  0.2635  1.9501
 2630TIP3   OH229448   1.195   3.587   7.637  0.3445 -0.2615 -0.5320
 2630TIP3    H129449   1.221   3.562   7.548 -0.0028 -0.4310 -0.5855
 2630TIP3    H229450   1.265   3.646   7.667  0.2240  0.1703 -1.0905
 2631TIP3   OH229451   2.036   1.017   7.710 -0.1520 -0.0779 -0.8086
 2631TIP3    H129452   2.047   1.110   7.691 -0.9364  0.4246  0.9241
 2631TIP3    H229453   1.994   1.016   7.797 -0.6974 -2.0363 -1.0573
 2632TIP3   OH229454   0.230   1.338   0.467 -0.3477 -0.5069 -0.5233
 2632TIP3    H129455   0.199   1.249   0.480 -1.5262 -0.0993 -0.3602
 2632TIP3    H229456   0.221   1.379   0.553  2.6603 -0.9028  0.0889
 2633TIP3   OH229457   3.701   2.552   8.376  0.3349  0.2295 -0.2018
 2633TIP3    H129458   3.753   2.591   8.446  0.8724 -0.2091 -0.3522
 2633TIP3    H229459   3.624   2.609   8.370  0.7991  0.9018  0.0068
 2634TIP3   OH229460   2.939   2.338   0.633  0.7520 -0.0098 -0.2562
 2634TIP3    H129461   2.994   2.411   0.605 -0.2233  1.4706  1.5151
 2634TIP3    H229462   3.001   2.273   0.667  1.5412  0.7327 -0.2511
 2635TIP3   OH229463   5.831   3.519   0.292  0.0811 -0.1524  0.0336
 2635TIP3    H129464   5.781   3.455   0.342 -1.1066  0.9495  0.3225
 2635TIP3    H229465   5.792   3.516   0.204  0.5105 -0.3348 -0.1546
 2636TIP3   OH229466   3.842   0.159   8.141  0.9159  0.5478  0.0575
 2636TIP3    H129467   3.791   0.130   8.217  1.1094  0.4318  0.1465
 2636TIP3    H229468   3.877   0.078   8.104 -1.2892  0.3364 -1.7220
 2637TIP3   OH229469   0.778   3.692   8.397 -0.2526 -0.6529 -0.6891
 2637TIP3    H129470   0.839   3.702   8.470  0.7190 -1.2341 -1.3967
 2637TIP3    H229471   0.695   3.667   8.437 -0.4740  1.5958  0.4337
 2638TIP3   OH229472   2.453   3.720   8.237 -0.3099 -0.1402  0.4018
 2638TIP3    H129473   2.366   3.750   8.264 -1.2388 -1.8280 -0.5344
 2638TIP3    H229474   2.436   3.659   8.165  1.5575 -1.5782  1.1043
 2639TIP3   OH229475   1.338   0.004   7.045 -0.1848  0.0004  0.3794
 2639TIP3    H129476   1.285  -0.047   7.106 -0.9407  0.2106 -0.0875
 2639TIP3    H229477   1.428  -0.016   7.069 -0.4367  1.1436  2.4729
 2640TIP3   OH229478   3.798   3.658   1.476 -0.4718  0.8896  0.2427
 2640TIP3    H129479   3.805   3.749   1.505  0.0495  0.4787  1.5059
 2640TIP3    H229480   3.872   3.614   1.519 -0.3088 -0.0006 -0.8942
 2641TIP3   OH229481   6.399   1.039   1.280 -0.1716  0.2227 -0.5194
 2641TIP3    H129482   6.380   0.978   1.351  1.4816  1.2379  0.8564
 2641TIP3    H229483   6.370   1.124   1.313 -0.3311  0.5697 -1.4969
 2642TIP3   OH229484   5.514   3.222   1.408  0.3948 -0.7824  0.3785
 2642TIP3    H129485   5.451   3.211   1.479  0.5769  0.0686  0.6926
 2642TIP3    H229486   5.588   3.268   1.449 -0.0631  0.9477 -0.6556
 2643TIP3   OH229487   6.025   3.357   0.456 -0.0285 -0.1994 -0.3833
 2643TIP3    H129488   6.016   3.275   0.407  2.1619 -0.1366 -0.9961
 2643TIP3    H229489   5.998   3.425   0.394  0.9867 -0.2554 -0.9007
 2644TIP3   OH229490   0.537   3.627   8.514 -0.2192  0.1652 -0.1632
 2644TIP3    H129491   0.517   3.663   8.600  0.2568 -0.1223  0.0721
 2644TIP3    H229492   0.492   3.542   8.512 -3.0092  1.5235 -1.4599
 2645TIP3   OH229493   2.486   4.840   8.468  0.1688 -0.4420 -0.2037
 2645TIP3    H129494   2.441   4.756   8.476 -0.0651 -0.1792  1.7265
 2645TIP3    H229495   2.415   4.904   8.458  0.2277 -0.2778  0.3952
 2646TIP3   OH229496   2.386   0.327   1.900 -0.0521 -0.3316 -0.0369
 2646TIP3    H129497   2.469   0.310   1.943  0.4858  0.6354 -0.6620
 2646TIP3    H229498   2.331   0.252   1.923  1.2452 -1.3847 -0.2573
 2647TIP3   OH229499   6.798   3.640   3.163 -0.3061 -0.0530  0.3174
 2647TIP3    H129500   6.705   3.654   3.179 -0.3375  1.7289 -0.9969
 2647TIP3    H229501   6.802   3.565   3.103 -0.7181 -1.3933  1.9142
 2648TIP3   OH229502   1.744   5.246   1.183  0.3871 -0.2416 -0.1333
 2648TIP3    H129503   1.774   5.204   1.263 -1.9317  0.6168  1.2636
 2648TIP3    H229504   1.807   5.218   1.116  2.4930 -0.8518  1.9780
 2649TIP3   OH229505   6.171   3.938   2.277 -0.2263 -0.6681  0.2662
 2649TIP3    H129506   6.262   3.921   2.251  0.0697 -1.8156  1.9217
 2649TIP3    H229507   6.174   4.022   2.323  0.4949 -1.7858  2.4058
 2650TIP3   OH229508   4.967   0.083   2.019  0.3925 -0.4162  0.2075
 2650TIP3    H129509   4.888   0.110   2.065  0.9574  1.3378  0.1980
 2650TIP3    H229510   4.935   0.026   1.948 -0.6473 -1.4994  1.4898
 2651TIP3   OH229511   6.587   6.214   1.573 -0.2416 -0.3264  0.2918
 2651TIP3    H129512   6.651   6.145   1.557 -0.0909 -0.4710  1.4414
 2651TIP3    H229513   6.605   6.243   1.663 -2.9531 -1.6318  1.3709
 2652TIP3   OH229514   3.236   5.525   2.545  1.2404  0.0054  0.1130
 2652TIP3    H129515   3.269   5.438   2.564  1.5071 -0.5907 -2.6481
 2652TIP3    H229516   3.312   5.583   2.551  1.3637 -0.1990  0.5005
 2653TIP3   OH229517   5.066   4.607   0.725  0.2510 -0.3265 -0.2799
 2653TIP3    H129518   5.146   4.556   0.719  0.1062 -0.4973 -0.7259
 2653TIP3    H229519   5.094   4.697   0.708  0.1186 -0.5725 -1.9466
 2654TIP3   OH229520   4.652   0.549   8.018 -0.1613  0.4092  0.1983
 2654TIP3    H129521   4.606   0.528   8.099 -0.5197  0.5546  0.0332
 2654TIP3    H229522   4.657   0.645   8.018 -0.7929  0.4464 -0.2977
 2655TIP3   OH229523   4.613   0.240   0.215  0.0045  0.1812  0.4031
 2655TIP3    H129524   4.705   0.242   0.187  0.0727 -0.1003  0.6057
 2655TIP3    H229525   4.570   0.305   0.159  0.1402 -0.3790 -0.3691
 2656TIP3   OH229526   4.962   0.818   7.378  0.2749  0.3286  0.3553
 2656TIP3    H129527   5.009   0.742   7.344  1.1559  0.1041  1.9596
 2656TIP3    H229528   4.928   0.862   7.300 -0.3924 -1.7711 -0.5953
 2657TIP3   OH229529   6.607   5.815   0.062  0.2247  0.0579  0.6535
 2657TIP3    H129530   6.529   5.765   0.039 -0.3758  1.0243  0.5576
 2657TIP3    H229531   6.679   5.753   0.049 -0.5387 -0.9683  1.1326
 2658TIP3   OH229532   0.915   0.170   1.645 -0.4580  0.0439  0.1217
 2658TIP3    H129533   1.005   0.166   1.612 -1.0127 -2.0344 -1.3184
 2658TIP3    H229534   0.873   0.238   1.592  0.0943  0.6201  0.4089
 2659TIP3   OH229535   4.482   1.161   7.940  1.0088 -0.3258  1.0654
 2659TIP3    H129536   4.487   1.065   7.941  0.8689 -0.3439  0.4643
 2659TIP3    H229537   4.388   1.179   7.942  0.9088 -0.2656 -1.5197
 2660TIP3   OH229538   6.819   0.875   1.687  0.0617 -0.8218  0.1822
 2660TIP3    H129539   6.855   0.951   1.732 -1.8898 -0.0870  0.6352
 2660TIP3    H229540   6.818   0.900   1.595  0.4992 -0.7626  0.1935
 2661TIP3   OH229541   4.708   1.366   0.199  0.0033 -0.1557 -0.1759
 2661TIP3    H129542   4.731   1.286   0.245  0.7074  0.2754  0.2388
 2661TIP3    H229543   4.790   1.397   0.160 -0.2206  0.4548 -0.1797
 2662TIP3   OH229544   4.798   0.438   8.734 -0.2444 -0.5976  0.2226
 2662TIP3    H129545   4.859   0.386   8.681  0.8421 -0.5411  1.3862
 2662TIP3    H229546   4.853   0.499   8.782 -1.4433  1.2555 -0.6307
 2663TIP3   OH229547   2.680   1.800   1.426 -0.3684 -0.0599  0.6967
 2663TIP3    H129548   2.746   1.769   1.488  0.0161 -1.0049 -0.1558
 2663TIP3    H229549   2.730   1.842   1.356 -0.6251 -1.0992 -0.1327
 2664TIP3   OH229550   1.106   2.871   2.365  0.3389 -0.0258  0.5787
 2664TIP3    H129551   1.160   2.874   2.445 -2.1152  2.3575  2.3208
 2664TIP3    H229552   1.022   2.836   2.394 -0.4659  0.4149 -1.1129
 2665TIP3   OH229553   0.069   2.631   1.200 -0.2584 -0.1246  0.1734
 2665TIP3    H129554   0.107   2.642   1.113 -0.4409 -1.3529 -0.0841
 2665TIP3    H229555   0.058   2.720   1.233 -0.4114  0.3757 -1.1577
 2666TIP3   OH229556   3.583   3.621   8.271 -0.2974 -0.3615 -0.5805
 2666TIP3    H129557   3.565   3.677   8.347 -1.2376 -2.0790  0.5206
 2666TIP3    H229558   3.614   3.538   8.309 -1.8443 -1.6461 -2.0029
 2667TIP3   OH229559   3.049   2.414   8.694  0.3483  0.0703 -0.1526
 2667TIP3    H129560   3.091   2.477   8.753  1.7450 -1.4522  0.5625
 2667TIP3    H229561   3.111   2.404   8.622  0.1377 -0.4533 -0.2667
 2668TIP3   OH229562   2.034   6.491   8.275  0.3501 -0.4844  0.5645
 2668TIP3    H129563   1.995   6.423   8.330 -0.5645  1.0016  1.8029
 2668TIP3    H229564   2.124   6.498   8.307 -0.2798  0.6438  2.2116
 2669TIP3   OH229565   5.375   0.730   1.626 -0.2399  0.1700  0.5216
 2669TIP3    H129566   5.344   0.820   1.639 -1.8680 -0.1124 -1.0278
 2669TIP3    H229567   5.300   0.685   1.588  0.7672 -1.6994  0.6695
 2670TIP3   OH229568   4.044   6.130   7.584 -0.6126 -0.5920 -0.1348
 2670TIP3    H129569   4.023   6.222   7.567  0.0869 -0.8108 -2.5623
 2670TIP3    H229570   3.966   6.082   7.557 -0.4614 -0.7817 -0.2425
 2671TIP3   OH229571   4.597   0.300   1.544  0.0983  0.4319  0.0170
 2671TIP3    H129572   4.519   0.303   1.600  1.3380 -0.1741  1.8461
 2671TIP3    H229573   4.629   0.211   1.551  1.3844  0.8638 -0.1013
 2672TIP3   OH229574   4.061   2.817   2.723  0.0484  0.1022 -0.1877
 2672TIP3    H129575   4.140   2.763   2.711  0.0546  0.1594 -0.4171
 2672TIP3    H229576   4.016   2.812   2.638  0.7715  1.6076 -0.6926
 2673TIP3   OH229577   1.517   0.934   8.106 -0.2565  0.2075 -0.3683
 2673TIP3    H129578   1.524   1.029   8.115 -0.3693  0.1032  1.1116
 2673TIP3    H229579   1.476   0.905   8.188 -0.5209 -1.0872 -0.9271
 2674TIP3   OH229580   4.376   1.341   7.363 -0.3822  0.7381  0.0576
 2674TIP3    H129581   4.326   1.380   7.291 -2.8835 -0.9484  0.7575
 2674TIP3    H229582   4.343   1.252   7.371  1.4260  0.1340  1.8643
 2675TIP3   OH229583   1.098   5.586   0.965  0.8499 -0.2037 -0.5113
 2675TIP3    H129584   1.111   5.675   0.997  1.6682 -0.4232 -0.2220
 2675TIP3    H229585   1.008   5.564   0.991  0.1403  1.0152 -1.7573
 2676TIP3   OH229586   3.332   0.622   8.441 -0.0695 -1.0701  0.0540
 2676TIP3    H129587   3.382   0.575   8.374 -0.0759 -1.0442  0.0311
 2676TIP3    H229588   3.358   0.713   8.431 -0.9983 -0.8660 -0.7531
 2677TIP3   OH229589   4.037   5.998   1.287 -0.2310  0.6335  0.3532
 2677TIP3    H129590   4.078   5.953   1.212 -1.2276 -1.4514  0.9951
 2677TIP3    H229591   3.982   6.065   1.247 -0.6216 -0.3363 -0.8159
 2678TIP3   OH229592   1.737   0.816   0.590  0.5428  0.0450 -0.3195
 2678TIP3    H129593   1.689   0.898   0.600  1.5037  0.7038 -0.9012
 2678TIP3    H229594   1.794   0.812   0.667  2.2460  1.1806 -1.4311
 2679TIP3   OH229595   4.085   4.279   1.300 -0.1615 -0.5189 -0.4266
 2679TIP3    H129596   4.103   4.201   1.248 -1.2218 -1.4385  0.5142
 2679TIP3    H229597   3.989   4.280   1.309 -0.0066 -0.6401  1.8125
 2680TIP3   OH229598   1.988   1.597   7.256 -0.8278  0.3891  0.1797
 2680TIP3    H129599   1.899   1.585   7.223 -0.5649 -0.4159 -0.2691
 2680TIP3    H229600   1.989   1.686   7.291 -2.2040 -0.0577  1.4480
 2681TIP3   OH229601   4.244   2.995   7.764  0.1369  0.0482 -0.1209
 2681TIP3    H129602   4.284   2.997   7.677 -1.1795 -1.4325 -0.8055
 2681TIP3    H229603   4.196   3.078   7.770 -0.2992 -0.1185 -1.0905
 2682TIP3   OH229604   1.002   0.873   2.203 -0.1919 -0.6164 -0.2670
 2682TIP3    H129605   1.077   0.814   2.193  0.4120 -0.0544  0.8482
 2682TIP3    H229606   0.958   0.842   2.282 -0.0431  0.2384  0.1579
 2683TIP3   OH229607   3.581   3.993   7.303  0.2308  0.1226 -0.4201
 2683TIP3    H129608   3.491   4.021   7.290  0.0923  0.7366  1.5782
 2683TIP3    H229609   3.611   3.966   7.216 -2.1696 -1.0270 -0.9571
 2684TIP3   OH229610   5.770   0.815   8.632 -0.1954 -0.0709  0.1714
 2684TIP3    H129611   5.770   0.911   8.639  2.3595 -0.0729  1.4258
 2684TIP3    H229612   5.683   0.793   8.599 -0.6599  2.7057 -0.7046
 2685TIP3   OH229613   3.027   1.660   1.975 -0.0958  0.2399  0.4850
 2685TIP3    H129614   2.945   1.636   2.017 -1.6896  0.7709 -2.0461
 2685TIP3    H229615   3.021   1.756   1.965  0.5765  0.2215 -0.1681
 2686TIP3   OH229616   6.751   4.241   7.421 -0.3083  0.6333 -0.0134
 2686TIP3    H129617   6.806   4.268   7.348 -0.4507  2.8857  0.6391
 2686TIP3    H229618   6.783   4.154   7.445  0.5013  0.3344 -1.9662
 2687TIP3   OH229619   1.016   4.754   0.336  0.1928  0.4395 -0.3537
 2687TIP3    H129620   1.030   4.836   0.289 -0.6878  0.2989 -0.8901
 2687TIP3    H229621   1.069   4.690   0.289 -0.3952  0.3779 -0.9634
 2688TIP3   OH229622   6.805   0.282   1.408 -0.2277  0.1057  0.5945
 2688TIP3    H129623   6.748   0.353   1.435 -0.5837  0.9422 -2.0461
 2688TIP3    H229624   6.770   0.204   1.452  0.5459  1.5311  4.0464
 2689TIP3   OH229625   1.639   4.827   2.858  0.0555  0.3189  0.3708
 2689TIP3    H129626   1.647   4.911   2.903 -0.4035  0.5449  0.0484
 2689TIP3    H229627   1.724   4.813   2.817  0.0794  0.7130  0.2829
 2690TIP3   OH229628   3.990   4.868   7.385  0.4240  0.4970  0.5265
 2690TIP3    H129629   3.955   4.781   7.405 -0.3219  0.4481 -0.8348
 2690TIP3    H229630   4.013   4.864   7.292 -0.0953  1.8850  0.3061
 2691TIP3   OH229631   1.254   2.414   7.235  0.0925  0.5759 -0.3261
 2691TIP3    H129632   1.276   2.349   7.168 -0.1137  0.1875 -0.0290
 2691TIP3    H229633   1.240   2.362   7.314 -0.8953  0.8918 -0.2717
 2692TIP3   OH229634   3.574   2.481   0.142  0.0756 -0.8022  0.0054
 2692TIP3    H129635   3.589   2.396   0.184 -1.1929 -0.4039  1.3760
 2692TIP3    H229636   3.501   2.519   0.191  0.0304  0.7057 -1.1526
 2693TIP3   OH229637   0.502   3.874   1.832 -0.3917  0.4028 -0.5661
 2693TIP3    H129638   0.532   3.805   1.773 -1.9082 -0.3937 -0.4480
 2693TIP3    H229639   0.548   3.857   1.915 -0.1643  0.0179 -0.7729
 2694TIP3   OH229640   2.748   3.646   7.679 -0.2356  0.5964 -0.2211
 2694TIP3    H129641   2.797   3.712   7.629 -0.7347  0.3118 -1.1124
 2694TIP3    H229642   2.688   3.608   7.615 -0.6162 -0.0619  0.5158
 2695TIP3   OH229643   0.713   2.704   0.280  0.3368 -0.0022  0.5909
 2695TIP3    H129644   0.649   2.676   0.345  0.3702  0.7156  0.9362
 2695TIP3    H229645   0.757   2.623   0.254 -0.2107 -0.4006  0.8812
 2696TIP3   OH229646   6.358   3.214   0.462 -0.0536 -0.6236  0.6472
 2696TIP3    H129647   6.319   3.151   0.523  1.4305 -2.6274 -0.3422
 2696TIP3    H229648   6.449   3.185   0.454  0.6964  1.7166  0.1598
 2697TIP3   OH229649   0.528   0.708   8.286 -0.1364 -0.6395  0.1675
 2697TIP3    H129650   0.464   0.641   8.309 -0.7244  0.1309  0.8536
 2697TIP3    H229651   0.584   0.715   8.364  0.1592 -0.6018 -0.0464
 2698TIP3   OH229652   5.817   2.837   0.243 -0.6480 -0.4332 -0.4706
 2698TIP3    H129653   5.730   2.874   0.257 -0.0783  1.2132 -0.9711
 2698TIP3    H229654   5.825   2.830   0.148 -0.0956 -0.1490 -0.4532
 2699TIP3   OH229655   3.989   4.308   8.721  0.0413 -0.1593 -0.5830
 2699TIP3    H129656   3.918   4.286   8.782  1.8331 -1.9300  0.9862
 2699TIP3    H229657   3.946   4.309   8.635 -2.0048 -0.4757  0.3683
 2700TIP3   OH229658   4.294   3.609   0.451  0.3306  0.4519 -0.7826
 2700TIP3    H129659   4.358   3.609   0.380 -0.0418 -0.2607 -1.1292
 2700TIP3    H229660   4.242   3.530   0.437  0.4658  0.1129  0.4757
 2701TIP3   OH229661   5.832   2.751   1.171 -0.3713 -0.3274  0.3660
 2701TIP3    H129662   5.868   2.828   1.128  0.2846  0.7142  2.6480
 2701TIP3    H229663   5.794   2.700   1.100  0.2270  1.5031 -1.3625
 2702TIP3   OH229664   4.766   5.146   1.945 -0.2189 -0.6898 -0.2243
 2702TIP3    H129665   4.725   5.122   1.862  0.3364  0.5421 -0.8892
 2702TIP3    H229666   4.694   5.177   1.999 -0.5188 -0.9750 -0.4577
 2703TIP3   OH229667   6.504   3.497   2.445 -0.1643  0.5513  0.0871
 2703TIP3    H129668   6.453   3.539   2.514 -0.2553  0.5588  0.0173
 2703TIP3    H229669   6.592   3.487   2.481 -0.6582 -1.1788  0.9235
 2704TIP3   OH229670   1.592   0.536   3.061  0.1907 -0.7754  0.5704
 2704TIP3    H129671   1.569   0.495   3.145 -0.3444 -0.6902  0.4704
 2704TIP3    H229672   1.684   0.560   3.071  0.2687 -1.2067  0.9554
 2705TIP3   OH229673   2.937   4.209   0.364  0.5696  0.2733 -0.1849
 2705TIP3    H129674   2.981   4.165   0.436  0.3020  1.1865  0.5525
 2705TIP3    H229675   2.994   4.195   0.289  1.0409 -0.3654  0.2850
 2706TIP3   OH229676   3.286   2.283   1.457  0.2974 -0.2555  0.0015
 2706TIP3    H129677   3.288   2.231   1.537 -0.6047  0.0849  0.2591
 2706TIP3    H229678   3.264   2.371   1.487  0.4091 -0.0258 -0.5824
 2707TIP3   OH229679   3.566   1.865   8.593  0.2189  0.4389 -0.2281
 2707TIP3    H129680   3.658   1.890   8.601  0.7407 -1.2396 -0.6518
 2707TIP3    H229681   3.559   1.781   8.637 -0.9301  0.1241 -0.9584
 2708TIP3   OH229682   2.327   6.248   8.120  0.2240 -0.6246 -0.1164
 2708TIP3    H129683   2.399   6.199   8.081  0.6018 -1.8849  1.9725
 2708TIP3    H229684   2.338   6.337   8.088  0.6594 -1.4763 -2.5300
 2709TIP3   OH229685   1.540   6.359   0.613 -0.5451 -0.1036  0.1103
 2709TIP3    H129686   1.479   6.378   0.541 -3.0910 -1.0928  1.8721
 2709TIP3    H229687   1.557   6.445   0.652 -0.9248  0.1748 -0.3115
 2710TIP3   OH229688   5.611   4.354   2.894  0.0017 -0.1863  0.4188
 2710TIP3    H129689   5.663   4.276   2.872 -0.0170  0.0821 -0.6330
 2710TIP3    H229690   5.644   4.382   2.979  2.6130  0.8060 -0.8100
 2711TIP3   OH229691   5.889   2.180   0.530 -0.2089 -0.2030 -0.6040
 2711TIP3    H129692   5.885   2.266   0.488  0.2584  0.0142 -0.2071
 2711TIP3    H229693   5.831   2.187   0.605 -0.5997 -0.4126 -0.8819
 2712TIP3   OH229694   1.938   2.882   7.862  0.2068  0.2429 -0.2616
 2712TIP3    H129695   1.899   2.801   7.830  0.7752  0.1605 -0.7651
 2712TIP3    H229696   2.028   2.880   7.829  0.1675  1.1647 -0.4484
 2713TIP3   OH229697   4.516   1.065   6.801  0.3174  0.3011  0.3836
 2713TIP3    H129698   4.567   1.005   6.747 -0.3198  1.0460 -1.1163
 2713TIP3    H229699   4.505   1.019   6.884  0.1491 -1.4930 -0.5789
 2714TIP3   OH229700   3.049   4.454   2.442 -0.3147 -0.1920 -0.1743
 2714TIP3    H129701   3.107   4.382   2.465 -1.4185 -0.4615  2.0395
 2714TIP3    H229702   3.030   4.497   2.525 -0.1050  2.3752 -1.3676
 2715TIP3   OH229703   2.076   1.806   8.659  0.3838  0.2327  0.1575
 2715TIP3    H129704   2.047   1.786   8.570  1.4379 -0.1807 -0.1041
 2715TIP3    H229705   2.111   1.895   8.653 -0.6697  0.6814  0.4445
 2716TIP3   OH229706   1.145   5.286   7.948 -0.1891  0.8885  0.1842
 2716TIP3    H129707   1.058   5.247   7.955 -0.2438  1.0048  0.1556
 2716TIP3    H229708   1.202   5.213   7.925 -0.3809  0.9296 -0.4245
 2717TIP3   OH229709   0.782   1.771   7.770  0.4481 -0.4591  0.1392
 2717TIP3    H129710   0.739   1.687   7.752 -0.8778  0.3454 -0.6070
 2717TIP3    H229711   0.741   1.802   7.852  1.0902 -0.6266  0.5323
 2718TIP3   OH229712   5.005   5.739   7.768 -0.1584  0.2868 -0.4929
 2718TIP3    H129713   4.954   5.815   7.739  1.4432  1.3743 -0.5804
 2718TIP3    H229714   5.086   5.745   7.717  0.5717 -0.6877  0.5387
 2719TIP3   OH229715   0.034   3.521   0.738  0.0317  0.2262 -0.1285
 2719TIP3    H129716  -0.016   3.487   0.664 -1.1455  2.5154 -0.4603
 2719TIP3    H229717   0.052   3.612   0.715 -1.3921  1.3684  2.8722
 2720TIP3   OH229718   0.988   4.251   1.833 -0.7177  0.0613 -0.1099
 2720TIP3    H129719   1.016   4.310   1.902 -1.0873  0.1947 -0.0742
 2720TIP3    H229720   0.911   4.206   1.868 -2.6603  2.1430 -1.4230
 2721TIP3   OH229721   4.966   4.465   8.298  0.4568  0.4333  0.0637
 2721TIP3    H129722   4.920   4.477   8.382  0.2127  0.9156 -0.1338
 2721TIP3    H229723   4.980   4.371   8.292  1.6063  0.5020  1.2366
 2722TIP3   OH229724   5.679   5.240   7.704 -0.2420  0.5130  0.0717
 2722TIP3    H129725   5.614   5.299   7.666  0.2997  0.5768 -0.7830
 2722TIP3    H229726   5.679   5.163   7.647 -0.1030  0.1885  0.4992
 2723TIP3   OH229727   6.625   2.854   0.457 -0.7766  0.2830  0.2756
 2723TIP3    H129728   6.615   2.948   0.468  0.9495  0.5405 -0.0387
 2723TIP3    H229729   6.589   2.835   0.370 -0.1261  0.8504 -0.1251
 2724TIP3   OH229730   4.891   6.146   1.822  0.0358 -0.0219  0.5849
 2724TIP3    H129731   4.937   6.064   1.801 -1.9583 -1.4156  1.3195
 2724TIP3    H229732   4.890   6.148   1.918 -0.8910  0.2858  0.5744
 2725TIP3   OH229733   5.811   5.896   7.410  0.0958  0.4740 -0.0501
 2725TIP3    H129734   5.902   5.881   7.436  0.0327 -3.8078 -1.3612
 2725TIP3    H229735   5.816   5.914   7.316 -0.3729  2.7402  0.3056
 2726TIP3   OH229736   1.657   5.164   2.667  0.2276 -0.1048 -0.1707
 2726TIP3    H129737   1.570   5.142   2.632  0.5267  1.0393 -1.7111
 2726TIP3    H229738   1.719   5.123   2.607  0.7574  0.2031  0.1548
 2727TIP3   OH229739   1.928   1.902   2.858  0.3388 -0.0594 -0.3414
 2727TIP3    H129740   1.902   1.868   2.944 -1.5805 -0.4920 -1.0343
 2727TIP3    H229741   1.904   1.995   2.860 -2.3984 -0.6366 -1.2831
 2728TIP3   OH229742   1.747   3.504   2.214 -0.5713  0.0329  0.5152
 2728TIP3    H129743   1.655   3.523   2.198 -0.7574 -0.7598  0.5998
 2728TIP3    H229744   1.747   3.416   2.252 -0.0851  1.4416  4.1435
 2729TIP3   OH229745   0.400   2.981   2.656  0.9970 -0.3550  0.4448
 2729TIP3    H129746   0.355   2.900   2.678 -1.3902  0.2551 -1.6580
 2729TIP3    H229747   0.364   3.046   2.717  0.9739 -0.3894  0.4676
 2730TIP3   OH229748   2.215   1.937   0.130  0.1096  0.0643  0.5529
 2730TIP3    H129749   2.224   1.846   0.160 -0.9835 -0.5800 -0.9256
 2730TIP3    H229750   2.275   1.987   0.185  0.1314 -1.4297  1.9546
 2731TIP3   OH229751   0.203   5.889   0.129 -0.1619 -0.2723  0.3349
 2731TIP3    H129752   0.163   5.826   0.189 -0.0407  0.0322  0.7344
 2731TIP3    H229753   0.274   5.929   0.178  1.0209 -1.2017 -0.5569
 2732TIP3   OH229754   2.606   1.058   0.983  0.1271  0.0331 -0.1671
 2732TIP3    H129755   2.606   0.971   1.022  1.9968  1.3150  3.2024
 2732TIP3    H229756   2.540   1.055   0.914  0.5157 -4.1315 -0.5537
 2733TIP3   OH229757   6.174   1.687   2.028  0.0009 -0.1544  0.4695
 2733TIP3    H129758   6.156   1.652   2.115  1.0699  1.4560  1.3879
 2733TIP3    H229759   6.177   1.782   2.041 -1.5573  0.2629 -1.6751
 2734TIP3   OH229760   2.746   3.602   1.796  0.1859 -0.1240 -0.3906
 2734TIP3    H129761   2.822   3.655   1.820 -0.4261  0.1946  0.9081
 2734TIP3    H229762   2.671   3.648   1.834 -0.4895 -1.2607 -0.2962
 2735TIP3   OH229763   1.438   4.443   7.042  0.6950  0.3607 -0.6757
 2735TIP3    H129764   1.431   4.360   6.994  1.7957  0.1107 -0.4307
 2735TIP3    H229765   1.347   4.471   7.054  0.1605 -1.7171  0.8140
 2736TIP3   OH229766   0.500   1.158   2.489  0.6547 -0.2159  0.1206
 2736TIP3    H129767   0.477   1.175   2.580  2.1386 -0.8083  0.6346
 2736TIP3    H229768   0.491   1.244   2.446  0.6108  0.2143  0.9690
 2737TIP3   OH229769   5.769   5.622   8.002  0.1768  0.0753 -0.1707
 2737TIP3    H129770   5.745   5.711   8.028  1.4199  0.1430  0.8494
 2737TIP3    H229771   5.799   5.581   8.082  2.9478 -0.1378 -1.1977
 2738TIP3   OH229772   5.887   5.571   8.445  0.2195  0.0072  0.1301
 2738TIP3    H129773   5.849   5.658   8.433 -0.5460 -0.4787 -1.1110
 2738TIP3    H229774   5.844   5.537   8.523 -1.3422 -0.2088 -0.7817
 2739TIP3   OH229775   5.547   2.687   8.696  0.1377 -0.1461 -0.2500
 2739TIP3    H129776   5.483   2.706   8.765  0.9120  1.0089  0.1716
 2739TIP3    H229777   5.613   2.633   8.739  0.5880  0.5213 -0.0937
 2740TIP3   OH229778   6.768   0.912   0.910  0.3108 -0.3945 -0.1534
 2740TIP3    H129779   6.677   0.907   0.939  0.3124 -0.6626 -0.1927
 2740TIP3    H229780   6.818   0.868   0.978  0.3987 -0.3586 -0.1942
 2741TIP3   OH229781   3.283   1.508   1.431 -0.0830 -0.3009 -0.0074
 2741TIP3    H129782   3.321   1.548   1.353 -0.0206 -1.4663 -0.5930
 2741TIP3    H229783   3.238   1.430   1.399 -0.3508 -0.6139  1.0824
 2742TIP3   OH229784   4.092   4.272   7.519  0.1689  0.6138  0.0941
 2742TIP3    H129785   4.067   4.310   7.434  0.9931  0.3851 -0.2638
 2742TIP3    H229786   4.167   4.324   7.547 -0.6391  1.2587  1.1270
 2743TIP3   OH229787   0.033   0.055   2.250  0.2130 -0.2479  0.3062
 2743TIP3    H129788   0.020   0.085   2.340  0.2973  2.6964 -0.5507
 2743TIP3    H229789  -0.031  -0.016   2.239 -2.8971  2.1148  1.4847
 2744TIP3   OH229790   5.215   1.805   0.258 -0.5181  0.0159 -0.2036
 2744TIP3    H129791   5.156   1.730   0.261  0.6155 -0.8832  1.0666
 2744TIP3    H229792   5.302   1.767   0.271  0.2059  1.4499 -0.6413
 2745TIP3   OH229793   5.399   5.238   8.499 -0.4602  0.0991 -0.1734
 2745TIP3    H129794   5.464   5.173   8.471  0.5521  1.3451 -0.8020
 2745TIP3    H229795   5.398   5.229   8.595  0.1656 -0.3899 -0.1986
 2746TIP3   OH229796   3.491   0.794   3.392 -0.0645 -0.1308 -0.3454
 2746TIP3    H129797   3.536   0.731   3.449 -0.0362  1.4295  1.4578
 2746TIP3    H229798   3.398   0.786   3.416 -0.4797 -1.3700 -2.0939
 2747TIP3   OH229799   4.805   6.830   2.506  0.1981  0.2346  0.4443
 2747TIP3    H129800   4.742   6.826   2.434  1.9523  0.2674 -1.1722
 2747TIP3    H229801   4.859   6.752   2.495  0.5581  0.2706  1.7181
 2748TIP3   OH229802   6.360   2.754   7.954  0.0639 -0.5643 -0.1543
 2748TIP3    H129803   6.369   2.801   7.871  0.0771  0.1134  0.2188
 2748TIP3    H229804   6.323   2.819   8.014  0.5845 -0.8781  0.5176
 2749TIP3   OH229805   4.928   2.456   1.400 -0.8404  0.4609 -0.7083
 2749TIP3    H129806   4.942   2.376   1.450 -0.8827 -1.3442 -3.3605
 2749TIP3    H229807   4.846   2.441   1.352 -2.2956  3.2390  0.6538
 2750TIP3   OH229808   5.921   5.701   2.370 -0.5135 -0.3278  0.1571
 2750TIP3    H129809   5.841   5.656   2.342 -1.6409  1.1951  0.8666
 2750TIP3    H229810   5.951   5.652   2.447  0.6632 -2.3941 -1.4980
 2751TIP3   OH229811   1.710   5.063   8.747  0.5495  0.4708  0.3412
 2751TIP3    H129812   1.740   5.096   8.832  1.8254  0.0943  0.0598
 2751TIP3    H229813   1.775   4.998   8.723 -1.3783 -1.5978  0.4152
 2752TIP3   OH229814   4.886   4.525   8.562 -0.1770  0.0944 -0.5099
 2752TIP3    H129815   4.940   4.470   8.619 -1.3494  0.1434  0.6903
 2752TIP3    H229816   4.814   4.554   8.618  0.1400  2.4821 -1.2367
 2753TIP3   OH229817   1.417   4.434   1.331 -0.3975  0.8554 -0.1379
 2753TIP3    H129818   1.512   4.425   1.338 -0.3331  1.9028  0.4555
 2753TIP3    H229819   1.384   4.413   1.418 -0.8233 -0.5133 -0.5929
 2754TIP3   OH229820   3.092   1.159   0.764 -0.2292  0.0043 -0.4099
 2754TIP3    H129821   3.123   1.213   0.837 -0.2426  0.8719 -1.0321
 2754TIP3    H229822   2.997   1.153   0.777 -0.2598  0.3343 -0.4705
 2755TIP3   OH229823   0.554   1.103   1.787  0.6985 -0.1052 -0.0383
 2755TIP3    H129824   0.646   1.123   1.806  0.7292 -2.1676  2.5321
 2755TIP3    H229825   0.557   1.022   1.737  0.2889 -0.3793  0.3763
 2756TIP3   OH229826   4.810   6.101   2.083  0.1680  0.3263  0.5551
 2756TIP3    H129827   4.723   6.063   2.086  0.1811  0.1869 -0.5486
 2756TIP3    H229828   4.854   6.066   2.160 -1.0589  1.2079  1.7097
 2757TIP3   OH229829   5.972   1.587   0.100  0.3215 -0.2185  0.0477
 2757TIP3    H129830   5.997   1.661   0.155 -0.7923 -0.4699  0.9547
 2757TIP3    H229831   6.000   1.510   0.150  1.4770 -0.4217 -0.8890
 2758TIP3   OH229832   4.386   4.573   2.889  0.1839  0.1154  0.1868
 2758TIP3    H129833   4.316   4.587   2.953 -1.1652  1.1807 -1.4302
 2758TIP3    H229834   4.379   4.481   2.866 -0.2590  0.0589  0.5342
 2759TIP3   OH229835   6.203   1.954   2.067 -0.0187 -0.3581  0.3025
 2759TIP3    H129836   6.135   1.972   2.132 -3.0059 -1.6241 -2.2637
 2759TIP3    H229837   6.188   2.019   1.998  0.2970 -1.6943 -1.0677
 2760TIP3   OH229838   3.721   2.786   3.139  0.8912 -0.1288 -0.4427
 2760TIP3    H129839   3.775   2.821   3.067  1.1278  0.8435  0.1964
 2760TIP3    H229840   3.632   2.814   3.119  1.0464  0.6517 -0.0520
 2761TIP3   OH229841   0.626   4.791   7.457 -0.6266  0.4408 -0.6073
 2761TIP3    H129842   0.630   4.711   7.405  1.1903 -0.5713  0.9838
 2761TIP3    H229843   0.559   4.774   7.523  1.2347 -0.7072  1.0833
 2762TIP3   OH229844   6.033   6.161   7.726 -0.6531  0.2518  0.2850
 2762TIP3    H129845   5.954   6.106   7.733 -0.2905 -0.2927  0.2064
 2762TIP3    H229846   6.033   6.191   7.635  0.1145 -1.1338 -0.2007
 2763TIP3   OH229847   6.507   3.100   8.415 -0.5284  0.0625  0.8081
 2763TIP3    H129848   6.449   3.050   8.357 -0.2364  0.2317  0.3723
 2763TIP3    H229849   6.448   3.160   8.461 -0.3896  2.5741 -1.9860
 2764TIP3   OH229850   6.266   4.458   8.413 -0.3768  0.0737 -0.0038
 2764TIP3    H129851   6.177   4.422   8.416 -0.3274 -0.3944 -2.3629
 2764TIP3    H229852   6.275   4.493   8.324  1.5284  0.8629  0.4534
 2765TIP3   OH229853   1.554   3.001   7.694 -0.8384 -0.5634  0.3203
 2765TIP3    H129854   1.605   3.055   7.753 -2.4350 -0.7975  2.0302
 2765TIP3    H229855   1.618   2.946   7.650  0.5678  0.8728  0.4988
 2766TIP3   OH229856   2.588   2.052   2.752 -0.4231  0.1404  0.0058
 2766TIP3    H129857   2.567   2.103   2.830 -2.1210  0.2934 -0.5308
 2766TIP3    H229858   2.655   1.989   2.783 -0.6053  0.5990  1.4212
 2767TIP3   OH229859   1.556   4.661   1.059  0.0529  0.3109 -0.0625
 2767TIP3    H129860   1.595   4.574   1.056 -0.5535  0.0297  0.0537
 2767TIP3    H229861   1.522   4.670   1.148  0.2590  0.7296 -0.0250
 2768TIP3   OH229862   6.663   0.253   7.463  0.3824 -0.0642  0.1538
 2768TIP3    H129863   6.658   0.298   7.379 -0.6784  0.4134  0.4626
 2768TIP3    H229864   6.625   0.166   7.446 -1.0036  0.4685  0.4142
 2769TIP3   OH229865   1.906   6.356   0.283  0.2768  0.3313 -0.0325
 2769TIP3    H129866   1.994   6.358   0.322 -0.1620  1.5999  0.9659
 2769TIP3    H229867   1.853   6.310   0.348 -0.0585  0.7203 -0.0267
 2770TIP3   OH229868   6.524   6.766   1.954  0.2508 -0.6957  0.1526
 2770TIP3    H129869   6.438   6.801   1.934  0.6197  0.4411  0.4478
 2770TIP3    H229870   6.541   6.702   1.886 -0.3918 -0.1562 -0.5251
 2771TIP3   OH229871   4.994   1.628   1.308  0.1721 -0.1383 -0.7660
 2771TIP3    H129872   4.902   1.623   1.280  0.3450  0.4004 -1.4411
 2771TIP3    H229873   5.029   1.704   1.262  0.5198  0.6956  0.7780
 2772TIP3   OH229874   3.752   5.971   2.414 -0.5433 -0.0775 -0.0710
 2772TIP3    H129875   3.817   6.006   2.475  0.5675 -0.2359 -1.1271
 2772TIP3    H229876   3.714   5.896   2.460 -1.4765  1.1945  1.3743
 2773TIP3   OH229877   1.746   3.399   8.247 -0.0778  0.1339  0.4247
 2773TIP3    H129878   1.691   3.445   8.310 -1.4797  0.4837 -0.9989
 2773TIP3    H229879   1.692   3.326   8.216 -0.0335  0.8378 -1.4490
 2774TIP3   OH229880   0.093   1.009   3.151  0.2393 -0.0550 -0.2624
 2774TIP3    H129881   0.091   0.914   3.140 -1.6134  0.0725 -1.4711
 2774TIP3    H229882   0.020   1.041   3.098  0.9128  2.0677 -0.0037
 2775TIP3   OH229883   0.268   2.789   2.852 -0.0556 -0.1495  1.0374
 2775TIP3    H129884   0.261   2.866   2.909 -0.6893 -0.5262  1.4818
 2775TIP3    H229885   0.235   2.717   2.905  1.2304 -0.8737  0.8846
 2776TIP3   OH229886   0.520   2.461   1.369 -0.0394 -0.0845  0.2583
 2776TIP3    H129887   0.433   2.493   1.390 -0.9013 -0.2683 -2.6738
 2776TIP3    H229888   0.579   2.533   1.391 -1.3737  1.5372 -1.2048
 2777TIP3   OH229889   4.122   0.006   7.652 -0.1468 -0.1382  0.4267
 2777TIP3    H129890   4.176  -0.069   7.627 -0.4370 -1.6816  3.8370
 2777TIP3    H229891   4.184   0.072   7.682 -0.0146 -0.0937  0.0689
 2778TIP3   OH229892   2.221   4.504   7.399 -0.2691 -0.4417  0.2962
 2778TIP3    H129893   2.311   4.537   7.394 -0.7941  0.8970 -3.9695
 2778TIP3    H229894   2.174   4.572   7.448  0.4396  0.5768 -0.3916
 2779TIP3   OH229895   3.023   1.228   8.189 -0.2220  0.0004  0.7117
 2779TIP3    H129896   3.106   1.275   8.178  0.3339 -1.2298 -0.8703
 2779TIP3    H229897   3.045   1.153   8.244 -0.1301 -0.6015 -0.1180
 2780TIP3   OH229898   0.233   3.323   1.352  0.6014 -0.3844  0.2041
 2780TIP3    H129899   0.172   3.394   1.372  0.3773 -0.7270  0.7460
 2780TIP3    H229900   0.319   3.356   1.379  0.4689 -0.3936  0.6442
 2781TIP3   OH229901   2.977   3.546   0.066 -0.1770 -0.2864  0.3678
 2781TIP3    H129902   3.019   3.614   0.119  0.4079 -0.5010  0.1815
 2781TIP3    H229903   3.014   3.557  -0.021  0.2440 -1.1231  0.4333
 2782TIP3   OH229904   3.263   5.529   2.253 -0.4614 -0.2751  0.3895
 2782TIP3    H129905   3.197   5.462   2.271 -0.9528 -0.3844 -1.5959
 2782TIP3    H229906   3.277   5.573   2.337 -2.4000 -0.8459  1.0494
 2783TIP3   OH229907   6.194   3.470   1.116 -0.2322 -0.2884  0.4140
 2783TIP3    H129908   6.276   3.428   1.090 -0.5431 -0.3361 -0.5377
 2783TIP3    H229909   6.219   3.529   1.187  0.9457  0.8995 -0.8991
 2784TIP3   OH229910   5.344   5.795   1.901  0.1643  0.1719  0.2476
 2784TIP3    H129911   5.372   5.797   1.993 -2.2930 -0.1416  1.0703
 2784TIP3    H229912   5.250   5.779   1.905  0.0720 -0.3481 -2.3686
 2785TIP3   OH229913   2.628   2.675   7.821  0.1440 -0.1282  1.1643
 2785TIP3    H129914   2.637   2.590   7.777  1.0362  1.1619 -1.3689
 2785TIP3    H229915   2.535   2.684   7.838 -0.1523 -0.9872  0.0906
 2786TIP3   OH229916   0.898   2.435   2.600  0.4848 -0.7215  0.0530
 2786TIP3    H129917   0.978   2.450   2.550 -0.3931  0.9215 -0.9504
 2786TIP3    H229918   0.827   2.445   2.536 -0.6392  0.5240  1.4191
 2787TIP3   OH229919   1.720   4.110   8.358 -0.1319  0.3877  0.2287
 2787TIP3    H129920   1.809   4.138   8.337  0.1435  0.2448  1.1485
 2787TIP3    H229921   1.690   4.174   8.422 -2.2220  2.8817 -2.9260
 2788TIP3   OH229922   3.951   1.501   0.595  0.3084 -0.4206  0.2289
 2788TIP3    H129923   3.938   1.595   0.611  1.2436 -0.3723  0.7899
 2788TIP3    H229924   3.864   1.463   0.602 -0.1955  0.5021 -0.7280
 2789TIP3   OH229925   5.022   1.245   8.482  0.2569 -0.1707 -0.1108
 2789TIP3    H129926   5.103   1.284   8.450 -0.0512 -0.4587 -1.2877
 2789TIP3    H229927   5.049   1.164   8.524  0.8644  1.0370  2.0042
 2790TIP3   OH229928   2.629   1.490   1.692  0.0839  0.2172  0.0614
 2790TIP3    H129929   2.572   1.418   1.664  0.2073  0.1713 -0.0723
 2790TIP3    H229930   2.623   1.553   1.620  0.3528  0.1263 -0.0442
 2791TIP3   OH229931   1.769   3.446   2.879 -0.5376 -0.1225 -0.2700
 2791TIP3    H129932   1.748   3.358   2.847  0.3222 -1.7998  3.2306
 2791TIP3    H229933   1.692   3.472   2.930 -0.7544  1.1871 -1.2182
 2792TIP3   OH229934   5.914   2.714   2.778  0.2254  0.0668 -0.1885
 2792TIP3    H129935   5.967   2.666   2.843  1.4912  0.4980 -0.8699
 2792TIP3    H229936   5.967   2.791   2.756 -1.2364  1.1747 -0.0042
 2793TIP3   OH229937   3.388   1.801   0.335 -0.0822 -0.3821 -0.3092
 2793TIP3    H129938   3.328   1.739   0.377  0.8438 -0.2433  1.2818
 2793TIP3    H229939   3.352   1.887   0.358 -0.4474 -0.3111 -1.1345
 2794TIP3   OH229940   2.705   2.588   0.400 -0.2443 -0.1194 -0.2976
 2794TIP3    H129941   2.677   2.657   0.460  1.2953  0.6987 -0.4844
 2794TIP3    H229942   2.736   2.634   0.322  0.9595 -0.9796 -0.3637
 2795TIP3   OH229943   2.165   4.242   8.453 -0.2052  0.9726 -0.0904
 2795TIP3    H129944   2.205   4.203   8.531 -1.3910 -0.4480 -0.1591
 2795TIP3    H229945   2.239   4.273   8.401  0.7866 -0.7129  0.2367
 2796TIP3   OH229946   3.606   5.763   1.793  0.2759 -0.2310 -0.1974
 2796TIP3    H129947   3.685   5.774   1.845  0.4128  0.0814 -0.4656
 2796TIP3    H229948   3.534   5.768   1.856  0.4073  0.7363 -0.1086
 2797TIP3   OH229949   3.987   4.023   8.268 -0.4543  0.2914 -0.7671
 2797TIP3    H129950   3.995   4.010   8.174 -0.8231  2.0987 -1.0840
 2797TIP3    H229951   3.975   4.117   8.279  1.3435  0.3742  1.2130
 2798TIP3   OH229952   0.754   6.470   8.654 -0.4854  0.0566 -0.0445
 2798TIP3    H129953   0.775   6.392   8.705 -1.3613  0.2010  0.5585
 2798TIP3    H229954   0.683   6.513   8.703 -0.5485  0.8156 -0.7726
 2799TIP3   OH229955   5.379   0.656   8.263 -0.1077 -0.2426  0.4067
 2799TIP3    H129956   5.395   0.570   8.303  1.4965 -0.1614 -0.0272
 2799TIP3    H229957   5.323   0.701   8.326 -0.4917 -1.3890  0.9147
 2800TIP3   OH229958   6.126   3.714   7.557 -0.3204 -0.1228 -0.0804
 2800TIP3    H129959   6.188   3.660   7.509 -0.8099  0.6900 -1.7106
 2800TIP3    H229960   6.050   3.721   7.499 -1.2370  0.3428  1.1183
 2801TIP3   OH229961   0.476   2.054   2.196 -0.6487  0.0670  0.0038
 2801TIP3    H129962   0.392   2.095   2.174 -0.4916 -0.0968 -0.9660
 2801TIP3    H229963   0.479   1.975   2.141 -0.1205 -0.2355  0.4651
 2802TIP3   OH229964   3.290   1.027   2.208 -0.0615 -0.1558 -0.2393
 2802TIP3    H129965   3.347   0.951   2.217 -1.7647 -1.6305 -1.2244
 2802TIP3    H229966   3.272   1.053   2.299  0.6348 -0.8436  0.1116
 2803TIP3   OH229967   0.928   4.274   7.788 -0.2889 -0.0996 -0.4666
 2803TIP3    H129968   0.952   4.347   7.731 -1.4474  0.0316 -0.8034
 2803TIP3    H229969   0.842   4.245   7.756 -0.0186 -1.3735 -0.1113
 2804TIP3   OH229970   5.312   1.587   8.701 -0.1663 -0.5493  0.1018
 2804TIP3    H129971   5.288   1.679   8.700  0.7311 -0.2998  0.5788
 2804TIP3    H229972   5.377   1.578   8.632  0.2886 -0.6608  0.5329
 2805TIP3   OH229973   6.283   1.840   1.399 -0.3726 -0.2263 -0.2584
 2805TIP3    H129974   6.310   1.758   1.441 -1.3343 -1.8635 -2.6134
 2805TIP3    H229975   6.354   1.859   1.337 -0.3857  0.4758 -0.0622
 2806TIP3   OH229976   5.157   3.869   1.697  0.2655 -0.0619 -0.2548
 2806TIP3    H129977   5.079   3.920   1.674 -0.0361 -0.8515 -1.0621
 2806TIP3    H229978   5.128   3.778   1.691  1.1358 -0.3535 -0.1320
 2807TIP3   OH229979   5.159   3.188   0.582  0.1317  0.2682 -0.5522
 2807TIP3    H129980   5.196   3.108   0.621 -0.9908 -0.5427 -1.0946
 2807TIP3    H229981   5.065   3.170   0.575 -0.3384  2.1270  0.4439
 2808TIP3   OH229982   3.131   1.910   0.081  0.7116 -0.0932  0.0810
 2808TIP3    H129983   3.044   1.882   0.107  1.0514 -0.0363  1.3611
 2808TIP3    H229984   3.123   2.005   0.067  0.5966 -0.0609  0.3552
 2809TIP3   OH229985   0.206   4.343   0.042  0.0959  0.4327 -0.0400
 2809TIP3    H129986   0.243   4.318   0.127  0.1774  2.4131  0.5621
 2809TIP3    H229987   0.280   4.379  -0.007 -0.4827  1.9337  0.1517
 2810TIP3   OH229988   0.325   3.390   8.511 -0.5806 -0.0655  0.2361
 2810TIP3    H129989   0.351   3.315   8.564  0.5016  1.3886  1.9086
 2810TIP3    H229990   0.266   3.354   8.445 -0.7891 -2.2185  1.4994
 2811TIP3   OH229991   3.976   6.764   7.363  0.3197  0.0716 -0.4235
 2811TIP3    H129992   4.010   6.678   7.390 -0.6871 -1.1550 -2.7318
 2811TIP3    H229993   4.052   6.809   7.326  0.7479  0.0064  0.3454
 2812TIP3   OH229994   2.321   4.479   0.293  0.1867 -0.2863  0.7131
 2812TIP3    H129995   2.350   4.500   0.382 -2.7860  0.8548  1.5542
 2812TIP3    H229996   2.366   4.543   0.238  0.3791  0.4719  1.7030
 2813TIP3   OH229997   1.216   1.096   8.620 -0.3068 -0.3686 -0.3779
 2813TIP3    H129998   1.167   1.055   8.692 -2.2130  1.3379 -0.6154
 2813TIP3    H229999   1.178   1.057   8.541 -0.1070 -0.2584 -0.5268
 2814TIP3   OH230000   2.195   6.492   1.070  0.3435 -0.5265  0.2981
 2814TIP3    H130001   2.139   6.506   0.994 -0.9599  0.2213  1.3571
 2814TIP3    H230002   2.249   6.571   1.076  1.3421 -1.1198 -0.5479
 2815TIP3   OH230003   6.068   6.829   1.162  0.0843  0.1243 -0.0841
 2815TIP3    H130004   6.083   6.794   1.074  0.9410  0.9974 -0.3080
 2815TIP3    H230005   6.128   6.779   1.218  1.7812  1.5821 -0.5041
 2816TIP3   OH230006   3.061   0.693   2.636 -0.1268  0.1885  0.5611
 2816TIP3    H130007   3.123   0.640   2.687 -0.0856  0.0280  0.3442
 2816TIP3    H230008   3.024   0.754   2.700  0.5064  0.5180  0.6211
 2817TIP3   OH230009   6.516   4.711   0.938 -0.0835  0.2218 -0.1208
 2817TIP3    H130010   6.453   4.653   0.895 -1.0487  0.8416  0.4240
 2817TIP3    H230011   6.504   4.695   1.031  0.2987  0.6220  0.0005
 2818TIP3   OH230012   6.491   1.369   4.193  0.1125 -0.1966  0.0756
 2818TIP3    H130013   6.552   1.299   4.215  0.6853  0.2462 -0.0994
 2818TIP3    H230014   6.546   1.441   4.164 -0.5210 -0.0929 -0.9408
 2819TIP3   OH230015   0.624   0.064   7.363  0.3353  0.0110  0.0960
 2819TIP3    H130016   0.703   0.100   7.403  0.4932  0.0130 -0.2126
 2819TIP3    H230017   0.657   0.006   7.294  0.0694  0.0783 -0.0894
 2820TIP3   OH230018   1.983   0.763   0.420  0.5151  0.0248 -0.0916
 2820TIP3    H130019   1.895   0.799   0.435  0.6165  0.7955 -1.1871
 2820TIP3    H230020   2.041   0.826   0.464  0.6215  0.6161 -1.0429
 2821TIP3   OH230021   6.387   0.944   7.151 -0.3300  0.1061 -0.2159
 2821TIP3    H130022   6.386   1.028   7.196  0.0236  0.1209 -0.2346
 2821TIP3    H230023   6.375   0.966   7.058  2.4176  0.3759 -0.5825
 2822TIP3   OH230024   5.308   2.532   2.134 -0.2459 -0.3254 -0.1278
 2822TIP3    H130025   5.261   2.453   2.161 -1.0961  0.5358  1.0663
 2822TIP3    H230026   5.309   2.529   2.038 -0.8615 -1.4346 -0.1092
 2823TIP3   OH230027   6.048   2.938   0.386 -0.0443  0.1737 -0.0962
 2823TIP3    H130028   5.970   2.920   0.333  0.6801  1.4846 -1.7367
 2823TIP3    H230029   6.041   2.880   0.461 -1.6132 -1.1302 -1.1838
 2824TIP3   OH230030   3.500   5.101   1.430 -0.5767 -0.7732  0.3830
 2824TIP3    H130031   3.478   5.010   1.409 -0.3897 -0.5076 -1.1055
 2824TIP3    H230032   3.438   5.153   1.379 -0.2305 -0.0624  0.6675
 2825TIP3   OH230033   4.611   1.736   2.995  0.1390 -0.1140  0.0821
 2825TIP3    H130034   4.665   1.794   2.942  0.6061 -0.0601  0.6150
 2825TIP3    H230035   4.672   1.690   3.052 -0.4417  0.6584  1.3783
 2826TIP3   OH230036   0.700   3.198   7.876  0.3901 -0.6372  0.9924
 2826TIP3    H130037   0.648   3.175   7.799  0.6457  0.1787  0.5601
 2826TIP3    H230038   0.736   3.115   7.906 -1.2147 -1.2465  1.3559
 2827TIP3   OH230039   4.514   4.919   0.403  0.6658 -0.0130  0.3923
 2827TIP3    H130040   4.532   4.995   0.348 -2.1676  0.7969  0.4062
 2827TIP3    H230041   4.597   4.872   0.408  1.7334  1.4028 -2.1964
 2828TIP3   OH230042   1.019   6.408   7.394 -0.4436 -0.2078  0.3507
 2828TIP3    H130043   1.091   6.471   7.405  0.5971 -1.1547 -0.7812
 2828TIP3    H230044   1.060   6.322   7.406 -2.0480 -0.7320  2.9577
 2829TIP3   OH230045   3.855   0.956   7.211 -0.0850 -0.0678 -0.2444
 2829TIP3    H130046   3.947   0.966   7.186  0.2150 -0.0605  0.8268
 2829TIP3    H230047   3.839   0.861   7.208  0.4342 -0.2111  1.1846
 2830TIP3   OH230048   3.493   4.928   3.177 -0.0524  0.0969  0.4103
 2830TIP3    H130049   3.434   4.870   3.225  0.8378 -0.4329  0.8828
 2830TIP3    H230050   3.467   4.918   3.086 -1.2798  0.5591  0.6835
 2831TIP3   OH230051   1.883   2.204   2.243  0.2814 -0.5356  0.1251
 2831TIP3    H130052   1.963   2.246   2.273  1.3541 -2.9198  0.8317
 2831TIP3    H230053   1.838   2.178   2.323 -0.3414 -0.7587 -0.2902
 2832TIP3   OH230054   0.749   6.330   1.764 -0.2915 -0.4532 -0.0311
 2832TIP3    H130055   0.690   6.375   1.825  0.0891 -0.9506  0.7237
 2832TIP3    H230056   0.785   6.257   1.815  0.5482 -0.4913 -0.6534
 2833TIP3   OH230057   2.142   3.679   0.364  0.5131  0.1820 -0.1190
 2833TIP3    H130058   2.236   3.692   0.355  0.4286  0.1284 -1.2377
 2833TIP3    H230059   2.103   3.761   0.334  0.1960  0.1665  0.2365
 2834TIP3   OH230060   0.239   1.696   1.763 -0.4082 -0.0025 -0.1670
 2834TIP3    H130061   0.206   1.689   1.673 -0.6996 -0.6570 -0.0141
 2834TIP3    H230062   0.220   1.611   1.802  0.0883  0.1371  0.3932
 2835TIP3   OH230063   1.162   3.346   1.519 -0.2474  0.0342  0.7233
 2835TIP3    H130064   1.160   3.397   1.600  2.1210  1.6765 -0.1646
 2835TIP3    H230065   1.137   3.409   1.451  3.6058  0.4965 -0.5175
 2836TIP3   OH230066   1.902   6.390   7.260  0.3049  0.2954 -0.2146
 2836TIP3    H130067   1.959   6.384   7.337  0.3674 -0.3884 -0.3088
 2836TIP3    H230068   1.961   6.413   7.189  0.1098  1.9034  0.0928
 2837TIP3   OH230069   4.789   4.886   0.907 -0.0065 -0.1491 -0.3717
 2837TIP3    H130070   4.725   4.818   0.889  1.1126 -1.7052  1.2065
 2837TIP3    H230071   4.745   4.946   0.968 -0.2338 -0.7847  0.0967
 2838TIP3   OH230072   0.560   1.036   1.361 -0.4358 -0.4998  0.3912
 2838TIP3    H130073   0.544   1.128   1.339 -0.5783 -0.6437 -0.1185
 2838TIP3    H230074   0.634   1.039   1.421 -0.7526 -0.0162  0.7655
 2839TIP3   OH230075   1.379   0.203   8.124 -0.0453  0.3028  0.0391
 2839TIP3    H130076   1.306   0.234   8.179 -0.5420 -0.0375 -0.4195
 2839TIP3    H230077   1.407   0.121   8.166  0.0114  0.3851  0.1629
 2840TIP3   OH230078   3.757   5.292   1.138  0.0163  0.1663 -0.3511
 2840TIP3    H130079   3.840   5.335   1.115  0.7576 -1.3219 -0.5549
 2840TIP3    H230080   3.766   5.272   1.231 -0.2253  0.2119 -0.3177
 2841TIP3   OH230081   5.062   4.910   1.669  0.2083  0.0454  0.3620
 2841TIP3    H130082   5.113   4.880   1.745 -0.4751 -1.1790  0.3594
 2841TIP3    H230083   5.102   4.867   1.594  0.2258  0.4341  0.1426
 2842TIP3   OH230084   4.522   0.796   8.456  0.4266 -0.1755 -0.3833
 2842TIP3    H130085   4.575   0.843   8.392 -1.2974  1.3729 -0.7605
 2842TIP3    H230086   4.585   0.743   8.505  2.3766  1.8072 -0.5791
 2843TIP3   OH230087   6.489   0.765   8.701  0.5848  0.0014 -0.2335
 2843TIP3    H130088   6.491   0.696   8.768 -0.9076 -0.5872 -0.7380
 2843TIP3    H230089   6.499   0.846   8.750  0.8334 -0.4951  0.5611
 2844TIP3   OH230090   3.089   4.650   0.654  0.3992 -0.0511 -0.0978
 2844TIP3    H130091   3.069   4.607   0.571 -2.1634 -2.2911  1.5058
 2844TIP3    H230092   3.184   4.648   0.659  0.5966 -0.5562 -2.6164
 2845TIP3   OH230093   0.231   0.235   2.329 -0.1229 -0.4551  0.2881
 2845TIP3    H130094   0.162   0.250   2.394 -1.7057  1.9678 -1.8071
 2845TIP3    H230095   0.186   0.238   2.245  2.4684  0.7544 -1.1487
 2846TIP3   OH230096   5.389   5.760   2.571 -0.5047  0.1407  0.5499
 2846TIP3    H130097   5.423   5.794   2.654 -1.0999  3.8649 -0.5651
 2846TIP3    H230098   5.443   5.802   2.504 -0.4375 -2.2963 -1.0781
 2847TIP3   OH230099   1.431   6.441   3.441 -0.0312 -0.2405 -0.1335
 2847TIP3    H130100   1.505   6.498   3.421 -0.3758  1.0735  1.9874
 2847TIP3    H230101   1.467   6.373   3.498 -0.4165  0.5068  1.0561
 2848TIP3   OH230102   0.979   6.472   2.649  0.6530 -0.0790  0.3088
 2848TIP3    H130103   0.912   6.405   2.636  1.8385 -1.4642  1.1099
 2848TIP3    H230104   0.982   6.485   2.744  1.1208  0.4045  0.2332
 2849TIP3   OH230105   4.643   5.161   7.827  0.0403  0.3216 -0.0800
 2849TIP3    H130106   4.701   5.125   7.759  2.5693 -0.7174  2.4109
 2849TIP3    H230107   4.563   5.109   7.819  0.2890  0.1429 -2.1345
 2850TIP3   OH230108   0.306   4.845   8.331  0.5043 -0.2651 -0.4504
 2850TIP3    H130109   0.266   4.809   8.410 -0.9649 -0.2153 -1.1415
 2850TIP3    H230110   0.288   4.780   8.263  1.0432  0.0690 -0.9197
 2851TIP3   OH230111   4.995   5.565   0.778 -0.1458  0.0409 -0.0076
 2851TIP3    H130112   5.044   5.637   0.817 -0.2092  0.1043 -0.0471
 2851TIP3    H230113   5.019   5.566   0.686 -0.0008 -0.1059  0.0273
 2852TIP3   OH230114   5.363   0.941   2.113  0.3533 -0.0778 -0.0021
 2852TIP3    H130115   5.282   0.890   2.108 -1.1979  2.1660  0.7109
 2852TIP3    H230116   5.342   1.024   2.072  1.9543  0.9755  1.1642
 2853TIP3   OH230117   4.280   4.178   7.830  0.4909  0.1196 -0.0030
 2853TIP3    H130118   4.241   4.136   7.907 -0.0336  0.9148  0.1811
 2853TIP3    H230119   4.370   4.146   7.828  0.6741  0.5017  1.2546
 2854TIP3   OH230120   4.445   4.721   7.838 -0.3671 -0.0589  0.2847
 2854TIP3    H130121   4.355   4.730   7.868  0.5128  2.0982  2.5780
 2854TIP3    H230122   4.451   4.778   7.762 -0.4068  1.7184  1.5611
 2855TIP3   OH230123   1.592   4.954   7.277  0.5783 -0.0446  0.1973
 2855TIP3    H130124   1.506   4.977   7.311  1.3837 -0.9426  3.1882
 2855TIP3    H230125   1.575   4.890   7.208 -1.1499 -0.5833  1.0848
 2856TIP3   OH230126   0.903   4.677   8.543  0.0520  0.1872 -0.0685
 2856TIP3    H130127   0.887   4.672   8.637 -0.2082 -1.1676 -0.1684
 2856TIP3    H230128   0.818   4.699   8.505  0.8389  4.8137  0.2226
 2857TIP3   OH230129   4.597   5.878   8.280 -0.5082 -0.3439 -0.2770
 2857TIP3    H130130   4.599   5.932   8.201 -0.7848 -0.0177 -0.0643
 2857TIP3    H230131   4.684   5.892   8.319 -0.4549 -0.3221 -0.4008
 2858TIP3   OH230132   0.066   6.366   0.078  0.5038 -0.0163  0.3242
 2858TIP3    H130133   0.144   6.315   0.102 -0.0814 -1.6520 -1.0600
 2858TIP3    H230134   0.083   6.393  -0.012 -0.0198  0.6616  0.4224
 2859TIP3   OH230135   3.483   3.965   7.596 -0.4771  0.3921  0.0520
 2859TIP3    H130136   3.470   4.005   7.510  1.7101  2.2291  0.4697
 2859TIP3    H230137   3.478   4.038   7.657  0.3136 -0.4971  1.2185
 2860TIP3   OH230138   6.697   6.452   1.304 -0.4876 -0.3037  0.5425
 2860TIP3    H130139   6.697   6.420   1.394 -1.9919 -1.0249  0.3113
 2860TIP3    H230140   6.639   6.528   1.306  0.9521  0.8525  0.5303
 2861TIP3   OH230141   3.067   3.362   6.905 -0.1821  0.3019  0.3534
 2861TIP3    H130142   3.137   3.351   6.970  0.0688  0.3988  0.1045
 2861TIP3    H230143   2.997   3.407   6.952 -0.5331 -0.7864  0.9183
 2862TIP3   OH230144   3.036   4.930   1.513  0.3442  0.4298 -0.5026
 2862TIP3    H130145   2.969   4.913   1.579 -0.0938  1.5809 -0.6199
 2862TIP3    H230146   2.988   4.969   1.440  1.3468  3.2998  0.2264
 2863TIP3   OH230147   0.363   6.824   8.074  0.3802  0.1513 -0.2673
 2863TIP3    H130148   0.303   6.845   8.003  0.5688 -2.4972 -1.2892
 2863TIP3    H230149   0.308   6.782   8.141  0.3425  1.9291  0.8888
 2864TIP3   OH230150   4.808   1.030   2.635 -0.0030  0.9367 -0.3812
 2864TIP3    H130151   4.895   0.993   2.650  0.3418  0.8022 -2.3564
 2864TIP3    H230152   4.786   1.004   2.545 -1.7468  1.6408 -0.2106
 2865TIP3   OH230153   3.473   1.933   7.658  0.5514  0.3020 -0.5836
 2865TIP3    H130154   3.455   2.013   7.610 -1.2507  1.3350  1.6197
 2865TIP3    H230155   3.526   1.880   7.598  0.1120  2.2787 -2.8632
 2866TIP3   OH230156   0.721   4.896   0.184 -0.0379 -0.0984 -0.0401
 2866TIP3    H130157   0.645   4.909   0.242 -0.1596  0.4701 -0.3228
 2866TIP3    H230158   0.794   4.936   0.231 -0.0603  0.0161 -0.1024
 2867TIP3   OH230159   0.909   3.249   1.680 -0.1328  0.0550  0.4939
 2867TIP3    H130160   0.927   3.276   1.770  2.0113 -1.5367  0.6164
 2867TIP3    H230161   0.864   3.165   1.688 -0.7802  0.3553  0.0778
 2868TIP3   OH230162   4.612   2.880   7.005 -0.1055 -0.4693 -0.7832
 2868TIP3    H130163   4.621   2.789   6.977  2.3907 -0.4276 -0.3852
 2868TIP3    H230164   4.586   2.875   7.096 -1.2110 -0.7404 -1.1047
 2869TIP3   OH230165   3.417   4.906   2.402 -0.1886 -0.5188  0.4304
 2869TIP3    H130166   3.475   4.970   2.361  0.5354  0.2999  2.5814
 2869TIP3    H230167   3.435   4.914   2.496 -4.0628  0.0414  1.2810
 2870TIP3   OH230168   2.403   0.761   0.531 -0.2306 -0.0412  0.4937
 2870TIP3    H130169   2.455   0.809   0.595  0.1081  0.5236 -0.1908
 2870TIP3    H230170   2.430   0.797   0.446  0.4248 -1.8010 -0.0918
 2871TIP3   OH230171   2.334   1.513   1.579 -0.3503  0.2995  0.7885
 2871TIP3    H130172   2.370   1.425   1.589 -0.2343  0.4641  1.9524
 2871TIP3    H230173   2.241   1.499   1.562  0.0991 -0.1123 -1.7304
 2872TIP3   OH230174   3.599   2.878   0.161  0.1869 -0.2855 -0.1469
 2872TIP3    H130175   3.532   2.935   0.124 -0.4726 -1.0118 -0.1150
 2872TIP3    H230176   3.645   2.844   0.085 -1.5625 -2.2534 -0.4269
 2873TIP3   OH230177   6.023   5.534   1.635  0.0565 -0.4595  0.4619
 2873TIP3    H130178   5.976   5.457   1.603  0.5864 -1.0432  1.0640
 2873TIP3    H230179   6.054   5.509   1.722 -2.3301  1.4628  2.0082
 2874TIP3   OH230180   5.347   2.357   2.935  0.3868 -0.4886  0.1923
 2874TIP3    H130181   5.397   2.352   3.016  0.9935 -1.1145 -0.2115
 2874TIP3    H230182   5.256   2.367   2.963  0.7575  1.1179  0.9410
 2875TIP3   OH230183   4.476   1.092   8.263  0.7272 -0.3217  0.3004
 2875TIP3    H130184   4.559   1.046   8.255  1.2476  0.7529 -0.9288
 2875TIP3    H230185   4.492   1.178   8.225 -1.2250 -0.4450 -0.9820
 2876TIP3   OH230186   5.176   1.365   1.264  0.2013  0.2776  0.0138
 2876TIP3    H130187   5.162   1.455   1.293 -0.3138 -0.1040  1.0000
 2876TIP3    H230188   5.095   1.319   1.288 -0.1822 -0.1244 -1.8568
 2877TIP3   OH230189   0.665   6.407   8.284  0.4498 -0.3566 -0.0903
 2877TIP3    H130190   0.732   6.457   8.331 -1.5488  2.7347 -0.2305
 2877TIP3    H230191   0.582   6.444   8.315 -1.1732 -2.7603 -1.2637
 2878TIP3   OH230192   3.300   5.632   0.658  0.3549  0.6606  0.2470
 2878TIP3    H130193   3.291   5.572   0.732  1.4046  1.1980  0.8300
 2878TIP3    H230194   3.378   5.601   0.612  0.0391  0.6818 -0.3153
 2879TIP3   OH230195   3.225   4.437   1.203  0.1923 -0.1843 -0.4011
 2879TIP3    H130196   3.282   4.421   1.278  1.3506  0.4350 -1.1124
 2879TIP3    H230197   3.154   4.491   1.237  0.1465 -0.7615  0.4541
 2880TIP3   OH230198   5.972   3.032   2.218  0.7010  0.3024 -0.6556
 2880TIP3    H130199   6.041   3.018   2.282 -1.4527  0.2241  1.8211
 2880TIP3    H230200   5.966   3.127   2.210 -0.1987  0.3986  0.7458
 2881TIP3   OH230201   5.659   5.193   2.097 -0.6086 -0.0895  0.2776
 2881TIP3    H130202   5.668   5.223   2.188 -2.3220 -0.3924  0.5673
 2881TIP3    H230203   5.663   5.273   2.045  0.1059  0.1125  0.6291
 2882TIP3   OH230204   2.837   5.013   0.302  0.0867 -0.2179  0.3845
 2882TIP3    H130205   2.900   5.011   0.374  0.7692  1.3336 -0.1426
 2882TIP3    H230206   2.891   5.025   0.223 -0.7676 -0.2151 -0.2103
 2883TIP3   OH230207   5.275   4.016   0.450  0.1408 -0.2043 -0.3509
 2883TIP3    H130208   5.322   4.097   0.430  0.2759  0.2944  1.7350
 2883TIP3    H230209   5.344   3.951   0.464  0.0961 -0.2511 -0.3466
 2884TIP3   OH230210   5.323   4.438   7.727 -0.8920 -0.3190  0.6502
 2884TIP3    H130211   5.366   4.352   7.729  2.0690  1.0141 -0.2672
 2884TIP3    H230212   5.261   4.433   7.655  0.2864 -1.2973 -0.3472
 2885TIP3   OH230213   5.342   6.414   0.232  0.5736 -0.0117 -0.1423
 2885TIP3    H130214   5.302   6.364   0.304 -0.8549  0.2354 -0.7262
 2885TIP3    H230215   5.418   6.457   0.272 -0.5210  0.6068  1.3735
 2886TIP3   OH230216   4.732   4.517   0.249 -0.0034 -0.0941  0.1330
 2886TIP3    H130217   4.777   4.438   0.281  0.5496 -0.1621 -0.7761
 2886TIP3    H230218   4.647   4.515   0.293  1.0334  0.3136  2.3380
 2887TIP3   OH230219   6.054   4.716   0.599  0.3357  0.0989 -0.1050
 2887TIP3    H130220   6.116   4.677   0.538 -2.1480 -0.3238 -2.5874
 2887TIP3    H230221   6.049   4.808   0.573 -0.1708  0.0923 -0.0413
 2888TIP3   OH230222   0.872   3.939   6.893  0.0985 -0.0397  0.6902
 2888TIP3    H130223   0.916   3.989   6.824 -0.3725 -0.3678  0.1420
 2888TIP3    H230224   0.840   3.860   6.848 -2.7386  1.0499  0.5858
 2889TIP3   OH230225   4.558   4.304   0.582  0.5235  0.1326  0.5707
 2889TIP3    H130226   4.526   4.303   0.672 -0.4754 -0.4375  0.2270
 2889TIP3    H230227   4.556   4.212   0.554  1.3317  0.2355  0.1338
 2890TIP3   OH230228   5.853   0.059   8.275 -0.4336 -0.2083 -0.3177
 2890TIP3    H130229   5.828   0.150   8.285 -1.3714 -0.6416  1.6752
 2890TIP3    H230230   5.914   0.059   8.201  0.2749  2.1503  0.1857
 2891TIP3   OH230231   4.668   4.498   1.539 -0.1347  0.1442  0.0810
 2891TIP3    H130232   4.713   4.416   1.517 -0.1427  0.5276 -1.4729
 2891TIP3    H230233   4.711   4.564   1.484 -1.6558  0.7697 -0.4011
 2892TIP3   OH230234   1.791   0.598   2.672  0.3413 -0.2446  0.0991
 2892TIP3    H130235   1.787   0.574   2.579  1.3888 -0.9286  0.2027
 2892TIP3    H230236   1.758   0.521   2.718  1.1579 -0.4677  0.3358
 2893TIP3   OH230237   1.384   0.971   1.927  0.7103  0.0172  0.1835
 2893TIP3    H130238   1.439   0.949   2.002  1.2000  2.2485  0.5558
 2893TIP3    H230239   1.426   1.047   1.888 -0.2120 -0.3595 -1.6546
 2894TIP3   OH230240   2.234   4.985   7.670  0.2871  0.4064 -0.0972
 2894TIP3    H130241   2.184   5.061   7.641 -1.1081 -0.4324 -0.0107
 2894TIP3    H230242   2.280   4.956   7.592  0.2753  0.9229 -0.3006
 2895TIP3   OH230243   4.736   4.965   8.140  0.3752 -0.2206 -0.2868
 2895TIP3    H130244   4.822   4.976   8.099  0.0410 -0.5763 -1.0996
 2895TIP3    H230245   4.676   5.015   8.086  0.1419  0.4913  0.6052
 2896TIP3   OH230246   6.131   1.249   3.468 -0.0181 -0.5237  0.7209
 2896TIP3    H130247   6.166   1.171   3.511  0.9987 -0.5203 -0.0736
 2896TIP3    H230248   6.163   1.322   3.521 -0.7635 -0.6120  1.3195
 2897TIP3   OH230249   3.878   6.286   0.432 -0.3904  1.3150  0.4339
 2897TIP3    H130250   3.843   6.285   0.343  1.6681 -1.9804 -0.5427
 2897TIP3    H230251   3.855   6.200   0.467  1.1074  1.5423  2.1048
 2898TIP3   OH230252   4.828   1.557   2.994  0.2605  0.6017 -0.2617
 2898TIP3    H130253   4.811   1.480   3.048  1.1435  0.5898  0.0253
 2898TIP3    H230254   4.913   1.539   2.953 -1.1512 -0.1584 -3.0860
 2899TIP3   OH230255   3.670   5.502   8.217  0.1442 -0.2224 -0.0963
 2899TIP3    H130256   3.716   5.526   8.137 -0.6358  0.6250 -0.3097
 2899TIP3    H230257   3.738   5.491   8.283  0.5786  3.0534  0.1401
 2900TIP3   OH230258   4.092   3.184   7.329 -0.4282  0.0739  0.5407
 2900TIP3    H130259   4.113   3.277   7.339  0.0640 -0.2270  2.7816
 2900TIP3    H230260   4.162   3.151   7.272 -0.2092  0.9252  0.2915
 2901TIP3   OH230261   1.312   6.211   2.295 -0.3151 -0.3663  0.0783
 2901TIP3    H130262   1.309   6.116   2.282  2.3959 -0.9220  2.4748
 2901TIP3    H230263   1.234   6.231   2.347 -0.1055 -1.6196  0.9238
 2902TIP3   OH230264   4.450   1.288   1.159  0.0048  0.0997 -0.1175
 2902TIP3    H130265   4.530   1.340   1.163 -0.1455  0.4263 -1.1294
 2902TIP3    H230266   4.393   1.329   1.225  1.0467 -0.8632  1.4692
 2903TIP3   OH230267   3.945   5.508   2.479 -0.2391 -0.5482  0.4128
 2903TIP3    H130268   3.865   5.500   2.530  0.2067 -2.0250  0.9161
 2903TIP3    H230269   3.992   5.581   2.520 -1.6420  0.8906 -0.3965
 2904TIP3   OH230270   1.433   5.163   1.531  0.2191  0.4881  0.1283
 2904TIP3    H130271   1.502   5.208   1.580  1.1564 -1.3859  0.6041
 2904TIP3    H230272   1.480   5.112   1.465 -0.9551  2.0011 -2.0096
 2905TIP3   OH230273   5.544   1.265   1.097 -0.4061 -0.0355 -0.0711
 2905TIP3    H130274   5.467   1.304   1.054  0.4730 -0.2635 -1.9767
 2905TIP3    H230275   5.542   1.173   1.070  0.0543 -0.2445  0.5959
 2906TIP3   OH230276   6.348   4.469   7.781  0.2506 -0.1170 -0.0628
 2906TIP3    H130277   6.272   4.423   7.818  3.3064 -4.9415  1.1638
 2906TIP3    H230278   6.353   4.439   7.691  0.6814  0.1812 -0.1416
 2907TIP3   OH230279   2.556   6.136   2.508 -0.4513 -0.2573  0.3252
 2907TIP3    H130280   2.546   6.101   2.419 -3.2863 -1.3663  0.9796
 2907TIP3    H230281   2.646   6.169   2.510  0.8673 -3.2014 -1.8904
 2908TIP3   OH230282   2.179   5.176   1.761  0.0727 -0.7084  0.2547
 2908TIP3    H130283   2.206   5.268   1.759 -0.2272 -0.6173  0.3584
 2908TIP3    H230284   2.245   5.133   1.816  2.8235 -1.4237 -3.2739
 2909TIP3   OH230285   1.197   6.494   3.571  0.1229  0.4625  0.0152
 2909TIP3    H130286   1.278   6.504   3.521 -0.2345 -0.9095 -0.8900
 2909TIP3    H230287   1.135   6.456   3.509 -0.7264 -0.0637  1.1442
 2910TIP3   OH230288   0.757   5.388   7.902  0.1898  0.7538 -0.5404
 2910TIP3    H130289   0.722   5.300   7.916 -1.5178  1.2055 -1.6902
 2910TIP3    H230290   0.767   5.424   7.990  0.2102 -0.3201 -0.0871
 2911TIP3   OH230291   2.327   3.626   1.700 -0.4423 -0.3743  0.0319
 2911TIP3    H130292   2.311   3.536   1.674  1.6370 -0.6819 -0.3030
 2911TIP3    H230293   2.338   3.674   1.618  1.2370 -0.3898  0.2195
 2912TIP3   OH230294   5.156   6.010   8.421  0.0186 -0.9615 -0.0305
 2912TIP3    H130295   5.186   6.050   8.339 -1.4501 -1.2604 -0.7523
 2912TIP3    H230296   5.129   5.922   8.395  0.3821 -1.3691  0.9622
 2913TIP3   OH230297   6.054   4.718   7.803 -0.2307  0.3576 -0.3718
 2913TIP3    H130298   6.023   4.634   7.768 -0.8420  0.6502 -0.5316
 2913TIP3    H230299   6.069   4.772   7.726 -1.1848  0.8658 -0.2065
 2914TIP3   OH230300   4.313   5.380   0.960  0.2721  0.3389 -0.8070
 2914TIP3    H130301   4.344   5.435   1.032  0.2234  0.4525 -0.8722
 2914TIP3    H230302   4.295   5.296   1.000 -0.0696  0.4973 -0.6266
 2915TIP3   OH230303   6.371   4.442   7.240 -0.3851  0.1970  0.2209
 2915TIP3    H130304   6.310   4.506   7.202  0.1219  0.7795  0.3814
 2915TIP3    H230305   6.410   4.399   7.164 -2.3951 -1.5780  0.0820
 2916TIP3   OH230306   3.426   0.262   8.042  1.1477  0.1653  0.1018
 2916TIP3    H130307   3.497   0.257   7.978  0.4849 -0.1537 -0.6283
 2916TIP3    H230308   3.352   0.220   7.998 -0.7621  4.0684 -0.8073
 2917TIP3   OH230309   4.052   2.472   2.070 -0.3558  0.2265 -0.2708
 2917TIP3    H130310   4.132   2.426   2.043 -0.4251 -0.5377  0.7537
 2917TIP3    H230311   4.083   2.540   2.129 -0.4852 -0.4807  0.6440
 2918TIP3   OH230312   4.417   0.927   0.864 -0.1657  0.5721  0.1488
 2918TIP3    H130313   4.460   0.971   0.938 -2.1303  0.1555  1.6189
 2918TIP3    H230314   4.402   0.997   0.800  2.3536  0.7777 -0.3052
 2919TIP3   OH230315   2.070   3.831   1.108  0.1936 -0.1583 -0.4588
 2919TIP3    H130316   2.115   3.908   1.073  0.3211 -0.3009 -0.6097
 2919TIP3    H230317   2.115   3.757   1.068  0.2979 -0.3222 -0.0312
 2920TIP3   OH230318   2.747   2.962   7.998  0.1009  0.0733  0.3484
 2920TIP3    H130319   2.684   3.032   8.019  1.0571  0.7263  1.1567
 2920TIP3    H230320   2.807   2.962   8.073  1.8108  0.3413 -0.9670
 2921TIP3   OH230321   3.037   1.525   8.344 -0.0039 -0.1088 -0.0548
 2921TIP3    H130322   3.085   1.592   8.393  0.7612 -0.4890 -0.2737
 2921TIP3    H230323   2.945   1.547   8.358  0.2297  1.5345 -0.8827
 2922TIP3   OH230324   1.343   1.816   0.696 -0.1153  0.1614  0.3134
 2922TIP3    H130325   1.353   1.748   0.762  0.1480  0.9920  1.1469
 2922TIP3    H230326   1.432   1.850   0.682 -0.0968 -0.2830 -0.7840
 2923TIP3   OH230327   5.712   4.531   7.216  0.4495 -0.2944  0.9733
 2923TIP3    H130328   5.755   4.576   7.143 -2.4414 -0.9179 -1.3110
 2923TIP3    H230329   5.747   4.442   7.213  0.3769 -0.3061  0.3671
 2924TIP3   OH230330   3.454   2.446   0.965  0.3896  0.1381  0.7287
 2924TIP3    H130331   3.446   2.352   0.947  0.8612  0.1672  0.3409
 2924TIP3    H230332   3.534   2.453   1.017  1.9890  0.6124 -1.6501
 2925TIP3   OH230333   2.527   1.611   8.379  0.3162  0.1713 -0.1255
 2925TIP3    H130334   2.517   1.706   8.376  1.4016  0.4876  3.1208
 2925TIP3    H230335   2.442   1.579   8.408  0.0488  0.1529 -0.9071
 2926TIP3   OH230336   4.288   2.836   0.624  0.3619 -0.2028 -0.2171
 2926TIP3    H130337   4.268   2.746   0.650 -0.3172 -0.3317 -1.1202
 2926TIP3    H230338   4.250   2.845   0.537  1.7941  0.4740 -0.8127
 2927TIP3   OH230339   5.527   4.554   1.873 -0.1930 -0.1497 -0.2895
 2927TIP3    H130340   5.595   4.518   1.929  0.2507  0.2602 -0.5574
 2927TIP3    H230341   5.561   4.543   1.784  0.5332  2.0222 -0.3430
 2928TIP3   OH230342   6.242   1.884   1.031  0.1526  0.8453 -0.1366
 2928TIP3    H130343   6.273   1.920   0.948  0.7632  1.9697  0.5533
 2928TIP3    H230344   6.313   1.828   1.061  0.5844  1.6118  0.3246
 2929TIP3   OH230345   0.546   5.886   8.657 -0.0261 -0.0193  0.1124
 2929TIP3    H130346   0.480   5.928   8.601 -2.4008  0.5958  3.0778
 2929TIP3    H230347   0.582   5.957   8.709  0.0698 -0.8710  1.2535
 2930TIP3   OH230348   1.865   4.665   1.886 -0.3200  0.7761 -0.1850
 2930TIP3    H130349   1.878   4.755   1.857 -0.2281  2.0361  3.2042
 2930TIP3    H230350   1.772   4.649   1.874 -0.7739  2.1889  1.0724
 2931TIP3   OH230351   3.558   1.250   0.797 -0.1267 -0.2960 -0.1177
 2931TIP3    H130352   3.549   1.261   0.703 -1.7228  0.2316  0.0795
 2931TIP3    H230353   3.528   1.161   0.814  1.1115 -0.7531 -0.2024
 2932TIP3   OH230354   6.312   2.426   0.469  0.8774 -0.0131 -0.0243
 2932TIP3    H130355   6.365   2.432   0.390  1.4201 -1.9072  0.1431
 2932TIP3    H230356   6.297   2.517   0.495  0.4876  0.6799 -2.3973
 2933TIP3   OH230357   0.262   1.840   0.433 -0.8690 -0.2197 -0.1095
 2933TIP3    H130358   0.245   1.800   0.518 -0.3170  1.1856  0.6952
 2933TIP3    H230359   0.248   1.769   0.370  0.5715 -1.8291  1.2616
 2934TIP3   OH230360   3.495   4.994   8.576  0.1621 -0.3690 -0.1839
 2934TIP3    H130361   3.533   4.906   8.577  2.3784  0.5102 -0.5805
 2934TIP3    H230362   3.502   5.022   8.485  2.2001  1.2398  0.3908
 2935TIP3   OH230363   1.244   5.504   2.314  0.5127  0.1005  0.1451
 2935TIP3    H130364   1.262   5.537   2.402 -0.9149  0.9955  0.1389
 2935TIP3    H230365   1.255   5.409   2.321  1.5577  0.2687  0.9920
 2936TIP3   OH230366   1.332   5.782   0.892  0.0497  0.7288  0.2862
 2936TIP3    H130367   1.406   5.748   0.842 -0.3804  1.2319 -0.7139
 2936TIP3    H230368   1.352   5.758   0.983  0.0430 -1.6823 -0.2773
 2937TIP3   OH230369   4.838   5.897   0.241  0.7095 -0.1767  0.7086
 2937TIP3    H130370   4.890   5.975   0.223 -2.0123  1.9806  1.5224
 2937TIP3    H230371   4.829   5.896   0.337  2.0362 -2.5244  0.9030
 2938TIP3   OH230372   0.965   2.202   1.230 -0.4426 -0.1855  0.1595
 2938TIP3    H130373   1.000   2.269   1.171 -0.7900  1.1213  1.3623
 2938TIP3    H230374   0.914   2.144   1.174 -1.2483  1.3439 -0.7567
 2939TIP3   OH230375   6.458   2.507   3.359  0.4643 -0.2497  0.4078
 2939TIP3    H130376   6.486   2.554   3.437  0.9423 -0.5559  0.4221
 2939TIP3    H230377   6.533   2.511   3.299  0.3671 -0.6492  0.2548
 2940TIP3   OH230378   0.406   6.066   0.571 -0.2637 -0.2608  0.1824
 2940TIP3    H130379   0.414   6.096   0.661 -2.6121  0.0311  0.3550
 2940TIP3    H230380   0.430   5.974   0.574  0.3455 -0.0842  0.9698
 2941TIP3   OH230381   1.790   4.806   8.127 -0.1736  0.0758  0.7003
 2941TIP3    H130382   1.725   4.796   8.197 -1.3769  0.6792 -0.2882
 2941TIP3    H230383   1.822   4.895   8.137 -0.5240  0.2432  0.3401
 2942TIP3   OH230384   5.113   6.675   2.256  0.1123 -0.0677 -0.2754
 2942TIP3    H130385   5.022   6.687   2.283  0.2519  0.2454  0.0616
 2942TIP3    H230386   5.162   6.670   2.338  0.2011 -1.9709 -0.4042
 2943TIP3   OH230387   4.522   4.355   7.016  0.0612 -0.7887 -0.1185
 2943TIP3    H130388   4.581   4.402   7.075  0.6045 -0.5570 -0.8357
 2943TIP3    H230389   4.555   4.265   7.015  0.3481 -0.6794 -0.4508
 2944TIP3   OH230390   4.463   1.670   1.994  0.1298  0.3737 -0.3538
 2944TIP3    H130391   4.410   1.739   1.953 -0.4139 -0.3619 -0.9256
 2944TIP3    H230392   4.525   1.644   1.926  0.3350  0.3005 -0.1395
 2945TIP3   OH230393   4.840   5.162   2.552  0.1389 -0.1494 -0.0379
 2945TIP3    H130394   4.818   5.131   2.640  1.0098 -1.7064 -0.3331
 2945TIP3    H230395   4.925   5.204   2.563  0.2999 -0.4437 -0.1473
 2946TIP3   OH230396   4.272   3.443   7.272 -0.0416 -0.3259  0.3494
 2946TIP3    H130397   4.290   3.471   7.182 -0.7087 -1.3303 -0.1218
 2946TIP3    H230398   4.227   3.518   7.312 -1.8455 -0.6669 -0.8925
 2947TIP3   OH230399   0.396   4.878   2.131 -0.9568 -0.3933  0.1629
 2947TIP3    H130400   0.426   4.787   2.132 -1.1876 -0.4729  0.0048
 2947TIP3    H230401   0.442   4.917   2.057  0.3903  0.0533  1.2070
 2948TIP3   OH230402   4.511   2.019   1.225 -0.1564 -0.0996 -0.7642
 2948TIP3    H130403   4.421   1.986   1.229 -0.2079  0.0651  2.1089
 2948TIP3    H230404   4.506   2.107   1.261  1.0863  0.1020 -1.0193
 2949TIP3   OH230405   6.222   1.360   8.360  0.4482 -0.2820 -0.2277
 2949TIP3    H130406   6.243   1.285   8.415 -1.4383  0.6831  1.9487
 2949TIP3    H230407   6.299   1.416   8.366  0.7529 -0.7549  0.4055
 2950TIP3   OH230408   3.119   5.822   0.579  0.1488  0.3091  0.2955
 2950TIP3    H130409   3.189   5.759   0.594 -0.3181 -0.3633 -0.2769
 2950TIP3    H230410   3.039   5.775   0.600 -0.1329  1.1252  1.1074
 2951TIP3   OH230411   6.813   2.484   1.449 -0.6265 -0.0941  0.3726
 2951TIP3    H130412   6.723   2.468   1.421 -0.3362 -2.3292  0.5419
 2951TIP3    H230413   6.854   2.527   1.374 -1.7523  0.8021  0.2264
 2952TIP3   OH230414   4.528   3.938   2.357  0.0584  0.0338 -0.0810
 2952TIP3    H130415   4.575   3.879   2.415  0.4922 -0.2864 -0.7377
 2952TIP3    H230416   4.442   3.897   2.345 -0.3615  0.5632  1.0327
 2953TIP3   OH230417   3.053   4.546   1.642  0.1909  0.3878 -0.0066
 2953TIP3    H130418   3.050   4.544   1.738  1.7353  0.8107  0.0763
 2953TIP3    H230419   3.117   4.614   1.621 -1.0688  1.2320 -1.3841
 2954TIP3   OH230420   2.963   6.178   7.582 -0.3414 -0.3608  0.1657
 2954TIP3    H130421   2.991   6.095   7.542  0.1088 -0.5880  0.9326
 2954TIP3    H230422   2.889   6.154   7.637 -1.7424  0.1479 -1.4039
 2955TIP3   OH230423   1.441   5.952   8.218  0.1578 -0.2686 -0.1338
 2955TIP3    H130424   1.444   5.889   8.146 -0.8625 -0.4657 -0.0298
 2955TIP3    H230425   1.442   6.037   8.175  0.4359 -0.3737 -0.3365
 2956TIP3   OH230426   5.148   0.357   8.240  0.7105  0.4481 -0.3196
 2956TIP3    H130427   5.210   0.370   8.312 -0.8926  2.1708  0.8628
 2956TIP3    H230428   5.069   0.324   8.283 -1.0932  3.7567 -0.7801
 2957TIP3   OH230429   5.858   5.382   7.905 -0.0569  0.1656  0.4501
 2957TIP3    H130430   5.819   5.456   7.951 -0.1937 -0.3036  1.1051
 2957TIP3    H230431   5.785   5.342   7.857 -0.0191  0.3340  0.2468
 2958TIP3   OH230432   1.109   0.616   1.815  0.2820  0.3656  0.7743
 2958TIP3    H130433   1.136   0.708   1.812 -0.9709  0.7308 -1.4847
 2958TIP3    H230434   1.026   0.617   1.863 -0.8359  0.8093 -1.0509
 2959TIP3   OH230435   2.613   1.827   0.055 -0.2724 -0.0114  0.1192
 2959TIP3    H130436   2.701   1.830   0.092 -0.0092  0.7883 -0.5431
 2959TIP3    H230437   2.597   1.916   0.023 -0.5758 -0.6053 -1.4824
 2960TIP3   OH230438   6.319   0.986   2.017  0.0862 -0.1280 -0.3031
 2960TIP3    H130439   6.236   1.005   2.062 -0.2309 -1.1885 -0.4004
 2960TIP3    H230440   6.312   0.893   1.994 -0.1404  0.5541 -3.3118
 2961TIP3   OH230441   2.635   2.183   1.161 -0.1787 -0.1028  0.6548
 2961TIP3    H130442   2.656   2.262   1.111  0.2172  0.3409  1.4862
 2961TIP3    H230443   2.543   2.193   1.184 -0.3605 -0.3073  0.0288
 2962TIP3   OH230444   6.124   2.130   1.175  0.5526 -0.4521 -0.2347
 2962TIP3    H130445   6.111   2.049   1.126 -0.2263  0.0188 -0.8427
 2962TIP3    H230446   6.195   2.111   1.236  0.9571 -1.3260 -0.9562
 2963TIP3   OH230447   0.766   4.585   7.637  0.2674  0.9096  0.6047
 2963TIP3    H130448   0.839   4.638   7.606  0.8346 -0.5932 -0.7847
 2963TIP3    H230449   0.712   4.570   7.559 -0.1064 -0.1585  1.0494
 2964TIP3   OH230450   5.091   3.810   8.164  0.6284 -0.3127  0.0545
 2964TIP3    H130451   5.025   3.809   8.232  0.4422 -1.2335 -0.1264
 2964TIP3    H230452   5.059   3.873   8.099  0.1911 -0.3706  0.2157
 2965TIP3   OH230453   4.666   6.771   0.279 -0.4406  0.2171 -0.6823
 2965TIP3    H130454   4.662   6.859   0.242 -2.0352 -0.3719 -2.0744
 2965TIP3    H230455   4.625   6.716   0.213  0.0048 -1.5000  0.4042
 2966TIP3   OH230456   4.318   0.297   2.520 -0.2511 -0.1933  0.4866
 2966TIP3    H130457   4.257   0.351   2.471  0.2277  0.5646  0.7162
 2966TIP3    H230458   4.278   0.286   2.606 -0.2611 -0.0596  0.4979
 2967TIP3   OH230459   5.243   0.338   8.640 -0.0811 -0.5114  0.2382
 2967TIP3    H130460   5.221   0.391   8.717 -0.6651  0.6803 -0.7311
 2967TIP3    H230461   5.280   0.257   8.677 -1.0232 -0.2734  1.7882
 2968TIP3   OH230462   2.704   2.448   0.666  0.7378  0.3412  0.4465
 2968TIP3    H130463   2.786   2.399   0.658  0.2663 -0.3087 -0.6654
 2968TIP3    H230464   2.680   2.470   0.576 -0.2952  0.5358  0.7504
 2969TIP3   OH230465   5.232   1.314   0.700  0.1002 -0.3136  0.1510
 2969TIP3    H130466   5.137   1.315   0.713 -0.0019 -1.6709 -0.3900
 2969TIP3    H230467   5.245   1.256   0.626  1.5306 -2.3424  1.8727
 2970TIP3   OH230468   2.774   6.553   2.518 -0.4604  0.1446 -0.2725
 2970TIP3    H130469   2.836   6.593   2.579  0.8074  0.1297 -1.5050
 2970TIP3    H230470   2.689   6.566   2.559  0.4023 -0.5224  1.8496
 2971TIP3   OH230471   2.868   1.778   7.998 -0.0305 -0.2669  0.2495
 2971TIP3    H130472   2.814   1.818   7.930 -0.3038 -0.6896  0.2113
 2971TIP3    H230473   2.807   1.757   8.068  0.3286  0.6225  0.8476
 2972TIP3   OH230474   3.332   1.300   0.566  0.8785 -0.0648 -0.0695
 2972TIP3    H130475   3.305   1.327   0.478  1.4900 -1.6126 -0.7696
 2972TIP3    H230476   3.294   1.366   0.624  0.3459  0.9132 -1.4762
 2973TIP3   OH230477   2.987   6.675   2.158 -0.0591  0.2615  0.0900
 2973TIP3    H130478   2.949   6.587   2.169  3.5845 -1.4984  0.1134
 2973TIP3    H230479   2.992   6.710   2.246  0.1126 -0.2635  0.2904
 2974TIP3   OH230480   1.065   2.760   3.218 -0.1678 -0.1967  0.1636
 2974TIP3    H130481   1.040   2.677   3.260  0.7750  1.2205  4.0076
 2974TIP3    H230482   1.152   2.779   3.253 -0.3092  2.3521 -0.6919
 2975TIP3   OH230483   6.602   0.997   8.205 -0.1728 -0.7305 -1.3960
 2975TIP3    H130484   6.612   1.065   8.272  0.9276  0.5500 -2.7816
 2975TIP3    H230485   6.676   0.938   8.219 -1.6799 -2.2986  0.4449
 2976TIP3   OH230486   2.755   1.945   1.222 -0.0321 -0.0500 -0.0308
 2976TIP3    H130487   2.706   2.025   1.208  2.5579  1.6041 -0.3820
 2976TIP3    H230488   2.803   1.931   1.140  2.4503  0.2525  1.2840
 2977TIP3   OH230489   5.446   3.797   0.535 -0.1124 -0.3832 -0.3872
 2977TIP3    H130490   5.532   3.836   0.519 -1.2648  1.6170 -2.3314
 2977TIP3    H230491   5.464   3.704   0.551  2.5821  0.4186  1.9446
 2978TIP3   OH230492   0.410   6.725   0.691 -0.2786 -0.5264 -0.2380
 2978TIP3    H130493   0.343   6.704   0.755  0.2481 -0.5459  0.3174
 2978TIP3    H230494   0.362   6.735   0.609 -0.8503 -1.4232 -0.0355
 2979TIP3   OH230495   0.457   1.283   1.330 -0.1450  0.5087 -0.0910
 2979TIP3    H130496   0.428   1.267   1.419  1.2347  0.8671  0.4626
 2979TIP3    H230497   0.520   1.356   1.338  0.4560  0.1566 -1.2625
 2980TIP3   OH230498   6.569   2.262   1.024 -0.5599  0.0820  0.8668
 2980TIP3    H130499   6.603   2.331   0.968 -0.7176 -2.1666 -2.2577
 2980TIP3    H230500   6.642   2.239   1.082  0.8454  0.2016 -0.8026
 2981TIP3   OH230501   1.858   0.876   3.127 -0.4491  0.4177  0.4551
 2981TIP3    H130502   1.790   0.930   3.167  0.6368  0.7581  1.8780
 2981TIP3    H230503   1.915   0.938   3.082  0.3039  0.3885  1.3510
 2982TIP3   OH230504   0.814   1.643   1.573  0.5127 -0.3792  0.0212
 2982TIP3    H130505   0.795   1.729   1.611 -1.3267 -1.0351  0.6684
 2982TIP3    H230506   0.877   1.661   1.504  1.4904  1.2726  1.2582
 2983TIP3   OH230507   6.698   3.567   7.439 -0.3940 -0.4331  0.4305
 2983TIP3    H130508   6.756   3.643   7.443 -1.5739  0.6255 -1.2950
 2983TIP3    H230509   6.757   3.492   7.429  0.7613  0.3159  1.4578
 2984TIP3   OH230510   5.679   3.436   0.698  0.5109 -1.0223  0.0031
 2984TIP3    H130511   5.743   3.508   0.695  1.2900 -1.7093 -2.0340
 2984TIP3    H230512   5.692   3.396   0.784  1.5825 -0.0380  0.3298
 2985TIP3   OH230513   3.459   2.138   0.637  0.1036  0.1811 -0.2121
 2985TIP3    H130514   3.459   2.126   0.732 -1.7431 -0.5275 -0.2594
 2985TIP3    H230515   3.510   2.218   0.622 -0.1131  0.6501  1.4302
 2986TIP3   OH230516   5.313   5.156   2.024  0.2366  0.0059  0.1471
 2986TIP3    H130517   5.225   5.127   2.000 -0.5592  1.2090  1.4871
 2986TIP3    H230518   5.362   5.151   1.942 -1.3182  0.1845 -0.8458
 2987TIP3   OH230519   1.106   4.755   7.858  0.5655  0.2032  0.1560
 2987TIP3    H130520   1.081   4.840   7.895  0.1235 -0.4135  1.3195
 2987TIP3    H230521   1.068   4.756   7.770 -2.1340  0.0177  1.2312
 2988TIP3   OH230522   0.041   2.331   7.307 -0.0333 -0.3877  0.2291
 2988TIP3    H130523   0.076   2.419   7.293 -0.0993 -0.4107 -0.0958
 2988TIP3    H230524  -0.044   2.346   7.349 -1.0245 -0.1805 -1.7173
 2989TIP3   OH230525   0.958   1.742   1.093  0.2795  0.1522 -0.3250
 2989TIP3    H130526   0.908   1.683   1.036  1.3303  2.2269 -3.6629
 2989TIP3    H230527   0.896   1.812   1.113  0.4214  0.2825 -0.3475
 2990TIP3   OH230528   2.379   1.927   7.673  0.0418 -0.3065 -0.5066
 2990TIP3    H130529   2.344   2.015   7.683  1.1745 -0.0186  1.5112
 2990TIP3    H230530   2.308   1.877   7.634 -2.3160  0.4922  2.3917
 2991TIP3   OH230531   2.235   0.306   0.925 -0.0363 -0.4328  0.1315
 2991TIP3    H130532   2.304   0.240   0.913  0.4784  0.3883 -1.7084
 2991TIP3    H230533   2.283   0.387   0.945 -0.6228 -0.3571  1.3653
 2992TIP3   OH230534   1.151   5.742   2.119 -0.0883  0.6454  0.3688
 2992TIP3    H130535   1.066   5.787   2.117  0.1392  1.0750 -1.2947
 2992TIP3    H230536   1.163   5.717   2.210 -2.3376 -0.0490  0.5372
 2993TIP3   OH230537   1.095   4.840   8.419 -0.3235  0.4231  0.3541
 2993TIP3    H130538   1.032   4.797   8.476  1.0200  0.9483  2.3319
 2993TIP3    H230539   1.064   4.930   8.411  0.3980  0.8424  1.8062
 2994TIP3   OH230540   6.831   1.427   1.863  0.4293 -0.2579 -0.0606
 2994TIP3    H130541   6.757   1.449   1.806  0.5631 -1.3966 -0.7127
 2994TIP3    H230542   6.853   1.336   1.840  0.6100 -0.6978  1.6903
 2995TIP3   OH230543   2.499   1.278   2.453  0.2623 -0.3123 -0.4277
 2995TIP3    H130544   2.485   1.299   2.546  0.4303 -1.0130 -0.2399
 2995TIP3    H230545   2.589   1.308   2.436 -0.0118  0.4630 -0.5589
 2996TIP3   OH230546   2.695   0.420   0.829  0.4305  0.7642 -0.2254
 2996TIP3    H130547   2.614   0.440   0.782  0.1954  0.5320  0.0720
 2996TIP3    H230548   2.723   0.336   0.793 -0.2707  0.1052  0.7084
 2997TIP3   OH230549   0.207   5.327   7.961 -0.3893 -0.1959  0.2555
 2997TIP3    H130550   0.279   5.306   8.020  1.6493 -0.5940 -2.2181
 2997TIP3    H230551   0.189   5.420   7.977  1.4764  0.2179  0.1223
 2998TIP3   OH230552   5.099   3.705   1.955 -0.0744  0.2199  0.3859
 2998TIP3    H130553   5.083   3.730   2.046 -1.0863 -0.4023  0.4013
 2998TIP3    H230554   5.026   3.743   1.907  0.6366  0.8300 -0.2267
 2999TIP3   OH230555   1.978   1.581   0.539 -0.5837  0.0184  0.0089
 2999TIP3    H130556   1.979   1.630   0.622  0.4972 -2.6696  1.7148
 2999TIP3    H230557   2.022   1.639   0.477  0.7183  1.1884  1.9195
 3000TIP3   OH230558   5.901   5.891   0.951 -0.0002 -0.3560  0.1643
 3000TIP3    H130559   5.906   5.835   1.028  1.6579  0.3981  0.6472
 3000TIP3    H230560   5.980   5.871   0.901 -0.9667 -0.7137 -1.2987
 3001TIP3   OH230561   2.998   3.530   7.338 -0.2194  0.4448  0.1346
 3001TIP3    H130562   3.036   3.617   7.331 -1.0034  0.7921  0.1310
 3001TIP3    H230563   2.959   3.514   7.252 -3.3218  1.6387  1.1752
 3002TIP3   OH230564   2.852   6.724   1.358  0.3739  0.1095 -1.0529
 3002TIP3    H130565   2.826   6.720   1.266 -1.3356 -0.1388 -0.6039
 3002TIP3    H230566   2.839   6.635   1.390  0.3381  0.3311 -0.4330
 3003TIP3   OH230567   5.658   5.835   2.043 -0.3632 -0.1044  0.5822
 3003TIP3    H130568   5.606   5.792   2.111  2.8048  0.1748  3.4258
 3003TIP3    H230569   5.711   5.765   2.005  0.1492  0.2602  0.6178
 3004TIP3   OH230570   3.663   5.481   2.304 -0.1403 -0.0126 -0.0614
 3004TIP3    H130571   3.635   5.442   2.387  0.4112 -1.3545 -0.4749
 3004TIP3    H230572   3.582   5.502   2.258 -0.5285 -2.0750 -0.4366
 3005TIP3   OH230573   4.020   4.172   0.627 -0.0421 -0.0235  0.2362
 3005TIP3    H130574   4.068   4.159   0.546 -1.5590 -1.0831 -0.5398
 3005TIP3    H230575   4.084   4.152   0.696  0.5672 -1.7434 -0.7566
 3006TIP3   OH230576   6.793   2.847   0.203  0.6903 -0.0532  0.2921
 3006TIP3    H130577   6.709   2.802   0.212  1.4677 -1.5827  0.2315
 3006TIP3    H230578   6.802   2.863   0.109  0.5981 -0.1243  0.2716
 3007TIP3   OH230579   2.038   5.306   7.977  0.1542  0.1801 -0.5485
 3007TIP3    H130580   2.044   5.211   7.976 -1.0375 -0.0478  2.6235
 3007TIP3    H230581   1.967   5.326   7.915 -0.9468 -1.2107  0.1954
 3008TIP3   OH230582   3.005   5.756   8.761 -0.0383 -0.2591  0.1415
 3008TIP3    H130583   2.932   5.703   8.792  1.1977 -3.2783 -1.6473
 3008TIP3    H230584   3.083   5.712   8.796  1.0402  0.6123 -1.0719
 3009TIP3   OH230585   2.624   6.332   2.304  0.0708  0.3636  0.1374
 3009TIP3    H130586   2.620   6.403   2.368 -0.2578 -0.4318  1.0283
 3009TIP3    H230587   2.532   6.307   2.292  0.2597 -0.6972  0.7607
 3010TIP3   OH230588   2.536   0.138   3.098 -0.0726 -0.4249  0.4161
 3010TIP3    H130589   2.568   0.218   3.141  0.0166  0.5054 -1.2816
 3010TIP3    H230590   2.616   0.089   3.078 -0.0410 -0.3581  0.3772
 3011TIP3   OH230591   2.370   3.920   2.491  0.1081 -0.0899 -0.1457
 3011TIP3    H130592   2.428   3.853   2.528  0.1115 -0.3687 -0.6371
 3011TIP3    H230593   2.341   3.971   2.566  3.3919  2.0032 -0.1119
 3012TIP3   OH230594   0.650   3.150   0.933 -0.0803 -0.1053 -0.9061
 3012TIP3    H130595   0.705   3.081   0.896  0.9582  2.2393 -4.0872
 3012TIP3    H230596   0.572   3.151   0.877 -1.7175 -0.8414  1.2107
 3013TIP3   OH230597   3.058   4.069   0.029  0.0177  0.3457  0.1611
 3013TIP3    H130598   3.138   4.019   0.048  0.2374 -0.5227 -2.5911
 3013TIP3    H230599   3.006   4.010  -0.026 -1.9701  1.3907  0.8356
 3014TIP3   OH230600   2.244   1.536   8.409 -0.5205 -0.0649  0.4690
 3014TIP3    H130601   2.199   1.543   8.325 -0.8414 -1.4785  0.4922
 3014TIP3    H230602   2.195   1.592   8.468 -0.4229  0.7680 -0.2304
 3015TIP3   OH230603   6.593   5.819   2.062  0.6555 -0.5905  0.1455
 3015TIP3    H130604   6.688   5.804   2.071  0.7472 -1.4060 -1.7830
 3015TIP3    H230605   6.585   5.878   1.987 -0.4248 -2.1449 -1.0175
 3016TIP3   OH230606   0.048   5.955   8.250  0.0776  0.2729  0.0194
 3016TIP3    H130607   0.122   5.906   8.286  0.4495  0.0856 -0.9847
 3016TIP3    H230608   0.042   6.033   8.306  0.1338 -0.3876  0.9802
 3017TIP3   OH230609   1.142   1.366   8.606 -0.2795 -0.1802  0.1693
 3017TIP3    H130610   1.195   1.289   8.626  1.0056  0.0971 -1.9623
 3017TIP3    H230611   1.055   1.330   8.586 -0.2392 -0.8701  1.1492
 3018TIP3   OH230612   1.014   1.673   0.444 -0.1980 -0.1656 -0.8577
 3018TIP3    H130613   0.965   1.753   0.463 -0.4898 -0.4782 -0.2461
 3018TIP3    H230614   1.106   1.698   0.452 -0.2794  0.2040 -1.0672
 3019TIP3   OH230615   1.983   6.712   7.209 -0.1608  0.2223  0.2324
 3019TIP3    H130616   1.913   6.767   7.173 -1.9333  0.0100  3.0241
 3019TIP3    H230617   1.990   6.639   7.148 -2.4213  0.2487 -0.1519
 3020TIP3   OH230618   0.924   3.859   7.699  0.4135  0.5480 -0.2519
 3020TIP3    H130619   1.001   3.885   7.649  0.1708  1.5674 -0.1128
 3020TIP3    H230620   0.902   3.772   7.665  0.8453  0.7932 -1.2004
 3021TIP3   OH230621   6.632   3.239   7.594 -0.2396  0.0515 -0.3791
 3021TIP3    H130622   6.694   3.285   7.537 -0.5323 -0.0959 -0.8177
 3021TIP3    H230623   6.643   3.147   7.573 -1.0634  0.0684 -0.9260
 3022TIP3   OH230624   1.534   6.717   0.124  0.6114  0.0139 -0.4845
 3022TIP3    H130625   1.602   6.726   0.190  0.8577 -2.0239 -0.4042
 3022TIP3    H230626   1.494   6.804   0.119  0.4245  0.2164  2.5031
 3023TIP3   OH230627   3.823   0.882   3.074 -0.0628 -0.0222 -0.0919
 3023TIP3    H130628   3.787   0.930   3.000  0.7744 -1.2268 -1.3102
 3023TIP3    H230629   3.773   0.914   3.149  0.2956  2.5829 -0.8552
 3024TIP3   OH230630   5.512   4.247   8.035  0.1995 -0.0003 -0.2884
 3024TIP3    H130631   5.506   4.220   7.943  0.6281  1.4525 -0.7634
 3024TIP3    H230632   5.581   4.313   8.036  0.0766  0.1245  1.0598
 3025TIP3   OH230633   3.959   0.723   3.423  0.0367 -0.0949 -0.1232
 3025TIP3    H130634   3.901   0.675   3.482  0.5442  0.8838  1.2144
 3025TIP3    H230635   3.952   0.814   3.451  0.1094  0.4445 -1.7506
 3026TIP3   OH230636   2.850   1.844   0.208 -0.4064 -0.2213 -0.5427
 3026TIP3    H130637   2.854   1.933   0.243 -0.0252  0.0561 -1.2697
 3026TIP3    H230638   2.879   1.789   0.281 -1.6022  0.1449  0.2352
 3027TIP3   OH230639   6.801   3.027   8.418  0.0779 -0.0633 -0.1022
 3027TIP3    H130640   6.710   3.053   8.411 -0.2394 -1.2284 -0.6367
 3027TIP3    H230641   6.837   3.082   8.488 -0.1517  2.7363 -2.0385
 3028TIP3   OH230642   5.717   6.089   1.111 -0.3369 -0.0219  0.1902
 3028TIP3    H130643   5.779   6.138   1.057  1.2691 -0.9358  1.1293
 3028TIP3    H230644   5.749   5.999   1.109 -0.6867 -0.2282  1.9827
 3029TIP3   OH230645   5.854   2.221   2.163 -0.8909 -0.0134 -0.0535
 3029TIP3    H130646   5.928   2.253   2.214 -1.7740  2.1466 -0.0204
 3029TIP3    H230647   5.857   2.126   2.173  1.9626 -0.0256 -0.2200
 3030TIP3   OH230648   4.541   4.965   2.081  0.8878 -0.0900 -0.1382
 3030TIP3    H130649   4.502   4.896   2.027  0.1682  1.3557 -1.5389
 3030TIP3    H230650   4.630   4.933   2.099  0.5831 -1.3646 -0.7669
 3031TIP3   OH230651   5.646   6.333   0.499 -0.1783  0.1585 -0.1494
 3031TIP3    H130652   5.658   6.325   0.593 -1.3337  2.1270  0.2162
 3031TIP3    H230653   5.619   6.246   0.470  0.6616 -0.5857  1.2399
 3032TIP3   OH230654   5.904   2.126   1.349 -0.3049  0.1204  0.1937
 3032TIP3    H130655   5.953   2.080   1.419 -0.5012 -0.6122 -0.1373
 3032TIP3    H230656   5.963   2.123   1.274 -0.9523 -1.0483 -0.3020
 3033TIP3   OH230657   5.954   2.630   1.396 -0.0437  0.2263  0.2041
 3033TIP3    H130658   5.943   2.538   1.369  0.9421  0.3062 -0.5515
 3033TIP3    H230659   5.906   2.680   1.330  0.5072  0.3104 -0.1394
 3034TIP3   OH230660   0.883   4.900   1.452  0.3945 -0.4648 -0.0222
 3034TIP3    H130661   0.901   4.986   1.414  3.5077 -1.5362 -1.3250
 3034TIP3    H230662   0.788   4.889   1.441  0.2487  1.7874 -2.0192
 3035TIP3   OH230663   4.578   0.667   1.963 -0.0591  0.2401 -0.3447
 3035TIP3    H130664   4.543   0.721   2.034 -1.2672 -2.0821  0.9626
 3035TIP3    H230665   4.572   0.577   1.996 -0.7004 -0.9702 -3.3849
 3036TIP3   OH230666   5.190   5.617   2.263 -0.0922  0.3803  0.2266
 3036TIP3    H130667   5.173   5.541   2.208  0.8874  0.1343  0.2478
 3036TIP3    H230668   5.105   5.659   2.272 -0.6541 -0.7147  0.2230
 3037TIP3   OH230669   5.761   5.513   0.964 -0.2716 -0.5459  0.3392
 3037TIP3    H130670   5.749   5.461   0.885  2.4624 -1.3985  0.3711
 3037TIP3    H230671   5.706   5.470   1.030 -0.4030 -1.5408 -0.3982
 3038TIP3   OH230672   1.116   2.207   2.434  0.3545 -0.0070 -0.0717
 3038TIP3    H130673   1.153   2.246   2.354  0.1417 -0.2237 -0.2778
 3038TIP3    H230674   1.123   2.276   2.499  1.8685 -0.3050  0.1172
 3039TIP3   OH230675   0.602   4.133   1.900  0.4002 -0.2210  0.0461
 3039TIP3    H130676   0.691   4.133   1.933  0.1006 -0.4512  0.8655
 3039TIP3    H230677   0.586   4.042   1.873  1.0208  0.1807 -1.8117
 3040TIP3   OH230678   0.724   4.527   1.114  0.3652 -0.0333 -0.1685
 3040TIP3    H130679   0.750   4.570   1.033 -0.4088 -1.9874 -1.5304
 3040TIP3    H230680   0.804   4.483   1.144  0.3005 -0.5260 -0.6988
 3041TIP3   OH230681   5.171   0.593   2.295  0.0315 -0.4911  0.2340
 3041TIP3    H130682   5.249   0.569   2.345 -0.9733 -0.2960  1.9849
 3041TIP3    H230683   5.098   0.576   2.355 -1.1449  0.9701 -0.7134
 3042TIP3   OH230684   1.002   4.955   2.170 -0.0375 -0.0535  0.2324
 3042TIP3    H130685   0.922   4.940   2.120 -0.6894  2.1252  0.5096
 3042TIP3    H230686   1.019   5.049   2.161  1.6119 -0.1817  1.4751
 3043TIP3   OH230687   3.554   2.915   0.717 -0.3671  0.4208 -0.2288
 3043TIP3    H130688   3.494   2.961   0.776 -0.3534  0.8489 -0.5414
 3043TIP3    H230689   3.641   2.940   0.746 -0.3648  1.1870 -0.8441
 3044TIP3   OH230690   3.514   5.496   1.723  0.1273 -0.2502  0.0535
 3044TIP3    H130691   3.502   5.477   1.630  0.7338 -1.1582  0.1411
 3044TIP3    H230692   3.559   5.580   1.724 -0.9422  0.3424 -0.4289
 3045TIP3   OH230693   6.528   4.203   1.417  0.2722  0.5452  0.0722
 3045TIP3    H130694   6.612   4.182   1.457  0.3376 -1.5127 -1.0078
 3045TIP3    H230695   6.526   4.299   1.414  3.2861  0.6784 -1.2424
 3046TIP3   OH230696   1.194   2.487   2.644  0.5007 -0.0295 -0.0842
 3046TIP3    H130697   1.274   2.537   2.625  1.6730 -1.9877 -0.5960
 3046TIP3    H230698   1.186   2.489   2.739  0.5974  0.9736 -0.0837
 3047TIP3   OH230699   5.690   5.561   2.261 -0.0883  0.2707 -0.6014
 3047TIP3    H130700   5.616   5.619   2.243  0.0944  0.6953 -0.0268
 3047TIP3    H230701   5.666   5.517   2.342 -0.6252 -1.1363 -1.5053
 3048TIP3   OH230702   5.353   6.158   0.113 -0.8328 -0.2608 -0.1876
 3048TIP3    H130703   5.334   6.237   0.164  0.7705 -1.0294  1.7324
 3048TIP3    H230704   5.401   6.190   0.037 -2.4485  0.8299 -0.8104
 3049TIP3   OH230705   5.268   3.949   8.706  0.3896  0.0914  0.0043
 3049TIP3    H130706   5.196   3.887   8.707 -1.7947  2.4634  0.5258
 3049TIP3    H230707   5.269   3.985   8.618  0.8526  0.1685  0.0358
 3050TIP3   OH230708   0.111   1.332   8.556  0.1319 -0.3305 -0.3800
 3050TIP3    H130709   0.029   1.366   8.521 -0.6326 -1.6805 -0.0049
 3050TIP3    H230710   0.115   1.366   8.645  0.1695  0.0539 -0.5303
 3051TIP3   OH230711   0.056   2.217   1.451  0.0440 -0.0849  1.0416
 3051TIP3    H130712   0.037   2.308   1.472 -1.5629  0.0812 -0.8548
 3051TIP3    H230713  -0.021   2.169   1.481  0.3744 -0.6545  0.9938
 3052TIP3   OH230714   2.120   3.106   7.049  0.8061 -0.0940 -0.1700
 3052TIP3    H130715   2.191   3.155   7.090  0.3623 -0.0678  0.5862
 3052TIP3    H230716   2.104   3.032   7.108 -1.4729  1.2630  1.0532
 3053TIP3   OH230717   2.759   1.994   2.344  0.6254  0.5261 -0.0658
 3053TIP3    H130718   2.716   2.068   2.385  1.0633  0.0004  1.3890
 3053TIP3    H230719   2.729   1.996   2.253 -1.3514  0.9958  0.5499
 3054TIP3   OH230720   4.779   6.508   6.957 -0.1634  0.0646  0.4988
 3054TIP3    H130721   4.782   6.472   6.868  1.0721  1.4270 -0.0549
 3054TIP3    H230722   4.788   6.433   7.014  0.2832 -0.7127 -0.5612
 3055TIP3   OH230723   5.997   4.279   8.428 -0.2375  0.6160  0.3331
 3055TIP3    H130724   6.011   4.186   8.446  1.1809  0.3694 -1.6541
 3055TIP3    H230725   5.935   4.280   8.355  1.2268  1.0836 -0.9678
 3056TIP3   OH230726   5.747   2.511   8.724  0.0782 -0.0945 -0.1894
 3056TIP3    H130727   5.719   2.509   8.633 -1.6307  1.1177  0.2696
 3056TIP3    H230728   5.832   2.556   8.722  0.7183 -1.2679 -1.2839
 3057TIP3   OH230729   4.505   0.056   2.615 -0.1336 -0.1763 -0.0536
 3057TIP3    H130730   4.551   0.133   2.583 -0.7935 -0.6364 -2.2926
 3057TIP3    H230731   4.444   0.033   2.545 -3.3610  0.0198  2.4475
 3058TIP3   OH230732   5.480   2.122   2.548  0.2853  0.4242 -0.3886
 3058TIP3    H130733   5.482   2.211   2.514 -1.6487 -0.0876 -2.0372
 3058TIP3    H230734   5.455   2.131   2.640  0.0469  1.5667 -0.5594
 3059TIP3   OH230735   4.578   6.084   8.063  0.5696 -0.4044  0.4147
 3059TIP3    H130736   4.591   6.175   8.090 -0.8469 -0.4119  1.2312
 3059TIP3    H230737   4.491   6.084   8.021  0.6502 -1.3329  0.2230
 3060TIP3   OH230738   4.641   0.424   2.062  0.2040 -0.2138 -0.1717
 3060TIP3    H130739   4.648   0.355   1.996 -2.9627 -2.1509  1.2457
 3060TIP3    H230740   4.681   0.387   2.140  1.6869  1.0592 -0.2931
 3061TIP3   OH230741   3.009   6.830   8.183  0.5180  0.0751  0.1478
 3061TIP3    H130742   2.983   6.752   8.134 -0.3195 -0.4984  1.4366
 3061TIP3    H230743   3.075   6.798   8.245  0.5174  0.4947  0.3651
 3062TIP3   OH230744   4.073   5.770   1.723 -0.1669  0.2749  0.2727
 3062TIP3    H130745   4.110   5.687   1.752  1.5726  0.0938 -2.1379
 3062TIP3    H230746   4.030   5.750   1.640 -0.6560  1.5852  0.1785
 3063TIP3   OH230747   5.921   3.532   1.280 -0.4069  0.6758 -0.0188
 3063TIP3    H130748   5.833   3.527   1.243 -0.0928  0.5805 -0.7835
 3063TIP3    H230749   5.964   3.453   1.248  0.0742  0.9223  0.0117
 3064TIP3   OH230750   1.712   0.106   1.975 -0.1698 -0.3052 -0.7757
 3064TIP3    H130751   1.636   0.165   1.982 -0.1401 -0.3838  0.5817
 3064TIP3    H230752   1.785   0.165   1.955 -0.1526  0.1444  0.5051
 3065TIP3   OH230753   4.328   5.159   0.684 -0.2933 -0.0331 -0.0433
 3065TIP3    H130754   4.296   5.125   0.600  1.1185  0.2827 -0.7393
 3065TIP3    H230755   4.253   5.204   0.722 -1.2815 -1.1446 -0.6101
 3066TIP3   OH230756   3.108   1.998   1.614 -0.2994  0.4049 -0.8889
 3066TIP3    H130757   3.089   1.919   1.664 -0.5414  0.2308 -1.2539
 3066TIP3    H230758   3.131   1.966   1.527 -1.1078  0.7695 -1.2462
 3067TIP3   OH230759   0.640   3.371   0.236  0.1275  0.7858 -0.0685
 3067TIP3    H130760   0.566   3.325   0.197 -0.4695 -0.2256  2.1279
 3067TIP3    H230761   0.642   3.455   0.190 -1.6876  0.4147 -0.9310
 3068TIP3   OH230762   2.459   0.741   2.765  0.1697 -0.6921  0.8865
 3068TIP3    H130763   2.552   0.752   2.747 -0.3132  2.0791 -0.4376
 3068TIP3    H230764   2.449   0.647   2.783  2.9810 -1.2997 -0.2087
 3069TIP3   OH230765   4.697   6.318   8.243 -0.2585 -0.4258  0.0518
 3069TIP3    H130766   4.759   6.389   8.229  0.7774 -1.2740  0.2101
 3069TIP3    H230767   4.649   6.344   8.322  0.3979 -0.0983  0.3533
 3070TIP3   OH230768   1.882   5.398   7.705 -0.2944 -0.0828 -0.0097
 3070TIP3    H130769   1.922   5.430   7.624  0.0219  0.2489  0.2707
 3070TIP3    H230770   1.791   5.381   7.681 -0.0729 -0.5187 -0.5714
 3071TIP3   OH230771   3.023   4.454   0.438 -0.0273 -0.4750  0.4334
 3071TIP3    H130772   2.963   4.380   0.426  0.3294 -0.5591 -0.9670
 3071TIP3    H230773   3.107   4.423   0.402  0.1720  0.5398 -0.0019
 3072TIP3   OH230774   1.819   0.954   8.275 -0.2112  0.3286 -0.2825
 3072TIP3    H130775   1.814   1.036   8.227  0.7440  0.4336 -0.2271
 3072TIP3    H230776   1.882   0.971   8.345  1.4956 -0.9800 -1.4036
 3073TIP3   OH230777   3.945   4.628   0.057  0.6759 -0.3660 -0.4757
 3073TIP3    H130778   4.006   4.635   0.131 -0.4886 -0.0122  0.4830
 3073TIP3    H230779   4.001   4.608  -0.018  1.8308 -1.4466  0.6167
 3074TIP3   OH230780   4.849   4.852   0.388 -0.2786 -0.7062  0.5555
 3074TIP3    H130781   4.845   4.939   0.428  0.1343 -1.5209  2.4803
 3074TIP3    H230782   4.943   4.835   0.376 -0.4183 -0.0923 -1.7352
 3075TIP3   OH230783   1.070   1.393   0.846  0.1571  0.0393 -0.2886
 3075TIP3    H130784   1.026   1.374   0.929  2.0752  0.8561  0.9860
 3075TIP3    H230785   1.002   1.430   0.790 -0.9814  0.3049  1.2199
 3076TIP3   OH230786   0.749   4.301   6.936 -0.1641  0.0608 -0.3528
 3076TIP3    H130787   0.819   4.263   6.989 -0.2240 -1.8695 -1.5876
 3076TIP3    H230788   0.795   4.345   6.864 -0.0961  2.4589  1.0314
 3077TIP3   OH230789   3.372   3.081   7.643  0.0567 -0.3831  0.1546
 3077TIP3    H130790   3.281   3.055   7.632 -0.2949  0.5615  0.7503
 3077TIP3    H230791   3.413   3.064   7.558 -0.9960  0.4757 -0.5445
 3078TIP3   OH230792   2.240   6.042   2.379 -0.0262  0.0465 -0.1893
 3078TIP3    H130793   2.273   5.972   2.323  0.0914  1.6523 -2.2447
 3078TIP3    H230794   2.304   6.113   2.371 -0.0593  0.3999  1.9573
 3079TIP3   OH230795   1.664   6.170   3.112 -1.1183 -0.2167 -0.4265
 3079TIP3    H130796   1.689   6.083   3.083 -0.7290  0.4895 -2.3960
 3079TIP3    H230797   1.730   6.194   3.177  0.1163 -0.5346 -1.5166
 3080TIP3   OH230798   4.365   0.080   1.386  0.1545 -0.1290  0.5196
 3080TIP3    H130799   4.419   0.156   1.361 -0.2158 -0.0038  0.0784
 3080TIP3    H230800   4.353   0.089   1.480  0.6445  0.0162  0.5703
 3081TIP3   OH230801   4.011   3.810   1.874  0.3719  0.0765 -0.1853
 3081TIP3    H130802   4.031   3.890   1.827  0.6611  0.9905  1.4132
 3081TIP3    H230803   3.925   3.783   1.841  0.4832  0.7692 -1.0820
 3082TIP3   OH230804   1.793   3.892   8.059 -0.1800 -0.5677  0.1498
 3082TIP3    H130805   1.798   3.965   7.997  0.1311 -0.2705  0.5158
 3082TIP3    H230806   1.701   3.865   8.058 -0.3582  0.0250  0.2359
 3083TIP3   OH230807   4.267   1.885   1.272 -0.3306 -0.1182  0.4662
 3083TIP3    H130808   4.222   1.811   1.232 -0.1594 -1.2409  2.2239
 3083TIP3    H230809   4.209   1.912   1.343 -0.2592  1.2832  0.0103
 3084TIP3   OH230810   6.221   3.652   0.901 -0.0973  0.5216 -0.3509
 3084TIP3    H130811   6.304   3.700   0.909 -0.0376  0.3603 -0.0025
 3084TIP3    H230812   6.226   3.583   0.967 -0.3156  0.2220 -0.6423
 3085TIP3   OH230813   4.607   3.558   7.631  0.5403  0.0007  0.1442
 3085TIP3    H130814   4.576   3.479   7.675 -1.4888  0.7489  0.1686
 3085TIP3    H230815   4.533   3.585   7.576  1.5595  1.3275 -0.6232
 3086TIP3   OH230816   5.680   5.215   2.447  0.1654  1.3033 -0.7000
 3086TIP3    H130817   5.651   5.304   2.467 -1.1404  0.6332  0.5696
 3086TIP3    H230818   5.776   5.220   2.446  0.1534  2.4014  0.9044
 3087TIP3   OH230819   0.004   1.623   8.461  0.4008  0.1451  0.1074
 3087TIP3    H130820   0.037   1.593   8.376 -0.0078 -0.1494  0.0486
 3087TIP3    H230821  -0.087   1.594   8.463 -0.0274  1.4322  0.0355
 3088TIP3   OH230822   4.502   2.787   7.860  0.5154  0.3246  0.3152
 3088TIP3    H130823   4.529   2.870   7.821 -1.4725  0.4616 -0.9392
 3088TIP3    H230824   4.455   2.813   7.939  3.0614  0.1322  1.9987
 3089TIP3   OH230825   4.195   5.496   8.339 -0.2291 -0.1082 -0.2383
 3089TIP3    H130826   4.099   5.503   8.343 -0.1412  1.2217 -0.0922
 3089TIP3    H230827   4.215   5.511   8.246 -0.0128  2.2994  0.1348
 3090TIP3   OH230828   4.674   4.639   0.841 -0.1953 -0.3967  0.8114
 3090TIP3    H130829   4.702   4.649   0.750  1.1436  0.8916  1.3241
 3090TIP3    H230830   4.706   4.552   0.867 -0.6164 -0.7839  0.0530
 3091TIP3   OH230831   0.951   2.522   3.299 -0.2928 -0.4011 -0.2681
 3091TIP3    H130832   0.969   2.429   3.288 -0.0328 -0.3131 -0.5866
 3091TIP3    H230833   0.863   2.534   3.264 -0.7987 -0.7367  0.8290
 3092TIP3   OH230834   1.383   5.685   1.141  0.2060  0.1136 -0.0579
 3092TIP3    H130835   1.304   5.707   1.190  0.4116  0.5401  0.0827
 3092TIP3    H230836   1.445   5.655   1.207 -0.2653 -1.5110 -0.2999
 3093TIP3   OH230837   6.764   5.586   0.009 -0.0207 -0.4884  0.7582
 3093TIP3    H130838   6.828   5.552  -0.053  0.7242  0.1033  1.1877
 3093TIP3    H230839   6.765   5.524   0.081  0.3660 -0.2721  0.9421
 3094TIP3   OH230840   3.677   6.226   0.601  0.1543 -0.2721 -0.0135
 3094TIP3    H130841   3.699   6.319   0.606  0.2354 -0.3018  0.1667
 3094TIP3    H230842   3.684   6.194   0.691  1.7712 -0.8384 -0.3045
 3095TIP3   OH230843   0.073   1.067   8.098 -1.4656 -0.1342 -0.0203
 3095TIP3    H130844   0.081   1.126   8.173 -2.4993  2.5817 -1.8733
 3095TIP3    H230845   0.161   1.030   8.087 -1.6091 -1.8874  3.3318
 3096TIP3   OH230846   3.655   2.685   7.968  0.5149 -0.0142  0.5670
 3096TIP3    H130847   3.717   2.646   8.029  0.8165 -0.1774  0.1664
 3096TIP3    H230848   3.709   2.713   7.894 -0.0281 -1.3198 -0.3636
 3097TIP3   OH230849   0.216   4.021   7.633 -0.5397  0.1600  0.3381
 3097TIP3    H130850   0.288   4.068   7.590  0.4311 -0.6483  1.0326
 3097TIP3    H230851   0.151   4.009   7.564  0.5423 -0.2363 -0.6523
 3098TIP3   OH230852   0.348   5.838   1.525  0.1849  0.0927  0.2476
 3098TIP3    H130853   0.364   5.823   1.432  0.0433 -2.4679  0.5521
 3098TIP3    H230854   0.320   5.929   1.531 -1.5057 -0.1577 -2.4517
 3099TIP3   OH230855   0.013   1.598   7.604 -0.5572  0.0295  0.7071
 3099TIP3    H130856   0.025   1.536   7.676  2.0120 -0.1658  0.2132
 3099TIP3    H230857   0.002   1.683   7.648 -1.0291 -0.3491  1.3446
 3100TIP3   OH230858   5.735   3.249   0.953  0.0717  0.3372  0.6008
 3100TIP3    H130859   5.819   3.260   0.998  0.3194  0.3875  0.1313
 3100TIP3    H230860   5.669   3.272   1.018  0.4533  1.2095  0.6860
 3101TIP3   OH230861   2.613   1.690   1.103 -0.8677  0.6063 -0.1206
 3101TIP3    H130862   2.653   1.713   1.020  0.8312  1.3647  0.8553
 3101TIP3    H230863   2.652   1.750   1.166 -0.8514 -1.0010  1.5039
 3102TIP3   OH230864   3.965   2.673   7.230  0.4233  0.5078 -0.7822
 3102TIP3    H130865   3.878   2.637   7.245 -0.2346  1.9395 -0.9881
 3102TIP3    H230866   4.022   2.596   7.222 -0.9084 -0.4663 -1.2457
 3103TIP3   OH230867   0.541   4.247   0.766 -0.3648  0.6519  0.1817
 3103TIP3    H130868   0.597   4.206   0.700 -0.4328  0.7367  0.0704
 3103TIP3    H230869   0.462   4.272   0.718 -0.6258  0.2583  0.4028
 3104TIP3   OH230870   3.325   5.970   0.463 -0.0363  0.4964  0.0726
 3104TIP3    H130871   3.256   5.928   0.515  1.8495 -1.6445  0.9827
 3104TIP3    H230872   3.380   5.898   0.433  1.3299  2.0701 -1.4000
 3105TIP3   OH230873   2.929   1.629   0.712 -0.0411  0.0697  0.2462
 3105TIP3    H130874   2.918   1.549   0.763 -0.3325 -0.0861 -0.0529
 3105TIP3    H230875   2.978   1.602   0.635  3.9947  1.0186  2.2337
 3106TIP3   OH230876   5.732   2.250   0.743 -0.9431 -0.6005 -0.3163
 3106TIP3    H130877   5.677   2.189   0.793 -1.1343 -0.2378 -0.0738
 3106TIP3    H230878   5.671   2.318   0.714 -0.4858  0.2650  0.6859
 3107TIP3   OH230879   2.069   3.499   7.577 -0.5134  0.3883 -0.2254
 3107TIP3    H130880   2.006   3.465   7.639 -2.2182 -1.2457 -2.6828
 3107TIP3    H230881   2.132   3.428   7.564  0.5150  1.1403  0.4188
 3108TIP3   OH230882   4.248   6.158   1.116  0.0160 -0.2813  0.2610
 3108TIP3    H130883   4.343   6.161   1.103  0.3503  1.1457  2.4691
 3108TIP3    H230884   4.222   6.072   1.085  1.3179  0.7060 -4.2853
 3109TIP3   OH230885   3.117   6.097   2.494 -0.4667  0.3506  0.9051
 3109TIP3    H130886   3.119   6.027   2.559 -0.6281  1.2138  1.8621
 3109TIP3    H230887   3.026   6.128   2.495 -0.9619 -0.8707 -1.1237
 3110TIP3   OH230888   1.948   1.451   3.165  0.0430  0.1305 -0.0156
 3110TIP3    H130889   2.011   1.515   3.134 -0.0413  0.8610  1.2641
 3110TIP3    H230890   1.879   1.450   3.099  0.5834  0.5469 -0.5852
 3111TIP3   OH230891   5.796   1.140   0.720 -0.1106 -0.7005 -0.1791
 3111TIP3    H130892   5.875   1.094   0.692 -0.3228 -0.9054 -0.4445
 3111TIP3    H230893   5.795   1.131   0.815  1.6148  1.5990  0.1473
 3112TIP3   OH230894   5.682   3.334   2.778 -0.3983 -0.7120 -0.6198
 3112TIP3    H130895   5.641   3.419   2.762  1.2627  0.4983  0.9937
 3112TIP3    H230896   5.769   3.341   2.738  0.1241 -1.2673  0.3713
 3113TIP3   OH230897   4.686   2.578   7.788  0.2158  0.3696 -0.3861
 3113TIP3    H130898   4.726   2.606   7.705  0.4529 -0.4360 -0.5524
 3113TIP3    H230899   4.650   2.658   7.826 -0.1711  0.7042 -1.4239
 3114TIP3   OH230900   6.089   5.182   8.329  0.0460  0.1024  0.4520
 3114TIP3    H130901   6.113   5.211   8.417 -1.1744  2.6391  0.0193
 3114TIP3    H230902   6.172   5.161   8.287  0.9258  1.9496  1.1989
 3115TIP3   OH230903   5.242   6.231   0.418  0.3022  0.3148 -0.4175
 3115TIP3    H130904   5.160   6.206   0.461  0.4281  3.4374  2.0161
 3115TIP3    H230905   5.307   6.229   0.488  2.8898 -3.5960 -2.5669
 3116TIP3   OH230906   6.364   2.360   7.310 -0.3893 -0.2186 -0.1582
 3116TIP3    H130907   6.271   2.379   7.300  0.1725  1.5496 -3.2198
 3116TIP3    H230908   6.397   2.427   7.370 -0.9556 -0.5208  0.5038
 3117TIP3   OH230909   5.583   5.654   1.535  0.6142  0.7437 -0.1134
 3117TIP3    H130910   5.609   5.565   1.512 -1.5693  0.2817 -1.0657
 3117TIP3    H230911   5.594   5.704   1.455  0.6790  1.0521  0.0849
 3118TIP3   OH230912   4.253   1.619   0.121 -0.0708 -0.5274 -0.2838
 3118TIP3    H130913   4.251   1.669   0.202 -1.0306  0.0660 -0.6672
 3118TIP3    H230914   4.316   1.549   0.138  0.3793  0.0913  0.6722
 3119TIP3   OH230915   1.115   6.141   1.091 -0.4025 -0.4748 -0.0123
 3119TIP3    H130916   1.171   6.099   1.156  1.7767 -0.4566 -1.7564
 3119TIP3    H230917   1.137   6.097   1.008 -1.5135  0.9153 -1.1015
 3120TIP3   OH230918   6.652   5.712   2.553  0.4353 -0.1225 -0.1122
 3120TIP3    H130919   6.634   5.755   2.469 -0.1492 -0.3096 -0.0884
 3120TIP3    H230920   6.586   5.644   2.559  1.2103 -0.8802 -0.0350
 3121TIP3   OH230921   1.523   0.086   7.606  0.5485 -0.1416 -0.2439
 3121TIP3    H130922   1.441   0.105   7.561 -0.7107  1.9052  2.5846
 3121TIP3    H230923   1.513  -0.005   7.636 -0.5889 -0.0166 -0.1978
 3122TIP3   OH230924   0.706   2.592   0.866  0.1496 -0.1585  0.1988
 3122TIP3    H130925   0.659   2.656   0.920 -0.9672  1.2070 -2.2376
 3122TIP3    H230926   0.638   2.549   0.815  1.2463 -0.5255 -0.9938
 3123TIP3   OH230927   5.021   0.768   3.105  0.2303  0.0270 -0.0681
 3123TIP3    H130928   5.098   0.722   3.137  1.8330  2.3214 -0.4261
 3123TIP3    H230929   5.032   0.770   3.010 -0.9517 -0.6903 -0.2463
 3124TIP3   OH230930   6.155   6.703   1.674 -0.1673  0.4169  0.2559
 3124TIP3    H130931   6.078   6.755   1.650 -0.7826 -0.8119 -0.5429
 3124TIP3    H230932   6.129   6.612   1.657  1.6267 -0.0023 -0.5120
 3125TIP3   OH230933   2.881   6.459   8.304  0.5184  0.4164  0.0493
 3125TIP3    H130934   2.924   6.386   8.259  0.0244 -0.5932  1.1532
 3125TIP3    H230935   2.825   6.498   8.237  0.4267 -0.5226 -0.4475
 3126TIP3   OH230936   3.943   3.092   0.351  0.1851  0.0510  0.2970
 3126TIP3    H130937   3.893   3.102   0.271  0.1960 -0.1681  0.2600
 3126TIP3    H230938   3.882   3.115   0.421  0.4768  1.2295  0.1737
 3127TIP3   OH230939   0.233   4.521   1.625  0.4466  0.2719  0.4065
 3127TIP3    H130940   0.303   4.530   1.689 -0.1554 -0.3037  1.1715
 3127TIP3    H230941   0.163   4.578   1.657  0.4466  0.6200 -0.1919
 3128TIP3   OH230942   1.138   6.434   8.006  0.0776 -0.2017 -0.1999
 3128TIP3    H130943   1.140   6.530   8.008  0.5980 -0.1812 -1.2077
 3128TIP3    H230944   1.122   6.412   7.915  2.5116 -1.0689 -0.5040
 3129TIP3   OH230945   2.282   6.049   0.596 -0.0252  0.3923  0.2773
 3129TIP3    H130946   2.281   5.969   0.648 -0.3284 -0.6061 -1.2193
 3129TIP3    H230947   2.202   6.095   0.623  1.1902  1.2741  2.6749
 3130TIP3   OH230948   4.461   5.013   8.064  0.2419 -0.0359  0.4835
 3130TIP3    H130949   4.371   5.007   8.096  0.6017 -0.1891  1.4879
 3130TIP3    H230950   4.468   4.943   7.999 -0.5218  0.3396 -0.0205
 3131TIP3   OH230951   2.306   4.120   2.688  0.4269  0.7573  0.4300
 3131TIP3    H130952   2.342   4.193   2.638  0.1896 -0.0703 -1.0132
 3131TIP3    H230953   2.213   4.142   2.699  0.3499  0.6711 -0.0228
 3132TIP3   OH230954   2.270   6.579   0.076 -0.6505  0.2840  0.5111
 3132TIP3    H130955   2.233   6.649   0.130 -0.5635  1.5394 -0.9907
 3132TIP3    H230956   2.318   6.524   0.138 -0.1471  1.9386  1.6686
 3133TIP3   OH230957   0.484   6.333   0.542 -0.2630 -0.1264 -0.2763
 3133TIP3    H130958   0.572   6.337   0.580 -0.9797 -0.0952  1.4830
 3133TIP3    H230959   0.449   6.249   0.573 -0.7357 -0.3240 -1.2918
 3134TIP3   OH230960   1.768   0.739   1.154 -0.2066 -0.1807 -0.3353
 3134TIP3    H130961   1.757   0.650   1.121 -1.2898  0.3925 -1.6264
 3134TIP3    H230962   1.861   0.757   1.144  0.4044 -1.7813  1.7036
 3135TIP3   OH230963   1.795   5.753   1.281  0.2652 -0.3097 -0.3048
 3135TIP3    H130964   1.853   5.683   1.311  0.1319  0.1709  1.1880
 3135TIP3    H230965   1.707   5.719   1.298  0.1637 -0.3066 -0.8262
 3136TIP3   OH230966   4.920   0.827   2.443  0.0876 -0.5966  0.1354
 3136TIP3    H130967   4.975   0.860   2.513  0.6450  0.3571 -0.7169
 3136TIP3    H230968   4.940   0.734   2.438 -1.6535 -1.2086  2.7170
 3137TIP3   OH230969   1.866   6.371   2.978 -0.0729  0.5592  0.2128
 3137TIP3    H130970   1.921   6.295   2.994  0.3080  0.7983  0.0470
 3137TIP3    H230971   1.796   6.364   3.043 -1.5228 -1.3332 -1.4234
 3138TIP3   OH230972   2.145   6.777   0.204 -0.2344  0.2166 -0.3585
 3138TIP3    H130973   2.076   6.797   0.267 -0.7035  1.7488 -1.3089
 3138TIP3    H230974   2.130   6.837   0.131  2.0259  0.5269 -0.6597
 3139TIP3   OH230975   4.699   3.102   1.141  0.6822  0.5310  0.3328
 3139TIP3    H130976   4.684   3.118   1.235  0.8138  0.6673  0.3312
 3139TIP3    H230977   4.792   3.081   1.135  0.8677  1.3810  0.1183
 3140TIP3   OH230978   4.861   1.199   8.742 -0.1739  0.2583 -0.2158
 3140TIP3    H130979   4.770   1.178   8.763 -0.2732  0.0952 -0.7880
 3140TIP3    H230980   4.890   1.126   8.687  0.0092  0.7774 -0.8151
 3141TIP3   OH230981   1.127   1.392   1.786 -0.4412  0.4101  0.1976
 3141TIP3    H130982   1.219   1.401   1.811 -0.0386 -1.4324 -0.4562
 3141TIP3    H230983   1.079   1.396   1.869  0.4037 -0.3213  0.7430
 3142TIP3   OH230984   0.980   1.828   8.402  0.0657  0.2484  0.0563
 3142TIP3    H130985   0.892   1.790   8.406  0.3309 -0.8923 -2.7529
 3142TIP3    H230986   0.968   1.912   8.358  0.1468  1.2034  1.7609
 3143TIP3   OH230987   2.375   1.990   8.593  0.0719 -0.2068  0.1248
 3143TIP3    H130988   2.310   2.029   8.652 -0.5899 -3.3819  1.7552
 3143TIP3    H230989   2.459   2.014   8.632 -0.3308 -1.0633  1.6229
 3144TIP3   OH230990   1.609   4.417   6.725  0.1217 -0.0554  0.6668
 3144TIP3    H130991   1.654   4.344   6.767  0.0128 -0.0013  0.8816
 3144TIP3    H230992   1.639   4.495   6.772 -2.0919 -0.2226  2.5515
 3145TIP3   OH230993   3.742   4.758   8.677 -0.3671  0.4822 -0.3674
 3145TIP3    H130994   3.828   4.733   8.711  0.0963 -0.1420 -1.8706
 3145TIP3    H230995   3.737   4.852   8.690  0.1418  0.3866  0.5912
 3146TIP3   OH230996   5.502   6.237   8.661  0.2024  0.2510  0.6265
 3146TIP3    H130997   5.473   6.150   8.633 -2.4407  1.3456 -0.3227
 3146TIP3    H230998   5.587   6.248   8.618 -0.7796 -0.7323 -1.7538
 3147TIP3   OH230999   0.094   4.441   0.405  0.0325  0.0739  0.1330
 3147TIP3    H131000   0.166   4.392   0.366  0.0435 -0.1574  0.4380
 3147TIP3    H231001   0.119   4.533   0.396  1.5314 -0.0433  2.3970
 3148TIP3   OH231002   5.179   3.138   2.540 -0.0712  0.0108  0.2671
 3148TIP3    H131003   5.192   3.160   2.633  1.0243  0.3770  0.0454
 3148TIP3    H231004   5.084   3.137   2.529 -0.3904 -3.1703  2.1045
 3149TIP3   OH231005   1.241   5.657   7.833  0.2952  0.5288  0.1341
 3149TIP3    H131006   1.279   5.625   7.915  1.8793 -1.3222 -1.2556
 3149TIP3    H231007   1.314   5.695   7.785 -0.4979  1.0075 -0.7408
 3150TIP3   OH231008   4.427   3.405   2.602  0.2637 -0.1824  0.3251
 3150TIP3    H131009   4.362   3.455   2.652 -0.2890 -0.2919 -0.2736
 3150TIP3    H231010   4.377   3.363   2.532  1.0363  0.0328 -0.3759
 3151TIP3   OH231011   6.810   1.872   1.223  0.0173 -0.0462 -0.0650
 3151TIP3    H131012   6.773   1.831   1.145  0.7198  0.2318 -0.5456
 3151TIP3    H231013   6.903   1.851   1.221  0.2766  1.0303  0.0149
 3152TIP3   OH231014   2.354   2.996   8.150 -0.0213  0.0542 -0.2744
 3152TIP3    H131015   2.299   2.917   8.149  0.0279  0.0243 -0.5658
 3152TIP3    H231016   2.384   3.002   8.241 -0.8249  0.2967 -0.0197
 3153TIP3   OH231017   6.662   3.898   8.314 -0.3663  0.2543 -0.0767
 3153TIP3    H131018   6.731   3.964   8.310  0.0787 -0.1410  0.8205
 3153TIP3    H231019   6.703   3.822   8.356 -0.9177 -0.5370 -0.9251
 3154TIP3   OH231020   2.507   5.047   2.334 -0.3815  0.2313 -0.2572
 3154TIP3    H131021   2.430   5.034   2.278  0.2595  0.6000 -1.2400
 3154TIP3    H231022   2.472   5.047   2.424 -1.5448  0.5831 -0.6979
 3155TIP3   OH231023   1.976   5.618   2.898 -0.0358 -0.1846  0.1041
 3155TIP3    H131024   2.008   5.673   2.971  0.5786  0.9897 -1.0115
 3155TIP3    H231025   1.903   5.668   2.861  0.7959  0.1079 -1.1852
 3156TIP3   OH231026   2.970   2.557   2.019 -0.0265  0.1646 -0.6347
 3156TIP3    H131027   3.016   2.478   2.045  0.2116  0.4816 -0.1008
 3156TIP3    H231028   2.929   2.533   1.935 -1.2894 -1.0523  0.2744
 3157TIP3   OH231029   6.391   5.130   2.245 -0.3556 -0.1755 -0.2322
 3157TIP3    H131030   6.434   5.045   2.246 -3.7696 -2.2338 -3.0957
 3157TIP3    H231031   6.305   5.114   2.283 -0.9959  2.0715 -0.5866
 3158TIP3   OH231032   1.921   5.855   0.214  0.3044  0.6647  0.0918
 3158TIP3    H131033   1.832   5.846   0.179  0.8077 -0.0021 -1.0829
 3158TIP3    H231034   1.926   5.787   0.282  1.1438 -2.1453 -2.5662
 3159TIP3   OH231035   6.371   0.937   0.904  0.1325  0.0002 -0.2510
 3159TIP3    H131036   6.442   0.876   0.924 -0.1382 -0.1530  0.2853
 3159TIP3    H231037   6.292   0.883   0.909 -0.1345  0.4470  0.5413
 3160TIP3   OH231038   1.925   5.895   7.596 -0.5457 -0.6523  0.2380
 3160TIP3    H131039   1.975   5.822   7.633  0.3815 -0.2960 -0.2668
 3160TIP3    H231040   1.974   5.920   7.517 -0.6699  0.7072  0.5612
 3161TIP3   OH231041   5.021   2.405   1.805 -0.8022 -0.0954 -0.3006
 3161TIP3    H131042   5.059   2.318   1.794 -2.2086 -0.7533 -0.2128
 3161TIP3    H231043   4.977   2.401   1.890 -0.9299  0.6929 -0.3222
 3162TIP3   OH231044   5.690   4.888   8.206 -0.0291  0.1844 -0.2234
 3162TIP3    H131045   5.752   4.837   8.155  0.4258 -2.0473  2.3629
 3162TIP3    H231046   5.736   4.970   8.225  1.0256 -0.2843 -0.6819
 3163TIP3   OH231047   6.335   2.888   0.316  0.4026 -0.1313  0.2975
 3163TIP3    H131048   6.348   2.868   0.409  0.1113  0.0331  0.3754
 3163TIP3    H231049   6.243   2.914   0.310  0.2982 -0.5724 -0.1138
 3164TIP3   OH231050   6.403   1.930   2.471  0.0261 -0.1883 -0.0209
 3164TIP3    H131051   6.433   2.000   2.529  0.8757 -0.2148 -0.4147
 3164TIP3    H231052   6.323   1.965   2.431  0.4455  0.5629 -0.2260
 3165TIP3   OH231053   2.907   4.082   2.101  0.0283 -0.6141  0.0240
 3165TIP3    H131054   2.981   4.063   2.159 -1.1733  0.6871  2.1490
 3165TIP3    H231055   2.857   4.001   2.098  1.7886 -1.7070 -1.9487
 3166TIP3   OH231056   6.238   3.963   8.616 -0.2633  0.6491 -0.2431
 3166TIP3    H131057   6.239   3.868   8.614  0.5155  0.5885  1.2976
 3166TIP3    H231058   6.228   3.990   8.525 -0.2103 -0.8945 -0.7225
 3167TIP3   OH231059   1.259   4.204   2.230  0.0859 -0.0129  0.0475
 3167TIP3    H131060   1.244   4.151   2.309 -1.0319 -0.0252 -0.1677
 3167TIP3    H231061   1.183   4.187   2.175 -0.2013  1.6817 -0.1055
 3168TIP3   OH231062   5.999   4.943   1.854  0.1758  0.2110  0.8228
 3168TIP3    H131063   6.040   4.874   1.802  1.2232  0.6713  1.0156
 3168TIP3    H231064   5.969   4.899   1.933  0.9490 -0.0108  1.0005
 3169TIP3   OH231065   2.426   5.139   8.164  0.5591  0.1148  0.0918
 3169TIP3    H131066   2.399   5.227   8.191  0.6275  0.1521  0.0399
 3169TIP3    H231067   2.427   5.142   8.069  2.8327  0.7763  0.0649
 3170TIP3   OH231068   5.150   5.108   7.767  0.4104  0.1989  0.3060
 3170TIP3    H131069   5.108   5.025   7.747  2.7145 -0.5741 -1.7582
 3170TIP3    H231070   5.235   5.084   7.803  0.7089  1.6786  0.6460
 3171TIP3   OH231071   0.636   3.097   0.001 -0.6854 -0.2035 -0.2542
 3171TIP3    H131072   0.651   3.085   0.095 -3.1078 -0.4333  0.1639
 3171TIP3    H231073   0.675   3.020  -0.039 -0.7094 -0.7354  0.7005
 3172TIP3   OH231074   5.025   1.244   0.230  0.0011  0.4759 -0.1206
 3172TIP3    H131075   5.043   1.300   0.155  3.4935  0.0218  0.2043
 3172TIP3    H231076   5.032   1.155   0.196 -2.5713  0.1800 -0.0322
 3173TIP3   OH231077   6.079   4.553   0.823  0.1066  0.4214 -0.5430
 3173TIP3    H131078   6.053   4.583   0.736  0.4876 -1.2583 -1.2855
 3173TIP3    H231079   6.172   4.574   0.829  0.5062 -0.9851 -1.2820
 3174TIP3   OH231080   0.997   6.256   1.922  0.4859 -0.4675  0.3672
 3174TIP3    H131081   0.992   6.319   1.993 -0.3151 -1.0797  0.8812
 3174TIP3    H231082   1.038   6.179   1.961 -0.8087 -1.1456  0.4558
 3175TIP3   OH231083   1.229   5.071   1.362 -0.5972 -0.3574  0.2387
 3175TIP3    H131084   1.257   5.111   1.280 -1.3316 -0.2191  0.0538
 3175TIP3    H231085   1.286   5.110   1.429  0.0926 -0.5698 -0.2122
 3176TIP3   OH231086   4.769   3.671   7.432 -0.2514  0.4544  0.0056
 3176TIP3    H131087   4.864   3.657   7.430 -0.5505 -2.0454 -0.0482
 3176TIP3    H231088   4.740   3.625   7.511 -1.5834 -0.2041 -0.8388
 3177TIP3   OH231089   0.166   0.639   0.092 -0.2755  0.3999  0.2427
 3177TIP3    H131090   0.201   0.715   0.139  0.5331 -0.3546  0.8779
 3177TIP3    H231091   0.151   0.574   0.160 -1.5976  0.2046 -0.2069
 3178TIP3   OH231092   1.305   0.245   1.087  0.2339 -0.3944  0.4464
 3178TIP3    H131093   1.231   0.184   1.093  0.8079 -1.1579  0.1044
 3178TIP3    H231094   1.375   0.192   1.048  0.4702  0.7462 -0.7366
 3179TIP3   OH231095   4.956   3.277   1.439  0.8448  0.4398 -0.1209
 3179TIP3    H131096   4.960   3.327   1.520  0.1611  0.8335 -0.3240
 3179TIP3    H231097   4.924   3.339   1.373 -2.4603 -0.8037  0.1184
 3180TIP3   OH231098   6.564   4.438   8.628  0.6070  0.3672  0.2806
 3180TIP3    H131099   6.657   4.447   8.650  0.0974 -0.6539  3.4337
 3180TIP3    H231100   6.526   4.523   8.649  0.9814  1.3012 -2.4969
 3181TIP3   OH231101   1.801   4.567   7.644 -0.2027  0.2645 -1.1613
 3181TIP3    H131102   1.882   4.617   7.630  1.1852 -1.1313  1.2684
 3181TIP3    H231103   1.735   4.618   7.597  1.8831  1.9191 -2.5759
 3182TIP3   OH231104   3.338   5.448   0.867  0.0279 -0.2494  0.1637
 3182TIP3    H131105   3.411   5.387   0.858  1.0379  1.0877 -1.1695
 3182TIP3    H231106   3.352   5.492   0.950  1.8154  1.2643 -0.8573
 3183TIP3   OH231107   3.450   2.850   3.084 -0.2127 -0.4292  0.0353
 3183TIP3    H131108   3.358   2.873   3.096  0.1655  1.1688  0.0419
 3183TIP3    H231109   3.486   2.921   3.032  1.2040 -0.6170  0.7052
 3184TIP3   OH231110   6.225   0.726   1.952  0.1923 -0.1247  0.1977
 3184TIP3    H131111   6.146   0.764   1.912 -1.1529 -3.3090 -0.4239
 3184TIP3    H231112   6.293   0.736   1.885 -0.7999 -1.0551 -0.9972
 3185TIP3   OH231113   6.820   5.794   0.637  0.0813 -0.0742 -0.1013
 3185TIP3    H131114   6.803   5.874   0.586 -0.2293 -0.7133 -1.0222
 3185TIP3    H231115   6.735   5.768   0.671 -0.5282 -1.9547 -2.7553
 3186TIP3   OH231116   3.985   5.127   8.650  0.2775  0.0585  0.6632
 3186TIP3    H131117   4.027   5.048   8.684 -0.3446 -0.0323  1.2241
 3186TIP3    H231118   3.917   5.094   8.592  1.8763  0.2036 -1.4338
 3187TIP3   OH231119   3.736   0.903   7.984  0.0059  0.4963  0.0587
 3187TIP3    H131120   3.765   0.878   7.896 -1.9951  1.0814 -0.8274
 3187TIP3    H231121   3.748   0.997   7.988 -2.6704  0.9525 -0.7825
 3188TIP3   OH231122   1.887   3.228   8.508  0.0020 -0.0708  0.3025
 3188TIP3    H131123   1.900   3.143   8.466  1.8708  1.0559 -1.5914
 3188TIP3    H231124   1.794   3.229   8.532 -0.2845 -2.2390 -0.4995
 3189TIP3   OH231125   0.184   3.199   1.630 -0.3094  0.8205 -0.6932
 3189TIP3    H131126   0.278   3.181   1.624 -0.8555 -2.5729 -1.3297
 3189TIP3    H231127   0.168   3.267   1.565  1.5734  0.8252 -1.1998
 3190TIP3   OH231128   4.981   0.625   8.122 -0.5978 -0.1971  0.2644
 3190TIP3    H131129   5.071   0.651   8.101 -0.8487  2.0595  1.6356
 3190TIP3    H231130   4.991   0.551   8.182  0.3705  0.0259  0.4014
 3191TIP3   OH231131   3.491   0.115   3.059 -0.2695 -0.0655  0.0332
 3191TIP3    H131132   3.453   0.125   3.146 -1.0461  1.0251 -0.4156
 3191TIP3    H231133   3.544   0.194   3.046  0.1208 -0.3815 -0.3596
 3192TIP3   OH231134   1.904   6.803   1.198 -0.0871 -0.1472 -0.1431
 3192TIP3    H131135   1.989   6.802   1.241 -0.2935 -1.1816  0.2654
 3192TIP3    H231136   1.864   6.885   1.226 -0.3222 -0.9070  1.8800
 3193TIP3   OH231137   6.399   6.477   2.757  0.0581  0.3401  0.1620
 3193TIP3    H131138   6.398   6.383   2.775  1.3712  0.0703 -1.0011
 3193TIP3    H231139   6.409   6.518   2.843 -0.6167 -0.5647  0.6931
 3194TIP3   OH231140   2.786   0.183   8.309  0.0507 -0.0831 -0.1763
 3194TIP3    H131141   2.820   0.184   8.220 -0.9042  0.2008 -0.5508
 3194TIP3    H231142   2.738   0.101   8.316  0.8651 -0.5326  0.3846
 3195TIP3   OH231143   6.276   2.860   2.376  0.4584 -0.1838 -0.0693
 3195TIP3    H131144   6.224   2.932   2.411  0.8240 -1.3039  3.0847
 3195TIP3    H231145   6.349   2.903   2.331  0.3087  1.4469  1.1475
 3196TIP3   OH231146   5.524   2.371   2.429 -0.3000  0.3015 -0.0536
 3196TIP3    H131147   5.521   2.308   2.357 -1.3549  0.5285 -0.2131
 3196TIP3    H231148   5.539   2.455   2.387 -2.8332  0.7407 -0.2466
 3197TIP3   OH231149   1.649   6.266   2.066 -0.3006  0.2234  0.6475
 3197TIP3    H131150   1.655   6.228   1.979  1.5142  1.6608  0.1000
 3197TIP3    H231151   1.572   6.322   2.063 -2.2184 -2.1940  1.0616
 3198TIP3   OH231152   0.126   6.198   0.724  0.3288 -0.3180 -0.1319
 3198TIP3    H131153   0.203   6.191   0.668  0.3447 -0.2217 -0.1226
 3198TIP3    H231154   0.147   6.269   0.785  0.2043 -0.2422 -0.1754
 3199TIP3   OH231155   1.282   6.428   2.668  1.1342  0.2584  0.2957
 3199TIP3    H131156   1.299   6.422   2.762  1.1221 -3.8477  0.2277
 3199TIP3    H231157   1.191   6.457   2.661  0.1706 -2.1076  1.7788
 3200TIP3   OH231158   4.961   0.440   1.302 -0.2018  0.4059  0.2056
 3200TIP3    H131159   4.908   0.401   1.233  0.1878 -1.3688  0.8619
 3200TIP3    H231160   4.955   0.378   1.375  1.4165  0.9905  0.8790
 3201TIP3   OH231161   0.683   3.493   7.384  0.6039  0.1035 -0.0835
 3201TIP3    H131162   0.596   3.462   7.359  0.4451  0.0925  0.4749
 3201TIP3    H231163   0.719   3.530   7.303  0.8651 -1.6548 -0.8344
 3202TIP3   OH231164   1.127   5.437   8.295  0.1442 -0.3695  0.1662
 3202TIP3    H131165   1.194   5.484   8.344  0.4623  0.3439 -0.9113
 3202TIP3    H231166   1.156   5.346   8.295  2.0734  0.1622 -1.7123
 3203TIP3   OH231167   4.690   4.021   8.519  0.1358 -0.2400 -0.1913
 3203TIP3    H131168   4.598   4.025   8.495 -0.6517 -2.2242  2.1596
 3203TIP3    H231169   4.720   4.112   8.513 -2.3507  0.7024  0.3644
 3204TIP3   OH231170   2.092   1.131   1.983 -0.0597 -0.2069  0.2921
 3204TIP3    H131171   2.020   1.190   2.007 -0.6115  0.7590 -3.1308
 3204TIP3    H231172   2.164   1.189   1.960  0.4753 -0.9923 -0.0704
 3205TIP3   OH231173   6.102   5.825   2.204  0.0623  0.2800  0.4930
 3205TIP3    H131174   6.030   5.794   2.260 -1.2325 -0.0715 -1.2605
 3205TIP3    H231175   6.087   5.919   2.196 -0.3786  0.1716 -0.0598
 3206TIP3   OH231176   5.047   4.073   1.951 -0.2118 -0.6238  0.0483
 3206TIP3    H131177   5.101   4.005   1.990  0.8479  0.8931  1.3449
 3206TIP3    H231178   4.961   4.061   1.992 -0.6721 -2.4144 -1.2824
 3207TIP3   OH231179   3.477   4.904   1.978  0.0788 -0.4903 -0.1216
 3207TIP3    H131180   3.386   4.879   1.962  0.6512 -3.6772  0.9207
 3207TIP3    H231181   3.473   4.960   2.056 -1.1112  1.3663 -1.4130
 3208TIP3   OH231182   5.621   5.385   1.496 -0.0283  0.5257 -0.1037
 3208TIP3    H131183   5.673   5.351   1.569 -0.7277  1.8053  1.0281
 3208TIP3    H231184   5.600   5.307   1.444  2.3507 -0.1282 -0.1956
 3209TIP3   OH231185   5.562   3.361   8.192 -0.3831  0.2490  0.2596
 3209TIP3    H131186   5.569   3.410   8.110 -1.5656  0.3841  0.2247
 3209TIP3    H231187   5.584   3.424   8.260  0.9502  0.0478  0.0475
 3210TIP3   OH231188   3.602   5.889   8.055 -0.3749  0.0116 -0.2927
 3210TIP3    H131189   3.651   5.820   8.011  0.4824  0.4732 -0.0691
 3210TIP3    H231190   3.526   5.904   7.998 -0.0979 -0.4844 -0.7995
 3211TIP3   OH231191   2.672   4.395   1.852 -0.9149  0.2115 -0.3690
 3211TIP3    H131192   2.646   4.486   1.866 -2.0158 -0.1668  0.1366
 3211TIP3    H231193   2.602   4.359   1.797 -1.6935 -0.9140  1.2725
 3212TIP3   OH231194   2.179   0.257   1.188  0.1051  0.0286  0.2648
 3212TIP3    H131195   2.169   0.263   1.093  0.7702  2.2462  0.2826
 3212TIP3    H231196   2.267   0.290   1.206 -0.2071  0.1683  1.6883
 3213TIP3   OH231197   3.664   1.078   7.716  0.3362 -0.2606  0.4855
 3213TIP3    H131198   3.696   1.095   7.628 -0.0588 -1.3471  0.1161
 3213TIP3    H231199   3.610   1.155   7.737  0.1183 -0.1646 -0.3762
 3214TIP3   OH231200   3.236   6.247   2.077 -0.0139 -0.0557 -0.2448
 3214TIP3    H131201   3.148   6.239   2.114  0.8209 -2.0352  1.5690
 3214TIP3    H231202   3.282   6.305   2.138 -0.2063  1.5142 -1.5549
 3215TIP3   OH231203   1.079   6.400   7.751  0.2327 -0.8925 -0.2988
 3215TIP3    H131204   1.116   6.345   7.682  0.4073 -0.9073 -0.1942
 3215TIP3    H231205   1.052   6.480   7.706  1.1661 -0.5327 -0.2488
 3216TIP3   OH231206   4.846   6.502   0.947  0.5635 -0.2002  0.7870
 3216TIP3    H131207   4.772   6.544   0.991  0.7231 -0.8749  1.7249
 3216TIP3    H231208   4.858   6.420   0.994  1.1181 -0.6764 -0.1584
 3217TIP3   OH231209   6.685   6.048   0.191  0.2271 -0.2545 -0.3100
 3217TIP3    H131210   6.631   6.060   0.268  0.4781 -1.7495  0.1252
 3217TIP3    H231211   6.635   5.989   0.135  0.7087 -0.3828 -0.6103
 3218TIP3   OH231212   3.450   0.213   2.001 -0.3048 -0.2243 -0.1194
 3218TIP3    H131213   3.483   0.227   1.913  1.1182 -3.1494 -0.1721
 3218TIP3    H231214   3.522   0.171   2.048 -1.0676  1.0969  2.4448
 3219TIP3   OH231215   2.624   1.202   0.380 -0.3986  0.0885  0.0160
 3219TIP3    H131216   2.614   1.250   0.298  0.7861 -0.1057 -0.2576
 3219TIP3    H231217   2.663   1.265   0.441  0.7429 -0.3699 -0.2132
 3220TIP3   OH231218   3.465   1.547   8.080  0.1062  0.2840 -0.0638
 3220TIP3    H131219   3.494   1.469   8.031 -0.0750 -0.3215  0.7636
 3220TIP3    H231220   3.370   1.546   8.074  0.1325  0.7960 -0.5760
 3221TIP3   OH231221   1.393   2.335   0.990  0.2477 -0.4905 -0.7740
 3221TIP3    H131222   1.348   2.378   1.062  3.1295  1.2515  0.1632
 3221TIP3    H231223   1.398   2.243   1.015  0.2870 -0.0893  0.7497
 3222TIP3   OH231224   2.797   0.873   0.676  0.6819 -0.1287  0.2157
 3222TIP3    H131225   2.711   0.845   0.707  1.3070 -0.2963  1.9065
 3222TIP3    H231226   2.792   0.863   0.581 -1.5876  1.1159  0.1324
 3223TIP3   OH231227   5.916   2.002   7.921 -0.1222 -0.2453 -0.5161
 3223TIP3    H131228   5.945   1.926   7.870 -0.5418 -0.1111 -0.9626
 3223TIP3    H231229   5.918   1.973   8.012 -0.7625 -0.9470 -0.7248
 3224TIP3   OH231230   4.631   1.014   2.189  0.2802  0.7665 -0.2919
 3224TIP3    H131231   4.618   1.079   2.120 -2.9521  0.2670 -0.2966
 3224TIP3    H231232   4.586   1.051   2.265 -0.7226 -0.9593 -0.0080
 3225TIP3   OH231233   2.211   0.150   8.062 -0.3115  0.2710 -0.0068
 3225TIP3    H131234   2.279   0.203   8.103 -0.4215  0.6580 -0.3214
 3225TIP3    H231235   2.139   0.212   8.044  1.1563  1.1018 -4.3654
 3226TIP3   OH231236   4.115   2.564   0.826  0.1500  0.4555  0.1342
 3226TIP3    H131237   4.075   2.585   0.911 -2.1105  0.0597 -0.7626
 3226TIP3    H231238   4.175   2.492   0.845 -0.5422  0.1665  1.3649
 3227TIP3   OH231239   1.554   4.822   8.666 -0.2059 -0.5660 -0.4843
 3227TIP3    H131240   1.554   4.918   8.667  3.1689 -0.3219 -3.3420
 3227TIP3    H231241   1.492   4.798   8.598 -2.0450 -0.5688  1.1266
 3228TIP3   OH231242   5.060   4.423   1.492 -0.4068 -0.2987 -0.4017
 3228TIP3    H131243   4.983   4.369   1.476  1.4121 -2.9471 -0.7718
 3228TIP3    H231244   5.083   4.458   1.406 -2.3606  2.4145  0.0263
 3229TIP3   OH231245   5.479   2.890   2.392  0.3414 -0.1290  0.2019
 3229TIP3    H131246   5.455   2.844   2.311 -0.4384 -0.5343  0.6530
 3229TIP3    H231247   5.398   2.891   2.444  0.0319  2.5511 -0.1542
 3230TIP3   OH231248   3.649   1.846   1.903  0.2414  0.9007  0.0631
 3230TIP3    H131249   3.721   1.786   1.923  0.2722  0.7507 -0.4930
 3230TIP3    H231250   3.632   1.833   1.810 -2.7112 -1.5237  0.7769
 3231TIP3   OH231251   2.334   0.993   8.490  0.2955 -0.2686 -0.1180
 3231TIP3    H131252   2.426   0.972   8.473  0.2406 -0.2699 -0.4051
 3231TIP3    H231253   2.317   1.072   8.439 -0.2007 -0.9528 -1.0194
 3232TIP3   OH231254   3.589   2.922   7.730 -0.5215  0.3153 -0.5980
 3232TIP3    H131255   3.620   2.960   7.813  1.0865 -2.4444  0.1619
 3232TIP3    H231256   3.515   2.978   7.706 -3.3369 -0.5714  4.4647
 3233TIP3   OH231257   0.738   3.104   2.574 -0.1417 -0.0092 -0.2548
 3233TIP3    H131258   0.658   3.061   2.544  0.8950 -0.5220 -2.5422
 3233TIP3    H231259   0.787   3.123   2.494  1.6963  0.9876  1.0077
 3234TIP3   OH231260   1.563   3.616   7.344 -0.2493 -0.0273  0.1565
 3234TIP3    H131261   1.604   3.613   7.258  0.8102 -1.3676  0.6813
 3234TIP3    H231262   1.636   3.618   7.406 -0.9921  0.2424  1.0478
 3235TIP3   OH231263   5.325   4.204   0.051  0.0741  0.3114  0.5750
 3235TIP3    H131264   5.271   4.125   0.048 -1.0464  1.0183  1.4764
 3235TIP3    H231265   5.352   4.218  -0.040  0.1350 -0.9897  0.3749
 3236TIP3   OH231266   0.055   3.373   7.503 -0.0373  0.0166  0.0047
 3236TIP3    H131267   0.126   3.318   7.468 -1.3274 -1.5572 -0.2840
 3236TIP3    H231268   0.093   3.414   7.581  1.1670 -0.8316 -0.0955
 3237TIP3   OH231269   6.724   6.553   1.024 -0.3187 -0.1015  0.6175
 3237TIP3    H131270   6.716   6.560   1.119  0.6175  1.2860  0.6145
 3237TIP3    H231271   6.703   6.641   0.992 -1.5003 -0.7738 -0.5380
 3238TIP3   OH231272   3.981   3.305   1.860 -0.0387  0.1105  1.0126
 3238TIP3    H131273   4.058   3.277   1.909  0.8250 -0.7792 -0.7698
 3238TIP3    H231274   3.913   3.241   1.883  1.0473 -1.7523 -0.6825
 3239TIP3   OH231275   1.496   2.209   1.550  0.4521 -0.0962 -0.5523
 3239TIP3    H131276   1.519   2.269   1.479 -0.7375  0.1532 -0.7541
 3239TIP3    H231277   1.515   2.259   1.630 -0.3112  0.5014 -0.7185
 3240TIP3   OH231278   2.346   6.351   8.440 -0.1551 -0.0932  0.0842
 3240TIP3    H131279   2.407   6.328   8.370  1.7464 -0.7903  1.8899
 3240TIP3    H231280   2.331   6.445   8.430 -0.8941 -0.3767 -1.9435
 3241TIP3   OH231281   2.460   2.529   1.323 -0.5851 -0.3659  0.1748
 3241TIP3    H131282   2.515   2.527   1.401 -0.7497 -0.3578  0.2910
 3241TIP3    H231283   2.382   2.479   1.347 -0.9880  0.3068  0.2775
 3242TIP3   OH231284   2.311   5.790   0.722 -0.3122 -0.0378  0.2048
 3242TIP3    H131285   2.225   5.770   0.686 -0.0525  0.7830 -0.8951
 3242TIP3    H231286   2.362   5.710   0.709 -0.6123 -0.1893 -0.0382
 3243TIP3   OH231287   3.104   6.767   0.136  0.0358  0.1826  0.2273
 3243TIP3    H131288   3.053   6.847   0.122 -0.1603 -0.2482 -1.8996
 3243TIP3    H231289   3.076   6.709   0.065  2.2597 -0.6990 -0.0114
 3244TIP3   OH231290   2.417   0.885   2.511 -0.7885  0.0048  0.0341
 3244TIP3    H131291   2.376   0.915   2.592  2.1518  0.1927  1.5751
 3244TIP3    H231292   2.502   0.928   2.510  0.2162 -1.8612 -1.9683
 3245TIP3   OH231293   5.338   5.988   8.622  0.0453 -0.2825  0.1147
 3245TIP3    H131294   5.271   6.004   8.555  1.3366  0.1751 -1.1396
 3245TIP3    H231295   5.309   6.037   8.698  0.1669  2.0303 -1.2304
 3246TIP3   OH231296   1.456   0.469   8.585  0.3804  0.3574  0.4396
 3246TIP3    H131297   1.545   0.443   8.562  0.6315  1.3159  0.2496
 3246TIP3    H231298   1.402   0.393   8.564  1.0286  0.1108 -0.3827
 3247TIP3   OH231299   3.527   5.137   1.036 -0.3193 -0.3437 -0.2090
 3247TIP3    H131300   3.581   5.199   1.085 -1.7554 -0.6506  1.8837
 3247TIP3    H231301   3.528   5.171   0.946  2.7424  0.0061 -0.1528
 3248TIP3   OH231302   6.194   3.973   8.344 -0.2316  0.4304  0.0634
 3248TIP3    H131303   6.111   3.997   8.302 -0.0857  0.1332 -0.4033
 3248TIP3    H231304   6.196   3.878   8.341  0.7908  0.4556 -1.2758
 3249TIP3   OH231305   5.352   0.425   8.412 -0.0692 -0.5553 -0.4417
 3249TIP3    H131306   5.342   0.389   8.501  1.1898 -0.6607 -0.3310
 3249TIP3    H231307   5.429   0.381   8.377  0.6041  0.9008 -0.8682
 3250TIP3   OH231308   1.182   5.155   8.591  0.1205 -0.1533 -0.3604
 3250TIP3    H131309   1.257   5.131   8.645 -0.1173  0.1486  0.1132
 3250TIP3    H231310   1.153   5.240   8.625  0.7818  0.7107 -1.8195
 3251TIP3   OH231311   1.173   2.286   7.968  0.2678  0.8244 -0.1126
 3251TIP3    H131312   1.268   2.296   7.965  0.0521  3.7680 -0.4015
 3251TIP3    H231313   1.141   2.341   7.897 -1.6485 -1.1972 -0.9255
 3252TIP3   OH231314   4.662   1.166   1.938  0.0940 -0.4978  0.1328
 3252TIP3    H131315   4.668   1.071   1.923  1.0185 -0.4175 -0.0323
 3252TIP3    H231316   4.708   1.205   1.864  0.9673  0.0358  0.9403
 3253TIP3   OH231317   1.769   3.656   7.518  0.0596 -0.2602  0.5211
 3253TIP3    H131318   1.768   3.749   7.542  0.4189  0.3702 -1.6978
 3253TIP3    H231319   1.852   3.624   7.553  1.0507  0.8708 -0.6921
 3254TIP3   OH231320   2.130   6.366   0.428  0.1828 -0.0719 -0.4465
 3254TIP3    H131321   2.119   6.300   0.497 -0.0599  1.6013  1.1612
 3254TIP3    H231322   2.165   6.442   0.472 -2.4870  2.0068 -1.6317
 3255TIP3   OH231323   3.645   4.322   1.196  0.4364  0.1731 -0.1315
 3255TIP3    H131324   3.663   4.246   1.140  2.2702  1.7942 -1.9124
 3255TIP3    H231325   3.576   4.370   1.150  0.0432  0.1642  0.4353
 3256TIP3   OH231326   6.117   3.851   1.634 -0.0290 -0.5028  0.3614
 3256TIP3    H131327   6.169   3.771   1.627  0.3105 -0.3055  0.5565
 3256TIP3    H231328   6.172   3.918   1.592  0.6161  0.0469  2.0108
 3257TIP3   OH231329   4.090   6.365   0.093 -0.2767  0.5973  0.2803
 3257TIP3    H131330   4.166   6.389   0.146  0.5720  0.5118 -0.8549
 3257TIP3    H231331   4.127   6.323   0.015 -1.5689 -1.4476  0.6741
 3258TIP3   OH231332   2.774   5.055   1.056  0.8300 -0.5325  0.1118
 3258TIP3    H131333   2.799   5.008   0.977 -1.2962  0.1994 -1.0780
 3258TIP3    H231334   2.732   5.135   1.024 -1.7399 -1.0605  1.8690
 3259TIP3   OH231335   4.552   0.339   2.903  0.4071 -0.4340 -0.1009
 3259TIP3    H131336   4.503   0.349   2.821  0.6200 -2.0960 -0.4678
 3259TIP3    H231337   4.564   0.429   2.934 -1.0765  0.1419 -1.0491
 3260TIP3   OH231338   2.972   2.119   8.380  0.0744  0.0310  0.0926
 3260TIP3    H131339   2.953   2.158   8.294  0.0041  0.5745  0.3492
 3260TIP3    H231340   2.894   2.138   8.432 -1.1593 -2.8080 -0.5418
 3261TIP3   OH231341   0.995   0.024   0.138  0.1340 -0.2372 -0.0551
 3261TIP3    H131342   0.932   0.040   0.068  2.9154 -0.5569 -2.8405
 3261TIP3    H231343   1.077   0.007   0.093  2.3065  0.2949  3.3593
 3262TIP3   OH231344   1.266   6.523   8.575 -0.2234  0.4378 -0.2373
 3262TIP3    H131345   1.276   6.618   8.570  1.0688  0.2986 -0.8909
 3262TIP3    H231346   1.349   6.492   8.611 -0.2452 -0.5065 -0.9467
 3263TIP3   OH231347   1.722   4.553   7.995  0.2349 -0.2912  0.3194
 3263TIP3    H131348   1.797   4.495   8.001 -0.2328 -0.7565  3.6841
 3263TIP3    H231349   1.758   4.641   8.008  0.4771 -0.1829 -0.9401
 3264TIP3   OH231350   6.429   5.974   8.434 -0.5348  0.3614  0.5164
 3264TIP3    H131351   6.460   5.890   8.401  2.1795  0.4559  2.5275
 3264TIP3    H231352   6.393   6.018   8.356  2.5719 -0.6693 -1.6937
 3265TIP3   OH231353   2.788   1.497   2.094 -0.2612 -0.2252  1.1549
 3265TIP3    H131354   2.817   1.418   2.049 -0.0906 -0.3359  1.4583
 3265TIP3    H231355   2.693   1.498   2.081 -0.2235 -0.3034  0.8687
 3266TIP3   OH231356   1.645   5.944   0.139  0.2369 -0.0014 -0.1563
 3266TIP3    H131357   1.603   5.863   0.169 -0.8442  0.1344 -1.2150
 3266TIP3    H231358   1.607   5.960   0.053  1.9138  0.5852 -0.8099
 3267TIP3   OH231359   4.742   6.207   2.586 -0.6331  0.3424  0.0482
 3267TIP3    H131360   4.705   6.295   2.585 -0.9274  0.2346 -1.8743
 3267TIP3    H231361   4.778   6.197   2.674 -0.1911  2.5462  0.1725
 3268TIP3   OH231362   0.784   2.094   7.746 -0.2049 -0.2705 -0.4233
 3268TIP3    H131363   0.701   2.137   7.723 -1.4781 -3.2040 -1.8215
 3268TIP3    H231364   0.802   2.036   7.672  1.5092 -1.9225  1.1915
 3269TIP3   OH231365   1.283   4.912   2.103 -0.2169 -0.0567  0.7384
 3269TIP3    H131366   1.199   4.949   2.131 -1.4566 -1.5765 -0.7002
 3269TIP3    H231367   1.275   4.818   2.122  0.3206 -0.5411 -1.1538
 3270TIP3   OH231368   1.012   1.750   0.753 -0.0700 -0.2310  0.0852
 3270TIP3    H131369   1.060   1.668   0.739  0.7449  0.1258  0.7171
 3270TIP3    H231370   0.988   1.779   0.665  1.4680 -0.0711 -0.2994
 3271TIP3   OH231371   0.031   3.196   1.250 -0.3507  0.1355 -0.8228
 3271TIP3    H131372   0.098   3.230   1.310 -0.9099 -1.2545  0.6496
 3271TIP3    H231373  -0.014   3.275   1.219  0.0710  0.9243  0.4494
 3272TIP3   OH231374   1.697   2.105   2.452  0.4640  0.0663  0.1052
 3272TIP3    H131375   1.676   2.144   2.536  0.7459 -1.6474  1.0082
 3272TIP3    H231376   1.616   2.113   2.401 -0.3114 -0.5508  1.2102
 3273TIP3   OH231377   0.339   0.924   2.500  0.2219 -0.4541 -0.1371
 3273TIP3    H131378   0.334   0.978   2.421  0.5194 -1.0859 -0.5961
 3273TIP3    H231379   0.413   0.959   2.549  0.1056 -0.1339 -0.1872
 3274TIP3   OH231380   1.440   5.473   1.612 -0.3153  0.0953 -0.4375
 3274TIP3    H131381   1.497   5.439   1.681  0.7009  1.0121 -0.7861
 3274TIP3    H231382   1.370   5.519   1.658 -0.6524 -0.8270 -0.0025
 3275TIP3   OH231383   0.350   4.767   0.490 -0.2850  0.1819 -0.7629
 3275TIP3    H131384   0.361   4.696   0.554  0.5779  2.0425  1.3077
 3275TIP3    H231385   0.261   4.756   0.457 -0.1879 -1.8226 -0.4959
 3276TIP3   OH231386   2.251   3.370   2.688  0.2377 -0.1109 -0.4504
 3276TIP3    H131387   2.227   3.283   2.657 -0.2148 -0.7020  1.4630
 3276TIP3    H231388   2.169   3.409   2.717  0.4901  0.8477 -0.9897
 3277TIP3   OH231389   1.235   4.008   1.961  0.2990  0.1666  0.1064
 3277TIP3    H131390   1.315   3.956   1.968 -1.5375 -3.0441 -0.6073
 3277TIP3    H231391   1.177   3.973   2.028 -0.3644  2.8977  1.0964
 3278TIP3   OH231392   1.612   0.478   8.031 -0.0758  0.2671  0.6511
 3278TIP3    H131393   1.674   0.549   8.045  1.3180 -0.7877  0.0687
 3278TIP3    H231394   1.545   0.490   8.098  0.1002  2.1268  0.5447
 3279TIP3   OH231395   4.706   6.049   0.643  0.3825  0.3038  0.6490
 3279TIP3    H131396   4.677   6.010   0.726  1.1748  0.8869  1.2099
 3279TIP3    H231397   4.707   6.143   0.660  0.0478  0.4701 -0.1971
 3280TIP3   OH231398   2.685   4.251   2.918  0.4022 -0.6403 -0.7284
 3280TIP3    H131399   2.689   4.344   2.940  2.9153 -0.8098 -0.1724
 3280TIP3    H231400   2.771   4.231   2.882  0.1766 -2.9118 -0.1707
 3281TIP3   OH231401   2.681   1.119   2.150  0.0394  0.0840 -0.4743
 3281TIP3    H131402   2.709   1.043   2.098 -0.5108  1.0286 -2.2614
 3281TIP3    H231403   2.685   1.192   2.088  0.4582  1.5138  1.1714
 3282TIP3   OH231404   0.191   1.433   2.515 -0.1159  0.1754 -0.1192
 3282TIP3    H131405   0.104   1.472   2.522 -0.9430 -0.9411 -2.9972
 3282TIP3    H231406   0.178   1.341   2.537  0.3136 -0.0090 -0.6120
 3283TIP3   OH231407   6.815   4.991   0.376  0.5971  0.1269 -0.4964
 3283TIP3    H131408   6.799   5.075   0.420 -0.8919  0.1884 -1.0775
 3283TIP3    H231409   6.849   5.015   0.290 -0.6844  0.2152 -1.0102
 3284TIP3   OH231410   5.019   2.417   0.498  0.0566  0.8643 -0.6282
 3284TIP3    H131411   5.056   2.350   0.441 -2.1785  0.6792 -1.9502
 3284TIP3    H231412   5.013   2.495   0.443 -1.0952  0.9987 -0.3426
 3285TIP3   OH231413   4.591   4.466   2.397  0.3713  0.5819 -0.0687
 3285TIP3    H131414   4.570   4.556   2.423  0.3101  0.2019  1.2481
 3285TIP3    H231415   4.510   4.432   2.360  0.1512  0.7998  0.2089
 3286TIP3   OH231416   5.458   4.974   0.428  0.2658  0.1704  0.3943
 3286TIP3    H131417   5.462   4.890   0.381 -0.0887 -0.6763  1.8132
 3286TIP3    H231418   5.488   5.038   0.364  1.4781 -1.1528 -0.4444
 3287TIP3   OH231419   3.905   6.032   0.567  0.2684 -0.7497  0.0596
 3287TIP3    H131420   3.925   5.938   0.572  0.4454 -0.6941  4.1853
 3287TIP3    H231421   3.838   6.045   0.634 -0.7965  1.9339 -1.3855
 3288TIP3   OH231422   3.713   6.528   8.541 -0.1310  0.4448  0.3536
 3288TIP3    H131423   3.789   6.574   8.506 -0.4101  1.6206  1.2289
 3288TIP3    H231424   3.668   6.593   8.595 -0.4552 -0.8991  1.7852
 3289TIP3   OH231425   0.831   0.542   8.621 -0.3025 -0.1901 -0.1794
 3289TIP3    H131426   0.831   0.632   8.588 -0.3687  0.3972  1.3368
 3289TIP3    H231427   0.773   0.545   8.698  0.6841 -1.2341  0.6293
 3290TIP3   OH231428   1.962   2.113   1.944 -0.4084 -0.0540  0.3803
 3290TIP3    H131429   1.961   2.206   1.970 -2.8847 -0.1407  0.8003
 3290TIP3    H231430   1.940   2.066   2.024  0.9373 -1.0554  0.1880
 3291TIP3   OH231431   2.297   2.235   2.606  0.0427  0.3208  0.5767
 3291TIP3    H131432   2.347   2.182   2.669 -1.3485 -0.8362  0.7545
 3291TIP3    H231433   2.330   2.324   2.619  0.5685 -0.0641  2.1777
 3292TIP3   OH231434   4.946   6.589   1.642 -0.6164  0.1590  0.2179
 3292TIP3    H131435   4.919   6.518   1.583 -1.0647 -0.1373  0.7593
 3292TIP3    H231436   5.030   6.560   1.677  0.8113  1.3820 -1.9681
 3293TIP3   OH231437   5.143   5.646   1.066 -0.6937 -0.3224 -0.3424
 3293TIP3    H131438   5.195   5.712   1.021 -1.9224  0.3145 -0.8729
 3293TIP3    H231439   5.090   5.696   1.129 -2.1648 -0.6631 -1.2477
 3294TIP3   OH231440   4.568   5.559   7.554 -0.1333  0.2981  0.0200
 3294TIP3    H131441   4.539   5.558   7.645 -0.6616  0.5442 -0.1400
 3294TIP3    H231442   4.663   5.565   7.559 -0.1625  0.3546  0.5553
 3295TIP3   OH231443   5.473   3.872   7.243  0.0993  0.3740  0.2305
 3295TIP3    H131444   5.522   3.895   7.323  0.4597 -2.1095  0.8028
 3295TIP3    H231445   5.510   3.788   7.216 -1.3886  0.2039 -1.4288
 3296TIP3   OH231446   0.577   5.337   1.394 -0.3721  0.3808  0.3364
 3296TIP3    H131447   0.513   5.390   1.347 -1.0260 -0.1275  0.6340
 3296TIP3    H231448   0.643   5.316   1.328 -0.8758  0.3252 -0.1613
 3297TIP3   OH231449   2.664   3.198   7.016  0.2085 -0.4206 -0.1926
 3297TIP3    H131450   2.633   3.155   6.936  2.7321 -1.8418 -0.4998
 3297TIP3    H231451   2.681   3.126   7.077  0.2774  0.4921  0.8928
 3298TIP3   OH231452   4.757   4.469   1.168  0.2233  0.0431 -0.1390
 3298TIP3    H131453   4.829   4.474   1.105 -0.5346 -0.0286 -1.0355
 3298TIP3    H231454   4.700   4.542   1.146 -0.7626 -0.7929 -0.4553
 3299TIP3   OH231455   2.495   1.438   1.095 -0.1879  0.0376  0.0620
 3299TIP3    H131456   2.541   1.372   1.044  0.0751 -0.2363  0.6360
 3299TIP3    H231457   2.546   1.518   1.082  2.1251 -0.8262  2.8098
 3300TIP3   OH231458   1.424   0.234   1.419  0.4792 -0.1860  0.0384
 3300TIP3    H131459   1.388   0.156   1.376 -0.8309 -0.1462  1.0051
 3300TIP3    H231460   1.508   0.205   1.455 -0.1074 -1.2171  0.5905
 3301TIP3   OH231461   3.973   4.208   6.968  0.4693 -0.1459  0.0495
 3301TIP3    H131462   3.890   4.186   7.011 -0.0355 -0.1374 -0.8994
 3301TIP3    H231463   4.020   4.262   7.032 -0.2471 -0.1572  0.5944
 3302TIP3   OH231464   3.540   1.847   8.320  0.1903 -0.4238  0.3196
 3302TIP3    H131465   3.507   1.867   8.407  1.2797  1.2690  0.3842
 3302TIP3    H231466   3.634   1.862   8.325  0.6437 -2.5648 -0.5631
 3303TIP3   OH231467   0.025   2.671   3.414 -0.2791 -0.0223  0.3618
 3303TIP3    H131468   0.085   2.698   3.345 -1.1934 -0.8895 -0.8216
 3303TIP3    H231469   0.081   2.644   3.486  0.7830 -1.2342 -0.8721
 3304TIP3   OH231470   4.395   5.528   0.750 -0.5327  0.1973 -0.0999
 3304TIP3    H131471   4.332   5.516   0.679 -0.6511  1.5191 -0.2582
 3304TIP3    H231472   4.356   5.481   0.824 -1.9187  1.2426 -0.1025
 3305TIP3   OH231473   0.904   4.110   2.260 -0.2143 -0.4899  0.2421
 3305TIP3    H131474   0.847   4.096   2.336  0.8680  0.3724  1.2604
 3305TIP3    H231475   0.911   4.205   2.253 -0.4514 -0.5501 -1.0899
 3306TIP3   OH231476   2.687   1.152   3.076 -0.1733 -0.4646 -0.2007
 3306TIP3    H131477   2.640   1.235   3.065 -0.3554 -0.7611 -1.9080
 3306TIP3    H231478   2.681   1.109   2.991  2.9270 -0.6814 -0.4435
 3307TIP3   OH231479   5.745   1.687   1.901 -1.0681  0.3831 -0.6700
 3307TIP3    H131480   5.689   1.693   1.979 -0.1091  1.5982 -0.0237
 3307TIP3    H231481   5.684   1.694   1.827 -2.0196 -1.0035 -0.0622
 3308TIP3   OH231482   6.769   6.027   2.264  0.2594 -0.1945  0.6796
 3308TIP3    H131483   6.743   6.063   2.179 -2.1536 -0.9554  1.0358
 3308TIP3    H231484   6.857   5.992   2.249  0.3702  0.7442 -1.1580
 3309TIP3   OH231485   4.045   3.977   7.950 -0.1166  0.4188  0.2379
 3309TIP3    H131486   4.032   3.883   7.944 -1.5208  0.5218  1.1719
 3309TIP3    H231487   4.017   4.012   7.866  0.0201  0.0438  0.0371
 3310TIP3   OH231488   5.484   6.141   1.929  0.3117  0.0983 -0.0814
 3310TIP3    H131489   5.552   6.092   1.883  0.3311 -0.1791  0.2317
 3310TIP3    H231490   5.501   6.232   1.909  0.2151 -0.0315 -0.7617
 3311TIP3   OH231491   2.122   5.088   0.129  0.2269 -0.5298  0.2459
 3311TIP3    H131492   2.154   5.156   0.070 -1.3578  0.1054  0.0615
 3311TIP3    H231493   2.092   5.018   0.071  1.3555 -1.1869  0.4198
 3312TIP3   OH231494   2.349   2.728   7.961 -0.0680  0.1429 -0.3521
 3312TIP3    H131495   2.277   2.776   8.001 -2.2739 -1.5094 -2.0238
 3312TIP3    H231496   2.307   2.649   7.926  2.4622 -0.5583 -2.0262
 3313TIP3   OH231497   5.879   1.415   8.454 -0.5810 -0.5415  0.3858
 3313TIP3    H131498   5.840   1.423   8.367  0.8790 -0.6063 -0.3064
 3313TIP3    H231499   5.809   1.380   8.509 -1.3882 -0.9467 -0.8638
 3314TIP3   OH231500   4.572   0.304   2.537  0.0112  0.1256 -0.1308
 3314TIP3    H131501   4.597   0.394   2.560  0.4042  0.8482 -2.9457
 3314TIP3    H231502   4.477   0.309   2.522 -0.1718 -0.2421  0.8201
 3315TIP3   OH231503   0.769   3.476   8.226  0.3265  0.3480  0.0901
 3315TIP3    H131504   0.779   3.558   8.275  1.6978 -0.3002  0.9580
 3315TIP3    H231505   0.760   3.409   8.294 -0.1420 -0.3098 -0.6025
 3316TIP3   OH231506   1.236   5.053   6.866  0.0471  0.5064 -0.0401
 3316TIP3    H131507   1.225   4.961   6.845 -0.3240 -0.0288  2.1913
 3316TIP3    H231508   1.167   5.098   6.818 -1.4007 -0.7302  0.8138
 3317TIP3   OH231509   2.805   4.419   8.107  0.1380  0.8239  0.4288
 3317TIP3    H131510   2.776   4.335   8.143  1.1247  0.2302 -0.1116
 3317TIP3    H231511   2.889   4.435   8.151  1.1906  0.2642 -1.2733
 3318TIP3   OH231512   4.555   6.690   0.011 -0.0201 -0.4859 -0.0599
 3318TIP3    H131513   4.556   6.754  -0.060 -0.7881  0.9238  1.1618
 3318TIP3    H231514   4.501   6.618  -0.022 -1.3734  0.6810 -0.4787
 3319TIP3   OH231515   4.563   1.286   6.977 -0.3027 -0.0251  0.4020
 3319TIP3    H131516   4.538   1.236   6.899  0.5647  0.5255 -0.2587
 3319TIP3    H231517   4.485   1.286   7.032 -0.1519 -2.6212  0.7220
 3320TIP3   OH231518   5.769   1.449   0.922  0.0187 -0.3205 -0.4158
 3320TIP3    H131519   5.755   1.386   0.851  2.5157 -1.2060 -0.2092
 3320TIP3    H231520   5.828   1.514   0.885 -0.3489  0.3878  0.2248
 3321TIP3   OH231521   0.673   6.704   8.314  0.1929 -0.5795 -0.1300
 3321TIP3    H131522   0.641   6.794   8.319  1.7213 -0.0406  0.8767
 3321TIP3    H231523   0.605   6.652   8.356  0.9123  0.6377  2.7734
 3322TIP3   OH231524   5.124   1.026   8.671  0.3421  0.1410 -0.1261
 3322TIP3    H131525   5.086   1.003   8.755 -0.2943 -1.8460 -0.8974
 3322TIP3    H231526   5.196   1.085   8.692  0.1959 -0.3157  1.7966
 3323TIP3   OH231527   2.922   4.567   0.165  0.3065 -0.2226 -0.0808
 3323TIP3    H131528   2.989   4.515   0.208  0.8982  0.3673 -0.2800
 3323TIP3    H231529   2.968   4.614   0.096 -0.5446 -0.7931 -1.0668
 3324TIP3   OH231530   2.090   5.300   1.256 -0.2518  0.0385  0.2329
 3324TIP3    H131531   2.066   5.234   1.191 -0.9437  0.3182  0.2019
 3324TIP3    H231532   2.186   5.297   1.258 -0.0843  1.4469 -2.2622
 3325TIP3   OH231533   2.285   1.240   8.302 -0.1990 -0.1080 -0.2812
 3325TIP3    H131534   2.263   1.333   8.293  0.5510  0.3241  1.7513
 3325TIP3    H231535   2.377   1.235   8.278 -0.0593 -0.1819  0.2498
 3326TIP3   OH231536   3.691   1.257   1.041 -0.2430  0.2595 -0.1959
 3326TIP3    H131537   3.773   1.208   1.032  0.1149  0.7595  0.2807
 3326TIP3    H231538   3.647   1.246   0.957 -0.4131 -1.3049  0.0643
 3327TIP3   OH231539   0.814   2.962   0.813 -0.0797  0.3305 -0.1060
 3327TIP3    H131540   0.840   2.949   0.722 -1.0077  0.0436 -0.3417
 3327TIP3    H231541   0.875   2.907   0.863  1.0274  1.2063 -0.4629
 3328TIP3   OH231542   1.992   3.413   2.748 -0.3190 -0.9114  0.3597
 3328TIP3    H131543   1.947   3.367   2.677  0.0830 -2.0510  0.8209
 3328TIP3    H231544   1.922   3.447   2.804 -0.7035  1.3659 -1.3541
 3329TIP3   OH231545   1.480   5.811   8.004 -0.6627  0.2337  0.0651
 3329TIP3    H131546   1.487   5.716   7.999 -1.9886  0.1697 -1.0876
 3329TIP3    H231547   1.460   5.838   7.915  1.6586  1.8121 -0.0597
 3330TIP3   OH231548   3.856   1.441   8.007  0.2594 -0.2848 -0.0924
 3330TIP3    H131549   3.856   1.506   8.078 -0.2967  0.1023 -0.4359
 3330TIP3    H231550   3.944   1.447   7.970 -0.2311  1.4104 -1.1145
 3331TIP3   OH231551   0.471   5.260   8.539 -0.1988 -0.1791 -0.2720
 3331TIP3    H131552   0.467   5.211   8.457  0.5730  0.8449 -0.9600
 3331TIP3    H231553   0.395   5.319   8.535 -0.6360 -0.7087  0.1487
 3332TIP3   OH231554   3.095   2.162   0.775 -0.0598  0.1038 -0.3893
 3332TIP3    H131555   3.089   2.069   0.754  1.1611 -0.0288 -0.2675
 3332TIP3    H231556   3.185   2.173   0.806 -0.3431  1.2301  0.0816
 3333TIP3   OH231557   0.988   1.203   1.098  0.0508 -0.7578 -0.6876
 3333TIP3    H131558   1.007   1.227   1.189  0.8500 -2.5350 -0.3392
 3333TIP3    H231559   0.895   1.180   1.097 -0.1113 -0.1303 -0.4769
 3334TIP3   OH231560   4.088   1.552   7.538  0.6266  0.0463 -0.2731
 3334TIP3    H131561   4.068   1.581   7.449 -0.7004  0.2496  0.0652
 3334TIP3    H231562   4.162   1.606   7.565  0.0161  1.1232 -0.6881
 3335TIP3   OH231563   2.349   1.724   2.144  0.1696 -0.9840  0.6621
 3335TIP3    H131564   2.294   1.698   2.218  1.3879 -0.5831  1.7466
 3335TIP3    H231565   2.331   1.817   2.132 -1.1634 -1.3539 -0.5881
 3336TIP3   OH231566   2.856   5.282   8.057  0.1354  0.5898  0.0816
 3336TIP3    H131567   2.815   5.297   7.973  1.7770  0.4637 -0.7915
 3336TIP3    H231568   2.857   5.368   8.100  0.2861  0.8914 -0.5171
 3337TIP3   OH231569   6.399   2.013   1.734  0.0565 -0.2806  0.2401
 3337TIP3    H131570   6.446   2.041   1.813  0.6691 -1.4720  0.3263
 3337TIP3    H231571   6.436   2.066   1.664  2.4066 -1.9143  0.1185
 3338TIP3   OH231572   1.229   6.129   2.619 -0.0869 -0.2380 -0.1166
 3338TIP3    H131573   1.146   6.086   2.600 -0.0457 -0.2226 -0.3357
 3338TIP3    H231574   1.207   6.221   2.631 -0.2851 -0.4363  1.1169
 3339TIP3   OH231575   6.328   5.128   1.241  0.0000 -0.4258 -0.7463
 3339TIP3    H131576   6.240   5.102   1.213 -0.7880  2.0136 -0.7526
 3339TIP3    H231577   6.332   5.222   1.222  1.4643  0.1901  2.1547
 3340TIP3   OH231578   4.168   2.505   7.173 -0.5991  0.4604 -0.2923
 3340TIP3    H131579   4.263   2.498   7.181 -0.5618 -0.9872 -1.4616
 3340TIP3    H231580   4.139   2.415   7.156 -1.9543  1.1403 -1.8935
 3341TIP3   OH231581   1.367   3.332   8.377  0.1100 -0.3792 -0.0909
 3341TIP3    H131582   1.406   3.317   8.291  1.0101 -1.4435  0.4769
 3341TIP3    H231583   1.343   3.245   8.408 -3.7044  0.2566 -0.7851
 3342TIP3   OH231584   0.198   2.800   0.322  0.1599  0.1228 -0.1401
 3342TIP3    H131585   0.230   2.714   0.296 -0.3263 -0.4800  1.1286
 3342TIP3    H231586   0.116   2.811   0.273 -0.0261 -0.3655  0.0486
 3343TIP3   OH231587   6.536   3.618   1.119 -0.3891  0.5135  0.0980
 3343TIP3    H131588   6.515   3.708   1.095  1.0313  0.8151 -0.0637
 3343TIP3    H231589   6.494   3.606   1.204 -0.5942  1.3299  0.1173
 3344TIP3   OH231590   6.305   3.190   1.727  0.1262  0.0904  0.0634
 3344TIP3    H131591   6.217   3.228   1.731 -0.0934 -0.4415  0.3511
 3344TIP3    H231592   6.293   3.107   1.680  0.5911  0.3462 -0.5202
 3345TIP3   OH231593   6.231   1.953   0.676  0.2173 -0.1051 -0.3312
 3345TIP3    H131594   6.292   2.024   0.656  0.5919 -0.2163  0.3953
 3345TIP3    H231595   6.162   1.961   0.609  1.2871 -0.3132 -1.4869
 3346TIP3   OH231596   2.974   0.992   0.260 -0.2306 -0.3253  0.4746
 3346TIP3    H131597   3.005   1.045   0.333  2.2151 -2.1180  0.9008
 3346TIP3    H231598   3.049   0.987   0.201 -0.4909 -2.8576  0.2534
 3347TIP3   OH231599   2.642   3.085   1.656 -0.3615  0.2738 -0.4060
 3347TIP3    H131600   2.671   3.168   1.693 -0.1074 -0.2096  0.5174
 3347TIP3    H231601   2.654   3.094   1.562 -0.4833  1.3345 -0.3253
 3348TIP3   OH231602   0.192   3.528   2.080 -0.2672  0.1098 -0.3641
 3348TIP3    H131603   0.215   3.572   2.162  2.0641 -2.4043  0.4740
 3348TIP3    H231604   0.206   3.594   2.012  6.1436  0.1614  0.4759
 3349TIP3   OH231605   6.773   3.797   7.692  0.2171  0.8606  0.0214
 3349TIP3    H131606   6.849   3.751   7.728  0.1465  0.0934 -0.7789
 3349TIP3    H231607   6.797   3.815   7.601 -0.2375  1.3652 -0.0045
 3350TIP3   OH231608   1.333   1.698   2.129  0.2406 -0.0749 -0.0159
 3350TIP3    H131609   1.248   1.732   2.102 -0.3898 -0.4051  1.4745
 3350TIP3    H231610   1.362   1.758   2.199  0.9236 -0.3429 -0.0575
 3351TIP3   OH231611   4.769   1.988   1.545 -0.4942 -0.5480  0.4894
 3351TIP3    H131612   4.741   1.947   1.463 -0.9133 -0.1095  0.4064
 3351TIP3    H231613   4.692   1.985   1.601 -0.5089  0.0468  0.5092
 3352TIP3   OH231614   4.764   5.139   0.078 -0.2238 -0.3890 -0.1295
 3352TIP3    H131615   4.768   5.096  -0.008 -1.4339 -0.2457 -0.2786
 3352TIP3    H231616   4.854   5.140   0.108  0.0846 -1.3610 -0.9515
 3353TIP3   OH231617   4.330   0.233   3.075 -0.5832 -0.6686 -0.1648
 3353TIP3    H131618   4.387   0.287   3.020  1.4587 -1.1334  1.3803
 3353TIP3    H231619   4.357   0.143   3.057 -0.9171 -0.9107  0.5063
 3354TIP3   OH231620   0.507   5.804   8.263 -0.1976  0.5294  0.1881
 3354TIP3    H131621   0.596   5.837   8.278  0.0173  1.4009 -2.5265
 3354TIP3    H231622   0.519   5.723   8.214 -0.8985 -0.9392  2.2833
 3355TIP3   OH231623   4.486   3.550   0.245  0.2238  0.0789 -0.5185
 3355TIP3    H131624   4.503   3.514   0.158 -1.3598  0.5360 -1.0555
 3355TIP3    H231625   4.524   3.637   0.243 -0.0865  0.2098 -0.8855
 3356TIP3   OH231626   5.527   0.348   3.131 -0.2612 -0.0578  0.1235
 3356TIP3    H131627   5.492   0.427   3.090  0.6713 -0.1340 -0.8577
 3356TIP3    H231628   5.619   0.345   3.104 -0.2519 -1.4306  0.2262
 3357TIP3   OH231629   1.586   3.552   7.093  0.0006  0.3039 -0.2250
 3357TIP3    H131630   1.566   3.601   7.013  2.4680  2.0507  0.1066
 3357TIP3    H231631   1.618   3.467   7.062  0.9372  0.9670 -1.1159
 3358TIP3   OH231632   3.126   0.269   8.247 -0.1530 -0.2524  0.2903
 3358TIP3    H131633   3.097   0.319   8.323  1.3524 -1.0657  1.4505
 3358TIP3    H231634   3.202   0.219   8.278  0.2051 -0.9873 -1.6156
 3359TIP3   OH231635   2.169   0.896   0.590  0.5876  0.5421  0.2101
 3359TIP3    H131636   2.264   0.888   0.577  0.6047  1.3731 -0.2173
 3359TIP3    H231637   2.148   0.829   0.656  1.6077  0.9518  0.9740
 3360TIP3   OH231638   0.946   5.142   1.344  0.4851 -0.6557  0.1574
 3360TIP3    H131639   0.964   5.146   1.250  2.7422  1.8008  0.5588
 3360TIP3    H231640   1.032   5.134   1.385 -0.3921 -0.9693  2.0648
 3361TIP3   OH231641   0.151   1.118   1.932 -0.3157 -0.8162  0.5077
 3361TIP3    H131642   0.230   1.168   1.956 -0.9056  0.9096 -0.9269
 3361TIP3    H231643   0.169   1.085   1.844 -0.6831 -1.5902  0.7117
 3362TIP3   OH231644   1.132   4.820   1.461 -0.5969  0.1970  0.8722
 3362TIP3    H131645   1.039   4.836   1.444 -0.4746 -0.5813 -0.7202
 3362TIP3    H231646   1.177   4.896   1.424 -0.3957 -1.0800 -1.7286
 3363TIP3   OH231647   5.336   0.962   1.296 -0.0502  1.0720  0.2807
 3363TIP3    H131648   5.282   0.984   1.220  0.9546  0.9570 -0.4960
 3363TIP3    H231649   5.403   1.030   1.298  1.1155 -0.0072 -0.1615
 3364TIP3   OH231650   5.348   2.173   0.739  0.2660 -0.0407 -0.3876
 3364TIP3    H131651   5.428   2.148   0.784  0.0431  0.3666  0.2525
 3364TIP3    H231652   5.288   2.200   0.809 -0.3152 -0.0261 -0.8779
 3365TIP3   OH231653   4.431   4.346   0.811  0.5449  0.4500 -0.2941
 3365TIP3    H131654   4.409   4.438   0.828  2.8139  0.9568  0.2774
 3365TIP3    H231655   4.506   4.328   0.867  1.7120 -1.0047 -2.1814
 3366TIP3   OH231656   5.185   3.370   1.986 -0.3836  0.3193 -0.3691
 3366TIP3    H131657   5.102   3.376   2.034 -0.2528  0.4048 -0.1524
 3366TIP3    H231658   5.163   3.397   1.897 -0.7867 -0.5346 -0.5443
 3367TIP3   OH231659   3.795   6.759   1.922 -0.2895  0.0001 -0.2392
 3367TIP3    H131660   3.789   6.722   2.009 -0.9185 -1.2443 -0.7949
 3367TIP3    H231661   3.706   6.788   1.902  0.2379  2.1974  0.3148
 3368TIP3   OH231662   2.586   6.798   0.719 -0.0820 -0.2051  0.4503
 3368TIP3    H131663   2.657   6.827   0.662  1.6355 -3.5417  0.6477
 3368TIP3    H231664   2.629   6.775   0.801 -1.2488 -2.5600  0.5066
 3369TIP3   OH231665   4.083   1.624   7.266 -0.2577  0.0489  0.2316
 3369TIP3    H131666   4.032   1.684   7.211 -1.9903 -0.2502  1.4310
 3369TIP3    H231667   4.147   1.680   7.309  0.3926  0.4608 -1.1983
 3370TIP3   OH231668   3.052   6.830   7.883 -0.5610  0.2952  0.8433
 3370TIP3    H131669   3.120   6.766   7.862 -0.0424  0.6546  1.3825
 3370TIP3    H231670   2.972   6.779   7.889 -0.2646 -0.2056  0.6190
 3371TIP3   OH231671   4.655   5.050   2.746  0.1119  0.0368  0.2895
 3371TIP3    H131672   4.680   4.966   2.784  0.6418 -0.1223 -0.3818
 3371TIP3    H231673   4.559   5.047   2.743  0.1530 -1.1183 -0.9638
 3372TIP3   OH231674   4.261   2.700   0.161  0.0595 -0.1575  0.1251
 3372TIP3    H131675   4.304   2.625   0.119  1.1166  1.0580 -1.0627
 3372TIP3    H231676   4.275   2.686   0.255 -0.5695 -1.8942 -0.0129
 3373TIP3   OH231677   6.402   0.824   8.095 -0.3902  0.1642  0.0329
 3373TIP3    H131678   6.323   0.878   8.086 -0.2566  0.0465 -2.2828
 3373TIP3    H231679   6.473   0.886   8.110 -0.6159  0.4341 -0.0145
 3374TIP3   OH231680   2.205   2.707   7.374  0.3068  0.0086 -0.2198
 3374TIP3    H131681   2.232   2.656   7.298 -0.0563 -2.0507  0.9696
 3374TIP3    H231682   2.282   2.708   7.431 -0.0067 -0.1214  0.2163
 3375TIP3   OH231683   2.063   4.509   8.420  0.4792  0.7213  0.2483
 3375TIP3    H131684   1.975   4.482   8.446 -0.3909  2.7186 -0.3534
 3375TIP3    H231685   2.119   4.435   8.442 -1.2843 -0.4493  1.0355
 3376TIP3   OH231686   0.102   3.196   0.175 -0.1017 -0.0798  0.1743
 3376TIP3    H131687   0.109   3.139   0.252  1.5249  0.5217  0.5085
 3376TIP3    H231688   0.081   3.282   0.211 -1.4381 -0.2066 -0.2443
 3377TIP3   OH231689   3.833   5.030   3.067  0.3608  0.4301 -0.0550
 3377TIP3    H131690   3.904   4.979   3.107  1.3018  2.0660  0.4887
 3377TIP3    H231691   3.766   5.036   3.135 -0.4669 -1.3638 -0.6684
 3378TIP3   OH231692   6.381   3.261   2.342 -0.1884 -0.6451  0.5656
 3378TIP3    H131693   6.404   3.330   2.403  0.4893  0.1321 -0.5324
 3378TIP3    H231694   6.425   3.284   2.260 -1.9974 -1.0104 -0.5928
 3379TIP3   OH231695   4.591   3.054   7.838 -0.3894 -0.1520  0.0361
 3379TIP3    H131696   4.667   3.066   7.896 -1.7029 -0.1206  1.8487
 3379TIP3    H231697   4.581   3.139   7.795 -0.0334  0.1970  0.6119
 3380TIP3   OH231698   5.209   2.170   8.210 -0.4131 -0.5412 -0.1524
 3380TIP3    H131699   5.281   2.200   8.155 -0.4025 -0.7046 -0.2275
 3380TIP3    H231700   5.245   2.171   8.299 -0.7369  0.6737 -0.0187
 3381TIP3   OH231701   4.938   3.701   1.541  0.4470  0.4329  0.2574
 3381TIP3    H131702   5.022   3.705   1.494 -0.3964  1.6160 -1.2489
 3381TIP3    H231703   4.887   3.774   1.504 -1.7967 -1.1699  0.0258
 3382TIP3   OH231704   3.491   2.297   2.953  0.0245 -0.5205  0.3873
 3382TIP3    H131705   3.533   2.249   3.025 -1.4530 -0.4165  1.3619
 3382TIP3    H231706   3.480   2.386   2.986  0.6249 -0.0864 -0.5347
 3383TIP3   OH231707   3.972   4.094   3.014  0.2351 -0.5089 -0.4565
 3383TIP3    H131708   3.951   4.037   2.941 -0.4649  0.4562 -1.0285
 3383TIP3    H231709   4.064   4.117   3.001  0.1490 -0.4463 -0.9667
 3384TIP3   OH231710   5.545   0.193   0.655  0.1796  0.0444 -0.1884
 3384TIP3    H131711   5.582   0.105   0.646  2.0766  0.4197  2.6827
 3384TIP3    H231712   5.619   0.252   0.637  0.1188  0.8938  1.9762
 3385TIP3   OH231713   0.459   3.190   1.698  0.3145 -0.0152  0.6161
 3385TIP3    H131714   0.533   3.163   1.644  0.7227  0.6110  0.8512
 3385TIP3    H231715   0.485   3.275   1.734 -0.8554  0.6154  0.0256
 3386TIP3   OH231716   1.012   1.700   1.397 -0.3607 -0.5135  0.2734
 3386TIP3    H131717   1.078   1.723   1.331 -2.2037 -0.6570 -1.7316
 3386TIP3    H231718   1.050   1.626   1.444  0.7957 -0.7845 -1.0195
 3387TIP3   OH231719   5.879   3.012   1.364  0.2149  0.5217 -0.1330
 3387TIP3    H131720   5.951   3.029   1.303  1.2088 -1.1031  0.5166
 3387TIP3    H231721   5.854   3.098   1.397  1.2642  1.2001 -1.0416
 3388TIP3   OH231722   1.533   2.240   8.148  0.0009  0.0334 -0.3007
 3388TIP3    H131723   1.612   2.221   8.096  0.8835  0.5084  0.8237
 3388TIP3    H231724   1.545   2.189   8.228  0.0741  1.5307  0.6826
 3389TIP3   OH231725   0.629   3.311   1.154 -0.2984  0.0866  0.0232
 3389TIP3    H131726   0.720   3.325   1.179 -0.3100 -1.9392  1.4544
 3389TIP3    H231727   0.634   3.251   1.079 -0.4459  0.6585 -0.4500
 3390TIP3   OH231728   4.743   2.590   2.012 -0.3753 -0.6546 -0.7459
 3390TIP3    H131729   4.816   2.530   2.027  0.3577  0.2887 -0.4399
 3390TIP3    H231730   4.683   2.541   1.956  0.6273 -1.3461 -1.2502
 3391TIP3   OH231731   2.507   6.028   8.071 -0.4518 -0.5284  0.0484
 3391TIP3    H131732   2.528   6.098   8.009 -0.3661 -1.0483 -0.5280
 3391TIP3    H231733   2.587   5.975   8.075 -0.7630 -1.0237 -0.1235
 3392TIP3   OH231734   2.345   0.976   2.804 -1.0296 -0.2750  0.2469
 3392TIP3    H131735   2.266   0.921   2.807 -0.5807 -0.9733 -0.2757
 3392TIP3    H231736   2.417   0.913   2.803 -0.4959  0.3318 -0.2122
 3393TIP3   OH231737   3.285   4.709   3.190  0.4284  0.6882 -0.4522
 3393TIP3    H131738   3.356   4.664   3.144 -0.2062  0.0251 -0.7768
 3393TIP3    H231739   3.214   4.715   3.126 -0.5710 -0.5076  0.4965
 3394TIP3   OH231740   4.229   2.029   2.982 -0.4128 -1.2066 -0.2179
 3394TIP3    H131741   4.299   2.041   2.918 -0.3750 -1.2986 -0.1942
 3394TIP3    H231742   4.258   2.078   3.059 -1.8290  1.5007 -1.2678
 3395TIP3   OH231743   2.212   6.094   7.563  0.4361 -0.6647  0.1220
 3395TIP3    H131744   2.242   6.005   7.581  2.0827 -0.2341 -0.3816
 3395TIP3    H231745   2.282   6.151   7.595 -0.9565  0.5093  1.2040
 3396TIP3   OH231746   3.625   0.575   0.263  0.2210  0.4195 -0.1158
 3396TIP3    H131747   3.544   0.553   0.309  0.2585 -0.2715 -0.3812
 3396TIP3    H231748   3.634   0.509   0.195  0.5323  1.0269 -0.6831
 3397TIP3   OH231749   2.802   2.802   7.558  0.2675 -0.2627 -0.4522
 3397TIP3    H131750   2.870   2.736   7.542  0.5596  0.1096 -0.7933
 3397TIP3    H231751   2.740   2.790   7.487 -0.4280 -1.0992  0.2806
 3398TIP3   OH231752   4.715   5.277   1.521  0.0485  0.7568 -0.5701
 3398TIP3    H131753   4.770   5.204   1.548  0.9444  1.8748  0.8142
 3398TIP3    H231754   4.651   5.239   1.462  2.0166 -0.7025 -1.8941
 3399TIP3   OH231755   0.244   5.758   8.375  0.0732  0.5219 -0.4318
 3399TIP3    H131756   0.238   5.732   8.467 -0.5494 -2.1074 -1.1266
 3399TIP3    H231757   0.336   5.780   8.362  0.2416  0.5663  0.7150
 3400TIP3   OH231758   1.749   6.117   7.569 -0.6288 -0.3250 -0.3156
 3400TIP3    H131759   1.806   6.190   7.593  0.0183 -0.8577 -0.2018
 3400TIP3    H231760   1.803   6.040   7.581 -1.3220 -0.8313 -0.3955
 3401TIP3   OH231761   3.275   1.374   1.664 -0.3103 -0.1787 -0.3557
 3401TIP3    H131762   3.368   1.380   1.687  0.2805 -1.1253 -2.2920
 3401TIP3    H231763   3.261   1.445   1.602 -1.3954  1.1215  1.2780
 3402TIP3   OH231764   4.104   5.881   8.056 -0.7618  0.4663  0.0909
 3402TIP3    H131765   4.077   5.897   8.146  0.6897 -1.2579  0.8856
 3402TIP3    H231766   4.051   5.806   8.028  1.1139 -1.1638  0.7166
 3403TIP3   OH231767   0.904   5.585   1.762 -0.4354  0.4702 -0.3570
 3403TIP3    H131768   0.858   5.501   1.761  0.3660  0.0262 -0.9423
 3403TIP3    H231769   0.913   5.605   1.855  1.0358 -1.0657 -0.1059
 3404TIP3   OH231770   1.940   0.135   0.528  0.6852 -0.6638  0.1396
 3404TIP3    H131771   1.965   0.189   0.453  0.9681 -1.5971 -0.4489
 3404TIP3    H231772   1.978   0.180   0.603 -1.7553  1.7332  0.0989
 3405TIP3   OH231773   1.168   1.908   1.013  0.0419 -0.0497  0.5615
 3405TIP3    H131774   1.128   1.841   1.069 -2.2035  0.5923 -0.1689
 3405TIP3    H231775   1.197   1.859   0.936 -2.4945 -0.1738 -0.4327
 3406TIP3   OH231776   6.231   1.258   0.586  0.4645 -0.2491 -0.5063
 3406TIP3    H131777   6.187   1.300   0.660  0.5620  0.9349 -1.0946
 3406TIP3    H231778   6.250   1.169   0.617 -1.7471 -0.6172  0.0112
 3407TIP3   OH231779   3.223   5.746   8.539  0.3715  0.1282 -0.4411
 3407TIP3    H131780   3.150   5.722   8.596 -0.3955 -1.9591 -2.1630
 3407TIP3    H231781   3.273   5.664   8.528  2.0746  1.1309 -0.5973
 3408TIP3   OH231782   1.310   3.439   0.038 -0.1977 -0.2566 -0.0966
 3408TIP3    H131783   1.404   3.450   0.027 -0.3475  2.4724  0.4950
 3408TIP3    H231784   1.301   3.387   0.118  0.8493  0.9269  0.8370
 3409TIP3   OH231785   3.575   6.721   8.198  0.6721  0.0478  0.4551
 3409TIP3    H131786   3.594   6.628   8.200 -1.6048 -0.4965 -0.2164
 3409TIP3    H231787   3.539   6.737   8.110  2.2234  1.8598  0.0667
 3410TIP3   OH231788   2.394   1.233   1.265 -0.0646  0.5121  0.0505
 3410TIP3    H131789   2.331   1.282   1.318 -0.0601  1.2239 -0.5748
 3410TIP3    H231790   2.428   1.298   1.204  0.1478 -0.2181 -0.6214
 3411TIP3   OH231791   1.873   2.398   1.497 -0.5075 -0.8608 -0.6416
 3411TIP3    H131792   1.946   2.426   1.552 -0.4897 -2.0253 -0.0374
 3411TIP3    H231793   1.795   2.422   1.546 -0.5216 -0.6382 -0.7686
 3412TIP3   OH231794   2.711   2.415   2.339 -0.6438 -0.5320  0.0742
 3412TIP3    H131795   2.743   2.423   2.429 -0.5878 -1.9094  0.1990
 3412TIP3    H231796   2.625   2.457   2.340 -1.4221 -2.0255  1.2259
 3413TIP3   OH231797   5.804   1.709   8.401  0.2960  0.1658 -0.0942
 3413TIP3    H131798   5.721   1.665   8.419 -0.2065  1.2595  0.3431
 3413TIP3    H231799   5.804   1.721   8.306 -0.5205  1.0320 -0.0006
 3414TIP3   OH231800   4.593   4.094   6.979 -0.3546 -0.0756  0.5151
 3414TIP3    H131801   4.614   4.040   7.055 -1.3930  0.4627  1.2149
 3414TIP3    H231802   4.534   4.039   6.927 -1.5158  0.3999  1.2920
 3415TIP3   OH231803   4.126   4.538   0.697  0.2493 -0.5974  0.3357
 3415TIP3    H131804   4.183   4.493   0.760  0.7871 -0.2057  0.1454
 3415TIP3    H231805   4.175   4.537   0.615 -0.5374 -1.2758 -0.1322
 3416TIP3   OH231806   1.782   2.603   1.697  0.0079  0.1849  0.0921
 3416TIP3    H131807   1.818   2.674   1.643  1.4358 -1.0863 -0.7190
 3416TIP3    H231808   1.847   2.590   1.766  0.0038 -0.6301 -0.0425
 3417TIP3   OH231809   4.218   1.034   8.196  0.1704  0.0063  0.0945
 3417TIP3    H131810   4.308   1.051   8.225 -0.3379  1.1608  1.1248
 3417TIP3    H231811   4.197   1.108   8.139  0.0885 -0.6017 -0.6647
 3418TIP3   OH231812   0.706   3.125   7.381  0.2568  0.7293 -0.3925
 3418TIP3    H131813   0.624   3.119   7.430  0.6115  0.5271  0.1905
 3418TIP3    H231814   0.734   3.034   7.372 -0.5002  0.6411 -2.1986
 3419TIP3   OH231815   6.748   0.538   1.095 -0.2158  0.1239  0.1663
 3419TIP3    H131816   6.779   0.628   1.086 -0.4607  0.1858 -0.1067
 3419TIP3    H231817   6.782   0.508   1.179  0.2138  0.3311  0.0689
 3420TIP3   OH231818   3.494   6.459   7.833  0.0145  0.4544  0.2287
 3420TIP3    H131819   3.452   6.373   7.833 -0.7045  0.7964  0.1207
 3420TIP3    H231820   3.539   6.464   7.748  0.9733 -0.2368  0.6793
 3421TIP3   OH231821   2.434   4.186   2.005  0.3977 -0.7139  0.3216
 3421TIP3    H131822   2.414   4.147   2.090 -1.0274  0.3093  0.5023
 3421TIP3    H231823   2.349   4.197   1.963  0.8806  0.7300 -0.3554
 3422TIP3   OH231824   0.183   1.958   3.395  0.6634 -0.0179 -0.3891
 3422TIP3    H131825   0.143   2.032   3.349 -0.0846  0.7958  1.4518
 3422TIP3    H231826   0.120   1.887   3.385  0.3589  0.2444 -0.3542
 3423TIP3   OH231827   2.392   4.489   1.460  0.1846 -0.9561 -0.3618
 3423TIP3    H131828   2.449   4.444   1.398  1.3689  1.7446 -1.3820
 3423TIP3    H231829   2.322   4.527   1.407 -0.2342 -0.7712  0.3041
 3424TIP3   OH231830   1.790   5.304   0.789  0.2205 -0.1334  0.1289
 3424TIP3    H131831   1.698   5.330   0.802  0.6897  0.9338  1.5340
 3424TIP3    H231832   1.806   5.238   0.856  0.5662 -0.0958  0.0850
 3425TIP3   OH231833   3.972   1.779   0.659  0.1326 -0.3692 -0.0709
 3425TIP3    H131834   3.974   1.846   0.590 -0.9688  0.5692  0.7703
 3425TIP3    H231835   4.018   1.819   0.733 -1.5970 -0.0126  0.8593
 3426TIP3   OH231836   1.417   6.590   1.284  0.4344 -0.1434  0.8956
 3426TIP3    H131837   1.465   6.554   1.209 -0.5836  0.9257 -0.3217
 3426TIP3    H231838   1.428   6.524   1.353 -0.9696 -2.6227 -1.0580
 3427TIP3   OH231839   2.465   0.055   1.551  1.0012 -0.3037  0.0376
 3427TIP3    H131840   2.435   0.068   1.461  0.0419 -0.6325  0.3056
 3427TIP3    H231841   2.501  -0.034   1.551  0.1229 -0.6622  0.2128
 3428TIP3   OH231842   2.238   4.554   1.247  0.2097 -0.1789  0.3462
 3428TIP3    H131843   2.181   4.494   1.198 -0.1716  1.4923 -1.3921
 3428TIP3    H231844   2.303   4.583   1.183  1.5801 -0.2048  1.6688
 3429TIP3   OH231845   0.383   0.126   7.216  0.0064  0.0070 -0.4682
 3429TIP3    H131846   0.340   0.045   7.242 -0.5810  1.0279  2.1418
 3429TIP3    H231847   0.469   0.122   7.258 -0.7683  1.5000  1.4266
 3430TIP3   OH231848   0.063   4.739   0.690  0.1864  0.5823  0.2649
 3430TIP3    H131849  -0.012   4.788   0.725  0.6587  0.2537  1.8069
 3430TIP3    H231850   0.061   4.756   0.596 -1.7310  0.7131  0.2890
 3431TIP3   OH231851   5.945   4.446   2.299  0.4360 -0.4256 -0.0818
 3431TIP3    H131852   5.894   4.437   2.379  0.1196  1.1903 -0.0776
 3431TIP3    H231853   5.880   4.461   2.230  0.8288  0.8185 -0.2059
 3432TIP3   OH231854   2.884   4.697   8.202  0.1765  0.3543 -0.3263
 3432TIP3    H131855   2.867   4.768   8.264  1.5337  0.6177 -0.2280
 3432TIP3    H231856   2.801   4.650   8.198  0.5689 -1.0392  3.4254
 3433TIP3   OH231857   3.867   2.507   2.522  0.4300 -0.1061 -0.2157
 3433TIP3    H131858   3.841   2.420   2.552 -0.2575  0.1048 -0.2028
 3433TIP3    H231859   3.864   2.500   2.426 -1.5052  0.4487 -0.2299
 3434TIP3   OH231860   4.215   1.654   8.591 -0.1629  0.5407 -0.6259
 3434TIP3    H131861   4.291   1.661   8.534  0.6551 -0.6437  0.2808
 3434TIP3    H231862   4.251   1.634   8.677 -1.5733 -2.6001 -0.6525
 3435TIP3   OH231863   5.401   5.953   7.848 -0.4670  0.3858  0.2895
 3435TIP3    H131864   5.437   6.042   7.843  2.0428 -0.5984 -0.9776
 3435TIP3    H231865   5.462   5.905   7.903 -0.7921 -0.9686 -0.4795
 3436TIP3   OH231866   3.766   3.176   1.899 -0.6619  0.1576  0.5261
 3436TIP3    H131867   3.704   3.206   1.832  0.4971 -2.5286 -1.9494
 3436TIP3    H231868   3.713   3.122   1.958 -1.0971 -0.2746 -0.2484
 3437TIP3   OH231869   3.745   1.736   2.250 -0.3620 -0.3132 -0.3813
 3437TIP3    H131870   3.669   1.678   2.244 -0.4954  0.0294 -2.9301
 3437TIP3    H231871   3.710   1.819   2.281 -0.7576 -0.6035 -0.0503
 3438TIP3   OH231872   4.061   6.220   0.893 -0.5977 -0.2342 -0.4143
 3438TIP3    H131873   4.138   6.203   0.948 -1.6054  0.0597  1.1546
 3438TIP3    H231874   4.084   6.183   0.808 -0.1989 -3.7958  1.0547
 3439TIP3   OH231875   2.729   5.802   7.767  0.3281  0.3159  0.4120
 3439TIP3    H131876   2.756   5.711   7.774 -0.6819 -0.3868 -2.9891
 3439TIP3    H231877   2.799   5.845   7.719 -1.0174  0.2594 -1.7313
 3440TIP3   OH231878   2.223   5.971   2.069 -0.0453 -0.2774  0.3282
 3440TIP3    H131879   2.218   5.957   1.974 -0.6341 -1.5998  0.5427
 3440TIP3    H231880   2.146   5.927   2.104 -0.0131  0.4900  1.4065
 3441TIP3   OH231881   6.449   0.835   2.692  0.5812  0.4042  0.0698
 3441TIP3    H131882   6.486   0.771   2.632  1.0630  0.5428  0.2156
 3441TIP3    H231883   6.503   0.913   2.680  1.7395 -0.0676  1.8572
 3442TIP3   OH231884   5.667   5.490   2.518 -0.6102 -1.2704  0.1924
 3442TIP3    H131885   5.753   5.452   2.535  0.0362 -0.2302 -0.6134
 3442TIP3    H231886   5.630   5.506   2.604  0.2559 -1.1708  0.5576
 3443TIP3   OH231887   2.929   1.458   1.139  0.1564 -0.1174 -0.4806
 3443TIP3    H131888   2.947   1.552   1.137 -0.6019  0.0267 -1.5813
 3443TIP3    H231889   2.873   1.446   1.216  1.2096  0.1249  0.3504
 3444TIP3   OH231890   2.164   3.942   1.500  0.5741 -0.1852 -0.6217
 3444TIP3    H131891   2.117   3.954   1.583 -1.4439  3.0981 -2.0698
 3444TIP3    H231892   2.217   4.020   1.491 -0.3108  0.2103 -3.0234
 3445TIP3   OH231893   5.971   6.481   8.277 -0.2517  0.1704 -0.3514
 3445TIP3    H131894   6.014   6.544   8.219 -2.5540  2.8410  0.6006
 3445TIP3    H231895   5.921   6.535   8.339 -1.6850 -2.6101  1.1263
 3446TIP3   OH231896   6.585   0.400   0.483  0.6190 -0.5031 -0.5449
 3446TIP3    H131897   6.572   0.313   0.444 -0.3435 -1.7264  2.1761
 3446TIP3    H231898   6.555   0.389   0.574  0.0872  2.8020 -0.1985
 3447TIP3   OH231899   5.317   0.009   0.927 -0.6139  0.2295  0.4290
 3447TIP3    H131900   5.407   0.026   0.898 -0.3258 -1.8495 -0.0241
 3447TIP3    H231901   5.325  -0.060   0.992 -1.8188  0.7583  1.1714
 3448TIP3   OH231902   0.895   0.118   7.422  0.0764  0.1461 -0.1593
 3448TIP3    H131903   0.953   0.055   7.465  1.1384  0.5030 -1.0148
 3448TIP3    H231904   0.954   0.188   7.393 -0.8572  0.7273 -0.6871
 3449TIP3   OH231905   2.448   2.327   8.353 -0.4855 -0.5777 -0.5861
 3449TIP3    H131906   2.486   2.414   8.359 -1.7523  0.0843 -1.6659
 3449TIP3    H231907   2.376   2.327   8.416 -1.4432 -0.2993 -1.6494
 3450TIP3   OH231908   5.559   4.086   7.077 -0.2438 -0.2075  0.0742
 3450TIP3    H131909   5.540   4.022   7.145 -1.7788  0.2788  0.1468
 3450TIP3    H231910   5.495   4.156   7.092  0.6154  0.7732 -0.7316
 3451TIP3   OH231911   3.218   4.322   2.171 -0.0973  0.1716  0.5094
 3451TIP3    H131912   3.197   4.275   2.252  0.4957 -0.3588  0.3682
 3451TIP3    H231913   3.308   4.296   2.151 -0.2679  0.2184 -0.3714
 3452TIP3   OH231914   5.722   0.449   8.533 -1.2937 -0.0992  0.4580
 3452TIP3    H131915   5.792   0.460   8.597 -1.5146  0.6675  0.5734
 3452TIP3    H231916   5.653   0.509   8.562 -1.1251  0.7810 -0.8786
 3453TIP3   OH231917   3.089   0.686   0.731  0.8523  0.6315  0.2170
 3453TIP3    H131918   3.014   0.696   0.790  1.7041  1.3495  1.2277
 3453TIP3    H231919   3.069   0.744   0.657  0.7436  1.4358  0.8528
 3454TIP3   OH231920   2.655   0.032   7.902 -0.2011  0.0622 -0.0495
 3454TIP3    H131921   2.720  -0.030   7.868 -1.8218 -1.0449 -1.3679
 3454TIP3    H231922   2.573   0.003   7.861 -1.5570  1.2501  1.7120
 3455TIP3   OH231923   2.355   2.121   1.589  0.3798  0.0318  0.3538
 3455TIP3    H131924   2.332   2.159   1.674 -2.3453  0.8373 -0.6415
 3455TIP3    H231925   2.270   2.102   1.548  1.6225 -0.4823 -2.1246
 3456TIP3   OH231926   6.156   5.087   2.400  0.5832  0.2770  0.2293
 3456TIP3    H131927   6.122   5.051   2.482  1.0345  1.0166  0.7600
 3456TIP3    H231928   6.138   5.181   2.405  0.0766  0.2475 -0.8000
 3457TIP3   OH231929   1.461   2.973   1.044  0.3927 -0.1101 -0.6505
 3457TIP3    H131930   1.503   3.019   1.117 -1.7737 -0.6132  1.0395
 3457TIP3    H231931   1.419   3.042   0.993  2.0569  0.2609 -1.6110
 3458TIP3   OH231932   0.257   5.450   0.448  0.5260  0.0512 -0.4569
 3458TIP3    H131933   0.249   5.502   0.529  0.5366 -0.5908 -0.0395
 3458TIP3    H231934   0.315   5.378   0.471 -0.3179 -0.7306 -0.7362
 3459TIP3   OH231935   0.066   2.161   2.411  0.2855  0.3211  0.7101
 3459TIP3    H131936   0.039   2.253   2.411  0.3465  0.3424  0.0241
 3459TIP3    H231937   0.078   2.140   2.503  1.0174  1.2154  0.8340
 3460TIP3   OH231938   5.178   0.502   1.735  0.2873 -0.2537 -0.2474
 3460TIP3    H131939   5.171   0.540   1.647 -1.2972  1.2247  0.4706
 3460TIP3    H231940   5.115   0.431   1.736  1.1633 -1.0588 -0.6578
 3461TIP3   OH231941   5.281   3.115   1.943 -0.4001  0.6802 -0.4947
 3461TIP3    H131942   5.296   3.111   2.037 -1.3859  1.9665 -0.2634
 3461TIP3    H231943   5.236   3.198   1.929 -2.1832 -0.4276 -1.8275
 3462TIP3   OH231944   2.672   0.490   2.041 -0.1604  0.5820 -0.3444
 3462TIP3    H131945   2.661   0.499   1.946  0.0734 -0.3158 -0.4638
 3462TIP3    H231946   2.613   0.419   2.066 -0.0811  0.6884  0.1533
 3463TIP3   OH231947   5.440   4.988   7.773  0.4258  0.2745 -0.1723
 3463TIP3    H131948   5.467   4.949   7.856 -0.3696  0.3837  0.1478
 3463TIP3    H231949   5.522   5.015   7.732  0.8624 -0.1933  0.3679
 3464TIP3   OH231950   4.745   1.044   3.419 -0.1810 -0.0491 -0.1463
 3464TIP3    H131951   4.820   1.103   3.418 -0.0008 -0.2642  0.2134
 3464TIP3    H231952   4.761   0.986   3.494  0.2603 -1.3357 -1.2100
 3465TIP3   OH231953   5.969   6.348   7.935 -0.2141 -0.0127 -0.0050
 3465TIP3    H131954   5.928   6.432   7.914 -1.2501 -0.4168  0.3373
 3465TIP3    H231955   5.954   6.293   7.858 -1.3660 -0.5301  0.5661
 3466TIP3   OH231956   1.226   2.040   8.511 -0.5863  0.7204  0.0095
 3466TIP3    H131957   1.161   2.087   8.459 -0.6856  0.8245  0.2278
 3466TIP3    H231958   1.182   2.021   8.594 -1.3290 -1.7503 -0.8679
 3467TIP3   OH231959   0.650   5.000   8.141  0.3532  0.6443 -0.4366
 3467TIP3    H131960   0.664   4.907   8.123 -0.6512 -0.1377  2.2424
 3467TIP3    H231961   0.728   5.026   8.190 -0.7224  0.2949  1.5547
 3468TIP3   OH231962   1.801   2.586   8.177  0.0958  0.5332 -0.0001
 3468TIP3    H131963   1.823   2.652   8.243  0.9375  0.3690 -0.0921
 3468TIP3    H231964   1.838   2.505   8.212  3.0585  0.9036 -1.8645
 3469TIP3   OH231965   4.582   5.956   2.215  0.3851 -0.3693  0.1617
 3469TIP3    H131966   4.566   5.862   2.214  0.3171 -0.3694 -1.3499
 3469TIP3    H231967   4.663   5.966   2.265  2.6622 -1.6912 -2.9499
 3470TIP3   OH231968   3.188   1.462   7.597 -0.2197  0.2314  0.3936
 3470TIP3    H131969   3.255   1.492   7.659  0.0787  2.1650 -0.7817
 3470TIP3    H231970   3.106   1.469   7.646  0.2136 -0.2626  1.2195
 3471TIP3   OH231971   6.400   3.360   8.260 -0.7457  0.1058 -0.0466
 3471TIP3    H131972   6.314   3.391   8.231 -0.2664 -0.1182 -1.8052
 3471TIP3    H231973   6.427   3.298   8.193  0.7838  0.1343  0.5085
 3472TIP3   OH231974   5.597   1.605   0.527 -0.0960  0.4976 -0.0727
 3472TIP3    H131975   5.531   1.637   0.589 -0.0726 -1.4502  1.0498
 3472TIP3    H231976   5.630   1.525   0.567  2.3084  0.9022 -1.0649
 3473TIP3   OH231977   5.335   2.443   1.090  0.1238  0.4580 -0.1914
 3473TIP3    H131978   5.333   2.492   1.172  1.0176  1.0154 -0.4927
 3473TIP3    H231979   5.392   2.493   1.033  0.1248 -0.3271 -0.9036
 3474TIP3   OH231980   1.204   6.095   8.682  0.3567 -0.0691  0.1187
 3474TIP3    H131981   1.234   6.099   8.592 -0.8452 -0.7493 -0.3337
 3474TIP3    H231982   1.137   6.163   8.688  2.0020  1.5385  1.1522
 3475TIP3   OH231983   1.055   5.301   7.310  0.0854 -0.2787  0.5560
 3475TIP3    H131984   1.085   5.284   7.221  0.5246  1.1461  0.3977
 3475TIP3    H231985   1.104   5.239   7.364  0.4846 -0.5477 -0.0979
 3476TIP3   OH231986   6.810   1.940   8.581 -0.1559  0.2315 -0.3095
 3476TIP3    H131987   6.849   1.855   8.602 -0.3747  0.2746  0.2984
 3476TIP3    H231988   6.744   1.921   8.515  0.5538  0.0890 -0.9862
 3477TIP3   OH231989   0.852   4.203   0.640 -0.3618 -0.6116 -0.3439
 3477TIP3    H131990   0.931   4.213   0.587 -0.7454 -0.9016 -0.9794
 3477TIP3    H231991   0.881   4.155   0.717 -0.0716 -1.4616 -0.9654
 3478TIP3   OH231992   0.677   4.580   7.890 -0.5654 -0.3227  0.2404
 3478TIP3    H131993   0.714   4.668   7.894  0.7715 -0.7122 -1.7788
 3478TIP3    H231994   0.686   4.554   7.798 -2.5219 -1.9165  0.4247
 3479TIP3   OH231995   1.867   4.912   1.709 -0.6506  0.1918 -0.2158
 3479TIP3    H131996   1.904   4.943   1.626 -1.2085  2.4285  0.3143
 3479TIP3    H231997   1.775   4.893   1.690 -0.7260  0.4980 -0.1559
 3480TIP3   OH231998   4.340   6.459   0.236  0.0095  0.0538 -0.4306
 3480TIP3    H131999   4.362   6.550   0.216 -0.4618  0.4039  0.5886
 3480TIP3    H232000   4.279   6.465   0.310  2.5791 -1.1926  1.9676
 3481TIP3   OH232001   2.556   1.001   0.059  0.3500  0.4711 -1.1283
 3481TIP3    H132002   2.562   0.915   0.018  0.9873  1.3687 -3.0020
 3481TIP3    H232003   2.646   1.033   0.063 -0.0264  1.7165 -1.9809
 3482TIP3   OH232004   5.444   1.454   1.809  0.2979 -0.3787  0.0016
 3482TIP3    H132005   5.495   1.430   1.732  1.4208  0.6814  0.3855
 3482TIP3    H232006   5.506   1.447   1.882 -1.0393 -2.5061  1.0158
 3483TIP3   OH232007   5.200   4.617   0.043  0.1039 -0.4917 -0.6340
 3483TIP3    H132008   5.187   4.658  -0.042  0.2119 -0.2418 -0.5286
 3483TIP3    H232009   5.120   4.637   0.092  1.0029  1.3639  0.1470
 3484TIP3   OH232010   4.403   6.506   0.916 -0.2476  0.1213 -0.0567
 3484TIP3    H132011   4.438   6.592   0.935 -0.7572  0.4136 -0.4085
 3484TIP3    H232012   4.351   6.483   0.994  0.0692  0.0268  0.1310
 3485TIP3   OH232013   3.515   0.934   2.478  0.7362  0.2375 -0.1957
 3485TIP3    H132014   3.460   0.870   2.523  0.6855 -0.2443 -0.9233
 3485TIP3    H232015   3.588   0.884   2.442  0.7038  0.5808 -0.7636
 3486TIP3   OH232016   2.393   0.994   1.415  0.5199  0.2233 -0.1135
 3486TIP3    H132017   2.451   0.922   1.390  1.8751  1.6089 -1.1079
 3486TIP3    H232018   2.419   1.067   1.359 -1.1302  1.3769  0.5341
 3487TIP3   OH232019   6.101   5.098   7.987 -0.0302 -0.6458  0.1715
 3487TIP3    H132020   6.020   5.104   7.936 -0.4884 -1.7408  0.7229
 3487TIP3    H232021   6.114   5.187   8.022 -2.0427 -0.8342  1.5847
 3488TIP3   OH232022   6.149   1.917   1.748  0.0652  0.1137 -0.3058
 3488TIP3    H132023   6.232   1.961   1.732  0.9436 -1.1695  0.4662
 3488TIP3    H232024   6.115   1.898   1.661  0.8290  0.2371 -0.6433
 3489TIP3   OH232025   2.219   6.734   8.566 -0.0817 -0.1488  0.3272
 3489TIP3    H132026   2.291   6.768   8.619 -0.0845 -0.9682  0.8779
 3489TIP3    H232027   2.201   6.648   8.603 -0.0604 -0.7559 -1.0481
 3490TIP3   OH232028   5.703   2.214   8.590 -0.1368  0.4370 -0.1263
 3490TIP3    H132029   5.628   2.258   8.551  1.3576  1.6243 -1.8247
 3490TIP3    H232030   5.765   2.203   8.518  1.2021 -0.8117  1.1362
 3491TIP3   OH232031   3.703   6.259   2.617  0.1019  0.7306  0.1505
 3491TIP3    H132032   3.698   6.182   2.673  0.9745  1.7063  1.6570
 3491TIP3    H232033   3.764   6.235   2.548 -1.2561 -0.6176 -0.6386
 3492TIP3   OH232034   6.492   6.355   8.111  0.5948 -0.8296 -0.5266
 3492TIP3    H132035   6.545   6.279   8.135 -2.6398 -2.1855  3.4889
 3492TIP3    H232036   6.515   6.422   8.175 -0.7826 -0.6042 -0.2379
 3493TIP3   OH232037   1.742   1.455   7.742 -0.5897  0.1546 -0.0331
 3493TIP3    H132038   1.719   1.397   7.669  0.1579 -0.8150  0.4912
 3493TIP3    H232039   1.730   1.543   7.706  2.6522 -0.1690 -2.4098
 3494TIP3   OH232040   3.055   6.740   1.671  0.4447  0.0778  0.7326
 3494TIP3    H132041   3.075   6.732   1.764  0.5939 -0.3682  0.6622
 3494TIP3    H232042   3.092   6.662   1.632  1.0869  0.6469  0.1732
 3495TIP3   OH232043   4.690   3.305   2.656 -0.1642  0.8996 -0.1872
 3495TIP3    H132044   4.602   3.322   2.689  0.4185 -0.1658  2.2341
 3495TIP3    H232045   4.748   3.352   2.717  1.0191 -1.5409  0.7286
 3496TIP3   OH232046   2.719   4.701   1.081 -0.6764 -0.1191 -0.0091
 3496TIP3    H132047   2.796   4.757   1.093  0.0425 -0.8881 -0.8783
 3496TIP3    H232048   2.755   4.616   1.058 -1.7537 -0.9975  1.4287
 3497TIP3   OH232049   6.705   4.129   1.847  0.1694 -0.2244  0.2583
 3497TIP3    H132050   6.761   4.193   1.804 -0.2934 -0.5516 -0.8616
 3497TIP3    H232051   6.659   4.179   1.915  1.7353  0.0608  1.1556
 3498TIP3   OH232052   5.550   5.643   0.766 -0.0072 -0.2492  0.1015
 3498TIP3    H132053   5.642   5.633   0.790  0.0190  0.0656  0.1327
 3498TIP3    H232054   5.542   5.599   0.681  0.3363  0.3859 -0.2578
 3499TIP3   OH232055   2.231   3.250   0.427 -0.1662  0.9324  0.5922
 3499TIP3    H132056   2.163   3.313   0.453 -2.1993 -0.4355 -1.1470
 3499TIP3    H232057   2.232   3.253   0.332  1.2386 -0.1371  0.5399
 3500TIP3   OH232058   6.026   1.907   8.146 -0.5383 -0.4029  0.5203
 3500TIP3    H132059   6.036   1.901   8.241 -1.8519 -0.8090  0.6472
 3500TIP3    H232060   6.026   1.816   8.116 -0.3159 -0.2825  0.1437
 3501TIP3   OH232061   2.480   2.147   0.564 -0.0933  0.3249 -0.0736
 3501TIP3    H132062   2.525   2.112   0.641  0.5155  1.0513 -0.0990
 3501TIP3    H232063   2.525   2.107   0.489 -0.5985 -0.2752 -0.0703
 3502TIP3   OH232064   0.858   2.625   2.177  0.0329  0.5177 -0.3714
 3502TIP3    H132065   0.876   2.614   2.270 -1.8764  0.3855  0.0231
 3502TIP3    H232066   0.855   2.720   2.165  1.0681  0.5493 -0.4929
 3503TIP3   OH232067   5.342   4.957   8.237 -0.1775 -0.2828 -0.2116
 3503TIP3    H132068   5.311   5.027   8.294 -1.8326 -2.5097  1.8548
 3503TIP3    H232069   5.262   4.923   8.196  0.3498 -1.9728  0.0991
 3504TIP3   OH232070   1.835   0.483   8.672  0.5197  0.2843 -0.7619
 3504TIP3    H132071   1.930   0.492   8.682  0.6390 -0.2265 -1.3868
 3504TIP3    H232072   1.805   0.451   8.757  0.9780 -0.0623 -0.7281
 3505TIP3   OH232073   1.584   1.339   7.546  0.3024 -0.3519  0.0875
 3505TIP3    H132074   1.551   1.258   7.585 -1.5277  0.3900  0.1664
 3505TIP3    H232075   1.586   1.321   7.451 -1.5294 -0.0515 -0.0444
 3506TIP3   OH232076   5.910   4.680   7.409  0.3801  0.4081  0.3288
 3506TIP3    H132077   5.931   4.661   7.318  1.0896 -0.9332  0.7388
 3506TIP3    H232078   5.815   4.675   7.414  0.3834 -0.3527 -0.1782
 3507TIP3   OH232079   4.700   1.357   8.497  0.2102  0.6050  0.4760
 3507TIP3    H132080   4.717   1.287   8.433  0.9751 -0.5214  1.8618
 3507TIP3    H232081   4.615   1.393   8.471  1.1158  1.1772 -2.0279
 3508TIP3   OH232082   0.008   4.945   1.460  0.4199 -0.7003 -0.3366
 3508TIP3    H132083  -0.043   4.927   1.381 -0.8264 -0.2586  0.3526
 3508TIP3    H232084   0.097   4.962   1.427  0.1464 -1.5138 -1.5471
 3509TIP3   OH232085   3.476   4.049   7.887  0.3798  0.5441  0.3307
 3509TIP3    H132086   3.539   4.107   7.845 -2.3226  1.6125 -2.6564
 3509TIP3    H232087   3.456   4.092   7.970  2.1893  1.0933  0.5256
 3510TIP3   OH232088   4.999   6.161   3.234  0.0328  0.5188 -0.0676
 3510TIP3    H132089   4.974   6.236   3.287  0.3216  0.1922  0.5391
 3510TIP3    H232090   5.093   6.174   3.217  0.2062  0.0492  0.4690
 3511TIP3   OH232091   4.742   2.855   2.165 -0.2258  0.5898 -0.1955
 3511TIP3    H132092   4.670   2.908   2.130  0.4428  1.0587 -0.8891
 3511TIP3    H232093   4.742   2.776   2.111 -1.8170 -0.5923  1.4331
 3512TIP3   OH232094   3.233   2.756   7.206 -0.2200 -0.0487 -0.0589
 3512TIP3    H132095   3.233   2.674   7.255 -2.9684  0.5636  1.1791
 3512TIP3    H232096   3.173   2.741   7.133  1.8686 -0.1389 -1.8329
 3513TIP3   OH232097   0.317   1.958   7.320  0.1924 -1.0855  0.1542
 3513TIP3    H132098   0.247   1.895   7.335  2.2125 -3.6165 -0.3913
 3513TIP3    H232099   0.320   1.968   7.225 -0.2434  0.0909  0.2382
 3514TIP3   OH232100   5.609   4.675   2.367  0.4491 -0.0251 -0.1800
 3514TIP3    H132101   5.604   4.675   2.462 -2.5357 -0.6242 -0.2427
 3514TIP3    H232102   5.644   4.761   2.344 -1.1727  1.1387  1.4366
 3515TIP3   OH232103   2.888   6.164   8.684  0.8420 -0.2512  0.3200
 3515TIP3    H132104   2.848   6.223   8.748  0.7563 -0.2226  0.2411
 3515TIP3    H232105   2.958   6.121   8.732  1.8132  0.9208  0.0199
 3516TIP3   OH232106   0.979   2.578   0.875  0.0135 -0.0457  0.3458
 3516TIP3    H132107   0.887   2.597   0.891 -0.3155 -1.3521  0.1611
 3516TIP3    H232108   0.996   2.614   0.788 -0.3909 -0.0069  0.2802
 3517TIP3   OH232109   3.588   3.000   2.317  0.0764  0.0786  0.3821
 3517TIP3    H132110   3.581   2.905   2.321 -0.8579  0.1166 -0.1952
 3517TIP3    H232111   3.629   3.024   2.400  1.9317 -0.9596 -0.1810
 3518TIP3   OH232112   0.248   5.569   0.932 -0.4292  0.2330 -0.1749
 3518TIP3    H132113   0.340   5.555   0.954  0.0381  1.7965 -1.0181
 3518TIP3    H232114   0.215   5.626   1.001 -0.8652 -0.5289  0.2688
 3519TIP3   OH232115   4.775   4.617   1.757 -0.4776  0.2047 -0.2507
 3519TIP3    H132116   4.713   4.562   1.710  0.4070  1.4633 -3.1977
 3519TIP3    H232117   4.861   4.586   1.727  0.2443  0.2058  1.6796
 3520TIP3   OH232118   5.781   5.989   0.720  0.0181 -0.3976  0.4575
 3520TIP3    H132119   5.701   6.041   0.719  0.8328  0.9054 -1.0681
 3520TIP3    H232120   5.798   5.973   0.813 -1.1149  0.7006  0.8798
 3521TIP3   OH232121   1.070   4.395   2.046 -0.0698  0.5971 -0.0250
 3521TIP3    H132122   1.051   4.474   1.995 -1.9455  0.1233 -0.1101
 3521TIP3    H232123   1.014   4.403   2.124 -2.1574 -1.7401 -1.1575
 3522TIP3   OH232124   0.366   0.461   8.214  0.0559 -0.3128 -0.3062
 3522TIP3    H132125   0.343   0.432   8.126  2.4102  2.4720 -2.0328
 3522TIP3    H232126   0.296   0.522   8.239 -0.1514 -0.4038 -0.6631
 3523TIP3   OH232127   2.390   0.522   1.007  0.1666 -0.4409 -0.3439
 3523TIP3    H132128   2.417   0.518   0.915  3.2666  1.9371  0.2696
 3523TIP3    H232129   2.441   0.594   1.043  0.8359 -2.6837  3.7848
 3524TIP3   OH232130   3.552   0.838   1.677  0.4192  0.1691 -0.1253
 3524TIP3    H132131   3.625   0.857   1.735  1.1061 -0.2701 -0.8223
 3524TIP3    H232132   3.592   0.797   1.600 -0.6750 -1.3985  0.0699
 3525TIP3   OH232133   3.601   1.862   0.672  0.4152  0.5824 -0.5246
 3525TIP3    H132134   3.569   1.951   0.688 -0.8569  0.4293 -1.9563
 3525TIP3    H232135   3.653   1.869   0.592 -0.3419 -0.0648 -1.0985
 3526TIP3   OH232136   0.821   3.058   1.233  0.1081  0.2455  0.2940
 3526TIP3    H132137   0.741   3.056   1.286  0.3405 -0.0380  0.6372
 3526TIP3    H232138   0.885   3.104   1.287  0.5929 -0.7728  0.6170
 3527TIP3   OH232139   1.946   3.519   2.035 -0.2342  0.1061  0.1010
 3527TIP3    H132140   1.870   3.518   2.093  0.0310 -0.1085  0.4482
 3527TIP3    H232141   1.976   3.610   2.036 -0.1228  0.0677  0.4482
 3528TIP3   OH232142   4.156   2.412   0.449 -0.1238 -0.1047  0.2045
 3528TIP3    H132143   4.143   2.497   0.491 -2.1683  0.3317 -1.1385
 3528TIP3    H232144   4.067   2.382   0.428  0.5392 -2.6037  0.6561
 3529TIP3   OH232145   6.838   3.115   0.936 -0.3261 -0.5472  0.1859
 3529TIP3    H132146   6.885   3.108   0.853 -0.7982 -2.6006  0.0225
 3529TIP3    H232147   6.770   3.180   0.920 -0.5781 -1.1011 -1.1522
 3530TIP3   OH232148   1.008   2.920   8.335  0.0501 -0.1031 -0.2782
 3530TIP3    H132149   0.957   2.846   8.305  1.6842 -1.5287  0.3007
 3530TIP3    H232150   1.064   2.942   8.260 -1.3047  1.4245 -0.8984
 3531TIP3   OH232151   0.527   1.311   2.152 -0.4935 -0.1326 -0.1423
 3531TIP3    H132152   0.511   1.367   2.228  1.6583 -0.1180  0.3738
 3531TIP3    H232153   0.574   1.367   2.090 -0.7491 -0.6056 -0.7741
 3532TIP3   OH232154   5.482   0.865   2.799 -0.1110 -0.3368  0.0831
 3532TIP3    H132155   5.472   0.840   2.891  4.6686 -0.7891  0.7421
 3532TIP3    H232156   5.464   0.785   2.750 -1.5409 -0.3946  0.6594
 3533TIP3   OH232157   4.439   3.996   1.381 -0.3621 -0.1718 -0.2921
 3533TIP3    H132158   4.457   3.998   1.287 -0.3922 -1.3868 -0.3438
 3533TIP3    H232159   4.491   4.067   1.417 -0.6098  0.5313 -1.2645
 3534TIP3   OH232160   6.002   4.028   7.778 -0.3613 -0.5773 -0.8504
 3534TIP3    H132161   5.968   3.965   7.842 -1.8048  1.1288  0.1729
 3534TIP3    H232162   5.948   4.016   7.701  0.2615 -1.4823 -1.1616
 3535TIP3   OH232163   6.242   4.879   7.576 -0.0962 -0.1341  0.1338
 3535TIP3    H132164   6.147   4.890   7.587 -0.5131 -1.3013 -1.8005
 3535TIP3    H232165   6.251   4.837   7.491  2.3238  2.2432 -0.8903
 3536TIP3   OH232166   3.145   3.763   0.053 -0.4414  0.0411 -0.1704
 3536TIP3    H132167   3.226   3.733   0.095 -0.8513  1.1341  1.4999
 3536TIP3    H232168   3.174   3.801  -0.030  0.7043 -0.1094  0.1396
 3537TIP3   OH232169   1.955   2.379   7.783  0.4801  0.0427 -0.3402
 3537TIP3    H132170   2.019   2.320   7.823 -1.4503 -1.2943  0.9112
 3537TIP3    H232171   1.908   2.323   7.721 -0.8884  0.4302  0.3279
 3538TIP3   OH232172   5.031   5.185   1.556 -0.4569 -0.4061 -0.0719
 3538TIP3    H132173   4.979   5.247   1.607 -0.9817 -0.5207 -0.4619
 3538TIP3    H232174   5.039   5.108   1.613  1.6542  0.6122  1.1299
 3539TIP3   OH232175   4.920   6.529   3.154  0.2912  0.5967  0.8595
 3539TIP3    H132176   4.994   6.507   3.098  0.9788  0.8435  1.6548
 3539TIP3    H232177   4.864   6.584   3.099 -0.0907 -0.8549 -0.2570
 3540TIP3   OH232178   0.541   2.995   2.422  0.0344  0.1049 -0.0297
 3540TIP3    H132179   0.506   2.939   2.353 -1.1313  0.4298  0.2677
 3540TIP3    H232180   0.489   2.972   2.500 -0.6611  1.7533  0.0437
 3541TIP3   OH232181   4.146   1.034   8.449 -1.0719 -0.2391  0.2262
 3541TIP3    H132182   4.156   1.129   8.450 -0.3881 -0.2581 -1.4676
 3541TIP3    H232183   4.152   1.010   8.357 -0.4687 -2.0160  0.6886
 3542TIP3   OH232184   4.943   3.442   1.220  0.2529 -0.2456  0.0088
 3542TIP3    H132185   5.005   3.428   1.148 -1.5405  2.1129 -2.2076
 3542TIP3    H232186   4.858   3.419   1.183 -0.5199 -1.0934  2.1669
 3543TIP3   OH232187   0.974   1.545   7.809  0.0406 -0.1663  0.0021
 3543TIP3    H132188   0.985   1.523   7.902 -0.6105  0.0886  0.1426
 3543TIP3    H232189   0.880   1.552   7.797  0.1754  1.3969 -0.3050
 3544TIP3   OH232190   4.512   0.351   7.237  0.1563 -0.2009  0.6107
 3544TIP3    H132191   4.603   0.348   7.205  0.3588  0.3367  1.1199
 3544TIP3    H232192   4.482   0.439   7.214 -0.0797 -0.2135  0.8667
 3545TIP3   OH232193   6.421   2.801   7.694 -0.3822  0.1704  0.0889
 3545TIP3    H132194   6.505   2.820   7.735 -0.2549 -0.4509  0.1326
 3545TIP3    H232195   6.385   2.886   7.671  0.4791  0.4248 -0.3720
 3546TIP3   OH232196   6.093   6.692   8.198  0.0412 -0.5886 -0.0456
 3546TIP3    H132197   6.068   6.772   8.152  1.0101  0.1163  0.5922
 3546TIP3    H232198   6.150   6.646   8.137 -0.6703 -0.8925 -0.4875
 3547TIP3   OH232199   3.582   2.017   7.908  0.6071  0.3773  0.2588
 3547TIP3    H132200   3.538   2.013   7.823 -2.0200  2.3815  1.3673
 3547TIP3    H232201   3.553   1.938   7.953 -0.4777  0.7721  0.3019
 3548TIP3   OH232202   3.819   0.253   0.834 -0.4121  0.2329 -0.1405
 3548TIP3    H132203   3.731   0.289   0.819 -0.0527  0.4682 -1.8018
 3548TIP3    H232204   3.802   0.172   0.883 -1.3339  1.6757  2.1014
 3549TIP3   OH232205   3.558   6.252   1.173 -0.4689 -0.0084  0.6983
 3549TIP3    H132206   3.544   6.294   1.088  0.1505  0.1644  0.6761
 3549TIP3    H232207   3.652   6.232   1.175 -1.0098 -3.3647 -0.2228
 3550TIP3   OH232208   4.040   4.895   2.380  0.8428 -0.6074  0.1427
 3550TIP3    H132209   4.115   4.936   2.422  0.7409 -0.8786  0.5903
 3550TIP3    H232210   4.023   4.950   2.303 -0.2208  1.0911  1.5122
 3551TIP3   OH232211   3.661   2.761   0.963 -0.3439  0.6167  0.1283
 3551TIP3    H132212   3.708   2.829   0.914 -1.1664  1.1415  0.0517
 3551TIP3    H232213   3.695   2.769   1.053  1.7443 -0.8634 -0.4398
 3552TIP3   OH232214   0.073   2.936   1.324 -0.1661  0.0561 -0.6919
 3552TIP3    H132215   0.058   3.022   1.285 -1.0895 -0.2134 -0.9325
 3552TIP3    H232216   0.049   2.947   1.416 -2.7009 -0.5538 -1.2056
 3553TIP3   OH232217   2.652   3.875   0.753 -0.0827 -0.1310 -0.6865
 3553TIP3    H132218   2.584   3.818   0.789 -0.2258 -0.2176 -1.0768
 3553TIP3    H232219   2.735   3.832   0.775 -0.1644 -0.1344 -0.3905
 3554TIP3   OH232220   5.600   3.586   2.734 -1.0865 -0.3618 -0.0455
 3554TIP3    H132221   5.657   3.620   2.665  1.1142 -0.4957  1.5673
 3554TIP3    H232222   5.588   3.660   2.793 -2.4203 -0.4145 -0.2301
 3555TIP3   OH232223   0.421   0.718   7.869  0.5487 -0.0257 -0.0559
 3555TIP3    H132224   0.490   0.770   7.827 -0.0867  0.6387 -0.3102
 3555TIP3    H232225   0.376   0.675   7.796  0.4082 -0.0926  0.0697
 3556TIP3   OH232226   0.973   2.998   0.311  0.2645 -0.4597 -0.1390
 3556TIP3    H132227   0.878   2.997   0.298 -0.3425  2.5381  2.6440
 3556TIP3    H232228   1.000   3.085   0.281  1.7969 -0.5548  0.8431
 3557TIP3   OH232229   5.643   6.220   8.257 -0.1796 -0.2840  0.2131
 3557TIP3    H132230   5.675   6.153   8.317 -0.6171  1.0908  2.0877
 3557TIP3    H232231   5.560   6.248   8.296 -0.5019  0.6283 -1.0888
 3558TIP3   OH232232   6.300   2.987   1.013  0.0503  0.2358 -0.3557
 3558TIP3    H132233   6.249   2.906   1.017 -0.6631  0.6699 -0.4552
 3558TIP3    H232234   6.383   2.961   0.974 -0.5655 -0.2737 -1.3969
 3559TIP3   OH232235   6.078   1.374   1.024 -0.4603 -0.2603 -0.0167
 3559TIP3    H132236   6.145   1.414   1.078 -2.3527  2.5681  0.4453
 3559TIP3    H232237   6.001   1.369   1.080 -0.9927 -2.4885 -0.8286
 3560TIP3   OH232238   3.365   4.744   8.236 -1.0441 -0.1532 -0.4397
 3560TIP3    H132239   3.417   4.802   8.180 -0.1715  0.0176  0.5185
 3560TIP3    H232240   3.366   4.660   8.191 -1.3751  0.2808 -1.2827
 3561TIP3   OH232241   1.869   0.493   7.813 -0.0797 -0.1039 -0.3495
 3561TIP3    H132242   1.884   0.514   7.721  1.6408 -0.0161 -0.0817
 3561TIP3    H232243   1.821   0.410   7.811  0.3744 -0.3616 -1.3287
 3562TIP3   OH232244   1.118   2.854   0.915 -0.6895  0.1564  0.6574
 3562TIP3    H132245   1.134   2.772   0.868  0.7775  0.0347  1.3124
 3562TIP3    H232246   1.056   2.830   0.984 -2.2254  0.1658 -0.6674
 3563TIP3   OH232247   5.860   0.304   0.227 -0.0629  0.3383 -0.0399
 3563TIP3    H132248   5.931   0.329   0.286 -1.0503  0.4697  1.1447
 3563TIP3    H232249   5.782   0.306   0.282 -1.1170  1.0352 -1.4928
 3564TIP3   OH232250   0.656   3.781   3.140  0.8217 -0.6150 -0.5212
 3564TIP3    H132251   0.564   3.789   3.166  0.6847  0.5703 -1.2970
 3564TIP3    H232252   0.700   3.750   3.219 -0.0362  0.0904  0.2624
 3565TIP3   OH232253   0.047   5.477   0.261  0.0458 -0.2223  0.4204
 3565TIP3    H132254   0.098   5.450   0.337  3.9839  3.2469 -0.5962
 3565TIP3    H232255   0.107   5.466   0.187 -1.1471  2.7219 -1.1365
 3566TIP3   OH232256   2.079   4.407   0.394 -0.2806 -0.6040 -0.1802
 3566TIP3    H132257   2.163   4.414   0.349  0.1756 -2.8302  0.1902
 3566TIP3    H232258   2.100   4.422   0.486 -0.6965  0.9765 -0.3188
 3567TIP3   OH232259   2.032   6.296   8.764 -0.4102  0.2031 -0.6280
 3567TIP3    H132260   1.988   6.376   8.793 -1.3767 -0.7284  0.5793
 3567TIP3    H232261   1.963   6.244   8.724 -0.2312 -0.8761  0.4251
 3568TIP3   OH232262   4.644   4.850   8.389  0.0011  0.1828 -0.1023
 3568TIP3    H132263   4.664   4.882   8.301  1.1958  1.1678  0.4975
 3568TIP3    H232264   4.662   4.756   8.384  0.1722  0.2446 -0.8638
 3569TIP3   OH232265   4.825   5.540   2.661 -0.0318  0.0763  0.1567
 3569TIP3    H132266   4.807   5.527   2.754  1.5790  1.9995  0.8056
 3569TIP3    H232267   4.889   5.472   2.640 -1.0514 -0.9230  0.1981
 3570TIP3   OH232268   2.125   1.193   0.637  0.6969 -0.0720  0.1933
 3570TIP3    H132269   2.168   1.111   0.616 -0.3084 -0.4289 -0.5646
 3570TIP3    H232270   2.146   1.251   0.564  0.0227 -0.2116 -0.1255
 3571TIP3   OH232271   3.829   2.425   2.249 -0.0023  0.1241 -0.2198
 3571TIP3    H132272   3.884   2.460   2.179 -0.5994  1.4064 -0.0847
 3571TIP3    H232273   3.836   2.330   2.241  0.8208  0.2633 -1.3066
 3572TIP3   OH232274   4.715   3.654   8.574  0.2595 -0.5116 -0.3030
 3572TIP3    H132275   4.630   3.615   8.555 -0.0504  0.5813 -1.2292
 3572TIP3    H232276   4.779   3.591   8.540 -0.2511  0.7504 -4.0211
 3573TIP3   OH232277   2.957   4.078   1.194  0.5056  0.2228  0.2350
 3573TIP3    H132278   2.888   4.052   1.134  1.8250 -1.5367 -0.5846
 3573TIP3    H232279   2.926   4.049   1.280 -0.1549  0.2630  0.0160
 3574TIP3   OH232280   0.236   6.190   0.423 -0.0809  0.3452 -0.1432
 3574TIP3    H132281   0.319   6.145   0.439  0.8260  1.8698 -0.3429
 3574TIP3    H232282   0.244   6.225   0.335 -1.4213 -0.4402 -0.5996
 3575TIP3   OH232283   5.216   2.249   2.600  0.0468 -0.6034 -0.6307
 3575TIP3    H132284   5.186   2.339   2.615 -1.3272 -1.0728 -0.4561
 3575TIP3    H232285   5.138   2.202   2.570  0.6657 -1.8311 -0.3735
 3576TIP3   OH232286   2.952   2.922   0.332 -0.1516 -0.0985  0.2152
 3576TIP3    H132287   2.965   2.907   0.426  1.5989 -0.0642  0.0218
 3576TIP3    H232288   3.041   2.918   0.296 -0.9369 -1.7947 -1.6893
 3577TIP3   OH232289   4.952   4.176   8.329  0.6499  0.3549  0.2659
 3577TIP3    H132290   4.935   4.143   8.241 -1.8604 -0.5120  0.9847
 3577TIP3    H232291   4.889   4.130   8.384 -0.5358  3.6629  1.9211
 3578TIP3   OH232292   4.933   5.297   7.731 -0.4229  0.0434  0.0502
 3578TIP3    H132293   4.887   5.238   7.672  0.2749  0.7288 -1.2054
 3578TIP3    H232294   5.009   5.247   7.761  1.1611  0.8238 -2.4008
 3579TIP3   OH232295   6.647   1.928   7.533  0.0287 -0.4863  0.2364
 3579TIP3    H132296   6.554   1.935   7.510  0.1776 -0.6722 -0.4426
 3579TIP3    H232297   6.647   1.884   7.618 -0.4921 -0.9037  0.0290
 3580TIP3   OH232298   1.579   1.489   0.130 -0.0140 -0.6308  0.2825
 3580TIP3    H132299   1.552   1.519   0.044  0.4182  1.0298  0.6856
 3580TIP3    H232300   1.639   1.416   0.113 -0.4929 -0.7846 -0.7830
 3581TIP3   OH232301   4.763   4.149   0.825  0.2622 -0.5252  0.1527
 3581TIP3    H132302   4.774   4.061   0.861 -0.5054 -0.4994  0.4491
 3581TIP3    H232303   4.781   4.138   0.731 -1.5849 -1.3726 -0.1439
 3582TIP3   OH232304   4.890   5.126   3.054  0.2427  0.6799  0.0261
 3582TIP3    H132305   4.960   5.141   2.990  1.3218  0.5075  1.1213
 3582TIP3    H232306   4.935   5.089   3.130 -0.9557  1.1609  1.0037
 3583TIP3   OH232307   2.176   0.897   3.571  0.2351  0.5594 -0.6652
 3583TIP3    H132308   2.143   0.933   3.653  0.0645  0.4712 -0.6964
 3583TIP3    H232309   2.190   0.974   3.516  0.7047  0.6524 -0.4264
 3584TIP3   OH232310   2.200   3.319   7.928  0.3071 -0.0240  0.1589
 3584TIP3    H132311   2.129   3.381   7.913 -0.2596 -1.0065 -1.4933
 3584TIP3    H232312   2.168   3.262   7.998  0.0406  0.3613  0.3547
 3585TIP3   OH232313   0.412   5.285   0.934 -0.2421 -0.1222 -0.7693
 3585TIP3    H132314   0.429   5.370   0.894 -0.5731 -0.1055 -0.8847
 3585TIP3    H232315   0.388   5.305   1.025 -0.1106 -0.1080 -0.7384
 3586TIP3   OH232316   0.353   5.517   1.683  0.1620 -0.0084 -0.2244
 3586TIP3    H132317   0.274   5.509   1.631 -0.2644 -0.3163  0.4491
 3586TIP3    H232318   0.360   5.432   1.729  1.1740 -0.1911 -0.6861
 3587TIP3   OH232319   5.505   4.779   6.995  0.2429 -0.3761  0.0485
 3587TIP3    H132320   5.434   4.722   6.965  0.4873 -0.1825 -0.9671
 3587TIP3    H232321   5.469   4.868   6.987  0.7569 -0.2446 -0.9831
 3588TIP3   OH232322   2.235   2.996   0.219 -0.0973 -0.1422 -0.4977
 3588TIP3    H132323   2.232   2.912   0.265 -1.2360  0.6179  0.9048
 3588TIP3    H232324   2.329   3.013   0.208  0.2577 -0.3081  1.7256
 3589TIP3   OH232325   4.301   3.017   7.497 -0.2760 -1.0679 -0.2303
 3589TIP3    H132326   4.238   2.976   7.439 -0.0469  0.9169 -2.0030
 3589TIP3    H232327   4.379   3.030   7.444  0.7642 -1.2127  1.1925
 3590TIP3   OH232328   0.682   4.835   2.122 -0.1753 -0.6665 -0.6435
 3590TIP3    H132329   0.623   4.815   2.194 -0.0904  0.2955 -0.2973
 3590TIP3    H232330   0.718   4.750   2.096  0.9066 -0.9004  1.3971
 3591TIP3   OH232331   4.912   0.879   1.350 -0.0455 -0.0882  0.0931
 3591TIP3    H132332   4.839   0.838   1.305 -0.3931  2.9460 -2.4730
 3591TIP3    H232333   4.989   0.854   1.300 -0.2274  1.9341 -1.3158
 3592TIP3   OH232334   5.520   0.450   0.101 -0.6987  0.3573  0.4392
 3592TIP3    H132335   5.459   0.423   0.169 -1.9338 -0.5739 -0.9706
 3592TIP3    H232336   5.597   0.395   0.113 -0.6512  0.6320  1.4406
 3593TIP3   OH232337   0.442   6.143   1.279 -0.0480  0.3674 -0.3979
 3593TIP3    H132338   0.474   6.225   1.316  2.1454 -0.2769 -0.7108
 3593TIP3    H232339   0.420   6.165   1.188  0.0039  0.7236 -0.3274
 3594TIP3   OH232340   6.232   1.426   3.640 -0.1298  0.2792  0.4275
 3594TIP3    H132341   6.183   1.471   3.709  0.3298  1.0490  0.2669
 3594TIP3    H232342   6.314   1.400   3.683 -0.2103 -0.0116  0.4030
 3595TIP3   OH232343   5.542   1.215   8.096  0.4988  0.1361 -0.2447
 3595TIP3    H132344   5.513   1.200   8.006 -1.0319 -0.4947  0.3171
 3595TIP3    H232345   5.560   1.128   8.131  0.9240  0.3609  0.1148
 3596TIP3   OH232346   4.414   0.273   1.729  0.0264 -0.1588 -0.3061
 3596TIP3    H132347   4.352   0.217   1.684 -0.6658  2.8603 -3.5653
 3596TIP3    H232348   4.360   0.327   1.788 -0.1605  0.7166 -1.2442
 3597TIP3   OH232349   3.345   4.653   0.007 -0.4751 -0.3278  0.0522
 3597TIP3    H132350   3.378   4.650  -0.083  0.1639  1.9468  0.1314
 3597TIP3    H232351   3.421   4.680   0.059 -1.2784  0.2089  0.9800
 3598TIP3   OH232352   0.107   5.613   2.743  0.8212 -0.6731  0.1590
 3598TIP3    H132353   0.015   5.593   2.764  0.7005  0.8504  1.2270
 3598TIP3    H232354   0.106   5.628   2.648 -0.1850 -0.0323  0.2458
 3599TIP3   OH232355   2.393   1.705   7.911 -0.3582  0.2366 -0.3356
 3599TIP3    H132356   2.359   1.704   7.821  0.1117 -0.7736 -0.5172
 3599TIP3    H232357   2.318   1.731   7.965 -0.8214  0.1951 -0.9515
 3600TIP3   OH232358   0.367   4.387   1.395 -0.1255 -1.3171  0.3636
 3600TIP3    H132359   0.347   4.395   1.488  0.1584  0.5526  0.3013
 3600TIP3    H232360   0.318   4.458   1.354  1.3838 -0.8121 -0.6423
 3601TIP3   OH232361   0.830   2.253   0.773 -0.9257 -0.3364  0.4472
 3601TIP3    H132362   0.749   2.272   0.821 -0.6810 -0.2767  0.8413
 3601TIP3    H232363   0.852   2.164   0.799 -1.2998 -0.6503 -0.2915
 3602TIP3   OH232364   2.275   3.857   1.928 -0.8003 -0.2251 -0.4051
 3602TIP3    H132365   2.227   3.911   1.866 -1.3853  0.5610  0.7045
 3602TIP3    H232366   2.366   3.885   1.920 -1.2985  2.2457  1.3657
 3603TIP3   OH232367   3.125   5.298   0.798 -0.2088  0.3245  0.9774
 3603TIP3    H132368   3.126   5.332   0.709  1.5546 -2.4964 -0.2321
 3603TIP3    H232369   3.178   5.360   0.848 -0.8384  1.7037 -0.0032
 3604TIP3   OH232370   5.237   1.816   1.633  0.0366 -0.1115  0.4489
 3604TIP3    H132371   5.261   1.858   1.716  0.2796 -0.8597  0.7719
 3604TIP3    H232372   5.141   1.820   1.630  0.0929  1.4067 -0.0457
 3605TIP3   OH232373   5.858   1.323   1.208  0.4362  0.0725 -0.0466
 3605TIP3    H132374   5.848   1.345   1.301  0.3849 -0.5530  0.1030
 3605TIP3    H232375   5.770   1.333   1.172  0.1283 -1.1604  0.3136
 3606TIP3   OH232376   0.184   1.061   0.478 -0.1343 -0.4746  0.5766
 3606TIP3    H132377   0.128   1.033   0.550  1.8200  1.8422  3.2436
 3606TIP3    H232378   0.266   1.014   0.493 -0.0626 -0.8607 -0.9127
 3607TIP3   OH232379   1.177   0.870   7.369 -0.5403  0.2820 -0.7636
 3607TIP3    H132380   1.266   0.903   7.374 -0.3975  0.3835 -3.0747
 3607TIP3    H232381   1.122   0.947   7.383 -0.2125  0.9309 -2.7856
 3608TIP3   OH232382   0.281   3.176   1.903  0.0456  0.1365 -0.3049
 3608TIP3    H132383   0.333   3.161   1.824 -1.5283 -0.8942 -1.2173
 3608TIP3    H232384   0.317   3.256   1.941  2.5110 -0.7358 -0.6393
 3609TIP3   OH232385   5.539   4.472   0.467  0.4435 -0.2503 -0.3990
 3609TIP3    H132386   5.483   4.547   0.446 -0.6251 -0.9517 -0.1910
 3609TIP3    H232387   5.504   4.401   0.413  1.1310 -0.7185 -0.2398
 3610TIP3   OH232388   2.729   0.535   0.475 -0.2583 -0.7124 -0.0158
 3610TIP3    H132389   2.818   0.504   0.459  0.2969  1.2905 -1.2831
 3610TIP3    H232390   2.737   0.631   0.477 -2.1318 -0.5318  1.6128
 3611TIP3   OH232391   6.790   6.462   1.579  0.8858  0.0378  0.1086
 3611TIP3    H132392   6.809   6.376   1.617  2.2997 -0.1041 -0.8256
 3611TIP3    H232393   6.739   6.507   1.646 -0.7227 -1.8436  0.2734
 3612TIP3   OH232394   5.190   2.293   2.218 -0.6102  0.2495  0.1775
 3612TIP3    H132395   5.257   2.228   2.238  1.9376  3.1668  2.0338
 3612TIP3    H232396   5.136   2.296   2.298  0.0923  1.2465  0.6354
 3613TIP3   OH232397   0.536   4.145   7.012 -0.6442  0.3203 -0.1453
 3613TIP3    H132398   0.616   4.187   6.980 -0.3993  1.0856  1.3997
 3613TIP3    H232399   0.514   4.081   6.943  0.4272  1.1505 -1.3139
 3614TIP3   OH232400   2.454   0.727   0.065  0.2523  0.7635 -0.3245
 3614TIP3    H132401   2.520   0.716   0.134 -1.2345  1.1024  1.2212
 3614TIP3    H232402   2.407   0.643   0.064  0.4844  0.6407 -1.1855
 3615TIP3   OH232403   1.517   6.047   1.004 -0.1033  0.5248  0.0488
 3615TIP3    H132404   1.497   6.085   1.090 -0.2783  1.7205 -0.4943
 3615TIP3    H232405   1.566   6.116   0.959  0.2780 -0.2179 -0.6974
 3616TIP3   OH232406   4.408   2.484   0.079  0.5022 -0.5255 -0.0576
 3616TIP3    H132407   4.372   2.457  -0.006  2.6223  0.7187 -1.4551
 3616TIP3    H232408   4.426   2.402   0.125  0.7495 -1.2989 -1.4750
 3617TIP3   OH232409   6.450   3.670   7.475 -0.3828 -0.3192  0.3004
 3617TIP3    H132410   6.538   3.634   7.478 -0.3016 -0.0478  1.8831
 3617TIP3    H232411   6.447   3.720   7.393  0.7527 -0.7475 -0.0108
 3618TIP3   OH232412   4.812   2.500   8.463  0.0998  0.4824  0.2629
 3618TIP3    H132413   4.786   2.410   8.481 -1.2361  1.1574  1.9771
 3618TIP3    H232414   4.896   2.510   8.507 -0.4149  0.4606  1.2712
 3619TIP3   OH232415   3.934   2.177   8.433 -0.1717 -0.5268 -0.1680
 3619TIP3    H132416   3.954   2.130   8.514 -0.7110  1.1451  0.9760
 3619TIP3    H232417   3.860   2.233   8.455 -0.9878 -0.7553 -2.1126
 3620TIP3   OH232418   1.591   4.022   0.117  0.0140 -0.1668  0.0472
 3620TIP3    H132419   1.552   3.966   0.051 -0.7462 -0.6885  0.9135
 3620TIP3    H232420   1.542   4.104   0.112 -1.2620 -0.8285  1.1496
 3621TIP3   OH232421   0.832   4.353   1.522 -0.3941 -0.5885 -0.8660
 3621TIP3    H132422   0.834   4.440   1.562  0.1469 -0.4744 -1.1313
 3621TIP3    H232423   0.764   4.359   1.455 -2.0863 -1.1051  0.7310
 3622TIP3   OH232424   5.443   1.609   1.346 -0.0889  0.1027 -0.5424
 3622TIP3    H132425   5.359   1.599   1.391 -0.8138 -0.3517 -1.9297
 3622TIP3    H232426   5.430   1.681   1.285  0.8083  0.5758 -0.2005
 3623TIP3   OH232427   0.655   3.642   1.169  0.5695  0.0419  0.7658
 3623TIP3    H132428   0.573   3.684   1.193  0.5243 -0.2758  1.1917
 3623TIP3    H232429   0.644   3.614   1.079  0.0100 -0.4772  0.9925
 3624TIP3   OH232430   4.387   3.202   0.086  0.2697 -0.4809  0.4567
 3624TIP3    H132431   4.298   3.222   0.116  0.8206 -0.1308  1.9023
 3624TIP3    H232432   4.382   3.112   0.055 -0.5223 -0.5558  0.7725
 3625TIP3   OH232433   3.477   5.127   7.534 -0.0618 -0.9446 -0.0399
 3625TIP3    H132434   3.461   5.054   7.594 -1.5083 -0.7267 -0.1097
 3625TIP3    H232435   3.410   5.191   7.557  0.7959  0.1051 -0.3984
 3626TIP3   OH232436   4.433   1.267   0.451  0.1595 -0.0005 -0.7576
 3626TIP3    H132437   4.433   1.199   0.384  0.9920 -2.4147  1.5516
 3626TIP3    H232438   4.342   1.272   0.481  0.5441 -2.3485  1.0804
 3627TIP3   OH232439   4.124   6.463   0.410  0.1220 -0.7230  0.1999
 3627TIP3    H132440   4.093   6.540   0.363 -0.0887 -2.3953 -2.6219
 3627TIP3    H232441   4.046   6.409   0.422  0.6764 -1.6853 -0.3516
 3628TIP3   OH232442   2.596   5.154   0.145 -0.3329 -0.4325  0.1349
 3628TIP3    H132443   2.638   5.177   0.228  0.5640  0.4141 -0.5301
 3628TIP3    H232444   2.524   5.095   0.170 -0.3126  0.0972  1.5416
 3629TIP3   OH232445   3.215   4.324   7.372 -0.2380  0.2343  0.0167
 3629TIP3    H132446   3.169   4.278   7.302  0.3979  0.2735 -0.4429
 3629TIP3    H232447   3.164   4.404   7.387 -1.0562 -0.3605  0.4571
 3630TIP3   OH232448   5.928   4.958   0.255 -0.3511 -0.0814 -0.1038
 3630TIP3    H132449   5.982   4.942   0.333  0.0986  1.3167 -0.1047
 3630TIP3    H232450   5.915   4.871   0.217  0.1519 -0.6869  1.0487
 3631TIP3   OH232451   2.627   3.537   8.469 -0.0278 -0.4349 -0.0088
 3631TIP3    H132452   2.594   3.571   8.552  0.0968 -0.8138  0.1960
 3631TIP3    H232453   2.554   3.547   8.408 -0.4763 -1.1443  0.4086
 3632TIP3   OH232454   2.985   6.402   3.046  0.3322 -0.4458  0.3178
 3632TIP3    H132455   3.069   6.439   3.019  0.9979 -1.2384  1.2338
 3632TIP3    H232456   2.920   6.463   3.013  1.3696  1.4475  1.6035
 3633TIP3   OH232457   3.141   6.436   1.323 -0.1496  0.3800 -0.4415
 3633TIP3    H132458   3.099   6.409   1.242 -0.1046 -0.7413 -0.1015
 3633TIP3    H232459   3.071   6.475   1.375  0.0059  2.0086 -1.3815
 3634TIP3   OH232460   0.532   5.948   7.804 -0.3230  0.2264  0.4404
 3634TIP3    H132461   0.436   5.943   7.802 -0.3299  0.2621 -1.7262
 3634TIP3    H232462   0.560   5.914   7.719  1.5357  1.0703  0.6568
 3635TIP3   OH232463   2.083   2.121   0.304 -0.1678 -0.1658 -0.3538
 3635TIP3    H132464   2.012   2.131   0.240  0.3776 -1.8466 -1.2785
 3635TIP3    H232465   2.126   2.040   0.279  2.0304  0.7480  0.2578
 3636TIP3   OH232466   4.406   5.326   8.641 -0.7289  0.0730 -0.0492
 3636TIP3    H132467   4.493   5.352   8.611  0.4886 -2.4275  0.9706
 3636TIP3    H232468   4.366   5.285   8.564  0.3029 -1.5904  0.2459
 3637TIP3   OH232469   0.445   0.992   8.268 -0.1084 -0.4204 -0.4613
 3637TIP3    H132470   0.380   0.975   8.335  1.2706  1.2407  1.4293
 3637TIP3    H232471   0.516   0.930   8.286  0.7356  0.7326  0.3804
 3638TIP3   OH232472   3.930   1.306   1.619 -0.9101 -0.2024  0.1380
 3638TIP3    H132473   3.835   1.315   1.625 -0.8964  0.7903 -0.8695
 3638TIP3    H232474   3.954   1.358   1.543  0.4235 -0.6310  0.2501
 3639TIP3   OH232475   1.018   6.047   8.247  0.2861 -0.1830 -0.0177
 3639TIP3    H132476   1.059   6.042   8.334  0.2200  0.4304  0.0531
 3639TIP3    H232477   1.012   6.141   8.229 -1.5497 -0.2343  0.2009
 3640TIP3   OH232478   5.663   6.654   2.088  0.3252 -0.3772  0.4948
 3640TIP3    H132479   5.593   6.682   2.029 -2.0068 -4.8446  0.7250
 3640TIP3    H232480   5.657   6.713   2.163 -2.2075  0.3503 -0.1817
 3641TIP3   OH232481   4.797   2.505   8.182  0.6176 -0.8687 -0.6266
 3641TIP3    H132482   4.839   2.505   8.268 -1.0028  1.4830  0.2577
 3641TIP3    H232483   4.814   2.592   8.146 -2.1607 -0.3254 -0.8435
 3642TIP3   OH232484   1.252   2.497   1.791  0.0464 -0.5557  0.5548
 3642TIP3    H132485   1.176   2.524   1.843 -0.0397  0.2644  0.0167
 3642TIP3    H232486   1.319   2.478   1.856  0.2983  1.5387  0.9733
 3643TIP3   OH232487   0.313   0.776   0.905  0.6092  0.2713 -0.0325
 3643TIP3    H132488   0.388   0.820   0.945  1.4900 -0.9290 -0.3064
 3643TIP3    H232489   0.342   0.685   0.894 -0.6184 -0.0426 -0.8375
 3644TIP3   OH232490   1.476   0.224   1.858 -0.1311  0.1087  0.7031
 3644TIP3    H132491   1.525   0.290   1.809 -0.7746 -0.0790 -0.2303
 3644TIP3    H232492   1.423   0.274   1.920 -1.3063  0.5795 -0.6124
 3645TIP3   OH232493   1.150   3.225   8.200 -0.4703 -0.2726 -0.5108
 3645TIP3    H132494   1.090   3.230   8.125 -0.4476 -0.5909 -0.5507
 3645TIP3    H232495   1.109   3.281   8.267 -1.1423 -0.9840 -0.3104
 3646TIP3   OH232496   3.651   1.558   7.812  0.0643 -0.0503 -0.1836
 3646TIP3    H132497   3.711   1.519   7.876  0.4481 -1.0500 -1.1137
 3646TIP3    H232498   3.675   1.516   7.729  0.6461  2.3410 -1.3124
 3647TIP3   OH232499   5.056   1.684   2.188  0.3122  0.1907  0.0260
 3647TIP3    H132500   4.966   1.672   2.158 -0.1953  0.3643  1.3880
 3647TIP3    H232501   5.102   1.606   2.158 -0.2870  0.1071 -0.6936
 3648TIP3   OH232502   3.010   6.689   0.382  0.0527 -0.1686  0.2783
 3648TIP3    H132503   3.063   6.680   0.461 -1.0138  1.4536  1.2291
 3648TIP3    H232504   3.071   6.722   0.316  1.0216 -1.8132  0.2806
 3649TIP3   OH232505   0.204   4.424   1.041 -0.6167  0.1622  0.8187
 3649TIP3    H132506   0.293   4.406   1.008 -1.1251 -0.2896 -0.3612
 3649TIP3    H232507   0.214   4.505   1.091  0.4050  0.3225  0.4005
 3650TIP3   OH232508   1.532   0.634   0.484  0.2264  0.1333  0.1443
 3650TIP3    H132509   1.512   0.547   0.517 -0.7519  0.0802 -0.5432
 3650TIP3    H232510   1.568   0.681   0.559 -0.6696 -0.4036  0.9358
 3651TIP3   OH232511   1.081   2.383   8.197  0.0409 -0.2330  0.0959
 3651TIP3    H132512   1.049   2.354   8.112 -0.0095  0.2187 -0.0428
 3651TIP3    H232513   1.176   2.387   8.187 -0.0827  3.6290 -1.2458
 3652TIP3   OH232514   6.780   3.463   8.151  0.1050  0.2620  0.5851
 3652TIP3    H132515   6.818   3.547   8.124  1.1996 -0.1796  0.6837
 3652TIP3    H232516   6.711   3.446   8.087 -1.9698  2.4869  2.0716
 3653TIP3   OH232517   5.286   3.371   7.690  0.0296  0.0990 -0.4802
 3653TIP3    H132518   5.255   3.408   7.608 -3.7291  1.8163  1.4882
 3653TIP3    H232519   5.293   3.277   7.673 -1.1120  0.3502 -2.6176
 3654TIP3   OH232520   5.269   5.821   7.679 -0.4415 -0.3792 -0.1481
 3654TIP3    H132521   5.324   5.743   7.679 -1.2989 -1.0031 -0.4901
 3654TIP3    H232522   5.305   5.876   7.749  0.6517 -0.7295 -0.4235
 3655TIP3   OH232523   5.622   2.502   1.875 -0.4287  0.0494  0.2545
 3655TIP3    H132524   5.579   2.581   1.909  1.0059  0.9690 -0.0074
 3655TIP3    H232525   5.714   2.525   1.869  0.2279 -2.0506  1.3016
 3656TIP3   OH232526   4.783   3.798   2.256 -0.4732  0.7676  0.1667
 3656TIP3    H132527   4.800   3.744   2.333  1.7384  2.2665  0.8393
 3656TIP3    H232528   4.689   3.792   2.243 -0.8130 -0.1676  2.5179
 3657TIP3   OH232529   0.264   0.946   2.863 -0.8013  0.3489  0.1068
 3657TIP3    H132530   0.176   0.909   2.869  0.3579 -2.4946  1.5966
 3657TIP3    H232531   0.321   0.869   2.856  1.7580  1.9295  1.9691
 3658TIP3   OH232532   1.323   4.397   7.809 -0.0879  0.0973  0.5899
 3658TIP3    H132533   1.318   4.382   7.904  1.8354  0.3726  0.7741
 3658TIP3    H232534   1.393   4.339   7.780  0.0133  0.7584 -0.5141
 3659TIP3   OH232535   5.012   0.621   7.810  0.0016 -0.2932 -0.3941
 3659TIP3    H132536   5.105   0.633   7.790  0.0931  0.1286  0.2791
 3659TIP3    H232537   4.973   0.706   7.795  0.1350  0.1518  1.5249
 3660TIP3   OH232538   4.727   6.331   0.711 -0.2024  0.0021 -0.4985
 3660TIP3    H132539   4.658   6.334   0.777  0.7446  2.2317  0.4829
 3660TIP3    H232540   4.808   6.346   0.760  0.8835 -1.3472 -1.7839
 3661TIP3   OH232541   3.096   1.122   1.227  0.0121  0.0364  0.3245
 3661TIP3    H132542   3.021   1.095   1.175 -0.8607  2.9144 -0.1045
 3661TIP3    H232543   3.070   1.104   1.318  0.0111 -1.5553  0.0385
 3662TIP3   OH232544   1.910   0.088   0.936  0.4006 -0.6410  0.3490
 3662TIP3    H132545   1.941   0.004   0.903  2.5566 -0.2163  1.1229
 3662TIP3    H232546   1.905   0.077   1.030 -0.8389 -0.3618  0.3234
 3663TIP3   OH232547   1.861   2.971   0.336 -0.3444  0.2511 -0.3172
 3663TIP3    H132548   1.770   2.992   0.315 -0.8071 -1.4738 -0.2545
 3663TIP3    H232549   1.910   3.049   0.312 -1.9765  1.6744  0.7609
 3664TIP3   OH232550   0.389   4.278   2.501 -0.2165 -0.1556 -0.5849
 3664TIP3    H132551   0.360   4.197   2.461 -0.8674 -0.8222  1.1553
 3664TIP3    H232552   0.452   4.251   2.568  1.0266  0.9391 -1.2421
 3665TIP3   OH232553   0.225   0.407   1.717 -0.0532 -0.8703 -0.2970
 3665TIP3    H132554   0.275   0.387   1.638  1.2866 -0.9805  0.5446
 3665TIP3    H232555   0.224   0.326   1.767  0.4361 -0.4105  0.4857
 3666TIP3   OH232556   0.243   1.667   0.686 -0.3259  0.0583  0.2346
 3666TIP3    H132557   0.262   1.714   0.766  0.7381  0.0713 -0.0168
 3666TIP3    H232558   0.321   1.614   0.669 -0.6868 -0.2380 -0.5806
 3667TIP3   OH232559   1.131   5.737   2.433 -0.8303 -0.4015  0.0117
 3667TIP3    H132560   1.151   5.694   2.516 -0.4674 -0.1975  0.0303
 3667TIP3    H232561   1.054   5.791   2.452 -0.8192 -0.4472  0.1863
 3668TIP3   OH232562   0.976   5.932   1.871 -0.3294  0.3219  0.1942
 3668TIP3    H132563   1.031   5.901   1.799 -0.9380  0.8342 -0.5006
 3668TIP3    H232564   1.039   5.964   1.937  0.2187  0.4727 -0.3927
 3669TIP3   OH232565   2.558   3.027   7.759  0.4016 -0.4841  0.3094
 3669TIP3    H132566   2.560   3.096   7.692  0.8237 -0.3456  0.4649
 3669TIP3    H232567   2.525   3.070   7.837  1.3610 -0.2762  0.6104
 3670TIP3   OH232568   0.731   5.368   1.865 -0.2146  0.1636  0.2295
 3670TIP3    H132569   0.675   5.332   1.797 -2.3079  1.7691  0.9914
 3670TIP3    H232570   0.806   5.308   1.869 -0.9796 -1.0639 -2.0683
 3671TIP3   OH232571   2.459   5.899   1.757  0.4840 -0.7330  0.3202
 3671TIP3    H132572   2.479   5.860   1.672 -2.9937 -1.6142 -0.2474
 3671TIP3    H232573   2.525   5.968   1.768  1.4792 -1.0508 -2.7456
 3672TIP3   OH232574   4.248   2.129   8.022 -0.0722 -0.1295 -0.3630
 3672TIP3    H132575   4.192   2.126   8.100 -0.4506  0.6503 -0.5939
 3672TIP3    H232576   4.334   2.153   8.055 -0.1196 -0.2710 -0.1312
 3673TIP3   OH232577   2.287   5.333   0.634 -0.3625  0.6819  0.1248
 3673TIP3    H132578   2.258   5.243   0.618 -2.3878  1.4396 -0.7782
 3673TIP3    H232579   2.323   5.331   0.723  0.0660 -1.0995 -0.0519
 3674TIP3   OH232580   3.071   4.823   6.982 -0.7899 -0.7748  0.5691
 3674TIP3    H132581   2.980   4.841   6.958  0.0341  1.3692 -1.2525
 3674TIP3    H232582   3.099   4.900   7.030  0.2406 -1.1780  0.6373
 3675TIP3   OH232583   5.497   4.034   8.211 -0.3579  0.2870  0.1720
 3675TIP3    H132584   5.509   4.112   8.158 -0.2067  0.5949  0.6590
 3675TIP3    H232585   5.465   4.066   8.295  0.8084 -0.0797  0.7706
 3676TIP3   OH232586   3.627   1.876   0.196 -0.0951  0.1932 -0.3547
 3676TIP3    H132587   3.637   1.941   0.126 -0.0250  1.3899  0.7290
 3676TIP3    H232588   3.550   1.904   0.245  0.3819 -0.0952  0.5900
 3677TIP3   OH232589   2.278   5.856   7.257  0.1733  0.0008  0.1620
 3677TIP3    H132590   2.289   5.841   7.351 -0.8205 -0.6104  0.1928
 3677TIP3    H232591   2.313   5.943   7.242  1.1982 -0.2639  0.9376
 3678TIP3   OH232592   3.189   0.145   1.885  0.1983 -0.2450  0.2044
 3678TIP3    H132593   3.183   0.055   1.918 -0.4753  0.4685  2.1514
 3678TIP3    H232594   3.256   0.186   1.939  0.0192  0.6208 -0.2187
 3679TIP3   OH232595   1.395   2.127   0.382  0.1844 -0.0776 -0.2600
 3679TIP3    H132596   1.395   2.146   0.476 -0.4205  0.3875 -0.3521
 3679TIP3    H232597   1.473   2.171   0.349 -0.0740  0.4883 -0.1193
 3680TIP3   OH232598   5.617   0.625   7.544 -0.2168  0.7094  0.0562
 3680TIP3    H132599   5.623   0.654   7.635  0.9573  0.4560  0.0701
 3680TIP3    H232600   5.615   0.706   7.493 -0.8992  0.8521  0.3008
 3681TIP3   OH232601   0.139   0.188   0.203  0.0101  0.2467 -0.0756
 3681TIP3    H132602   0.097   0.167   0.120 -0.2357 -0.1165  0.1360
 3681TIP3    H232603   0.091   0.264   0.235  0.7915  1.0473 -0.7621
 3682TIP3   OH232604   0.145   6.461   1.295  0.4600 -0.0512  0.3789
 3682TIP3    H132605   0.054   6.475   1.322  1.0156  2.7686  1.0609
 3682TIP3    H232606   0.165   6.534   1.237  2.4688 -0.2772  0.7136
 3683TIP3   OH232607   3.382   4.408   1.418  0.8535  0.1422  0.6529
 3683TIP3    H132608   3.439   4.482   1.436 -0.0119  1.4491 -1.6470
 3683TIP3    H232609   3.367   4.368   1.504  2.3039  1.8947  1.7869
 3684TIP3   OH232610   4.964   5.602   0.480 -0.0114 -0.0685  0.4773
 3684TIP3    H132611   4.924   5.688   0.491 -1.3127 -0.5997  0.0145
 3684TIP3    H232612   4.892   5.543   0.459  0.8737 -1.2586  0.6187
 3685TIP3   OH232613   0.081   1.529   0.010 -0.4066 -0.0123  0.1121
 3685TIP3    H132614   0.113   1.546   0.099 -0.6035  1.0622 -0.0026
 3685TIP3    H232615  -0.013   1.518   0.020 -0.4248  0.0788  0.0433
 3686TIP3   OH232616   2.998   4.808   1.137  0.3225  0.1766 -0.2908
 3686TIP3    H132617   2.999   4.856   1.054  0.8870  0.6064 -0.0387
 3686TIP3    H232618   3.090   4.793   1.158  0.2048  0.4155  0.4493
 3687TIP3   OH232619   2.781   6.337   0.756 -0.3149 -0.2122  0.6706
 3687TIP3    H132620   2.756   6.262   0.809  0.6118 -0.3891  0.8699
 3687TIP3    H232621   2.850   6.381   0.806 -0.9751  0.8956  0.6541
 3688TIP3   OH232622   0.707   0.007   1.464 -0.3041  0.6716  0.2912
 3688TIP3    H132623   0.738   0.010   1.374 -2.0489  2.2373 -0.3394
 3688TIP3    H232624   0.786  -0.004   1.517  0.6988 -0.9854 -1.4247
 3689TIP3   OH232625   2.948   4.277   1.647 -0.2986 -0.3862  0.4373
 3689TIP3    H132626   2.982   4.232   1.724  1.8762 -0.3460 -0.4439
 3689TIP3    H232627   2.988   4.364   1.649  0.4293 -0.6410 -1.1003
 3690TIP3   OH232628   6.293   5.940   0.215 -0.1629  0.7274 -0.2492
 3690TIP3    H132629   6.274   5.935   0.121  0.4661 -0.6760 -0.3327
 3690TIP3    H232630   6.288   6.033   0.236  0.9130  1.2097 -1.9394
 3691TIP3   OH232631   2.634   6.136   8.575 -0.5735 -0.0017  1.2392
 3691TIP3    H132632   2.652   6.121   8.482 -1.9508 -1.1026  1.1127
 3691TIP3    H232633   2.719   6.160   8.612  0.8277 -2.9841  0.3591
 3692TIP3   OH232634   3.047   3.467   0.463 -0.3548 -0.3928  0.4562
 3692TIP3    H132635   3.052   3.493   0.555 -1.0248 -1.0605  0.6912
 3692TIP3    H232636   3.085   3.540   0.416 -1.2971  0.5894  1.1692
 3693TIP3   OH232637   0.030   0.322   2.461  0.7904 -0.0679 -0.3281
 3693TIP3    H132638  -0.045   0.264   2.444  1.2499 -0.5628 -0.6946
 3693TIP3    H232639  -0.005   0.388   2.522  0.0362 -0.2416 -0.5533
 3694TIP3   OH232640   5.208   4.097   1.483 -0.2938 -1.0324 -0.2938
 3694TIP3    H132641   5.217   4.061   1.395 -0.6434 -1.8079 -0.0306
 3694TIP3    H232642   5.174   4.023   1.535 -0.1964 -0.5568  0.4604
 3695TIP3   OH232643   5.719   1.703   1.211 -0.2525  0.0621  1.0234
 3695TIP3    H132644   5.681   1.791   1.220  1.4453  0.8844  0.5097
 3695TIP3    H232645   5.646   1.649   1.180 -0.9825  1.6226 -0.1439
 3696TIP3   OH232646   3.422   4.892   2.912 -0.4363  0.1360  0.4328
 3696TIP3    H132647   3.345   4.851   2.872  0.7350 -1.3264 -0.4139
 3696TIP3    H232648   3.401   4.986   2.914 -1.0676  0.1509 -2.5539
 3697TIP3   OH232649   4.962   0.834   0.431 -0.1569 -0.0112 -0.0989
 3697TIP3    H132650   4.981   0.756   0.483 -1.0483 -0.3091 -0.2103
 3697TIP3    H232651   4.874   0.860   0.457  0.0081  0.7795 -0.2926
 3698TIP3   OH232652   4.002   4.912   1.183 -0.0324  0.5484  0.7720
 3698TIP3    H132653   3.925   4.960   1.153  0.1714 -0.1506 -0.9775
 3698TIP3    H232654   4.071   4.979   1.187 -0.3371  0.8654  0.7615
 3699TIP3   OH232655   0.057   6.807   1.702 -0.1392 -0.0944 -0.0682
 3699TIP3    H132656   0.126   6.759   1.657 -0.0812 -0.1029  0.0297
 3699TIP3    H232657   0.100   6.886   1.735 -0.4129  0.4337 -0.9404
 3700TIP3   OH232658   0.514   1.357   1.830  0.5860 -0.3678 -0.3747
 3700TIP3    H132659   0.605   1.347   1.858 -0.1606  0.3133  2.5988
 3700TIP3    H232660   0.489   1.271   1.797  1.6622 -1.1724  0.8437
 3701TIP3   OH232661   5.515   0.992   1.050 -0.1602  0.2550 -0.5880
 3701TIP3    H132662   5.522   0.914   1.105  0.6163 -0.2545 -1.3946
 3701TIP3    H232663   5.507   0.959   0.961 -0.8467  1.0850 -0.8532
 3702TIP3   OH232664   0.201   3.650   6.954  0.1461 -0.2310  0.7012
 3702TIP3    H132665   0.155   3.617   6.877 -1.0460 -0.9304  1.6671
 3702TIP3    H232666   0.149   3.725   6.983  0.2833 -0.2871  1.1049
 3703TIP3   OH232667   5.229   0.046   2.761 -0.1273  0.1692 -0.4096
 3703TIP3    H132668   5.157  -0.004   2.801  0.3499  0.6840  1.1724
 3703TIP3    H232669   5.186   0.116   2.712 -0.7294 -0.3443 -0.6285
 3704TIP3   OH232670   0.913   2.873   2.123  0.1020 -0.3153 -0.7793
 3704TIP3    H132671   0.925   2.883   2.217  2.8255 -1.7269 -0.8690
 3704TIP3    H232672   0.874   2.955   2.094 -2.3384 -0.4615  1.7435
 3705TIP3   OH232673   1.989   4.403   0.038  0.0412 -0.2398  0.0720
 3705TIP3    H132674   1.954   4.334  -0.018  0.1804 -2.9974  3.0986
 3705TIP3    H232675   1.938   4.396   0.119  1.2692  2.0626  1.1489
 3706TIP3   OH232676   2.063   1.319   0.901 -0.1629  0.3808 -0.3419
 3706TIP3    H132677   2.094   1.278   0.820 -0.6158  0.7925 -0.7281
 3706TIP3    H232678   2.097   1.262   0.970 -1.1614 -0.9287 -0.8845
 3707TIP3   OH232679   5.973   4.631   1.547  0.4848  0.4523 -0.1070
 3707TIP3    H132680   6.009   4.621   1.635  0.5772  0.6087 -0.1288
 3707TIP3    H232681   5.913   4.556   1.538  1.2781 -0.1729 -0.3120
 3708TIP3   OH232682   4.019   2.620   0.581  0.3732 -0.1503  0.1423
 3708TIP3    H132683   3.996   2.712   0.596  1.6465  0.1336  0.4686
 3708TIP3    H232684   4.052   2.590   0.666 -0.4273 -1.0436  0.1482
 3709TIP3   OH232685   3.495   2.779   2.456 -0.9806  0.2760 -0.5083
 3709TIP3    H132686   3.427   2.788   2.524 -0.0798 -1.5012  0.7219
 3709TIP3    H232687   3.491   2.687   2.431 -0.5115  0.6567 -2.0810
 3710TIP3   OH232688   5.284   1.226   1.819  0.4206 -0.8169 -0.0423
 3710TIP3    H132689   5.304   1.316   1.793  1.2906 -1.3387 -1.2505
 3710TIP3    H232690   5.323   1.217   1.906 -1.8519  0.7081  1.2715
 3711TIP3   OH232691   1.704   0.026   0.603  0.0765 -0.4848 -0.5266
 3711TIP3    H132692   1.781   0.070   0.567 -0.0334  0.5815  0.5006
 3711TIP3    H232693   1.640   0.028   0.531  0.3148  0.4288 -0.7285
 3712TIP3   OH232694   5.416   2.631   2.858  0.1632 -0.3713  0.1806
 3712TIP3    H132695   5.393   2.546   2.896  0.4037 -0.1772  0.7868
 3712TIP3    H232696   5.511   2.635   2.866  0.1580 -0.0769  0.0898
 3713TIP3   OH232697   3.285   4.578   2.136 -0.1774 -0.2125 -0.1123
 3713TIP3    H132698   3.257   4.488   2.153 -0.1307 -0.1199  0.4617
 3713TIP3    H232699   3.375   4.582   2.167 -0.6182  0.3999  1.1381
 3714TIP3   OH232700   2.708   3.464   0.032 -0.2305  0.3565  0.0368
 3714TIP3    H132701   2.791   3.508   0.049 -0.4712  0.3884  1.2365
 3714TIP3    H232702   2.732   3.373   0.016  0.0065  0.2289  1.0252
 3715TIP3   OH232703   5.080   3.352   0.139 -0.5065 -0.1104 -0.1387
 3715TIP3    H132704   5.030   3.418   0.091 -2.7895  0.1758  2.3799
 3715TIP3    H232705   5.014   3.306   0.191  1.6645 -0.8813  2.1143
 3716TIP3   OH232706   4.507   2.609   1.546 -0.1985  0.5921  0.6632
 3716TIP3    H132707   4.462   2.689   1.518 -0.7072 -0.4296 -1.7708
 3716TIP3    H232708   4.600   2.631   1.541 -0.1240  0.1998 -3.5458
 3717TIP3   OH232709   2.600   4.222   8.110  0.0307  0.5132 -0.1145
 3717TIP3    H132710   2.557   4.212   8.025  1.7508  0.6020 -1.0410
 3717TIP3    H232711   2.626   4.133   8.134 -1.7890  0.2594  1.1056
 3718TIP3   OH232712   4.128   1.940   2.454  0.5094 -0.3057 -0.4547
 3718TIP3    H132713   4.128   1.908   2.544  0.1453  0.4265 -0.1823
 3718TIP3    H232714   4.054   2.002   2.451  1.0911  0.3869 -0.9948
 3719TIP3   OH232715   1.402   3.301   6.500  0.0085 -0.0718 -0.1515
 3719TIP3    H132716   1.468   3.347   6.449  0.6789 -1.9484 -1.0643
 3719TIP3    H232717   1.424   3.208   6.490 -1.6208 -0.6476  1.1264
 3720TIP3   OH232718   5.154   6.437   1.457  0.6760  0.1142  0.7957
 3720TIP3    H132719   5.135   6.397   1.372  3.7950  0.6108 -0.2670
 3720TIP3    H232720   5.155   6.364   1.518  0.9738 -0.6507 -0.0929
 3721TIP3   OH232721   4.595   0.797   1.246 -0.0991  0.7025  0.0426
 3721TIP3    H132722   4.533   0.726   1.231 -0.5840  1.1582 -0.1101
 3721TIP3    H232723   4.669   0.776   1.189 -0.6522  0.8355 -0.7401
 3722TIP3   OH232724   2.693   6.698   2.215 -0.3084 -0.2601 -0.4217
 3722TIP3    H132725   2.752   6.736   2.150  0.6747  1.2025  1.2457
 3722TIP3    H232726   2.749   6.639   2.265 -1.0047 -1.1903 -0.7094
 3723TIP3   OH232727   5.896   5.356   2.559  0.1162  0.4183 -0.2578
 3723TIP3    H132728   5.918   5.334   2.649 -1.5907  2.4304  0.7419
 3723TIP3    H232729   5.980   5.362   2.514  1.0289 -0.1736  1.2977
 3724TIP3   OH232730   6.768   5.154   1.870 -0.8616  0.8054  0.8957
 3724TIP3    H132731   6.741   5.132   1.959 -0.9842  0.3509  0.7541
 3724TIP3    H232732   6.744   5.076   1.818 -0.0547  0.7330  0.6102
 3725TIP3   OH232733   3.324   3.591   0.647  0.7851  0.1660 -0.2475
 3725TIP3    H132734   3.263   3.610   0.576  0.0708  0.4151  0.4155
 3725TIP3    H232735   3.379   3.670   0.653  1.3737 -0.1748 -1.0342
 3726TIP3   OH232736   5.384   3.867   2.657  0.2414  0.1133  0.7685
 3726TIP3    H132737   5.460   3.873   2.599  0.3185  0.3849  0.8947
 3726TIP3    H232738   5.347   3.955   2.658  0.3686  0.1661  1.2971
 3727TIP3   OH232739   4.196   6.641   7.187  0.4857  0.2288  0.2833
 3727TIP3    H132740   4.235   6.554   7.178 -0.7193 -0.3495  0.4900
 3727TIP3    H232741   4.121   6.640   7.128  1.8255  1.9968 -1.5705
 3728TIP3   OH232742   3.145   0.629   2.348  0.3168  0.3241  0.2389
 3728TIP3    H132743   3.131   0.542   2.313 -1.8078  1.1930 -1.2785
 3728TIP3    H232744   3.101   0.629   2.433 -0.1920  0.0633 -0.0199
 3729TIP3   OH232745   6.198   5.345   8.538 -0.2894  0.5977  0.0155
 3729TIP3    H132746   6.292   5.352   8.525 -0.4080  0.0726 -1.2708
 3729TIP3    H232747   6.184   5.376   8.628  1.0194  1.2661  0.0134
 3730TIP3   OH232748   3.419   3.062   0.055  0.2523 -0.1217  0.4181
 3730TIP3    H132749   3.405   3.118   0.132 -1.1269  1.8837 -1.1920
 3730TIP3    H232750   3.331   3.045   0.021  0.8972  1.1948 -2.1480
 3731TIP3   OH232751   2.158   6.187   8.315  0.0580 -0.0820 -0.3168
 3731TIP3    H132752   2.199   6.214   8.233 -0.7189 -2.2954 -1.5474
 3731TIP3    H232753   2.207   6.233   8.383  0.4101  2.2493 -2.0033
 3732TIP3   OH232754   1.222   6.815   8.375  0.0206  0.1495  0.2184
 3732TIP3    H132755   1.226   6.910   8.362  1.3456  0.2960  1.4989
 3732TIP3    H232756   1.297   6.781   8.326 -0.7374 -0.3261 -0.6598
 3733TIP3   OH232757   6.677   4.956   1.675 -0.2059  0.3112 -0.2042
 3733TIP3    H132758   6.739   4.949   1.602 -0.8141 -0.5206 -0.6469
 3733TIP3    H232759   6.596   4.988   1.636 -0.9254 -1.3338 -0.1447
 3734TIP3   OH232760   2.995   5.719   1.837  0.1235 -0.4354  0.4447
 3734TIP3    H132761   3.073   5.731   1.891  0.5709 -0.2287 -0.2348
 3734TIP3    H232762   2.995   5.626   1.813  0.0030 -0.4957  0.6749
 3735TIP3   OH232763   1.493   6.392   8.357  0.5445 -0.0730  0.4538
 3735TIP3    H132764   1.401   6.419   8.359  0.4037 -0.4161 -0.6485
 3735TIP3    H232765   1.496   6.312   8.409  0.2701  0.0808  0.7079
 3736TIP3   OH232766   4.370   2.904   1.131  0.7013 -0.4200  0.5102
 3736TIP3    H132767   4.466   2.907   1.138  0.7252 -0.2695  0.1306
 3736TIP3    H232768   4.347   2.814   1.156  1.3055 -1.9130 -3.4892
 3737TIP3   OH232769   2.371   5.596   7.686 -0.5422  0.0027  0.6187
 3737TIP3    H132770   2.377   5.503   7.664  0.8862 -0.1457  1.4963
 3737TIP3    H232771   2.343   5.598   7.777  0.5385  0.3747  0.9586
 3738TIP3   OH232772   6.413   5.745   3.109 -0.0187 -0.0159  0.8315
 3738TIP3    H132773   6.331   5.707   3.139 -0.2630 -0.6447 -0.5576
 3738TIP3    H232774   6.391   5.836   3.088 -0.3100 -0.1327  0.6382
 3739TIP3   OH232775   1.007   5.159   7.577  1.2949  0.3675 -0.4222
 3739TIP3    H132776   0.994   5.152   7.672 -0.0330 -0.9866 -0.6744
 3739TIP3    H232777   0.922   5.187   7.543  1.2266 -0.8790 -1.3685
 3740TIP3   OH232778   1.169   4.278   0.792 -0.0701 -0.0462  0.0227
 3740TIP3    H132779   1.116   4.323   0.726  0.4874  1.8716  0.8315
 3740TIP3    H232780   1.241   4.239   0.743 -1.0607 -0.8910 -0.8104
 3741TIP3   OH232781   5.014   6.053   2.764  0.2700  0.0777 -0.1030
 3741TIP3    H132782   5.053   6.010   2.688  1.6817  1.0533  0.0500
 3741TIP3    H232783   4.998   5.982   2.826  0.6603 -0.4933 -0.6485
 3742TIP3   OH232784   5.379   0.475   2.414 -0.3711 -0.3154 -0.3355
 3742TIP3    H132785   5.436   0.552   2.413 -0.7711 -0.0238 -1.0322
 3742TIP3    H232786   5.418   0.418   2.480 -1.9338  1.9028  2.7837
 3743TIP3   OH232787   2.135   2.073   7.589  0.5328 -1.0111 -0.2792
 3743TIP3    H132788   2.145   2.002   7.526 -0.7364 -0.8865 -0.6313
 3743TIP3    H232789   2.052   2.114   7.567  0.3932 -0.5270  1.0413
 3744TIP3   OH232790   5.795   6.536   1.447  0.2619 -0.4538 -0.1956
 3744TIP3    H132791   5.830   6.456   1.485 -0.4059 -0.7987 -0.2916
 3744TIP3    H232792   5.807   6.603   1.515  1.4044 -0.4868 -0.3591
 3745TIP3   OH232793   5.848   3.616   0.569  0.0075 -0.0391 -0.1361
 3745TIP3    H132794   5.942   3.623   0.584  0.2192  0.3990 -1.5405
 3745TIP3    H232795   5.841   3.576   0.482 -1.1287 -2.6478  1.0583
 3746TIP3   OH232796   4.743   2.915   0.754 -0.1102 -0.5654  0.1519
 3746TIP3    H132797   4.767   2.853   0.823 -1.6964 -0.8660  0.4873
 3746TIP3    H232798   4.664   2.958   0.787  0.0108  0.4473 -0.8056
 3747TIP3   OH232799   5.598   3.453   6.910 -0.4745 -0.6699  0.4462
 3747TIP3    H132800   5.528   3.515   6.890 -0.8737 -1.5551 -0.9917
 3747TIP3    H232801   5.667   3.507   6.949 -1.1960  0.5172  0.1281
 3748TIP3   OH232802   1.675   2.828   0.160  0.8782  0.4987 -0.3262
 3748TIP3    H132803   1.755   2.839   0.211  2.0490 -0.3227 -1.8903
 3748TIP3    H232804   1.604   2.844   0.222  2.1726 -2.1654  2.0408
 3749TIP3   OH232805   1.894   1.213   3.292 -0.5861 -0.1502  0.1418
 3749TIP3    H132806   1.918   1.298   3.256 -1.0877  1.2945  2.9337
 3749TIP3    H232807   1.806   1.197   3.257  0.1514 -0.3558 -1.6990
 3750TIP3   OH232808   3.401   3.506   2.594 -0.0163  0.1211  0.4500
 3750TIP3    H132809   3.327   3.446   2.586  0.0504 -0.1133  1.5281
 3750TIP3    H232810   3.367   3.581   2.642  0.1796  0.4816  0.0338
 3751TIP3   OH232811   6.376   4.753   1.491  0.2372 -0.1749  0.4249
 3751TIP3    H132812   6.425   4.826   1.529  1.3956 -1.6956  1.9825
 3751TIP3    H232813   6.427   4.728   1.414  2.2949 -2.0065  2.2514
 3752TIP3   OH232814   6.660   5.725   3.004  0.2552  0.0572  0.2124
 3752TIP3    H132815   6.576   5.764   3.028  0.4689 -0.0787  1.2141
 3752TIP3    H232816   6.637   5.640   2.967  0.0235 -0.8288  2.2587
 3753TIP3   OH232817   5.416   4.149   2.127 -1.0268 -0.0852 -0.0758
 3753TIP3    H132818   5.388   4.103   2.049 -2.0118  0.3320  0.0181
 3753TIP3    H232819   5.465   4.084   2.178 -1.9532 -0.8714 -0.1816
 3754TIP3   OH232820   2.147   0.188   0.017  0.3857  0.3000 -0.0025
 3754TIP3    H132821   2.187   0.251  -0.044 -3.2559  1.8609 -1.0696
 3754TIP3    H232822   2.058   0.177  -0.016 -0.6911 -1.5192  3.1454
 3755TIP3   OH232823   1.467   6.186   8.071  0.2508  0.1247 -0.1510
 3755TIP3    H132824   1.556   6.219   8.059  1.0577 -1.1672  1.8354
 3755TIP3    H232825   1.435   6.171   7.982  2.6384 -0.9763 -0.9023
 3756TIP3   OH232826   3.646   6.464   7.607  0.3982  0.2851 -0.0992
 3756TIP3    H132827   3.683   6.384   7.645  1.3789  0.9099  0.2944
 3756TIP3    H232828   3.620   6.438   7.518 -1.1800 -0.9844  0.6846
 3757TIP3   OH232829   0.852   1.086   2.102  0.3436  0.2845 -0.5143
 3757TIP3    H132830   0.911   1.013   2.118  1.8471  1.4508 -0.4877
 3757TIP3    H232831   0.778   1.071   2.161  0.5223 -1.2888 -0.6558
 3758TIP3   OH232832   3.556   1.332   1.669 -0.0384 -0.1553  0.3986
 3758TIP3    H132833   3.612   1.403   1.701  2.7014 -2.2038  0.6131
 3758TIP3    H232834   3.582   1.320   1.578 -0.9006 -0.4994  0.1879
 3759TIP3   OH232835   1.934   2.596   8.700  0.9910  0.0695  0.1817
 3759TIP3    H132836   1.974   2.526   8.649  0.1769 -1.2549  1.3114
 3759TIP3    H232837   2.004   2.627   8.758  1.2020 -0.1713  0.0553
 3760TIP3   OH232838   1.742   3.931   7.452  0.0043 -0.2871 -0.1262
 3760TIP3    H132839   1.682   3.946   7.379  0.0727  0.5689 -0.0206
 3760TIP3    H232840   1.829   3.931   7.411  0.2602  2.6076  0.1956
 3761TIP3   OH232841   0.780   6.188   2.161 -0.1382  0.5868  0.1297
 3761TIP3    H132842   0.708   6.134   2.193  1.3743  0.2198  3.2870
 3761TIP3    H232843   0.775   6.181   2.065 -1.7746 -2.7816  0.3135
 3762TIP3   OH232844   1.751   0.383   0.158  0.5375  0.0781  0.7122
 3762TIP3    H132845   1.662   0.409   0.180  1.1361  0.7920  2.4836
 3762TIP3    H232846   1.801   0.400   0.238  2.0190 -1.5226  0.1770
 3763TIP3   OH232847   0.559   4.207   8.237  0.2044 -0.0024 -0.4144
 3763TIP3    H132848   0.470   4.176   8.219 -0.3408  0.5441  1.1425
 3763TIP3    H232849   0.568   4.285   8.183  0.9549 -1.7791 -3.0257
 3764TIP3   OH232850   2.676   3.245   8.324 -0.4234 -0.1667  0.3147
 3764TIP3    H132851   2.611   3.188   8.363  1.1429 -1.7383  0.7657
 3764TIP3    H232852   2.641   3.266   8.237 -1.1338 -1.7102  0.1953
 3765TIP3   OH232853   0.082   1.090   0.192 -0.1739 -0.6335  0.2660
 3765TIP3    H132854   0.020   1.027   0.155  0.3694 -0.8125 -0.3515
 3765TIP3    H232855   0.091   1.064   0.284 -1.3899 -0.3033  0.4984
 3766TIP3   OH232856   3.706   0.266   7.443 -0.5620  0.5286 -0.4652
 3766TIP3    H132857   3.690   0.171   7.440 -0.2349  0.3904  1.2082
 3766TIP3    H232858   3.775   0.280   7.378 -0.1502 -0.4974 -0.2852
 3767TIP3   OH232859   4.975   3.056   1.072 -0.1994  0.3974 -0.0288
 3767TIP3    H132860   5.045   2.994   1.092 -1.6256 -1.4644 -0.5773
 3767TIP3    H232861   5.019   3.127   1.026  1.7861  0.7551  2.2031
 3768TIP3   OH232862   6.642   5.357   0.290  0.1187 -0.0804  0.5150
 3768TIP3    H132863   6.601   5.362   0.377 -1.8648  1.0318 -0.4125
 3768TIP3    H232864   6.695   5.437   0.284 -0.6325  0.4129  0.3069
 3769TIP3   OH232865   0.948   5.501   2.311  0.7423  0.6234  0.5058
 3769TIP3    H132866   1.044   5.504   2.306  0.7246 -0.6021 -1.0703
 3769TIP3    H232867   0.931   5.471   2.400  2.0085 -3.1878 -0.3648
 3770TIP3   OH232868   6.439   1.365   2.665 -0.4389  0.1173 -0.0339
 3770TIP3    H132869   6.427   1.300   2.595 -1.7203  1.1589 -0.8222
 3770TIP3    H232870   6.451   1.448   2.619  1.9097  0.3788  0.9478
 3771TIP3   OH232871   4.675   1.053   7.702  0.1487  0.1337 -0.0427
 3771TIP3    H132872   4.584   1.024   7.693  0.7712 -1.4478 -2.2560
 3771TIP3    H232873   4.691   1.102   7.621  1.4031 -0.0644  0.0797
 3772TIP3   OH232874   3.416   1.362   2.917 -0.2602  0.0228  0.1816
 3772TIP3    H132875   3.424   1.450   2.882 -1.6968  0.6143  1.2110
 3772TIP3    H232876   3.322   1.343   2.913  0.1111 -1.8882 -0.9646
 3773TIP3   OH232877   4.675   3.789   7.832  0.7906  0.0278  0.0973
 3773TIP3    H132878   4.754   3.835   7.803  0.4744  1.0979  0.8885
 3773TIP3    H232879   4.670   3.712   7.775  0.5955  1.6624 -2.2150
 3774TIP3   OH232880   0.354   1.782   0.068  0.2527  0.6338  0.1601
 3774TIP3    H132881   0.342   1.718   0.137 -0.7849  1.6048  0.9168
 3774TIP3    H232882   0.286   1.761   0.004  0.8527  0.0854 -0.3099
 3775TIP3   OH232883   1.678   6.387   2.757  0.0381  0.8438 -0.6308
 3775TIP3    H132884   1.612   6.344   2.811  1.6973 -1.1406 -0.0384
 3775TIP3    H232885   1.750   6.406   2.818  0.8132  1.1366 -1.5974
 3776TIP3   OH232886   5.061   5.134   2.803 -0.0623 -0.0231  0.3151
 3776TIP3    H132887   5.071   5.087   2.721 -0.4588 -0.1359  0.3291
 3776TIP3    H232888   5.023   5.218   2.778 -2.0924 -0.8060  0.5545
 3777TIP3   OH232889   6.020   1.324   8.161  0.0079  0.2923 -0.6655
 3777TIP3    H132890   5.927   1.307   8.176 -0.3535  1.4299 -1.4485
 3777TIP3    H232891   6.053   1.357   8.244 -1.0127  2.6896 -1.1032
 3778TIP3   OH232892   0.531   1.336   3.395  0.0275  0.4234  0.1631
 3778TIP3    H132893   0.607   1.290   3.430 -0.4974 -0.5859  0.0369
 3778TIP3    H232894   0.559   1.367   3.309 -0.2934 -1.7855 -0.8248
 3779TIP3   OH232895   3.740   0.547   2.081 -0.3963  0.3062 -0.0415
 3779TIP3    H132896   3.746   0.524   1.988  0.3136  0.1197  0.0422
 3779TIP3    H232897   3.700   0.471   2.122 -1.4978  0.7210 -0.3090
 3780TIP3   OH232898   2.118   1.053   2.252  0.0331  0.0990 -0.3307
 3780TIP3    H132899   2.170   1.104   2.190  0.3719  1.2754  0.8697
 3780TIP3    H232900   2.048   1.014   2.199 -0.9749  2.8062 -1.1436
 3781TIP3   OH232901   1.751   5.522   0.548  0.6052  0.3065 -0.3771
 3781TIP3    H132902   1.670   5.478   0.520  0.9467  0.5745 -1.8748
 3781TIP3    H232903   1.820   5.456   0.535  0.3781 -1.0656  3.8339
 3782TIP3   OH232904   6.580   3.474   3.360  0.2765  0.1675  0.2398
 3782TIP3    H132905   6.670   3.441   3.363  0.2630  0.1552  0.6179
 3782TIP3    H232906   6.589   3.566   3.334  0.3578  0.0253 -0.2409
 3783TIP3   OH232907   4.966   2.786   8.347  0.4560 -0.2790  0.1400
 3783TIP3    H132908   4.872   2.769   8.351  0.7715 -2.8157 -1.2755
 3783TIP3    H232909   5.006   2.718   8.403  1.5206 -0.1048 -0.3740
 3784TIP3   OH232910   3.485   5.995   8.545 -1.0447 -0.1077  0.1752
 3784TIP3    H132911   3.410   5.955   8.589 -0.2602 -2.6894 -0.6386
 3784TIP3    H232912   3.552   6.004   8.613 -0.8416 -1.3227  0.1535
 3785TIP3   OH232913   2.293   2.264   3.071  0.2047  0.1623  0.1243
 3785TIP3    H132914   2.217   2.221   3.033  0.8610 -0.2337 -0.7610
 3785TIP3    H232915   2.313   2.336   3.011  0.2854  0.5164  0.5665
 3786TIP3   OH232916   2.374   4.410   8.610 -0.3151 -0.5700  0.1126
 3786TIP3    H132917   2.419   4.346   8.554 -2.2189 -0.8663 -1.1739
 3786TIP3    H232918   2.336   4.357   8.680 -0.3884 -0.6116  0.0426
 3787TIP3   OH232919   4.596   6.791   1.267  0.0931  0.6387 -0.5967
 3787TIP3    H132920   4.636   6.831   1.344  0.6772  0.9825 -1.0646
 3787TIP3    H232921   4.516   6.841   1.252  0.3255  1.0059 -0.6095
 3788TIP3   OH232922   0.462   2.830   7.570  0.5548  0.3540 -0.3503
 3788TIP3    H132923   0.416   2.906   7.605 -0.9253  0.0103 -1.4750
 3788TIP3    H232924   0.399   2.787   7.513  1.3445 -1.7251  0.2259
 3789TIP3   OH232925   0.848   3.781   2.330  0.3066  0.5041 -0.2033
 3789TIP3    H132926   0.855   3.689   2.358 -0.5680  0.2088 -0.8956
 3789TIP3    H232927   0.933   3.819   2.351  0.9327 -0.6502 -0.5594
 3790TIP3   OH232928   3.063   2.843   1.118  0.2275  0.6908 -0.1122
 3790TIP3    H132929   3.036   2.775   1.056 -1.4705  0.7873  0.4726
 3790TIP3    H232930   3.138   2.804   1.164  1.5635  0.6479 -2.2134
 3791TIP3   OH232931   4.180   4.011   1.770 -0.5057 -0.0819 -0.0333
 3791TIP3    H132932   4.228   3.988   1.849 -1.1342 -2.0455 -0.1712
 3791TIP3    H232933   4.142   4.096   1.789  2.9677  1.6261  0.0788
 3792TIP3   OH232934   2.164   2.244   7.909 -0.1849  0.9426 -0.1615
 3792TIP3    H132935   2.196   2.300   7.980 -0.2677 -0.2492  0.8511
 3792TIP3    H232936   2.206   2.280   7.830  2.2408  0.5549  0.8620
 3793TIP3   OH232937   5.993   3.916   0.993 -0.1427  0.4016 -0.0129
 3793TIP3    H132938   5.996   3.853   0.921  0.2043 -0.1811  0.5074
 3793TIP3    H232939   6.045   3.990   0.962 -1.2980  0.8422 -0.9961
 3794TIP3   OH232940   6.222   6.792   1.931  0.2552 -0.2052 -0.2605
 3794TIP3    H132941   6.147   6.799   1.991 -0.0956  2.2859 -0.8814
 3794TIP3    H232942   6.185   6.754   1.851 -0.0079 -0.3328 -0.0821
 3795TIP3   OH232943   0.665   5.460   8.469 -0.0809 -0.6965 -0.1251
 3795TIP3    H132944   0.705   5.413   8.396 -0.4614 -0.1228 -0.7091
 3795TIP3    H232945   0.598   5.399   8.502  0.3711 -1.1249  0.0280
 3796TIP3   OH232946   0.806   6.125   0.302 -0.4987  0.5312  0.4058
 3796TIP3    H132947   0.776   6.037   0.281  0.0720  0.8188 -1.9004
 3796TIP3    H232948   0.884   6.112   0.356  1.0350 -0.5315 -1.9170
 3797TIP3   OH232949   4.639   5.654   0.637  0.4025 -0.1617  1.0101
 3797TIP3    H132950   4.556   5.606   0.637 -0.1134  0.6442 -0.7071
 3797TIP3    H232951   4.675   5.639   0.725 -0.7633 -1.8590  1.2570
 3798TIP3   OH232952   6.359   2.783   2.800 -0.0804 -0.2926 -0.0914
 3798TIP3    H132953   6.267   2.804   2.790 -0.4606 -1.7059  0.2408
 3798TIP3    H232954   6.404   2.839   2.736 -1.1761  0.2639 -0.3843
 3799TIP3   OH232955   2.823   0.823   7.987  0.6223  0.1200  0.4803
 3799TIP3    H132956   2.848   0.733   8.010 -0.2930 -0.2560  0.0727
 3799TIP3    H232957   2.819   0.823   7.892 -1.3908 -0.0123  0.5194
 3800TIP3   OH232958   1.890   0.245   2.218 -0.6994  0.7389  0.2870
 3800TIP3    H132959   1.885   0.273   2.127 -1.4073 -0.5737 -0.1090
 3800TIP3    H232960   1.828   0.172   2.224 -0.8365  0.9463  1.8758
 3801TIP3   OH232961   5.942   1.355   3.295  0.2983  0.4677  0.1992
 3801TIP3    H132962   6.026   1.341   3.338 -0.6553  2.9588  3.3161
 3801TIP3    H232963   5.896   1.416   3.352 -3.7929 -0.9620 -1.2020
 3802TIP3   OH232964   0.490   3.399   1.370  0.2000 -0.0552  0.1374
 3802TIP3    H132965   0.543   3.355   1.304 -0.7672 -2.0148  0.5529
 3802TIP3    H232966   0.546   3.403   1.447  1.5455  2.7916 -0.8877
 3803TIP3   OH232967   0.061   5.978   7.183 -0.1042 -0.8021  0.6457
 3803TIP3    H132968   0.093   6.023   7.262  0.0338  0.9878 -0.3838
 3803TIP3    H232969   0.139   5.964   7.130 -0.3893 -0.6621  0.1852
 3804TIP3   OH232970   1.271   4.981   0.984 -0.2953 -0.2640  0.6680
 3804TIP3    H132971   1.215   4.931   1.044 -0.3430 -1.2166 -0.1386
 3804TIP3    H232972   1.286   4.922   0.910 -0.2138  0.8598 -0.2509
 3805TIP3   OH232973   2.972   6.171   1.076 -0.3371 -0.3375  0.4755
 3805TIP3    H132974   3.058   6.177   1.118 -0.7314  1.0523  1.1613
 3805TIP3    H232975   2.958   6.078   1.063  1.5049 -0.5630 -0.1635
 3806TIP3   OH232976   4.880   5.349   1.151 -0.2322  0.5229 -0.5848
 3806TIP3    H132977   4.964   5.312   1.180 -1.4477 -2.7372 -0.8011
 3806TIP3    H232978   4.877   5.329   1.057 -2.1414 -1.4521 -0.1627
 3807TIP3   OH232979   3.712   0.760   2.347 -0.0503  0.7048 -0.6188
 3807TIP3    H132980   3.658   0.694   2.302 -0.3707  1.3149 -1.1405
 3807TIP3    H232981   3.759   0.804   2.276 -0.8814  1.9629 -0.4088
 3808TIP3   OH232982   6.632   5.366   1.728  0.5109 -0.2506 -0.0095
 3808TIP3    H132983   6.543   5.333   1.741  0.4141 -0.0836 -0.2313
 3808TIP3    H232984   6.686   5.318   1.790  0.0276  0.6770  1.1634
 3809TIP3   OH232985   4.021   4.724   8.545 -0.3587 -0.1298  0.2382
 3809TIP3    H132986   3.935   4.757   8.518 -0.0852  0.1024 -0.3709
 3809TIP3    H232987   4.059   4.795   8.596 -0.7539 -0.4521  0.9993
 3810TIP3   OH232988   5.206   6.401   8.644 -0.0910  0.4935 -0.0894
 3810TIP3    H132989   5.247   6.485   8.625  1.2770 -0.1111  0.1024
 3810TIP3    H232990   5.180   6.407   8.736 -1.9233  1.4558 -0.6173
 3811TIP3   OH232991   3.814   1.476   2.432 -0.4353 -0.0779  0.2247
 3811TIP3    H132992   3.735   1.455   2.482 -0.8410  0.5158 -0.1485
 3811TIP3    H232993   3.805   1.569   2.413 -0.3622 -0.3291 -1.0881
 3812TIP3   OH232994   1.337   4.917   7.121  0.5479 -0.0850  0.0484
 3812TIP3    H132995   1.281   4.932   7.045  1.0183  0.0082 -0.2753
 3812TIP3    H232996   1.368   4.827   7.111 -0.4439 -0.5362  0.8163
 3813TIP3   OH232997   3.896   1.673   1.929 -0.4419  0.4589  0.5058
 3813TIP3    H132998   3.957   1.743   1.952  0.7391  0.3460 -1.9420
 3813TIP3    H232999   3.947   1.592   1.937 -0.5533  0.2660 -0.5141
 3814TIP3   OH233000   5.399   3.908   2.295 -0.0494  0.1171 -1.0547
 3814TIP3    H133001   5.464   3.946   2.355 -0.9628 -0.4740  0.3502
 3814TIP3    H233002   5.315   3.920   2.339 -0.7567 -0.3272 -2.2319
 3815TIP3   OH233003   3.286   1.246   0.043  0.2538  0.3788  0.0032
 3815TIP3    H133004   3.279   1.213  -0.046 -1.0468 -1.2166  0.6293
 3815TIP3    H233005   3.379   1.266   0.055  0.4769  0.3939 -1.6180
 3816TIP3   OH233006   4.265   1.333   2.560 -0.2444 -0.7102 -0.2675
 3816TIP3    H133007   4.263   1.341   2.464 -2.1363  1.4320 -0.1213
 3816TIP3    H233008   4.174   1.322   2.585  0.0254  0.5505  1.4112
 3817TIP3   OH233009   0.797   1.949   2.260  0.3830  0.1376 -0.0186
 3817TIP3    H133010   0.838   2.030   2.230  1.3896 -0.5373 -0.5143
 3817TIP3    H233011   0.737   1.977   2.329  2.0956  1.1250  1.1659
 3818TIP3   OH233012   0.204   5.785   1.097 -0.0704 -0.0118  0.1566
 3818TIP3    H133013   0.158   5.803   1.015  1.3249  1.4844 -0.3449
 3818TIP3    H233014   0.163   5.843   1.161  0.5490  0.7594 -0.1185
 3819TIP3   OH233015   4.829   3.767   0.411 -0.0130 -0.3759 -0.1800
 3819TIP3    H133016   4.760   3.833   0.418 -0.7253 -1.2788  2.2937
 3819TIP3    H233017   4.855   3.750   0.502  1.3654 -2.2462 -0.8635
 3820TIP3   OH233018   3.188   1.556   2.717  0.2194 -0.2847 -0.4414
 3820TIP3    H133019   3.282   1.563   2.702  0.6623 -0.1849  2.0263
 3820TIP3    H233020   3.178   1.476   2.769 -0.9448  0.1518  0.0302
 3821TIP3   OH233021   5.324   1.868   2.420 -0.4582 -0.0406 -0.0713
 3821TIP3    H133022   5.378   1.920   2.479  1.7833 -1.2009 -0.9527
 3821TIP3    H233023   5.340   1.777   2.446 -1.5246 -0.4521 -0.7712
 3822TIP3   OH233024   1.259   0.189   7.553 -0.0192  0.2399  0.0242
 3822TIP3    H133025   1.299   0.167   7.469 -0.7094 -2.1128  0.2368
 3822TIP3    H233026   1.221   0.276   7.540  0.3984  0.1706 -1.9047
 3823TIP3   OH233027   0.647   4.371   8.043 -0.0614 -0.4304 -0.0247
 3823TIP3    H133028   0.733   4.329   8.035 -0.2191 -0.5537 -1.1969
 3823TIP3    H233029   0.643   4.433   7.970 -0.9508 -0.4068  0.0308
 3824TIP3   OH233030   5.385   6.199   0.658 -0.2061  0.4058  0.3744
 3824TIP3    H133031   5.427   6.117   0.634 -0.1025  0.2036  1.2451
 3824TIP3    H233032   5.454   6.252   0.696 -0.4555  0.5766  0.5934
 3825TIP3   OH233033   0.425   5.933   0.271  0.4305  0.3318 -0.4507
 3825TIP3    H133034   0.367   5.890   0.333  1.2738 -0.8547 -0.4561
 3825TIP3    H233035   0.492   5.868   0.251  1.9787  1.7726 -0.1712
 3826TIP3   OH233036   0.367   1.931   8.523 -0.3527  0.1551 -0.1341
 3826TIP3    H133037   0.329   1.845   8.508 -1.3330  0.4990  0.2791
 3826TIP3    H233038   0.303   1.976   8.580  0.1326  1.1483 -0.3482
 3827TIP3   OH233039   1.801   2.987   2.957 -0.8289 -0.4874 -0.4263
 3827TIP3    H133040   1.873   3.031   3.001 -1.9027 -0.2711  1.1881
 3827TIP3    H233041   1.757   2.938   3.026 -2.1482 -0.7273 -1.4030
 3828TIP3   OH233042   4.841   1.828   8.339 -0.1614  0.5727 -0.2103
 3828TIP3    H133043   4.844   1.860   8.430  0.5400  0.7737 -0.2923
 3828TIP3    H233044   4.901   1.754   8.338  1.3355  1.7379 -0.9240
 3829TIP3   OH233045   4.490   2.237   0.251  0.2085 -0.6092  0.4622
 3829TIP3    H133046   4.422   2.181   0.213  0.6553 -0.9455  0.1489
 3829TIP3    H233047   4.464   2.248   0.342  0.2203 -1.4936  0.5816
 3830TIP3   OH233048   0.299   6.182   7.923 -0.2615  0.5004 -0.0277
 3830TIP3    H133049   0.337   6.230   7.996 -0.9204  0.4920  0.3264
 3830TIP3    H233050   0.210   6.215   7.916  0.6121  2.6634 -2.7189
 3831TIP3   OH233051   3.221   1.372   0.309  0.3192  0.2447 -0.3707
 3831TIP3    H133052   3.234   1.318   0.231  1.6012  0.3984 -0.2835
 3831TIP3    H233053   3.135   1.413   0.295 -0.3401 -1.1916 -0.7853
 3832TIP3   OH233054   4.452   1.618   7.440  0.2608 -0.0847  0.1102
 3832TIP3    H133055   4.388   1.688   7.430  0.1478 -0.0128  1.1983
 3832TIP3    H233056   4.399   1.541   7.463  0.5445 -0.0457  0.9215
 3833TIP3   OH233057   5.675   4.758   7.613  0.0906 -0.5377  0.0801
 3833TIP3    H133058   5.699   4.726   7.700  0.3317 -0.8246 -0.0895
 3833TIP3    H233059   5.654   4.679   7.564 -1.5265 -0.2790  0.3036
 3834TIP3   OH233060   2.556   3.718   2.281  0.1834  0.1128  0.5540
 3834TIP3    H133061   2.587   3.629   2.265  1.7003  0.6612  0.2495
 3834TIP3    H233062   2.482   3.729   2.221  2.0107  0.1021 -1.8805
 3835TIP3   OH233063   2.140   5.463   2.234 -0.2068  0.0456 -0.5086
 3835TIP3    H133064   2.208   5.476   2.168  0.5299 -0.1661  0.1958
 3835TIP3    H233065   2.187   5.431   2.311 -0.8846  1.4407  0.5201
 3836TIP3   OH233066   0.876   0.669   3.017 -0.8146  0.4709  0.1587
 3836TIP3    H133067   0.790   0.651   3.055 -1.4881  1.8529 -0.6321
 3836TIP3    H233068   0.931   0.596   3.046 -2.3387 -0.6364  0.3574
 3837TIP3   OH233069   4.307   3.782   8.664  0.1241  0.1973 -0.3555
 3837TIP3    H133070   4.335   3.818   8.747 -0.7441 -2.6766  1.3376
 3837TIP3    H233071   4.240   3.842   8.632 -0.2343  0.8584  1.5450
 3838TIP3   OH233072   3.312   1.552   1.161 -0.3712  0.0922 -0.5639
 3838TIP3    H133073   3.229   1.571   1.117 -0.4779  0.4696 -0.1940
 3838TIP3    H233074   3.367   1.514   1.091 -1.8821 -3.2187 -0.1619
 3839TIP3   OH233075   6.793   5.042   2.122 -0.1479 -0.7158  0.3521
 3839TIP3    H133076   6.843   5.094   2.185 -1.0572 -0.2173  0.6792
 3839TIP3    H233077   6.859   4.988   2.078  1.0122  1.5985 -0.9081
 3840TIP3   OH233078   0.964   2.743   6.865  0.1828  0.0712  0.4275
 3840TIP3    H133079   0.998   2.698   6.788 -1.0331  0.3303 -0.2910
 3840TIP3    H233080   1.011   2.704   6.939  0.3726 -1.1602 -0.3202
 3841TIP3   OH233081   3.195   4.608   7.076  0.0525 -0.7887 -0.1852
 3841TIP3    H133082   3.125   4.579   7.135  1.0967 -0.7724  1.1313
 3841TIP3    H233083   3.161   4.687   7.035 -0.3708 -0.2542  1.1401
 3842TIP3   OH233084   6.065   2.016   0.417 -0.2951  0.1020 -0.0093
 3842TIP3    H133085   6.125   2.087   0.394  1.3827 -0.6272  1.7990
 3842TIP3    H233086   5.988   2.060   0.453  0.1838  1.0317 -0.0915
 3843TIP3   OH233087   3.009   5.271   0.392 -0.0578 -0.2003 -0.4210
 3843TIP3    H133088   3.032   5.362   0.372  1.0590  0.2173  2.3464
 3843TIP3    H233089   3.077   5.242   0.453 -1.8403 -1.9970  0.8466
 3844TIP3   OH233090   5.471   2.748   0.504  0.2696  0.3865  0.6902
 3844TIP3    H133091   5.412   2.823   0.498  0.5284  0.4913 -0.8282
 3844TIP3    H233092   5.413   2.674   0.523 -0.2633  0.6292  0.0449
 3845TIP3   OH233093   2.546   2.826   1.141 -0.1557  0.2616 -0.1878
 3845TIP3    H133094   2.624   2.870   1.175  0.7249 -0.0519 -1.7500
 3845TIP3    H233095   2.547   2.843   1.047 -1.7936 -0.0432 -0.2973
 3846TIP3   OH233096   6.196   5.513   0.531 -0.2161 -0.1701  0.2191
 3846TIP3    H133097   6.164   5.558   0.609 -2.6124 -0.4123 -0.5181
 3846TIP3    H233098   6.121   5.461   0.501  0.6491 -0.2048 -2.1442
 3847TIP3   OH233099   0.031   3.117   8.135  0.0960 -0.1872 -0.6986
 3847TIP3    H133100  -0.034   3.151   8.073  1.5024  0.9971 -1.5935
 3847TIP3    H233101  -0.021   3.070   8.201 -1.6127  0.3317 -1.6094
 3848TIP3   OH233102   4.184   3.370   8.311  0.2071  0.0601  0.0913
 3848TIP3    H133103   4.181   3.459   8.276  3.7358  1.8002  3.4999
 3848TIP3    H233104   4.259   3.330   8.268 -0.1382 -0.5561  0.0498
 3849TIP3   OH233105   0.194   0.005   2.549  0.3880 -0.1072 -0.3082
 3849TIP3    H133106   0.211   0.000   2.455 -0.1246 -2.1653 -0.3539
 3849TIP3    H233107   0.267   0.055   2.584  1.6493 -0.9780 -1.5682
 3850TIP3   OH233108   1.685   3.608   6.496  0.2372 -0.2176 -0.0923
 3850TIP3    H133109   1.761   3.633   6.548  1.0956 -0.3835 -1.2315
 3850TIP3    H233110   1.644   3.691   6.472 -0.6772 -0.1566  1.5319
 3851TIP3   OH233111   3.126   5.445   1.207  0.5324 -0.2020 -0.0727
 3851TIP3    H133112   3.102   5.355   1.184  0.4024 -0.3039  0.4626
 3851TIP3    H233113   3.053   5.498   1.175  0.5946 -0.2887 -0.3623
 3852TIP3   OH233114   4.770   4.475   7.919 -0.1094  0.4856 -0.0727
 3852TIP3    H133115   4.865   4.486   7.917  0.0248 -0.5539 -2.4686
 3852TIP3    H233116   4.757   4.380   7.920 -1.0874  0.5854 -1.2476
 3853TIP3   OH233117   4.207   1.038   7.391 -0.1851  0.2380  0.4709
 3853TIP3    H133118   4.223   0.967   7.328  2.8626 -1.6965  3.1172
 3853TIP3    H233119   4.147   1.097   7.345  1.0998 -1.3985 -3.8624
 3854TIP3   OH233120   5.220   3.285   8.323 -0.1675  0.2873  0.6939
 3854TIP3    H133121   5.294   3.284   8.383 -0.1827 -0.1039  0.7113
 3854TIP3    H233122   5.192   3.376   8.321 -0.7343  0.1731  1.9983
 3855TIP3   OH233123   5.335   5.196   0.909  0.4611 -0.4790  0.2043
 3855TIP3    H133124   5.425   5.172   0.935  0.2485 -1.8439 -0.2152
 3855TIP3    H233125   5.344   5.281   0.868  1.3517  0.0587  1.4318
 3856TIP3   OH233126   5.946   6.801   2.060 -0.2088  0.2885 -0.8927
 3856TIP3    H133127   5.874   6.776   2.003  1.1187 -2.6930 -1.4666
 3856TIP3    H233128   5.948   6.734   2.128  1.0730  1.1593 -0.0147
 3857TIP3   OH233129   0.553   1.499   1.576  0.3251 -0.0544 -0.2712
 3857TIP3    H133130   0.613   1.566   1.608  0.0442  0.0395  0.0632
 3857TIP3    H233131   0.510   1.465   1.655  0.5929 -0.7479 -0.4190
 3858TIP3   OH233132   3.402   6.085   1.923  0.1892  0.4822 -1.0720
 3858TIP3    H133133   3.362   6.091   1.835 -0.3932 -0.7159 -0.9071
 3858TIP3    H233134   3.339   6.130   1.980 -0.5795 -0.7314 -0.9322
 3859TIP3   OH233135   1.262   4.493   1.721 -0.1543  0.1707  0.3316
 3859TIP3    H133136   1.328   4.453   1.777 -1.0338 -2.2577 -0.2706
 3859TIP3    H233137   1.250   4.432   1.648 -0.2546  2.4088 -1.6945
 3860TIP3   OH233138   5.757   4.257   8.261  0.6511 -0.1817  0.0495
 3860TIP3    H133139   5.683   4.197   8.273  1.0158 -0.3949  1.2845
 3860TIP3    H233140   5.716   4.344   8.255  0.2184 -0.4167 -0.4806
 3861TIP3   OH233141   6.731   5.515   0.552  0.0130 -0.3538  0.1172
 3861TIP3    H133142   6.820   5.550   0.548  0.4116 -1.4237 -1.9210
 3861TIP3    H233143   6.683   5.578   0.607  1.1790  2.2360 -1.6109
 3862TIP3   OH233144   5.033   3.302   8.081 -0.1321 -0.2498  0.6816
 3862TIP3    H133145   5.126   3.299   8.106 -0.2457  0.4963  1.2540
 3862TIP3    H233146   5.021   3.392   8.049 -0.3416 -0.7581 -0.7006
 3863TIP3   OH233147   0.230   1.746   2.710 -0.5345 -0.1214 -0.1311
 3863TIP3    H133148   0.148   1.794   2.704  0.0866  0.7953 -2.5791
 3863TIP3    H233149   0.275   1.784   2.786 -1.6559  0.4888  0.2520
 3864TIP3   OH233150   6.200   6.664   0.128  0.0642  0.0775  0.0502
 3864TIP3    H133151   6.157   6.748   0.114  0.7884  0.5783  0.7315
 3864TIP3    H233152   6.274   6.684   0.186 -1.3881 -1.4288  2.6644
 3865TIP3   OH233153   2.506   5.223   0.846  0.3359 -0.2246 -0.0098
 3865TIP3    H133154   2.546   5.137   0.830 -0.1391 -1.3466  3.8698
 3865TIP3    H233155   2.577   5.277   0.879  0.4290  0.6719 -1.5727
 3866TIP3   OH233156   2.436   6.420   0.596 -0.1853  0.2142  0.2539
 3866TIP3    H133157   2.479   6.498   0.560  0.0092  0.2232  0.5013
 3866TIP3    H233158   2.465   6.348   0.540 -1.0883  0.4506 -0.5394
 3867TIP3   OH233159   1.890   6.172   8.247  0.1339  0.1865  0.1901
 3867TIP3    H133160   1.821   6.218   8.295  0.1567  2.2826 -1.6285
 3867TIP3    H233161   1.965   6.171   8.307  0.0728  2.4433  0.3684
 3868TIP3   OH233162   2.415   1.280   0.185  0.2555 -0.1655 -0.6449
 3868TIP3    H133163   2.334   1.231   0.198 -0.3182  0.7968 -0.4913
 3868TIP3    H233164   2.452   1.244   0.105 -0.2673 -0.6840 -0.6652
 3869TIP3   OH233165   6.738   2.733   3.025  0.3513 -0.1221 -0.0442
 3869TIP3    H133166   6.693   2.670   3.081 -0.1007 -0.1573 -0.4373
 3869TIP3    H233167   6.739   2.815   3.075 -0.2167 -0.1035 -0.0581
 3870TIP3   OH233168   1.954   3.643   8.665 -0.0210 -0.1500 -0.2978
 3870TIP3    H133169   2.005   3.697   8.725  1.6167 -0.2814 -1.5162
 3870TIP3    H233170   1.884   3.607   8.719  1.7206 -0.7128  1.6736
 3871TIP3   OH233171   3.313   3.314   0.185 -0.1302 -0.3628 -0.0412
 3871TIP3    H133172   3.248   3.383   0.202  2.6949  2.4478  0.4532
 3871TIP3    H233173   3.360   3.305   0.268 -0.4699 -3.0904 -0.0718
 3872TIP3   OH233174   3.817   2.562   0.067  0.0511  0.5696  0.0703
 3872TIP3    H133175   3.850   2.542   0.154  0.0559 -2.1048 -0.4471
 3872TIP3    H233176   3.724   2.540   0.071  0.4573 -1.6639 -1.0738
 3873TIP3   OH233177   1.934   3.186   1.361  0.3941  0.7808  0.4229
 3873TIP3    H133178   1.857   3.137   1.389 -1.1452  2.5604 -0.5341
 3873TIP3    H233179   1.967   3.138   1.286 -0.3587  0.5262  0.2480
 3874TIP3   OH233180   3.939   1.846   1.676  0.5620 -0.9288 -0.0697
 3874TIP3    H133181   3.960   1.826   1.767 -1.9413 -0.3331  0.7190
 3874TIP3    H233182   3.897   1.932   1.680 -1.6307 -1.8502 -1.4188
 3875TIP3   OH233183   0.666   1.822   0.122  0.2737  0.0530 -0.2780
 3875TIP3    H133184   0.577   1.791   0.106  0.6011 -0.9992 -0.0882
 3875TIP3    H233185   0.676   1.820   0.217  0.2027  1.0474 -0.2352
 3876TIP3   OH233186   1.375   6.495   0.431 -0.0923 -0.7531  0.5010
 3876TIP3    H133187   1.414   6.572   0.389 -1.3887  0.2117  0.9868
 3876TIP3    H233188   1.336   6.446   0.359  0.1282 -0.5876  0.2646
 3877TIP3   OH233189   4.096   1.718   8.159 -0.6214  0.4019 -0.0596
 3877TIP3    H133190   4.033   1.777   8.119  1.3200  1.2089 -2.1256
 3877TIP3    H233191   4.180   1.762   8.149  0.4662 -1.1912  1.4542
 3878TIP3   OH233192   0.120   6.680   8.172 -0.2840 -0.1531  0.1524
 3878TIP3    H133193   0.067   6.655   8.248  0.1191  1.7682  1.1181
 3878TIP3    H233194   0.066   6.742   8.124 -0.2412 -0.8008 -0.7681
 3879TIP3   OH233195   3.750   3.893   8.222  0.4386  0.5104 -0.7697
 3879TIP3    H133196   3.842   3.917   8.230  0.6655 -0.7657  0.8472
 3879TIP3    H233197   3.729   3.848   8.304 -1.7231  1.0541 -0.9537
 3880TIP3   OH233198   0.233   4.359   2.083  0.0103  0.1908 -0.2311
 3880TIP3    H133199   0.249   4.407   2.164 -0.4134 -1.0832  0.6260
 3880TIP3    H233200   0.295   4.287   2.084  0.2952  0.3910 -1.2671
 3881TIP3   OH233201   6.773   3.645   8.379 -0.0639  0.7336 -0.2229
 3881TIP3    H133202   6.758   3.566   8.326 -1.4322 -0.1693  1.4159
 3881TIP3    H233203   6.868   3.651   8.385  0.1304 -2.1874  1.4897
 3882TIP3   OH233204   5.297   1.178   7.433 -0.1344  0.2816 -0.5828
 3882TIP3    H133205   5.209   1.194   7.398  0.2795  0.8093 -1.4237
 3882TIP3    H233206   5.285   1.108   7.497 -1.1578  0.3032 -0.7317
 3883TIP3   OH233207   4.786   0.583   1.480  0.1590  0.5996 -0.1022
 3883TIP3    H133208   4.738   0.505   1.510  1.2770 -0.1415 -0.1769
 3883TIP3    H233209   4.836   0.552   1.404  0.9655  1.2789  0.1384
 3884TIP3   OH233210   1.937   2.702   7.477 -0.3113  0.7356  0.1862
 3884TIP3    H133211   1.889   2.681   7.397  0.4387 -1.2297  0.1951
 3884TIP3    H233212   2.029   2.692   7.454 -0.0610  0.8649  1.0926
 3885TIP3   OH233213   1.805   5.321   0.239  0.1578 -0.0511 -0.4800
 3885TIP3    H133214   1.818   5.298   0.331 -1.4613 -1.6802 -0.6020
 3885TIP3    H233215   1.719   5.287   0.218  0.3365  0.6341 -2.5220
 3886TIP3   OH233216   6.384   3.604   8.596  0.7537 -0.6724  0.4517
 3886TIP3    H133217   6.475   3.607   8.625  0.7918 -1.1698  0.3756
 3886TIP3    H233218   6.347   3.528   8.641  0.7603 -1.3410 -0.6547
 3887TIP3   OH233219   5.304   1.976   1.898  0.1499 -0.2685 -0.2689
 3887TIP3    H133220   5.296   2.052   1.956  1.2482  0.5708 -1.1801
 3887TIP3    H233221   5.345   1.908   1.952 -0.7414 -0.2024  0.5220
 3888TIP3   OH233222   3.581   6.556   3.300  0.0311  0.0327  0.9086
 3888TIP3    H133223   3.554   6.465   3.316 -0.0495  0.1819  1.6099
 3888TIP3    H233224   3.515   6.589   3.238  0.3288 -0.5260  0.2807
 3889TIP3   OH233225   1.560   1.577   8.254  0.2883 -0.3096 -0.6249
 3889TIP3    H133226   1.597   1.598   8.340  0.8693  0.6366 -1.0916
 3889TIP3    H233227   1.482   1.525   8.274 -0.5291  1.3002  0.5506
 3890TIP3   OH233228   6.311   3.719   8.364 -0.1628  0.1871  0.1273
 3890TIP3    H133229   6.370   3.685   8.430 -0.4538 -1.1340 -0.2734
 3890TIP3    H233230   6.337   3.675   8.283 -0.9999  0.3941 -0.2676
 3891TIP3   OH233231   4.853   2.802   1.294 -0.2208 -0.1761  0.2927
 3891TIP3    H133232   4.890   2.887   1.316 -1.0150  0.6049 -1.2568
 3891TIP3    H233233   4.809   2.773   1.375  1.6142 -0.0131  1.4014
 3892TIP3   OH233234   0.218   1.775   1.293  0.4161  0.2765 -0.4767
 3892TIP3    H133235   0.212   1.824   1.375  2.2277 -2.5101  1.5306
 3892TIP3    H233236   0.305   1.796   1.259  0.2929  0.2211 -0.8246
 3893TIP3   OH233237   4.141   2.180   1.202  0.2286 -1.0612 -0.1624
 3893TIP3    H133238   4.091   2.118   1.150  0.5778 -1.7192  0.2807
 3893TIP3    H233239   4.074   2.234   1.245 -0.0659  0.0873 -1.9576
 3894TIP3   OH233240   3.715   0.730   1.460 -0.1417 -0.2777 -0.0369
 3894TIP3    H133241   3.756   0.645   1.473 -0.9778 -0.9755 -1.6367
 3894TIP3    H233242   3.742   0.756   1.371  0.5652  1.4123  0.6312
 3895TIP3   OH233243   3.772   2.004   8.270  0.4981 -0.7258  0.2934
 3895TIP3    H133244   3.834   2.043   8.332  0.8900  0.4887 -0.8089
 3895TIP3    H233245   3.724   2.078   8.234 -1.2436 -1.5973  0.7033
 3896TIP3   OH233246   2.029   5.737   8.517  0.1798 -0.2772  0.4021
 3896TIP3    H133247   2.031   5.707   8.608 -0.2473  1.9262  1.1950
 3896TIP3    H233248   1.938   5.762   8.502  0.3106 -0.3191 -0.5498
 3897TIP3   OH233249   3.242   5.917   1.507  0.0984 -0.8766 -0.4742
 3897TIP3    H133250   3.239   5.954   1.596  1.4387 -1.5706 -0.1081
 3897TIP3    H233251   3.333   5.928   1.480 -0.2143 -1.0057 -1.6357
 3898TIP3   OH233252   2.444   4.631   0.099  0.4955 -0.1079 -0.1855
 3898TIP3    H133253   2.394   4.619   0.018 -0.9823  1.0269  0.5206
 3898TIP3    H233254   2.499   4.707   0.083 -1.1719  1.3007  0.4582
 3899TIP3   OH233255   3.362   0.514   1.751  0.2307  0.1585 -0.1825
 3899TIP3    H133256   3.369   0.507   1.847 -0.5069  0.4629 -0.1000
 3899TIP3    H233257   3.284   0.568   1.737 -0.8684 -1.5672 -0.9846
 3900TIP3   OH233258   3.570   6.229   1.638 -0.3063 -0.2736  0.4324
 3900TIP3    H133259   3.484   6.271   1.631 -0.8364 -1.4318 -0.2780
 3900TIP3    H233260   3.625   6.277   1.577 -0.2499  0.9046  1.3784
 3901TIP3   OH233261   2.986   0.894   7.648  0.0701  0.0163  0.5761
 3901TIP3    H133262   2.916   0.832   7.668 -0.3513  0.6862  1.2044
 3901TIP3    H233263   2.990   0.951   7.724  0.0418  1.1559 -0.2560
 3902TIP3   OH233264   1.889   5.209   1.778 -0.0826 -0.1076  0.4379
 3902TIP3    H133265   1.971   5.183   1.737 -0.3431  1.2594 -1.0446
 3902TIP3    H233266   1.912   5.287   1.830 -0.3433 -0.0028  0.4005
 3903TIP3   OH233267   3.585   0.046   2.807 -0.0120  0.4264  0.6881
 3903TIP3    H133268   3.511   0.096   2.844  0.0052  0.6651  0.4024
 3903TIP3    H233269   3.616  -0.007   2.881  0.2145  1.1268  1.1108
 3904TIP3   OH233270   2.931   1.396   0.848  0.2281 -0.1683  0.2958
 3904TIP3    H133271   2.883   1.314   0.840 -2.3511  1.2299  0.3670
 3904TIP3    H233272   2.941   1.409   0.942  1.5455 -0.8500  0.2698
 3905TIP3   OH233273   6.552   1.716   2.230  0.4805 -0.4137 -0.4530
 3905TIP3    H133274   6.647   1.714   2.232  0.5038 -0.8675 -1.2561
 3905TIP3    H233275   6.531   1.767   2.151  0.0349  1.1135  0.6126
 3906TIP3   OH233276   1.530   0.091   0.984 -0.2539  0.1159 -0.2896
 3906TIP3    H133277   1.621   0.079   0.955 -0.6693  0.2115 -1.6682
 3906TIP3    H233278   1.529   0.053   1.072  1.1243  0.1134 -0.2431
 3907TIP3   OH233279   0.033   1.634   3.063  0.4386 -0.1414  0.7191
 3907TIP3    H133280   0.005   1.623   2.972 -2.7607 -1.2477  1.7160
 3907TIP3    H233281   0.079   1.553   3.084  1.2992  0.1694  0.0963
 3908TIP3   OH233282   0.855   5.677   0.598  0.0994 -0.2292  0.4170
 3908TIP3    H133283   0.850   5.719   0.684 -0.6517 -0.9675  0.7444
 3908TIP3    H233284   0.881   5.586   0.617  1.5425  0.0155 -0.2661
 3909TIP3   OH233285   6.695   6.288   8.595 -0.0900 -0.0581 -0.2928
 3909TIP3    H133286   6.750   6.294   8.673  1.2183  1.7651 -1.2762
 3909TIP3    H233287   6.666   6.197   8.593  1.9836 -0.8141  0.9094
 3910TIP3   OH233288   1.622   1.069   0.569  0.5385  0.4523 -0.6368
 3910TIP3    H133289   1.695   1.122   0.600 -0.6482  1.0649  1.3514
 3910TIP3    H233290   1.556   1.078   0.638 -1.4218 -0.0312 -2.3522
 3911TIP3   OH233291   0.096   2.463   2.171 -0.1270 -0.2547  0.3210
 3911TIP3    H133292   0.135   2.475   2.258 -0.5185  0.5681  0.3848
 3911TIP3    H233293   0.014   2.416   2.188  0.0937 -0.6463  0.3282
 3912TIP3   OH233294   3.208   4.093   1.616 -0.0391  0.4903 -0.6229
 3912TIP3    H133295   3.212   4.188   1.613 -0.9344  0.5329 -0.5334
 3912TIP3    H233296   3.115   4.072   1.622  0.2235 -0.2723  3.2022
 3913TIP3   OH233297   4.573   5.266   1.090  0.0017  0.1759 -0.3232
 3913TIP3    H133298   4.667   5.252   1.103  0.2086  0.2571 -1.6555
 3913TIP3    H233299   4.553   5.341   1.147  0.7791  0.2674 -0.1556
 3914TIP3   OH233300   1.587   5.421   8.463 -0.2035  0.0865  0.1956
 3914TIP3    H133301   1.636   5.502   8.448 -0.2895  0.1722  0.3773
 3914TIP3    H233302   1.648   5.351   8.440  0.7158  0.1092  2.3368
 3915TIP3   OH233303   5.728   3.291   1.529 -0.7005  0.4071 -0.0069
 3915TIP3    H133304   5.689   3.358   1.585 -1.1489  0.0579  0.1010
 3915TIP3    H233305   5.820   3.317   1.521 -0.8763  1.0538  0.0073
 3916TIP3   OH233306   6.227   6.691   2.458  0.3106 -0.6632  0.4000
 3916TIP3    H133307   6.308   6.669   2.412  0.0103 -1.6559  0.3314
 3916TIP3    H233308   6.201   6.775   2.420  1.4474 -0.1906  0.6181
 3917TIP3   OH233309   2.131   1.973   8.137 -0.4476  0.0938 -0.5920
 3917TIP3    H133310   2.036   1.983   8.142 -0.4117  0.0161  3.1956
 3917TIP3    H233311   2.165   2.063   8.143 -0.2205  0.1031 -1.7157
 3918TIP3   OH233312   6.553   1.596   0.928  0.3044 -0.0843 -0.3175
 3918TIP3    H133313   6.534   1.681   0.888  2.1031 -0.9791 -3.3565
 3918TIP3    H233314   6.520   1.532   0.865  0.2906 -1.6570  1.2211
 3919TIP3   OH233315   2.319   2.161   1.879 -0.3004  0.1999  0.0215
 3919TIP3    H133316   2.414   2.174   1.884 -0.3474  0.4520  0.2335
 3919TIP3    H233317   2.303   2.083   1.933 -0.3126  0.6335  0.6600
 3920TIP3   OH233318   3.744   2.106   1.884 -0.7589  0.2353  0.0162
 3920TIP3    H133319   3.723   2.123   1.793 -0.4398  0.4024 -0.0306
 3920TIP3    H233320   3.688   2.033   1.909 -1.1803  0.4907 -0.1766
 3921TIP3   OH233321   4.200   6.702   2.255 -0.0304  0.2223 -0.2328
 3921TIP3    H133322   4.256   6.624   2.257  1.5928  1.3466  0.6594
 3921TIP3    H233323   4.204   6.731   2.164  1.1518  0.4619 -0.1237
 3922TIP3   OH233324   2.972   3.101   6.878  0.0010 -0.6014 -0.0588
 3922TIP3    H133325   2.891   3.090   6.829 -0.7837 -1.0162  1.2587
 3922TIP3    H233326   3.013   3.178   6.841 -1.0383 -0.3490 -0.7154
 3923TIP3   OH233327   0.132   4.881   1.999 -0.5332  0.0648 -0.5979
 3923TIP3    H133328   0.212   4.858   2.048 -0.2592 -3.1665 -2.2686
 3923TIP3    H233329   0.163   4.938   1.929 -0.0354  0.4534 -0.0731
 3924TIP3   OH233330   6.120   2.296   8.392 -0.1072 -0.4041 -0.0118
 3924TIP3    H133331   6.037   2.257   8.420 -0.0639 -0.6870 -0.2737
 3924TIP3    H233332   6.119   2.288   8.297 -2.2147  4.3414 -0.6982
 3925TIP3   OH233333   1.605   6.733   8.576 -0.1709 -0.4708  0.1586
 3925TIP3    H133334   1.691   6.692   8.589 -0.3669 -0.9194  0.0505
 3925TIP3    H233335   1.560   6.721   8.660 -0.6020 -1.3857 -0.1797
 3926TIP3   OH233336   2.269   6.513   1.690 -0.2167 -0.7023  0.0919
 3926TIP3    H133337   2.181   6.548   1.687 -0.4882 -1.3521  0.1815
 3926TIP3    H233338   2.322   6.581   1.732 -0.6185 -0.2060 -0.1975
 3927TIP3   OH233339   1.793   0.397   0.628 -0.0537 -0.2604  0.2591
 3927TIP3    H133340   1.770   0.455   0.701  0.2086 -0.0712  0.1931
 3927TIP3    H233341   1.865   0.344   0.662  0.4527  0.2238 -0.0519
 3928TIP3   OH233342   0.640   2.593   8.679 -0.1434  0.0310  0.2401
 3928TIP3    H133343   0.632   2.677   8.724 -0.7536  1.1099 -1.7533
 3928TIP3    H233344   0.611   2.611   8.589  1.6789 -1.8204 -0.8005
 3929TIP3   OH233345   0.108   0.778   1.107  0.0756  0.4281 -0.0684
 3929TIP3    H133346   0.146   0.785   1.194  1.0943  0.7707 -0.5215
 3929TIP3    H233347   0.181   0.755   1.050 -0.5528  0.3030 -0.8549
 3930TIP3   OH233348   3.599   1.411   3.114  0.3131  0.0566 -0.0993
 3930TIP3    H133349   3.542   1.390   3.041 -1.7280  1.8361  0.8463
 3930TIP3    H233350   3.686   1.423   3.075 -1.0635  3.0040 -2.6509
 3931TIP3   OH233351   1.683   5.668   6.904  0.3080  0.3125  0.0526
 3931TIP3    H133352   1.587   5.663   6.900  0.3543 -2.5624  0.2182
 3931TIP3    H233353   1.704   5.643   6.994  1.2163 -3.7780 -1.0770
 3932TIP3   OH233354   5.693   1.331   0.229 -0.7714  0.1680 -0.1762
 3932TIP3    H133355   5.736   1.246   0.241  0.8261  1.1127  1.4944
 3932TIP3    H233356   5.763   1.389   0.198 -1.0286  1.4939  1.5158
 3933TIP3   OH233357   5.482   1.104   2.696  0.1540  0.1639  0.2645
 3933TIP3    H133358   5.469   1.145   2.782 -0.2134 -0.2121  0.3958
 3933TIP3    H233359   5.474   1.010   2.714  0.8296  0.0432 -0.0551
 3934TIP3   OH233360   2.724   1.210   1.238 -0.2623 -0.6288  0.3521
 3934TIP3    H133361   2.794   1.150   1.214  0.0932 -1.0928  2.4100
 3934TIP3    H233362   2.652   1.188   1.179  1.5206  0.4439 -2.4431
 3935TIP3   OH233363   3.252   5.242   0.537  0.1544 -0.3542  0.2860
 3935TIP3    H133364   3.346   5.256   0.526  0.4706 -1.8381  0.9571
 3935TIP3    H233365   3.245   5.164   0.591 -1.4756 -0.2636  0.2556
 3936TIP3   OH233366   4.045   1.988   8.630  0.4210 -0.7441  0.0539
 3936TIP3    H133367   4.140   1.977   8.617  0.0516 -1.6401 -2.3350
 3936TIP3    H233368   4.008   1.902   8.611 -0.8505 -0.5951  1.6631
 3937TIP3   OH233369   4.791   1.963   1.235 -0.4904 -0.3405  0.1485
 3937TIP3    H133370   4.754   1.875   1.234 -1.6434 -0.0525  3.7298
 3937TIP3    H233371   4.715   2.021   1.225  0.0260  0.2538 -0.4004
 3938TIP3   OH233372   3.553   0.011   7.708  0.5212 -0.0590 -0.1678
 3938TIP3    H133373   3.608   0.052   7.775  1.9055  0.9879 -1.8625
 3938TIP3    H233374   3.609   0.007   7.631 -1.1589 -0.8623 -1.4002
 3939TIP3   OH233375   3.191   2.803   0.761 -0.0098 -0.0468  0.4810
 3939TIP3    H133376   3.114   2.759   0.796  0.4723  0.2394  1.9856
 3939TIP3    H233377   3.262   2.779   0.821  0.8396  0.5803 -0.2389
 3940TIP3   OH233378   5.971   5.270   0.880 -0.1755 -0.2925  0.1226
 3940TIP3    H133379   5.879   5.286   0.903  0.0200  1.0666  0.0777
 3940TIP3    H233380   5.975   5.177   0.861 -1.6785 -0.2775 -0.4456
 3941TIP3   OH233381   0.917   6.663   1.827 -0.4001 -0.2292 -0.3817
 3941TIP3    H133382   0.889   6.606   1.756 -2.7155 -0.2232  0.4652
 3941TIP3    H233383   0.856   6.737   1.825  2.2477  2.1106 -1.1929
 3942TIP3   OH233384   5.284   0.114   3.189  0.3510  0.1479 -0.4844
 3942TIP3    H133385   5.235   0.033   3.200  0.3803  0.0611 -0.9783
 3942TIP3    H233386   5.250   0.172   3.258 -0.1026 -0.0714 -0.5199
 3943TIP3   OH233387   6.611   4.375   1.021  0.4052 -0.3831 -0.0162
 3943TIP3    H133388   6.591   4.463   1.051  0.4464 -0.3491 -0.0883
 3943TIP3    H233389   6.695   4.383   0.975  0.2713 -0.4068 -0.2689
 3944TIP3   OH233390   6.146   4.118   0.929 -0.4130 -0.5188  0.0264
 3944TIP3    H133391   6.187   4.169   0.859 -1.8892  0.9450  0.1678
 3944TIP3    H233392   6.201   4.133   1.006  0.1042 -0.5379 -0.3345
 3945TIP3   OH233393   1.088   4.879   0.028 -0.4997 -0.3282  0.3910
 3945TIP3    H133394   1.094   4.954  -0.030  0.5010 -1.6272 -1.2710
 3945TIP3    H233395   1.164   4.888   0.087 -0.2005 -0.2045 -0.0098
 3946TIP3   OH233396   1.051   2.462   0.378 -0.5846  0.2888  0.2454
 3946TIP3    H133397   1.050   2.423   0.465 -1.4230  0.5027  0.3337
 3946TIP3    H233398   1.043   2.556   0.393  0.3393  0.4266 -0.0231
 3947TIP3   OH233399   6.412   6.702   1.530 -0.1936  0.3440 -0.0613
 3947TIP3    H133400   6.416   6.641   1.604  1.9195  1.6438  0.9996
 3947TIP3    H233401   6.386   6.785   1.569  2.7797  1.5172 -0.3221
 3948TIP3   OH233402   4.214   4.800   1.044  0.3954 -0.5864 -1.3501
 3948TIP3    H133403   4.129   4.812   1.087  0.7584 -0.7494 -0.5867
 3948TIP3    H233404   4.198   4.828   0.953  0.3770  2.7200 -0.4729
 3949TIP3   OH233405   1.580   4.382   1.108 -0.4670 -0.3406 -0.4459
 3949TIP3    H133406   1.519   4.353   1.175 -0.3414 -0.1754 -0.2573
 3949TIP3    H233407   1.662   4.339   1.130 -0.3889 -0.1758 -0.4066
 3950TIP3   OH233408   4.943   1.330   0.469  0.0098  0.2009  0.3798
 3950TIP3    H133409   4.956   1.292   0.381 -0.5306 -1.4945  0.9975
 3950TIP3    H233410   4.861   1.291   0.500  1.4485 -1.2231  2.6263
 3951TIP3   OH233411   4.209   5.907   0.739 -0.3020  0.0235 -0.3991
 3951TIP3    H133412   4.160   5.862   0.670  1.7849 -0.7480 -1.4812
 3951TIP3    H233413   4.271   5.963   0.691 -0.0938  0.9545  0.9037
 3952TIP3   OH233414   2.110   1.720   8.053 -0.3171  0.0240  1.2141
 3952TIP3    H133415   2.147   1.647   8.103 -0.0413 -0.6402  0.0774
 3952TIP3    H233416   2.102   1.791   8.117  3.4671  0.4479  1.4894
 3953TIP3   OH233417   6.643   6.460   2.963 -0.1352 -0.0290  0.4089
 3953TIP3    H133418   6.681   6.547   2.977  1.9416 -0.7786 -0.1389
 3953TIP3    H233419   6.564   6.459   3.016 -0.2843  2.2379  0.3013
 3954TIP3   OH233420   6.683   0.655   0.409 -0.4054  0.3180  0.0245
 3954TIP3    H133421   6.729   0.659   0.493  0.8838 -0.7269 -0.6054
 3954TIP3    H233422   6.652   0.564   0.403  0.2160  0.1599 -0.9844
 3955TIP3   OH233423   2.440   3.242   8.685  0.3111  0.2128 -0.3010
 3955TIP3    H133424   2.431   3.320   8.739  0.2856 -0.6849  1.0266
 3955TIP3    H233425   2.533   3.240   8.662  0.4892  0.1656  0.3988
 3956TIP3   OH233426   3.394   4.559   1.012  0.8259 -0.3356 -0.1901
 3956TIP3    H133427   3.362   4.500   1.081  0.7349 -1.5648 -1.2581
 3956TIP3    H233428   3.403   4.504   0.935  0.7481  1.0509 -1.2376
 3957TIP3   OH233429   4.437   1.469   8.362  0.2867 -0.3109  0.4644
 3957TIP3    H133430   4.432   1.462   8.267 -0.4972 -0.5134  0.5124
 3957TIP3    H233431   4.472   1.557   8.378 -1.2637  0.4287 -0.0021
 3958TIP3   OH233432   4.375   2.199   1.743 -0.2884 -0.0503 -0.0453
 3958TIP3    H133433   4.355   2.109   1.771  0.3935 -0.5452 -1.0809
 3958TIP3    H233434   4.470   2.200   1.734 -0.2634  0.8823  0.2645
 3959TIP3   OH233435   5.138   0.224   3.391  0.2402  0.1903  0.0039
 3959TIP3    H133436   5.083   0.151   3.419 -0.3066  0.1258 -1.1664
 3959TIP3    H233437   5.134   0.287   3.463 -0.2606 -0.4099  0.5074
 3960TIP3   OH233438   4.189   5.452   2.681  0.0538  0.3853  0.0787
 3960TIP3    H133439   4.112   5.437   2.736 -2.1139 -0.0307 -2.8220
 3960TIP3    H233440   4.174   5.538   2.642  1.1082  0.3369 -0.4663
 3961TIP3   OH233441   2.102   3.947   8.521  0.5107  0.6324 -0.4537
 3961TIP3    H133442   2.161   3.994   8.580  2.9454 -0.3634 -1.9697
 3961TIP3    H233443   2.102   3.857   8.553  1.2589  0.2472 -1.4796
 3962TIP3   OH233444   0.361   4.016   7.916 -0.3073 -0.0675 -0.2488
 3962TIP3    H133445   0.300   4.006   7.843 -1.3178 -1.3256  0.7387
 3962TIP3    H233446   0.430   3.951   7.898  0.3467  0.7879 -0.9337
 3963TIP3   OH233447   6.790   0.543   2.593  0.1695  0.1310 -0.5094
 3963TIP3    H133448   6.698   0.538   2.620 -0.2508  1.1477 -1.6839
 3963TIP3    H233449   6.806   0.636   2.581  1.8465  0.1248  1.2105
 3964TIP3   OH233450   5.633   5.087   0.244 -0.4250  0.1021 -0.2902
 3964TIP3    H133451   5.714   5.051   0.279 -0.9262  0.0882  0.9066
 3964TIP3    H233452   5.634   5.063   0.151  1.4213  0.9795 -0.5556
 3965TIP3   OH233453   6.642   0.685   1.350  0.2907  0.1351 -0.6148
 3965TIP3    H133454   6.632   0.607   1.405 -2.2158 -0.3414 -1.5613
 3965TIP3    H233455   6.657   0.756   1.411 -2.0206 -0.4294  0.7510
 3966TIP3   OH233456   0.513   1.929   2.819  0.1090  0.0480  0.3160
 3966TIP3    H133457   0.487   1.979   2.896 -0.6196 -0.4772  0.4234
 3966TIP3    H233458   0.504   1.838   2.845 -0.6340 -0.1373 -0.5285
 3967TIP3   OH233459   4.201   2.089   8.300 -0.2447  0.4010 -0.2238
 3967TIP3    H133460   4.288   2.086   8.340  0.8262 -1.3565 -2.4578
 3967TIP3    H233461   4.182   1.999   8.277 -1.7406  1.0309 -1.6533
 3968TIP3   OH233462   3.583   2.309   2.344 -0.3745 -0.0934  0.4799
 3968TIP3    H133463   3.642   2.351   2.282 -0.1359 -0.3430  0.5368
 3968TIP3    H233464   3.557   2.228   2.302 -0.8797  0.1296  0.3454
 3969TIP3   OH233465   0.892   1.497   0.653  0.2445  0.4045  0.8156
 3969TIP3    H133466   0.837   1.424   0.623 -1.0541  0.9186  1.8450
 3969TIP3    H233467   0.919   1.541   0.572 -0.1150 -0.3998  0.2438
 3970TIP3   OH233468   2.117   0.897   0.186 -0.0796  0.4971 -0.2973
 3970TIP3    H133469   2.178   0.947   0.131  0.8338 -0.7330 -0.4454
 3970TIP3    H233470   2.147   0.806   0.179 -1.7393 -0.1050 -0.0953
 3971TIP3   OH233471   3.354   3.324   2.167 -0.3107  0.0741  0.5490
 3971TIP3    H133472   3.269   3.335   2.209 -1.2266 -2.2057 -0.5168
 3971TIP3    H233473   3.353   3.234   2.134  2.1512  0.2876 -0.3355
 3972TIP3   OH233474   3.424   3.126   8.305 -0.3849 -0.1598 -0.2506
 3972TIP3    H133475   3.502   3.095   8.258 -0.7049 -3.2305  0.9627
 3972TIP3    H233476   3.458   3.159   8.388 -0.2842 -1.5374  0.2969
 3973TIP3   OH233477   2.469   4.683   7.033  0.2891  0.8717 -0.6428
 3973TIP3    H133478   2.459   4.601   7.081 -1.1888  1.2372 -0.2723
 3973TIP3    H233479   2.414   4.672   6.955  1.9672  0.6243 -1.8478
 3974TIP3   OH233480   1.280   0.207   8.565  0.0899 -1.0045  0.0729
 3974TIP3    H133481   1.211   0.143   8.587 -0.2805 -0.5942  0.1104
 3974TIP3    H233482   1.247   0.253   8.488  0.3172 -0.7916  0.1005
 3975TIP3   OH233483   5.623   6.042   0.389  0.3921  0.1087  0.4025
 3975TIP3    H133484   5.677   6.096   0.331 -0.5458 -0.3384 -0.9479
 3975TIP3    H233485   5.681   5.973   0.419  0.7252 -0.0740 -0.6178
 3976TIP3   OH233486   6.564   2.164   8.032 -0.0724 -0.6896  0.2903
 3976TIP3    H133487   6.498   2.115   8.082 -0.5556 -0.1200  0.2338
 3976TIP3    H233488   6.521   2.248   8.013  1.0031  0.0498  1.0244
 3977TIP3   OH233489   0.664   0.891   2.696 -0.1065  0.0572 -0.3174
 3977TIP3    H133490   0.590   0.848   2.739  0.9073  0.2991  1.8026
 3977TIP3    H233491   0.686   0.965   2.754  1.6716  0.0977 -0.9671
 3978TIP3   OH233492   0.365   2.190   2.475  0.4192  0.4188 -0.5932
 3978TIP3    H133493   0.306   2.147   2.413  0.4760  0.0417 -0.3893
 3978TIP3    H233494   0.388   2.272   2.433  0.4152  0.1887 -1.0490
 3979TIP3   OH233495   4.948   4.877   8.640 -0.0807 -0.0113 -0.3494
 3979TIP3    H133496   4.985   4.937   8.705 -0.2094  0.3953 -0.6469
 3979TIP3    H233497   4.860   4.911   8.624  0.3563  0.5843 -1.5826
 3980TIP3   OH233498   6.231   2.845   7.359 -0.6768  0.0984 -0.0841
 3980TIP3    H133499   6.204   2.757   7.335 -1.1473  0.1863  0.1154
 3980TIP3    H233500   6.154   2.899   7.344 -1.8394 -0.1921  3.8692
 3981TIP3   OH233501   3.062   3.521   2.373 -0.7530 -0.4826 -0.7311
 3981TIP3    H133502   3.084   3.469   2.450  1.4131 -0.5673 -1.3589
 3981TIP3    H233503   3.061   3.457   2.301  0.8525  0.1212 -1.3271
 3982TIP3   OH233504   4.583   6.516   0.545 -0.0380 -0.0927 -0.0771
 3982TIP3    H133505   4.649   6.463   0.589  0.6633  1.6028  1.0018
 3982TIP3    H233506   4.500   6.473   0.566  0.5186 -0.8103  0.6888
 3983TIP3   OH233507   6.765   5.639   2.275 -0.4738  0.2508  0.0777
 3983TIP3    H133508   6.671   5.634   2.262 -0.4995 -1.4891  0.7743
 3983TIP3    H233509   6.801   5.568   2.222  0.3298  0.0484  0.8767
 3984TIP3   OH233510   1.798   1.878   8.390 -0.0858 -0.0122  0.5170
 3984TIP3    H133511   1.750   1.916   8.316 -0.7528 -1.0221  0.4227
 3984TIP3    H233512   1.771   1.930   8.466  1.0790  1.4485 -0.0023
 3985TIP3   OH233513   2.504   1.549   7.053  0.1295  0.0776  0.5915
 3985TIP3    H133514   2.477   1.622   7.110 -1.3829  1.3842 -1.6176
 3985TIP3    H233515   2.529   1.480   7.114 -0.2583  1.7537  2.8266
 3986TIP3   OH233516   1.621   0.306   7.824  0.3201 -0.5548  0.0125
 3986TIP3    H133517   1.612   0.366   7.898 -2.4466 -0.7015 -0.1152
 3986TIP3    H233518   1.596   0.358   7.748 -1.5934 -1.6472 -0.1650
 3987TIP3   OH233519   6.270   0.102   0.153  0.3780  0.2884  0.6062
 3987TIP3    H133520   6.333   0.047   0.199  0.5551 -0.2955 -0.3116
 3987TIP3    H233521   6.270   0.185   0.202  3.3169  1.0443 -0.4643
 3988TIP3   OH233522   6.634   0.174   2.438  0.0994 -0.3649 -0.3426
 3988TIP3    H133523   6.599   0.148   2.523  0.7009  1.1242  0.3928
 3988TIP3    H233524   6.566   0.228   2.398 -0.1872 -1.0712 -0.8232
 3989TIP3   OH233525   6.500   4.308   1.958 -0.0546  0.0187 -0.2823
 3989TIP3    H133526   6.491   4.288   2.051 -0.2097  0.9206 -0.0925
 3989TIP3    H233527   6.522   4.401   1.956 -0.2096  0.0442 -1.1567
 3990TIP3   OH233528   4.182   4.275   0.299  0.0080  0.3954  0.1330
 3990TIP3    H133529   4.244   4.315   0.238 -0.0865  0.4260  0.0566
 3990TIP3    H233530   4.222   4.192   0.323 -0.1514  0.1863 -0.3065
 3991TIP3   OH233531   1.295   4.511   2.584 -0.0508  0.0770 -0.3764
 3991TIP3    H133532   1.218   4.459   2.563 -0.4934  1.5320 -2.6819
 3991TIP3    H233533   1.273   4.554   2.667 -0.1878 -2.2251  0.8807
 3992TIP3   OH233534   6.311   4.486   1.643  0.2492  0.4195  0.2599
 3992TIP3    H133535   6.255   4.547   1.596  0.2775 -0.0115 -0.3448
 3992TIP3    H233536   6.396   4.492   1.598 -0.3954 -1.8577 -1.4187
 3993TIP3   OH233537   0.359   4.116   2.023  0.1972 -0.3879  0.0506
 3993TIP3    H133538   0.319   4.038   1.984 -0.8261 -0.0359  0.3726
 3993TIP3    H233539   0.441   4.127   1.976 -0.1408 -1.0615 -0.7125
 3994TIP3   OH233540   6.265   4.722   7.979  0.2400  0.4160 -0.6512
 3994TIP3    H133541   6.203   4.705   7.907  1.2366 -2.5084 -0.9546
 3994TIP3    H233542   6.241   4.657   8.046  1.2811  1.0572  0.3618
 3995TIP3   OH233543   5.886   3.594   2.160  0.4493 -0.1123 -0.7904
 3995TIP3    H133544   5.866   3.561   2.073 -0.6260  0.3318 -0.7275
 3995TIP3    H233545   5.801   3.593   2.206  0.4719  2.1521 -0.6051
 3996TIP3   OH233546   0.544   1.622   1.909  0.6294  0.2451  0.2356
 3996TIP3    H133547   0.490   1.701   1.919  1.5902  1.1625 -1.3420
 3996TIP3    H233548   0.482   1.553   1.888 -0.1517  0.7742  0.7451
 3997TIP3   OH233549   4.076   2.228   7.198  0.4436 -0.6723 -0.9807
 3997TIP3    H133550   3.998   2.210   7.249  1.1612  0.0462  0.4108
 3997TIP3    H233551   4.129   2.148   7.205  0.2642 -0.8040 -1.1255
 3998TIP3   OH233552   2.117   0.542   8.659 -0.3706 -0.5014  0.0962
 3998TIP3    H133553   2.133   0.626   8.614 -1.0863 -0.1419  0.4896
 3998TIP3    H233554   2.176   0.544   8.734  0.0179 -0.5943 -0.2110
 3999TIP3   OH233555   2.788   2.539   2.575  0.3937  0.6529  0.1625
 3999TIP3    H133556   2.773   2.629   2.604  0.0332  1.2298 -1.6977
 3999TIP3    H233557   2.777   2.487   2.654  0.3814  2.2127  1.2390
 4000TIP3   OH233558   2.605   2.003   1.617 -0.6177  0.3953  0.3949
 4000TIP3    H133559   2.519   2.034   1.590  0.1254  0.9201 -1.5369
 4000TIP3    H233560   2.621   1.926   1.562 -0.0402  0.0203  1.0738
 4001TIP3   OH233561   0.966   2.787   7.794 -0.4609  0.1439 -0.4746
 4001TIP3    H133562   0.882   2.786   7.839 -0.8597 -2.9397 -1.0492
 4001TIP3    H233563   1.031   2.770   7.862 -0.5955 -0.0754 -0.4006
 4002TIP3   OH233564   6.019   6.537   0.954 -0.7641 -0.7809  0.2574
 4002TIP3    H133565   5.980   6.536   1.041  0.8301 -1.5654  1.0038
 4002TIP3    H233566   6.086   6.468   0.956 -0.3375 -0.4744 -1.4172
 4003TIP3   OH233567   0.031   6.574   8.639 -0.4493  0.1733  0.1869
 4003TIP3    H133568   0.093   6.611   8.702 -0.5818 -1.2346  1.1987
 4003TIP3    H233569   0.033   6.634   8.565  0.3856  1.4025  1.1646
 4004TIP3   OH233570   6.699   0.408   8.638 -0.8596  0.1697 -0.0467
 4004TIP3    H133571   6.680   0.411   8.732 -1.8216 -1.0941 -0.1872
 4004TIP3    H233572   6.647   0.336   8.604 -0.6833  0.7280 -1.6082
 4005TIP3   OH233573   3.652   6.497   2.704  0.1796 -0.5017 -0.2225
 4005TIP3    H133574   3.657   6.401   2.704  2.2156 -0.5349  2.6863
 4005TIP3    H233575   3.573   6.517   2.756 -1.3883 -0.4893 -2.4767
 4006TIP3   OH233576   6.170   2.044   2.407 -0.6590 -0.4243 -0.2683
 4006TIP3    H133577   6.078   2.033   2.431 -1.1553 -0.4905 -2.0381
 4006TIP3    H233578   6.198   2.124   2.451 -2.2949  0.9472 -1.6013
 4007TIP3   OH233579   5.058   3.755   8.731  0.9129 -0.1473 -0.2649
 4007TIP3    H133580   5.063   3.676   8.677 -0.8354 -0.7106  0.3300
 4007TIP3    H233581   4.976   3.746   8.779  0.4620  2.2574 -0.4916
 4008TIP3   OH233582   6.037   1.579   1.595  0.0591  0.1800 -0.3411
 4008TIP3    H133583   6.030   1.549   1.685  0.1348 -0.2176 -0.4653
 4008TIP3    H233584   5.949   1.566   1.558 -0.3762  1.6769  0.0710
 4009TIP3   OH233585   3.121   0.664   8.227  1.0916 -0.2833  0.0690
 4009TIP3    H133586   3.187   0.657   8.296  0.9893  0.9521  0.3002
 4009TIP3    H233587   3.072   0.743   8.248 -0.3186 -1.0381 -0.2418
 4010TIP3   OH233588   1.089   5.238   2.185  0.3904  0.4302 -0.0872
 4010TIP3    H133589   1.153   5.237   2.256  1.6523  2.7530 -1.0691
 4010TIP3    H233590   1.120   5.307   2.126 -0.8009 -1.1259 -2.7201
 4011TIP3   OH233591   1.586   6.187   8.536 -0.0212  0.0378 -0.2522
 4011TIP3    H133592   1.597   6.104   8.490 -2.0319  0.8170 -2.3607
 4011TIP3    H233593   1.670   6.232   8.526  0.5659 -1.0781 -0.4963
 4012TIP3   OH233594   2.410   6.315   1.570  0.2891  0.9563  0.2957
 4012TIP3    H133595   2.352   6.337   1.498 -0.2105  0.3224  0.4905
 4012TIP3    H233596   2.390   6.379   1.638 -1.3651 -0.2128  0.9726
 4013TIP3   OH233597   6.781   1.563   2.481  0.3060 -0.2927 -0.3450
 4013TIP3    H133598   6.693   1.536   2.506  0.6471  0.1825  1.5547
 4013TIP3    H233599   6.784   1.657   2.501  1.3213 -0.3623 -0.1004
 4014TIP3   OH233600   1.850   6.682   0.145  0.3366 -0.0892  0.0777
 4014TIP3    H133601   1.904   6.676   0.224  0.3578 -2.0026 -0.0298
 4014TIP3    H233602   1.819   6.773   0.144  2.7862  0.8351  0.6189
 4015TIP3   OH233603   4.928   6.501   8.213  0.1429 -0.6606  0.6547
 4015TIP3    H133604   5.007   6.540   8.249  0.0423 -0.3784  0.5740
 4015TIP3    H233605   4.875   6.575   8.184  0.5275 -0.8849 -0.7186
 4016TIP3   OH233606   6.822   1.908   3.125  0.0887  0.0419  0.2064
 4016TIP3    H133607   6.907   1.918   3.080  0.1256 -1.0174  0.0292
 4016TIP3    H233608   6.820   1.817   3.154 -0.7862  0.1908  0.6470
 4017TIP3   OH233609   1.390   2.642   2.331 -0.6966 -0.2694 -0.0918
 4017TIP3    H133610   1.484   2.643   2.314 -0.6981 -0.3550 -0.1055
 4017TIP3    H233611   1.384   2.632   2.426 -0.6954 -1.0635 -0.1667
 4018TIP3   OH233612   1.377   5.237   8.275 -0.7199 -0.1394  0.1327
 4018TIP3    H133613   1.455   5.199   8.316 -0.7180  0.3391  0.5901
 4018TIP3    H233614   1.406   5.266   8.189  0.3009  2.3863  1.2456
 4019TIP3   OH233615   0.279   6.697   8.534  0.1012 -0.3079 -1.1673
 4019TIP3    H133616   0.228   6.764   8.489 -1.4965  0.8615  2.1066
 4019TIP3    H233617   0.339   6.746   8.590 -1.2530 -1.4543  1.4720
 4020TIP3   OH233618   0.859   4.955   2.739  0.1295  0.4023 -0.1349
 4020TIP3    H133619   0.863   5.016   2.665  2.4956 -2.4227 -2.6204
 4020TIP3    H233620   0.897   5.003   2.812  1.7746  1.9891 -1.9124
 4021TIP3   OH233621   1.315   3.469   7.360 -0.5871 -0.0716  0.1564
 4021TIP3    H133622   1.400   3.498   7.394 -1.7414 -0.9179  4.4136
 4021TIP3    H233623   1.337   3.410   7.288  2.3915  0.1457  0.7437
 4022TIP3   OH233624   1.230   3.752   8.207 -0.4362  0.6838  0.1918
 4022TIP3    H133625   1.203   3.752   8.116  1.5050  0.7767 -0.4357
 4022TIP3    H233626   1.240   3.845   8.229 -1.2154  0.6777  0.6304
 4023TIP3   OH233627   0.684   2.494   3.283 -0.1221 -0.2792 -0.1772
 4023TIP3    H133628   0.681   2.412   3.333 -2.7480  0.2072  0.6568
 4023TIP3    H233629   0.595   2.504   3.248  0.9980  0.6072 -3.0631
 4024TIP3   OH233630   5.875   4.075   0.584 -0.0378  0.4432  0.3937
 4024TIP3    H133631   5.933   4.067   0.508 -0.3025  1.5754  0.0506
 4024TIP3    H233632   5.912   4.149   0.633 -3.4049  4.0773 -1.9469
 4025TIP3   OH233633   1.293   1.762   3.059 -0.0825 -0.1215  0.7071
 4025TIP3    H133634   1.360   1.738   2.994 -0.9179  0.7613 -0.5250
 4025TIP3    H233635   1.338   1.756   3.143  1.7473  1.0850 -0.1272
 4026TIP3   OH233636   6.335   4.636   0.755  0.2011 -0.1878  0.8563
 4026TIP3    H133637   6.349   4.552   0.711 -1.2650 -0.0169 -0.0046
 4026TIP3    H233638   6.325   4.700   0.685 -0.9243  0.3054  1.4335
 4027TIP3   OH233639   4.806   4.039   2.134 -0.1210  0.1528 -0.0430
 4027TIP3    H133640   4.787   3.953   2.173  0.5436 -0.4628 -1.0140
 4027TIP3    H233641   4.855   4.086   2.202  0.8656 -0.8348 -0.0292
 4028TIP3   OH233642   1.961   0.020   7.649  0.2209 -0.0617 -0.1431
 4028TIP3    H133643   1.911   0.002   7.728 -0.6742 -0.5455 -0.8015
 4028TIP3    H233644   1.972   0.115   7.649  1.2784 -0.1495  1.1583
 4029TIP3   OH233645   6.056   0.110   2.444  0.3017  0.2196  0.2864
 4029TIP3    H133646   5.971   0.067   2.440  0.6440 -0.3895 -1.2956
 4029TIP3    H233647   6.036   0.204   2.436 -0.3696  0.3525  2.6590
 4030TIP3   OH233648   4.360   1.411   1.817 -0.4358  0.1005  0.3637
 4030TIP3    H133649   4.307   1.484   1.784  0.7430  0.7227 -0.2454
 4030TIP3    H233650   4.436   1.410   1.759 -1.6504 -3.3830 -1.4336
 4031TIP3   OH233651   4.481   0.176   1.066  0.9509  0.3625 -0.3581
 4031TIP3    H133652   4.503   0.238   1.135 -0.0832 -1.8663  2.1317
 4031TIP3    H233653   4.387   0.184   1.054  0.6334 -1.3261  0.7063
 4032TIP3   OH233654   0.907   6.143   1.556  0.2040  0.1965  0.1134
 4032TIP3    H133655   0.963   6.065   1.561 -0.7387 -0.5067  0.0563
 4032TIP3    H233656   0.865   6.148   1.641 -0.6226 -0.0575 -0.2630
 4033TIP3   OH233657   2.861   6.265   0.491  0.6101  0.6308 -0.4150
 4033TIP3    H133658   2.912   6.187   0.473  0.2205  0.6933 -1.9604
 4033TIP3    H233659   2.821   6.249   0.577 -0.8227 -1.6290 -1.4166
 4034TIP3   OH233660   4.877   4.813   7.862  0.1588 -0.4152  0.0404
 4034TIP3    H133661   4.859   4.800   7.769 -0.7084  2.2149 -0.2415
 4034TIP3    H233662   4.800   4.779   7.907  0.0291 -0.5349 -0.2710
 4035TIP3   OH233663   5.248   5.931   0.496 -0.0989  0.0140  0.5829
 4035TIP3    H133664   5.235   5.946   0.403 -0.4010  0.4054  0.6825
 4035TIP3    H233665   5.204   6.005   0.538  0.1716 -0.0743  1.0280
 4036TIP3   OH233666   0.491   2.793   1.637  0.0971 -0.1845  0.0613
 4036TIP3    H133667   0.519   2.799   1.728 -0.4423  0.0442  0.2124
 4036TIP3    H233668   0.400   2.823   1.637  0.0113 -0.4257 -0.5089
 4037TIP3   OH233669   2.725   3.766   0.025  0.1400  0.7003  0.2331
 4037TIP3    H133670   2.802   3.791   0.077  0.1053 -1.6448  1.5052
 4037TIP3    H233671   2.727   3.671   0.023 -0.6053  0.6280 -3.0416
 4038TIP3   OH233672   3.283   3.026   8.058 -0.4952  0.3514 -0.5312
 4038TIP3    H133673   3.374   3.018   8.030 -0.2670 -1.1991  0.5311
 4038TIP3    H233674   3.287   3.071   8.142 -0.5675 -0.7280  0.0764
 4039TIP3   OH233675   4.860   1.122   7.925  0.3371 -0.7485  0.0965
 4039TIP3    H133676   4.801   1.058   7.885 -0.5062 -0.4906  0.8932
 4039TIP3    H233677   4.944   1.109   7.880 -1.0784  1.0738 -3.5068
 4040TIP3   OH233678   6.119   0.973   1.168  0.1975  0.2578  0.5365
 4040TIP3    H133679   6.199   1.000   1.214  0.6878  0.4230 -0.4045
 4040TIP3    H233680   6.136   0.993   1.076 -0.7699 -0.0953  0.2732
 4041TIP3   OH233681   0.506   0.885   1.613  0.0725  0.8236  0.0184
 4041TIP3    H133682   0.547   0.919   1.533  0.2552  1.1362  0.2443
 4041TIP3    H233683   0.509   0.790   1.602  3.5556  0.6146  1.2906
 4042TIP3   OH233684   4.475   1.504   8.095 -0.3403  0.0206 -0.3205
 4042TIP3    H133685   4.567   1.492   8.116 -0.5050 -1.2339 -0.2510
 4042TIP3    H233686   4.471   1.590   8.053  0.5685  0.9364  1.3716
 4043TIP3   OH233687   1.436   3.431   7.901  0.6034  0.3073  0.3575
 4043TIP3    H133688   1.342   3.448   7.914  0.7808  1.3773  0.3905
 4043TIP3    H233689   1.458   3.366   7.968 -0.5816 -1.7058 -1.1257
 4044TIP3   OH233690   2.142   3.834   0.062  0.2353  0.3339 -0.2550
 4044TIP3    H133691   2.141   3.882   0.145  1.7185 -0.8530  0.5080
 4044TIP3    H233692   2.235   3.815   0.046 -0.1904 -1.1677 -1.1487
 4045TIP3   OH233693   0.113   0.179   1.864  0.1332 -0.5169 -0.0932
 4045TIP3    H133694   0.202   0.203   1.891 -0.3480  1.4427 -0.0892
 4045TIP3    H233695   0.056   0.227   1.924 -0.9423 -1.4720 -0.3156
 4046TIP3   OH233696   1.917   1.766   0.761 -0.2458  0.0471  0.5019
 4046TIP3    H133697   1.997   1.792   0.806 -0.4532 -0.4854  1.1929
 4046TIP3    H233698   1.899   1.838   0.700  0.3760  0.4891  0.8335
 4047TIP3   OH233699   5.456   4.944   0.047  0.5444  0.5526 -0.2177
 4047TIP3    H133700   5.498   4.905  -0.030  1.8090  0.9659  0.2248
 4047TIP3    H233701   5.500   4.904   0.121  0.0798  0.9420  0.2773
 4048TIP3   OH233702   4.538   5.818   7.129 -0.5644  0.5574  0.3680
 4048TIP3    H133703   4.581   5.899   7.101 -0.7244  1.4359  2.5030
 4048TIP3    H233704   4.445   5.840   7.132 -0.7183 -0.0106  0.0760
 4049TIP3   OH233705   0.627   5.383   2.356  0.5292 -0.1072  0.1501
 4049TIP3    H133706   0.682   5.428   2.421 -0.3211  1.5285 -0.2032
 4049TIP3    H233707   0.688   5.327   2.308  1.7607  1.0693  0.2726
 4050TIP3   OH233708   5.050   5.525   8.299  0.0525  0.2939 -0.0456
 4050TIP3    H133709   4.959   5.500   8.284 -0.3215  1.1937  0.6337
 4050TIP3    H233710   5.081   5.465   8.367  0.0891 -0.2484 -0.5337
 4051TIP3   OH233711   2.796   5.034   2.894  0.3509 -0.2627 -0.1300
 4051TIP3    H133712   2.816   4.944   2.918 -1.5831 -0.9924 -1.0670
 4051TIP3    H233713   2.758   5.028   2.807 -0.6391  1.3564  0.1481
 4052TIP3   OH233714   3.834   6.292   1.085 -0.6938  0.0952  0.2540
 4052TIP3    H133715   3.860   6.332   1.168 -1.1755  2.0393 -0.4929
 4052TIP3    H233716   3.917   6.268   1.043 -0.4205 -0.1288  0.9002
 4053TIP3   OH233717   3.559   3.651   1.019 -0.2585 -0.0434 -0.1429
 4053TIP3    H133718   3.508   3.725   0.984 -1.5571 -0.5627  0.5574
 4053TIP3    H233719   3.583   3.678   1.108 -0.7802 -0.4529  0.1345
 4054TIP3   OH233720   0.669   1.032   0.762  0.5208 -0.4041  0.0907
 4054TIP3    H133721   0.595   1.018   0.820  0.3452  0.1665  0.0013
 4054TIP3    H233722   0.744   0.994   0.809  0.1473 -1.1387  0.1006
 4055TIP3   OH233723   4.538   4.777   1.889 -0.3227  0.5182 -0.1573
 4055TIP3    H133724   4.540   4.852   1.830  2.5935  1.6031  1.1241
 4055TIP3    H233725   4.600   4.715   1.850 -0.6862 -0.0536  0.1766
 4056TIP3   OH233726   4.797   6.415   1.363  0.3542  0.0808 -0.3829
 4056TIP3    H133727   4.808   6.470   1.286 -3.0789  0.2679 -0.9163
 4056TIP3    H233728   4.754   6.336   1.330 -1.6196  0.3490  1.3151
 4057TIP3   OH233729   5.783   1.588   8.651  0.4238 -0.4296  0.2951
 4057TIP3    H133730   5.802   1.635   8.570  0.2791 -0.1887  0.3996
 4057TIP3    H233731   5.862   1.600   8.705 -0.3831  1.3946  1.1187
 4058TIP3   OH233732   4.020   6.514   1.980  0.0221 -0.6074 -1.1215
 4058TIP3    H133733   3.948   6.526   2.042  0.1516 -0.4098 -1.0114
 4058TIP3    H233734   4.086   6.465   2.028  0.9568  1.2291 -0.4671
 4059TIP3   OH233735   2.779   5.275   0.580 -0.1518 -0.0678  0.3714
 4059TIP3    H133736   2.846   5.257   0.514 -0.2333  0.8968  0.0157
 4059TIP3    H233737   2.698   5.284   0.531 -0.5079 -0.8949  0.7703
 4060TIP3   OH233738   1.855   6.121   8.657 -0.1330  0.0627  0.0619
 4060TIP3    H133739   1.829   6.080   8.575  0.5335  2.4626 -1.4493
 4060TIP3    H233740   1.921   6.062   8.694 -0.3076 -0.9708 -1.2170
 4061TIP3   OH233741   1.934   5.553   2.378 -0.2615  0.0169 -0.0908
 4061TIP3    H133742   1.864   5.489   2.361 -0.0456 -0.4567  0.7164
 4061TIP3    H233743   2.011   5.516   2.334 -0.2199 -0.1202  0.0918
 4062TIP3   OH233744   3.815   1.665   1.482  0.0791 -0.5633  0.8512
 4062TIP3    H133745   3.727   1.635   1.503  0.0939  0.2795  2.2347
 4062TIP3    H233746   3.835   1.731   1.548  1.0219  0.6488 -0.5623
 4063TIP3   OH233747   3.635   3.640   2.207  0.0716  0.3493 -0.2254
 4063TIP3    H133748   3.556   3.645   2.153 -0.9332  0.7833  1.2358
 4063TIP3    H233749   3.707   3.635   2.143 -1.0312  1.2510 -1.5981
 4064TIP3   OH233750   2.303   1.621   1.255  0.5537  0.2456 -0.0124
 4064TIP3    H133751   2.369   1.582   1.198 -0.7714 -1.6213 -0.3782
 4064TIP3    H233752   2.220   1.601   1.212 -0.4444 -0.5468  2.1315
 4065TIP3   OH233753   0.195   2.939   1.996 -0.0284 -0.3492  0.0398
 4065TIP3    H133754   0.101   2.952   2.004 -0.0826 -0.6432 -0.1060
 4065TIP3    H233755   0.230   3.026   1.977 -0.0771  0.1034  1.8124
 4066TIP3   OH233756   0.579   0.220   1.734  0.4162  0.0305  0.1578
 4066TIP3    H133757   0.532   0.260   1.660  1.5416  0.2684 -0.4427
 4066TIP3    H233758   0.526   0.243   1.810 -0.9898 -0.5422 -0.5809
 4067TIP3   OH233759   1.101   6.722   7.996  0.3889 -0.0278  0.4597
 4067TIP3    H133760   1.106   6.758   7.908 -3.6674 -0.3512 -0.0764
 4067TIP3    H233761   1.074   6.796   8.051  0.1411 -0.4332  0.8969
 4068TIP3   OH233762   5.630   5.527   8.607 -0.4468  0.1961  0.5362
 4068TIP3    H133763   5.589   5.614   8.611 -1.5852 -0.3286  0.6303
 4068TIP3    H233764   5.599   5.482   8.686  0.4982 -0.1564  0.7255
 4069TIP3   OH233765   0.034   1.830   2.285  0.0322  0.6173  0.1208
 4069TIP3    H133766   0.120   1.872   2.293  0.3309 -0.2420  1.7119
 4069TIP3    H233767   0.053   1.736   2.287 -0.7275  0.3471 -2.3167
 4070TIP3   OH233768   2.337   4.191   2.267 -0.0103  0.4096 -0.2730
 4070TIP3    H133769   2.372   4.204   2.355  0.0310 -0.3603 -0.1681
 4070TIP3    H233770   2.244   4.210   2.275 -0.0755 -0.0356  0.0232
 4071TIP3   OH233771   6.450   4.414   0.577 -0.1579  0.7807  0.0674
 4071TIP3    H133772   6.520   4.459   0.531 -0.9305  1.4472 -0.4714
 4071TIP3    H233773   6.488   4.329   0.601  0.5342  0.7625 -1.0257
 4072TIP3   OH233774   1.880   1.382   0.189 -0.2584  0.4912 -0.2670
 4072TIP3    H133775   1.865   1.474   0.166 -0.8635  0.3820 -0.3380
 4072TIP3    H233776   1.973   1.367   0.173 -0.1695  1.0760 -0.3097
 4073TIP3   OH233777   4.127   5.518   1.643  0.5018  0.2272 -0.0666
 4073TIP3    H133778   4.111   5.478   1.557  0.0005 -0.5615  0.3790
 4073TIP3    H233779   4.123   5.445   1.704  0.9961  0.7641  0.6157
 4074TIP3   OH233780   1.707   1.373   0.778  0.2199  0.6256 -0.2717
 4074TIP3    H133781   1.721   1.454   0.828  2.3413  0.4438 -0.4822
 4074TIP3    H233782   1.631   1.332   0.819  0.2516  1.8057  1.0440
 4075TIP3   OH233783   3.795   3.880   8.513  0.0240 -0.2062  0.3549
 4075TIP3    H133784   3.860   3.817   8.544 -0.1817 -0.1258  0.9526
 4075TIP3    H233785   3.838   3.965   8.521  0.0637 -0.2074  0.1683
 4076TIP3   OH233786   3.707   0.014   0.486  0.0442  0.0314  0.3364
 4076TIP3    H133787   3.663   0.014   0.571  0.5703 -0.7929  0.6145
 4076TIP3    H233788   3.732  -0.077   0.472 -0.2067  0.1327 -0.7963
 4077TIP3   OH233789   3.876   3.151   2.483  0.6728 -0.2660 -0.1435
 4077TIP3    H133790   3.843   3.239   2.497 -3.2767 -1.6681  0.5262
 4077TIP3    H233791   3.890   3.146   2.388 -2.2691  0.2268 -0.7146
 4078TIP3   OH233792   0.673   1.007   0.113 -0.1312 -0.2460 -0.1460
 4078TIP3    H133793   0.600   0.956   0.150 -0.5229  0.2349 -0.2442
 4078TIP3    H233794   0.684   1.080   0.175  0.0737 -0.1575 -0.2884
 4079TIP3   OH233795   5.232   0.614   0.506  1.1546  0.0739  0.2235
 4079TIP3    H133796   5.298   0.669   0.464  1.5367 -0.4080  0.1781
 4079TIP3    H233797   5.266   0.599   0.594  0.3682  1.0594  0.7166
 4080TIP3   OH233798   2.203   3.789   8.315  0.4911 -0.2512 -0.0812
 4080TIP3    H133799   2.190   3.843   8.392  2.2488 -1.3110  1.0339
 4080TIP3    H233800   2.125   3.733   8.311  0.3221 -0.0966  0.8484
 4081TIP3   OH233801   4.082   4.882   7.110  0.1658 -0.0061 -0.0055
 4081TIP3    H133802   4.030   4.947   7.062  0.4301  0.7190  0.6734
 4081TIP3    H233803   4.121   4.828   7.042 -1.9132 -0.9352 -0.5357
 4082TIP3   OH233804   5.164   3.860   2.439  0.7249 -0.1025 -0.7561
 4082TIP3    H133805   5.158   3.802   2.515  2.1143 -0.6012 -1.0015
 4082TIP3    H233806   5.163   3.948   2.476 -3.7114 -0.0458 -0.5052
 4083TIP3   OH233807   6.109   2.329   2.253  0.6909  0.5437 -0.0307
 4083TIP3    H133808   6.185   2.283   2.216  1.7431  1.6163  0.7386
 4083TIP3    H233809   6.127   2.421   2.238  0.4705  0.9327  1.8434
 4084TIP3   OH233810   4.175   1.641   1.171 -0.1530  0.1718  0.0624
 4084TIP3    H133811   4.165   1.672   1.081 -1.2783  1.7727  0.7029
 4084TIP3    H233812   4.092   1.596   1.190  0.7702 -1.7722 -0.2585
 4085TIP3   OH233813   3.844   1.988   6.967  0.9208 -0.4513 -0.1599
 4085TIP3    H133814   3.836   2.084   6.974  0.0633 -0.5027 -0.3325
 4085TIP3    H233815   3.792   1.965   6.890  1.3643 -1.0287 -0.2896
 4086TIP3   OH233816   1.573   4.617   1.897  0.1391 -0.0313  0.2454
 4086TIP3    H133817   1.523   4.675   1.954 -2.3461 -0.0304 -1.7523
 4086TIP3    H233818   1.595   4.541   1.952 -0.3298  0.8593  1.7159
 4087TIP3   OH233819   1.693   0.266   7.470  0.3759 -0.4688  0.0448
 4087TIP3    H133820   1.635   0.242   7.542  1.1811 -0.7508  0.6246
 4087TIP3    H233821   1.636   0.306   7.405 -0.4233 -0.5154  0.6967
 4088TIP3   OH233822   0.301   2.597   8.745 -0.5007  0.1327  0.3751
 4088TIP3    H133823   0.361   2.672   8.747  0.0815 -0.2783 -0.7243
 4088TIP3    H233824   0.275   2.584   8.836 -1.0685  2.0260  0.5201
 4089TIP3   OH233825   3.336   1.295   2.090  0.1741  0.2458 -0.3519
 4089TIP3    H133826   3.256   1.306   2.039  0.2033  0.1506 -0.4194
 4089TIP3    H233827   3.329   1.207   2.127 -0.6241  0.9123  1.1837
 4090TIP3   OH233828   5.759   4.266   7.167  0.0802 -0.2057  0.1902
 4090TIP3    H133829   5.712   4.196   7.122 -0.6074  0.9374 -0.9130
 4090TIP3    H233830   5.851   4.254   7.140 -0.4236  1.0030 -2.3774
 4091TIP3   OH233831   5.088   0.788   1.144 -0.2110 -1.1603  0.1537
 4091TIP3    H133832   5.129   0.702   1.128 -1.2561 -1.7765  0.7269
 4091TIP3    H233833   5.142   0.849   1.093  1.0097 -2.0359  0.3355
 4092TIP3   OH233834   2.928   3.235   1.663  0.1825  0.1844  0.0817
 4092TIP3    H133835   2.851   3.291   1.665  1.5889  2.3045 -0.9582
 4092TIP3    H233836   3.001   3.295   1.644  1.8502 -1.9529 -0.7082
 4093TIP3   OH233837   4.970   1.950   2.214 -0.2056 -0.1731  0.0211
 4093TIP3    H133838   4.978   1.857   2.195  1.0626  0.0030 -0.4232
 4093TIP3    H233839   5.010   1.961   2.300  0.6624  0.1070 -0.4024
 4094TIP3   OH233840   3.134   0.995   1.988 -0.0076 -0.3689  0.0048
 4094TIP3    H133841   3.197   0.990   1.915  0.6983 -0.1085  0.5797
 4094TIP3    H233842   3.189   0.995   2.067 -0.6962  0.6844  0.5027
 4095TIP3   OH233843   1.862   0.865   0.112  0.3012 -0.0011  0.5428
 4095TIP3    H133844   1.902   0.785   0.079  0.1482  0.1128  0.0850
 4095TIP3    H233845   1.922   0.894   0.181 -0.7828 -1.6996  2.2895
 4096TIP3   OH233846   3.005   1.453   7.186 -0.0838 -0.0929  0.3526
 4096TIP3    H133847   3.071   1.400   7.231  1.1280  0.1350 -1.0756
 4096TIP3    H233848   2.927   1.397   7.185  0.5395 -1.0023  0.7213
 4097TIP3   OH233849   0.100   3.569   6.719  0.0608  0.0847  0.4684
 4097TIP3    H133850   0.067   3.480   6.705  1.6599 -0.2248 -1.8725
 4097TIP3    H233851   0.029   3.625   6.687 -0.2910 -0.3908  0.3994
 4098TIP3   OH233852   3.284   3.152   2.411  0.1997 -0.3570  0.6357
 4098TIP3    H133853   3.256   3.065   2.436 -2.4284  0.4391  0.7340
 4098TIP3    H233854   3.343   3.138   2.336  1.0084 -2.2275  1.5604
 4099TIP3   OH233855   6.039   1.909   1.487 -0.3536  0.3037  0.3579
 4099TIP3    H133856   6.126   1.894   1.449 -0.9900  0.7320 -1.3994
 4099TIP3    H233857   6.002   1.822   1.498 -0.2114  0.1641 -0.2149
 4100TIP3   OH233858   3.596   3.806   2.491  0.6279 -0.7777 -0.7731
 4100TIP3    H133859   3.562   3.881   2.539  0.6204 -1.2414 -0.0442
 4100TIP3    H233860   3.681   3.788   2.531  0.8359 -0.8715 -1.2529
 4101TIP3   OH233861   5.207   0.991   0.969  0.5206 -0.6059  0.3485
 4101TIP3    H133862   5.285   0.965   0.919  0.0312  0.6328 -1.1298
 4101TIP3    H233863   5.186   1.078   0.937 -1.0867 -0.6282  1.2371
 4102TIP3   OH233864   4.954   4.115   2.370  0.1394  0.7688  0.0017
 4102TIP3    H133865   4.924   4.066   2.447 -0.0561  1.0470  0.1027
 4102TIP3    H233866   4.920   4.203   2.383 -0.9744  0.5122 -1.0200
 4103TIP3   OH233867   6.068   1.039   2.113 -0.0311  0.0156 -0.0800
 4103TIP3    H133868   5.982   0.998   2.118 -0.8474  1.6704 -0.0658
 4103TIP3    H233869   6.051   1.132   2.127  1.6960  0.4426 -0.6599
 4104TIP3   OH233870   5.204   3.946   7.250 -0.6076 -0.1085 -0.5321
 4104TIP3    H133871   5.189   3.976   7.160 -1.5016  2.1819  0.2949
 4104TIP3    H233872   5.299   3.935   7.256 -0.6542 -2.0482 -2.2024
 4105TIP3   OH233873   6.586   3.035   1.431  0.3245 -0.6622  0.3696
 4105TIP3    H133874   6.673   3.040   1.472  1.4603 -1.4545 -1.7648
 4105TIP3    H233875   6.597   2.971   1.361 -0.7626  2.3340 -2.7868
 4106TIP3   OH233876   3.862   1.732   2.948 -0.1817 -0.0903 -0.4649
 4106TIP3    H133877   3.803   1.736   2.873  0.2043 -0.7911 -0.8212
 4106TIP3    H233878   3.874   1.638   2.964 -0.2584  0.0499  0.4763
 4107TIP3   OH233879   0.611   6.094   8.014 -0.2444 -0.1747 -0.0690
 4107TIP3    H133880   0.539   6.146   8.050 -0.8843 -1.2104  0.1800
 4107TIP3    H233881   0.570   6.041   7.946  0.5493  0.1945 -0.8531
 4108TIP3   OH233882   0.616   6.777   8.022 -0.0458 -0.6802 -0.8035
 4108TIP3    H133883   0.521   6.779   8.033 -0.1996 -0.7209 -2.0309
 4108TIP3    H233884   0.644   6.698   8.069 -0.6900 -1.0110 -0.9706
 4109TIP3   OH233885   2.703   4.896   8.018  0.4434 -0.1573 -0.5321
 4109TIP3    H133886   2.686   4.832   8.087  1.1930 -0.6443 -0.7900
 4109TIP3    H233887   2.631   4.885   7.956  0.5146 -0.6717 -0.5235
 4110TIP3   OH233888   3.325   1.614   1.902 -0.1620 -0.0578 -0.2284
 4110TIP3    H133889   3.327   1.616   1.998 -2.1118  1.5087 -0.1528
 4110TIP3    H233890   3.414   1.637   1.876 -0.0243  1.2623  1.2427
 4111TIP3   OH233891   5.737   1.048   2.531  0.0697 -0.3035  0.1327
 4111TIP3    H133892   5.686   1.090   2.601  1.5419  0.8464  0.5811
 4111TIP3    H233893   5.674   1.031   2.462 -0.7597  2.0451  0.2365
 4112TIP3   OH233894   1.509   2.847   0.366 -0.3251  0.6181 -0.1961
 4112TIP3    H133895   1.459   2.882   0.440 -0.2818  0.9108 -0.3049
 4112TIP3    H233896   1.477   2.757   0.356  0.2664  0.2985  0.7124
 4113TIP3   OH233897   2.880   3.949   1.420 -0.0019 -0.1015  0.2563
 4113TIP3    H133898   2.846   3.953   1.509 -0.8045  0.2657 -0.0604
 4113TIP3    H233899   2.887   3.856   1.400 -0.3988 -0.1778  0.4806
 4114TIP3   OH233900   5.222   5.756   8.398  0.4170  0.0266 -0.0734
 4114TIP3    H133901   5.249   5.703   8.473 -0.4561  1.3968  1.2678
 4114TIP3    H233902   5.152   5.706   8.356  1.9995 -1.5078 -0.9955
 4115TIP3   OH233903   6.434   5.515   8.501  0.0696 -0.8245  0.3289
 4115TIP3    H133904   6.442   5.564   8.583  0.2282 -1.0356  0.4395
 4115TIP3    H233905   6.445   5.581   8.432  1.3373 -0.8740  0.4762
 4116TIP3   OH233906   0.138   2.324   8.719 -0.3358  0.3881 -0.4259
 4116TIP3    H133907   0.208   2.389   8.722 -1.3726  1.6646 -2.0933
 4116TIP3    H233908   0.075   2.353   8.785 -0.7779  1.0809 -1.1394
 4117TIP3   OH233909   4.078   0.206   0.157  0.1593  0.3488  0.0621
 4117TIP3    H133910   4.132   0.146   0.106 -0.0360 -0.4065  0.7210
 4117TIP3    H233911   4.050   0.155   0.233 -2.7147  0.2050 -0.9729
 4118TIP3   OH233912   3.098   3.018   7.736 -0.0019  0.8925 -0.5855
 4118TIP3    H133913   3.158   3.061   7.797  0.2113 -0.0066 -0.1373
 4118TIP3    H233914   3.065   2.942   7.785  2.9158 -2.0017 -2.7112
 4119TIP3   OH233915   1.028   4.131   6.761  0.6315 -0.1734  0.9401
 4119TIP3    H133916   1.109   4.142   6.711  0.0393 -0.8676 -0.2324
 4119TIP3    H233917   0.986   4.217   6.756  1.3702  0.2460  1.7197
 4120TIP3   OH233918   1.873   6.050   1.674 -0.0472  0.2014 -0.6099
 4120TIP3    H133919   1.868   6.118   1.741 -1.3108 -0.1266 -0.3456
 4120TIP3    H233920   1.967   6.041   1.656  0.1652  1.6973 -0.3445
 4121TIP3   OH233921   0.073   3.044   2.257 -0.0020 -0.1707  0.1958
 4121TIP3    H133922  -0.013   3.084   2.243  0.1693  0.5304  1.0630
 4121TIP3    H233923   0.127   3.114   2.293  1.6644  0.0802 -2.5022
 4122TIP3   OH233924   5.964   6.337   8.539 -0.0942 -0.0130  0.0820
 4122TIP3    H133925   5.969   6.420   8.492  0.2682  0.2280  0.5345
 4122TIP3    H233926   6.036   6.340   8.601 -1.0357  0.0344  1.2225
 4123TIP3   OH233927   4.072   3.577   2.457 -0.4240  0.0452 -0.4507
 4123TIP3    H133928   4.153   3.623   2.481 -0.8466  0.7561 -0.3438
 4123TIP3    H233929   4.062   3.510   2.524  0.8801 -1.0722 -1.3272
 4124TIP3   OH233930   2.722   2.865   2.267 -0.2475 -0.3584 -0.1452
 4124TIP3    H133931   2.692   2.953   2.242  1.4915  0.5100  0.6140
 4124TIP3    H233932   2.682   2.850   2.353  1.4087  0.8119  0.8865
 4125TIP3   OH233933   1.656   2.329   2.002  0.1050  0.4138  0.2117
 4125TIP3    H133934   1.746   2.354   2.024  0.2849  0.5293 -0.6193
 4125TIP3    H233935   1.648   2.238   2.030 -0.2126  1.0291  2.2804
 4126TIP3   OH233936   4.846   6.272   2.837  0.0421  0.1907 -0.4633
 4126TIP3    H133937   4.821   6.234   2.921 -1.5671  2.0402 -0.0368
 4126TIP3    H233938   4.921   6.219   2.808 -0.5512 -1.6928  1.1945
 4127TIP3   OH233939   1.334   2.719   1.396  0.3461 -0.1872  0.9998
 4127TIP3    H133940   1.368   2.669   1.470 -1.8168 -1.2003  1.3648
 4127TIP3    H233941   1.357   2.667   1.319 -0.1025 -0.7035  1.2138
 4128TIP3   OH233942   5.243   5.929   0.216  0.3182  0.1214  0.4911
 4128TIP3    H133943   5.241   5.867   0.142 -1.1192  0.2076  0.4281
 4128TIP3    H233944   5.280   6.009   0.178 -2.3700  0.8725 -0.7657
 4129TIP3   OH233945   0.972   4.525   7.411  0.1279 -0.2673  0.1703
 4129TIP3    H133946   0.961   4.495   7.502  0.9385 -0.2372  0.2857
 4129TIP3    H233947   0.885   4.516   7.373  0.0449 -1.5089  0.5818
 4130TIP3   OH233948   3.792   4.225   7.536  0.1346  1.0590 -0.4476
 4130TIP3    H133949   3.816   4.288   7.468 -0.6550  0.8487 -0.9190
 4130TIP3    H233950   3.824   4.141   7.504 -1.5788  0.6925 -1.3009
 4131TIP3   OH233951   4.836   4.301   1.659  0.0190 -0.3245  0.3004
 4131TIP3    H133952   4.924   4.279   1.689  0.3056  0.1104 -0.2068
 4131TIP3    H233953   4.778   4.251   1.716  0.5383  0.6078  1.7090
 4132TIP3   OH233954   4.890   6.528   2.755  0.3861  0.3611  0.1913
 4132TIP3    H133955   4.806   6.574   2.751 -0.2619 -0.7601  0.2481
 4132TIP3    H233956   4.867   6.440   2.786  1.4563 -0.2771 -0.7436
 4133TIP3   OH233957   0.029   3.082   0.440 -0.1463  0.6612  0.6601
 4133TIP3    H133958  -0.044   3.140   0.420  1.7055  2.5354 -1.1763
 4133TIP3    H233959  -0.005   2.994   0.423 -2.5618  1.2603  1.9697
 4134TIP3   OH233960   0.290   1.156   1.133 -0.4340 -0.6150 -0.0420
 4134TIP3    H133961   0.297   1.060   1.140  0.4457 -0.5550 -0.0110
 4134TIP3    H233962   0.344   1.189   1.205  0.8811 -0.0821 -1.2261
 4135TIP3   OH233963   3.506   2.377   1.286  0.2244  0.5877  0.1931
 4135TIP3    H133964   3.567   2.357   1.357 -0.8589  1.0886  1.3194
 4135TIP3    H233965   3.421   2.346   1.318 -0.0885 -0.4043 -1.4655
 4136TIP3   OH233966   4.186   3.189   6.999  0.2897  0.5178 -0.1914
 4136TIP3    H133967   4.130   3.265   7.015  0.1187  0.5169 -0.7482
 4136TIP3    H233968   4.133   3.132   6.944  0.2468 -0.2249  0.6131
 4137TIP3   OH233969   3.175   0.850   0.964 -0.7290  0.1208 -0.3934
 4137TIP3    H133970   3.140   0.825   0.879 -2.7522  1.4215  0.0030
 4137TIP3    H233971   3.168   0.945   0.967 -0.2568  0.1439  1.0365
 4138TIP3   OH233972   0.913   1.017   2.995  0.3942  0.3703  0.5436
 4138TIP3    H133973   0.879   0.931   2.969  0.2876 -0.2174  2.4552
 4138TIP3    H233974   0.845   1.079   2.968 -1.1680 -0.5363  2.1529
 4139TIP3   OH233975   2.978   2.312   7.888  0.7017  0.9924  0.8649
 4139TIP3    H133976   2.928   2.247   7.839  1.7324  0.7803  0.0615
 4139TIP3    H233977   2.959   2.292   7.980  1.9289 -1.2894  0.7121
 4140TIP3   OH233978   5.769   1.020   2.143  0.3142  0.1305  0.3159
 4140TIP3    H133979   5.709   1.005   2.216 -0.2362 -0.0566 -0.1637
 4140TIP3    H233980   5.727   1.089   2.091 -0.1704 -0.9302 -0.7486
 4141TIP3   OH233981   2.627   6.059   2.042  0.0988  0.3914  0.5904
 4141TIP3    H133982   2.657   5.992   2.105 -1.0117 -1.3328 -0.6129
 4141TIP3    H233983   2.647   6.022   1.956 -1.2327  1.2525 -0.1275
 4142TIP3   OH233984   1.687   3.565   2.593  0.5227  0.4285  0.0068
 4142TIP3    H133985   1.708   3.471   2.596  2.6846  0.8702  0.4260
 4142TIP3    H233986   1.602   3.572   2.635 -0.4441 -1.5184 -1.4702
 4143TIP3   OH233987   1.064   0.967   0.040  0.8657  0.1649  0.7682
 4143TIP3    H133988   1.010   0.977   0.119  0.0445  1.4527  0.0687
 4143TIP3    H233989   1.130   0.902   0.065 -0.1655 -0.4345  2.0921
 4144TIP3   OH233990   3.022   1.455   0.162  0.4887 -0.1585  0.6044
 4144TIP3    H133991   3.087   1.509   0.118 -0.1615 -0.0854 -0.2855
 4144TIP3    H233992   2.959   1.432   0.094 -1.0712  0.7604  1.6653
 4145TIP3   OH233993   1.411   0.694   1.724 -1.0200  0.1042 -0.0231
 4145TIP3    H133994   1.474   0.732   1.662  0.1941 -0.5858  0.7591
 4145TIP3    H233995   1.357   0.768   1.751  0.9890  1.2496  1.1189
 4146TIP3   OH233996   4.454   1.139   8.539  0.0077 -0.0716 -0.6709
 4146TIP3    H133997   4.368   1.100   8.555 -0.1515  0.2095 -0.8327
 4146TIP3    H233998   4.470   1.123   8.446  1.2029 -2.2471 -0.1705
 4147TIP3   OH233999   3.474   0.004   0.681 -0.2607 -0.1004  0.5356
 4147TIP3    H134000   3.396  -0.001   0.737 -1.9038  0.3139 -1.5701
 4147TIP3    H234001   3.484   0.097   0.662  1.4327 -0.0310  1.6001
 4148TIP3   OH234002   2.658   1.017   2.494  0.1265  0.5244 -0.4323
 4148TIP3    H134003   2.747   0.990   2.471 -0.0220 -0.7632  0.3731
 4148TIP3    H234004   2.642   1.095   2.441  1.6813  0.7069 -0.6912
 4149TIP3   OH234005   1.315   1.143   7.887 -0.0680 -0.0884  0.3421
 4149TIP3    H134006   1.246   1.203   7.861 -0.2699 -0.3160  0.3525
 4149TIP3    H234007   1.273   1.057   7.889  0.5407 -0.4578 -1.0561
 4150TIP3   OH234008   4.247   3.985   8.395  0.0946 -0.1637 -0.8195
 4150TIP3    H134009   4.183   3.991   8.325 -0.3809  0.3110 -0.3523
 4150TIP3    H234010   4.199   4.009   8.474  1.0272  0.9938 -0.5703
 4151TIP3   OH234011   3.303   2.813   2.649  0.8705 -0.5666  0.5429
 4151TIP3    H134012   3.227   2.858   2.687  0.2684 -1.0644 -0.0396
 4151TIP3    H234013   3.343   2.766   2.722  3.4437  3.3381  1.9858
 4152TIP3   OH234014   0.615   4.613   0.542 -0.2091 -0.0811  0.3986
 4152TIP3    H134015   0.684   4.549   0.557 -0.5063 -0.4525  0.2105
 4152TIP3    H234016   0.580   4.591   0.456 -0.8339 -0.1626  0.6625
 4153TIP3   OH234017   0.355   2.479   2.638 -0.4228 -0.6139  0.5306
 4153TIP3    H134018   0.409   2.400   2.638  0.5766  0.0358  1.2988
 4153TIP3    H234019   0.340   2.498   2.730 -0.2680  0.3242  0.3771
 4154TIP3   OH234020   6.261   2.391   8.141  0.1437 -0.1280  0.0036
 4154TIP3    H134021   6.331   2.380   8.205  1.0669 -0.1288 -0.9844
 4154TIP3    H234022   6.306   2.400   8.057 -1.0878 -1.8518 -0.9073
 4155TIP3   OH234023   5.763   2.058   2.721  0.3012 -0.2413 -0.1734
 4155TIP3    H134024   5.692   2.103   2.676 -0.4760 -0.7113  0.5659
 4155TIP3    H234025   5.724   2.024   2.801  1.4282 -0.2648  0.3905
 4156TIP3   OH234026   0.657   3.095   8.259 -0.3259  0.0547 -0.0867
 4156TIP3    H134027   0.653   3.173   8.315  1.0261 -0.0526  0.1774
 4156TIP3    H234028   0.573   3.051   8.275 -0.2850  0.4215  1.2759
 4157TIP3   OH234029   5.744   4.139   2.766  0.2972 -0.1430  0.1524
 4157TIP3    H134030   5.834   4.171   2.756 -0.0383  0.1467 -3.2349
 4157TIP3    H234031   5.742   4.058   2.715 -1.0200 -0.9834  1.4716
 4158TIP3   OH234032   0.423   0.460   0.975 -0.2000  0.1093 -0.2102
 4158TIP3    H134033   0.329   0.444   0.986  0.2171 -1.5981  1.1655
 4158TIP3    H234034   0.461   0.374   0.961  0.9992  0.9353 -2.6268
 4159TIP3   OH234035   2.115   1.376   0.412  0.0610 -0.7383 -0.5644
 4159TIP3    H134036   2.087   1.451   0.465  0.8227 -0.6610 -0.2507
 4159TIP3    H234037   2.128   1.412   0.324  1.9413 -0.1223 -0.0804
 4160TIP3   OH234038   0.499   6.435   0.056  0.1889  0.0252  0.3056
 4160TIP3    H134039   0.453   6.518   0.072  2.7275  2.0324 -1.8341
 4160TIP3    H234040   0.515   6.400   0.144  0.5459  2.7232  1.4404
 4161TIP3   OH234041   4.517   3.300   7.748  0.1394  0.4095 -0.1424
 4161TIP3    H134042   4.470   3.347   7.817 -1.8323 -0.8211 -0.5837
 4161TIP3    H234043   4.453   3.290   7.678  1.6741  0.3566 -1.5919
 4162TIP3   OH234044   5.259   4.245   2.324 -0.1347  0.6556  0.4598
 4162TIP3    H134045   5.274   4.206   2.238 -0.3340 -1.3240  1.2765
 4162TIP3    H234046   5.175   4.209   2.352 -1.0396  2.8113  0.6933
 4163TIP3   OH234047   6.260   4.139   1.173 -0.0722  0.1027  0.5555
 4163TIP3    H134048   6.349   4.129   1.141 -0.5331  0.6423 -0.9949
 4163TIP3    H234049   6.258   4.226   1.214 -0.0351  0.3397  0.0553
 4164TIP3   OH234050   4.071   0.215   0.953 -0.3898 -0.7709  0.5686
 4164TIP3    H134051   4.132   0.289   0.964 -1.0614 -0.1302  0.0514
 4164TIP3    H234052   4.009   0.245   0.888  0.3444 -2.4724 -0.9885
 4165TIP3   OH234053   4.800   2.317   1.018 -0.2899  0.1621 -0.2176
 4165TIP3    H134054   4.855   2.306   0.940 -0.9106  0.2361 -0.6769
 4165TIP3    H234055   4.788   2.411   1.025 -2.3788  0.0629 -1.5911
 4166TIP3   OH234056   4.708   5.067   7.059  0.8552  0.2983  0.2153
 4166TIP3    H134057   4.767   5.011   7.110  0.6323 -0.4768 -0.3629
 4166TIP3    H234058   4.643   5.007   7.023  0.6710  0.9122 -0.4973
 4167TIP3   OH234059   5.039   4.943   2.108 -0.1738 -0.6192 -0.5659
 4167TIP3    H134060   5.033   5.018   2.049  1.3601 -0.2006 -0.2300
 4167TIP3    H234061   5.122   4.955   2.154 -0.4455 -1.9291  0.3204
 4168TIP3   OH234062   1.047   2.709   0.603 -0.0537 -0.0906 -0.1784
 4168TIP3    H134063   1.038   2.802   0.583 -1.2316  0.1141  1.1271
 4168TIP3    H234064   1.141   2.696   0.618 -0.0994  1.4536  1.9992
 4169TIP3   OH234065   6.053   1.615   8.468 -0.1452 -0.6282 -0.0040
 4169TIP3    H134066   5.990   1.543   8.460  0.9653 -1.9081  1.8691
 4169TIP3    H234067   6.011   1.689   8.425 -2.9779 -1.3748  1.2494
 4170TIP3   OH234068   3.014   0.278   1.316 -0.0517 -0.0339 -0.4877
 4170TIP3    H134069   3.029   0.359   1.365  1.6498  0.0248 -1.0302
 4170TIP3    H234070   2.975   0.218   1.380 -1.4611  1.2222 -0.1110
 4171TIP3   OH234071   6.035   1.491   1.868  0.6708  0.3233 -0.3452
 4171TIP3    H134072   6.106   1.429   1.881  0.8058  0.5667  0.1122
 4171TIP3    H234073   6.021   1.530   1.954 -1.4960 -1.2685  0.1182
 4172TIP3   OH234074   4.970   4.486   0.486 -0.2722 -0.7820 -0.0972
 4172TIP3    H134075   5.004   4.551   0.548 -0.5688  0.1735 -0.9095
 4172TIP3    H234076   5.040   4.421   0.479  0.1516 -0.4056  0.5206
 4173TIP3   OH234077   0.330   5.986   8.199  0.1067  0.2169 -0.3348
 4173TIP3    H134078   0.387   5.910   8.213 -0.7682 -0.7845 -1.9014
 4173TIP3    H234079   0.277   5.963   8.122 -0.4621  2.2579 -0.6269
 4174TIP3   OH234080   4.230   6.689   0.096 -0.4284 -0.1934 -0.4090
 4174TIP3    H134081   4.249   6.783   0.101  1.8734 -0.6283  0.1884
 4174TIP3    H234082   4.237   6.668   0.003 -0.8636  0.1922 -0.5353
 4175TIP3   OH234083   4.629   2.851   1.129 -0.1878 -0.5342  0.7169
 4175TIP3    H134084   4.648   2.932   1.082 -1.7563 -0.8321 -0.5432
 4175TIP3    H234085   4.699   2.842   1.193  0.1324  1.6963  0.7419
 4176TIP3   OH234086   6.377   2.943   0.046 -0.5348 -0.0825 -0.2024
 4176TIP3    H134087   6.378   2.890   0.126  0.7386  0.0911 -0.0854
 4176TIP3    H234088   6.332   3.024   0.073 -0.4893 -0.1940  0.2230
 4177TIP3   OH234089   4.823   3.709   1.905  0.0582 -0.1111 -0.3228
 4177TIP3    H134090   4.813   3.615   1.891 -1.2013 -0.0126 -0.1819
 4177TIP3    H234091   4.815   3.720   2.000  1.0028  0.0576 -0.2576
 4178TIP3   OH234092   2.486   4.471   2.045 -0.1354 -0.2503  0.0913
 4178TIP3    H134093   2.495   4.383   2.009  0.1239  0.3258 -1.3271
 4178TIP3    H234094   2.396   4.497   2.023  0.0838  0.1758 -0.3371
 4179TIP3   OH234095   6.538   4.697   8.085 -0.0882  0.6865 -0.1403
 4179TIP3    H134096   6.531   4.630   8.016 -1.9024 -0.9211  1.4876
 4179TIP3    H234097   6.471   4.762   8.062 -2.7376 -1.2817  1.4491
 4180TIP3   OH234098   1.948   1.114   8.641 -0.1146 -0.2256 -0.0820
 4180TIP3    H134099   2.002   1.050   8.688  0.4095 -0.6610 -1.2141
 4180TIP3    H234100   2.008   1.185   8.619 -0.5588  0.3871  0.6483
 4181TIP3   OH234101   4.489   1.062   7.388  0.1344  0.0821  0.1874
 4181TIP3    H134102   4.509   0.969   7.387  0.9472  0.2513 -0.1130
 4181TIP3    H234103   4.398   1.067   7.415 -0.3457 -0.8907 -1.1264
 4182TIP3   OH234104   6.630   2.707   8.634  0.3598 -0.0177  0.4439
 4182TIP3    H134105   6.637   2.718   8.539 -2.1064  1.5419  0.3724
 4182TIP3    H234106   6.625   2.612   8.647  3.9498 -0.5184 -0.5957
 4183TIP3   OH234107   6.780   3.536   2.509  0.4062  0.0078 -0.0361
 4183TIP3    H134108   6.784   3.629   2.489 -0.2625  0.3120  1.1486
 4183TIP3    H234109   6.814   3.528   2.598  0.2242 -0.8405 -0.0280
 4184TIP3   OH234110   0.895   5.899   2.141  0.1520 -0.6823  0.0404
 4184TIP3    H134111   0.886   5.852   2.058 -0.1939 -2.0093  0.7959
 4184TIP3    H234112   0.857   5.986   2.124 -0.5773 -1.1838 -0.9943
 4185TIP3   OH234113   2.539   5.542   2.482  0.5858 -0.2130 -0.1661
 4185TIP3    H134114   2.509   5.501   2.400 -0.9576  0.9723 -0.2319
 4185TIP3    H234115   2.543   5.469   2.544  1.1594 -1.0222 -1.1188
 4186TIP3   OH234116   2.459   5.539   1.525 -0.0470  0.2403  0.7323
 4186TIP3    H134117   2.485   5.631   1.518 -0.7929  0.4392  0.5016
 4186TIP3    H234118   2.529   5.491   1.479 -0.1085  0.7732  0.0619
 4187TIP3   OH234119   2.642   2.112   0.777  0.2860  0.3979  0.2650
 4187TIP3    H134120   2.689   2.185   0.816  0.2771  0.6252 -0.1363
 4187TIP3    H234121   2.710   2.055   0.741  0.2851  0.3105  0.4009
 4188TIP3   OH234122   2.819   2.432   8.294  0.7711  0.2071  0.4034
 4188TIP3    H134123   2.762   2.456   8.221  0.4619  0.0685  0.5964
 4188TIP3    H234124   2.908   2.444   8.260  0.6285  0.8068  0.2291
 4189TIP3   OH234125   6.002   1.265   8.664 -0.0493 -0.2414  0.3895
 4189TIP3    H134126   6.014   1.324   8.590 -0.8110 -0.5986 -0.0257
 4189TIP3    H234127   6.026   1.318   8.740 -0.2370  0.4500 -0.0194
 4190TIP3   OH234128   2.320   1.418   7.725 -0.4712 -0.0983 -0.1566
 4190TIP3    H134129   2.272   1.499   7.716 -0.0269  0.4019  1.5655
 4190TIP3    H234130   2.403   1.434   7.679 -0.4077  0.4197  0.1267
 4191TIP3   OH234131   6.706   2.523   3.232  0.0370 -0.1158 -0.0151
 4191TIP3    H134132   6.765   2.562   3.296 -0.7342 -1.4410  1.6007
 4191TIP3    H234133   6.759   2.458   3.186  0.2883 -0.0738  0.2159
 4192TIP3   OH234134   3.879   0.550   3.613  0.0766 -0.1857 -0.6543
 4192TIP3    H134135   3.926   0.554   3.697 -2.3247  0.4760  0.7805
 4192TIP3    H234136   3.876   0.457   3.593  1.9946 -0.2478 -0.8539
 4193TIP3   OH234137   5.050   6.773   3.157  0.0717 -0.5562 -0.4398
 4193TIP3    H134138   5.036   6.687   3.197  0.4353 -0.3069  0.2461
 4193TIP3    H234139   5.057   6.755   3.064 -1.5824 -1.0711 -0.5052
 4194TIP3   OH234140   1.728   5.936   7.954 -0.2240  0.0992 -0.2499
 4194TIP3    H134141   1.651   5.894   7.990  0.9039 -1.4307  0.4921
 4194TIP3    H234142   1.714   5.937   7.859 -0.8711 -0.7402 -0.1688
 4195TIP3   OH234143   4.736   3.466   0.411 -0.5495  0.1059 -0.0202
 4195TIP3    H134144   4.715   3.438   0.322  1.6859 -0.7883 -0.3390
 4195TIP3    H234145   4.761   3.558   0.403 -0.3307  0.0211 -0.3449
 4196TIP3   OH234146   3.946   0.540   7.851 -0.4746 -0.2359  0.2040
 4196TIP3    H134147   3.920   0.535   7.759  1.1463 -0.8357 -0.2627
 4196TIP3    H234148   3.999   0.620   7.856 -1.8239  0.6357  0.9839
 4197TIP3   OH234149   2.689   0.165   1.009  0.2562 -0.5887 -0.3385
 4197TIP3    H134150   2.774   0.205   0.991  0.1676 -0.9264 -1.5869
 4197TIP3    H234151   2.705   0.109   1.085  0.6586  0.8682  0.7093
 4198TIP3   OH234152   4.861   6.359   2.012  0.0625 -0.7535  0.5697
 4198TIP3    H134153   4.948   6.328   2.038 -0.1324 -1.7994  0.0137
 4198TIP3    H234154   4.808   6.280   2.004 -0.6914 -0.2074 -0.0266
 4199TIP3   OH234155   0.951   5.181   0.101  0.4410  0.1343  0.1193
 4199TIP3    H134156   0.867   5.223   0.085  0.0953  0.3604  2.1904
 4199TIP3    H234157   1.015   5.237   0.056 -0.3381  1.0358  0.1018
 4200TIP3   OH234158   4.344   2.203   1.355 -0.0696  0.2800 -0.3481
 4200TIP3    H134159   4.327   2.290   1.390  0.7302  0.0569  0.6075
 4200TIP3    H234160   4.259   2.176   1.318 -0.4573  1.2413 -0.1917
 4201TIP3   OH234161   0.679   4.037   0.455  0.1656  0.1995  0.3877
 4201TIP3    H134162   0.731   4.066   0.530 -1.0021 -0.8287  1.6338
 4201TIP3    H234163   0.732   3.969   0.414  0.4688  0.2334  0.7217
 4202TIP3   OH234164   4.721   0.803   8.032 -0.0376 -0.2841 -0.1261
 4202TIP3    H134165   4.815   0.783   8.022 -0.3309 -0.9420 -1.9698
 4202TIP3    H234166   4.719   0.876   8.093  1.7450  0.2372 -0.6197
 4203TIP3   OH234167   6.360   6.005   3.065  0.1123  0.2238  0.1852
 4203TIP3    H134168   6.375   6.052   2.983 -1.3512  1.9252  0.8382
 4203TIP3    H234169   6.344   6.073   3.130 -0.0913 -1.1200  1.6113
 4204TIP3   OH234170   6.125   3.090   2.440 -0.2979 -0.3081  0.5254
 4204TIP3    H134171   6.129   3.167   2.383  0.4751 -0.8452 -0.1753
 4204TIP3    H234172   6.099   3.125   2.526  0.0451  0.7299  0.2244
 4205TIP3   OH234173   3.063   3.950   8.349  0.4949  0.1535  0.4019
 4205TIP3    H134174   3.081   4.021   8.288  0.9548 -1.4272 -1.4281
 4205TIP3    H234175   2.969   3.934   8.341  0.8038 -1.1997 -1.3707
 4206TIP3   OH234176   0.119   2.382   8.418  0.0014 -0.3440  0.4021
 4206TIP3    H134177   0.189   2.316   8.413  0.2360 -0.1021  0.4638
 4206TIP3    H234178   0.038   2.331   8.410  0.1594 -0.7077  0.9897
 4207TIP3   OH234179   0.004   3.922   1.416 -0.3119  0.1719  0.2241
 4207TIP3    H134180   0.095   3.946   1.398  0.6237 -2.4243  1.0612
 4207TIP3    H234181  -0.039   3.922   1.330  0.0379  2.7377 -0.0412
 4208TIP3   OH234182   1.563   4.159   2.614 -0.1679 -0.1522  0.3730
 4208TIP3    H134183   1.656   4.156   2.591 -0.2573  0.7581 -0.1519
 4208TIP3    H234184   1.556   4.104   2.692  0.7369 -0.5667  0.1749
 4209TIP3   OH234185   6.742   4.325   8.376 -0.2144  0.5304 -0.2047
 4209TIP3    H134186   6.760   4.257   8.310  0.2027  0.7569 -0.3266
 4209TIP3    H234187   6.801   4.304   8.448 -1.6715 -0.5761  0.7309
 4210TIP3   OH234188   2.387   6.126   7.200  0.6955 -0.3285  0.2434
 4210TIP3    H134189   2.401   6.220   7.192  0.3581 -0.2885  0.0983
 4210TIP3    H234190   2.472   6.087   7.180  0.4233 -0.1330 -1.4149
 4211TIP3   OH234191   3.360   5.371   0.104  0.0987 -0.8163  0.5397
 4211TIP3    H134192   3.407   5.326   0.034 -0.7127 -0.2783 -0.3713
 4211TIP3    H234193   3.281   5.318   0.117 -0.5129 -0.0644 -0.0469
 4212TIP3   OH234194   4.758   1.307   2.380 -0.0164  0.4993  0.7127
 4212TIP3    H134195   4.700   1.231   2.388  0.6305  0.0753  1.5195
 4212TIP3    H234196   4.725   1.354   2.303 -0.6683 -0.3845  0.4306
 4213TIP3   OH234197   6.670   6.508   0.054 -0.2501 -0.2942  0.7975
 4213TIP3    H134198   6.702   6.579  -0.003 -0.7865  1.1586  2.2215
 4213TIP3    H234199   6.744   6.448   0.061  1.3192  1.6516  1.9197
 4214TIP3   OH234200   5.398   1.309   7.164  0.1726  0.8317 -0.5164
 4214TIP3    H134201   5.324   1.362   7.196  0.1614  0.4205  0.1673
 4214TIP3    H234202   5.409   1.241   7.231  0.4177  0.1835 -1.2033
 4215TIP3   OH234203   1.301   4.280   1.911  0.5567  0.5616  0.3721
 4215TIP3    H134204   1.262   4.193   1.921  0.5672  0.4940 -0.1683
 4215TIP3    H234205   1.230   4.341   1.934 -0.0247  0.4515 -1.0101
 4216TIP3   OH234206   0.707   1.341   0.982  0.3935  0.0295  0.1472
 4216TIP3    H134207   0.714   1.271   1.047 -1.9007  0.1719  0.6387
 4216TIP3    H234208   0.629   1.318   0.931 -0.8911  2.5668  0.8005
 4217TIP3   OH234209   1.753   3.734   8.298 -0.5544  0.1558  0.3614
 4217TIP3    H134210   1.829   3.683   8.327 -0.7110  0.0087  0.5096
 4217TIP3    H234211   1.785   3.781   8.221 -0.4851 -0.3576  0.0741
 4218TIP3   OH234212   6.783   3.434   1.614  0.6160  0.4390  0.3502
 4218TIP3    H134213   6.850   3.403   1.675  0.5390 -1.0149 -0.2863
 4218TIP3    H234214   6.706   3.382   1.634 -1.0781  3.4583  2.4710
 4219TIP3   OH234215   1.114   4.285   2.583  0.3347 -0.2168  0.5497
 4219TIP3    H134216   1.023   4.255   2.582  0.5264 -0.8330  0.7690
 4219TIP3    H234217   1.165   4.205   2.569  0.8423  0.1139  0.5124
 4220TIP3   OH234218   5.124   6.632   8.356  0.4907  0.3609  0.3766
 4220TIP3    H134219   5.180   6.705   8.332  0.5513  0.2601  0.2097
 4220TIP3    H234220   5.083   6.659   8.439  0.7556  0.4496  0.4800
 4221TIP3   OH234221   5.230   1.327   2.482  0.4058  0.0465  0.1025
 4221TIP3    H134222   5.253   1.234   2.483  1.7935  0.3576 -0.2350
 4221TIP3    H234223   5.215   1.350   2.574  1.7998 -0.1346  0.4006
 4222TIP3   OH234224   2.044   4.628   8.170 -0.4714  0.0009 -0.0532
 4222TIP3    H134225   2.043   4.604   8.262  1.5061  1.9934  0.5686
 4222TIP3    H234226   1.995   4.710   8.165 -1.0163 -0.3563 -0.8845
 4223TIP3   OH234227   5.067   2.575   0.927 -0.3404  0.0102  0.5545
 4223TIP3    H134228   4.981   2.616   0.927  0.0831  1.0481 -1.5871
 4223TIP3    H234229   5.091   2.568   1.019 -2.3293  0.4880  1.1476
 4224TIP3   OH234230   4.970   4.112   1.197 -0.4316 -0.0930  0.0577
 4224TIP3    H134231   4.979   4.157   1.113 -0.9125 -0.6544 -0.3059
 4224TIP3    H234232   5.060   4.090   1.222 -0.3241 -0.4351 -0.5986
 4225TIP3   OH234233   1.157   0.889   1.819 -0.3113  0.6670 -0.6306
 4225TIP3    H134234   1.094   0.960   1.805 -0.2693  0.8384  0.0134
 4225TIP3    H234235   1.228   0.930   1.867  0.1395  0.3950 -1.0645
 4226TIP3   OH234236   4.876   5.962   7.644 -0.4094  0.6711  0.3682
 4226TIP3    H134237   4.807   5.905   7.609  0.3233  1.0738 -1.9228
 4226TIP3    H234238   4.831   6.041   7.671 -0.8906  0.9465 -1.1436
 4227TIP3   OH234239   5.835   0.672   7.241 -0.2362  0.0813 -0.5463
 4227TIP3    H134240   5.754   0.714   7.270  0.7356  0.2576  2.1988
 4227TIP3    H234241   5.836   0.684   7.146 -2.4945  1.7201 -0.4357
 4228TIP3   OH234242   5.193   6.075   1.946  0.0003 -0.1514  0.1622
 4228TIP3    H134243   5.205   6.056   1.853  1.0215 -0.4656  0.3450
 4228TIP3    H234244   5.278   6.109   1.974 -0.2656 -0.1755  1.0089
 4229TIP3   OH234245   1.786   1.393   2.479  0.0018 -0.2488  0.6009
 4229TIP3    H134246   1.730   1.349   2.542  0.5898 -2.4156 -0.3057
 4229TIP3    H234247   1.873   1.357   2.495  0.6253  1.0104  0.1685
 4230TIP3   OH234248   5.222   0.794   8.073  0.1649 -0.0766 -0.0634
 4230TIP3    H134249   5.290   0.733   8.103  0.4150  0.5150  0.5915
 4230TIP3    H234250   5.240   0.808   7.981  2.2997  1.8052  0.5697
 4231TIP3   OH234251   2.336   1.117   7.637 -0.0017 -0.1529  0.0921
 4231TIP3    H134252   2.346   1.208   7.665 -0.1267  0.5017 -1.8474
 4231TIP3    H234253   2.395   1.109   7.562 -0.4860 -1.4916 -0.1581
 4232TIP3   OH234254   3.844   2.319   0.950 -0.4268 -0.1145  0.1386
 4232TIP3    H134255   3.848   2.392   0.888  0.0443 -0.1677  0.0997
 4232TIP3    H234256   3.847   2.362   1.036  0.5597 -0.1096  0.1160
 4233TIP3   OH234257   5.986   1.721   1.240 -0.5370  0.6817 -0.2971
 4233TIP3    H134258   6.004   1.815   1.238 -0.5253  0.6772 -0.4062
 4233TIP3    H234259   5.897   1.714   1.206 -0.5790  0.6626 -0.1857
 4234TIP3   OH234260   0.838   6.533   1.584 -0.3422 -0.1035 -0.6272
 4234TIP3    H134261   0.775   6.556   1.516 -0.4359 -0.8602 -0.8033
 4234TIP3    H234262   0.793   6.467   1.636 -0.8303  1.4529  1.0487
 4235TIP3   OH234263   5.258   3.482   0.310 -0.7096  1.0285  0.6681
 4235TIP3    H134264   5.237   3.574   0.292  0.6580  1.3856  0.7793
 4235TIP3    H234265   5.213   3.433   0.241  0.2377  1.9612 -0.6646
 4236TIP3   OH234266   0.861   4.430   2.223 -0.4102 -0.6029  0.2876
 4236TIP3    H134267   0.825   4.492   2.160  1.0208  1.8136  1.6504
 4236TIP3    H234268   0.788   4.407   2.279 -1.0798 -0.5229 -0.5355
 4237TIP3   OH234269   2.276   1.303   3.249  0.1385 -0.4313  0.4287
 4237TIP3    H134270   2.233   1.272   3.169 -0.3701  0.6495  0.2736
 4237TIP3    H234271   2.304   1.392   3.229  1.3404 -0.6719  0.9642
 4238TIP3   OH234272   0.280   2.601   1.794  0.0178  0.4056 -0.3805
 4238TIP3    H134273   0.245   2.523   1.837  0.7454 -0.0208 -0.5515
 4238TIP3    H234274   0.375   2.590   1.797  0.1280 -0.2187 -3.0560
 4239TIP3   OH234275   6.156   0.315   7.490 -0.0092 -0.2712 -0.0596
 4239TIP3    H134276   6.178   0.347   7.403 -0.1938  1.7273  0.5749
 4239TIP3    H234277   6.223   0.250   7.509 -0.9572 -2.0500 -2.3310
 4240TIP3   OH234278   2.901   1.089   7.865 -0.1275 -0.2217 -0.0523
 4240TIP3    H134279   2.807   1.093   7.882 -0.0408  0.6775  0.2790
 4240TIP3    H234280   2.936   1.039   7.938 -0.3674 -0.7548 -0.2935
 4241TIP3   OH234281   1.806   1.515   2.933  0.1051  0.0897  0.3009
 4241TIP3    H134282   1.817   1.565   2.852 -1.3280 -1.5782 -0.9960
 4241TIP3    H234283   1.726   1.551   2.973  0.8382  0.9448  1.0369
 4242TIP3   OH234284   0.722   5.701   8.577  0.0987  0.6183 -0.5611
 4242TIP3    H134285   0.696   5.626   8.523 -0.3540  0.5721 -0.2753
 4242TIP3    H234286   0.643   5.754   8.585  0.0389  0.3852  0.4616
 4243TIP3   OH234287   2.043   3.450   0.463  0.2492 -0.0662  0.4443
 4243TIP3    H134288   2.092   3.518   0.416 -0.3814  0.7045  0.8832
 4243TIP3    H234289   1.952   3.466   0.440 -0.1418  0.6425  2.2735
 4244TIP3   OH234290   4.169   4.421   0.982 -0.0022 -0.1747 -0.2543
 4244TIP3    H134291   4.254   4.459   1.000 -0.0621  0.2805 -0.9158
 4244TIP3    H234292   4.165   4.343   1.037  0.9332 -0.3256 -0.3972
 4245TIP3   OH234293   0.307   5.144   3.094  0.4665 -0.0186  0.3567
 4245TIP3    H134294   0.311   5.048   3.100 -2.0155 -0.2573 -0.6103
 4245TIP3    H234295   0.265   5.160   3.010  1.0129  1.9588  0.4279
 4246TIP3   OH234296   5.646   0.776   8.348  0.1581 -0.3508  0.1450
 4246TIP3    H134297   5.704   0.700   8.338 -1.3091 -1.4741 -0.1340
 4246TIP3    H234298   5.558   0.740   8.341 -0.6474  1.0768  2.1644
 4247TIP3   OH234299   4.262   6.557   7.704 -0.3566  0.2025 -0.2146
 4247TIP3    H134300   4.241   6.515   7.788 -0.3689 -3.1702 -1.7130
 4247TIP3    H234301   4.180   6.551   7.654  0.2898 -0.0761 -1.2719
 4248TIP3   OH234302   6.007   0.872   1.897 -0.4770  0.0508  0.6302
 4248TIP3    H134303   5.946   0.909   1.833 -2.0384 -2.0513  0.7791
 4248TIP3    H234304   6.025   0.944   1.958 -3.5630  0.5581  1.0991
 4249TIP3   OH234305   6.748   5.911   8.021  0.5667 -0.0664  0.0435
 4249TIP3    H134306   6.792   5.918   8.105  1.8147 -0.0718 -0.5826
 4249TIP3    H234307   6.720   5.820   8.015 -1.5465  0.4142  1.3813
 4250TIP3   OH234308   0.345   4.903   7.536 -0.2079 -0.2451  0.1064
 4250TIP3    H134309   0.268   4.940   7.493 -1.1481 -0.7970  1.2766
 4250TIP3    H234310   0.332   4.808   7.534  0.0198 -0.3116  1.0444
 4251TIP3   OH234311   2.847   0.000   1.926 -0.3387 -0.0519 -0.1876
 4251TIP3    H134312   2.887  -0.071   1.876 -0.8919 -0.2340 -0.3742
 4251TIP3    H234313   2.921   0.046   1.966  0.0562 -0.3801 -0.5375
 4252TIP3   OH234314   6.362   5.286   1.811 -0.1608 -0.4065  0.1206
 4252TIP3    H134315   6.299   5.214   1.804 -0.1860 -0.4234  0.4739
 4252TIP3    H234316   6.355   5.332   1.728 -0.6222 -0.4286  0.1403
 4253TIP3   OH234317   4.630   0.322   0.741 -0.1050  0.2323 -0.3331
 4253TIP3    H134318   4.661   0.380   0.672 -0.7500 -0.0164 -0.8425
 4253TIP3    H234319   4.704   0.265   0.760  0.4284  1.0040 -0.0546
 4254TIP3   OH234320   2.528   4.007   8.456  0.5403  0.3586 -0.0191
 4254TIP3    H134321   2.535   4.044   8.544  1.2288 -0.4215  0.2732
 4254TIP3    H234322   2.504   3.915   8.471 -1.0321  0.6378 -0.7214
 4255TIP3   OH234323   5.606   1.933   2.336  0.7452 -0.2832 -0.9111
 4255TIP3    H134324   5.523   1.954   2.379  1.7660 -0.7880  1.4907
 4255TIP3    H234325   5.641   2.017   2.307 -0.3645 -0.0122 -1.4997
 4256TIP3   OH234326   4.816   5.382   0.411 -0.0334  0.5152  0.4172
 4256TIP3    H134327   4.873   5.336   0.472  0.9402  0.1995 -0.7078
 4256TIP3    H234328   4.731   5.340   0.421 -0.0930  0.9591  2.0733
 4257TIP3   OH234329   6.622   2.800   8.329  0.0195 -0.6770 -0.1770
 4257TIP3    H134330   6.627   2.800   8.233 -2.1112 -0.4893 -0.3341
 4257TIP3    H234331   6.667   2.879   8.356  3.1377 -2.0836 -0.7771
 4258TIP3   OH234332   6.217   3.001   8.400 -0.4825 -0.0163  0.0365
 4258TIP3    H134333   6.210   3.092   8.432 -0.1006 -0.0081  0.1026
 4258TIP3    H234334   6.277   2.959   8.462 -0.3423 -0.2050 -0.2257
 4259TIP3   OH234335   3.023   6.046   0.441 -0.2440 -0.1659 -0.4296
 4259TIP3    H134336   3.003   6.009   0.356 -0.3875  3.2302 -2.0446
 4259TIP3    H234337   3.062   5.974   0.490  1.3246 -1.9071 -3.8890
 4260TIP3   OH234338   6.791   6.246   1.151 -0.0977 -0.2488 -0.1927
 4260TIP3    H134339   6.852   6.201   1.210  0.9131  0.9352 -0.2843
 4260TIP3    H234340   6.735   6.297   1.208  0.3624  0.2746 -0.1981
 4261TIP3   OH234341   2.382   6.198   2.168  0.4816 -0.0750 -0.2521
 4261TIP3    H134342   2.331   6.130   2.122 -1.9806  1.1837  0.4488
 4261TIP3    H234343   2.469   6.193   2.129 -0.2394 -2.1409 -1.7752
 4262TIP3   OH234344   1.781   5.332   2.371  0.1920  0.5122 -0.6154
 4262TIP3    H134345   1.823   5.247   2.357 -0.1395 -0.0213  1.3240
 4262TIP3    H234346   1.695   5.323   2.329 -0.0279 -0.3137 -0.0279
 4263TIP3   OH234347   4.506   4.834   2.869 -0.1172  0.4534  0.0804
 4263TIP3    H134348   4.475   4.746   2.890  1.5058  0.0386  0.9478
 4263TIP3    H234349   4.427   4.883   2.846 -1.3369 -0.6469  1.7103
 4264TIP3   OH234350   6.507   6.039   1.896  0.6280 -0.1580 -0.5200
 4264TIP3    H134351   6.436   6.097   1.924  0.8443  0.0047 -0.3061
 4264TIP3    H234352   6.570   6.098   1.854  0.8340 -0.2418 -0.3303
 4265TIP3   OH234353   2.748   5.664   0.308  0.5866 -0.7408 -0.0305
 4265TIP3    H134354   2.726   5.661   0.215 -0.4917 -1.2947  0.2108
 4265TIP3    H234355   2.669   5.698   0.350  0.6139 -1.6200  0.7844
 4266TIP3   OH234356   2.527   0.582   2.402  0.2083 -0.2598 -0.3895
 4266TIP3    H134357   2.449   0.632   2.423  0.3921  0.3265 -1.0386
 4266TIP3    H234358   2.511   0.548   2.314  1.3678  1.3506 -1.2882
 4267TIP3   OH234359   4.465   4.093   1.091  0.7795 -0.3246  0.3099
 4267TIP3    H134360   4.502   4.041   1.019  2.0082  0.4876  0.3130
 4267TIP3    H234361   4.511   4.177   1.085 -0.5341  0.4563  0.8392
 4268TIP3   OH234362   5.359   5.999   1.713  0.2888  0.1695 -0.3632
 4268TIP3    H134363   5.362   5.923   1.771 -0.5215  0.7850  0.5269
 4268TIP3    H234364   5.433   6.053   1.739 -0.3693  0.6884  0.4674
 4269TIP3   OH234365   0.579   3.893   8.152 -0.2785  0.1808  0.2756
 4269TIP3    H134366   0.544   3.914   8.066 -1.7939 -0.3081  0.7428
 4269TIP3    H234367   0.658   3.946   8.159  0.0390  0.0233 -1.5132
 4270TIP3   OH234368   5.947   0.237   0.817  0.6433 -0.1624  0.6327
 4270TIP3    H134369   5.877   0.178   0.845  0.4174 -0.7341 -1.0493
 4270TIP3    H234370   6.011   0.233   0.888  0.7014 -2.5758  0.5248
 4271TIP3   OH234371   4.563   6.363   3.082 -0.0316 -0.4520 -0.4572
 4271TIP3    H134372   4.519   6.432   3.032 -1.0232  1.2033  2.4290
 4271TIP3    H234373   4.644   6.403   3.112 -0.9364 -0.1620  1.8367
 4272TIP3   OH234374   0.616   4.974   1.145 -0.5749  0.1774 -0.6932
 4272TIP3    H134375   0.696   4.929   1.116  0.2971  1.6072 -0.5868
 4272TIP3    H234376   0.625   5.063   1.111 -1.3858  0.7926  0.6358
 4273TIP3   OH234377   3.858   2.859   2.891  0.3391  0.1687 -0.1484
 4273TIP3    H134378   3.817   2.785   2.846  1.2678 -0.6583  0.3401
 4273TIP3    H234379   3.935   2.880   2.838 -0.2684  1.2401 -0.6524
 4274TIP3   OH234380   3.730   3.584   1.769  0.4330 -0.1686  0.3899
 4274TIP3    H134381   3.787   3.536   1.710  0.7353 -0.8285  1.2005
 4274TIP3    H234382   3.669   3.631   1.711  0.8565 -0.6226 -0.4381
 4275TIP3   OH234383   4.137   5.940   7.769 -0.4525 -0.4474  0.4588
 4275TIP3    H134384   4.103   6.021   7.733 -0.5176 -0.7405 -0.1610
 4275TIP3    H234385   4.139   5.953   7.864  1.2939  0.9726  0.2805
 4276TIP3   OH234386   4.605   5.226   8.174  0.4250 -0.4901  0.0014
 4276TIP3    H134387   4.530   5.167   8.165  0.4565 -0.4258 -0.7608
 4276TIP3    H234388   4.625   5.253   8.084  2.6198 -2.0358 -0.0405
 4277TIP3   OH234389   6.837   0.783   3.024 -0.0309 -0.3018  0.0517
 4277TIP3    H134390   6.842   0.814   2.933  0.1854  0.0632  0.1837
 4277TIP3    H234391   6.748   0.750   3.033  0.4985 -2.0763 -0.8398
 4278TIP3   OH234392   6.755   1.219   7.415 -0.0570 -0.2270 -0.0183
 4278TIP3    H134393   6.797   1.155   7.357  1.0913 -0.5467  1.1021
 4278TIP3    H234394   6.812   1.221   7.492  0.4419  2.7955 -0.3502
 4279TIP3   OH234395   3.605   0.678   8.082  0.7604  0.3235  0.8289
 4279TIP3    H134396   3.591   0.634   7.998 -0.2065  0.0840  1.1044
 4279TIP3    H234397   3.634   0.766   8.058 -1.3147  0.8801  0.1800
 4280TIP3   OH234398   4.434   4.110   8.527  0.0169  0.0660 -0.2173
 4280TIP3    H134399   4.386   4.058   8.462  1.7577  0.7358 -2.1300
 4280TIP3    H234400   4.382   4.189   8.538 -0.2314 -0.0005 -0.8896
 4281TIP3   OH234401   4.054   0.184   2.378 -0.4508  0.3662  0.3775
 4281TIP3    H134402   4.080   0.169   2.468 -1.6484  0.9613  0.8476
 4281TIP3    H234403   4.100   0.264   2.352 -0.0148  0.1292  0.4150
 4282TIP3   OH234404   3.216   6.484   8.449 -0.0256 -0.8769  0.3453
 4282TIP3    H134405   3.256   6.400   8.426 -0.5839 -1.1181  0.2430
 4282TIP3    H234406   3.123   6.465   8.459 -0.0655 -0.3999  0.9708
 4283TIP3   OH234407   3.714   2.092   1.613 -0.3832 -0.6336 -0.2917
 4283TIP3    H134408   3.652   2.032   1.572 -2.1073  0.5268  0.4682
 4283TIP3    H234409   3.706   2.173   1.563  0.4839 -0.4474 -0.1421
 4284TIP3   OH234410   6.271   0.319   0.326 -0.1103 -0.4279 -0.0624
 4284TIP3    H134411   6.314   0.303   0.410 -0.1608  1.5171  0.3867
 4284TIP3    H234412   6.181   0.342   0.350  0.0033  0.6204 -0.5799
 4285TIP3   OH234413   6.704   0.955   1.443 -0.1783 -0.4179 -0.2068
 4285TIP3    H134414   6.778   0.994   1.397 -1.0251  0.4060 -0.9082
 4285TIP3    H234415   6.641   1.027   1.451 -1.1353 -1.2496 -0.1384
 4286TIP3   OH234416   0.277   4.073   2.343  0.9247  0.3247  0.3289
 4286TIP3    H134417   0.310   4.083   2.253  1.4198  2.6439  0.6955
 4286TIP3    H234418   0.185   4.048   2.332  1.5203 -1.5900 -0.7584
 4287TIP3   OH234419   2.860   2.340   0.341 -0.6037  0.3120  1.0524
 4287TIP3    H134420   2.882   2.320   0.432  0.0788 -1.2102  0.5903
 4287TIP3    H234421   2.833   2.432   0.342  1.4079  0.9430  2.4477
 4288TIP3   OH234422   4.655   5.351   8.512  0.6515  0.1358  0.2175
 4288TIP3    H134423   4.608   5.401   8.445 -0.2942 -0.9754  0.0255
 4288TIP3    H234424   4.680   5.270   8.468 -0.2138 -0.7242  1.2715
 4289TIP3   OH234425   4.045   6.592   1.205 -0.6972  0.2913 -0.5022
 4289TIP3    H134426   3.975   6.632   1.152  0.4127  1.1392 -1.3641
 4289TIP3    H234427   4.028   6.622   1.294 -0.7170  1.5155 -0.9095
 4290TIP3   OH234428   4.756   3.434   0.068  0.0435  0.0011 -0.2807
 4290TIP3    H134429   4.665   3.420   0.044 -0.5196  1.8626  0.5939
 4290TIP3    H234430   4.806   3.408  -0.009 -1.2021 -1.0730 -0.7596
 4291TIP3   OH234431   0.353   1.473   8.025  1.1520 -0.3771  0.3469
 4291TIP3    H134432   0.400   1.555   8.012  1.7928 -0.9860 -1.5960
 4291TIP3    H234433   0.399   1.410   7.969  0.0305 -1.8146  0.9606
 4292TIP3   OH234434   5.968   1.001   7.840 -0.0874  0.8899  0.5578
 4292TIP3    H134435   6.027   1.009   7.766 -0.7995 -1.0103 -0.2940
 4292TIP3    H234436   5.897   0.945   7.808 -0.4250  0.0123  2.6492
 4293TIP3   OH234437   2.600   0.800   1.355  0.4625 -0.3009 -0.1260
 4293TIP3    H134438   2.690   0.774   1.378 -0.1862 -1.4110  1.3580
 4293TIP3    H234439   2.592   0.780   1.262  0.8573 -3.1192  0.3359
 4294TIP3   OH234440   0.803   2.595   1.741  0.4519 -0.5067 -0.3026
 4294TIP3    H134441   0.842   2.526   1.687  1.4665 -0.0990 -0.1194
 4294TIP3    H234442   0.714   2.565   1.757  0.3961 -1.0394 -1.4957
 4295TIP3   OH234443   3.628   0.888   8.663 -0.3055 -0.3733  0.4940
 4295TIP3    H134444   3.563   0.928   8.605  0.0450  1.2693  1.1842
 4295TIP3    H234445   3.712   0.907   8.622 -0.0922  0.2257  1.1892
 4296TIP3   OH234446   2.572   2.089   8.743  0.1227  0.0535  0.2447
 4296TIP3    H134447   2.659   2.127   8.753 -0.1114  0.6280  0.0952
 4296TIP3    H234448   2.512   2.160   8.763 -0.3273  0.0824 -1.1306
 4297TIP3   OH234449   6.245   4.873   0.943 -0.2156  0.1383  0.3223
 4297TIP3    H134450   6.319   4.812   0.941 -0.2034  0.0972  1.4950
 4297TIP3    H234451   6.213   4.870   1.033 -0.4116  1.6426  0.3298
 4298TIP3   OH234452   6.718   0.846   2.320 -0.2535  0.2212  0.3323
 4298TIP3    H134453   6.727   0.800   2.236  1.0205  0.9658  0.0327
 4298TIP3    H234454   6.639   0.898   2.310 -0.0566  0.3865 -0.4740
 4299TIP3   OH234455   3.665   4.327   0.403 -0.7382  0.0211  0.0074
 4299TIP3    H134456   3.605   4.400   0.392 -0.9328 -0.1210  0.1125
 4299TIP3    H234457   3.736   4.362   0.457  0.5029  0.8866 -2.0768
 4300TIP3   OH234458   3.539   5.685   2.174  0.6631 -0.3655  0.5490
 4300TIP3    H134459   3.503   5.774   2.180  2.3842  0.3934  0.2023
 4300TIP3    H234460   3.506   5.652   2.090  0.2520  0.0579  0.5360
 4301TIP3   OH234461   6.800   2.262   2.869  0.1333 -0.4756  0.1837
 4301TIP3    H134462   6.735   2.333   2.869  0.2669 -0.3506 -0.0953
 4301TIP3    H234463   6.867   2.291   2.930  1.8615  1.2104 -2.3046
 4302TIP3   OH234464   4.682   3.915   7.357  0.1575  0.1289 -0.4059
 4302TIP3    H134465   4.655   3.891   7.269  0.5686 -0.4991 -0.3655
 4302TIP3    H234466   4.695   3.832   7.403  0.2425  0.4415  0.1577
 4303TIP3   OH234467   0.307   1.206   3.314  0.3007 -0.6438 -0.3116
 4303TIP3    H134468   0.338   1.121   3.281  2.3757 -0.4098  0.8449
 4303TIP3    H234469   0.385   1.247   3.351 -0.7832  1.5249 -0.2734
 4304TIP3   OH234470   2.025   3.165   0.232 -0.0458 -0.0119  0.6411
 4304TIP3    H134471   2.095   3.101   0.242 -1.2513 -1.5810 -0.5102
 4304TIP3    H234472   2.041   3.204   0.146 -0.1094  0.2245  0.7370
 4305TIP3   OH234473   5.740   4.720   0.431  0.0238 -0.2029  0.5158
 4305TIP3    H134474   5.706   4.681   0.511 -2.0635 -2.8396 -1.4442
 4305TIP3    H234475   5.807   4.658   0.400 -0.9782 -0.6020 -0.9774
 4306TIP3   OH234476   4.217   5.123   1.032 -0.1669  0.0674  0.1570
 4306TIP3    H134477   4.157   5.123   0.958 -1.3607 -2.0612  1.0334
 4306TIP3    H234478   4.173   5.174   1.100  0.1663  0.6025 -0.0232
 4307TIP3   OH234479   2.947   0.009   7.248 -0.1789  0.0413  0.0181
 4307TIP3    H134480   2.978   0.044   7.331 -1.2066 -1.8693  1.2742
 4307TIP3    H234481   3.027  -0.017   7.202  0.4106  1.2863  0.2929
 4308TIP3   OH234482   4.257   4.133   0.733 -0.2755  0.6296 -0.2921
 4308TIP3    H134483   4.293   4.220   0.752 -1.6533  1.5816 -1.7359
 4308TIP3    H234484   4.332   4.082   0.704  0.0539  2.5890 -3.3539
 4309TIP3   OH234485   2.118   0.664   3.465  0.1450  0.4889 -0.3976
 4309TIP3    H134486   2.133   0.756   3.489  0.1668  0.0953  1.1989
 4309TIP3    H234487   2.193   0.642   3.409  0.8300  1.0959  0.2510
 4310TIP3   OH234488   4.401   0.570   1.228  0.2181 -0.3308  0.6064
 4310TIP3    H134489   4.350   0.651   1.222 -1.6460 -1.5226 -1.0073
 4310TIP3    H234490   4.460   0.574   1.153  0.1677 -0.4212  0.5612
 4311TIP3   OH234491   0.940   0.508   2.233 -0.1590  0.6663 -0.1008
 4311TIP3    H134492   0.872   0.446   2.261  0.4257 -1.0944 -2.3197
 4311TIP3    H234493   0.900   0.557   2.162 -0.7158  3.2023  1.8079
 4312TIP3   OH234494   6.088   1.573   3.444 -0.2179  0.0747 -0.1074
 4312TIP3    H134495   6.170   1.589   3.397  0.1452 -0.4710  0.3168
 4312TIP3    H234496   6.114   1.516   3.517 -1.0819 -0.6597 -0.3535
 4313TIP3   OH234497   0.599   5.810   2.422 -0.6620  0.1227 -0.4356
 4313TIP3    H134498   0.637   5.755   2.490  0.1183  0.6972 -0.3983
 4313TIP3    H234499   0.616   5.900   2.451  0.0800  0.3763 -1.6023
 4314TIP3   OH234500   3.936   5.701   1.118 -0.3575 -0.1988  0.4546
 4314TIP3    H134501   3.894   5.658   1.192  0.1730 -0.5759  0.5522
 4314TIP3    H234502   3.864   5.732   1.063 -0.8106  2.3823  2.3690
 4315TIP3   OH234503   1.871   1.273   2.841 -0.2216  0.3434  0.4980
 4315TIP3    H134504   1.787   1.258   2.799 -0.2003 -2.0038  1.1877
 4315TIP3    H234505   1.863   1.360   2.880 -3.0010 -0.4679  2.0114
 4316TIP3   OH234506   2.235   1.588   8.671 -0.0008  0.4756 -0.3116
 4316TIP3    H134507   2.190   1.671   8.686 -2.1452 -0.5030 -0.9242
 4316TIP3    H234508   2.328   1.611   8.667 -0.5999  2.9794 -1.4942
 4317TIP3   OH234509   6.674   3.052   1.931  0.4315 -0.4542 -0.2678
 4317TIP3    H134510   6.670   2.973   1.878 -0.2077 -0.9653  0.5056
 4317TIP3    H234511   6.660   3.124   1.870  2.3236 -0.8206 -1.2043
 4318TIP3   OH234512   0.715   2.456   2.397  0.4346  0.0684 -0.0519
 4318TIP3    H134513   0.727   2.418   2.310  0.2536  0.2632 -0.1647
 4318TIP3    H234514   0.622   2.445   2.415  0.7530 -1.4257  0.8133
 4319TIP3   OH234515   1.683   1.086   8.609  0.5660  0.5678 -0.0722
 4319TIP3    H134516   1.778   1.096   8.612  0.6520 -0.3927  0.8159
 4319TIP3    H234517   1.668   1.017   8.544  0.3863  1.5794 -1.1320
 4320TIP3   OH234518   0.727   2.281   0.521  0.8841 -0.1038 -0.2364
 4320TIP3    H134519   0.780   2.255   0.597  1.7005 -0.7131 -0.9893
 4320TIP3    H234520   0.741   2.375   0.513 -1.1767  0.4501  1.8282
 4321TIP3   OH234521   1.086   1.960   1.512 -0.4507  0.5471  0.0445
 4321TIP3    H134522   1.160   1.992   1.460 -0.0467 -0.0627  0.2386
 4321TIP3    H234523   1.055   1.883   1.465 -0.4702  0.3468  0.3815
 4322TIP3   OH234524   5.688   4.181   8.645 -0.2353  0.3198 -0.1643
 4322TIP3    H134525   5.714   4.273   8.638 -0.0210  0.1815 -1.3364
 4322TIP3    H234526   5.623   4.170   8.576  0.2168 -0.5817 -0.4432
 4323TIP3   OH234527   1.277   4.102   0.319  0.1433  0.7320  0.3513
 4323TIP3    H134528   1.198   4.144   0.286 -0.2631 -0.8692 -0.7888
 4323TIP3    H234529   1.246   4.030   0.373  0.8160  0.1529 -0.0154
 4324TIP3   OH234530   4.223   3.831   0.583 -0.5261 -0.0367  0.4612
 4324TIP3    H134531   4.241   3.788   0.667 -2.0750  1.0870  1.4281
 4324TIP3    H234532   4.229   3.760   0.518  0.4459 -0.9841  1.5242
 4325TIP3   OH234533   4.694   6.393   1.758  0.0747  0.8237 -0.2024
 4325TIP3    H134534   4.754   6.415   1.829  1.8414  0.4335 -1.5138
 4325TIP3    H234535   4.697   6.469   1.700 -0.7058  0.8004 -0.2814
 4326TIP3   OH234536   1.692   5.024   0.557 -0.2747  0.7314 -0.0846
 4326TIP3    H134537   1.716   4.944   0.604  0.3069  0.8482 -0.1760
 4326TIP3    H234538   1.623   5.063   0.611  0.9689  1.3056  1.1624
 4327TIP3   OH234539   0.073   3.478   8.650  0.0480  0.0093  0.2037
 4327TIP3    H134540   0.155   3.471   8.602 -0.4303  1.1915 -0.8425
 4327TIP3    H234541   0.042   3.388   8.657  0.4742 -0.2630 -1.1068
 4328TIP3   OH234542   4.150   1.279   8.052  0.1440 -0.1435  0.1966
 4328TIP3    H134543   4.104   1.288   7.969  0.4814  0.9943  0.1180
 4328TIP3    H234544   4.163   1.369   8.083  0.9584 -0.5039  0.9652
 4329TIP3   OH234545   3.318   4.358   2.577  0.4761 -0.0764 -0.2175
 4329TIP3    H134546   3.285   4.292   2.517  1.7149 -0.8853 -0.0387
 4329TIP3    H234547   3.299   4.324   2.664 -0.4950  0.6664 -0.1230
 4330TIP3   OH234548   5.437   2.300   7.280 -0.4175 -0.0403  0.2026
 4330TIP3    H134549   5.500   2.228   7.277  1.2170  1.3541 -1.5013
 4330TIP3    H234550   5.444   2.342   7.194 -0.8848  2.4550  1.2861
 4331TIP3   OH234551   6.761   6.012   7.687  0.0156  0.3336  0.3209
 4331TIP3    H134552   6.753   5.922   7.656  0.6412  0.4631 -0.2496
 4331TIP3    H234553   6.686   6.024   7.745 -0.9130 -0.0741 -0.7581
 4332TIP3   OH234554   3.800   2.631   2.762 -0.3872 -0.3518 -0.2095
 4332TIP3    H134555   3.856   2.595   2.693  1.5521 -1.4384  1.7929
 4332TIP3    H234556   3.713   2.597   2.741  0.6601 -3.1014 -0.5816
 4333TIP3   OH234557   5.761   1.343   1.826 -0.2256  0.7115  0.4467
 4333TIP3    H134558   5.702   1.366   1.754  0.3230 -1.8209 -0.9167
 4333TIP3    H234559   5.822   1.417   1.831 -1.9718  2.2603  0.2810
 4334TIP3   OH234560   3.409   6.447   2.228  0.0307  0.7899 -0.2247
 4334TIP3    H134561   3.411   6.529   2.180 -1.4960  0.0372 -1.6419
 4334TIP3    H234562   3.501   6.421   2.233  0.4430  2.0924 -0.5956
 4335TIP3   OH234563   0.945   5.779   8.441  0.8872 -0.0905  0.5487
 4335TIP3    H134564   1.015   5.731   8.485  1.3289  1.8989  2.1343
 4335TIP3    H234565   0.865   5.744   8.479  1.1145 -0.6084  0.5687
 4336TIP3   OH234566   3.565   5.017   8.303 -1.0778  0.4931  0.3639
 4336TIP3    H134567   3.525   5.094   8.262 -0.7311  0.6912  0.3893
 4336TIP3    H234568   3.589   4.961   8.229 -0.7403  0.7061  0.3113
 4337TIP3   OH234569   0.813   2.067   8.315  0.5186  0.1220 -0.1642
 4337TIP3    H134570   0.749   2.084   8.385  0.5370 -0.8949  0.1106
 4337TIP3    H234571   0.761   2.029   8.244  0.9634 -1.9946  0.5552
 4338TIP3   OH234572   3.873   2.365   8.683 -0.3772 -0.5534  0.4736
 4338TIP3    H134573   3.966   2.378   8.663 -0.7196  1.1625 -0.2021
 4338TIP3    H234574   3.852   2.435   8.745 -1.7798  0.7285 -1.3364
 4339TIP3   OH234575   0.384   6.293   8.588  0.0947 -0.3570  0.0479
 4339TIP3    H134576   0.422   6.354   8.525  0.1356 -0.4291  0.0019
 4339TIP3    H234577   0.403   6.332   8.674 -0.7719  0.2148 -0.0074
 4340TIP3   OH234578   5.022   0.228   0.176 -0.1855 -0.4026  0.6096
 4340TIP3    H134579   5.046   0.321   0.184 -0.5183 -0.3189  0.6763
 4340TIP3    H234580   5.038   0.191   0.262  0.4445 -0.5320  0.4445
 4341TIP3   OH234581   4.833   0.126   0.802  0.5951 -0.1118 -0.7261
 4341TIP3    H134582   4.823   0.155   0.893 -3.0103 -1.5702 -0.4802
 4341TIP3    H234583   4.865   0.036   0.810 -1.7365 -1.0264 -0.6282
 4342TIP3   OH234584   4.246   6.835   2.764 -0.3294 -0.4851 -0.1493
 4342TIP3    H134585   4.259   6.843   2.858 -0.2923 -0.2116 -0.1767
 4342TIP3    H234586   4.333   6.846   2.726 -0.2096 -1.3887 -0.1739
 4343TIP3   OH234587   3.924   5.505   8.387 -0.0630  0.9382  0.4823
 4343TIP3    H134588   3.928   5.598   8.365  0.4263  1.8034  3.6098
 4343TIP3    H234589   3.944   5.503   8.481  0.8667 -2.4340  0.3215
 4344TIP3   OH234590   5.851   0.012   0.974 -0.1325  0.0175  0.0998
 4344TIP3    H134591   5.899   0.034   1.053 -1.3253 -0.0693  0.8799
 4344TIP3    H234592   5.856  -0.084   0.969  0.9144  0.1006 -0.5768
 4345TIP3   OH234593   1.061   3.773   1.488 -0.3006 -0.4264 -0.1198
 4345TIP3    H134594   0.971   3.797   1.466  0.0979 -0.2379 -1.6508
 4345TIP3    H234595   1.063   3.776   1.584 -0.8994  3.3852 -0.0577
 4346TIP3   OH234596   4.886   2.645   2.556 -0.1003 -0.2153 -0.3027
 4346TIP3    H134597   4.928   2.628   2.640  0.7436  1.6760 -0.2905
 4346TIP3    H234598   4.801   2.683   2.578  0.0464  0.1151 -0.3095
 4347TIP3   OH234599   1.645   6.249   0.843 -0.0389  0.0580  0.6661
 4347TIP3    H134600   1.735   6.279   0.852 -0.3025  0.7180  1.1523
 4347TIP3    H234601   1.619   6.280   0.756  0.9494 -2.1975 -0.5365
 4348TIP3   OH234602   5.249   2.841   0.397  0.7298  0.0958  0.1567
 4348TIP3    H134603   5.210   2.929   0.398 -1.1639 -0.6147 -2.0404
 4348TIP3    H234604   5.177   2.783   0.423  1.3147 -0.9834 -0.5733
 4349TIP3   OH234605   5.120   1.011   1.818  0.4359  0.2247 -0.7709
 4349TIP3    H134606   5.157   1.090   1.856  1.3268 -0.3158 -0.4687
 4349TIP3    H234607   5.193   0.971   1.769  0.3527 -1.0089  0.0654
 4350TIP3   OH234608   0.791   0.800   1.121 -0.0275  0.4977  0.2941
 4350TIP3    H134609   0.808   0.785   1.214 -0.4322  0.3939  0.3507
 4350TIP3    H234610   0.857   0.747   1.077 -0.3859 -0.1357  0.5138
 4351TIP3   OH234611   6.118   4.152   2.589 -0.2609 -0.0974 -0.0599
 4351TIP3    H134612   6.199   4.104   2.608 -0.2132  0.6909  1.9268
 4351TIP3    H234613   6.092   4.191   2.673 -1.7335  1.1670 -1.0406
 4352TIP3   OH234614   3.001   1.044   1.470 -0.1772 -0.0193 -0.3919
 4352TIP3    H134615   2.936   0.979   1.498 -0.1127  0.5306  1.1074
 4352TIP3    H234616   3.042   1.073   1.551  0.0434  1.6536 -1.0689
 4353TIP3   OH234617   1.073   2.545   8.461  0.0253 -0.0359 -0.0642
 4353TIP3    H134618   1.009   2.474   8.465  0.1778 -0.5066 -3.3758
 4353TIP3    H234619   1.094   2.554   8.368  1.2577  3.2830  0.3819
 4354TIP3   OH234620   0.268   2.568   1.412  0.2121 -0.9163 -0.6210
 4354TIP3    H134621   0.212   2.572   1.334 -0.7884 -3.3148 -0.1396
 4354TIP3    H234622   0.208   2.542   1.483  1.2636  0.2800  0.7669
 4355TIP3   OH234623   5.651   4.309   0.944  0.2522 -0.1854  0.5790
 4355TIP3    H134624   5.677   4.360   0.868 -1.6057 -0.6580 -0.4380
 4355TIP3    H234625   5.715   4.238   0.949  1.3736  0.7950  0.4961
 4356TIP3   OH234626   4.865   5.819   2.570  0.0932 -0.4769 -0.5843
 4356TIP3    H134627   4.840   5.851   2.657  0.9071  0.6073 -0.7320
 4356TIP3    H234628   4.848   5.725   2.574  0.2344 -0.4719  0.7953
 4357TIP3   OH234629   4.060   1.980   1.427 -0.1631  0.4200  0.5518
 4357TIP3    H134630   4.052   2.074   1.444  0.9098  0.4346  1.0219
 4357TIP3    H234631   4.009   1.938   1.497 -1.4538  0.6533 -0.2088
 4358TIP3   OH234632   4.962   5.387   1.743  0.0938  0.5129 -0.5479
 4358TIP3    H134633   5.041   5.431   1.713  0.7713  0.4498  1.0563
 4358TIP3    H234634   4.902   5.458   1.767  0.8507  0.6335  1.1719
 4359TIP3   OH234635   0.079   3.528   2.735 -0.0234  0.1213  0.0504
 4359TIP3    H134636   0.137   3.513   2.810 -1.4576  2.8597  1.8611
 4359TIP3    H234637  -0.009   3.513   2.769 -0.7087  1.2772 -1.1159
 4360TIP3   OH234638   6.395   4.226   2.219  0.0159  0.1347 -0.4561
 4360TIP3    H134639   6.419   4.133   2.220 -0.8064 -0.0740  0.2248
 4360TIP3    H234640   6.300   4.226   2.205  0.1002  0.8977 -1.1073
 4361TIP3   OH234641   5.244   0.564   0.785 -0.2091  0.2660  0.6127
 4361TIP3    H134642   5.337   0.574   0.803 -0.5852  2.0894  1.8649
 4361TIP3    H234643   5.229   0.470   0.781  1.5953 -0.0492  0.8280
 4362TIP3   OH234644   0.135   3.831   3.133  0.0691 -0.6703  0.0879
 4362TIP3    H134645   0.061   3.772   3.148 -0.3966 -0.0131  0.3862
 4362TIP3    H234646   0.198   3.778   3.084 -0.9104 -1.0160 -0.8324
 4363TIP3   OH234647   6.677   3.833   0.666 -0.3277  0.1823 -0.4091
 4363TIP3    H134648   6.653   3.852   0.757 -1.1056 -1.4188 -0.2475
 4363TIP3    H234649   6.771   3.815   0.669  0.0125  1.8264 -0.2399
 4364TIP3   OH234650   2.433   5.570   1.123 -0.3938  0.0253 -0.1869
 4364TIP3    H134651   2.486   5.491   1.108 -1.5447 -0.8548  0.2192
 4364TIP3    H234652   2.348   5.548   1.086 -0.3223  1.6561 -1.3974
 4365TIP3   OH234653   2.416   3.630   2.699 -0.0709 -0.1786  0.4629
 4365TIP3    H134654   2.364   3.562   2.657  1.1269 -1.0788  0.4031
 4365TIP3    H234655   2.378   3.639   2.786 -0.2334 -0.9363  0.4765
 4366TIP3   OH234656   0.096   0.112   1.187  0.3142  0.6267 -0.1765
 4366TIP3    H134657   0.066   0.130   1.276  2.6337  2.0794  0.4167
 4366TIP3    H234658   0.034   0.159   1.131 -1.2981 -0.4878  0.6044
 4367TIP3   OH234659   4.271   0.053   1.651  0.7124  0.2998 -0.0715
 4367TIP3    H134660   4.277  -0.032   1.694 -0.0477  0.9894  1.4482
 4367TIP3    H234661   4.177   0.072   1.648  0.7078  0.2525 -2.1473
 4368TIP3   OH234662   0.877   0.230   3.333 -0.2212 -0.6019 -0.0094
 4368TIP3    H134663   0.939   0.229   3.261 -0.0871  1.0243  0.0451
 4368TIP3    H234664   0.798   0.270   3.297 -1.0982 -2.2074  0.0506
 4369TIP3   OH234665   3.410   1.467   8.531 -0.0897  0.0176  0.1843
 4369TIP3    H134666   3.501   1.439   8.540  0.0258  0.4015  0.2372
 4369TIP3    H234667   3.380   1.482   8.620 -0.6959 -1.5969  0.2915
 4370TIP3   OH234668   3.222   4.833   1.956  0.1127 -0.1595 -0.3441
 4370TIP3    H134669   3.129   4.850   1.943 -0.0222 -1.1064 -0.6684
 4370TIP3    H234670   3.226   4.763   2.020  0.5372 -1.1623 -1.4235
 4371TIP3   OH234671   0.113   3.782   0.704 -0.1318 -0.3176 -0.7169
 4371TIP3    H134672   0.189   3.798   0.647  2.2854 -2.7327  1.4998
 4371TIP3    H234673   0.133   3.831   0.784 -2.2943  1.1058 -0.9689
 4372TIP3   OH234674   4.598   1.165   0.007  0.4641  0.0135 -0.0540
 4372TIP3    H134675   4.538   1.221   0.056  1.7955  1.5439 -0.0890
 4372TIP3    H234676   4.566   1.169  -0.083  1.7421  2.6021 -0.5096
 4373TIP3   OH234677   4.953   6.451   0.054 -0.1001  0.2786  0.2618
 4373TIP3    H134678   4.951   6.527   0.112 -2.2250 -0.1470  0.8165
 4373TIP3    H234679   4.870   6.454   0.006  0.6926 -0.5441 -1.2595
 4374TIP3   OH234680   0.463   4.922   2.432  0.0764 -0.1812  0.0682
 4374TIP3    H134681   0.438   4.907   2.341  1.8332 -0.1924 -0.4540
 4374TIP3    H234682   0.553   4.957   2.427  0.8020 -1.6230  1.8564
 4375TIP3   OH234683   3.212   3.112   1.852 -0.0905 -0.0854 -0.4550
 4375TIP3    H134684   3.134   3.168   1.842 -0.7265 -0.6560  0.9567
 4375TIP3    H234685   3.224   3.105   1.947  0.1804 -2.0490 -0.5880
 4376TIP3   OH234686   1.482   6.130   1.292  0.4500 -1.1272 -0.6628
 4376TIP3    H134687   1.577   6.118   1.292  0.4825 -1.2165 -2.5489
 4376TIP3    H234688   1.469   6.216   1.332  1.2127 -1.5728  0.6225
 4377TIP3   OH234689   0.329   5.327   8.271  0.0842 -0.0572 -0.0209
 4377TIP3    H134690   0.247   5.329   8.321  0.0460 -2.6428  0.2017
 4377TIP3    H234691   0.356   5.235   8.275  2.9317  0.6884 -0.2417
 4378TIP3   OH234692   6.455   4.139   8.434  0.3806 -0.2092 -0.6154
 4378TIP3    H134693   6.372   4.098   8.411 -0.4204  0.7816  0.3784
 4378TIP3    H234694   6.489   4.086   8.506 -0.3906  0.4831  0.3035
 4379TIP3   OH234695   6.250   5.662   8.133 -0.0478  0.4203  0.0469
 4379TIP3    H134696   6.220   5.620   8.213  1.8247  0.0037  0.5776
 4379TIP3    H234697   6.179   5.722   8.110 -1.6993 -1.2149  0.6207
 4380TIP3   OH234698   5.724   1.651   8.118  0.1451  0.1188  0.2756
 4380TIP3    H134699   5.729   1.584   8.050  1.5386 -0.1801  0.6356
 4380TIP3    H234700   5.641   1.633   8.164 -0.1744 -0.4814 -0.5137
 4381TIP3   OH234701   1.173   4.800   1.156  0.2827 -0.2954  0.3264
 4381TIP3    H134702   1.219   4.820   1.237 -1.8710  1.3992  1.2618
 4381TIP3    H234703   1.187   4.707   1.141  2.0082 -0.3042  1.7843
 4382TIP3   OH234704   6.088   5.868   7.498  0.3050 -0.1421  0.0738
 4382TIP3    H134705   6.118   5.956   7.474  1.4261 -0.1489  1.3432
 4382TIP3    H234706   6.145   5.809   7.448  0.3213 -0.1536  0.1065
 4383TIP3   OH234707   3.153   6.320   0.619  0.1961 -0.4151  0.1214
 4383TIP3    H134708   3.077   6.277   0.658 -0.4312  1.4910  1.0980
 4383TIP3    H234709   3.224   6.257   0.631 -0.4844 -0.8597  2.3225
 4384TIP3   OH234710   5.745   4.385   7.778 -0.0876 -0.0211 -0.2904
 4384TIP3    H134711   5.791   4.308   7.812  2.8907  1.1307 -1.4006
 4384TIP3    H234712   5.703   4.424   7.855  1.0275 -1.0048  0.8599
 4385TIP3   OH234713   2.531   0.938   0.337 -0.1591 -0.1681 -0.3423
 4385TIP3    H134714   2.557   1.027   0.362 -1.6702  0.2818 -0.2695
 4385TIP3    H234715   2.482   0.950   0.256 -0.7086 -0.8862 -0.1202
 4386TIP3   OH234716   5.368   3.671   7.660 -0.0645 -0.4839  0.1973
 4386TIP3    H134717   5.331   3.604   7.602  0.4636  1.4919 -2.6686
 4386TIP3    H234718   5.446   3.702   7.614  0.5154  1.0952  2.1047
 4387TIP3   OH234719   3.003   5.857   8.120  0.7980  0.2276 -0.2012
 4387TIP3    H134720   3.013   5.798   8.045  0.0416  2.6383 -2.3504
 4387TIP3    H234721   3.077   5.918   8.112  0.7964  0.4264  1.1422
 4388TIP3   OH234722   1.531   3.122   0.822  0.5324 -0.7121 -0.2219
 4388TIP3    H134723   1.608   3.067   0.834 -0.1778 -2.0908 -1.6088
 4388TIP3    H234724   1.539   3.155   0.732  0.9373  1.5246  0.5567
 4389TIP3   OH234725   1.239   4.292   7.422 -0.0424  0.3068  0.3156
 4389TIP3    H134726   1.239   4.386   7.402 -0.2075 -0.0022 -1.1865
 4389TIP3    H234727   1.148   4.265   7.411  0.2992 -0.3644 -0.9064
 4390TIP3   OH234728   5.497   4.403   2.197  0.2242  0.1716  0.1936
 4390TIP3    H134729   5.455   4.324   2.163 -2.2172  1.8599 -1.0445
 4390TIP3    H234730   5.504   4.388   2.291 -2.6539 -0.5325  0.3874
 4391TIP3   OH234731   3.453   1.251   7.763  0.0612 -0.1782 -0.2268
 4391TIP3    H134732   3.431   1.340   7.791 -1.5831  0.0202 -1.9515
 4391TIP3    H234733   3.399   1.195   7.819  0.3863 -0.0474  0.2231
 4392TIP3   OH234734   6.649   2.340   7.432 -0.2857 -0.0170 -0.0395
 4392TIP3    H134735   6.659   2.325   7.526  0.8573 -0.4601 -0.2108
 4392TIP3    H234736   6.590   2.415   7.426  0.4846  0.7213  1.0729
 4393TIP3   OH234737   5.520   4.206   7.746  0.2583  0.4016 -0.4920
 4393TIP3    H134738   5.558   4.267   7.683  1.6025  2.1913  1.8521
 4393TIP3    H234739   5.567   4.124   7.731 -0.5034  0.3201 -2.7081
 4394TIP3   OH234740   4.003   5.243   2.520 -0.4310  0.2498 -0.2511
 4394TIP3    H134741   3.988   5.335   2.542 -0.1213  0.5877 -1.4098
 4394TIP3    H234742   4.039   5.205   2.600 -2.3043  0.6744  0.8627
 4395TIP3   OH234743   5.939   6.644   8.473  0.2064  0.3070  0.2307
 4395TIP3    H134744   5.903   6.722   8.429 -2.1929  0.0334  1.5023
 4395TIP3    H234745   5.990   6.679   8.546 -1.1583  0.7460  1.0116
 4396TIP3   OH234746   2.665   3.660   7.032  0.8686 -0.1811 -0.3555
 4396TIP3    H134747   2.717   3.739   7.045 -0.1271  0.4097  0.1844
 4396TIP3    H234748   2.681   3.636   6.940  0.9711  0.8050 -0.6063
 4397TIP3   OH234749   2.077   2.108   7.117  0.1261 -0.3022 -0.2172
 4397TIP3    H134750   2.126   2.046   7.170  0.4310  1.5699  1.8566
 4397TIP3    H234751   2.118   2.104   7.031  3.4452  0.5413  1.1646
 4398TIP3   OH234752   5.292   5.179   7.471 -0.0575 -0.1395  0.7535
 4398TIP3    H134753   5.271   5.256   7.418 -1.9139 -0.5752  0.7684
 4398TIP3    H234754   5.330   5.215   7.551  0.9227  0.6355 -0.0406
 4399TIP3   OH234755   3.777   6.028   1.693  0.2335 -0.6292 -0.6413
 4399TIP3    H134756   3.715   6.096   1.667  1.6678  1.0009  0.0064
 4399TIP3    H234757   3.731   5.978   1.761 -0.3695  0.5430 -0.1615
 4400TIP3   OH234758   4.837   0.694   2.184 -0.9001  0.0785  0.0270
 4400TIP3    H134759   4.761   0.637   2.195  0.2177 -1.0875  2.5123
 4400TIP3    H234760   4.891   0.650   2.119 -1.7886  0.3211 -0.9005
 4401TIP3   OH234761   5.874   2.004   1.040 -0.8831 -0.3627 -0.0228
 4401TIP3    H134762   5.846   1.957   0.961  1.4509  0.2322 -1.3003
 4401TIP3    H234763   5.867   2.096   1.017  0.0206 -0.1860  0.3729
 4402TIP3   OH234764   2.817   1.136   0.808 -0.3295 -0.0529 -0.0629
 4402TIP3    H134765   2.773   1.118   0.891 -1.6025  1.1254 -0.4431
 4402TIP3    H234766   2.818   1.052   0.763  2.9156 -1.4222  2.2112
 4403TIP3   OH234767   0.628   6.254   1.499  0.0391 -0.1428 -0.2056
 4403TIP3    H134768   0.665   6.260   1.588  0.4843 -1.8082 -0.2290
 4403TIP3    H234769   0.697   6.211   1.448 -0.3634  0.4625 -1.2815
 4404TIP3   OH234770   5.729   5.371   0.719 -0.4077 -0.1452  0.0273
 4404TIP3    H134771   5.723   5.281   0.749 -0.9992 -0.5560 -1.2574
 4404TIP3    H234772   5.742   5.364   0.624 -0.0351  1.1143 -0.0373
 4405TIP3   OH234773   1.292   0.867   2.386 -0.1942 -0.4859 -0.4911
 4405TIP3    H134774   1.251   0.792   2.343 -2.7009  0.0702  0.7676
 4405TIP3    H234775   1.273   0.941   2.329 -3.1496  0.1759  1.1388
 4406TIP3   OH234776   5.948   0.670   8.428  0.2168 -0.0380 -0.1130
 4406TIP3    H134777   5.874   0.725   8.452 -1.0166 -1.2443 -1.0516
 4406TIP3    H234778   6.008   0.730   8.383  0.1273  1.0723  1.1733
 4407TIP3   OH234779   0.233   2.027   0.827  0.9921  0.6155  0.2833
 4407TIP3    H134780   0.196   1.939   0.829 -0.9442  1.2997 -1.7091
 4407TIP3    H234781   0.194   2.072   0.902 -0.5396  0.6626 -0.5057
 4408TIP3   OH234782   6.491   2.796   0.707  0.0573 -0.0387  0.0749
 4408TIP3    H134783   6.570   2.768   0.754 -0.5415  0.6326  1.5520
 4408TIP3    H234784   6.523   2.829   0.623  1.1477 -1.4469 -0.0869
 4409TIP3   OH234785   4.494   0.007   8.004  0.0376 -0.1788 -0.1694
 4409TIP3    H134786   4.432  -0.063   8.024 -0.7616  0.7830  0.8114
 4409TIP3    H234787   4.504   0.003   7.909 -1.4479 -0.4134 -0.3399
 4410TIP3   OH234788   4.649   6.641   1.989  0.1563  0.3379 -0.1631
 4410TIP3    H134789   4.638   6.568   2.050  1.5710 -0.1259 -0.4340
 4410TIP3    H234790   4.609   6.716   2.034  0.8860 -0.0665  1.2042
 4411TIP3   OH234791   3.952   5.084   2.014  0.0696  0.6735  0.3500
 4411TIP3    H134792   3.982   5.174   2.026 -1.2949  1.0446  1.3458
 4411TIP3    H234793   3.859   5.093   1.991 -0.2965 -0.4704  1.2755
 4412TIP3   OH234794   0.191   2.621   3.052 -0.6277  0.2916  0.2715
 4412TIP3    H134795   0.147   2.686   3.107  0.0586 -0.8704  2.3001
 4412TIP3    H234796   0.131   2.546   3.053 -0.0540 -0.1646  0.4188
 4413TIP3   OH234797   6.206   6.535   3.165  0.4319 -0.0625  0.0572
 4413TIP3    H134798   6.125   6.529   3.115  0.3522 -0.5206  0.2338
 4413TIP3    H234799   6.264   6.589   3.112  0.1843 -0.1578 -0.3085
 4414TIP3   OH234800   1.861   3.230   0.612  0.2928 -0.6214  0.0770
 4414TIP3    H134801   1.945   3.210   0.653 -0.0616  1.1328  1.8109
 4414TIP3    H234802   1.800   3.168   0.652  0.5575 -1.2803 -0.5032
 4415TIP3   OH234803   1.441   6.687   2.715 -0.4693 -0.0947  0.0653
 4415TIP3    H134804   1.388   6.764   2.737 -1.1664 -1.0148  1.7843
 4415TIP3    H234805   1.478   6.659   2.798  2.3894  0.1954 -0.9848
 4416TIP3   OH234806   2.370   0.008   2.346 -0.2248  0.1452 -0.2466
 4416TIP3    H134807   2.298   0.046   2.295 -0.2820 -0.9530 -0.9989
 4416TIP3    H234808   2.407   0.083   2.393 -1.7735  0.7577  0.0681
 4417TIP3   OH234809   4.484   1.508   0.230  0.1838 -0.6207  0.2779
 4417TIP3    H134810   4.511   1.591   0.269 -1.2714  1.3009 -2.5027
 4417TIP3    H234811   4.565   1.456   0.227  1.5037  1.2887  0.6566
 4418TIP3   OH234812   4.620   3.328   2.375  0.1198 -0.0106 -0.0737
 4418TIP3    H134813   4.630   3.244   2.329  1.6350  0.4650 -0.6716
 4418TIP3    H234814   4.590   3.304   2.463 -0.1912 -1.1207 -0.4692
 4419TIP3   OH234815   5.076   6.387   7.961 -0.0588 -0.0823 -0.2518
 4419TIP3    H134816   5.032   6.423   8.038  3.6769  1.3331  1.4855
 4419TIP3    H234817   5.110   6.303   7.989 -0.5234 -0.5698 -1.1159
 4420TIP3   OH234818   1.174   3.124   0.872 -0.2323  0.2406  0.2804
 4420TIP3    H134819   1.163   3.032   0.893 -0.4479  0.5788  1.7269
 4420TIP3    H234820   1.170   3.127   0.776 -0.9808 -1.1437  0.2436
 4421TIP3   OH234821   2.489   2.489   2.816 -0.7169  0.4024 -0.3660
 4421TIP3    H134822   2.454   2.524   2.898  0.9221  0.7778  0.2270
 4421TIP3    H234823   2.467   2.556   2.750 -0.7618  0.8130  0.0584
 4422TIP3   OH234824   2.297   5.299   7.657 -0.1095  0.0484  0.0155
 4422TIP3    H134825   2.347   5.279   7.578 -0.1760  1.3153 -0.3642
 4422TIP3    H234826   2.207   5.313   7.626  0.0803  1.6616  0.1401
 4423TIP3   OH234827   1.487   6.487   0.003 -0.4641  0.2120  0.4449
 4423TIP3    H134828   1.556   6.421   0.011 -0.8709 -0.4335 -1.0709
 4423TIP3    H234829   1.506   6.549   0.073  0.8019 -0.7142  0.9747
 4424TIP3   OH234830   2.439   4.074   2.956  0.4757  0.1148 -0.1097
 4424TIP3    H134831   2.490   4.154   2.944 -0.2584  0.5110 -0.7087
 4424TIP3    H234832   2.396   4.060   2.871  1.5433 -1.6107 -0.4041
 4425TIP3   OH234833   2.215   2.949   7.819  0.3226  0.5660  0.0717
 4425TIP3    H134834   2.215   2.983   7.730 -3.2868 -2.7354 -1.4542
 4425TIP3    H234835   2.287   2.887   7.821 -2.0035 -2.5060 -2.2026
 4426TIP3   OH234836   4.778   6.462   2.274  0.4371  0.2899  0.0150
 4426TIP3    H134837   4.801   6.454   2.182 -0.6766 -0.4959 -0.2228
 4426TIP3    H234838   4.688   6.497   2.273  0.1227 -0.4697  0.7689
 4427TIP3   OH234839   3.154   2.488   0.523  0.1359 -0.3914 -0.3544
 4427TIP3    H134840   3.228   2.491   0.583  0.0867  1.7128 -0.3292
 4427TIP3    H234841   3.193   2.493   0.436  0.0724 -0.2465 -0.3750
 4428TIP3   OH234842   3.279   2.858   2.267 -0.3560  0.0509 -0.5189
 4428TIP3    H134843   3.221   2.895   2.333 -0.3338  0.7845 -0.9035
 4428TIP3    H234844   3.358   2.831   2.315  0.0002  1.3365 -0.3674
 4429TIP3   OH234845   0.465   0.668   0.018 -0.0627 -0.2495  0.0562
 4429TIP3    H134846   0.380   0.625   0.009  0.6350 -1.8267  0.7524
 4429TIP3    H234847   0.456   0.721   0.097 -0.2413 -0.8207  0.4259
 4430TIP3   OH234848   4.317   0.790   1.093 -1.0211 -0.5754 -0.1105
 4430TIP3    H134849   4.359   0.839   1.022  1.2744 -1.2117  0.7539
 4430TIP3    H234850   4.290   0.857   1.156 -0.0687 -0.2492 -0.0473
 4431TIP3   OH234851   4.894   0.040   0.040 -0.1295  0.6675 -0.1736
 4431TIP3    H134852   4.906  -0.040   0.090 -0.7467  0.1495 -0.8203
 4431TIP3    H234853   4.942   0.107   0.088  1.6465 -0.3787 -0.4086
 4432TIP3   OH234854   5.528   6.073   1.457 -0.6349 -0.0592  0.5054
 4432TIP3    H134855   5.480   6.047   1.536 -0.0256 -0.9316  0.6054
 4432TIP3    H234856   5.620   6.056   1.478 -0.4370 -0.0322 -0.2889
 4433TIP3   OH234857   6.320   3.889   1.897 -0.5534  0.6473 -0.2790
 4433TIP3    H134858   6.413   3.892   1.918 -0.3910  0.3361 -0.9093
 4433TIP3    H234859   6.308   3.958   1.831 -0.9244  1.2012  0.3622
 4434TIP3   OH234860   1.332   1.129   1.138  0.0357 -0.9228  0.5474
 4434TIP3    H134861   1.341   1.196   1.070  1.4316  1.4178  2.8374
 4434TIP3    H234862   1.416   1.083   1.136  0.3758 -0.3572  1.0843
 4435TIP3   OH234863   4.916   6.395   3.416 -0.1230  0.2822 -0.0309
 4435TIP3    H134864   4.904   6.457   3.344 -3.2876  0.9844  0.9309
 4435TIP3    H234865   4.828   6.381   3.451  0.9618 -1.9165  2.1895
 4436TIP3   OH234866   0.863   0.755   1.675  0.2603  0.3660 -0.3061
 4436TIP3    H134867   0.836   0.837   1.715 -0.6288  0.6693 -1.4805
 4436TIP3    H234868   0.869   0.693   1.748  0.5269  1.3509  0.5338
 4437TIP3   OH234869   2.542   3.224   7.580  0.1925  0.1495  0.3434
 4437TIP3    H134870   2.524   3.213   7.487  1.9373 -1.7698  0.1642
 4437TIP3    H234871   2.613   3.289   7.583  0.1506  0.1956  0.3414
 4438TIP3   OH234872   6.221   0.881   2.851 -0.0630  0.3393  0.1677
 4438TIP3    H134873   6.288   0.876   2.783 -1.0120 -0.7369 -0.7158
 4438TIP3    H234874   6.260   0.937   2.918  1.3443  0.5010 -0.7409
 4439TIP3   OH234875   3.937   3.522   0.123  0.6024  0.0025 -0.3543
 4439TIP3    H134876   3.899   3.507   0.209 -0.6021 -3.3900 -1.3302
 4439TIP3    H234877   3.916   3.614   0.103 -2.2464 -0.1383  1.4831
 4440TIP3   OH234878   2.457   1.238   2.721 -0.1849  0.5329 -0.3190
 4440TIP3    H134879   2.398   1.163   2.725  0.3762  0.0857  3.0613
 4440TIP3    H234880   2.477   1.257   2.813  1.3482  3.5341 -1.1482
 4441TIP3   OH234881   1.107   4.431   8.271  0.7876 -0.4342  0.0293
 4441TIP3    H134882   1.135   4.505   8.218 -1.3387  0.4401  0.0143
 4441TIP3    H234883   1.050   4.380   8.213  0.5591 -0.9245  0.6715
 4442TIP3   OH234884   4.431   0.647   0.072  0.6305  0.1728  0.5882
 4442TIP3    H134885   4.348   0.604   0.092  1.1057 -1.0792 -0.0585
 4442TIP3    H234886   4.408   0.740   0.064 -0.2714  0.1837  2.7585
 4443TIP3   OH234887   5.201   3.143   0.301  0.8069  0.0729 -0.7145
 4443TIP3    H134888   5.135   3.203   0.269 -2.4553 -3.7931 -1.9954
 4443TIP3    H234889   5.186   3.138   0.396 -0.4371 -0.3315 -0.9206
 4444TIP3   OH234890   2.043   5.970   0.003 -0.2825  0.1860 -0.1001
 4444TIP3    H134891   2.098   6.033   0.049 -3.9820  1.5347  2.9774
 4444TIP3    H234892   2.015   5.909   0.071 -1.7558 -1.0627 -1.7392
 4445TIP3   OH234893   4.072   5.311   2.097  0.3454 -0.3439  0.5417
 4445TIP3    H134894   4.000   5.373   2.109 -0.6567 -1.7521  2.1344
 4445TIP3    H234895   4.151   5.365   2.110 -0.3854  1.0593 -0.4890
 4446TIP3   OH234896   5.273   4.429   0.237  0.3299  0.1826  0.6211
 4446TIP3    H134897   5.238   4.501   0.185  0.5123 -1.4427 -1.9494
 4446TIP3    H234898   5.289   4.359   0.173  4.6350 -0.5409  2.1119
 4447TIP3   OH234899   4.701   5.764   1.299 -0.2238 -0.5625 -0.2562
 4447TIP3    H134900   4.721   5.792   1.388  0.8339 -1.1500 -0.2909
 4447TIP3    H234901   4.611   5.794   1.284 -0.0500  0.4876  0.6194
 4448TIP3   OH234902   4.021   1.303   0.996 -0.5508 -0.0823  0.4696
 4448TIP3    H134903   4.005   1.239   0.927 -1.1362  0.1690  0.3649
 4448TIP3    H234904   4.078   1.258   1.058  1.8390  0.4123 -1.2400
 4449TIP3   OH234905   1.468   5.878   1.519 -0.6655  0.2772  0.3373
 4449TIP3    H134906   1.536   5.942   1.498  1.7285 -2.3582 -0.6139
 4449TIP3    H234907   1.461   5.882   1.614  0.4339  1.0045  0.4173
 4450TIP3   OH234908   3.913   1.319   7.605  0.2762  0.2070 -0.2449
 4450TIP3    H134909   3.823   1.351   7.597  0.5541  1.7640  1.9570
 4450TIP3    H234910   3.963   1.372   7.543 -0.4453 -1.6632 -2.5827
 4451TIP3   OH234911   6.090   0.139   8.621  0.2679 -0.1019  0.2246
 4451TIP3    H134912   6.063   0.185   8.542 -1.8108  0.0268  0.9737
 4451TIP3    H234913   6.016   0.145   8.680  0.9547 -2.0361  1.3983
 4452TIP3   OH234914   0.714   2.283   2.981  0.7456 -0.2731 -0.2346
 4452TIP3    H134915   0.791   2.228   2.990  0.4067 -0.7748 -0.3433
 4452TIP3    H234916   0.640   2.223   2.993  0.3545  0.5538  2.0766
 4453TIP3   OH234917   5.945   3.540   0.879 -0.0886  0.0096  0.3102
 4453TIP3    H134918   5.971   3.537   0.787  0.9966  0.6658  0.5831
 4453TIP3    H234919   6.024   3.520   0.928 -0.5429  0.1328  1.1174
 4454TIP3   OH234920   5.989   3.036   7.360  0.1708  0.4834 -0.6094
 4454TIP3    H134921   5.897   3.056   7.341  0.1328  1.5885  0.5598
 4454TIP3    H234922   6.032   3.121   7.363  1.4094 -0.0592 -1.8360
 4455TIP3   OH234923   3.837   0.460   2.639  0.8490 -0.4135  0.5528
 4455TIP3    H134924   3.799   0.427   2.558 -0.2107 -2.2143  1.7216
 4455TIP3    H234925   3.788   0.540   2.658 -1.4494 -1.8964  1.2422
 4456TIP3   OH234926   2.316   6.363   1.315  0.0845  0.0420  0.0211
 4456TIP3    H134927   2.293   6.400   1.230 -1.0017 -1.2852 -0.3036
 4456TIP3    H234928   2.368   6.285   1.293 -1.8801 -1.4535  0.4401
 4457TIP3   OH234929   1.313   5.088   7.401 -0.3236  0.1463  0.8750
 4457TIP3    H134930   1.333   5.067   7.492 -1.6022  1.0062  1.3857
 4457TIP3    H234931   1.360   5.169   7.384 -0.4847  0.2522  0.9318
 4458TIP3   OH234932   6.445   2.445   0.224 -0.0010  0.6332  0.0928
 4458TIP3    H134933   6.487   2.359   0.222 -0.1478  0.5129  1.5605
 4458TIP3    H234934   6.498   2.499   0.164  3.6394  1.0839  3.3321
 4459TIP3   OH234935   6.417   2.094   8.261 -0.4366 -0.2910  0.3127
 4459TIP3    H134936   6.371   2.169   8.298 -0.2558 -0.3535  0.6686
 4459TIP3    H234937   6.354   2.054   8.201  0.3192  1.6201 -1.8771
 4460TIP3   OH234938   0.439   3.126   7.619 -0.1104  0.1484 -0.3520
 4460TIP3    H134939   0.433   3.189   7.690 -0.1037  2.2350 -2.1188
 4460TIP3    H234940   0.375   3.156   7.555  0.4245 -1.2295 -1.5880
 4461TIP3   OH234941   5.779   3.109   0.368  0.0010 -0.2786  0.0851
 4461TIP3    H134942   5.872   3.112   0.392 -0.2641 -0.0747  1.1369
 4461TIP3    H234943   5.744   3.192   0.399 -1.3576 -1.9102  3.4175
 4462TIP3   OH234944   0.636   4.446   1.367  0.1339  0.1313 -0.4615
 4462TIP3    H134945   0.544   4.423   1.377  0.7378 -2.3159  0.2350
 4462TIP3    H234946   0.645   4.467   1.274 -1.3289  1.6573 -0.2973
 4463TIP3   OH234947   0.486   0.171   0.974  0.0673 -0.2988 -0.4213
 4463TIP3    H134948   0.461   0.174   0.882  0.5279 -1.9217 -0.6453
 4463TIP3    H234949   0.557   0.106   0.977 -0.9783 -1.4421  1.2865
 4464TIP3   OH234950   3.738   0.683   0.965  0.1970  0.1043 -0.1881
 4464TIP3    H134951   3.673   0.707   1.031 -1.0156  0.2234 -1.3949
 4464TIP3    H234952   3.747   0.760   0.910  1.1465 -0.0187 -0.2228
 4465TIP3   OH234953   6.293   5.140   0.411 -0.0243  0.5748  0.4172
 4465TIP3    H134954   6.323   5.213   0.357  2.1359 -0.2518  0.3891
 4465TIP3    H234955   6.362   5.129   0.477 -2.5616  1.5957  3.5528
 4466TIP3   OH234956   5.818   4.061   0.102 -0.5787  0.2132 -0.3035
 4466TIP3    H134957   5.782   4.088   0.018 -1.3381  1.0802  0.2913
 4466TIP3    H234958   5.913   4.063   0.088 -0.6782  0.8295 -0.9947
 4467TIP3   OH234959   4.911   5.847   8.587 -0.4174 -0.6842 -0.6262
 4467TIP3    H134960   5.003   5.848   8.613 -0.7376 -1.2031  0.6025
 4467TIP3    H234961   4.913   5.842   8.491  0.8227  0.3607 -0.6849
 4468TIP3   OH234962   1.273   1.756   0.435 -0.2924 -0.2255 -0.0006
 4468TIP3    H134963   1.350   1.714   0.397 -0.9269 -1.3382 -0.1058
 4468TIP3    H234964   1.298   1.773   0.526 -0.0292 -0.8912  0.0621
 4469TIP3   OH234965   6.500   4.936   2.483  0.0923  0.0657  0.0754
 4469TIP3    H134966   6.476   4.922   2.391 -1.8280  0.9375  0.4052
 4469TIP3    H234967   6.424   4.905   2.533 -0.2364  2.4572  1.2021
 4470TIP3   OH234968   5.824   2.412   0.400 -0.1213  0.0945 -0.0632
 4470TIP3    H134969   5.863   2.491   0.362  1.1724 -0.9924 -1.1029
 4470TIP3    H234970   5.730   2.428   0.399 -0.0300  0.7433 -2.3611
 4471TIP3   OH234971   1.033   3.624   0.316 -0.0046 -0.0013 -0.0395
 4471TIP3    H134972   1.096   3.574   0.368 -0.0291  0.8866  0.8890
 4471TIP3    H234973   0.977   3.666   0.381 -1.3240 -0.4611 -0.8426
 4472TIP3   OH234974   2.315   6.698   3.021  0.7223 -0.1663 -0.1529
 4472TIP3    H134975   2.319   6.782   3.066  2.4495  0.2232 -0.9436
 4472TIP3    H234976   2.403   6.661   3.031  0.2988 -1.3902 -0.7310
 4473TIP3   OH234977   2.509   5.678   0.470  0.3665  0.3177  0.5906
 4473TIP3    H134978   2.459   5.607   0.429 -0.4487  0.8236  0.7046
 4473TIP3    H234979   2.521   5.649   0.561  3.8151 -1.7197 -0.3022
 4474TIP3   OH234980   1.248   1.920   3.411  0.5165 -0.0830  0.6737
 4474TIP3    H134981   1.174   1.951   3.360 -0.7103 -3.2521  0.2993
 4474TIP3    H234982   1.218   1.925   3.502  0.1730 -0.4696  0.5863
 4475TIP3   OH234983   1.417   1.821   1.529  0.5379 -0.6371 -0.3807
 4475TIP3    H134984   1.371   1.789   1.452  0.9997 -0.7253 -0.6244
 4475TIP3    H234985   1.509   1.823   1.503  0.6964 -0.6528  0.1599
 4476TIP3   OH234986   0.326   2.319   2.865 -0.1176  0.0707 -0.5092
 4476TIP3    H134987   0.272   2.303   2.942 -0.8306  0.0878 -0.9977
 4476TIP3    H234988   0.314   2.242   2.810 -0.4851  0.5317 -1.0980
 4477TIP3   OH234989   4.527   0.034   2.087  0.1430 -0.1793 -0.0014
 4477TIP3    H134990   4.548   0.003   2.175  0.0337 -0.9801 -0.2463
 4477TIP3    H234991   4.434   0.058   2.091 -0.0118 -0.7706 -0.0530
 4478TIP3   OH234992   1.662   6.081   1.516 -0.4884 -0.5670 -0.0410
 4478TIP3    H134993   1.685   6.168   1.483 -1.8328 -0.1674  0.0162
 4478TIP3    H234994   1.730   6.061   1.580  1.0386 -0.4899 -1.5690
 4479TIP3   OH234995   3.074   5.154   8.328 -0.0223  0.6667  0.2131
 4479TIP3    H134996   3.062   5.059   8.318  0.3539  0.6918 -0.5366
 4479TIP3    H234997   3.153   5.163   8.381 -1.4706  0.5469  2.5548
 4480TIP3   OH234998   3.025   3.879   0.510 -0.2170 -0.5211 -0.8281
 4480TIP3    H134999   3.078   3.823   0.453 -0.7768  0.2757 -2.1795
 4480TIP3    H235000   2.935   3.866   0.480 -0.9254 -2.1987  1.7262
 4481TIP3   OH235001   4.379   3.104   1.826  0.5030 -0.4619  0.3949
 4481TIP3    H135002   4.333   3.183   1.854 -0.0728 -0.5639 -0.2224
 4481TIP3    H235003   4.383   3.112   1.730  0.1361 -1.3305  0.2929
 4482TIP3   OH235004   3.992   1.102   0.803 -0.2985 -0.5774 -0.0397
 4482TIP3    H135005   4.065   1.048   0.771 -1.1123 -1.9354  0.3528
 4482TIP3    H235006   3.927   1.098   0.733 -0.5620 -0.4813  0.2000
 4483TIP3   OH235007   2.962   0.373   7.537 -0.5243  0.5749  0.4214
 4483TIP3    H135008   3.056   0.361   7.523 -0.9142 -1.9539 -0.6062
 4483TIP3    H235009   2.922   0.357   7.452 -2.0527 -1.6475  1.4473
 4484TIP3   OH235010   6.162   5.567   8.371 -0.2125  0.1574 -0.3008
 4484TIP3    H135011   6.190   5.491   8.422  0.5009 -0.0676 -1.0185
 4484TIP3    H235012   6.082   5.596   8.415 -0.1336 -0.6036  0.3792
 4485TIP3   OH235013   2.357   6.750   1.802 -0.2236 -0.4299  0.4241
 4485TIP3    H135014   2.376   6.816   1.736 -0.3383  0.7820  1.5505
 4485TIP3    H235015   2.440   6.740   1.850 -0.8642  0.8559  1.8933
 4486TIP3   OH235016   0.097   4.754   1.683  0.5032  0.1011 -0.4725
 4486TIP3    H135017   0.158   4.819   1.718  0.8739 -0.4911  0.0109
 4486TIP3    H235018   0.060   4.796   1.605  0.3087  1.1003  0.1390
 4487TIP3   OH235019   1.387   4.626   0.584 -0.1567 -0.4661 -0.3693
 4487TIP3    H135020   1.450   4.666   0.643 -1.4946  1.2889 -0.0732
 4487TIP3    H235021   1.439   4.604   0.506  0.6281  2.2543 -0.7274
 4488TIP3   OH235022   1.788   3.259   1.085 -0.5096  0.0185 -0.3058
 4488TIP3    H135023   1.825   3.220   1.005 -1.8138 -0.5722 -0.6506
 4488TIP3    H235024   1.842   3.223   1.155  1.6043  1.6909 -0.9705
 4489TIP3   OH235025   3.365   5.173   1.704  0.4929 -0.4492 -0.1131
 4489TIP3    H135026   3.435   5.227   1.742  1.5621 -2.2344  0.6260
 4489TIP3    H235027   3.402   5.141   1.622  0.7503 -1.7095  0.4632
 4490TIP3   OH235028   4.407   3.198   1.566  0.0136 -0.1343 -0.1205
 4490TIP3    H135029   4.374   3.179   1.478 -1.1526  0.7110  0.1079
 4490TIP3    H235030   4.391   3.292   1.577 -2.0690 -0.6388  1.8632
 4491TIP3   OH235031   4.576   0.598   1.016  0.0462 -0.4387  0.6285
 4491TIP3    H135032   4.634   0.522   1.012 -1.1349 -1.4685  2.0254
 4491TIP3    H235033   4.562   0.622   0.925 -0.0218 -2.2704  0.1212
 4492TIP3   OH235034   3.316   2.229   7.787  0.4110  0.5972  0.2079
 4492TIP3    H135035   3.229   2.265   7.805 -0.0322 -0.0263 -0.6234
 4492TIP3    H235036   3.311   2.199   7.697  0.6929 -1.7278  0.8992
 4493TIP3   OH235037   3.479   2.513   2.060 -0.3792  0.0995 -0.2231
 4493TIP3    H135038   3.506   2.462   1.984 -3.3603 -0.3230 -1.1232
 4493TIP3    H235039   3.452   2.597   2.024  2.2310  1.5735  0.9730
 4494TIP3   OH235040   2.573   5.307   2.664 -0.5459  0.2514  0.4639
 4494TIP3    H135041   2.627   5.245   2.714 -1.2414 -1.0448 -0.3465
 4494TIP3    H235042   2.483   5.277   2.679 -0.8238  0.4299 -0.7564
 4495TIP3   OH235043   6.357   0.456   8.175  0.2392  0.0368  0.0524
 4495TIP3    H135044   6.392   0.437   8.088  0.1502 -0.4931  0.1311
 4495TIP3    H235045   6.432   0.490   8.224  0.1984  0.7215 -0.3466
 4496TIP3   OH235046   2.880   2.210   8.149  0.1162 -0.0819 -0.1190
 4496TIP3    H135047   2.835   2.274   8.204  0.2670 -0.2826  0.2449
 4496TIP3    H235048   2.811   2.151   8.119 -0.2885  1.1203 -1.7302
 4497TIP3   OH235049   1.954   5.013   8.059 -0.0690 -0.7264  0.0477
 4497TIP3    H135050   1.979   4.954   7.988 -1.7551 -1.8826  0.3651
 4497TIP3    H235051   2.017   4.994   8.129  0.3615 -1.0179 -0.4102
 4498TIP3   OH235052   5.890   4.454   8.626 -0.4905 -0.0212 -0.1632
 4498TIP3    H135053   5.955   4.448   8.696 -0.7908  0.1428  0.1348
 4498TIP3    H235054   5.920   4.392   8.560  0.6209  0.9273 -0.5643
 4499TIP3   OH235055   0.200   5.660   7.567  0.0977  0.0178  0.0985
 4499TIP3    H135056   0.111   5.680   7.539  0.1269 -0.1787 -0.1414
 4499TIP3    H235057   0.198   5.566   7.585  0.5822 -0.2602 -1.1611
 4500TIP3   OH235058   4.671   4.352   2.111 -0.5147 -0.7542 -0.7871
 4500TIP3    H135059   4.675   4.411   2.187 -1.4265 -1.7102  0.0240
 4500TIP3    H235060   4.719   4.399   2.043 -0.2500  0.4304  0.1685
 4501TIP3   OH235061   0.376   1.199   1.578  0.0327 -0.2969  0.6731
 4501TIP3    H135062   0.309   1.147   1.535  0.4207 -0.2729  0.0347
 4501TIP3    H235063   0.392   1.153   1.661 -2.4202  0.9518  1.9516
 4502TIP3   OH235064   0.808   6.206   3.060 -0.2709 -0.2144 -0.3869
 4502TIP3    H135065   0.870   6.272   3.089  0.7551 -1.7480  1.1122
 4502TIP3    H235066   0.722   6.246   3.071  0.3630  1.8571 -2.2338
 4503TIP3   OH235067   3.228   1.648   0.054  0.0181  0.1213  0.2414
 4503TIP3    H135068   3.207   1.739   0.078  1.2229  0.2277  0.9558
 4503TIP3    H235069   3.311   1.630   0.098 -0.5125 -1.5437  0.6265
 4504TIP3   OH235070   3.126   5.185   7.407 -0.3327 -0.4271  0.0441
 4504TIP3    H135071   3.122   5.247   7.334 -2.5119 -0.5976 -0.0241
 4504TIP3    H235072   3.152   5.239   7.482 -1.0957  0.3685 -0.2431
 4505TIP3   OH235073   3.056   0.076   2.715 -0.4818 -0.8368  0.1280
 4505TIP3    H135074   3.144   0.039   2.709 -1.1528 -2.3700 -2.3543
 4505TIP3    H235075   3.069   0.171   2.713  1.1245 -1.0260  0.2309
 4506TIP3   OH235076   2.042   3.083   1.580 -0.1383 -0.0599  0.4509
 4506TIP3    H135077   2.122   3.051   1.537  0.6568  2.4416 -0.1120
 4506TIP3    H235078   1.993   3.127   1.510 -2.3278 -1.9487  0.6771
 4507TIP3   OH235079   5.745   0.769   1.678 -0.2894  0.0786 -0.3129
 4507TIP3    H135080   5.820   0.711   1.695  0.2267  0.6963 -0.4527
 4507TIP3    H235081   5.690   0.761   1.757  0.0513 -0.1778 -0.0983
 4508TIP3   OH235082   5.414   5.208   0.009  0.2692  0.0016  0.6801
 4508TIP3    H135083   5.421   5.117   0.040 -1.3508 -0.7493 -0.9567
 4508TIP3    H235084   5.362   5.251   0.076 -2.0859 -1.2721 -0.1919
 4509TIP3   OH235085   2.811   4.935   7.499  0.5417  0.3081 -0.0546
 4509TIP3    H135086   2.786   4.907   7.587 -0.7945  1.5775  0.0025
 4509TIP3    H235087   2.851   4.858   7.460 -0.9065 -0.9673  0.8695
 4510TIP3   OH235088   6.734   1.935   7.271  0.1369 -0.5186 -0.3808
 4510TIP3    H135089   6.717   2.025   7.242 -1.4959 -1.1772 -1.5856
 4510TIP3    H235090   6.714   1.936   7.365 -1.8751 -0.0759 -0.7812
 4511TIP3   OH235091   4.377   6.193   0.625 -0.3516  0.4472 -0.1030
 4511TIP3    H135092   4.431   6.202   0.546  0.5910 -1.8997  0.1786
 4511TIP3    H235093   4.287   6.201   0.594  0.0498  1.3371 -1.1016
 4512TIP3   OH235094   5.858   0.929   1.155  0.0146  0.3772  0.4424
 4512TIP3    H135095   5.953   0.934   1.145  0.1100 -0.8851  0.5977
 4512TIP3    H235096   5.844   0.925   1.249 -0.1266 -0.4245  0.3915
 4513TIP3   OH235097   4.055   2.024   0.779 -0.0438 -0.4889 -0.3473
 4513TIP3    H135098   4.005   2.106   0.780  0.7630  0.0048 -0.2507
 4513TIP3    H235099   4.054   1.994   0.870 -0.6163 -0.7675 -0.4377
 4514TIP3   OH235100   2.837   0.359   2.841  0.1726  0.1723 -0.6203
 4514TIP3    H135101   2.767   0.424   2.834  0.9612  1.1247  0.0570
 4514TIP3    H235102   2.793   0.275   2.827 -1.0097  0.7837 -0.7285
 4515TIP3   OH235103   0.503   5.574   2.906 -0.4610 -0.2031  0.0250
 4515TIP3    H135104   0.556   5.529   2.840 -0.9911 -1.7715  0.6328
 4515TIP3    H235105   0.497   5.512   2.979  0.0414  1.4595  1.5481
 4516TIP3   OH235106   3.670   2.948   1.621  0.5222  0.1486 -0.2268
 4516TIP3    H135107   3.630   3.032   1.646  0.9357  0.0322  0.8952
 4516TIP3    H235108   3.735   2.932   1.689  0.5834 -0.9901 -0.5400
 4517TIP3   OH235109   4.183   4.794   1.418 -0.2244  0.1911 -1.2156
 4517TIP3    H135110   4.095   4.822   1.393 -0.7873 -1.9013 -1.7015
 4517TIP3    H235111   4.182   4.699   1.412  0.6716 -0.3429  3.3156
 4518TIP3   OH235112   5.514   0.203   2.892 -0.2633 -0.2739 -0.3788
 4518TIP3    H135113   5.434   0.240   2.855 -0.4908  1.2505  1.4706
 4518TIP3    H235114   5.577   0.275   2.891  0.2312 -0.6689  0.6017
 4519TIP3   OH235115   3.508   5.446   1.467  0.6828 -0.1440  0.0734
 4519TIP3    H135116   3.425   5.489   1.445 -0.0570 -1.8771 -0.8379
 4519TIP3    H235117   3.507   5.366   1.414  3.0231 -0.1490 -0.0553
 4520TIP3   OH235118   3.357   5.185   8.240  0.0384  0.5172 -0.1471
 4520TIP3    H135119   3.287   5.251   8.232  0.3329  0.9168  0.5059
 4520TIP3    H235120   3.347   5.131   8.162 -1.5394  0.0434  0.3421
 4521TIP3   OH235121   1.321   1.390   2.210 -0.1349  0.5170  0.1797
 4521TIP3    H135122   1.389   1.424   2.267 -0.2234  2.6185 -0.8622
 4521TIP3    H235123   1.246   1.447   2.226 -0.4041  0.6548 -1.4337
 4522TIP3   OH235124   1.424   2.006   2.390 -0.1390 -1.0455  0.0457
 4522TIP3    H135125   1.453   1.916   2.399 -0.8575 -1.2934 -0.0810
 4522TIP3    H235126   1.337   2.000   2.350  0.0838 -0.2730 -0.5987
 4523TIP3   OH235127   3.416   6.174   0.612 -1.1620 -0.6426 -0.4040
 4523TIP3    H135128   3.399   6.136   0.526 -1.2872  2.2392 -1.7861
 4523TIP3    H235129   3.496   6.226   0.600 -0.7726 -0.7509  1.4388
 4524TIP3   OH235130   1.598   5.001   1.337  0.7781  0.1827 -0.3006
 4524TIP3    H135131   1.692   5.020   1.331  1.0554 -1.0121 -0.0916
 4524TIP3    H235132   1.566   5.012   1.247  0.3921  3.8093  0.1391
 4525TIP3   OH235133   0.906   5.587   8.730 -0.2405  0.0688  0.0377
 4525TIP3    H135134   0.830   5.622   8.684 -0.2409  0.3834  0.2769
 4525TIP3    H235135   0.979   5.644   8.705  0.6016 -1.9175 -2.5512
 4526TIP3   OH235136   2.718   0.004   0.443 -0.6351 -0.3535  0.3347
 4526TIP3    H135137   2.789   0.030   0.502  0.4342 -1.1896 -0.5310
 4526TIP3    H235138   2.693   0.085   0.398 -0.4641  0.0175  0.9007
 4527TIP3   OH235139   5.694   2.575   0.969 -0.3573 -0.0077  0.1540
 4527TIP3    H135140   5.615   2.610   1.008 -0.4876  0.5140 -0.5536
 4527TIP3    H235141   5.690   2.602   0.877 -0.1188 -1.2917 -0.2566
 4528TIP3   OH235142   3.091   0.937   8.041 -0.0771 -0.0088 -0.3139
 4528TIP3    H135143   3.027   0.918   8.110  0.2055 -0.3413 -0.1419
 4528TIP3    H235144   3.169   0.889   8.067  0.6370  1.3362  0.0962
 4529TIP3   OH235145   5.668   1.241   2.069  0.3735  0.0819  0.2958
 4529TIP3    H135146   5.718   1.256   1.988 -0.8519 -1.7710 -0.8652
 4529TIP3    H235147   5.715   1.292   2.135  3.0977 -0.6102 -0.9630
 4530TIP3   OH235148   3.827   6.095   8.017 -0.7034 -0.0654 -0.0840
 4530TIP3    H135149   3.868   6.078   7.933  1.6589  0.4714  0.8799
 4530TIP3    H235150   3.749   6.039   8.018  0.5005 -1.8750 -1.6406
 4531TIP3   OH235151   3.485   1.638   0.141  0.3919 -0.2365  0.6432
 4531TIP3    H135152   3.569   1.654   0.098 -0.0158 -0.4865 -0.2696
 4531TIP3    H235153   3.484   1.698   0.215  1.2296  0.0085  0.4667
 4532TIP3   OH235154   6.566   4.206   0.028  0.5184 -0.2712  0.0015
 4532TIP3    H135155   6.578   4.263  -0.047 -0.2722  0.0898  0.1463
 4532TIP3    H235156   6.536   4.123  -0.009 -0.4376  0.0890 -0.0391
 4533TIP3   OH235157   3.505   0.890   3.015 -0.4625  0.2530 -0.2912
 4533TIP3    H135158   3.576   0.932   2.965  0.4614  0.7465  1.3610
 4533TIP3    H235159   3.488   0.951   3.087 -1.4167 -0.6696  0.2833
 4534TIP3   OH235160   0.682   1.769   8.514 -0.6759  0.3345  0.2928
 4534TIP3    H135161   0.732   1.840   8.552  0.3173  0.5858 -1.3723
 4534TIP3    H235162   0.617   1.746   8.580  0.5510  1.1429  1.8303
 4535TIP3   OH235163   4.700   2.025   2.162 -0.6641 -0.4525  0.4703
 4535TIP3    H135164   4.690   2.097   2.224 -2.0666  0.5308 -0.8172
 4535TIP3    H235165   4.789   1.992   2.177  0.8643  2.9175 -0.3182
 4536TIP3   OH235166   1.743   6.802   7.494 -0.1464 -0.2121 -0.5364
 4536TIP3    H135167   1.669   6.850   7.532  0.5068  1.9210 -1.7933
 4536TIP3    H235168   1.818   6.829   7.547  0.1955  0.0053 -1.1216
 4537TIP3   OH235169   4.094   6.215   0.603  0.0214  0.1953 -0.1086
 4537TIP3    H135170   4.045   6.133   0.595 -0.4518  0.4236  0.4146
 4537TIP3    H235171   4.038   6.281   0.562  0.8020  0.1221 -1.3660
 4538TIP3   OH235172   1.383   4.403   8.348  0.2537  0.4615 -0.0472
 4538TIP3    H135173   1.304   4.372   8.304  1.0419 -1.0482 -0.4779
 4538TIP3    H235174   1.409   4.480   8.299 -0.2165  0.1881 -0.7486
 4539TIP3   OH235175   1.223   4.588   7.325  0.1805 -0.2628  0.3105
 4539TIP3    H135176   1.133   4.601   7.355  0.1442 -0.6766  0.3881
 4539TIP3    H235177   1.214   4.571   7.231  0.2502  0.5228  0.1597
 4540TIP3   OH235178   3.002   5.151   7.748  0.1269 -0.1326 -0.0850
 4540TIP3    H135179   3.039   5.188   7.827  4.1784  0.2503 -1.9265
 4540TIP3    H235180   2.983   5.059   7.770  2.4528 -0.4086  1.0490
 4541TIP3   OH235181   0.266   5.950   7.698 -0.2223 -0.9396  0.1025
 4541TIP3    H135182   0.176   5.927   7.674 -0.5414 -1.1137  1.3744
 4541TIP3    H235183   0.280   6.036   7.659 -1.3894 -0.3584  0.8981
 4542TIP3   OH235184   1.277   1.033   1.584 -0.0420 -0.0846  0.1622
 4542TIP3    H135185   1.288   1.098   1.514  0.9159 -1.5297 -1.1001
 4542TIP3    H235186   1.360   0.985   1.584 -0.7354 -1.3120  1.0424
 4543TIP3   OH235187   0.247   1.462   1.610 -0.3916 -0.3093  0.3476
 4543TIP3    H135188   0.296   1.382   1.590  0.8256  0.3571  0.5675
 4543TIP3    H235189   0.161   1.448   1.570 -0.2380 -1.7662  0.4825
 4544TIP3   OH235190   4.480   5.127   7.351  0.2640 -0.0537  1.1481
 4544TIP3    H135191   4.486   5.183   7.429 -0.8837 -0.6957  1.7266
 4544TIP3    H235192   4.392   5.089   7.356  0.0481  0.1261 -0.6336
 4545TIP3   OH235193   0.296   0.200   0.643 -0.2013 -0.3531 -0.0183
 4545TIP3    H135194   0.365   0.137   0.664 -0.1288 -0.0821  0.5742
 4545TIP3    H235195   0.251   0.162   0.567 -0.6222 -1.4955  0.7736
 4546TIP3   OH235196   5.242   5.410   1.709 -0.3949 -0.0400  0.2346
 4546TIP3    H135197   5.305   5.339   1.722 -0.2039  0.3850  1.8379
 4546TIP3    H235198   5.296   5.484   1.682 -0.6143 -0.5109 -1.6170
 4547TIP3   OH235199   0.826   5.332   8.271 -0.3339  0.2461  0.2710
 4547TIP3    H135200   0.905   5.343   8.324  0.1055 -1.4160  0.0418
 4547TIP3    H235201   0.828   5.240   8.245 -1.4459  0.6038 -1.2051
 4548TIP3   OH235202   0.164   3.452   7.754  0.2093  0.1113 -0.4687
 4548TIP3    H135203   0.195   3.367   7.787  2.0628  0.5934 -0.8477
 4548TIP3    H235204   0.108   3.485   7.824  2.3803  0.1600  1.3634
 4549TIP3   OH235205   5.035   1.604   7.960  0.2368 -0.3068 -0.6103
 4549TIP3    H135206   4.968   1.614   7.892 -0.8774  2.7054  0.7518
 4549TIP3    H235207   5.105   1.663   7.933  1.0740 -1.2310 -0.5137
 4550TIP3   OH235208   1.038   0.365   7.575  0.2691  0.0551 -0.0745
 4550TIP3    H135209   0.962   0.328   7.621  0.2562  0.0065 -0.1341
 4550TIP3    H235210   1.023   0.343   7.483  0.9868 -1.0880  0.0597
 4551TIP3   OH235211   3.176   6.603   7.864  0.0389  0.6150  0.0152
 4551TIP3    H135212   3.161   6.565   7.778 -0.8199 -1.0207  0.8388
 4551TIP3    H235213   3.218   6.534   7.915 -3.2526 -0.1000  2.1163
 4552TIP3   OH235214   0.956   1.760   8.052 -0.1981 -0.3422  0.0004
 4552TIP3    H135215   1.041   1.803   8.039  0.4159 -1.2482  0.8431
 4552TIP3    H235216   0.891   1.830   8.039  0.6337  0.2532 -1.1809
 4553TIP3   OH235217   4.727   5.921   2.823  0.1784  0.2442  0.0193
 4553TIP3    H135218   4.752   5.991   2.884 -1.4418  0.7298  0.1711
 4553TIP3    H235219   4.691   5.853   2.879 -0.9474  0.5256 -0.3361
 4554TIP3   OH235220   3.266   3.831   2.121  0.0300  0.2143 -0.0884
 4554TIP3    H135221   3.208   3.891   2.168  0.3822  0.4180  0.0948
 4554TIP3    H235222   3.291   3.878   2.042 -1.3626 -0.5242 -0.9947
 4555TIP3   OH235223   2.107   2.127   1.431  0.3116  0.3891  0.5541
 4555TIP3    H135224   2.152   2.204   1.464 -0.3537  0.9161  0.2406
 4555TIP3    H235225   2.025   2.124   1.480 -0.6099  1.0760 -0.9007
 4556TIP3   OH235226   5.401   2.252   1.941  0.2113 -0.3778  0.0594
 4556TIP3    H135227   5.428   2.342   1.925 -3.0946  0.6677 -0.3554
 4556TIP3    H235228   5.455   2.200   1.882 -1.0777  1.8996 -3.4471
 4557TIP3   OH235229   6.417   4.527   0.271 -0.2717 -0.3397  0.3185
 4557TIP3    H135230   6.415   4.557   0.180 -1.5678 -1.3248 -0.0042
 4557TIP3    H235231   6.507   4.499   0.285 -0.3569 -1.4563 -1.1083
 4558TIP3   OH235232   0.425   4.038   0.566  0.2878  0.6258  0.0264
 4558TIP3    H135233   0.496   4.054   0.504  1.8635 -1.7140  1.0414
 4558TIP3    H235234   0.350   4.013   0.513  0.7701  1.3915 -1.0269
 4559TIP3   OH235235   1.391   3.607   0.857 -0.1858  0.0834 -0.2585
 4559TIP3    H135236   1.332   3.679   0.834 -0.0329  0.1257 -0.5178
 4559TIP3    H235237   1.463   3.650   0.903 -0.3784  0.0260  0.1015
 4560TIP3   OH235238   2.334   6.068   7.832  0.1037 -0.0050 -0.3162
 4560TIP3    H135239   2.371   5.981   7.817  0.6336  0.2753 -0.6744
 4560TIP3    H235240   2.410   6.126   7.838 -0.1436  0.1713  1.8711
 4561TIP3   OH235241   1.569   6.160   0.305 -0.3381  0.0650 -0.1319
 4561TIP3    H135242   1.575   6.226   0.236  0.3350  0.8771  0.6715
 4561TIP3    H235243   1.594   6.078   0.263  0.0015  0.5439 -0.8697
 4562TIP3   OH235244   5.964   6.186   1.019  0.1740  0.6025 -0.1978
 4562TIP3    H135245   5.976   6.091   1.013 -0.0570  0.6400 -1.3430
 4562TIP3    H235246   6.041   6.222   0.976 -0.1582  0.9222 -0.5268
 4563TIP3   OH235247   5.324   2.097   2.787 -0.1826 -0.5285 -0.1245
 4563TIP3    H135248   5.343   2.156   2.860 -0.5366 -1.5488  0.8332
 4563TIP3    H235249   5.278   2.151   2.723  3.2364  1.2934 -1.2496
 4564TIP3   OH235250   0.896   2.410   8.631 -0.4181  0.4598 -0.5038
 4564TIP3    H135251   0.849   2.445   8.707 -1.1466  0.6458 -1.0274
 4564TIP3    H235252   0.938   2.330   8.663 -0.8051  0.4790  0.0630
 4565TIP3   OH235253   3.550   0.087   2.369  0.2202  0.1241  0.0076
 4565TIP3    H135254   3.591   0.110   2.286  0.6524 -0.6379  0.0004
 4565TIP3    H235255   3.583   0.153   2.431  1.3662 -0.3745 -0.0328
 4566TIP3   OH235256   2.945   6.662   2.714 -0.2093 -0.5584  0.1309
 4566TIP3    H135257   2.967   6.754   2.701  1.1775 -0.6671  1.3898
 4566TIP3    H235258   2.904   6.660   2.801 -0.6860 -1.0628 -0.1042
 4567TIP3   OH235259   5.142   4.191   0.992  0.7043  0.1616 -0.1286
 4567TIP3    H135260   5.138   4.214   0.899  1.0211  1.1461  0.0933
 4567TIP3    H235261   5.235   4.173   1.008  0.3371 -2.4069 -0.5413
 4568TIP3   OH235262   3.248   5.989   6.802 -0.5918 -0.1425  0.6636
 4568TIP3    H135263   3.283   5.941   6.877 -0.3368  0.0905  0.6941
 4568TIP3    H235264   3.154   5.970   6.804 -0.2643 -2.1379 -0.3962
 4569TIP3   OH235265   6.453   1.212   8.040  0.0806  0.6036  0.4728
 4569TIP3    H135266   6.511   1.149   8.083 -0.2086  1.1608  1.7043
 4569TIP3    H235267   6.486   1.216   7.950  0.6300 -0.6612  0.5873
 4570TIP3   OH235268   2.141   0.753   2.944 -0.6886 -0.1579  0.5522
 4570TIP3    H135269   2.138   0.674   2.999 -1.0748  0.1528  0.9867
 4570TIP3    H235270   2.127   0.721   2.855 -0.3582 -0.6330  0.6655
 4571TIP3   OH235271   2.806   1.137   0.059 -0.5043  0.0550  0.1182
 4571TIP3    H135272   2.862   1.129   0.136 -0.1459  1.1312 -0.0170
 4571TIP3    H235273   2.862   1.109  -0.014 -0.2702  0.7454  0.0322
 4572TIP3   OH235274   2.627   3.732   2.552  0.0585  0.0248  0.4248
 4572TIP3    H135275   2.560   3.676   2.591  0.2047  0.2774  1.0633
 4572TIP3    H235276   2.614   3.724   2.458 -0.9779  0.2169  0.5453
 4573TIP3   OH235277   5.694   2.889   0.518 -0.0554 -0.2501  0.0757
 4573TIP3    H135278   5.720   2.956   0.455 -1.3520 -0.6103 -0.8681
 4573TIP3    H235279   5.615   2.851   0.482  0.2502 -1.8133  0.9701
 4574TIP3   OH235280   5.392   3.365   7.128  0.2464 -0.1855  0.0593
 4574TIP3    H135281   5.440   3.420   7.066  0.4943 -0.0969  0.3260
 4574TIP3    H235282   5.332   3.425   7.173  1.5024  0.1706  1.3538
 4575TIP3   OH235283   1.060   6.397   0.137 -0.1875  0.1708 -0.4286
 4575TIP3    H135284   1.047   6.376   0.044 -1.9153  0.3578 -0.2670
 4575TIP3    H235285   0.987   6.456   0.159 -0.6984 -1.0518  1.4053
 4576TIP3   OH235286   3.967   3.497   1.118 -0.1474 -0.3577 -0.1920
 4576TIP3    H135287   3.999   3.587   1.128 -1.7219  0.3008 -0.6910
 4576TIP3    H235288   4.042   3.449   1.083  0.5688  0.8892 -0.4523
 4577TIP3   OH235289   0.478   2.852   8.752  0.0668 -0.6736  0.4641
 4577TIP3    H135290   0.533   2.906   8.809  1.1895  0.8063 -1.8775
 4577TIP3    H235291   0.397   2.903   8.742  0.7237  0.1787 -0.9118
 4578TIP3   OH235292   3.032   5.885   2.639 -0.2913  0.0224  0.2005
 4578TIP3    H135293   2.987   5.923   2.714 -2.0431 -0.1644 -0.7230
 4578TIP3    H235294   3.068   5.802   2.671  0.4431  0.7245  1.2503
 4579TIP3   OH235295   4.678   4.957   8.639  0.3377  0.4355 -0.3431
 4579TIP3    H135296   4.650   4.913   8.559 -2.7856  3.3035 -1.0730
 4579TIP3    H235297   4.610   4.934   8.703  1.3112  0.3510  0.6803
 4580TIP3   OH235298   5.121   4.988   2.590  0.7591  0.2099 -0.0612
 4580TIP3    H135299   5.211   4.962   2.608  0.6186 -1.2949 -1.3619
 4580TIP3    H235300   5.125   5.034   2.506  0.2176 -0.7014 -0.6073
 4581TIP3   OH235301   2.048   2.317   7.307  0.7651  0.5121  0.0740
 4581TIP3    H135302   1.999   2.282   7.381 -1.9760  2.2881 -0.7526
 4581TIP3    H235303   2.058   2.242   7.248  0.8837 -0.3633  1.1642
 4582TIP3   OH235304   0.416   4.519   8.388 -0.2308  0.2085 -0.7555
 4582TIP3    H135305   0.464   4.437   8.394 -0.1600  0.2478 -0.7790
 4582TIP3    H235306   0.337   4.498   8.337  0.3209  0.3928 -1.7110
 4583TIP3   OH235307   3.057   3.045   2.145  0.2092  0.4558 -0.7252
 4583TIP3    H135308   3.035   3.007   2.230 -1.5925 -0.3286 -1.4915
 4583TIP3    H235309   3.043   2.975   2.082  2.1228  0.8354 -1.6516
 4584TIP3   OH235310   2.966   1.443   1.612  0.1377  0.5782 -0.0121
 4584TIP3    H135311   2.924   1.433   1.527  1.3529 -0.6189 -0.5097
 4584TIP3    H235312   2.898   1.420   1.676 -0.4717  0.4191 -0.7059
 4585TIP3   OH235313   4.693   5.662   0.300 -0.3592  0.3045 -0.8354
 4585TIP3    H135314   4.747   5.734   0.331  0.8940 -0.1652 -1.8490
 4585TIP3    H235315   4.698   5.597   0.370  2.0101 -0.5299 -1.6838
 4586TIP3   OH235316   6.048   5.075   8.598  0.1063  0.1288 -0.2034
 4586TIP3    H135317   6.078   5.151   8.648 -1.6991 -0.4927  1.9997
 4586TIP3    H235318   5.953   5.085   8.594 -0.1650 -1.8907  0.0178
 4587TIP3   OH235319   5.412   1.803   1.174 -0.4209 -0.1192 -0.2931
 4587TIP3    H135320   5.481   1.814   1.108  1.5605 -1.0523  1.4718
 4587TIP3    H235321   5.394   1.891   1.206 -1.5202  0.3648 -2.1046
 4588TIP3   OH235322   4.824   5.261   0.866 -0.2403  0.2725  0.3336
 4588TIP3    H135323   4.786   5.343   0.835 -1.9953 -0.6013  0.0932
 4588TIP3    H235324   4.751   5.200   0.872  1.4547 -2.4443 -3.1011
 4589TIP3   OH235325   3.425   2.516   2.410  0.3125 -0.0269 -0.8449
 4589TIP3    H135326   3.473   2.436   2.393  0.9247 -0.0365  0.7234
 4589TIP3    H235327   3.338   2.501   2.372  0.1684 -1.7376  0.0646
 4590TIP3   OH235328   5.948   6.515   7.593 -0.1765  0.0155  0.2205
 4590TIP3    H135329   5.869   6.497   7.643 -1.4489 -0.1228 -1.7643
 4590TIP3    H235330   5.986   6.429   7.577  0.0608  0.0384  0.6269
 4591TIP3   OH235331   4.447   3.188   0.992 -0.6643 -0.3771  0.4391
 4591TIP3    H135332   4.450   3.156   1.082  0.9383 -2.0937 -0.1606
 4591TIP3    H235333   4.436   3.110   0.938  1.7261  0.1498 -0.9948
 4592TIP3   OH235334   5.375   1.936   0.571 -0.0074 -0.0019  0.1694
 4592TIP3    H135335   5.378   1.969   0.661  1.3223 -2.3318  1.0564
 4592TIP3    H235336   5.445   1.871   0.566 -1.1537 -1.2108 -2.0519
 4593TIP3   OH235337   4.997   4.624   0.226 -0.5236 -0.4766 -0.4274
 4593TIP3    H135338   4.905   4.651   0.228 -0.2740  0.4864  1.9911
 4593TIP3    H235339   4.994   4.530   0.243 -1.0772 -0.2618  0.8610
 4594TIP3   OH235340   1.609   4.020   2.827  0.0047  0.4042  0.1863
 4594TIP3    H135341   1.584   3.932   2.855  1.0420  0.2471  0.6587
 4594TIP3    H235342   1.680   4.045   2.887 -0.3495  1.6028  0.1297
 4595TIP3   OH235343   0.814   1.464   1.210  0.3767 -0.6513 -0.0036
 4595TIP3    H135344   0.791   1.445   1.119  0.5797  0.3257 -0.2630
 4595TIP3    H235345   0.731   1.486   1.251  0.5188  0.6836 -0.4003
 4596TIP3   OH235346   4.640   3.905   1.029 -0.4654  0.4919  0.2559
 4596TIP3    H135347   4.629   3.810   1.020 -0.0401  0.3042  1.5271
 4596TIP3    H235348   4.731   3.917   1.054 -0.6473  1.2016  0.5997
 4597TIP3   OH235349   3.660   4.236   1.897 -0.3763  0.2530 -0.1672
 4597TIP3    H135350   3.705   4.310   1.937 -1.1725  0.9715 -0.5761
 4597TIP3    H235351   3.664   4.254   1.803 -0.8398 -0.0743 -0.2503
 4598TIP3   OH235352   5.790   2.693   1.644 -0.0583 -0.4611 -0.3380
 4598TIP3    H135353   5.877   2.654   1.639 -0.2183 -0.8968  0.1801
 4598TIP3    H235354   5.759   2.695   1.553  0.4878 -0.3102 -0.5221
 4599TIP3   OH235355   4.368   1.152   1.901 -0.6528  0.8238 -0.1615
 4599TIP3    H135356   4.357   1.237   1.857 -1.8595  1.0412  0.5169
 4599TIP3    H235357   4.443   1.112   1.857  0.3461  2.5091 -0.0727
 4600TIP3   OH235358   0.091   5.364   1.917  0.1561 -0.5819  0.4212
 4600TIP3    H135359   0.026   5.301   1.886  0.1584 -1.5700  2.2659
 4600TIP3    H235360   0.076   5.369   2.011  1.3613  0.8335  0.5729
 4601TIP3   OH235361   5.237   3.546   7.908 -0.6928  0.2283  0.0252
 4601TIP3    H135362   5.262   3.469   7.857  0.1406  0.5217 -0.0292
 4601TIP3    H235363   5.271   3.620   7.858  1.4384  0.4522  1.6695
 4602TIP3   OH235364   6.429   2.103   0.819 -0.0239  0.0926  0.5316
 4602TIP3    H135365   6.483   2.156   0.877 -0.4113  0.4823  0.5485
 4602TIP3    H235366   6.345   2.150   0.815 -0.0334  0.0245 -0.2685
 4603TIP3   OH235367   3.201   1.360   7.355 -0.3424 -0.1031 -0.0228
 4603TIP3    H135368   3.208   1.276   7.401 -0.2896 -1.0538 -1.6763
 4603TIP3    H235369   3.200   1.425   7.425 -0.0371 -1.4475  1.3058
 4604TIP3   OH235370   6.729   1.745   3.682 -0.1444 -0.0495 -0.2619
 4604TIP3    H135371   6.684   1.666   3.713 -0.3683  0.4845  0.8082
 4604TIP3    H235372   6.808   1.750   3.736  0.6150 -0.3333 -1.3277
 4605TIP3   OH235373   2.663   5.658   7.451 -0.3230  0.2779  0.1456
 4605TIP3    H135374   2.759   5.664   7.456 -0.3171  1.7300 -0.9750
 4605TIP3    H235375   2.632   5.744   7.478 -1.2307  0.3319 -0.9927
 4606TIP3   OH235376   5.635   0.382   1.385  0.0018 -0.3998 -0.0430
 4606TIP3    H135377   5.582   0.374   1.306  1.4918  0.9049 -1.2210
 4606TIP3    H235378   5.626   0.474   1.411 -1.0045 -0.9530  1.7343
 4607TIP3   OH235379   4.614   2.650   8.377  0.5555  0.4200 -0.3712
 4607TIP3    H135380   4.677   2.579   8.388  0.4240  0.4870  0.9103
 4607TIP3    H235381   4.659   2.727   8.410  0.0722  0.6060 -0.1453
 4608TIP3   OH235382   3.290   0.794   1.792  0.0464  0.5963 -0.3559
 4608TIP3    H135383   3.288   0.887   1.813  0.9443  0.3963  0.7409
 4608TIP3    H235384   3.382   0.776   1.769  0.1280 -0.2147  0.5204
 4609TIP3   OH235385   2.945   5.894   1.054  0.2757 -0.2990 -0.2039
 4609TIP3    H135386   2.924   5.812   1.098 -0.0116 -1.5675 -2.5010
 4609TIP3    H235387   3.029   5.878   1.012  0.3757  0.7026 -0.4174
 4610TIP3   OH235388   4.616   1.219   1.466  0.2582 -0.2109  0.3951
 4610TIP3    H135389   4.673   1.143   1.459 -1.3326 -1.3397 -1.5054
 4610TIP3    H235390   4.639   1.273   1.390  0.6482  0.7150  1.1484
 4611TIP3   OH235391   2.320   1.600   6.845  0.0197 -0.3818 -0.2164
 4611TIP3    H135392   2.296   1.518   6.801  1.4988 -0.1197 -1.6084
 4611TIP3    H235393   2.401   1.578   6.892 -0.0391  0.0779  0.1044
 4612TIP3   OH235394   4.314   6.538   1.170 -0.0716 -0.3658  0.1976
 4612TIP3    H135395   4.220   6.555   1.168  0.1794  1.1042 -0.7188
 4612TIP3    H235396   4.347   6.592   1.242  0.3014  0.6204 -0.6831
 4613TIP3   OH235397   0.210   4.439   8.178  0.3734 -0.3485  0.2632
 4613TIP3    H135398   0.129   4.484   8.200  0.2106 -1.1581  1.3905
 4613TIP3    H235399   0.213   4.440   8.082 -1.7794 -1.6661  0.1067
 4614TIP3   OH235400   6.431   0.821   7.517  0.1836  0.1448  1.0061
 4614TIP3    H135401   6.487   0.892   7.486 -1.3047  0.5970 -0.7631
 4614TIP3    H235402   6.475   0.790   7.597  1.0913  2.7742  1.6420
 4615TIP3   OH235403   0.976   0.022   0.589  0.3416 -0.3112  0.0120
 4615TIP3    H135404   0.909  -0.027   0.637  0.8783 -1.3577 -0.2829
 4615TIP3    H235405   0.926   0.076   0.528 -0.2445 -0.9439 -0.0834
 4616TIP3   OH235406   1.516   1.633   0.373  0.0752  0.2616  0.0484
 4616TIP3    H135407   1.511   1.608   0.280  1.2994  1.0832 -0.2685
 4616TIP3    H235408   1.565   1.562   0.414 -1.3615 -0.6203  0.2958
 4617TIP3   OH235409   3.334   4.338   1.718 -0.6177  0.0258  0.5801
 4617TIP3    H135410   3.393   4.413   1.725  1.0653 -1.3264  1.4720
 4617TIP3    H235411   3.316   4.313   1.808 -0.3751 -1.2193  0.2962
 4618TIP3   OH235412   6.669   5.600   7.393  0.3445 -0.1402  0.5909
 4618TIP3    H135413   6.679   5.648   7.310  0.4934 -0.3505  0.4847
 4618TIP3    H235414   6.580   5.567   7.391  0.4510 -0.4198  0.3635
 4619TIP3   OH235415   4.610   0.127   3.060  0.0423 -0.2535  0.2987
 4619TIP3    H135416   4.586   0.186   2.989  1.8140  1.1564  0.8139
 4619TIP3    H235417   4.572   0.167   3.139  1.0325  0.0847  0.6155
 4620TIP3   OH235418   5.441   5.394   0.387 -1.1013 -0.1159  0.0063
 4620TIP3    H135419   5.420   5.481   0.354 -0.1449  0.2451  0.2976
 4620TIP3    H235420   5.523   5.407   0.435 -1.2710 -1.0652  0.5547
 4621TIP3   OH235421   5.290   4.427   1.891  0.0013 -0.1985 -0.0877
 4621TIP3    H135422   5.324   4.338   1.894  0.7402 -0.3000 -4.4931
 4621TIP3    H235423   5.363   4.482   1.921  1.4100 -0.8765 -2.0790
 4622TIP3   OH235424   5.145   2.126   1.279 -0.0144  0.3857 -0.2893
 4622TIP3    H135425   5.206   2.074   1.331 -0.8238 -1.2490 -0.9055
 4622TIP3    H235426   5.078   2.154   1.342 -0.6803 -1.0936 -0.3061
 4623TIP3   OH235427   2.818   2.723   0.206 -0.3642 -0.5186  0.8570
 4623TIP3    H135428   2.777   2.752   0.124  2.1313 -1.2497 -0.7425
 4623TIP3    H235429   2.855   2.803   0.244 -1.7341 -0.1368  1.4645
 4624TIP3   OH235430   0.809   2.690   8.361 -1.0012 -0.4434 -0.1608
 4624TIP3    H135431   0.801   2.600   8.394 -1.6414 -0.6322 -0.8066
 4624TIP3    H235432   0.864   2.682   8.283 -1.8212 -0.4155 -0.7491
 4625TIP3   OH235433   6.610   2.884   1.735  0.6636  0.0169  0.4542
 4625TIP3    H135434   6.585   2.798   1.701  1.5951 -0.7588  1.6714
 4625TIP3    H235435   6.633   2.934   1.657 -0.4544 -0.6192 -0.3276
 4626TIP3   OH235436   2.220   1.778   1.475  0.1646  0.0719 -0.0476
 4626TIP3    H135437   2.283   1.849   1.482  1.2067 -0.9256  1.2914
 4626TIP3    H235438   2.271   1.703   1.445 -0.8886 -0.1797 -1.3112
 4627TIP3   OH235439   6.268   3.357   2.624 -0.5380 -0.3123  0.2871
 4627TIP3    H135440   6.229   3.280   2.665  0.8993 -1.1614  0.1206
 4627TIP3    H235441   6.356   3.329   2.598  0.9909  2.0280  2.4099
 4628TIP3   OH235442   1.135   0.248   1.494  0.3089 -0.3337  0.4322
 4628TIP3    H135443   1.211   0.216   1.444  1.1410  0.4126  1.2075
 4628TIP3    H235444   1.106   0.325   1.446 -0.1140 -0.7490  0.0078
 4629TIP3   OH235445   3.980   6.652   0.230  0.2655 -0.2771  0.4696
 4629TIP3    H135446   3.944   6.720   0.174 -0.4320 -0.3741  0.7960
 4629TIP3    H235447   4.074   6.653   0.211 -0.1295 -1.4564 -1.9849
 4630TIP3   OH235448   2.512   2.770   8.425 -0.5659  0.4215  0.2746
 4630TIP3    H135449   2.540   2.779   8.334 -1.4926 -0.0762 -0.0681
 4630TIP3    H235450   2.552   2.689   8.455  0.1332  0.8330  0.4633
 4631TIP3   OH235451   5.221   4.134   7.890 -0.7731 -0.1358 -0.6346
 4631TIP3    H135452   5.278   4.089   7.828  0.8334 -1.5755  1.7385
 4631TIP3    H235453   5.157   4.067   7.916  0.6059 -0.6673  1.6591
 4632TIP3   OH235454   2.228   0.533   1.212  0.5937  0.2488  0.3124
 4632TIP3    H135455   2.292   0.516   1.281  1.4160 -0.4254 -0.5979
 4632TIP3    H235456   2.279   0.535   1.132 -0.1103  2.6211 -0.1507
 4633TIP3   OH235457   4.860   0.209   0.542 -0.3067 -0.3626  0.2077
 4633TIP3    H135458   4.922   0.149   0.500 -1.0741 -1.6539  0.8758
 4633TIP3    H235459   4.860   0.184   0.634 -0.8304  0.5072  0.4594
 4634TIP3   OH235460   2.293   3.401   8.507 -0.0484 -0.3380 -0.1681
 4634TIP3    H135461   2.237   3.370   8.436  1.4672 -0.2122 -1.4546
 4634TIP3    H235462   2.327   3.321   8.548  0.7958 -0.4215 -1.0040
 4635TIP3   OH235463   6.480   5.963   2.735  0.3704  0.1061  0.2671
 4635TIP3    H135464   6.541   5.891   2.756 -0.2400 -0.9265 -1.3330
 4635TIP3    H235465   6.521   6.041   2.772  1.8696 -0.8167  0.6217
 4636TIP3   OH235466   1.027   2.040   3.540  0.0061 -0.0662 -0.4539
 4636TIP3    H135467   0.959   2.045   3.473 -0.1998  2.4466 -0.1171
 4636TIP3    H235468   0.993   1.977   3.604 -2.1412  1.3015 -0.1713
 4637TIP3   OH235469   0.796   4.085   1.608  0.2869 -0.5016  0.4285
 4637TIP3    H135470   0.885   4.117   1.594 -0.4295  0.6709 -2.0762
 4637TIP3    H235471   0.740   4.161   1.591 -1.2833 -1.8573 -0.8972
 4638TIP3   OH235472   2.427   2.316   0.035  0.2582 -0.5358 -0.0031
 4638TIP3    H135473   2.372   2.330   0.112  0.5286 -0.0361  0.1034
 4638TIP3    H235474   2.472   2.400   0.023  1.0849 -0.9800 -0.0153
 4639TIP3   OH235475   2.299   0.607   7.447  0.1078 -0.6738  0.3151
 4639TIP3    H135476   2.260   0.668   7.510 -0.0740 -3.0927  2.7377
 4639TIP3    H235477   2.343   0.663   7.383 -0.2231  1.9627  2.2390
 4640TIP3   OH235478   2.556   2.293   0.306 -0.1556 -0.2198 -0.3964
 4640TIP3    H135479   2.632   2.339   0.270 -0.9845  1.5124 -0.0550
 4640TIP3    H235480   2.568   2.297   0.401  0.4641 -2.0420 -0.3477
 4641TIP3   OH235481   4.497   3.429   8.749 -0.3197 -0.0347 -0.4756
 4641TIP3    H135482   4.440   3.366   8.792 -2.7896  2.2051 -0.2208
 4641TIP3    H235483   4.450   3.454   8.670 -1.0569  3.7194  0.9493
 4642TIP3   OH235484   1.223   5.378   1.398 -0.2947  0.2744  1.1431
 4642TIP3    H135485   1.240   5.315   1.328 -0.3339  1.3414  0.1410
 4642TIP3    H235486   1.309   5.401   1.431  0.0287  2.1399 -0.7511
 4643TIP3   OH235487   0.081   3.592   0.150  0.2457 -0.7384  0.3672
 4643TIP3    H135488   0.167   3.588   0.192  1.3764  3.7608 -0.9393
 4643TIP3    H235489   0.097   3.566   0.060  0.8534  1.9721 -0.3974
 4644TIP3   OH235490   3.107   4.851   8.288 -0.4816 -0.1269  0.3897
 4644TIP3    H135491   3.049   4.845   8.212  0.2076  2.4735 -0.4521
 4644TIP3    H235492   3.192   4.820   8.256 -0.0692  1.4297 -0.1136
 4645TIP3   OH235493   3.142   3.364   8.253 -0.3507 -0.3712  0.0899
 4645TIP3    H135494   3.168   3.322   8.335 -1.1897 -0.2852  0.4152
 4645TIP3    H235495   3.157   3.457   8.268 -1.2418 -0.2748  0.4447
 4646TIP3   OH235496   5.675   2.651   2.861 -0.0196  0.1878 -0.3004
 4646TIP3    H135497   5.686   2.647   2.956 -0.3653  2.5177 -0.0985
 4646TIP3    H235498   5.761   2.676   2.828 -0.8373  4.0286 -0.0567
 4647TIP3   OH235499   4.687   4.531   7.163 -0.7619 -0.0474  0.1026
 4647TIP3    H135500   4.775   4.563   7.181 -1.8396  1.5912  3.1851
 4647TIP3    H235501   4.632   4.573   7.229 -3.7168 -1.8384 -1.0110
 4648TIP3   OH235502   4.712   3.510   1.451  0.4587 -0.2898 -0.1192
 4648TIP3    H135503   4.785   3.537   1.507  0.7570  0.3569 -0.8008
 4648TIP3    H235504   4.727   3.416   1.436  1.2847 -0.1260 -0.4140
 4649TIP3   OH235505   6.368   1.592   0.148  0.0562  0.3867 -0.2067
 4649TIP3    H135506   6.321   1.597   0.065 -0.2872  0.5793 -0.0063
 4649TIP3    H235507   6.299   1.593   0.214  0.3440  0.5999  0.0926
 4650TIP3   OH235508   4.327   0.045   2.407  0.1784 -0.5775 -0.3754
 4650TIP3    H135509   4.266  -0.007   2.356  2.4758 -0.5294 -3.4618
 4650TIP3    H235510   4.297   0.135   2.395 -0.0761 -0.6743 -0.4793
 4651TIP3   OH235511   5.671   3.454   7.958  0.1473 -0.1190 -0.1693
 4651TIP3    H135512   5.625   3.449   7.874  0.0891 -1.3618 -0.0815
 4651TIP3    H235513   5.705   3.366   7.972  0.1526  0.0719  1.1295
 4652TIP3   OH235514   6.424   3.263   1.382 -0.1134  0.3516  0.1805
 4652TIP3    H135515   6.333   3.239   1.401 -0.4043 -1.2468 -2.6948
 4652TIP3    H235516   6.470   3.179   1.374  0.8758  0.9948 -1.4893
 4653TIP3   OH235517   3.928   6.787   8.014 -0.4602 -0.0270 -0.4006
 4653TIP3    H135518   3.892   6.763   7.928 -2.5255  1.4798 -0.0098
 4653TIP3    H235519   3.947   6.703   8.056  0.5123 -0.8044 -2.2387
 4654TIP3   OH235520   4.785   0.610   8.337  0.4518 -0.3705  0.2883
 4654TIP3    H135521   4.792   0.601   8.242 -1.2042 -0.7570  0.1747
 4654TIP3    H235522   4.780   0.705   8.351 -1.8495 -0.3360 -0.2884
 4655TIP3   OH235523   1.943   1.791   1.360  0.1513 -0.2444 -0.7308
 4655TIP3    H135524   1.869   1.829   1.407 -0.4367 -3.4023  1.2439
 4655TIP3    H235525   2.016   1.797   1.421 -0.0370 -2.3540 -0.2273
 4656TIP3   OH235526   4.284   5.965   7.093 -0.7214 -0.2314  0.3630
 4656TIP3    H135527   4.277   5.961   6.998  0.5977  1.2632  0.1534
 4656TIP3    H235528   4.240   6.047   7.117 -1.2972 -0.7358  1.0766
 4657TIP3   OH235529   1.731   1.601   0.911 -0.3908  0.1841 -0.0642
 4657TIP3    H135530   1.753   1.611   1.004  0.3381 -1.9230  0.0416
 4657TIP3    H235531   1.764   1.680   0.870 -1.6493  1.6523  1.5842
 4658TIP3   OH235532   4.596   0.132   0.468 -0.2179  0.7101 -0.1127
 4658TIP3    H135533   4.627   0.173   0.387 -1.0154  1.4900 -0.0365
 4658TIP3    H235534   4.656   0.164   0.536  0.1101  0.5005 -0.3006
 4659TIP3   OH235535   1.140   5.190   0.799 -0.6365 -0.1487  0.2092
 4659TIP3    H135536   1.108   5.133   0.729 -0.2523 -0.4665  0.2912
 4659TIP3    H235537   1.209   5.140   0.842 -1.4507 -0.2938  1.3685
 4660TIP3   OH235538   4.735   2.853   8.536  0.3448  0.1820  0.1914
 4660TIP3    H135539   4.693   2.808   8.609  0.3232 -1.1001 -0.5740
 4660TIP3    H235540   4.818   2.886   8.572  0.1534 -0.0775  0.8817
 4661TIP3   OH235541   6.225   2.935   8.131 -0.0073  0.0354 -0.2109
 4661TIP3    H135542   6.199   2.926   8.223 -0.1132 -1.9970 -0.4118
 4661TIP3    H235543   6.196   3.023   8.107 -0.0003  0.6050  1.6779
 4662TIP3   OH235544   1.468   4.743   1.313  0.3620 -0.5177 -0.6159
 4662TIP3    H135545   1.439   4.727   1.403 -3.0042  3.2575 -0.7286
 4662TIP3    H235546   1.551   4.791   1.322 -0.2663  0.4079  0.6013
 4663TIP3   OH235547   1.470   3.323   2.414 -0.7578  0.4216  0.4328
 4663TIP3    H135548   1.553   3.282   2.391 -0.5510 -0.0529  1.9198
 4663TIP3    H235549   1.478   3.345   2.507 -2.0197  1.0447  0.4276
 4664TIP3   OH235550   0.002   6.394   8.040  0.4628 -0.2907 -0.3303
 4664TIP3    H135551  -0.071   6.454   8.024  0.2017 -0.3809  0.4579
 4664TIP3    H235552   0.004   6.336   7.964 -0.7900 -0.7909 -0.0068
 4665TIP3   OH235553   1.978   6.017   0.995  0.3905 -0.1169 -0.0459
 4665TIP3    H135554   1.948   5.926   0.990 -0.2266  0.0094  1.0011
 4665TIP3    H235555   2.073   6.011   0.986  0.2488 -0.6956 -1.6442
 4666TIP3   OH235556   2.792   5.477   0.877 -0.2617  0.6067  0.0959
 4666TIP3    H135557   2.810   5.383   0.867 -2.4699  0.1572 -0.1505
 4666TIP3    H235558   2.834   5.500   0.960 -0.6386 -0.8925  0.7551
 4667TIP3   OH235559   5.733   2.617   8.439 -0.2210 -0.2251  0.0190
 4667TIP3    H135560   5.692   2.687   8.388 -0.5887 -0.4442  0.0112
 4667TIP3    H235561   5.826   2.627   8.422 -0.0378  1.6220  1.7095
 4668TIP3   OH235562   4.245   5.695   1.399  0.6693  0.2232 -0.0811
 4668TIP3    H135563   4.155   5.721   1.417  0.0234 -0.4561 -2.0329
 4668TIP3    H235564   4.294   5.720   1.477 -0.6465  3.3082 -0.1092
 4669TIP3   OH235565   4.652   3.217   2.007  0.1359  0.7240  0.2748
 4669TIP3    H135566   4.584   3.219   1.940  1.5929 -1.1453 -1.3704
 4669TIP3    H235567   4.623   3.151   2.069  0.0233  0.5891  0.0789
 4670TIP3   OH235568   3.574   1.093   0.191 -0.2602  0.3499 -0.0719
 4670TIP3    H135569   3.529   1.014   0.222  0.0879  0.7858  1.6860
 4670TIP3    H235570   3.659   1.062   0.160 -0.9339 -0.2132 -1.4025
 4671TIP3   OH235571   4.307   6.054   8.245 -0.4218  0.4153  0.5730
 4671TIP3    H135572   4.272   6.034   8.158 -2.8393  2.0028  1.0790
 4671TIP3    H235573   4.368   5.983   8.263  1.7632  1.0481 -3.2123
 4672TIP3   OH235574   1.328   4.155   0.603 -0.2253 -0.1148  0.3854
 4672TIP3    H135575   1.385   4.172   0.528  2.3108  1.6755  2.5330
 4672TIP3    H235576   1.360   4.072   0.638  0.8340  0.6722  1.3349
 4673TIP3   OH235577   5.563   1.592   8.394 -0.4022 -0.1631 -0.3109
 4673TIP3    H135578   5.554   1.498   8.377  0.3599 -0.1480 -0.8876
 4673TIP3    H235579   5.491   1.632   8.346 -0.8897 -0.4730  0.1542
 4674TIP3   OH235580   1.313   6.371   0.199 -0.2949 -0.1626  0.6032
 4674TIP3    H135581   1.224   6.372   0.163 -0.1358 -0.6004  0.1776
 4674TIP3    H235582   1.366   6.410   0.130 -0.3861  1.7100  1.5494
 4675TIP3   OH235583   2.284   0.476   8.074  0.2110 -0.0326  1.2954
 4675TIP3    H135584   2.204   0.423   8.077  0.4933 -0.6612 -0.6917
 4675TIP3    H235585   2.258   0.560   8.110 -0.8797 -0.7785  2.3446
 4676TIP3   OH235586   3.287   0.753   7.147 -0.2946 -0.2819  0.4456
 4676TIP3    H135587   3.340   0.683   7.108  1.2109  1.1626 -0.1925
 4676TIP3    H235588   3.216   0.706   7.191 -0.2281 -2.1407 -1.2557
 4677TIP3   OH235589   2.885   3.034   8.549 -0.4829  0.0779  0.3280
 4677TIP3    H135590   2.858   2.944   8.567  0.4106  0.1623  2.3780
 4677TIP3    H235591   2.822   3.066   8.484 -1.6361 -1.5793  0.5764
 4678TIP3   OH235592   4.167   1.255   0.539 -0.2226 -0.1386  0.3298
 4678TIP3    H135593   4.082   1.297   0.536 -0.1949 -0.1314 -1.1950
 4678TIP3    H235594   4.148   1.162   0.549 -0.5084 -0.3080 -1.3995
 4679TIP3   OH235595   3.430   4.699   1.417  0.0683  0.5301  0.4222
 4679TIP3    H135596   3.396   4.752   1.489 -0.0704  0.7517  0.1949
 4679TIP3    H235597   3.511   4.742   1.391  0.0300  0.5486  0.3325
 4680TIP3   OH235598   0.704   5.440   7.106 -0.2865  0.1305  0.8282
 4680TIP3    H135599   0.718   5.398   7.191 -0.9711  0.0644  0.9167
 4680TIP3    H235600   0.618   5.481   7.114 -0.7473 -0.6008 -0.1189
 4681TIP3   OH235601   4.773   5.437   8.226  0.3054 -0.1766 -0.3706
 4681TIP3    H135602   4.693   5.474   8.188  0.2722 -0.3433 -0.4628
 4681TIP3    H235603   4.753   5.344   8.237  0.4218 -0.1841 -0.2210
 4682TIP3   OH235604   6.381   6.589   8.511 -0.0207  0.0790 -0.1547
 4682TIP3    H135605   6.384   6.540   8.593 -1.8340 -0.4632 -0.3672
 4682TIP3    H235606   6.385   6.681   8.537 -0.6555 -0.0893  0.5601
 4683TIP3   OH235607   3.471   6.705   7.943  0.0732  0.2344 -0.3109
 4683TIP3    H135608   3.472   6.613   7.915 -0.7268  0.4326 -1.0343
 4683TIP3    H235609   3.487   6.755   7.863 -0.6470  0.7554 -0.1451
 4684TIP3   OH235610   5.782   0.417   0.697 -0.2263  0.5161 -0.2873
 4684TIP3    H135611   5.721   0.430   0.770  1.0880  0.9121  0.8019
 4684TIP3    H235612   5.855   0.368   0.736  0.0557 -0.1218 -1.5938
 4685TIP3   OH235613   1.782   4.706   8.551  0.1091  0.2811 -1.0006
 4685TIP3    H135614   1.746   4.699   8.463 -2.8886 -1.6863  0.2203
 4685TIP3    H235615   1.716   4.757   8.599  0.8775 -0.0604  0.4622
 4686TIP3   OH235616   3.267   2.960   1.650  0.0691  0.1539 -0.2275
 4686TIP3    H135617   3.246   3.006   1.731  1.1267 -2.1373  1.4540
 4686TIP3    H235618   3.190   2.973   1.595 -0.6153  1.9274  1.0252
 4687TIP3   OH235619   3.699   0.073   8.387 -0.6638  0.3627  0.1363
 4687TIP3    H135620   3.630   0.120   8.433 -1.0529  2.4804 -2.4230
 4687TIP3    H235621   3.653   0.002   8.341 -0.7283  0.2168  0.4191
 4688TIP3   OH235622   4.064   4.263   1.803 -0.2954 -0.1658  0.1658
 4688TIP3    H135623   4.121   4.325   1.757  2.3301 -1.3213  1.6764
 4688TIP3    H235624   3.977   4.277   1.763  0.7046  2.6062 -1.3254
 4689TIP3   OH235625   5.245   3.552   8.178  0.2734  0.2345 -0.1758
 4689TIP3    H135626   5.275   3.642   8.191 -0.1913  0.4544 -0.5781
 4689TIP3    H235627   5.239   3.543   8.083 -1.9605  0.5662 -0.1202
 4690TIP3   OH235628   4.369   4.643   0.906 -0.6115 -0.1410  0.0880
 4690TIP3    H135629   4.310   4.672   0.975  1.1296 -0.5764  1.8376
 4690TIP3    H235630   4.422   4.720   0.885  0.3852 -0.5957  0.8819
 4691TIP3   OH235631   3.889   2.882   2.480 -0.1650 -0.1562  0.4659
 4691TIP3    H135632   3.824   2.812   2.489 -1.1569  0.2703 -2.2976
 4691TIP3    H235633   3.838   2.963   2.492  0.3632  0.1503  0.6826
 4692TIP3   OH235634   3.935   5.029   0.507 -0.4801  0.2534  0.6335
 4692TIP3    H135635   4.016   4.992   0.472 -0.6124  0.2806  0.2898
 4692TIP3    H235636   3.876   4.955   0.515 -2.0728  0.7695 -3.6773
 4693TIP3   OH235637   6.066   5.821   7.987 -0.0177 -0.3062  0.4613
 4693TIP3    H135638   5.980   5.845   8.021  0.2020  0.4009  0.5298
 4693TIP3    H235639   6.049   5.784   7.900 -0.4155 -0.4682  0.6077
 4694TIP3   OH235640   5.815   3.210   0.006 -0.0168  0.5124 -0.5416
 4694TIP3    H135641   5.809   3.145   0.076  0.9536 -1.1098 -1.8783
 4694TIP3    H235642   5.777   3.289   0.043 -3.1098 -1.2962  0.5756
 4695TIP3   OH235643   5.125   4.337   3.354  0.1834 -0.3939  0.2254
 4695TIP3    H135644   5.046   4.368   3.309 -0.2813 -1.1530  0.4992
 4695TIP3    H235645   5.112   4.242   3.361  1.0930 -0.5117  0.3354
 4696TIP3   OH235646   1.048   4.577   1.847  0.6203 -0.2298  0.1832
 4696TIP3    H135647   1.114   4.539   1.789  1.7941 -1.7718  2.3729
 4696TIP3    H235648   1.070   4.670   1.851  0.1039  0.0503 -2.2577
 4697TIP3   OH235649   3.966   2.123   0.249  0.1583 -0.0254 -0.0646
 4697TIP3    H135650   4.017   2.061   0.303  1.0410  1.2731  0.6585
 4697TIP3    H235651   4.033   2.174   0.203 -0.4744  1.4631  0.6130
 4698TIP3   OH235652   4.392   5.474   1.265  0.1963 -0.3228  0.4061
 4698TIP3    H135653   4.486   5.460   1.266  0.1926 -0.3613  0.2901
 4698TIP3    H235654   4.380   5.566   1.289  0.2364 -0.4526  0.9227
 4699TIP3   OH235655   6.350   5.435   2.781  0.3226 -0.6155  0.7517
 4699TIP3    H135656   6.430   5.418   2.731 -0.3342 -0.3068 -0.4476
 4699TIP3    H235657   6.371   5.511   2.835  0.9362 -0.7248  0.6698
 4700TIP3   OH235658   6.396   0.295   1.180 -0.7253  0.2992  0.4057
 4700TIP3    H135659   6.387   0.374   1.234 -1.8669  0.6311 -0.2406
 4700TIP3    H235660   6.440   0.326   1.101  1.1690 -0.2311  1.1773
 4701TIP3   OH235661   3.425   3.037   1.231 -0.3762  0.7326  0.7264
 4701TIP3    H135662   3.418   2.981   1.308  0.7438 -1.3808 -0.5840
 4701TIP3    H235663   3.515   3.070   1.233 -0.6348  1.4517  0.8091
 4702TIP3   OH235664   4.516   1.728   1.342 -0.3739 -0.0958 -0.4424
 4702TIP3    H135665   4.487   1.646   1.383  3.1389 -1.2678  0.0727
 4702TIP3    H235666   4.442   1.788   1.352 -1.2387 -1.5620  3.9639
 4703TIP3   OH235667   1.552   4.158   8.119 -0.2543 -0.0804 -0.2250
 4703TIP3    H135668   1.587   4.123   8.201  1.8096  1.0380 -0.5512
 4703TIP3    H235669   1.629   4.192   8.073 -1.8027  2.7483 -0.9482
 4704TIP3   OH235670   1.192   3.142   2.295 -0.0124  0.2859 -0.3188
 4704TIP3    H135671   1.149   3.059   2.315  1.7011 -0.3606  0.8989
 4704TIP3    H235672   1.159   3.166   2.209 -0.8943 -1.4089 -0.4991
 4705TIP3   OH235673   3.337   6.749   1.416 -0.0438  0.1214 -0.4594
 4705TIP3    H135674   3.336   6.845   1.409  1.8746  0.1237 -1.2962
 4705TIP3    H235675   3.257   6.721   1.372  0.2283  1.2835 -1.7778
 4706TIP3   OH235676   4.377   3.323   7.505  0.1385 -0.0230 -0.1549
 4706TIP3    H135677   4.318   3.247   7.498 -0.7340  0.6693 -0.5943
 4706TIP3    H235678   4.333   3.391   7.454  0.6053  0.9592  0.7264
 4707TIP3   OH235679   0.185   6.354   2.274  0.5723 -0.1746 -0.3962
 4707TIP3    H135680   0.173   6.446   2.298 -0.1182 -0.0671 -1.0921
 4707TIP3    H235681   0.110   6.309   2.315  0.2809 -0.2412 -0.9946
 4708TIP3   OH235682   0.034   4.059   8.354  0.7319 -0.4417 -0.5809
 4708TIP3    H135683   0.083   4.099   8.426 -0.4976  1.0170 -0.5044
 4708TIP3    H235684   0.094   4.064   8.279  1.6486 -1.0658  0.0893
 4709TIP3   OH235685   4.741   0.303   2.287 -0.1194  0.1087  0.0876
 4709TIP3    H135686   4.829   0.271   2.301 -0.1569  0.2930  0.7491
 4709TIP3    H235687   4.698   0.295   2.372 -0.0362  2.1843  0.3844
 4710TIP3   OH235688   0.662   4.429   8.552  0.6776  0.0765  0.4218
 4710TIP3    H135689   0.618   4.355   8.510  0.9245  0.5838 -0.7759
 4710TIP3    H235690   0.715   4.468   8.482  0.7174  1.2596  1.0892
 4711TIP3   OH235691   6.635   6.799   0.883  0.0851  0.6076 -0.0468
 4711TIP3    H135692   6.579   6.842   0.947  1.0740  2.0972 -0.1365
 4711TIP3    H235693   6.585   6.802   0.801 -0.2486  0.7059  0.1592
 4712TIP3   OH235694   2.064   1.396   8.568 -0.0859 -0.2690  0.3222
 4712TIP3    H135695   2.023   1.366   8.487 -3.1047 -0.2553  1.6840
 4712TIP3    H235696   2.144   1.440   8.540 -1.1963  0.0921 -2.6839
 4713TIP3   OH235697   6.009   4.130   1.666  0.4841  0.3425 -0.3629
 4713TIP3    H135698   6.009   4.035   1.678  0.1511  0.3762 -0.1032
 4713TIP3    H235699   6.080   4.146   1.604 -0.1476 -0.1754 -1.2375
 4714TIP3   OH235700   1.157   4.124   7.775 -0.6083  0.1849 -0.3215
 4714TIP3    H135701   1.210   4.201   7.755  1.2073 -0.9319 -0.0866
 4714TIP3    H235702   1.069   4.158   7.792 -0.0973  2.0692 -1.2384
 4715TIP3   OH235703   5.750   1.676   7.690 -0.4455  0.1128  0.4382
 4715TIP3    H135704   5.786   1.758   7.656 -0.0262 -0.2463  0.0134
 4715TIP3    H235705   5.817   1.610   7.671 -1.0810 -0.4605  0.1622
 4716TIP3   OH235706   3.223   3.908   8.598 -0.6394  0.0619  0.4514
 4716TIP3    H135707   3.163   3.945   8.534  0.8676  0.2820 -0.9223
 4716TIP3    H235708   3.304   3.958   8.587  0.4930 -1.6217  0.6659
 4717TIP3   OH235709   6.513   5.530   2.268  0.0207  0.6782 -0.1982
 4717TIP3    H135710   6.514   5.470   2.194  2.6328 -0.6047  0.7603
 4717TIP3    H235711   6.428   5.516   2.311  0.3527 -1.9869 -0.3063
 4718TIP3   OH235712   0.177   4.700   1.065 -0.0745  0.1130 -0.4788
 4718TIP3    H135713   0.256   4.735   1.024  0.2686 -1.4674 -1.2649
 4718TIP3    H235714   0.106   4.756   1.034  0.5321  0.5590 -1.0741
 4719TIP3   OH235715   6.057   3.310   2.275  0.1337  0.0059 -0.1896
 4719TIP3    H135716   6.080   3.348   2.190  0.9054 -0.1326 -0.0485
 4719TIP3    H235717   6.002   3.376   2.317 -1.5915 -0.5732 -1.4257
 4720TIP3   OH235718   4.104   6.776   0.681 -0.5873 -0.3086 -0.3608
 4720TIP3    H135719   4.131   6.740   0.766 -0.1847  1.3430  0.2438
 4720TIP3    H235720   4.045   6.710   0.645 -0.2226 -1.3631  0.8885
 4721TIP3   OH235721   3.774   0.942   0.884 -0.4711  0.2206 -0.2657
 4721TIP3    H135722   3.863   0.975   0.894 -1.0911  1.6698  0.7925
 4721TIP3    H235723   3.747   0.972   0.797  1.7347 -4.5733 -2.9849
 4722TIP3   OH235724   0.748   1.370   3.210  0.1729  0.0605  0.6323
 4722TIP3    H135725   0.696   1.301   3.169  1.2873 -0.3955 -0.0675
 4722TIP3    H235726   0.826   1.377   3.155  0.4092  1.3989  1.0978
 4723TIP3   OH235727   0.960   0.197   7.930 -0.3170 -0.0247  0.1516
 4723TIP3    H135728   0.952   0.179   7.836 -0.5938 -0.2009  0.2075
 4723TIP3    H235729   0.970   0.292   7.935  0.7261 -0.1081 -0.1190
 4724TIP3   OH235730   1.095   4.491   7.712  0.0423 -0.9202 -0.2580
 4724TIP3    H135731   1.076   4.569   7.765 -0.6432 -1.1862 -0.1022
 4724TIP3    H235732   1.187   4.472   7.729  0.3723  0.1714 -0.7125
 4725TIP3   OH235733   2.449   0.147   2.798 -0.3343  0.5930  0.3746
 4725TIP3    H135734   2.415   0.226   2.840 -1.9151 -0.1733  0.5940
 4725TIP3    H235735   2.371   0.096   2.776  0.4134  0.7132 -3.1000
 4726TIP3   OH235736   3.435   3.352   7.327  0.5560 -0.2105  0.0792
 4726TIP3    H135737   3.480   3.269   7.314 -0.1827 -0.5846 -0.1446
 4726TIP3    H235738   3.465   3.382   7.413  0.4851 -0.9309  0.3589
 4727TIP3   OH235739   5.330   4.572   6.939 -0.2650 -0.5121 -0.4207
 4727TIP3    H135740   5.382   4.499   6.972 -0.7234 -1.8282 -2.4209
 4727TIP3    H235741   5.253   4.574   6.995 -0.2315 -1.5743 -0.3092
 4728TIP3   OH235742   5.976   1.019   2.373 -0.5268 -0.3328  0.0188
 4728TIP3    H135743   6.007   0.983   2.290  0.2666  1.5245 -0.5494
 4728TIP3    H235744   5.901   1.073   2.350 -1.0361 -0.7390  0.6888
 4729TIP3   OH235745   6.754   6.675   2.430  0.1470 -0.2511 -0.4171
 4729TIP3    H135746   6.676   6.671   2.484  0.6758 -0.7934  0.3252
 4729TIP3    H235747   6.722   6.698   2.342 -0.6643  1.1461  0.2105
 4730TIP3   OH235748   0.315   1.828   2.325 -0.2680 -0.1896 -0.2437
 4730TIP3    H135749   0.403   1.862   2.338 -0.2190 -0.0965 -0.8050
 4730TIP3    H235750   0.327   1.747   2.277 -0.5024 -0.0386 -0.5624
 4731TIP3   OH235751   1.041   3.350   2.884  0.0585 -0.1129 -0.1011
 4731TIP3    H135752   0.991   3.409   2.829 -1.7179 -1.1423  0.3020
 4731TIP3    H235753   1.131   3.357   2.853 -0.1295  2.5262 -0.2485
 4732TIP3   OH235754   5.664   1.623   2.999  0.0835 -0.4827  0.7510
 4732TIP3    H135755   5.626   1.536   3.008 -1.0762  0.1105  1.8897
 4732TIP3    H235756   5.699   1.644   3.086 -2.0668  1.2304  1.2895
 4733TIP3   OH235757   3.604   5.170   0.182  0.6648 -0.3264 -0.0312
 4733TIP3    H135758   3.671   5.102   0.173  2.8852  1.9063 -2.1141
 4733TIP3    H235759   3.631   5.239   0.121 -3.0750  1.1732 -0.2893
 4734TIP3   OH235760   2.981   4.576   1.265  0.0336  0.6606  0.2122
 4734TIP3    H135761   2.989   4.658   1.215  2.4515  1.2515  1.4637
 4734TIP3    H235762   2.945   4.603   1.349 -1.7339 -0.0122 -0.2683
 4735TIP3   OH235763   6.449   3.963   2.235  0.5612 -0.1178  0.4617
 4735TIP3    H135764   6.461   3.925   2.322  1.0504 -0.3193  0.3118
 4735TIP3    H235765   6.487   3.897   2.175  1.3161  0.5458  0.1902
 4736TIP3   OH235766   4.837   0.113   3.502  0.0934  0.1118 -0.5904
 4736TIP3    H135767   4.925   0.083   3.528  0.4877  1.6078 -0.1257
 4736TIP3    H235768   4.835   0.099   3.407  0.4496 -0.8553 -0.4726
 4737TIP3   OH235769   6.765   3.798   2.422  0.9035 -0.7164 -1.3500
 4737TIP3    H135770   6.771   3.865   2.354 -2.5096  0.8213 -0.3554
 4737TIP3    H235771   6.832   3.823   2.486  0.7038  0.8741 -1.7213
 4738TIP3   OH235772   2.855   1.228   3.274  0.3209  0.4076  0.1251
 4738TIP3    H135773   2.786   1.191   3.219 -0.3058 -0.4526  1.4468
 4738TIP3    H235774   2.922   1.256   3.212 -0.5848 -0.0450 -1.1041
 4739TIP3   OH235775   3.292   5.481   8.597  0.3191  0.6735 -0.7291
 4739TIP3    H135776   3.383   5.483   8.629  0.0231 -2.1189  0.5932
 4739TIP3    H235777   3.267   5.389   8.602 -1.7119  0.9157 -3.7641
 4740TIP3   OH235778   5.194   6.558   0.837  0.3311 -0.4004 -0.2745
 4740TIP3    H135779   5.284   6.589   0.826  0.5221  0.1175  2.1226
 4740TIP3    H235780   5.204   6.471   0.877 -0.2114  0.0254  0.8174
 4741TIP3   OH235781   3.321   1.073   1.790 -0.1719 -0.5492  0.0247
 4741TIP3    H135782   3.248   1.130   1.767 -1.0824 -2.0134 -0.8300
 4741TIP3    H235783   3.367   1.058   1.708  1.7335  1.1428  0.7066
 4742TIP3   OH235784   5.503   3.238   1.123  0.2378  0.0525  0.5658
 4742TIP3    H135785   5.411   3.251   1.101  0.0198 -0.0222  1.4020
 4742TIP3    H235786   5.504   3.234   1.218  1.1159  0.0945  0.5613
 4743TIP3   OH235787   3.116   6.672   0.831 -0.0714  0.3432 -0.0744
 4743TIP3    H135788   3.127   6.665   0.736  0.5937  1.2948 -0.0916
 4743TIP3    H235789   3.182   6.737   0.857  1.1552 -1.3738  1.3246
 4744TIP3   OH235790   3.896   3.217   8.188  0.4939 -0.1779 -0.2037
 4744TIP3    H135791   3.898   3.308   8.216  4.5737 -0.5467  1.3412
 4744TIP3    H235792   3.855   3.170   8.260 -0.0523  0.2245 -0.2484
 4745TIP3   OH235793   0.546   4.195   0.291  0.2892  0.5861 -0.4124
 4745TIP3    H135794   0.542   4.160   0.202 -0.7780 -0.0800 -0.1150
 4745TIP3    H235795   0.601   4.132   0.339  0.4903  0.7028 -0.4881
 4746TIP3   OH235796   5.971   2.603   0.260  0.5976  0.0467 -0.2397
 4746TIP3    H135797   5.931   2.690   0.259  1.6400  0.5805  0.9688
 4746TIP3    H235798   5.996   2.587   0.169 -2.3993 -0.3915 -1.0977
 4747TIP3   OH235799   3.862   1.992   3.082  0.3992 -0.4137  0.1326
 4747TIP3    H135800   3.953   1.963   3.079  0.5613  0.1695 -1.3598
 4747TIP3    H235801   3.811   1.913   3.061  0.6613 -0.3657 -0.7109
 4748TIP3   OH235802   4.278   5.484   2.210 -0.2429 -0.0387 -0.1439
 4748TIP3    H135803   4.268   5.566   2.260  1.7145  0.3018 -0.2228
 4748TIP3    H235804   4.305   5.420   2.276  2.3563  0.4134 -0.6682
 4749TIP3   OH235805   1.861   4.174   8.038  0.2915  0.1129  0.2222
 4749TIP3    H135806   1.893   4.116   8.107 -1.7446  0.4332  1.5504
 4749TIP3    H235807   1.939   4.209   7.997  1.5769 -1.7735  0.9144
 4750TIP3   OH235808   6.809   4.367   7.659  0.5384  0.2019  0.4293
 4750TIP3    H135809   6.777   4.325   7.579  0.6192  0.7840  0.0849
 4750TIP3    H235810   6.903   4.379   7.645  1.0188 -1.8009  1.5736
 4751TIP3   OH235811   3.654   1.138   2.646  0.1188  0.1438 -0.0187
 4751TIP3    H135812   3.565   1.171   2.649  0.3937  0.8625  0.8029
 4751TIP3    H235813   3.709   1.216   2.656  0.7918 -0.4455  1.1803
 4752TIP3   OH235814   1.263   0.784   0.071 -0.2365  0.2471 -0.5497
 4752TIP3    H135815   1.351   0.819   0.060 -0.3141  0.0796 -1.9243
 4752TIP3    H235816   1.269   0.725   0.147  0.3369  1.7457  0.6199
 4753TIP3   OH235817   4.166   4.691   7.560  0.2807 -0.7442 -0.6991
 4753TIP3    H135818   4.090   4.660   7.512  0.7478 -1.2810 -1.1103
 4753TIP3    H235819   4.232   4.707   7.493  0.0034  1.3870 -0.5301
 4754TIP3   OH235820   0.284   4.152   8.254  0.7160 -0.2770 -0.6279
 4754TIP3    H135821   0.243   4.099   8.186 -0.7749 -0.1969  0.1760
 4754TIP3    H235822   0.250   4.240   8.240  0.0117 -0.3577  0.5012
 4755TIP3   OH235823   1.711   1.995   8.643  0.0517 -0.6433 -0.3134
 4755TIP3    H135824   1.745   1.974   8.730  0.4033  0.3288 -0.2018
 4755TIP3    H235825   1.617   1.983   8.651 -0.1493  1.2191  0.7757
 4756TIP3   OH235826   4.388   6.589   1.742  0.2500  0.2013 -0.5925
 4756TIP3    H135827   4.308   6.572   1.693 -0.2099  0.1419  0.1585
 4756TIP3    H235828   4.457   6.548   1.691 -0.2548 -0.0987 -1.0442
 4757TIP3   OH235829   2.953   5.869   0.260  0.3013  0.2571  0.4134
 4757TIP3    H135830   2.931   5.782   0.293  0.8247  0.3290  0.9859
 4757TIP3    H235831   2.912   5.873   0.174  1.3454 -1.0678 -0.2022
 4758TIP3   OH235832   1.545   3.304   0.342  0.2429  0.1108 -0.3865
 4758TIP3    H135833   1.633   3.343   0.337 -0.4005  1.5093 -2.0024
 4758TIP3    H235834   1.530   3.269   0.254 -1.2628  0.9976 -0.5130
 4759TIP3   OH235835   3.413   5.558   8.115  0.1027 -0.2217 -0.2771
 4759TIP3    H135836   3.495   5.536   8.159 -0.0993 -1.2052 -0.3635
 4759TIP3    H235837   3.385   5.640   8.155 -2.3450 -3.0430  4.8061
 4760TIP3   OH235838   4.527   2.722   8.710  0.1838 -0.2469 -0.3943
 4760TIP3    H135839   4.510   2.643   8.659 -4.4304  0.7601 -0.8425
 4760TIP3    H235840   4.543   2.691   8.799 -3.6831 -1.8042 -0.0882
 4761TIP3   OH235841   3.279   6.472   1.934  0.0854  0.0328  0.4447
 4761TIP3    H135842   3.253   6.393   1.982  0.3376 -0.4047 -0.1337
 4761TIP3    H235843   3.317   6.529   2.001  1.0706 -0.8529  0.6735
 4762TIP3   OH235844   6.559   2.740   2.188 -0.5551 -0.3474  0.1799
 4762TIP3    H135845   6.478   2.758   2.139 -0.2663 -0.2285 -0.2616
 4762TIP3    H235846   6.627   2.737   2.121 -0.3949 -1.8682  0.3703
 4763TIP3   OH235847   4.897   4.278   0.278  0.3349 -0.4328  0.3225
 4763TIP3    H135848   4.958   4.256   0.208 -0.4747 -1.7273 -0.0043
 4763TIP3    H235849   4.915   4.214   0.347  1.3930  1.0661  1.5036
 4764TIP3   OH235850   5.626   3.241   2.491  0.4781 -0.5490 -0.0321
 4764TIP3    H135851   5.625   3.209   2.400  2.3760 -1.1890  0.1455
 4764TIP3    H235852   5.667   3.327   2.486 -1.1534  0.2875  0.0167
 4765TIP3   OH235853   2.120   0.066   1.381 -0.0996 -0.7106  0.3775
 4765TIP3    H135854   2.119   0.131   1.311  1.6879 -0.9354  0.1169
 4765TIP3    H235855   2.206   0.025   1.375 -0.5452 -1.8994  1.6487
 4766TIP3   OH235856   3.005   6.287   2.712  0.1395  0.8803  0.1001
 4766TIP3    H135857   2.994   6.198   2.746 -0.1328 -0.1924 -2.5111
 4766TIP3    H235858   3.092   6.313   2.741  0.3855 -0.3895  0.5970
 4767TIP3   OH235859   2.912   5.785   2.371  0.0661 -0.0754  0.6028
 4767TIP3    H135860   2.834   5.763   2.422  0.8263 -0.6900  1.5300
 4767TIP3    H235861   2.969   5.829   2.433  1.5942 -2.0724  0.7001
 4768TIP3   OH235862   6.512   3.556   1.398  0.6806  0.6011  0.1073
 4768TIP3    H135863   6.536   3.560   1.491  0.4920 -0.6626  0.2380
 4768TIP3    H235864   6.469   3.471   1.389 -0.0840  1.0837 -0.9674
 4769TIP3   OH235865   0.264   5.428   0.069  0.2404  0.2936 -0.2704
 4769TIP3    H135866   0.265   5.457  -0.022 -0.4003  0.1159 -0.3398
 4769TIP3    H235867   0.349   5.456   0.104  0.7936 -0.2619 -1.1124
 4770TIP3   OH235868   4.610   5.727   2.983 -0.1398 -0.3898  0.0320
 4770TIP3    H135869   4.518   5.723   3.010 -0.9782  0.8247 -2.3108
 4770TIP3    H235870   4.629   5.639   2.950 -0.3840 -0.6958  0.6854
 4771TIP3   OH235871   2.571   1.199   8.494 -0.1405  0.2027  0.5503
 4771TIP3    H135872   2.597   1.111   8.523  1.7387  0.3354 -0.5257
 4771TIP3    H235873   2.588   1.255   8.570  1.1034 -0.0177  0.4642
 4772TIP3   OH235874   6.121   3.584   0.641  0.0397  0.3255 -0.4802
 4772TIP3    H135875   6.166   3.642   0.703 -0.7217 -0.0741  0.4716
 4772TIP3    H235876   6.186   3.516   0.622  0.4606  0.7360 -0.5391
 4773TIP3   OH235877   3.727   3.250   2.815 -0.1410  0.0993 -0.2274
 4773TIP3    H135878   3.789   3.320   2.796  1.7539 -1.8886 -2.0050
 4773TIP3    H235879   3.651   3.269   2.760 -0.3360  1.5351  0.4959
 4774TIP3   OH235880   2.746   0.951   8.247  0.0871 -0.0366 -0.4083
 4774TIP3    H135881   2.837   0.940   8.275  0.2263  1.0190 -0.4012
 4774TIP3    H235882   2.745   0.918   8.157  0.9630  1.6812 -1.1114
 4775TIP3   OH235883   4.464   5.435   8.342 -0.4549  0.6574 -0.5032
 4775TIP3    H135884   4.470   5.396   8.255 -1.0569 -1.0707  0.1829
 4775TIP3    H235885   4.385   5.488   8.340 -1.0433 -0.2087 -0.7121
 4776TIP3   OH235886   3.594   5.075   7.077  0.5114  0.1508  0.2604
 4776TIP3    H135887   3.639   5.012   7.020  0.0051 -0.5683  0.6398
 4776TIP3    H235888   3.591   5.156   7.026  1.3121 -0.0883 -0.1756
 4777TIP3   OH235889   0.625   5.651   0.421 -0.1058 -0.0089 -0.1719
 4777TIP3    H135890   0.661   5.610   0.342 -1.2249 -0.4113 -0.4936
 4777TIP3    H235891   0.701   5.663   0.479  0.7662  0.4610 -1.3683
 4778TIP3   OH235892   3.958   2.314   1.350  0.2766 -0.4934  0.3340
 4778TIP3    H135893   3.948   2.378   1.420  0.6101 -0.1528  0.0692
 4778TIP3    H235894   3.919   2.356   1.274  0.7506 -0.4921  0.0925
 4779TIP3   OH235895   1.998   6.541   0.894 -0.2248 -0.2255  0.2863
 4779TIP3    H135896   2.022   6.597   0.821  1.7237 -0.5387  0.6230
 4779TIP3    H235897   1.939   6.595   0.948 -1.2217  0.1998 -1.1732
 4780TIP3   OH235898   5.231   0.299   0.776  0.2629 -0.3906  0.0237
 4780TIP3    H135899   5.244   0.239   0.702  0.7276 -0.7736  0.4096
 4780TIP3    H235900   5.168   0.255   0.832  1.3278 -0.9870  0.7923
 4781TIP3   OH235901   3.160   2.778   8.024 -0.5048 -0.0605  0.3774
 4781TIP3    H135902   3.203   2.864   8.021  0.6752 -0.6381  0.0404
 4781TIP3    H235903   3.224   2.718   7.984 -1.4426 -1.0419  0.3040
 4782TIP3   OH235904   5.026   3.955   0.310  0.0527 -0.2146  0.4092
 4782TIP3    H135905   4.962   3.891   0.343  0.0968 -0.2377  0.4501
 4782TIP3    H235906   5.078   3.978   0.387 -0.7396  0.7869  0.6731
 4783TIP3   OH235907   2.906   4.019   1.832 -0.2151  0.2466 -0.3466
 4783TIP3    H135908   2.939   3.931   1.850 -0.5408  0.0023 -0.9435
 4783TIP3    H235909   2.920   4.067   1.914 -1.1537 -0.6885  0.3859
 4784TIP3   OH235910   1.348   0.580   2.859  0.2857 -0.2273 -0.1877
 4784TIP3    H135911   1.300   0.655   2.893  0.6324 -0.0610 -0.0654
 4784TIP3    H235912   1.416   0.563   2.923  1.0933  0.2397 -0.8957
 4785TIP3   OH235913   5.366   1.020   1.639  0.4752  0.6171 -0.3756
 4785TIP3    H135914   5.429   1.068   1.692  0.0333 -0.8039  1.5744
 4785TIP3    H235915   5.293   1.081   1.628 -0.1445  0.4559  2.1660
 4786TIP3   OH235916   2.481   6.176   0.444 -1.3966  0.3998  0.0866
 4786TIP3    H135917   2.430   6.128   0.509 -1.5779 -1.1518 -1.1418
 4786TIP3    H235918   2.569   6.139   0.451 -1.0796  1.2068  0.3921
 4787TIP3   OH235919   5.091   1.834   1.109 -0.3288 -0.3097  0.1205
 4787TIP3    H135920   5.027   1.889   1.063  0.5675  1.9173  1.3460
 4787TIP3    H235921   5.128   1.892   1.176  2.1574 -1.8535  0.1959
 4788TIP3   OH235922   2.416   3.752   0.821 -0.3156  0.2372  0.0530
 4788TIP3    H135923   2.328   3.781   0.845 -0.5287 -0.5151  0.2046
 4788TIP3    H235924   2.408   3.728   0.729  0.2239  2.0405 -0.4953
 4789TIP3   OH235925   5.677   2.755   1.416  0.0261  0.6745 -0.0136
 4789TIP3    H135926   5.598   2.805   1.396 -0.3652 -0.5144 -1.7186
 4789TIP3    H235927   5.740   2.780   1.349 -0.2036 -1.1056 -0.9441
 4790TIP3   OH235928   1.511   0.898   1.562 -0.3259 -0.0885  0.0254
 4790TIP3    H135929   1.537   0.852   1.483 -1.3280 -0.9421  0.1711
 4790TIP3    H235930   1.587   0.892   1.620  0.8811  1.6158 -1.2851
 4791TIP3   OH235931   4.987   6.046   0.964  0.0327  0.3396  0.4343
 4791TIP3    H135932   5.023   5.975   0.911  0.2347  0.9915 -0.3251
 4791TIP3    H235933   4.961   6.004   1.046  0.5990 -0.5211  0.1919
 4792TIP3   OH235934   0.399   1.211   2.740  0.1169 -0.1558 -0.1650
 4792TIP3    H135935   0.370   1.171   2.823  1.5065 -0.1675  0.3347
 4792TIP3    H235936   0.411   1.303   2.760 -0.0506 -0.0581 -0.5022
 4793TIP3   OH235937   6.113   6.150   1.532 -0.4533  0.6748  0.6373
 4793TIP3    H135938   6.084   6.068   1.571  0.8120 -0.5870 -0.9179
 4793TIP3    H235939   6.063   6.156   1.450 -0.4768  1.4013  0.7030
 4794TIP3   OH235940   2.252   4.322   0.074  0.6651  0.2546  0.7921
 4794TIP3    H135941   2.311   4.337   0.148  0.7092 -0.2896  0.8675
 4794TIP3    H235942   2.168   4.359   0.102  1.0894  1.5307  0.4778
 4795TIP3   OH235943   4.309   2.066   1.001 -0.2083 -0.4282 -0.3551
 4795TIP3    H135944   4.280   2.142   1.052  0.7998 -0.3353  0.1001
 4795TIP3    H235945   4.269   1.991   1.046 -0.3882 -0.2485 -0.2115
 4796TIP3   OH235946   6.296   1.123   3.844  0.2117 -0.1788  0.3533
 4796TIP3    H135947   6.253   1.128   3.929 -0.7317  0.2827 -0.1440
 4796TIP3    H235948   6.369   1.185   3.851 -0.2129  0.2956  0.6252
 4797TIP3   OH235949   3.242   2.443   1.147  0.2332 -0.2769  0.3640
 4797TIP3    H135950   3.302   2.458   1.074 -0.5882 -0.6493 -0.4140
 4797TIP3    H235951   3.253   2.519   1.204 -1.2154  1.5414 -1.6162
 4798TIP3   OH235952   5.530   2.461   0.318  0.2048  0.2525 -0.0418
 4798TIP3    H135953   5.544   2.442   0.225 -0.7275  0.4603 -0.2369
 4798TIP3    H235954   5.497   2.379   0.354 -0.8801  0.6000 -0.2250
 4799TIP3   OH235955   4.144   5.913   8.408 -0.4547  0.0359 -0.5887
 4799TIP3    H135956   4.055   5.933   8.378 -0.5625  1.4506  0.5690
 4799TIP3    H235957   4.199   5.980   8.368  0.0167 -0.4873 -0.8334
 4800TIP3   OH235958   3.676   6.561   7.099 -0.6567 -0.7162 -0.4709
 4800TIP3    H135959   3.749   6.554   7.160 -2.2907  0.2912  1.7753
 4800TIP3    H235960   3.630   6.478   7.106 -1.2867 -0.3220  0.3671
 4801TIP3   OH235961   3.781   5.236   0.508 -0.0133 -0.0755  0.3359
 4801TIP3    H135962   3.812   5.291   0.436 -0.5562 -0.9049 -0.5635
 4801TIP3    H235963   3.828   5.154   0.497 -0.2696 -0.2866  0.7951
 4802TIP3   OH235964   2.134   0.236   1.614  0.0362  0.2747  0.1836
 4802TIP3    H135965   2.204   0.293   1.583 -1.8818  1.7847 -1.6113
 4802TIP3    H235966   2.115   0.178   1.540  0.2318 -1.0243  1.1090
 4803TIP3   OH235967   4.248   5.058   8.236  0.2348 -0.2260  0.2051
 4803TIP3    H135968   4.210   5.133   8.190  2.2642  1.2315  0.7835
 4803TIP3    H235969   4.260   5.090   8.326 -0.7508 -1.9744  1.0092
 4804TIP3   OH235970   2.632   5.278   1.366 -0.1267 -0.0315 -0.1902
 4804TIP3    H135971   2.663   5.365   1.393  0.3669 -0.7828  1.8291
 4804TIP3    H235972   2.628   5.228   1.447 -2.4926 -1.2966 -0.9979
 4805TIP3   OH235973   4.986   5.689   1.436 -0.4377 -0.1799 -0.3096
 4805TIP3    H135974   5.043   5.658   1.366 -1.4120  0.0524 -1.2506
 4805TIP3    H235975   4.911   5.629   1.434  0.9996 -2.3249  2.8501
 4806TIP3   OH235976   4.293   0.131   0.377  0.4961  0.0549 -0.3539
 4806TIP3    H135977   4.239   0.178   0.440 -2.9265 -1.6818 -1.7171
 4806TIP3    H235978   4.378   0.176   0.378 -1.1685  3.4482  1.4469
 4807TIP3   OH235979   5.323   2.989   0.667 -0.4296  0.2962 -0.5763
 4807TIP3    H135980   5.309   2.902   0.704  0.0880  0.9669  1.3004
 4807TIP3    H235981   5.407   3.018   0.704 -1.2731  2.1472  0.0107
 4808TIP3   OH235982   2.569   1.540   1.436 -0.3474  0.2033  0.8598
 4808TIP3    H135983   2.586   1.630   1.406 -3.9769  0.8814  0.2892
 4808TIP3    H235984   2.480   1.543   1.472 -0.4655 -3.1063  1.1869
 4809TIP3   OH235985   4.011   1.035   2.576 -0.0368 -0.5730  0.6849
 4809TIP3    H135986   4.015   1.131   2.576  0.6923 -0.5993  0.4708
 4809TIP3    H235987   4.091   1.007   2.619  1.1001 -1.1120 -1.6102
 4810TIP3   OH235988   3.702   3.939   1.951  0.3707 -0.4145 -0.6828
 4810TIP3    H135989   3.755   3.935   2.030  0.6077  0.8206 -0.7474
 4810TIP3    H235990   3.684   4.033   1.939 -2.0541 -0.7920 -0.5096
 4811TIP3   OH235991   6.263   5.677   1.556  0.1789 -0.5380 -0.4874
 4811TIP3    H135992   6.343   5.662   1.606 -1.0936 -0.4011  1.7510
 4811TIP3    H235993   6.206   5.603   1.580 -1.3197  0.7611  0.1552
 4812TIP3   OH235994   2.703   4.371   0.739 -0.3493  0.8397  0.8353
 4812TIP3    H135995   2.793   4.366   0.772 -0.1239  1.8278  0.3913
 4812TIP3    H235996   2.661   4.292   0.774  0.9309 -0.1254  0.3058
 4813TIP3   OH235997   3.239   0.278   0.343 -0.4547 -0.4218 -0.4455
 4813TIP3    H135998   3.256   0.270   0.249 -1.6184 -0.6199 -0.6532
 4813TIP3    H235999   3.235   0.187   0.374  0.0989 -0.3549 -0.1645
 4814TIP3   OH236000   3.805   1.828   1.180 -0.0873 -0.0436  0.0971
 4814TIP3    H136001   3.744   1.861   1.246 -0.8841 -0.0067 -0.6410
 4814TIP3    H236002   3.856   1.762   1.226 -0.0483  0.5781  0.9748
 4815TIP3   OH236003   6.583   6.797   8.246 -0.7232  0.0255 -0.3090
 4815TIP3    H136004   6.500   6.807   8.292 -0.0689 -0.2848  0.9931
 4815TIP3    H236005   6.595   6.880   8.199 -0.4573  1.1929  1.7128
 4816TIP3   OH236006   3.300   0.296   0.084  0.0430 -0.0569 -0.3926
 4816TIP3    H136007   3.284   0.287  -0.010  0.4829  0.6016 -0.5369
 4816TIP3    H236008   3.283   0.389   0.102  2.0571  0.3197 -0.2477
 4817TIP3   OH236009   4.372   4.375   7.599  0.1447  0.6108 -0.0523
 4817TIP3    H136010   4.353   4.345   7.688 -0.7424 -0.3050 -0.5434
 4817TIP3    H236011   4.464   4.403   7.603  0.4184 -0.3587  0.9070
 4818TIP3   OH236012   0.084   3.952   0.004  0.2775 -0.5897 -0.0566
 4818TIP3    H136013   0.153   3.967   0.069  0.0026  0.6020 -0.0098
 4818TIP3    H236014   0.118   3.990  -0.077  1.4363 -3.7809 -1.1991
 4819TIP3   OH236015   6.218   1.016   8.097 -0.0971 -0.2875 -0.3347
 4819TIP3    H136016   6.161   1.024   8.021  1.0867 -0.5150 -1.2703
 4819TIP3    H236017   6.282   1.087   8.087 -0.2230 -0.0007  0.7194
 4820TIP3   OH236018   6.030   1.799   7.775 -0.6264  0.1259 -0.8274
 4820TIP3    H136019   6.009   1.707   7.787 -1.6631  0.1644 -2.1244
 4820TIP3    H236020   6.098   1.800   7.708 -1.4519  0.3312 -1.6916
 4821TIP3   OH236021   5.698   1.838   0.158 -0.1922  0.3160  0.3155
 4821TIP3    H136022   5.740   1.808   0.238 -0.5950  1.4524  0.9789
 4821TIP3    H236023   5.740   1.922   0.139 -0.7769  0.5205 -0.1142
 4822TIP3   OH236024   3.528   5.234   7.981  0.0382  0.5501 -0.8320
 4822TIP3    H136025   3.503   5.143   7.998 -0.3666  0.8757  0.4294
 4822TIP3    H236026   3.623   5.232   7.976  0.1380  0.2755  0.7051
 4823TIP3   OH236027   3.752   5.652   7.650  0.2472  0.0630  0.1432
 4823TIP3    H136028   3.689   5.605   7.596  1.2706 -0.7841 -0.3472
 4823TIP3    H236029   3.710   5.736   7.669 -0.5828 -0.0610 -1.0461
 4824TIP3   OH236030   2.863   6.043   2.811 -0.0790 -0.2114 -0.1914
 4824TIP3    H136031   2.787   6.016   2.759  1.4234  0.5295 -2.9592
 4824TIP3    H236032   2.836   6.030   2.902 -3.4074 -0.1647 -1.0691
 4825TIP3   OH236033   5.503   1.416   2.751  0.2540  0.3762 -0.3509
 4825TIP3    H136034   5.407   1.413   2.759  0.2716  0.7350  0.0785
 4825TIP3    H236035   5.535   1.391   2.838  0.6059 -1.8136 -1.0544
 4826TIP3   OH236036   5.572   0.603   2.656 -1.0429  0.0371  0.1644
 4826TIP3    H136037   5.548   0.637   2.569  0.8642  0.0133 -0.4107
 4826TIP3    H236038   5.645   0.544   2.639  0.1106  0.8966  1.9124
 4827TIP3   OH236039   4.139   0.143   8.058  0.3497  0.2788  0.1872
 4827TIP3    H136040   4.060   0.101   8.024  2.5248 -2.5703 -1.8372
 4827TIP3    H236041   4.165   0.205   7.989 -0.6277  2.0990  1.3670
 4828TIP3   OH236042   1.684   0.114   1.463 -0.1496  0.0471  0.2085
 4828TIP3    H136043   1.735   0.133   1.542  0.4618 -0.8711  0.0565
 4828TIP3    H236044   1.727   0.166   1.394 -0.1788  0.2194  0.3196
 4829TIP3   OH236045   1.338   1.968   1.735  0.2361 -0.0249  0.0898
 4829TIP3    H136046   1.354   1.927   1.650  3.3696  0.1585  0.4699
 4829TIP3    H236047   1.398   1.925   1.795  0.4204  2.0214  1.4964
 4830TIP3   OH236048   5.992   5.772   7.736 -0.0831  0.2299 -0.1880
 4830TIP3    H136049   5.899   5.797   7.732 -0.8219 -2.0749  1.0430
 4830TIP3    H236050   6.033   5.822   7.665 -1.8223  2.9589  0.5595
 4831TIP3   OH236051   6.706   2.019   2.121  0.7383 -0.2165  0.3372
 4831TIP3    H136052   6.624   1.985   2.085 -0.6272  1.9697  1.1530
 4831TIP3    H236053   6.745   1.945   2.167 -0.9392 -1.2415  0.1924
 4832TIP3   OH236054   5.614   1.810   8.661  0.4704 -0.5448  0.3139
 4832TIP3    H136055   5.652   1.722   8.665  0.2538 -0.6282  0.5109
 4832TIP3    H236056   5.613   1.840   8.752  1.0080 -0.1418  0.1918
 4833TIP3   OH236057   5.594   5.581   8.344  0.3978 -0.0533 -0.0901
 4833TIP3    H136058   5.614   5.551   8.432  0.6210  2.1379  0.6648
 4833TIP3    H236059   5.629   5.670   8.340 -0.1329  0.1204 -2.1953
 4834TIP3   OH236060   5.642   4.847   1.302 -0.7491 -0.1586  0.7842
 4834TIP3    H136061   5.612   4.871   1.390  1.8229 -1.1484  2.0212
 4834TIP3    H236062   5.735   4.868   1.301 -0.2390 -2.1365 -0.9576
 4835TIP3   OH236063   6.104   0.633   8.132 -0.6679 -0.2411 -0.2793
 4835TIP3    H136064   6.113   0.569   8.203 -1.1557 -0.0510 -0.0395
 4835TIP3    H236065   6.191   0.672   8.124 -0.4474 -0.7083 -0.2154
 4836TIP3   OH236066   1.039   4.869   2.428 -0.1291  0.4050  0.1232
 4836TIP3    H136067   1.046   4.959   2.459  0.3410  1.0801 -1.7984
 4836TIP3    H236068   1.014   4.877   2.335 -0.1968 -1.4455 -0.0662
 4837TIP3   OH236069   5.366   3.342   0.504 -0.3502 -0.3227  0.2483
 4837TIP3    H136070   5.305   3.376   0.438  0.4185  3.8500  1.4136
 4837TIP3    H236071   5.314   3.278   0.553 -2.5731  0.2711 -1.1728
 4838TIP3   OH236072   4.676   5.872   8.761  0.2571 -0.0965  0.3005
 4838TIP3    H136073   4.743   5.859   8.694 -0.9963 -0.0504 -1.0148
 4838TIP3    H236074   4.724   5.877   8.843  1.8395 -0.2098 -0.5889
 4839TIP3   OH236075   0.767   1.575   8.151  0.2367  0.4836  0.2135
 4839TIP3    H136076   0.827   1.642   8.118 -0.7874  0.7671 -1.1555
 4839TIP3    H236077   0.682   1.600   8.117 -0.1438 -1.6453 -0.5505
 4840TIP3   OH236078   6.191   4.470   8.146 -0.2364 -0.5748  0.2824
 4840TIP3    H136079   6.099   4.456   8.172  0.2411 -2.9058  0.9127
 4840TIP3    H236080   6.202   4.414   8.069  0.0327  1.6385 -1.3746
 4841TIP3   OH236081   0.838   0.660   1.375  0.2467  0.4238 -0.1774
 4841TIP3    H136082   0.910   0.599   1.355 -0.2366 -0.4930  0.7777
 4841TIP3    H236083   0.853   0.685   1.466 -0.8543 -0.0827  0.1535
 4842TIP3   OH236084   3.425   2.253   2.642  0.0322 -0.1148  0.2384
 4842TIP3    H136085   3.400   2.343   2.623 -0.4581 -0.2461  0.2595
 4842TIP3    H236086   3.346   2.202   2.628  0.3408 -0.5647  0.0934
 4843TIP3   OH236087   6.463   1.674   1.172 -0.8714  0.3834  0.8583
 4843TIP3    H136088   6.535   1.679   1.235 -1.2153  0.3420  1.2610
 4843TIP3    H236089   6.505   1.655   1.088 -0.3369  1.2005  0.9283
 4844TIP3   OH236090   6.667   4.509   0.370  0.3939 -0.2630 -0.1121
 4844TIP3    H136091   6.671   4.603   0.357 -2.2078 -0.1569 -0.7275
 4844TIP3    H236092   6.751   4.486   0.409  1.3938  2.1706 -0.6699
 4845TIP3   OH236093   4.052   0.302   2.673  0.4929  0.8410 -0.0147
 4845TIP3    H136094   3.991   0.375   2.666 -1.2616 -0.5120  0.5444
 4845TIP3    H236095   4.059   0.284   2.767 -0.9813 -1.1542 -0.2136
 4846TIP3   OH236096   3.236   4.088   7.755  0.3019  0.1772  0.1073
 4846TIP3    H136097   3.319   4.069   7.799 -0.0956 -0.7462  0.4787
 4846TIP3    H236098   3.207   4.003   7.721 -0.9556  0.3141  0.8007
 4847TIP3   OH236099   5.652   2.130   7.349 -0.3431  0.4896  0.1464
 4847TIP3    H136100   5.713   2.157   7.280 -1.4872  1.8443 -0.4055
 4847TIP3    H236101   5.694   2.156   7.431 -0.7971  2.8705 -0.3044
 4848TIP3   OH236102   6.233   6.725   0.916  0.7503  0.2377 -0.3058
 4848TIP3    H136103   6.280   6.668   0.977  0.5349  1.4736  1.0723
 4848TIP3    H236104   6.161   6.671   0.884  0.8050 -0.4152  0.6160
 4849TIP3   OH236105   0.923   5.800   0.881 -0.1160 -0.2274 -0.1824
 4849TIP3    H136106   0.965   5.804   0.967  2.2766 -0.2726 -1.2647
 4849TIP3    H236107   0.830   5.809   0.899  0.4107  1.0308  2.2999
 4850TIP3   OH236108   6.426   3.450   0.075 -0.2205  0.1690  0.1312
 4850TIP3    H136109   6.333   3.440   0.097 -0.0683 -0.1656  0.6451
 4850TIP3    H236110   6.436   3.401  -0.006 -0.7097  1.0899 -0.5110
 4851TIP3   OH236111   6.421   0.045   1.059 -0.1255 -0.8014 -0.5570
 4851TIP3    H136112   6.342   0.045   1.004  0.4377  2.3106 -1.5761
 4851TIP3    H236113   6.417   0.129   1.105  2.3636 -0.7751 -0.2781
 4852TIP3   OH236114   5.968   4.867   7.583  0.1053  0.2852 -0.4075
 4852TIP3    H136115   5.960   4.790   7.527  0.2892  0.0048 -0.0524
 4852TIP3    H236116   5.921   4.936   7.536  0.0336 -0.0134 -0.7792
 4853TIP3   OH236117   4.122   3.920   1.351  0.3869  0.2873  0.0029
 4853TIP3    H136118   4.177   3.864   1.296 -0.3159 -1.1025  0.6766
 4853TIP3    H236119   4.039   3.927   1.303 -1.2833 -3.2156  1.9500
 4854TIP3   OH236120   1.511   1.185   1.822 -0.5579  0.0863 -0.1692
 4854TIP3    H136121   1.582   1.121   1.831  1.0709  1.8085 -0.0812
 4854TIP3    H236122   1.519   1.217   1.733 -1.3558  0.1891 -0.2074
 4855TIP3   OH236123   3.857   5.337   1.470  0.4777  0.0576  0.6856
 4855TIP3    H136124   3.899   5.251   1.473 -1.0050 -0.7419 -0.0755
 4855TIP3    H236125   3.806   5.341   1.551 -0.6022 -0.4317  0.0530
 4856TIP3   OH236126   3.194   5.359   8.122  0.3169 -0.1800  0.2803
 4856TIP3    H136127   3.118   5.414   8.139  0.3573  0.0450 -0.2563
 4856TIP3    H236128   3.268   5.420   8.123  0.5908 -0.5172  1.6036
 4857TIP3   OH236129   2.456   0.309   1.242  0.2575 -0.2809  0.1499
 4857TIP3    H136130   2.519   0.346   1.304 -1.5021 -0.4944  2.1626
 4857TIP3    H236131   2.511   0.266   1.176  2.2510  2.0891  0.1321
 4858TIP3   OH236132   4.861   1.896   0.321 -0.0462  0.2494 -0.4718
 4858TIP3    H136133   4.802   1.961   0.284  0.2749 -1.0284 -3.4817
 4858TIP3    H236134   4.932   1.947   0.361 -0.8629  1.7330 -0.8628
 4859TIP3   OH236135   1.442   1.981   8.667 -0.2028 -0.1418 -0.1783
 4859TIP3    H136136   1.363   1.973   8.613 -0.4766 -2.6489  0.4991
 4859TIP3    H236137   1.420   2.051   8.729 -2.2229 -1.2626  0.4690
 4860TIP3   OH236138   2.287   5.245   1.025 -0.2212 -0.0315 -0.4310
 4860TIP3    H136139   2.325   5.226   1.111 -1.5523  1.0174  0.4356
 4860TIP3    H236140   2.361   5.238   0.964  0.7722 -0.7263  0.7962
 4861TIP3   OH236141   4.974   0.483   2.451 -0.0731  0.3532 -0.0394
 4861TIP3    H136142   4.962   0.470   2.545 -0.8683  2.2732  0.1732
 4861TIP3    H236143   4.985   0.394   2.416 -0.0561 -0.4243  1.8107
 4862TIP3   OH236144   1.723   4.636   6.869  0.1490  0.4949  0.0263
 4862TIP3    H136145   1.658   4.703   6.848 -0.7159 -0.0487  0.8839
 4862TIP3    H236146   1.765   4.667   6.949  2.0434  1.5756 -1.2891
 4863TIP3   OH236147   1.894   2.098   8.177  0.1937 -0.1692 -0.0402
 4863TIP3    H136148   1.835   2.142   8.117 -2.4034  0.8642  2.9957
 4863TIP3    H236149   1.899   2.157   8.253  2.4968 -1.8220  1.2111
 4864TIP3   OH236150   2.823   2.662   1.192 -0.5796 -0.6064  0.1930
 4864TIP3    H136151   2.802   2.609   1.269  1.0235 -1.8308 -0.1552
 4864TIP3    H236152   2.780   2.617   1.119  0.2879 -1.1280 -0.0159
 4865TIP3   OH236153   4.439   5.544   7.789 -0.3863 -0.3924  0.6792
 4865TIP3    H136154   4.386   5.624   7.792 -1.6731 -1.0505 -2.0851
 4865TIP3    H236155   4.379   5.475   7.815 -0.0840 -0.8215  0.2335
 4866TIP3   OH236156   6.193   3.208   8.013  0.6260 -0.3537 -1.0838
 4866TIP3    H136157   6.115   3.231   8.063  2.6338 -0.5881  2.4999
 4866TIP3    H236158   6.204   3.279   7.950 -1.8512  0.2161 -0.9595
 4867TIP3   OH236159   4.014   6.307   1.286 -0.3290 -0.2588 -0.4080
 4867TIP3    H136160   4.085   6.250   1.317 -0.1931  1.8277  3.6787
 4867TIP3    H236161   4.058   6.388   1.262 -1.1341  0.2609 -0.1364
 4868TIP3   OH236162   4.990   2.996   1.421  0.4351  0.4348 -0.0644
 4868TIP3    H136163   4.990   3.092   1.426  0.3590  0.4255  0.1648
 4868TIP3    H236164   5.055   2.975   1.354  1.6959  0.6019  1.0587
 4869TIP3   OH236165   3.350   3.230   2.988  0.2194 -0.4593  0.0336
 4869TIP3    H136166   3.397   3.149   3.005  1.5953  0.5365  1.3399
 4869TIP3    H236167   3.403   3.297   3.031 -0.3824  1.2626 -1.7468
 4870TIP3   OH236168   2.767   3.817   0.365  0.0657 -0.1682 -0.1875
 4870TIP3    H136169   2.728   3.893   0.408  1.1476  0.3340 -0.0766
 4870TIP3    H236170   2.825   3.854   0.298 -0.1186 -0.9145 -0.7770
 4871TIP3   OH236171   1.927   4.366   1.530 -0.3583  0.2544  0.0503
 4871TIP3    H136172   1.958   4.452   1.499 -0.7314  0.3283 -0.1205
 4871TIP3    H236173   1.994   4.304   1.499  0.5916  0.6242  1.2703
 4872TIP3   OH236174   0.431   5.744   0.602  0.1075 -0.0859  0.2775
 4872TIP3    H136175   0.359   5.681   0.603 -0.6254  0.7465  0.7451
 4872TIP3    H236176   0.500   5.700   0.551 -0.9557 -0.6402 -0.7227
 4873TIP3   OH236177   6.718   4.119   1.576 -0.6672  0.0518 -0.0142
 4873TIP3    H136178   6.702   4.101   1.669 -0.8461  2.3330  0.4751
 4873TIP3    H236179   6.754   4.038   1.541  0.2455 -0.6087  2.2697
 4874TIP3   OH236180   3.444   5.937   2.828  0.7579 -0.0488  0.0102
 4874TIP3    H136181   3.412   5.848   2.845 -0.2223  0.3980  0.6060
 4874TIP3    H236182   3.487   5.963   2.909 -0.6292  0.7020  0.5395
 4875TIP3   OH236183   2.627   4.128   0.884  0.4091 -0.4806 -0.8064
 4875TIP3    H136184   2.701   4.113   0.943  0.4497  0.2659 -0.6579
 4875TIP3    H236185   2.633   4.057   0.820 -0.7810 -2.4859  1.1771
 4876TIP3   OH236186   2.412   3.662   1.348  0.3811  0.2205  0.2993
 4876TIP3    H136187   2.495   3.667   1.397  0.2325 -1.3201  0.7868
 4876TIP3    H236188   2.436   3.680   1.258  1.0572  0.9134  0.6093
 4877TIP3   OH236189   5.518   0.629   0.812 -0.4055 -0.4232  0.3152
 4877TIP3    H136190   5.557   0.705   0.854  0.6914 -1.2816  0.8853
 4877TIP3    H236191   5.553   0.554   0.860 -1.0260 -1.3202 -0.5900
 4878TIP3   OH236192   1.664   5.014   7.755  0.3904 -0.2143  0.9424
 4878TIP3    H136193   1.759   5.009   7.767  0.5699  0.0586 -0.2255
 4878TIP3    H236194   1.634   4.924   7.765  0.9467 -0.5116  0.1079
 4879TIP3   OH236195   4.646   4.688   7.995 -0.3389  0.2081 -0.4270
 4879TIP3    H136196   4.698   4.618   7.955 -0.1614 -1.0922  1.8999
 4879TIP3    H236197   4.573   4.702   7.935  0.0493 -1.4157 -1.3275
 4880TIP3   OH236198   3.494   3.996   8.575 -0.5841  0.3297 -0.5161
 4880TIP3    H136199   3.489   4.045   8.657  0.0605  1.7301 -1.2657
 4880TIP3    H236200   3.558   4.045   8.523 -0.0739 -1.2249 -1.3948
 4881TIP3   OH236201   3.368   4.638   7.936  0.7655  0.1496  0.3725
 4881TIP3    H136202   3.283   4.675   7.959  0.7776  0.9295 -0.7316
 4881TIP3    H236203   3.362   4.621   7.842  1.2035 -1.5361  0.6150
 4882TIP3   OH236204   4.063   2.052   2.146 -0.3572 -0.3167 -0.2182
 4882TIP3    H136205   3.981   2.101   2.152 -0.1397  0.1692 -0.9604
 4882TIP3    H236206   4.045   1.968   2.186 -0.7517  0.3666  1.0932
 4883TIP3   OH236207   3.911   4.659   1.121 -0.3046 -0.0941  0.1054
 4883TIP3    H136208   3.836   4.646   1.179  0.2694  0.5169  1.0157
 4883TIP3    H236209   3.934   4.751   1.132 -0.1184  0.0155 -1.0404
 4884TIP3   OH236210   6.172   4.614   2.365 -0.0392  0.1756 -0.0671
 4884TIP3    H136211   6.080   4.595   2.380 -0.6803  2.1771 -1.1171
 4884TIP3    H236212   6.187   4.589   2.274  0.0939  1.0581 -0.2957
 4885TIP3   OH236213   3.433   6.823   8.521  0.4882  0.2797  0.1486
 4885TIP3    H136214   3.451   6.789   8.609  1.1108 -0.4826 -0.2687
 4885TIP3    H236215   3.420   6.745   8.467  2.4244  0.6394 -0.9374
 4886TIP3   OH236216   1.247   3.520   6.928 -0.5991  0.0871 -0.1833
 4886TIP3    H136217   1.295   3.603   6.936 -1.0029  0.3519 -0.4491
 4886TIP3    H236218   1.168   3.534   6.981 -0.2784 -0.4300  0.4451
 4887TIP3   OH236219   4.462   3.425   1.188 -0.5972 -0.1245 -0.1091
 4887TIP3    H136220   4.421   3.364   1.250 -0.4348 -1.3890 -1.2110
 4887TIP3    H236221   4.555   3.401   1.189 -0.4516  0.4282 -0.2104
 4888TIP3   OH236222   3.387   3.398   8.011  0.3784 -0.5895 -0.2032
 4888TIP3    H136223   3.368   3.458   8.083  1.4371 -0.9079  0.3574
 4888TIP3    H236224   3.461   3.438   7.964  1.1802 -1.4910  0.2525
 4889TIP3   OH236225   2.253   5.484   7.923  0.5441  0.3592  0.0936
 4889TIP3    H136226   2.189   5.417   7.947  2.9498 -2.1259  0.0923
 4889TIP3    H236227   2.309   5.492   8.001  2.3260 -0.2170 -1.0641
 4890TIP3   OH236228   4.263   2.831   2.087  0.4735 -0.1736 -0.8262
 4890TIP3    H136229   4.344   2.807   2.042  0.5696  0.0378 -0.7669
 4890TIP3    H236230   4.237   2.752   2.135 -0.0290 -0.6463 -1.8398
 4891TIP3   OH236231   0.768   0.982   1.529  0.4950  0.3901 -0.4288
 4891TIP3    H136232   0.846   0.946   1.487  1.1437 -0.6858  1.5982
 4891TIP3    H236233   0.798   1.013   1.615 -1.2783  0.0398  0.3592
 4892TIP3   OH236234   4.061   4.495   0.365  0.6687 -0.3111  0.1864
 4892TIP3    H136235   3.985   4.479   0.422  1.0656  0.2605  0.8865
 4892TIP3    H236236   4.093   4.408   0.344  0.3863 -0.5412  0.6720
 4893TIP3   OH236237   5.912   1.012   8.108  0.1250 -0.6355 -0.1700
 4893TIP3    H136238   5.927   1.006   8.014 -0.9346  0.1959 -0.4105
 4893TIP3    H236239   5.982   1.067   8.140 -1.7007  2.4943 -1.1374
 4894TIP3   OH236240   3.142   0.395   2.182  0.3064  0.6547  0.6436
 4894TIP3    H136241   3.201   0.444   2.126  1.8837 -0.0617  1.6177
 4894TIP3    H236242   3.055   0.429   2.161  0.8627  0.6846 -1.9274
 4895TIP3   OH236243   4.135   2.979   1.451  0.2760 -0.3870  0.1980
 4895TIP3    H136244   4.040   2.976   1.450  0.2775 -0.2817 -0.7883
 4895TIP3    H236245   4.157   3.071   1.438  0.5197 -0.5287 -0.4041
 4896TIP3   OH236246   2.706   0.423   8.188 -0.7995 -0.5024  0.1264
 4896TIP3    H136247   2.769   0.451   8.122 -1.8250 -1.2446 -1.2209
 4896TIP3    H236248   2.759   0.380   8.255  0.1109 -1.5438 -1.2021
 4897TIP3   OH236249   1.719   0.597   0.806 -0.1535 -0.6231  0.3884
 4897TIP3    H136250   1.724   0.690   0.829 -0.3331 -0.5691  0.2065
 4897TIP3    H236251   1.626   0.577   0.803 -0.1088 -0.9810  1.1076
 4898TIP3   OH236252   3.371   3.521   7.574 -0.1565  0.1357 -0.1806
 4898TIP3    H136253   3.418   3.539   7.656  1.0502 -3.8098  0.2289
 4898TIP3    H236254   3.424   3.562   7.507  2.9578 -2.3544  0.4980
 4899TIP3   OH236255   2.699   5.323   7.793 -0.7242 -0.1003 -0.3473
 4899TIP3    H136256   2.732   5.308   7.704  1.9137 -3.3209  0.9567
 4899TIP3    H236257   2.740   5.405   7.821  1.4959 -0.9537 -0.8901
 4900TIP3   OH236258   1.258   1.688   8.440  0.0418  0.2525  0.3006
 4900TIP3    H136259   1.335   1.741   8.420  0.0871 -0.0333 -0.3028
 4900TIP3    H236260   1.186   1.731   8.393  0.3554 -1.0630 -1.4718
 4901TIP3   OH236261   0.548   3.946   2.667  0.2470 -0.2731  0.0471
 4901TIP3    H136262   0.504   3.952   2.582 -0.3386 -0.0344  0.3585
 4901TIP3    H236263   0.549   4.036   2.699  0.6027 -0.3412  0.2279
 4902TIP3   OH236264   1.390   2.056   3.213  0.4451 -0.4932 -0.3526
 4902TIP3    H136265   1.300   2.065   3.246  0.4601  0.6950 -0.5909
 4902TIP3    H236266   1.415   1.967   3.235  0.5463  0.2564  3.1441
 4903TIP3   OH236267   6.774   1.661   2.014 -0.6857  0.3494  0.2303
 4903TIP3    H136268   6.721   1.591   1.975  0.5117  0.3299 -1.4900
 4903TIP3    H236269   6.825   1.617   2.081 -2.1903  0.2118  1.3408
 4904TIP3   OH236270   5.082   2.554   8.526  0.1163  0.0058 -0.9149
 4904TIP3    H136271   5.121   2.553   8.439 -0.0389  0.6211 -0.9999
 4904TIP3    H236272   5.115   2.634   8.566 -2.0302  1.2727 -1.4720
 4905TIP3   OH236273   3.461   6.678   7.240  0.2882  0.2519  0.4248
 4905TIP3    H136274   3.520   6.645   7.172 -2.4755  0.4896 -2.3286
 4905TIP3    H236275   3.487   6.770   7.251  0.6897  0.2666 -0.4772
 4906TIP3   OH236276   3.881   4.357   8.470  0.2412  0.4479  0.1281
 4906TIP3    H136277   3.849   4.445   8.448  1.9422  1.2842  0.8011
 4906TIP3    H236278   3.922   4.325   8.390 -1.1481 -0.1202 -0.3768
 4907TIP3   OH236279   3.951   0.671   3.164  0.3573  0.8202  0.2415
 4907TIP3    H136280   3.978   0.691   3.254 -0.9389  0.8295  0.6455
 4907TIP3    H236281   3.892   0.742   3.140 -1.5651 -0.6291  0.4435
 4908TIP3   OH236282   5.755   3.188   7.922 -0.1586  0.5297  0.1210
 4908TIP3    H136283   5.666   3.156   7.935 -0.2231  0.8131  0.3999
 4908TIP3    H236284   5.808   3.109   7.913 -0.6818  0.3759 -1.8461
 4909TIP3   OH236285   3.588   5.531   6.795  0.4224  0.4301  0.0524
 4909TIP3    H136286   3.521   5.596   6.818  1.7481  2.7987 -2.2689
 4909TIP3    H236287   3.627   5.564   6.715  3.2177 -1.7768  0.3506
 4910TIP3   OH236288   6.781   5.242   0.592 -0.2388  0.0302 -0.1994
 4910TIP3    H136289   6.686   5.230   0.584 -0.5276  1.2781  1.0348
 4910TIP3    H236290   6.797   5.330   0.558  0.7020 -0.6973 -1.7260
 4911TIP3   OH236291   5.113   5.118   0.778 -0.0799  0.1992  0.4151
 4911TIP3    H136292   5.202   5.132   0.812 -0.5226  1.1595  1.2289
 4911TIP3    H236293   5.056   5.159   0.843 -1.1526 -0.7281  0.0903
 4912TIP3   OH236294   4.804   3.478   8.353 -0.3478  0.0852 -0.2650
 4912TIP3    H136295   4.766   3.556   8.313 -0.6890 -0.8852 -1.9146
 4912TIP3    H236296   4.795   3.410   8.287  2.7936 -0.6161 -0.1433
 4913TIP3   OH236297   0.792   4.035   8.256  0.3742  0.3224  0.5299
 4913TIP3    H136298   0.823   4.031   8.347  2.6652 -0.4094 -0.2133
 4913TIP3    H236299   0.731   4.109   8.255  1.1877  1.0903  2.4142
 4914TIP3   OH236300   4.660   2.616   0.673  0.4466  0.5417 -0.2858
 4914TIP3    H136301   4.694   2.703   0.652  0.1660  0.7184 -0.0125
 4914TIP3    H236302   4.679   2.563   0.595  3.1609  0.0763  0.5660
 4915TIP3   OH236303   6.473   6.475   0.229 -0.1672  0.0127  0.0341
 4915TIP3    H136304   6.480   6.567   0.254 -1.0592  0.0578  0.1649
 4915TIP3    H236305   6.544   6.462   0.166 -0.0526  0.8000 -0.0154
 4916TIP3   OH236306   3.914   2.452   1.582 -0.1128 -0.6570 -0.1662
 4916TIP3    H136307   3.888   2.442   1.673 -0.3788 -0.8226 -0.2572
 4916TIP3    H236308   3.985   2.517   1.583 -0.0206 -0.7665  0.1696
 4917TIP3   OH236309   2.208   4.136   0.726 -0.4193  0.5772 -0.3664
 4917TIP3    H136310   2.131   4.185   0.695  1.4393  1.9820 -3.2325
 4917TIP3    H236311   2.277   4.158   0.664  1.5087 -3.1528  0.1549
 4918TIP3   OH236312   3.494   3.349   0.633  0.3792  0.2051  0.0642
 4918TIP3    H136313   3.449   3.420   0.681  1.7516  0.6952  0.6682
 4918TIP3    H236314   3.424   3.288   0.611 -0.5979  0.9510  0.9687
 4919TIP3   OH236315   4.926   3.561   7.969 -0.1329 -0.4412  0.2004
 4919TIP3    H136316   4.935   3.566   7.874  0.1569  1.2371  0.2832
 4919TIP3    H236317   5.004   3.605   8.003 -1.2170  0.7982  1.1722
 4920TIP3   OH236318   1.482   5.094   2.045 -0.6133  0.1596 -0.6165
 4920TIP3    H136319   1.417   5.030   2.075 -1.1723 -0.2340 -2.5475
 4920TIP3    H236320   1.566   5.051   2.062 -0.9059 -0.1797  0.0378
 4921TIP3   OH236321   4.711   1.362   1.247  0.6278  0.1964 -0.2008
 4921TIP3    H136322   4.768   1.308   1.194 -0.2587  0.3678 -1.3640
 4921TIP3    H236323   4.720   1.450   1.210 -0.8919  0.0989 -0.8558
 4922TIP3   OH236324   1.572   6.449   3.182  0.0298  0.3255  0.5899
 4922TIP3    H136325   1.631   6.375   3.192 -0.8836 -0.3637  1.0014
 4922TIP3    H236326   1.587   6.502   3.261  0.3197  0.3230  0.5374
 4923TIP3   OH236327   4.793   5.222   7.316  0.4683  0.1857  0.0531
 4923TIP3    H136328   4.833   5.144   7.277  0.4157 -0.5182  1.3368
 4923TIP3    H236329   4.747   5.189   7.393  1.0463  1.5759  1.0332
 4924TIP3   OH236330   0.067   6.093   2.033  0.6419 -0.3311  0.7919
 4924TIP3    H136331   0.119   6.163   2.072  0.2095  0.0115  0.7602
 4924TIP3    H236332   0.066   6.114   1.940 -0.1656  0.0777  0.8852
 4925TIP3   OH236333   2.827   3.069   7.673  0.3666  0.6133  0.3180
 4925TIP3    H136334   2.812   3.162   7.654 -2.2886  0.5921  1.7799
 4925TIP3    H236335   2.918   3.065   7.700  1.6698  2.1162 -3.1422
 4926TIP3   OH236336   4.195   0.415   1.878 -0.5698 -0.5476  0.2578
 4926TIP3    H136337   4.128   0.422   1.947  0.6985  0.6239  1.4448
 4926TIP3    H236338   4.223   0.506   1.864  1.2361 -1.0660  0.2945
 4927TIP3   OH236339   2.483   3.670   1.947 -0.4124 -0.0099 -0.3754
 4927TIP3    H136340   2.437   3.629   2.020  0.2110 -2.5848 -1.3062
 4927TIP3    H236341   2.449   3.625   1.869  1.2242  0.3875 -1.3719
 4928TIP3   OH236342   5.058   5.003   0.091  0.1564  0.4646  0.2353
 4928TIP3    H136343   5.108   4.938   0.141 -0.4736  1.1102  1.7560
 4928TIP3    H236344   5.103   5.086   0.108 -0.4167  0.7864  0.2109
 4929TIP3   OH236345   3.725   1.502   7.547  0.4762 -0.2287  0.5098
 4929TIP3    H136346   3.691   1.587   7.519  1.6986 -0.0387 -0.5003
 4929TIP3    H236347   3.659   1.439   7.519 -0.8953  0.4269  2.0980
 4930TIP3   OH236348   1.974   0.196   1.952 -0.0051  0.2991 -0.1974
 4930TIP3    H136349   2.010   0.108   1.963 -0.5045 -0.0601 -1.2633
 4930TIP3    H236350   2.049   0.254   1.964  0.2777 -0.2489  0.7661
 4931TIP3   OH236351   4.354   4.739   0.561  0.4014 -0.4809 -0.0098
 4931TIP3    H136352   4.382   4.673   0.497 -0.2993  0.4916 -1.3607
 4931TIP3    H236353   4.433   4.790   0.579  1.1659 -2.1696  1.7078
 4932TIP3   OH236354   1.841   0.789   2.025 -0.4748 -0.2881  0.1042
 4932TIP3    H136355   1.804   0.877   2.033 -0.5865 -0.3775  0.6566
 4932TIP3    H236356   1.899   0.794   1.949 -1.5932 -0.1348 -0.7684
 4933TIP3   OH236357   5.741   0.019   1.811 -0.3003  0.6643 -0.5980
 4933TIP3    H136358   5.662  -0.008   1.857 -1.4294  2.2677 -1.4770
 4933TIP3    H236359   5.711   0.086   1.749  1.9346  2.4236  0.0655
 4934TIP3   OH236360   4.968   1.146   2.311  0.0768 -0.5647  0.1871
 4934TIP3    H136361   5.020   1.193   2.376 -1.3945 -0.6548  1.5063
 4934TIP3    H236362   4.897   1.206   2.289  1.0250 -0.1862 -2.0688
 4935TIP3   OH236363   6.827   2.502   0.377 -0.0018 -0.1675  0.0412
 4935TIP3    H136364   6.857   2.446   0.449 -1.2501 -2.0973 -0.8430
 4935TIP3    H236365   6.737   2.524   0.401 -0.5364 -1.0904 -1.0203
 4936TIP3   OH236366   1.271   4.966   0.277  0.0082  0.4991  0.1112
 4936TIP3    H136367   1.238   5.052   0.304  1.8221  1.5621 -0.7897
 4936TIP3    H236368   1.363   4.967   0.304  0.3750 -0.6607 -1.0091
 4937TIP3   OH236369   2.211   5.552   1.378 -0.2867  0.0354 -0.1371
 4937TIP3    H136370   2.197   5.468   1.333  0.4325  0.4245 -1.1260
 4937TIP3    H236371   2.297   5.542   1.420 -0.6688 -0.0922  0.6321
 4938TIP3   OH236372   0.384   1.739   2.980 -0.1959  0.3050 -0.0962
 4938TIP3    H136373   0.405   1.678   3.051  0.9886  0.9817  0.1566
 4938TIP3    H236374   0.337   1.810   3.023 -0.1583  0.3439 -0.1201
 4939TIP3   OH236375   3.817   5.850   2.171  0.7853  0.5634 -0.3883
 4939TIP3    H136376   3.727   5.818   2.171  1.0644 -0.2384 -0.1121
 4939TIP3    H236377   3.827   5.896   2.254  0.2761  1.7113 -0.9383
 4940TIP3   OH236378   1.028   5.112   6.727  0.1993 -0.4165  0.4724
 4940TIP3    H136379   0.977   5.042   6.686  0.8446  0.7406 -2.5955
 4940TIP3    H236380   0.972   5.189   6.721  1.0945  0.2156 -0.2037
 4941TIP3   OH236381   3.130   6.203   8.258  0.1621  0.2547  0.4247
 4941TIP3    H136382   3.115   6.138   8.326  0.6768 -0.3008  0.0200
 4941TIP3    H236383   3.171   6.154   8.187 -2.8386  0.2214 -1.4582
 4942TIP3   OH236384   4.182   3.132   8.442 -0.9074 -0.1282  0.0309
 4942TIP3    H136385   4.123   3.137   8.517 -2.1236  1.2122 -0.9698
 4942TIP3    H236386   4.187   3.221   8.409  2.4011  0.0216  0.5438
 4943TIP3   OH236387   1.740   3.070   8.146  0.0278  0.0295  0.4741
 4943TIP3    H136388   1.829   3.079   8.178  0.0446 -1.8773  1.0994
 4943TIP3    H236389   1.694   3.023   8.216 -0.9759 -0.6640 -0.6065
 4944TIP3   OH236390   1.781   4.287   6.535 -0.1945 -0.3614  0.1895
 4944TIP3    H136391   1.847   4.258   6.598 -0.2099 -0.3947  0.1901
 4944TIP3    H236392   1.733   4.356   6.580 -0.1447 -0.3204  0.1807
 4945TIP3   OH236393   1.237   1.823   8.029  0.6029 -0.3267  0.0279
 4945TIP3    H136394   1.270   1.734   8.034  1.3697  0.0262  2.7707
 4945TIP3    H236395   1.313   1.877   8.008 -0.1103 -0.3576 -3.0852
 4946TIP3   OH236396   2.337   0.535   1.751  0.2006 -0.1181 -0.4609
 4946TIP3    H136397   2.344   0.443   1.778  0.6154 -0.1910 -0.7960
 4946TIP3    H236398   2.244   0.555   1.757 -0.0420 -0.8864 -1.3971
 4947TIP3   OH236399   1.149   2.243   0.226 -0.2986  0.3449 -0.0573
 4947TIP3    H136400   1.235   2.222   0.262 -0.4833 -1.4764 -0.5824
 4947TIP3    H236401   1.123   2.324   0.270  0.9975  0.0747  1.2524
 4948TIP3   OH236402   3.203   1.892   1.349 -0.4110 -0.4455  0.1615
 4948TIP3    H136403   3.287   1.859   1.316 -0.9826 -2.0660  0.2138
 4948TIP3    H236404   3.188   1.973   1.300  0.8014 -0.5447 -0.4168
 4949TIP3   OH236405   1.869   6.605   1.919  0.7038 -0.3080  0.6481
 4949TIP3    H136406   1.846   6.570   1.833  0.4873  0.1085  0.5334
 4949TIP3    H236407   1.785   6.630   1.958  0.9470  1.7076  0.0192
 4950TIP3   OH236408   4.255   4.991   7.517  0.6397  0.5931 -0.3014
 4950TIP3    H136409   4.214   5.053   7.457  0.3660 -1.1895 -2.0631
 4950TIP3    H236410   4.183   4.956   7.569  0.5421  0.5206 -0.4857
 4951TIP3   OH236411   0.232   1.738   0.945  0.1666  0.1313 -0.1940
 4951TIP3    H136412   0.295   1.707   1.010  0.0008 -1.8423 -0.8923
 4951TIP3    H236413   0.157   1.678   0.954 -1.4179  2.0829  0.2470
 4952TIP3   OH236414   1.595   0.382   8.365 -0.4027 -0.3063  0.1957
 4952TIP3    H136415   1.618   0.291   8.344  1.2618  0.6591 -2.6441
 4952TIP3    H236416   1.679   0.426   8.375 -1.1846  0.8773  2.0515
 4953TIP3   OH236417   5.892   0.463   8.732  0.2475 -0.2586  0.5831
 4953TIP3    H136418   5.971   0.492   8.778  0.3222 -1.5781  1.3424
 4953TIP3    H236419   5.857   0.392   8.786 -0.2666 -1.1459 -0.8412
 4954TIP3   OH236420   2.678   1.976   2.069  0.0121  0.2212  0.3519
 4954TIP3    H136421   2.587   1.951   2.081 -0.6211  1.7782 -0.8282
 4954TIP3    H236422   2.704   1.933   1.987  0.1857  0.1773  0.4293
 4955TIP3   OH236423   6.785   2.600   0.776 -0.4093  0.3742  0.2677
 4955TIP3    H136424   6.851   2.557   0.830 -0.5607 -0.3878 -0.1413
 4955TIP3    H236425   6.769   2.539   0.704 -1.0663  0.8537 -0.0056
 4956TIP3   OH236426   2.216   6.375   7.785 -0.4140  0.1330  0.1190
 4956TIP3    H136427   2.218   6.459   7.831  2.5449 -0.7273  1.8860
 4956TIP3    H236428   2.266   6.392   7.704  0.8874 -0.0334  0.8526
 4957TIP3   OH236429   4.627   4.284   1.034 -0.0641  0.0361 -0.0615
 4957TIP3    H136430   4.685   4.341   1.085 -0.1568 -0.1310  0.2266
 4957TIP3    H236431   4.685   4.245   0.968  0.8169 -2.3971  2.0114
 4958TIP3   OH236432   4.317   3.966   2.015  0.1518  0.4941  0.4611
 4958TIP3    H136433   4.384   4.029   2.042 -0.3285  1.0554  0.3693
 4958TIP3    H236434   4.244   3.982   2.075 -0.7717  1.4707 -0.8462
 4959TIP3   OH236435   5.574   6.323   7.594 -0.9662  0.2094 -0.0484
 4959TIP3    H136436   5.592   6.238   7.553  0.4746 -0.2255  1.3919
 4959TIP3    H236437   5.478   6.330   7.592 -1.0264 -0.2939 -2.3922
 4960TIP3   OH236438   1.437   1.829   8.291 -0.3272  0.1272  0.6451
 4960TIP3    H136439   1.422   1.892   8.221  0.0063 -0.6114 -0.1131
 4960TIP3    H236440   1.485   1.757   8.249  1.2867  0.3649  1.9738
 4961TIP3   OH236441   6.182   2.220   1.504  0.0341  0.2101  0.7227
 4961TIP3    H136442   6.239   2.267   1.565  0.4128 -0.5141  0.9410
 4961TIP3    H236443   6.243   2.171   1.448 -0.2785  1.2440 -0.5730
 4962TIP3   OH236444   1.522   3.102   3.027  0.4543 -0.5914  0.0131
 4962TIP3    H136445   1.573   3.021   3.041  0.8405 -0.5730 -1.1786
 4962TIP3    H236446   1.549   3.132   2.940  0.8589  1.2286  0.7226
 4963TIP3   OH236447   4.361   3.066   8.054  0.3916 -0.6069 -0.2385
 4963TIP3    H136448   4.428   3.043   7.989 -0.1379 -0.6321 -0.7861
 4963TIP3    H236449   4.354   3.162   8.047  0.7561 -0.5475  0.2034
 4964TIP3   OH236450   4.342   1.515   1.363  0.3948  0.6083 -0.2461
 4964TIP3    H136451   4.289   1.552   1.292 -0.8169 -1.6501 -0.6116
 4964TIP3    H236452   4.281   1.506   1.436  0.7835 -0.0899  0.0009
 4965TIP3   OH236453   0.428   2.605   3.197  0.0433  0.1324 -0.4155
 4965TIP3    H136454   0.463   2.578   3.112 -0.7430  1.3741 -1.1725
 4965TIP3    H236455   0.333   2.597   3.188 -0.0615  0.4962  0.2716
 4966TIP3   OH236456   2.310   1.921   0.569 -0.2947  0.3259  0.0105
 4966TIP3    H136457   2.371   1.887   0.634 -0.5120  0.3727  0.2413
 4966TIP3    H236458   2.354   1.999   0.535  0.7475 -0.8158 -1.3830
 4967TIP3   OH236459   2.181   1.397   0.144  0.2366 -0.3174 -0.4586
 4967TIP3    H136460   2.274   1.377   0.160  0.4014 -0.3716 -1.4177
 4967TIP3    H236461   2.179   1.429   0.054 -0.5434  0.6132 -0.1253
 4968TIP3   OH236462   4.022   1.326   2.325  0.0337 -0.3895 -0.6256
 4968TIP3    H136463   3.955   1.355   2.386  0.3444  0.7800 -0.8216
 4968TIP3    H236464   3.978   1.261   2.270 -0.9898  0.4540 -0.8301
 4969TIP3   OH236465   4.081   2.660   1.543 -0.2931  0.2044 -0.1121
 4969TIP3    H136466   4.095   2.690   1.633 -0.0048  0.6689 -0.3079
 4969TIP3    H236467   4.031   2.731   1.502  0.5453  0.5168 -0.6268
 4970TIP3   OH236468   4.659   0.562   2.564 -0.6928 -0.1557 -0.2220
 4970TIP3    H136469   4.693   0.635   2.616 -0.3837 -0.7979  0.4972
 4970TIP3    H236470   4.700   0.573   2.478 -1.5643  1.1755 -0.5048
 4971TIP3   OH236471   5.550   2.748   1.982 -0.2199 -0.2230  0.6855
 4971TIP3    H136472   5.538   2.807   1.907 -1.1786  0.3841  1.2990
 4971TIP3    H236473   5.626   2.783   2.028 -1.8935  1.7523  2.1137
 4972TIP3   OH236474   1.766   6.649   1.028 -0.4098  0.2191  0.1020
 4972TIP3    H136475   1.708   6.585   1.069  0.2441 -0.6285 -0.2648
 4972TIP3    H236476   1.796   6.705   1.100 -0.1487 -0.5508  0.5988
 4973TIP3   OH236477   4.087   1.965   0.449  0.0437 -0.1716  0.2232
 4973TIP3    H136478   4.118   2.023   0.519  0.6083 -0.2110  0.0076
 4973TIP3    H236479   4.153   1.897   0.443  1.5922  1.4007 -2.3240
 4974TIP3   OH236480   0.540   0.768   0.567 -0.5045  0.2803 -0.4173
 4974TIP3    H136481   0.625   0.808   0.548 -0.7214  1.2647  0.5813
 4974TIP3    H236482   0.548   0.679   0.533  0.9248  0.3567 -0.3590
 4975TIP3   OH236483   3.377   5.356   7.780 -0.6686 -0.4714  0.4474
 4975TIP3    H136484   3.413   5.443   7.797  1.6400 -0.5322 -3.1352
 4975TIP3    H236485   3.418   5.300   7.846  1.7014  0.4180 -0.1708
 4976TIP3   OH236486   2.303   5.633   7.089 -0.3840 -0.3834 -0.0968
 4976TIP3    H136487   2.216   5.599   7.069  0.2282 -0.5745 -2.7243
 4976TIP3    H236488   2.286   5.717   7.131 -1.8619 -0.2651 -0.8650
 4977TIP3   OH236489   0.946   5.038   0.343  0.1077 -0.2727  0.0443
 4977TIP3    H136490   0.987   5.100   0.404 -2.5490  0.6662  1.0365
 4977TIP3    H236491   0.942   5.085   0.260  0.1885  0.0035  0.1946
 4978TIP3   OH236492   2.891   1.484   8.680 -0.1795 -0.1148 -0.5945
 4978TIP3    H136493   2.850   1.561   8.639  0.1820  0.3710 -0.0564
 4978TIP3    H236494   2.904   1.423   8.607 -2.3264 -0.5157 -0.7071
 4979TIP3   OH236495   0.643   5.219   1.662  0.2982  0.5343  0.7301
 4979TIP3    H136496   0.591   5.266   1.597  0.1093 -1.3392 -0.5324
 4979TIP3    H236497   0.666   5.137   1.620  3.5283  0.8695  1.5652
 4980TIP3   OH236498   3.825   0.819   7.631  0.4139 -0.5401  0.1999
 4980TIP3    H136499   3.810   0.913   7.623  2.2065 -0.3972 -3.3168
 4980TIP3    H236500   3.907   0.812   7.679 -0.1610 -0.3869  1.2286
 4981TIP3   OH236501   1.510   5.837   0.402  0.0695 -0.7180  0.2919
 4981TIP3    H136502   1.417   5.826   0.422 -0.1105 -1.8324 -0.9688
 4981TIP3    H236503   1.547   5.880   0.479 -1.5755  0.1920  0.6144
 4982TIP3   OH236504   3.276   0.545   7.990 -0.3247  0.7702  0.0980
 4982TIP3    H136505   3.250   0.466   7.943  0.3585  0.9185 -0.5592
 4982TIP3    H236506   3.237   0.536   8.077  1.0288 -1.0424  0.5821
 4983TIP3   OH236507   0.007   0.493   8.287  0.3586 -0.9486  0.2675
 4983TIP3    H136508   0.013   0.587   8.268  1.0525 -0.3442  3.0881
 4983TIP3    H236509  -0.031   0.455   8.207  1.7209  1.4363 -1.6622
 4984TIP3   OH236510   0.061   5.603   1.749  0.2138  0.5893 -0.3260
 4984TIP3    H136511   0.059   5.665   1.821  0.0744  1.1139 -0.7751
 4984TIP3    H236512   0.069   5.517   1.791 -1.1557  0.7737  0.3782
 4985TIP3   OH236513   4.120   4.821   0.770 -0.4074 -0.1653 -0.1288
 4985TIP3    H136514   4.201   4.844   0.726  0.4595 -0.5227  1.2148
 4985TIP3    H236515   4.120   4.725   0.773 -0.5658 -0.1570  0.4056
 4986TIP3   OH236516   5.508   3.714   0.177 -0.1572 -0.0308 -0.3304
 4986TIP3    H136517   5.525   3.787   0.236  2.0480 -1.3728  0.8011
 4986TIP3    H236518   5.422   3.681   0.204 -0.9128  1.7274 -0.4736
 4987TIP3   OH236519   0.625   1.117   3.168 -0.3028  0.1977  0.2969
 4987TIP3    H136520   0.547   1.065   3.186 -0.8079  0.0058 -2.0378
 4987TIP3    H236521   0.695   1.075   3.218 -1.6653  0.4371  2.5017
 4988TIP3   OH236522   3.878   1.152   7.986 -0.5467 -0.4274  0.4882
 4988TIP3    H136523   3.870   1.246   8.001  0.0433 -0.1982 -0.5585
 4988TIP3    H236524   3.914   1.118   8.068 -0.5231  0.3007  0.7844
 4989TIP3   OH236525   0.912   6.276   7.909 -0.3896 -0.0289 -0.5137
 4989TIP3    H136526   0.966   6.205   7.944 -1.2603  0.0666  1.1257
 4989TIP3    H236527   0.969   6.322   7.848  0.7710 -1.0369 -0.2254
 4990TIP3   OH236528   1.183   3.805   0.760 -0.2565  0.5364 -0.3190
 4990TIP3    H136529   1.257   3.838   0.710  1.1926 -0.6614  0.9428
 4990TIP3    H236530   1.155   3.880   0.813  0.7867  0.7297 -0.0098
 4991TIP3   OH236531   1.425   5.104   8.737  0.2934 -0.0770 -0.4098
 4991TIP3    H136532   1.516   5.095   8.767  0.4338 -0.1063 -0.8320
 4991TIP3    H236533   1.410   5.199   8.736  0.3024 -0.0739 -0.2885
 4992TIP3   OH236534   6.791   4.897   8.051 -0.3461 -0.2284  0.4293
 4992TIP3    H136535   6.723   4.830   8.041  1.7839 -3.2876  3.9010
 4992TIP3    H236536   6.753   4.961   8.111 -1.0512 -0.3650  0.1501
 4993TIP3   OH236537   6.735   2.473   1.725  0.2708 -0.6095  0.3907
 4993TIP3    H136538   6.763   2.473   1.634  2.6006  1.7407  0.9456
 4993TIP3    H236539   6.810   2.436   1.773  0.1186  0.4151  1.4945
 4994TIP3   OH236540   5.386   2.619   1.359  0.0754 -0.6625 -0.4799
 4994TIP3    H136541   5.317   2.561   1.393  0.0357 -0.3681 -0.0495
 4994TIP3    H236542   5.432   2.650   1.437 -2.5609  3.2943 -0.2085
 4995TIP3   OH236543   3.749   6.605   1.413  0.3840  0.2542 -0.0800
 4995TIP3    H136544   3.736   6.510   1.406 -1.3563  0.5240 -0.9039
 4995TIP3    H236545   3.722   6.627   1.502  0.8582 -0.0144  0.1370
 4996TIP3   OH236546   3.733   6.501   0.643 -0.2376 -0.2436  0.3276
 4996TIP3    H136547   3.773   6.544   0.567 -1.5592 -0.5862 -0.6126
 4996TIP3    H236548   3.785   6.530   0.718  1.3890 -0.2432 -0.7483
 4997TIP3   OH236549   0.657   3.338   8.469  0.0672  0.3052 -0.2845
 4997TIP3    H136550   0.642   3.387   8.550  1.5803  0.7951 -0.2653
 4997TIP3    H236551   0.747   3.308   8.476  0.2034  0.3079 -1.7583
 4998TIP3   OH236552   1.979   2.949   8.426 -0.4104  0.2052  0.3633
 4998TIP3    H136553   2.051   2.937   8.487  0.2401  0.4416 -0.3308
 4998TIP3    H236554   1.935   2.865   8.422  0.0859 -0.0621  0.4872
 4999TIP3   OH236555   4.496   0.340   7.905  0.7138  0.1592  0.9431
 4999TIP3    H136556   4.550   0.408   7.944  0.7619  0.4603  0.3676
 4999TIP3    H236557   4.409   0.355   7.942  0.9001  0.0003  1.4638
 5000TIP3   OH236558   4.875   2.994   8.725 -0.0049  0.5782  0.1429
 5000TIP3    H136559   4.939   3.065   8.720  1.5496 -0.8356 -1.0936
 5000TIP3    H236560   4.792   3.038   8.744  0.6756  2.8412 -1.6745
 5001TIP3   OH236561   3.793   1.089   7.469 -0.8548  0.5486  0.2623
 5001TIP3    H136562   3.884   1.119   7.474 -0.6143 -0.2467  0.7388
 5001TIP3    H236563   3.790   1.034   7.390 -0.5117 -0.7310  1.1032
 5002TIP3   OH236564   0.714   6.475   2.878  0.0316  0.3695  0.1948
 5002TIP3    H136565   0.645   6.450   2.817 -0.2897 -0.5923  0.9452
 5002TIP3    H236566   0.684   6.444   2.963  1.2344  0.2276  0.5852
 5003TIP3   OH236567   2.315   2.693   1.180  0.1015 -0.0914 -0.3044
 5003TIP3    H136568   2.351   2.625   1.237 -0.7403 -0.2478  0.0585
 5003TIP3    H236569   2.380   2.763   1.181 -0.1213  0.1316  1.2693
 5004TIP3   OH236570   5.526   0.476   1.153 -0.3139  0.2329 -0.2014
 5004TIP3    H136571   5.450   0.421   1.132  0.6242 -0.4973 -1.9035
 5004TIP3    H236572   5.489   0.548   1.204 -1.9576 -0.7220  0.0548
 5005TIP3   OH236573   4.964   1.825   0.076 -0.6784 -0.7540  0.2864
 5005TIP3    H136574   5.057   1.841   0.092 -0.5492  0.1592 -1.1653
 5005TIP3    H236575   4.921   1.855   0.156  0.2947 -1.6062  1.1534
 5006TIP3   OH236576   3.334   3.386   1.590  0.2805  0.3085 -0.2987
 5006TIP3    H136577   3.427   3.409   1.598  0.2271  0.2972  0.4443
 5006TIP3    H236578   3.321   3.316   1.654 -0.0745 -0.2206 -0.9324
 5007TIP3   OH236579   4.814   2.806   1.821 -0.2508  0.0733 -0.2930
 5007TIP3    H136580   4.784   2.732   1.874  0.1856  0.8784  1.1364
 5007TIP3    H236581   4.836   2.873   1.885 -1.4450  1.7729 -1.5885
 5008TIP3   OH236582   2.946   3.348   0.249 -0.0271  0.3251  0.4183
 5008TIP3    H136583   2.975   3.383   0.333 -0.8787  0.1743  0.7817
 5008TIP3    H236584   2.951   3.422   0.189 -0.2300  0.6513  0.8009
 5009TIP3   OH236585   5.067   1.055   3.190 -0.1908 -0.1647 -0.3700
 5009TIP3    H136586   5.060   0.974   3.241 -1.2429 -0.3690 -0.8050
 5009TIP3    H236587   5.024   1.121   3.244  1.8080  0.4479  0.5858
 5010TIP3   OH236588   4.070   2.125   1.734  0.5506  0.8052 -0.3656
 5010TIP3    H136589   4.139   2.166   1.682 -0.0901  0.8167 -1.2200
 5010TIP3    H236590   3.991   2.173   1.711  0.1463  0.3777  0.1282
 5011TIP3   OH236591   0.668   4.735   8.128  0.3265 -0.6180 -0.0144
 5011TIP3    H136592   0.703   4.648   8.106 -0.6500 -1.1828  0.5825
 5011TIP3    H236593   0.677   4.740   8.223  2.5243  0.9198 -0.2193
 5012TIP3   OH236594   0.930   2.066   1.716 -0.4412  0.2029  0.3079
 5012TIP3    H136595   0.879   2.136   1.677 -1.5389 -0.7231  0.0114
 5012TIP3    H236596   0.984   2.033   1.645 -0.3288  0.3837  0.3089
 5013TIP3   OH236597   3.395   6.039   1.212 -0.0090 -0.2651  0.3864
 5013TIP3    H136598   3.428   6.120   1.173  0.7635  0.0499  1.6432
 5013TIP3    H236599   3.474   5.989   1.234 -0.4664 -1.0384  0.2891
 5014TIP3   OH236600   2.857   4.541   7.833 -0.1640  0.2384  0.6350
 5014TIP3    H136601   2.835   4.495   7.914  1.0734  1.7575  1.8840
 5014TIP3    H236602   2.952   4.550   7.835 -0.0171 -0.3008 -1.3643
 5015TIP3   OH236603   6.073   0.593   7.402  0.2279 -0.1270  0.0914
 5015TIP3    H136604   5.986   0.616   7.371 -0.1483 -0.5360  0.8233
 5015TIP3    H236605   6.132   0.649   7.352 -0.4078 -0.2864 -0.8434
 5016TIP3   OH236606   6.105   3.604   1.853 -0.0026 -0.4913 -0.2782
 5016TIP3    H136607   6.033   3.566   1.803 -0.8416  0.0731  0.4567
 5016TIP3    H236608   6.104   3.557   1.936  0.4620 -0.4658 -0.2569
 5017TIP3   OH236609   5.697   2.297   8.064 -0.1992  0.2306  0.3135
 5017TIP3    H136610   5.686   2.225   8.127  2.1558 -0.1085  0.4107
 5017TIP3    H236611   5.702   2.255   7.979  0.1200  0.3655  0.2624
 5018TIP3   OH236612   1.742   4.884   0.947  0.2349  0.4273  0.0960
 5018TIP3    H136613   1.770   4.810   1.000 -0.0661  1.1259  1.2589
 5018TIP3    H236614   1.767   4.860   0.857 -1.4499 -1.8473  0.1635
 5019TIP3   OH236615   4.710   2.238   0.639 -0.3675  0.4554  0.2260
 5019TIP3    H136616   4.690   2.148   0.663 -0.2080  0.8891  2.0828
 5019TIP3    H236617   4.782   2.264   0.696  0.7196  1.2610 -1.4088
 5020TIP3   OH236618   5.457   6.372   1.547 -0.1170 -0.1085 -0.2023
 5020TIP3    H136619   5.524   6.305   1.564  0.1079  0.3187  0.6738
 5020TIP3    H236620   5.377   6.322   1.534  0.5354 -0.6879 -2.3064
 5021TIP3   OH236621   2.846   3.728   8.383  0.2082  0.0588 -0.3572
 5021TIP3    H136622   2.795   3.686   8.452 -0.7445  1.5901 -0.0709
 5021TIP3    H236623   2.937   3.720   8.411 -0.2091  1.5427  1.6610
 5022TIP3   OH236624   6.117   0.779   2.227  0.5926  0.0263  0.4022
 5022TIP3    H136625   6.122   0.802   2.134 -0.2636  1.9783  0.7884
 5022TIP3    H236626   6.208   0.778   2.256  0.7853  1.3942 -0.0560
 5023TIP3   OH236627   0.210   4.668   7.489 -0.4842  0.0894  0.4333
 5023TIP3    H136628   0.229   4.653   7.582 -0.3203 -0.9919  0.2423
 5023TIP3    H236629   0.212   4.580   7.450 -0.0608  0.5795 -0.6810
 5024TIP3   OH236630   4.592   6.786   0.721 -0.3318 -0.2735 -0.5740
 5024TIP3    H136631   4.530   6.752   0.785  0.1473  0.6591  0.4097
 5024TIP3    H236632   4.644   6.850   0.769  0.5368 -0.0916 -1.7091
 5025TIP3   OH236633   0.757   2.852   7.031 -0.8790  0.3703  0.2278
 5025TIP3    H136634   0.812   2.844   7.109  0.3553  0.9989 -0.5394
 5025TIP3    H236635   0.789   2.785   6.972  0.1712  1.7685 -0.8426
 5026TIP3   OH236636   1.825   4.413   8.527 -0.2413  0.1792 -0.3596
 5026TIP3    H136637   1.813   4.507   8.543 -1.0390  0.5148 -2.5122
 5026TIP3    H236638   1.744   4.373   8.560  0.6292  0.0127  1.7449
 5027TIP3   OH236639   4.221   1.137   2.330  0.2747  0.2942  0.4590
 5027TIP3    H136640   4.190   1.054   2.366 -0.0429 -0.0450 -0.5591
 5027TIP3    H236641   4.144   1.195   2.333  0.4037  0.4538  0.8417
 5028TIP3   OH236642   3.791   0.498   1.788 -0.1125  0.2022  0.0276
 5028TIP3    H136643   3.781   0.553   1.710  1.0390 -1.4187 -1.3352
 5028TIP3    H236644   3.855   0.431   1.762  0.0085 -0.6278  2.2510
 5029TIP3   OH236645   5.245   5.652   0.592 -0.8296 -0.1402 -0.1760
 5029TIP3    H136646   5.266   5.575   0.540 -0.6918  0.1236 -0.5135
 5029TIP3    H236647   5.275   5.726   0.539 -0.3954  0.1177  0.4220
 5030TIP3   OH236648   1.745   2.213   7.963 -0.5225 -0.3233  0.3560
 5030TIP3    H136649   1.686   2.178   7.897  0.3439 -2.5464  0.6965
 5030TIP3    H236650   1.742   2.308   7.950 -1.3312 -0.6170 -2.0266
 5031TIP3   OH236651   5.931   4.909   3.058  0.2674  0.1299  0.4728
 5031TIP3    H136652   5.974   4.938   2.977  0.8108 -1.0833  0.3032
 5031TIP3    H236653   5.891   4.825   3.035 -1.0974  0.6109  0.9980
 5032TIP3   OH236654   2.247   4.861   1.275  0.0095  0.0520  0.0913
 5032TIP3    H136655   2.342   4.859   1.265  0.2937  0.1296  2.1726
 5032TIP3    H236656   2.218   4.773   1.253  0.6172 -0.0653 -0.2506
 5033TIP3   OH236657   1.711   0.059   0.232  0.3475 -0.2774 -0.0703
 5033TIP3    H136658   1.709   0.142   0.184 -3.3510  0.2082  0.6702
 5033TIP3    H236659   1.702   0.084   0.324 -2.1120 -1.4586  0.0821
 5034TIP3   OH236660   1.527   4.180   0.894 -0.0066 -0.2587  0.4018
 5034TIP3    H136661   1.521   4.270   0.925 -0.7391 -0.0511 -0.2995
 5034TIP3    H236662   1.496   4.127   0.969  0.4833  0.0588  0.8337
 5035TIP3   OH236663   5.404   1.845   2.753 -0.1947  0.1298  0.1982
 5035TIP3    H136664   5.469   1.825   2.820 -1.3964 -0.0309  1.3620
 5035TIP3    H236665   5.384   1.938   2.768  1.1532  0.7201 -1.4219
 5036TIP3   OH236666   3.669   5.536   8.664 -0.5206  0.0801 -0.4605
 5036TIP3    H136667   3.713   5.549   8.581  0.1154  1.0306  0.0178
 5036TIP3    H236668   3.645   5.624   8.694 -0.7128 -0.2398  0.3770
 5037TIP3   OH236669   2.609   5.924   2.307  0.3071  0.2879 -0.2999
 5037TIP3    H136670   2.592   5.846   2.255  1.6521 -0.3046  0.1266
 5037TIP3    H236671   2.628   5.892   2.395  1.6663  1.0077 -0.2954
 5038TIP3   OH236672   2.592   2.259   7.886  0.0057  0.0851  0.2026
 5038TIP3    H136673   2.680   2.224   7.875 -0.4693 -0.6315 -1.7876
 5038TIP3    H236674   2.535   2.182   7.886 -0.5933  0.4115  2.9152
 5039TIP3   OH236675   6.604   4.562   7.842 -0.4176 -0.0890  0.5723
 5039TIP3    H136676   6.652   4.485   7.873 -1.1453 -0.3909  0.9709
 5039TIP3    H236677   6.520   4.528   7.813 -0.8523  0.5896  1.0143
 5040TIP3   OH236678   4.369   2.366   1.105  0.0978  0.0993 -0.2663
 5040TIP3    H136679   4.370   2.290   1.164 -0.2392 -1.9445 -2.7486
 5040TIP3    H236680   4.431   2.344   1.036  0.1003  2.1696 -0.9828
 5041TIP3   OH236681   0.131   5.266   0.890 -0.5387 -0.4980  0.3286
 5041TIP3    H136682   0.189   5.208   0.842 -0.1753 -0.6613  0.9507
 5041TIP3    H236683   0.176   5.351   0.890 -1.2386 -0.0925 -0.8974
 5042TIP3   OH236684   1.307   5.546   2.586  0.9767 -0.3476  0.1842
 5042TIP3    H136685   1.400   5.562   2.597  1.1405 -0.9986 -0.1815
 5042TIP3    H236686   1.295   5.453   2.609  0.2553 -0.0306  1.1629
 5043TIP3   OH236687   2.041   5.304   1.998 -0.0942  0.5107 -0.3782
 5043TIP3    H136688   1.949   5.328   2.009 -0.6413 -1.5816  0.1339
 5043TIP3    H236689   2.090   5.379   2.031 -1.6320  1.3258  0.1334
 5044TIP3   OH236690   1.317   1.762   0.003 -0.2226  0.1183 -0.0645
 5044TIP3    H136691   1.271   1.793   0.081 -1.8810 -0.4039 -0.7848
 5044TIP3    H236692   1.384   1.829  -0.013  0.7287 -0.1597  2.2319
 5045TIP3   OH236693   3.048   1.812   8.217 -0.2567 -1.1018  0.3896
 5045TIP3    H136694   3.028   1.770   8.133  0.9910  0.1583 -0.5750
 5045TIP3    H236695   3.067   1.903   8.195  2.3596 -1.2312  1.6822
 5046TIP3   OH236696   1.432   6.824   1.707  0.2826  0.2394  0.7330
 5046TIP3    H136697   1.426   6.916   1.732 -0.6487 -0.2574  2.5005
 5046TIP3    H236698   1.520   6.798   1.734 -0.3919 -0.0499  2.8643
 5047TIP3   OH236699   1.695   6.779   1.742 -0.3567  0.2645 -0.3804
 5047TIP3    H136700   1.779   6.753   1.703 -0.4098  0.3519 -0.5525
 5047TIP3    H236701   1.720   6.834   1.816 -0.1234 -2.5433  1.7811
 5048TIP3   OH236702   2.956   2.718   2.286 -0.2552  0.1255  0.5423
 5048TIP3    H136703   2.967   2.662   2.209 -0.0929 -1.8974  1.9503
 5048TIP3    H236704   2.869   2.757   2.274 -0.7803 -1.1504 -0.0789
 5049TIP3   OH236705   1.715   6.439   1.230  0.0595 -0.1703 -0.4828
 5049TIP3    H136706   1.769   6.374   1.187 -0.3707 -0.7877 -0.1081
 5049TIP3    H236707   1.712   6.411   1.322 -1.5102 -0.6018 -0.6353
 5050TIP3   OH236708   5.910   1.887   1.909  0.3282  0.6583 -0.0793
 5050TIP3    H136709   5.845   1.818   1.892  0.9496  0.0426 -0.0030
 5050TIP3    H236710   5.989   1.857   1.863  0.5061  1.4850 -0.3156
 5051TIP3   OH236711   1.397   3.535   1.400  0.6363  0.0784  0.0589
 5051TIP3    H136712   1.309   3.529   1.362  0.9488 -0.3931 -0.6080
 5051TIP3    H236713   1.453   3.564   1.328  0.7986  1.8240  0.8403
 5052TIP3   OH236714   1.029   2.227   2.732 -0.5413  0.0381  0.2191
 5052TIP3    H136715   0.959   2.275   2.688 -1.4180 -0.7608  0.7026
 5052TIP3    H236716   1.043   2.277   2.813 -0.8444 -0.0204  0.3121
 5053TIP3   OH236717   4.129   2.543   2.471  0.1443 -0.0303 -0.1100
 5053TIP3    H136718   4.056   2.504   2.519 -0.2911  1.0068  0.1204
 5053TIP3    H236719   4.189   2.573   2.539 -0.6591  1.7960 -0.1327
 5054TIP3   OH236720   4.432   5.739   0.035  0.2294 -0.4098 -0.0923
 5054TIP3    H136721   4.394   5.732  -0.053 -0.6041  0.1207  0.2159
 5054TIP3    H236722   4.498   5.808   0.027  1.1236 -1.3139 -0.6237
 5055TIP3   OH236723   6.488   0.581   2.538  0.4467 -0.5844 -0.0426
 5055TIP3    H136724   6.481   0.546   2.627 -1.3147  1.1060  0.5589
 5055TIP3    H236725   6.426   0.529   2.487 -1.1585  0.6744  0.5469
 5056TIP3   OH236726   4.789   5.021   1.673 -0.0070 -0.4309 -1.1777
 5056TIP3    H136727   4.771   4.972   1.592  0.8874  0.0756 -1.6937
 5056TIP3    H236728   4.871   4.985   1.705 -1.0447 -1.6201  0.3045
 5057TIP3   OH236729   2.118   6.014   1.254  0.2601 -0.0251 -0.4368
 5057TIP3    H136730   2.073   6.050   1.177 -0.2581 -1.2567 -0.7385
 5057TIP3    H236731   2.141   5.924   1.229  0.3169 -0.3640  0.7560
 5058TIP3   OH236732   0.611   1.059   2.258 -0.2397 -0.2086 -0.3221
 5058TIP3    H136733   0.623   1.153   2.240  2.2191 -0.3984  0.0308
 5058TIP3    H236734   0.573   1.056   2.346 -1.6716  0.4564 -0.8894
 5059TIP3   OH236735   3.707   4.577   8.329  0.1535 -0.8228  0.2752
 5059TIP3    H136736   3.720   4.497   8.277  0.2950  0.1886 -1.3276
 5059TIP3    H236737   3.656   4.634   8.272  0.1591  0.2906  1.3484
 5060TIP3   OH236738   5.629   5.448   1.234 -0.0289 -0.3298 -0.6597
 5060TIP3    H136739   5.549   5.478   1.190  0.2644  0.2925 -0.7817
 5060TIP3    H236740   5.603   5.440   1.326  0.5886  3.2240 -0.0340
 5061TIP3   OH236741   4.060   6.297   1.646  0.3070 -0.0571  0.2349
 5061TIP3    H136742   3.986   6.338   1.691  0.5382  1.2553 -0.5042
 5061TIP3    H236743   4.050   6.204   1.663  0.4269  0.3593  3.0344
 5062TIP3   OH236744   1.808   0.979   1.355  0.6089  0.6236  0.0204
 5062TIP3    H136745   1.798   0.884   1.343  1.9581 -0.4560  5.2692
 5062TIP3    H236746   1.897   0.998   1.325  1.3227 -0.4078  1.3835
 5063TIP3   OH236747   2.424   1.137   2.236 -0.0232  0.4346  0.2231
 5063TIP3    H136748   2.512   1.163   2.210 -0.8193  1.1562 -1.9473
 5063TIP3    H236749   2.415   1.170   2.326  1.2314  2.0245 -0.1980
 5064TIP3   OH236750   6.612   4.734   0.135  0.3424  0.3221  0.4624
 5064TIP3    H136751   6.589   4.767   0.221  3.7402  0.1018  1.6031
 5064TIP3    H236752   6.631   4.812   0.083 -0.9911  0.4260  0.1032
 5065TIP3   OH236753   2.444   0.742   8.181  0.4152 -0.5971 -0.3699
 5065TIP3    H136754   2.431   0.680   8.252  1.8001 -0.6165 -0.1059
 5065TIP3    H236755   2.529   0.783   8.199  0.3388  0.1101 -1.4747
 5066TIP3   OH236756   6.591   6.513   8.334 -0.1059  0.1061  0.9304
 5066TIP3    H136757   6.631   6.458   8.401 -0.3246  1.1329  1.9402
 5066TIP3    H236758   6.535   6.574   8.383 -0.0253  1.0969 -0.1535
 5067TIP3   OH236759   0.866   4.963   8.520 -0.5805 -0.2031 -0.4636
 5067TIP3    H136760   0.873   4.925   8.607 -0.4291 -0.1008 -0.4310
 5067TIP3    H236761   0.843   5.055   8.536  1.1102  0.2613 -0.4701
 5068TIP3   OH236762   4.509   6.262   0.844 -0.3336  0.3864  0.6190
 5068TIP3    H136763   4.463   6.232   0.765  1.5906  1.7842 -1.1394
 5068TIP3    H236764   4.465   6.344   0.867  0.8193  1.4166 -0.7082
 5069TIP3   OH236765   4.930   0.480   0.905  0.1727  0.6560 -0.4055
 5069TIP3    H136766   4.893   0.569   0.904 -1.2495  0.0983 -1.9867
 5069TIP3    H236767   4.998   0.481   0.838 -0.5013  0.3140 -1.1075
 5070TIP3   OH236768   3.866   3.194   1.611  0.0438 -0.5672  0.1258
 5070TIP3    H136769   3.907   3.152   1.686  1.0578  1.4120  0.7760
 5070TIP3    H236770   3.940   3.218   1.554 -0.4648  0.2952 -0.1989
 5071TIP3   OH236771   6.341   4.998   8.724 -0.5997 -0.3773 -0.5409
 5071TIP3    H136772   6.291   4.918   8.742 -0.8612 -0.3343 -1.0537
 5071TIP3    H236773   6.285   5.069   8.754  0.0508 -0.4201  0.8469
 5072TIP3   OH236774   5.863   1.660   2.780  0.1731  0.2573  0.1413
 5072TIP3    H136775   5.831   1.666   2.870 -0.1284  2.3706 -0.0533
 5072TIP3    H236776   5.909   1.576   2.776 -2.0979 -1.1485  1.4786
 5073TIP3   OH236777   6.357   1.308   1.323 -0.2052 -0.8605  0.1751
 5073TIP3    H136778   6.296   1.369   1.280  0.2342 -0.6469 -0.1559
 5073TIP3    H236779   6.432   1.363   1.348 -0.2320 -1.0837  0.7534
 5074TIP3   OH236780   1.955   6.224   1.936  0.1658  0.0952  0.5596
 5074TIP3    H136781   1.977   6.136   1.964  0.8773  0.6373  1.7960
 5074TIP3    H236782   2.037   6.274   1.946 -0.4973  1.1416  0.9912
 5075TIP3   OH236783   1.284   3.303   1.181 -0.2590 -0.6085 -0.3566
 5075TIP3    H136784   1.241   3.370   1.129  0.3442  0.0807  0.0212
 5075TIP3    H236785   1.369   3.290   1.139 -1.0282 -2.4184 -1.4829
 5076TIP3   OH236786   1.577   2.913   8.338 -0.0836  0.0012  0.5344
 5076TIP3    H136787   1.530   2.842   8.294  0.4648  1.3016 -2.3919
 5076TIP3    H236788   1.525   2.931   8.417 -2.7459 -0.7117 -0.9362
 5077TIP3   OH236789   4.437   0.986   7.047 -0.4170  0.2979  0.0863
 5077TIP3    H136790   4.484   1.022   7.123  2.0104 -0.2810 -1.0154
 5077TIP3    H236791   4.381   0.918   7.082 -0.2407  0.8465  1.4841
 5078TIP3   OH236792   0.573   1.539   1.298 -0.2680 -0.0593  0.2184
 5078TIP3    H136793   0.563   1.527   1.393 -2.4924  0.4987  0.1065
 5078TIP3    H236794   0.535   1.625   1.281 -0.2032 -0.2978 -1.2142
 5079TIP3   OH236795   6.617   6.833   0.081 -0.6019 -0.6136 -0.1697
 5079TIP3    H136796   6.599   6.903   0.018  0.8302  2.0542  2.1568
 5079TIP3    H236797   6.568   6.859   0.160 -0.2692 -2.4289  0.6810
 5080TIP3   OH236798   3.636   3.044   2.967  0.2594  0.0675 -0.2875
 5080TIP3    H136799   3.674   3.125   2.935  0.1820  0.2531  0.0847
 5080TIP3    H236800   3.695   2.976   2.935  0.7955  0.3394  0.1035
 5081TIP3   OH236801   6.542   5.641   1.334 -0.3670  0.4096  0.1674
 5081TIP3    H136802   6.573   5.575   1.396 -1.1078  1.2023  1.4277
 5081TIP3    H236803   6.540   5.596   1.249 -1.0508 -1.2572  1.0285
 5082TIP3   OH236804   3.544   2.629   1.630 -0.4074 -0.0211 -0.0185
 5082TIP3    H136805   3.462   2.636   1.679  0.3119  1.6539  1.0515
 5082TIP3    H236806   3.611   2.623   1.698  0.4314 -0.4077 -0.8719
 5083TIP3   OH236807   0.442   3.016   8.385 -0.0903 -0.2744 -0.3758
 5083TIP3    H136808   0.354   2.985   8.364  0.2957 -0.5924 -1.5858
 5083TIP3    H236809   0.434   3.050   8.474 -1.3088 -0.7885 -0.2619
 5084TIP3   OH236810   2.953   1.408   0.516  0.4962  0.0100 -0.6231
 5084TIP3    H136811   2.940   1.387   0.608 -0.5742  1.1570 -0.4887
 5084TIP3    H236812   2.974   1.323   0.475  1.9277 -0.3727  0.7879
 5085TIP3   OH236813   1.033   1.628   8.716 -0.0887 -0.3382  0.1606
 5085TIP3    H136814   1.007   1.713   8.750  1.8299 -0.3096  1.7478
 5085TIP3    H236815   1.048   1.574   8.794  1.6315 -1.1938 -0.6900
 5086TIP3   OH236816   6.386   4.866   0.546  0.3762  0.6031 -0.7759
 5086TIP3    H136817   6.293   4.890   0.548  0.0985 -0.4608  0.4234
 5086TIP3    H236818   6.431   4.944   0.579 -0.5141 -0.3793  3.2988
 5087TIP3   OH236819   3.063   6.079   0.123 -0.6060 -0.1814 -0.5472
 5087TIP3    H136820   3.142   6.126   0.150 -1.2067  1.4381 -1.4421
 5087TIP3    H236821   3.047   6.017   0.193 -0.4485  1.8196  1.3868
 5088TIP3   OH236822   1.621   2.424   8.407  0.4590  0.0803 -0.0656
 5088TIP3    H136823   1.555   2.491   8.424  1.8286  1.4432  0.0910
 5088TIP3    H236824   1.583   2.343   8.443 -0.1206  1.2685  2.1816
 5089TIP3   OH236825   0.809   3.331   1.921  0.4222 -0.1301 -0.4981
 5089TIP3    H136826   0.875   3.379   1.972  0.2725 -0.5464  0.0973
 5089TIP3    H236827   0.726   3.370   1.946  0.3815 -0.0387 -0.7672
 5090TIP3   OH236828   0.436   6.224   8.184 -0.7547  0.6091 -0.3530
 5090TIP3    H136829   0.361   6.269   8.224 -1.7507 -0.8842 -0.4171
 5090TIP3    H236830   0.425   6.133   8.212 -0.7040 -0.2369 -2.8881
 5091TIP3   OH236831   0.786   0.421   2.829  0.4791  0.2130  0.0370
 5091TIP3    H136832   0.718   0.362   2.795  1.0711  0.5157 -1.7842
 5091TIP3    H236833   0.737   0.495   2.865 -0.2320 -0.8939  1.4681
 5092TIP3   OH236834   4.381   4.888   1.244  0.0414 -0.3312  0.5832
 5092TIP3    H136835   4.328   4.863   1.168  0.0513  0.2627  0.3664
 5092TIP3    H236836   4.334   4.854   1.319 -0.1603 -0.6145  0.3311
 5093TIP3   OH236837   2.452   0.481   0.722 -0.3682  0.1338  0.0919
 5093TIP3    H136838   2.357   0.487   0.707 -0.2481 -0.5063 -1.0832
 5093TIP3    H236839   2.486   0.446   0.640  0.7751 -0.6245  0.8676
 5094TIP3   OH236840   5.557   3.087   8.314  0.3268 -0.3888 -0.0528
 5094TIP3    H136841   5.537   3.125   8.400 -2.4766  0.2236 -0.8613
 5094TIP3    H236842   5.582   3.162   8.260  0.9918 -0.6088 -0.0481
 5095TIP3   OH236843   3.469   4.924   0.487 -0.1519 -0.0708  0.1906
 5095TIP3    H136844   3.427   4.968   0.413 -0.0277  0.0575  0.1958
 5095TIP3    H236845   3.533   4.865   0.447 -1.0335 -1.0136  0.1406
 5096TIP3   OH236846   2.251   1.158   1.046 -0.1495  0.1297  0.3912
 5096TIP3    H136847   2.245   1.065   1.069 -0.8916  0.2999  0.9182
 5096TIP3    H236848   2.306   1.197   1.114  1.6545 -0.2285 -0.8072
 5097TIP3   OH236849   5.117   6.659   7.603  0.4118 -0.0262  0.3645
 5097TIP3    H136850   5.083   6.654   7.692 -1.6667 -1.1812 -0.4213
 5097TIP3    H236851   5.082   6.741   7.569 -1.3805 -1.0116 -0.3050
 5098TIP3   OH236852   0.726   0.439   3.205  0.0688  0.2695 -0.1460
 5098TIP3    H136853   0.693   0.487   3.129 -0.0103  1.1075  0.4058
 5098TIP3    H236854   0.651   0.435   3.264 -0.0532 -0.9241 -0.3561
 5099TIP3   OH236855   4.141   2.732   7.020 -0.0084 -0.0445  0.3456
 5099TIP3    H136856   4.118   2.784   7.097  1.4199 -0.1758  0.8821
 5099TIP3    H236857   4.136   2.641   7.051 -0.2866 -0.1398  0.0298
 5100TIP3   OH236858   1.745   2.270   0.816  0.1509  0.1066 -0.0674
 5100TIP3    H136859   1.787   2.190   0.846  0.8024  0.1461 -0.8417
 5100TIP3    H236860   1.722   2.317   0.896 -0.7857 -1.1209  0.4138
 5101TIP3   OH236861   3.710   1.574   8.213 -0.3901 -0.3322  0.0050
 5101TIP3    H136862   3.673   1.597   8.298  0.9216 -0.0833  0.5453
 5101TIP3    H236863   3.635   1.552   8.159 -1.2544 -0.5019  1.2284
 5102TIP3   OH236864   6.283   3.102   3.295  0.3576  0.0025  0.6733
 5102TIP3    H136865   6.308   3.023   3.344  1.9885 -0.5780 -0.9328
 5102TIP3    H236866   6.306   3.175   3.352  4.0523 -0.5762  0.1953
 5103TIP3   OH236867   2.024   5.952   7.335  0.2631  0.0634  0.3329
 5103TIP3    H136868   2.085   5.882   7.311  0.1614  0.3926 -0.9459
 5103TIP3    H236869   2.060   6.031   7.296 -1.2305  0.1730 -0.9385
 5104TIP3   OH236870   2.870   2.213   2.563  0.5886 -0.1983  0.2412
 5104TIP3    H136871   2.853   2.231   2.656  1.2191 -0.3028  0.3790
 5104TIP3    H236872   2.961   2.185   2.560  0.2070 -1.4561 -0.2369
 5105TIP3   OH236873   3.432   5.964   0.179  0.0021 -0.6270 -0.0598
 5105TIP3    H136874   3.414   5.885   0.230  0.0975  0.6263  2.0436
 5105TIP3    H236875   3.482   6.020   0.239 -0.2882  1.1348 -1.3876
 5106TIP3   OH236876   3.379   4.008   0.746 -0.1967 -0.4914  0.0610
 5106TIP3    H136877   3.306   4.034   0.689  1.0688 -1.7041 -2.2959
 5106TIP3    H236878   3.449   4.069   0.725  0.1697 -0.7128  0.6295
 5107TIP3   OH236879   4.538   6.199   1.958  0.3578  0.2382  0.4996
 5107TIP3    H136880   4.489   6.280   1.965  1.8696  1.3300 -0.7219
 5107TIP3    H236881   4.601   6.215   1.887 -0.5344 -2.6536 -1.1500
 5108TIP3   OH236882   3.213   5.609   0.086  0.0258 -0.2733  0.2792
 5108TIP3    H136883   3.242   5.565   0.166  1.8850 -1.0367 -0.7329
 5108TIP3    H236884   3.234   5.547   0.016 -2.5374 -0.0961 -0.7717
 5109TIP3   OH236885   2.734   0.582   8.470 -0.0960  0.5458  0.2220
 5109TIP3    H136886   2.646   0.591   8.433 -0.0090 -1.1699 -0.5258
 5109TIP3    H236887   2.730   0.628   8.553 -1.7245  0.4694  0.2209
 5110TIP3   OH236888   3.055   4.181   8.200 -0.2794 -0.1854  0.5326
 5110TIP3    H136889   2.986   4.224   8.251  0.5321  0.6299  0.9709
 5110TIP3    H236890   3.087   4.249   8.140  0.4019 -0.4370  0.6039
 5111TIP3   OH236891   0.444   5.248   0.467  0.1506  0.2821 -0.3896
 5111TIP3    H136892   0.532   5.221   0.441  0.2785  0.5476 -0.2355
 5111TIP3    H236893   0.413   5.177   0.524  0.5653  0.5472  0.1822
 5112TIP3   OH236894   3.711   0.176   8.696 -0.4401 -0.3243 -0.5025
 5112TIP3    H136895   3.655   0.210   8.627 -0.0769  0.8214 -0.2639
 5112TIP3    H236896   3.663   0.193   8.777 -0.2292 -0.3221 -0.3763
 5113TIP3   OH236897   2.264   3.305   7.628 -0.5653  0.1489 -0.5018
 5113TIP3    H136898   2.242   3.298   7.720 -1.2443  0.5091 -0.6348
 5113TIP3    H236899   2.350   3.264   7.621 -0.4901  0.1581  0.2954
 5114TIP3   OH236900   2.430   1.906   2.503  0.0382 -0.1547  0.6919
 5114TIP3    H136901   2.472   1.962   2.568  1.0726 -0.3453  0.2023
 5114TIP3    H236902   2.438   1.954   2.421 -1.8585  0.3958  0.7889
 5115TIP3   OH236903   5.364   5.746   0.945  0.0583 -0.1056  0.0680
 5115TIP3    H136904   5.450   5.714   0.915 -0.4497  0.1483 -1.8048
 5115TIP3    H236905   5.383   5.791   1.027  1.6978 -0.2263 -0.2061
 5116TIP3   OH236906   5.753   5.821   1.664 -0.5305  0.1763 -0.2743
 5116TIP3    H136907   5.828   5.836   1.606 -0.3339  0.0675 -0.0477
 5116TIP3    H236908   5.692   5.770   1.612  0.5726 -1.8251  0.3183
 5117TIP3   OH236909   2.693   0.253   8.572 -0.3284  0.1213 -0.4380
 5117TIP3    H136910   2.718   0.316   8.505  1.1333  0.8904  0.7681
 5117TIP3    H236911   2.672   0.173   8.524  0.7108  0.6432 -1.8080
 5118TIP3   OH236912   1.996   3.634   2.932  0.3709 -0.2770 -0.3943
 5118TIP3    H136913   1.966   3.544   2.925  0.0848 -0.2428  0.3119
 5118TIP3    H236914   1.933   3.676   2.990  1.2464  0.0336  0.3466
 5119TIP3   OH236915   4.079   6.497   7.951 -0.3778 -0.0186 -0.7090
 5119TIP3    H136916   3.993   6.508   7.911 -1.0954 -2.5081 -0.0073
 5119TIP3    H236917   4.065   6.508   8.045  0.0312 -0.5809 -0.5739
 5120TIP3   OH236918   1.280   0.696   8.548  0.7646 -0.1164 -0.3383
 5120TIP3    H136919   1.275   0.713   8.642  2.6117  0.7332 -0.3663
 5120TIP3    H236920   1.346   0.627   8.539 -1.0792 -1.9276 -0.8758
 5121TIP3   OH236921   1.306   3.771   7.812 -0.7019 -0.2838  0.3092
 5121TIP3    H136922   1.231   3.762   7.871  0.1573  0.2666  1.5502
 5121TIP3    H236923   1.351   3.850   7.843 -0.9765  0.8667 -2.0208
 5122TIP3   OH236924   1.667   4.660   3.204  0.3280  0.5434  0.6335
 5122TIP3    H136925   1.578   4.659   3.168 -0.3302 -0.6608  2.1867
 5122TIP3    H236926   1.702   4.745   3.179 -1.1443  0.9101 -0.2892
 5123TIP3   OH236927   0.748   6.089   1.919  0.6302 -0.3037 -0.1802
 5123TIP3    H136928   0.665   6.052   1.890  1.2364 -2.1417  0.3154
 5123TIP3    H236929   0.813   6.024   1.895  1.7634  0.4897  0.6506
 5124TIP3   OH236930   2.593   1.769   8.105  0.2263  0.1823 -0.2323
 5124TIP3    H136931   2.528   1.762   8.036 -0.0845  1.1389 -0.0580
 5124TIP3    H236932   2.541   1.779   8.185  0.5750 -1.2175  0.1950
 5125TIP3   OH236933   1.711   3.045   6.445 -0.1131 -0.4490 -0.0866
 5125TIP3    H136934   1.622   3.041   6.480  0.4298 -0.8342  1.3144
 5125TIP3    H236935   1.736   2.953   6.434 -0.4875 -0.3556 -2.1593
 5126TIP3   OH236936   1.373   3.237   1.711  0.2459  0.0456  0.8808
 5126TIP3    H136937   1.429   3.192   1.775  0.5968 -2.3180 -0.9174
 5126TIP3    H236938   1.284   3.216   1.739  0.4012 -1.3581  0.4297
 5127TIP3   OH236939   0.174   6.353   8.255 -0.4519  0.0845 -0.0245
 5127TIP3    H136940   0.118   6.395   8.190 -0.5408 -0.8440 -0.5565
 5127TIP3    H236941   0.115   6.295   8.303 -0.2562  0.2856  0.4666
 5128TIP3   OH236942   1.260   6.292   0.729 -0.1113  0.1909 -0.6405
 5128TIP3    H136943   1.286   6.244   0.650 -2.3293  0.6658 -1.7251
 5128TIP3    H236944   1.251   6.225   0.796 -1.9224 -0.8126 -1.8124
 5129TIP3   OH236945   5.435   5.653   0.305  0.0410 -0.7609  0.7853
 5129TIP3    H136946   5.341   5.641   0.295 -0.1219 -0.8225  2.1594
 5129TIP3    H236947   5.459   5.716   0.238 -0.7316 -1.7577 -0.4585
 5130TIP3   OH236948   1.377   6.751   8.157 -0.3351 -0.1898  0.3094
 5130TIP3    H136949   1.429   6.747   8.077 -0.3855  0.3158  0.2475
 5130TIP3    H236950   1.287   6.734   8.128 -0.2945 -0.4341  0.3235
 5131TIP3   OH236951   0.518   0.772   2.172  0.0635 -0.1690 -0.4877
 5131TIP3    H136952   0.427   0.801   2.159  0.0221 -0.8203 -1.8613
 5131TIP3    H236953   0.570   0.852   2.169 -0.0997 -0.0649 -3.6315
 5132TIP3   OH236954   3.358   2.968   7.108 -0.3292  1.0116 -0.6455
 5132TIP3    H136955   3.322   2.887   7.143 -1.3635  0.7268 -2.2441
 5132TIP3    H236956   3.453   2.953   7.108 -0.4986 -0.2029 -0.8837
 5133TIP3   OH236957   5.048   3.791   2.214  0.1696 -0.7087  0.1043
 5133TIP3    H136958   5.069   3.825   2.301  0.0565  1.0146 -0.5152
 5133TIP3    H236959   4.953   3.798   2.208  0.1986 -0.5982 -0.2455
 5134TIP3   OH236960   5.352   3.839   8.064 -0.9061 -0.0988  0.4460
 5134TIP3    H136961   5.261   3.854   8.089 -0.7015  2.0071  0.1294
 5134TIP3    H236962   5.399   3.915   8.099  0.5412 -0.6019 -0.3391
 5135TIP3   OH236963   0.310   5.454   1.305 -0.0367  0.2413  1.3037
 5135TIP3    H136964   0.265   5.440   1.388  0.1286 -0.2987  1.3010
 5135TIP3    H236965   0.299   5.372   1.257  0.8239  0.1511  1.2435
 5136TIP3   OH236966   5.199   5.527   1.372 -0.2477  0.0221 -0.2715
 5136TIP3    H136967   5.217   5.449   1.320 -1.5221 -0.9461  0.6765
 5136TIP3    H236968   5.162   5.493   1.454  0.0240  1.5818  0.5334
 5137TIP3   OH236969   3.183   5.037   0.714 -0.0709 -0.1435  0.0861
 5137TIP3    H136970   3.206   4.994   0.796  1.1450 -1.4229 -0.8604
 5137TIP3    H236971   3.166   5.128   0.738 -0.4741 -0.6456  1.8423
 5138TIP3   OH236972   5.193   2.275   0.340 -0.4398 -0.3182  0.1804
 5138TIP3    H136973   5.278   2.248   0.372 -1.2190 -0.2218  2.4862
 5138TIP3    H236974   5.142   2.194   0.334  0.0622 -0.5446 -2.2824
 5139TIP3   OH236975   3.231   4.770   2.730  0.4352  0.2117  0.2901
 5139TIP3    H136976   3.293   4.742   2.662 -0.5068 -1.1118 -0.0662
 5139TIP3    H236977   3.150   4.788   2.684 -0.4829 -1.5688  1.1136
 5140TIP3   OH236978   0.209   2.869   1.733  0.0329  0.0467 -0.1543
 5140TIP3    H136979   0.196   2.889   1.826 -2.6663 -0.8553 -0.2428
 5140TIP3    H236980   0.218   2.774   1.729 -2.0938 -0.1874 -0.9196
 5141TIP3   OH236981   3.192   3.032   8.429  0.2019 -0.2403  0.2360
 5141TIP3    H136982   3.145   3.110   8.457 -0.8867 -0.6355 -0.4424
 5141TIP3    H236983   3.267   3.066   8.381 -1.9676  0.4915 -2.9373
 5142TIP3   OH236984   3.832   4.403   1.686 -0.0701  0.2239  0.0322
 5142TIP3    H136985   3.853   4.455   1.608  0.3225  2.4733  1.5421
 5142TIP3    H236986   3.754   4.444   1.722 -0.4532 -1.0103  0.6506
 5143TIP3   OH236987   0.323   5.857   7.416 -0.0712 -0.0180 -0.3751
 5143TIP3    H136988   0.261   5.929   7.410 -1.2888 -0.9703  0.3141
 5143TIP3    H236989   0.275   5.788   7.462  1.3363 -0.9683 -0.2824
 5144TIP3   OH236990   1.714   0.464   1.182  0.7001 -0.0803 -0.6111
 5144TIP3    H136991   1.618   0.470   1.186  0.6793 -0.2846 -0.7923
 5144TIP3    H236992   1.743   0.489   1.270  0.4497 -0.6269 -0.3660
 5145TIP3   OH236993   5.950   2.913   8.552  0.1159  0.2391 -0.2774
 5145TIP3    H136994   5.960   3.001   8.515  0.9701  0.1799 -0.2061
 5145TIP3    H236995   6.018   2.861   8.509 -0.4176 -0.4040 -0.3575
 5146TIP3   OH236996   1.876   2.813   1.057  0.0378  0.4130  0.0680
 5146TIP3    H136997   1.816   2.775   1.122  0.4858  0.9846  0.8289
 5146TIP3    H236998   1.946   2.749   1.050 -0.8036 -0.4243 -1.0820
 5147TIP3   OH236999   2.070   5.300   8.606  0.0259 -0.2584  0.3830
 5147TIP3    H137000   2.008   5.356   8.652  2.0781  1.8560  0.7736
 5147TIP3    H237001   2.153   5.313   8.652  1.8841  0.8465 -2.9610
 5148TIP3   OH237002   0.313   1.168   8.645 -0.4973  0.4615 -0.6644
 5148TIP3    H137003   0.248   1.233   8.621  0.2570  0.6139 -2.4461
 5148TIP3    H237004   0.294   1.092   8.590 -1.7420 -1.1524  1.8015
 5149TIP3   OH237005   1.146   0.346   1.767  0.1787  0.0648 -0.1679
 5149TIP3    H137006   1.124   0.438   1.752  3.5024  0.8093 -1.4665
 5149TIP3    H237007   1.142   0.306   1.680 -0.1439 -0.7677  0.2142
 5150TIP3   OH237008   4.950   1.244   3.338  0.7689 -0.7483  0.1091
 5150TIP3    H137009   5.000   1.319   3.373  1.1992 -0.7802 -0.4102
 5150TIP3    H237010   4.902   1.281   3.264  0.3724 -0.8233  0.3260
 5151TIP3   OH237011   6.145   1.926   8.439 -0.1104  0.4351  0.1522
 5151TIP3    H137012   6.073   1.932   8.501  0.4376  1.1789  0.7216
 5151TIP3    H237013   6.214   1.982   8.475  0.6907 -0.1205 -0.4732
 5152TIP3   OH237014   5.671   0.019   7.851  0.1245 -0.1025  0.0735
 5152TIP3    H137015   5.624   0.065   7.921  1.0938  1.9739 -0.5578
 5152TIP3    H237016   5.751   0.070   7.839  0.3848 -0.9049 -1.9552
 5153TIP3   OH237017   4.675   4.223   0.109 -0.0720  0.1031  0.0497
 5153TIP3    H137018   4.693   4.130   0.125 -1.4595 -0.0730  0.6806
 5153TIP3    H237019   4.722   4.268   0.179 -2.4812 -0.3956  2.1155
 5154TIP3   OH237020   6.558   5.439   2.542 -0.4915 -0.2460  0.2227
 5154TIP3    H137021   6.505   5.360   2.530 -0.1884 -0.5002  0.4905
 5154TIP3    H237022   6.579   5.468   2.454 -2.0542  0.5501  0.0850
 5155TIP3   OH237023   1.845   1.051   2.517 -0.2236 -0.1314  0.3270
 5155TIP3    H137024   1.917   1.111   2.498  0.1186 -0.9945 -1.2455
 5155TIP3    H237025   1.767   1.107   2.522  0.4153  0.7073  1.2586
 5156TIP3   OH237026   4.934   4.452   7.660 -0.2738 -0.5822 -0.2594
 5156TIP3    H137027   5.006   4.419   7.607  0.7122 -0.1791  0.7993
 5156TIP3    H237028   4.967   4.451   7.749 -0.9040  1.3745  0.0420
 5157TIP3   OH237029   2.580   1.166   8.238 -0.1252 -0.4194  0.5316
 5157TIP3    H137030   2.633   1.090   8.215  1.0190  0.5827 -0.2332
 5157TIP3    H237031   2.580   1.168   8.334  1.7396 -0.1102  0.5578
 5158TIP3   OH237032   3.906   1.786   7.163  0.3679  0.2528  0.6581
 5158TIP3    H137033   3.870   1.866   7.126  0.2970  1.5977  3.4036
 5158TIP3    H237034   3.829   1.731   7.181  0.3531 -0.0977 -0.3866
 5159TIP3   OH237035   1.588   5.187   0.224 -0.3590 -0.6273  0.4635
 5159TIP3    H137036   1.534   5.200   0.146  2.3988 -0.0161 -1.5257
 5159TIP3    H237037   1.563   5.100   0.256 -2.5295 -0.3300 -0.2563
 5160TIP3   OH237038   5.971   3.058   8.218  0.2011 -0.3662 -0.1078
 5160TIP3    H137039   6.003   3.140   8.180 -0.5890  0.1136  0.2294
 5160TIP3    H237040   5.902   3.085   8.279  0.1696 -1.2588  0.2690
 5161TIP3   OH237041   1.419   2.477   7.847  0.2280 -0.3194 -0.1849
 5161TIP3    H137042   1.513   2.488   7.858  0.2962 -2.0311  1.5052
 5161TIP3    H237043   1.409   2.427   7.767  0.7332  0.1161 -0.5205
 5162TIP3   OH237044   6.299   0.013   8.301 -0.0234 -0.3653 -0.7043
 5162TIP3    H137045   6.247   0.093   8.299 -0.4104 -0.6127 -2.0920
 5162TIP3    H237046   6.234  -0.057   8.291  0.5060 -0.6928 -2.1145
 5163TIP3   OH237047   0.469   3.672   6.971  0.8278  0.1012 -0.0041
 5163TIP3    H137048   0.494   3.586   6.935  0.3423  0.4913 -1.3530
 5163TIP3    H237049   0.374   3.674   6.962  0.8351  0.7723  0.0562
 5164TIP3   OH237050   3.700   0.453   3.344 -0.7859  0.1579 -0.4680
 5164TIP3    H137051   3.605   0.453   3.351 -0.7196  1.1889  0.8592
 5164TIP3    H237052   3.728   0.381   3.401 -0.7264  0.9306  0.5081
 5165TIP3   OH237053   5.499   5.388   1.977 -0.1710 -0.1010  0.1073
 5165TIP3    H137054   5.494   5.464   1.919 -1.0191  0.3373  0.7346
 5165TIP3    H237055   5.414   5.386   2.020  0.0037 -1.1601  0.4161
 5166TIP3   OH237056   2.092   5.648   1.602  0.4768  0.0528 -0.1434
 5166TIP3    H137057   2.025   5.709   1.572 -0.5041 -1.6253 -1.5885
 5166TIP3    H237058   2.152   5.639   1.528  0.6923 -0.6009  0.1001
 5167TIP3   OH237059   6.535   4.360   8.169 -0.0110  0.0394  0.2949
 5167TIP3    H137060   6.588   4.368   8.090 -1.3948  0.6540 -0.6248
 5167TIP3    H237061   6.508   4.268   8.171 -2.0273  0.5052 -1.4212
 5168TIP3   OH237062   5.633   3.359   0.443 -0.2377 -0.3177  0.0766
 5168TIP3    H137063   5.646   3.381   0.535  1.8629 -0.2007 -0.2080
 5168TIP3    H237064   5.538   3.362   0.431 -0.4577  4.5571  1.0637
 5169TIP3   OH237065   4.160   4.707   0.216 -0.0184 -0.5893 -0.2622
 5169TIP3    H137066   4.253   4.687   0.206 -0.0996 -0.6963 -0.8311
 5169TIP3    H237067   4.127   4.640   0.276  0.4541 -0.0128  0.6714
 5170TIP3   OH237068   4.136   3.300   1.480  0.3212 -0.4903 -0.9494
 5170TIP3    H137069   4.186   3.332   1.556  0.5657 -1.2662 -0.7754
 5170TIP3    H237070   4.090   3.377   1.448 -0.4815 -0.3150  0.5277
 5171TIP3   OH237071   5.708   2.474   7.362  0.2006  0.2582  0.1080
 5171TIP3    H137072   5.700   2.423   7.281  1.6702  0.4172 -0.1610
 5171TIP3    H237073   5.684   2.563   7.336  0.4419  0.2618 -0.1104
 5172TIP3   OH237074   1.777   1.145   0.237 -0.1717  0.1530  0.3539
 5172TIP3    H137075   1.785   1.108   0.325  1.8608 -1.1909 -0.3465
 5172TIP3    H237076   1.812   1.234   0.245 -0.6480  0.2889  1.0327
 5173TIP3   OH237077   1.553   5.653   1.402  0.3353  0.0171  0.1860
 5173TIP3    H137078   1.506   5.731   1.432  0.9239  0.0307  1.1143
 5173TIP3    H237079   1.552   5.594   1.477  1.1469 -0.2797 -0.0192
 5174TIP3   OH237080   2.310   4.616   8.240  0.4522 -0.6401  0.2379
 5174TIP3    H137081   2.243   4.593   8.175  0.2163  0.0091  0.2403
 5174TIP3    H237082   2.277   4.578   8.322 -0.6037  0.7858  0.5155
 5175TIP3   OH237083   3.827   1.105   2.378 -0.0633 -0.3786 -0.6266
 5175TIP3    H137084   3.853   1.078   2.467 -0.9256 -1.0841 -0.5791
 5175TIP3    H237085   3.733   1.121   2.384  0.3391  2.4730 -0.7190
 5176TIP3   OH237086   0.388   6.027   8.501  0.0635 -0.1824 -0.2262
 5176TIP3    H137087   0.360   6.040   8.411  1.6999  2.1567 -0.5020
 5176TIP3    H237088   0.350   6.102   8.549  1.4140  0.1066  0.4386
 5177TIP3   OH237089   3.919   5.005   0.821  0.2586 -0.5723  0.4566
 5177TIP3    H137090   4.000   4.959   0.799  1.4072  1.0000  1.2142
 5177TIP3    H237091   3.857   4.979   0.753  1.2366 -2.2025  0.1503
 5178TIP3   OH237092   5.265   3.296   1.006  0.0563  0.2115 -0.2299
 5178TIP3    H137093   5.313   3.330   0.931  1.2893 -0.9590 -0.0178
 5178TIP3    H237094   5.173   3.303   0.981  0.3331  1.9984 -0.8738
 5179TIP3   OH237095   5.484   6.775   1.930  0.2540  0.3236 -0.1334
 5179TIP3    H137096   5.453   6.760   1.841  0.5948  3.0223 -0.7773
 5179TIP3    H237097   5.419   6.834   1.969  0.4729 -0.2650  1.1824
 5180TIP3   OH237098   5.794   3.146   1.803 -0.1871 -0.1886  0.1568
 5180TIP3    H137099   5.853   3.073   1.823  1.7720  1.2918  0.0253
 5180TIP3    H237100   5.737   3.112   1.734  0.1385 -1.8479  0.6568
 5181TIP3   OH237101   1.494   5.816   2.403 -0.2579  0.1129 -0.0584
 5181TIP3    H137102   1.497   5.724   2.378 -0.9910 -0.0118  0.2888
 5181TIP3    H237103   1.443   5.818   2.483  2.5492  0.4274  1.8642
 5182TIP3   OH237104   5.411   6.619   1.701  0.3086 -0.1014 -0.0421
 5182TIP3    H137105   5.324   6.585   1.722  0.6108 -1.0123 -0.2375
 5182TIP3    H237106   5.451   6.551   1.647  1.5906 -0.2388  1.0384
 5183TIP3   OH237107   6.130   0.507   0.108  0.0360  0.0314  0.1511
 5183TIP3    H137108   6.149   0.584   0.056 -1.4766 -0.1834 -0.7870
 5183TIP3    H237109   6.189   0.439   0.075  0.8917  0.5878  0.5177
 5184TIP3   OH237110   5.879   4.420   1.357 -0.1836 -0.5625  0.3950
 5184TIP3    H137111   5.849   4.336   1.322  0.3710 -1.8064  2.7316
 5184TIP3    H237112   5.945   4.450   1.294  0.4125 -2.4188  0.0865
 5185TIP3   OH237113   0.832   2.765   3.024 -0.0957  0.0895 -0.0535
 5185TIP3    H137114   0.848   2.686   2.972 -1.3379  0.5635 -1.2261
 5185TIP3    H237115   0.903   2.767   3.088 -0.0327 -1.9537 -0.0152
 5186TIP3   OH237116   3.489   5.294   2.074  1.2893  0.0877  0.2482
 5186TIP3    H137117   3.413   5.244   2.046  0.9380  0.7176  0.0470
 5186TIP3    H237118   3.454   5.381   2.094  1.4184 -0.4038  3.0618
 5187TIP3   OH237119   2.048   3.489   2.393  0.2510  0.7462  0.1233
 5187TIP3    H137120   2.064   3.404   2.352 -2.4595  0.6332 -0.9252
 5187TIP3    H237121   2.010   3.543   2.323 -0.3882  2.0095  1.3873
 5188TIP3   OH237122   2.851   0.609   0.026  0.3679  0.3181  0.1215
 5188TIP3    H137123   2.827   0.552  -0.047 -1.3556  0.3421  0.6466
 5188TIP3    H237124   2.898   0.681  -0.016  0.5522 -0.3197 -0.8079
 5189TIP3   OH237125   4.012   0.075   1.587 -0.2434 -0.1063 -0.4384
 5189TIP3    H137126   3.957   0.000   1.610 -1.1642  0.2695 -1.3115
 5189TIP3    H237127   3.998   0.086   1.493  2.4422 -0.8704 -1.0084
 5190TIP3   OH237128   4.132   5.632   0.106  0.2109 -0.0580 -0.5779
 5190TIP3    H137129   4.128   5.683   0.025  1.2501  1.4576  0.2644
 5190TIP3    H237130   4.212   5.580   0.097 -0.3211 -0.8212 -1.0157
 5191TIP3   OH237131   1.250   2.774   2.132 -0.0716  0.3158  0.3463
 5191TIP3    H137132   1.299   2.734   2.204  0.6192  0.0594 -0.2507
 5191TIP3    H237133   1.179   2.821   2.174  0.3038  0.1353  1.1959
 5192TIP3   OH237134   1.787   5.748   1.792  0.1372  0.0916 -0.8008
 5192TIP3    H137135   1.832   5.775   1.713 -1.2237  1.2746 -1.2053
 5192TIP3    H237136   1.804   5.818   1.855  0.2437 -0.2792 -0.4056
 5193TIP3   OH237137   0.971   5.151   1.076  0.3563 -0.2289  1.0001
 5193TIP3    H137138   0.959   5.061   1.045 -0.8729 -0.6518  2.6107
 5193TIP3    H237139   1.034   5.188   1.015 -2.1891 -0.8523 -2.3004
 5194TIP3   OH237140   1.872   2.140   0.091 -0.0158  0.3904 -0.0795
 5194TIP3    H137141   1.802   2.195   0.057 -0.7150  0.0762  0.8227
 5194TIP3    H237142   1.827   2.063   0.127  0.7926  0.1710  0.4913
 5195TIP3   OH237143   0.807   0.001   7.741  0.7722  0.2523 -0.2230
 5195TIP3    H137144   0.825   0.093   7.726  2.0693  0.0178 -0.1666
 5195TIP3    H237145   0.848  -0.019   7.825 -1.6690  0.2117  1.0587
 5196TIP3   OH237146   4.566   0.736   0.741  0.3555  0.4957 -0.0583
 5196TIP3    H137147   4.504   0.803   0.770  0.8974  0.9091  0.1630
 5196TIP3    H237148   4.530   0.705   0.657 -1.7511 -1.3977  1.4105
 5197TIP3   OH237149   3.074   2.411   0.930 -0.9590  0.2617  0.2152
 5197TIP3    H137150   3.122   2.400   1.012  0.4789 -0.4359 -0.6686
 5197TIP3    H237151   3.091   2.330   0.881 -2.4743  0.3059 -0.4439
 5198TIP3   OH237152   0.080   0.744   8.148 -0.4998 -0.3246 -0.0583
 5198TIP3    H137153   0.149   0.794   8.103 -0.3054  0.2250  0.8334
 5198TIP3    H237154   0.001   0.760   8.095 -0.1332 -0.2412 -0.5858
 5199TIP3   OH237155   6.789   4.202   0.719 -0.1036  0.7740 -0.2345
 5199TIP3    H137156   6.845   4.195   0.643 -0.2672  0.7984 -0.3574
 5199TIP3    H237157   6.802   4.291   0.751  1.8543  0.0391  1.2320
 5200TIP3   OH237158   1.038   0.327   7.292 -0.4685  0.2951  0.0633
 5200TIP3    H137159   1.042   0.423   7.296 -1.1254  0.3690 -0.8477
 5200TIP3    H237160   1.069   0.306   7.203  0.6939 -0.4063  0.6159
 5201TIP3   OH237161   3.828   0.648   7.383  0.2856 -0.1601 -0.0522
 5201TIP3    H137162   3.804   0.702   7.458  0.6432 -0.3338  0.1946
 5201TIP3    H237163   3.920   0.668   7.367  0.4634 -0.7857  0.1304
 5202TIP3   OH237164   0.019   3.399   0.401  0.4388  0.3479 -0.0445
 5202TIP3    H137165  -0.035   3.402   0.322 -0.3030  0.2579  0.4431
 5202TIP3    H237166  -0.041   3.368   0.469  1.1432  0.1421  0.4907
 5203TIP3   OH237167   0.985   2.355   1.707 -0.6252 -0.2125  0.8444
 5203TIP3    H137168   1.006   2.445   1.682 -0.3829  0.0742  2.0197
 5203TIP3    H237169   1.059   2.303   1.676 -0.5754  0.0494  0.5186
 5204TIP3   OH237170   0.237   5.214   1.188 -0.0884 -0.2914  0.7542
 5204TIP3    H137171   0.251   5.133   1.139  0.5127  0.6254 -0.6683
 5204TIP3    H237172   0.149   5.242   1.163  0.2387  0.2047  0.1318
 5205TIP3   OH237173   3.411   6.735   2.630 -0.3291 -0.4119 -0.3451
 5205TIP3    H137174   3.459   6.698   2.555 -0.5282 -2.6469  0.5545
 5205TIP3    H237175   3.479   6.760   2.692 -0.2231 -0.4004 -0.4649
 5206TIP3   OH237176   2.208   0.506   1.508 -0.0597  0.0719 -0.0623
 5206TIP3    H137177   2.280   0.497   1.571 -0.4236  0.5693  0.4300
 5206TIP3    H237178   2.200   0.601   1.494 -1.9949  0.1862  1.5029
 5207TIP3   OH237179   0.739   5.188   8.585 -0.7328  0.7661  0.0359
 5207TIP3    H137180   0.644   5.173   8.581 -0.4751 -0.9900 -0.3782
 5207TIP3    H237181   0.750   5.256   8.651 -2.0819 -1.3325  2.6104
 5208TIP3   OH237182   6.578   3.247   2.620 -0.0983  0.8387  0.2052
 5208TIP3    H137183   6.627   3.186   2.564  2.4934  3.1580 -0.2393
 5208TIP3    H237184   6.640   3.317   2.639 -2.4083  2.5024  2.1303
 5209TIP3   OH237185   3.653   2.684   2.201 -0.3809  0.4572 -0.2869
 5209TIP3    H137186   3.691   2.628   2.268  1.2975 -0.1644 -1.6766
 5209TIP3    H237187   3.585   2.630   2.160 -1.3269  0.7978  0.7870
 5210TIP3   OH237188   2.576   5.957   7.460  0.0957 -0.0728  0.0477
 5210TIP3    H137189   2.540   6.042   7.483  2.3043  0.5023  1.7109
 5210TIP3    H237190   2.623   5.972   7.378  0.6837  0.3913  0.4632
 5211TIP3   OH237191   4.561   3.022   0.237 -0.0211 -0.3918  0.5249
 5211TIP3    H137192   4.501   2.948   0.228  1.2786 -1.5432  0.7527
 5211TIP3    H237193   4.568   3.059   0.150  0.2999 -1.3807  0.1170
 5212TIP3   OH237194   6.297   6.501   0.498 -0.4480  0.3376 -0.2037
 5212TIP3    H137195   6.296   6.586   0.455  1.5031  0.0369 -0.9593
 5212TIP3    H237196   6.325   6.439   0.430 -1.1365 -0.7965  0.5040
 5213TIP3   OH237197   5.408   0.939   0.797  0.2344 -0.3672 -0.6038
 5213TIP3    H137198   5.472   0.999   0.758  0.0183 -0.1985 -0.7059
 5213TIP3    H237199   5.337   0.935   0.733  0.1145 -0.5022 -0.4637
 5214TIP3   OH237200   0.380   3.025   0.342 -0.7002  0.7917 -0.7802
 5214TIP3    H137201   0.324   2.953   0.311 -2.0220  1.6059 -0.3682
 5214TIP3    H237202   0.380   3.016   0.437  0.9820  0.0218 -0.8275
 5215TIP3   OH237203   5.282   0.103   0.606  0.0758 -0.2838 -0.1292
 5215TIP3    H137204   5.371   0.138   0.602 -0.2096  0.4232 -0.2963
 5215TIP3    H237205   5.279   0.054   0.688  0.9749 -1.2950 -0.6724
 5216TIP3   OH237206   2.465   5.840   1.161 -0.1203  0.1522  0.0545
 5216TIP3    H137207   2.416   5.766   1.197  0.6532 -0.7882 -0.7815
 5216TIP3    H237208   2.498   5.808   1.076  0.1632  1.4778 -0.3529
 5217TIP3   OH237209   3.989   3.491   1.648 -0.3613  0.1757  0.1879
 5217TIP3    H137210   4.074   3.518   1.615 -1.1908  0.1143 -2.1763
 5217TIP3    H237211   4.005   3.407   1.691  0.8681  0.5087  0.4206
 5218TIP3   OH237212   6.343   5.115   7.337 -0.2388 -0.1872 -0.2768
 5218TIP3    H137213   6.403   5.147   7.269  1.4344 -0.2000  1.1166
 5218TIP3    H237214   6.342   5.020   7.326  0.0615 -0.1913 -0.2813
 5219TIP3   OH237215   1.249   5.884   0.082  0.2939  0.0496  0.8423
 5219TIP3    H137216   1.216   5.965   0.045 -0.7657 -0.2951  1.0053
 5219TIP3    H237217   1.248   5.898   0.177 -0.0109 -0.1890  0.8766
 5220TIP3   OH237218   4.510   2.641   2.437  0.2010  0.1733  0.4750
 5220TIP3    H137219   4.502   2.609   2.527  1.4039  0.2509  0.6236
 5220TIP3    H237220   4.470   2.729   2.440 -1.2330 -0.4475  0.5341
 5221TIP3   OH237221   4.969   6.728   0.812 -0.3585  0.0568  0.1736
 5221TIP3    H137222   4.931   6.657   0.865 -0.7330 -0.2490 -0.4946
 5221TIP3    H237223   5.063   6.719   0.825 -0.4551  0.2180  1.0845
 5222TIP3   OH237224   5.171   2.545   8.262 -0.3813 -0.0236  0.2381
 5222TIP3    H137225   5.152   2.522   8.171 -0.5069  1.7900 -0.2256
 5222TIP3    H237226   5.266   2.556   8.265 -0.4031  0.1728  0.2517
 5223TIP3   OH237227   5.973   3.023   7.917 -0.4627  0.1115 -0.3607
 5223TIP3    H137228   6.066   3.042   7.910 -0.2716 -0.6279  0.0877
 5223TIP3    H237229   5.966   2.963   7.991 -1.4632  1.3291  0.5754
 5224TIP3   OH237230   0.752   4.133   2.509 -0.0878  0.4207  0.2655
 5224TIP3    H137231   0.718   4.181   2.585 -0.3636  0.5302  0.0705
 5224TIP3    H237232   0.802   4.061   2.548 -0.0585  0.5922  0.5548
 5225TIP3   OH237233   5.745   6.443   7.773 -0.4582  0.7517 -0.8571
 5225TIP3    H137234   5.690   6.408   7.703  0.4356  0.3051 -1.3594
 5225TIP3    H237235   5.723   6.390   7.850 -0.5703  0.4280 -1.1116
 5226TIP3   OH237236   1.272   2.057   0.795  0.0937  0.2527  0.0475
 5226TIP3    H137237   1.204   2.051   0.862 -0.8526  0.0111 -0.9055
 5226TIP3    H237238   1.278   1.968   0.759  0.4847  0.4197 -0.3060
 5227TIP3   OH237239   2.356   5.434   1.755  0.4803 -0.7564 -0.5302
 5227TIP3    H137240   2.383   5.462   1.667  0.7352 -0.7050 -0.4346
 5227TIP3    H237241   2.335   5.515   1.801  3.0448 -0.5363  0.3646
 5228TIP3   OH237242   2.963   3.867   0.773 -0.0904  0.5433 -0.1405
 5228TIP3    H137243   2.995   3.879   0.684  1.8399 -1.9999  0.0684
 5228TIP3    H237244   2.943   3.774   0.779 -1.0724  0.8259  1.8361
 5229TIP3   OH237245   5.974   4.283   0.709  0.3749 -0.1735 -0.3856
 5229TIP3    H137246   5.969   4.268   0.804  0.4561  0.4291 -0.2755
 5229TIP3    H237247   6.066   4.269   0.687  1.4924  4.1770  0.5045
 5230TIP3   OH237248   4.398   5.722   0.315  0.9809 -0.6459 -0.5309
 5230TIP3    H137249   4.385   5.740   0.222  1.5283  2.3359 -0.1255
 5230TIP3    H237250   4.491   5.742   0.330  0.0165  3.1658  1.3675
 5231TIP3   OH237251   2.805   5.801   1.339 -0.2028 -0.3677  0.6882
 5231TIP3    H137252   2.844   5.737   1.278 -2.2090 -1.9630  0.9703
 5231TIP3    H237253   2.881   5.841   1.382  1.2734  0.2999 -2.2635
 5232TIP3   OH237254   0.083   1.337   1.025  0.8866  0.5692  0.5801
 5232TIP3    H137255   0.150   1.271   1.039  1.3948  0.7560 -0.7618
 5232TIP3    H237256   0.005   1.288   0.997  0.8320  0.4379  0.9638
 5233TIP3   OH237257   5.670   3.488   1.239 -0.1887 -0.0063 -0.3130
 5233TIP3    H137258   5.638   3.398   1.249 -2.3118  0.7175 -0.3142
 5233TIP3    H237259   5.650   3.511   1.148 -2.0084  1.3076  0.3695
 5234TIP3   OH237260   1.261   3.433   2.309  0.2765 -0.4488  0.5370
 5234TIP3    H137261   1.301   3.355   2.347 -0.5690 -0.3581  1.6567
 5234TIP3    H237262   1.174   3.438   2.349  0.6637  1.6025  1.2317
 5235TIP3   OH237263   5.396   2.141   8.467  0.5025 -0.0703  0.1787
 5235TIP3    H137264   5.450   2.213   8.434  0.9342 -0.5876 -0.2532
 5235TIP3    H237265   5.452   2.064   8.461 -0.3257 -0.6379 -0.3893
 5236TIP3   OH237266   2.206   1.134   0.315 -0.0368  0.1755 -0.4731
 5236TIP3    H137267   2.149   1.210   0.316  0.8672  0.8705 -0.2695
 5236TIP3    H237268   2.151   1.063   0.282 -0.7861  0.9935 -1.0216
 5237TIP3   OH237269   5.748   4.264   0.297 -0.1779 -0.4366 -0.1095
 5237TIP3    H137270   5.659   4.233   0.311  0.9085 -2.7521  2.7751
 5237TIP3    H237271   5.785   4.204   0.232 -1.3228  2.1511 -3.4227
 5238TIP3   OH237272   2.509   5.416   7.489 -0.2586 -0.0514  0.0268
 5238TIP3    H137273   2.475   5.428   7.401 -0.1372  0.5693  0.0573
 5238TIP3    H237274   2.530   5.505   7.519  0.5258 -0.3323  0.3503
 5239TIP3   OH237275   5.384   1.226   2.066  0.1211 -0.3869  0.5052
 5239TIP3    H137276   5.341   1.297   2.114  0.7510  1.9031 -2.0071
 5239TIP3    H237277   5.477   1.236   2.086  0.1798 -0.6605  0.3722
 5240TIP3   OH237278   0.506   2.495   2.947 -0.3176 -0.1850  0.7788
 5240TIP3    H137279   0.586   2.443   2.956  0.8661  1.3947 -0.1898
 5240TIP3    H237280   0.438   2.430   2.926  1.3287 -1.2857 -1.6526
 5241TIP3   OH237281   5.736   6.174   2.594 -0.0861 -0.2951  0.4167
 5241TIP3    H137282   5.813   6.216   2.631  1.5461 -2.0073 -0.8312
 5241TIP3    H237283   5.712   6.106   2.657  0.0073 -0.3831  0.3568
 5242TIP3   OH237284   1.359   1.233   7.326  0.3085 -0.4985 -0.3113
 5242TIP3    H137285   1.438   1.253   7.277  1.0389  1.0079  1.3974
 5242TIP3    H237286   1.316   1.317   7.340 -0.4811 -1.0275  0.6366
 5243TIP3   OH237287   0.736   6.111   2.787  0.1741  0.2583  0.3663
 5243TIP3    H137288   0.700   6.023   2.795 -0.5364  0.6437  1.7039
 5243TIP3    H237289   0.754   6.138   2.878  1.0784  1.2096 -0.0707
 5244TIP3   OH237290   1.010   2.676   8.708 -0.0251  0.2818 -0.2963
 5244TIP3    H137291   1.016   2.635   8.622  1.5691 -1.0042  0.3766
 5244TIP3    H237292   0.964   2.612   8.763  1.2120 -0.0305  0.4149
 5245TIP3   OH237293   0.004   6.034   0.485 -0.6445 -0.1515 -0.1356
 5245TIP3    H137294   0.084   6.080   0.508 -2.3005  1.6045  2.7873
 5245TIP3    H237295  -0.019   6.067   0.398 -0.0295  2.1128  0.5105
 5246TIP3   OH237296   1.168   6.050   2.033  0.5199  0.1077 -0.4929
 5246TIP3    H137297   1.253   6.043   1.990  2.0064  2.5137  1.7370
 5246TIP3    H237298   1.180   6.006   2.117 -0.8794 -0.5934 -0.6217
 5247TIP3   OH237299   5.269   1.878   2.161  0.2975  0.6297 -0.3217
 5247TIP3    H137300   5.289   1.887   2.255 -1.6722  1.9091  0.0447
 5247TIP3    H237301   5.187   1.830   2.159  1.1357 -0.8471 -1.5329
 5248TIP3   OH237302   5.532   3.758   0.823  0.0283 -0.0295  0.5569
 5248TIP3    H137303   5.473   3.823   0.861  3.1613  2.1756  2.1821
 5248TIP3    H237304   5.550   3.791   0.735 -0.1705  0.0042  0.5282
 5249TIP3   OH237305   5.093   4.376   8.684 -0.3770  0.4706 -0.0967
 5249TIP3    H137306   5.084   4.296   8.737  0.6515 -1.1343 -2.2025
 5249TIP3    H237307   5.184   4.403   8.697 -0.8421  1.6113  0.9590
 5250TIP3   OH237308   3.079   3.310   2.554 -0.1581 -0.3884 -0.2380
 5250TIP3    H137309   3.164   3.274   2.528  0.3297 -2.4370  3.4765
 5250TIP3    H237310   3.015   3.246   2.521 -0.3388  0.8573 -2.5265
 5251TIP3   OH237311   3.720   3.984   0.154 -0.0702 -0.0512 -0.1917
 5251TIP3    H137312   3.639   3.966   0.108 -0.8822  0.1935  1.0877
 5251TIP3    H237313   3.693   4.023   0.237  1.2827 -1.0863  0.8010
 5252TIP3   OH237314   5.468   0.050   1.385 -0.8507  0.0158  0.0235
 5252TIP3    H137315   5.410   0.082   1.315 -1.2577  0.4311  0.5399
 5252TIP3    H237316   5.544   0.014   1.339 -0.0582  2.3248 -0.5916
 5253TIP3   OH237317   3.781   5.129   7.262 -0.5762  0.7928  0.2993
 5253TIP3    H137318   3.859   5.118   7.208 -0.7707  0.6180  0.0505
 5253TIP3    H237319   3.708   5.109   7.203 -0.7096 -3.4945  1.5998
 5254TIP3   OH237320   0.859   0.269   1.126  0.5257 -0.3348 -0.3232
 5254TIP3    H137321   0.939   0.312   1.156  0.9096 -1.6433  0.6767
 5254TIP3    H237322   0.796   0.283   1.198 -0.3061  1.0454 -1.2831
 5255TIP3   OH237323   0.363   2.738   2.396  0.1131 -0.1435  0.1582
 5255TIP3    H137324   0.396   2.756   2.308  1.9259 -0.0237  0.8322
 5255TIP3    H237325   0.268   2.736   2.386  0.2712  0.3315 -1.7099
 5256TIP3   OH237326   6.110   0.527   1.138 -0.3961 -0.0967  0.2067
 5256TIP3    H137327   6.074   0.570   1.215  1.9847  2.9922 -0.1913
 5256TIP3    H237328   6.202   0.511   1.160 -0.3517 -1.7795 -1.0007
 5257TIP3   OH237329   6.003   3.338   8.395 -0.6439  0.0065 -0.1786
 5257TIP3    H137330   5.943   3.268   8.421  1.4526 -1.9975 -0.3546
 5257TIP3    H237331   5.988   3.349   8.301  1.6346 -3.2110 -1.1249
 5258TIP3   OH237332   0.601   4.729   8.457  0.0269  0.0585 -0.1047
 5258TIP3    H137333   0.556   4.761   8.534  1.5189 -3.0055  2.2755
 5258TIP3    H237334   0.547   4.656   8.426  0.7514 -0.3875 -0.3449
 5259TIP3   OH237335   5.373   3.439   0.788  0.3854  0.0254  0.2119
 5259TIP3    H137336   5.460   3.459   0.754  0.9108 -1.7953  0.4228
 5259TIP3    H237337   5.314   3.489   0.731  1.5388  1.3530  0.1160
 5260TIP3   OH237338   4.484   0.325   1.302 -0.5387  0.1527  0.7617
 5260TIP3    H137339   4.524   0.323   1.389 -0.6153  1.9331  0.8727
 5260TIP3    H237340   4.490   0.416   1.275  0.2612 -0.4946 -1.4864
 5261TIP3   OH237341   4.480   3.414   0.852  0.0105 -0.5268 -0.0898
 5261TIP3    H137342   4.479   3.378   0.764 -1.2464 -0.6901 -0.0263
 5261TIP3    H237343   4.464   3.339   0.909  0.5770 -0.3835  0.2785
 5262TIP3   OH237344   0.842   4.490   0.590 -0.2348 -0.2333 -0.1767
 5262TIP3    H137345   0.840   4.402   0.627  0.8452 -0.2186 -0.0449
 5262TIP3    H237346   0.934   4.503   0.566 -0.4604  0.7091 -0.5526
 5263TIP3   OH237347   0.585   2.085   8.453  0.1851 -0.2786 -0.1196
 5263TIP3    H137348   0.507   2.030   8.463 -0.2699  0.3285 -0.2575
 5263TIP3    H237349   0.552   2.166   8.415  0.8604  0.0624  0.0089
 5264TIP3   OH237350   2.986   0.793   7.112 -0.1584 -0.3181 -0.2287
 5264TIP3    H137351   3.048   0.821   7.044  2.3379 -3.4602  0.4912
 5264TIP3    H237352   3.024   0.824   7.194 -0.3599 -0.9754  0.1195
 5265TIP3   OH237353   2.034   1.121   7.436 -0.3924 -0.4725  0.3040
 5265TIP3    H137354   1.986   1.096   7.358  0.3606 -0.3375 -0.2150
 5265TIP3    H237355   2.044   1.216   7.428  1.3092 -0.6652 -0.4159
 5266TIP3   OH237356   2.433   1.913   1.285  0.4663  0.5518  0.4378
 5266TIP3    H137357   2.522   1.898   1.317  0.2102  0.1570  0.9771
 5266TIP3    H237358   2.405   1.828   1.251  0.5658  0.8549 -0.4522
 5267TIP3   OH237359   6.242   3.766   6.901 -0.2207 -0.5733  0.5875
 5267TIP3    H137360   6.323   3.799   6.862 -0.6043 -1.4705 -1.0424
 5267TIP3    H237361   6.267   3.683   6.940 -0.7042 -1.9206 -1.7694
 5268TIP3   OH237362   2.449   2.597   1.618  0.0450  0.3579 -0.3063
 5268TIP3    H137363   2.470   2.636   1.703 -0.7999  1.7612 -0.7035
 5268TIP3    H237364   2.413   2.510   1.640 -2.3198  1.5637  0.9957
 5269TIP3   OH237365   2.915   4.165   2.739 -0.5121  0.0193 -0.4297
 5269TIP3    H137366   2.997   4.209   2.763  1.1046 -2.8018 -0.1894
 5269TIP3    H237367   2.935   4.124   2.654 -2.1353  0.2561 -0.9562
 5270TIP3   OH237368   4.070   0.826   0.406  0.4842  0.4464  0.0256
 5270TIP3    H137369   3.985   0.791   0.380  0.4860  1.0148 -0.7896
 5270TIP3    H237370   4.126   0.749   0.416  0.0987  0.1283 -0.2589
 5271TIP3   OH237371   2.473   0.285   8.139 -0.5096 -0.9239  0.3005
 5271TIP3    H137372   2.560   0.323   8.154 -1.3267  1.4911 -0.6054
 5271TIP3    H237373   2.418   0.359   8.116 -2.7131 -2.4727  0.2482
 5272TIP3   OH237374   5.737   1.382   0.563  0.0926  0.2503 -0.1699
 5272TIP3    H137375   5.754   1.310   0.624 -1.2711  0.7087  0.8033
 5272TIP3    H237376   5.823   1.402   0.526  0.3799 -2.6150 -1.3728
 5273TIP3   OH237377   4.179   1.731   0.903  0.3946  0.0506 -0.0057
 5273TIP3    H137378   4.271   1.752   0.884  0.4426 -0.6221 -0.5373
 5273TIP3    H237379   4.162   1.651   0.854 -0.3837 -0.0162  0.3636
 5274TIP3   OH237380   4.224   1.285   8.444 -0.2576 -0.2750 -0.1247
 5274TIP3    H137381   4.317   1.311   8.446 -0.2080 -0.4609  0.2304
 5274TIP3    H237382   4.179   1.359   8.404  0.4190 -1.4200 -3.2917
 5275TIP3   OH237383   3.908   5.977   8.272  0.1636  0.2660 -0.1299
 5275TIP3    H137384   3.892   6.032   8.195 -0.1669  0.7186  0.2543
 5275TIP3    H237385   3.831   5.920   8.277  0.6445 -0.4511 -0.7016
 5276TIP3   OH237386   6.739   1.389   4.081 -0.1195  0.4779 -0.4203
 5276TIP3    H137387   6.789   1.466   4.054  0.7112 -0.2770 -1.0950
 5276TIP3    H237388   6.742   1.331   4.006  1.7162 -1.4389  1.0140
 5277TIP3   OH237389   3.141   4.897   7.447 -0.1935  0.3107  0.4970
 5277TIP3    H137390   3.059   4.850   7.436  0.2559  0.0587 -2.4060
 5277TIP3    H237391   3.118   4.989   7.440 -0.0579  0.1939 -2.4530
 5278TIP3   OH237392   5.062   1.988   2.464 -0.5925 -0.2709 -0.4213
 5278TIP3    H137393   5.025   1.937   2.536 -0.3316  0.6902  0.4189
 5278TIP3    H237394   5.149   1.950   2.450  0.1214  0.7042  1.0700
 5279TIP3   OH237395   1.172   5.247   7.052  0.1248 -0.3246  0.0441
 5279TIP3    H137396   1.101   5.278   6.995 -0.7703 -1.0620  0.7125
 5279TIP3    H237397   1.209   5.172   7.006  1.3595  0.8258 -0.9127
 5280TIP3   OH237398   4.152   1.221   2.041  0.4835 -0.4034  0.0288
 5280TIP3    H137399   4.238   1.198   2.005  1.2125  1.3442  0.5717
 5280TIP3    H237400   4.151   1.181   2.128  1.3040  0.6343  0.5390
 5281TIP3   OH237401   4.641   6.148   0.070 -0.0863 -0.0501  0.5755
 5281TIP3    H137402   4.688   6.158  -0.013  0.6577  2.0431  1.1681
 5281TIP3    H237403   4.603   6.061   0.066  1.4691 -0.7211 -1.1704
 5282TIP3   OH237404   4.002   2.978   8.113  0.2111 -0.6086  0.0275
 5282TIP3    H137405   3.974   2.945   8.198 -2.6141 -0.3070 -0.6834
 5282TIP3    H237406   3.991   3.073   8.119 -1.4629 -0.6969 -1.0892
 5283TIP3   OH237407   1.131   2.030   0.028  0.1454  0.0159  1.0876
 5283TIP3    H137408   1.045   1.989   0.023  0.5407 -0.8531  1.1562
 5283TIP3    H237409   1.126   2.088   0.104 -0.7375  0.8618  0.4041
 5284TIP3   OH237410   1.640   2.553   2.218  0.5346  0.2788  0.0908
 5284TIP3    H137411   1.672   2.609   2.147  1.7257  0.2483  0.5872
 5284TIP3    H237412   1.699   2.477   2.216 -0.8113 -0.8067 -0.3251
 5285TIP3   OH237413   0.819   5.440   0.351  0.0008 -0.0235  0.3369
 5285TIP3    H137414   0.890   5.501   0.370 -0.1014  0.8321 -1.7612
 5285TIP3    H237415   0.804   5.395   0.433  1.0299  1.7960  1.6000
 5286TIP3   OH237416   5.967   4.849   8.355 -0.0817 -0.3609 -0.0291
 5286TIP3    H137417   5.951   4.943   8.363 -0.5201 -0.1848 -2.2438
 5286TIP3    H237418   6.038   4.842   8.291  1.5455 -1.5068  1.8068
 5287TIP3   OH237419   3.629   2.941   2.633 -0.1560  0.1710  0.1689
 5287TIP3    H137420   3.617   3.034   2.650 -0.4516  0.3257 -0.8134
 5287TIP3    H237421   3.550   2.915   2.584  0.6185 -0.2341 -0.8979
 5288TIP3   OH237422   4.712   3.871   1.699  0.2587  0.1287  0.0077
 5288TIP3    H137423   4.725   3.839   1.609 -0.5911  0.3220 -0.1872
 5288TIP3    H237424   4.750   3.802   1.754 -2.4803 -1.8091 -0.3573
 5289TIP3   OH237425   4.920   1.367   7.773 -0.1165  0.3455 -0.0132
 5289TIP3    H137426   4.962   1.287   7.805  0.2430  0.6175  0.1917
 5289TIP3    H237427   4.826   1.350   7.782 -0.0338  0.0898  0.3726
 5290TIP3   OH237428   4.763   0.079   8.567 -0.1797  0.1787  0.0784
 5290TIP3    H137429   4.804   0.055   8.650 -0.5670  0.0693  0.2425
 5290TIP3    H237430   4.787   0.170   8.554 -0.0916  0.1883  0.3014
 5291TIP3   OH237431   4.807   1.797   0.697 -0.3371 -0.4403  0.1567
 5291TIP3    H137432   4.883   1.854   0.685 -0.2318 -0.4787  0.6149
 5291TIP3    H237433   4.837   1.711   0.667 -0.5344 -0.2387 -0.6492
 5292TIP3   OH237434   0.403   5.401   3.068  0.3842  0.2698  0.1335
 5292TIP3    H137435   0.391   5.310   3.096  0.2862  0.7025  1.5186
 5292TIP3    H237436   0.322   5.445   3.094 -0.0868  0.5391 -1.5947
 5293TIP3   OH237437   3.418   4.327   8.383  0.2996 -0.0286 -0.4050
 5293TIP3    H137438   3.322   4.332   8.386  0.2896 -0.0857 -0.6463
 5293TIP3    H237439   3.440   4.347   8.292  0.5880  1.1525 -0.0825
 5294TIP3   OH237440   6.707   4.883   0.792  0.5650 -0.4988  0.0772
 5294TIP3    H137441   6.651   4.821   0.839  1.6277 -0.8049  0.9790
 5294TIP3    H237442   6.645   4.941   0.747 -0.4565 -2.1824 -0.7943
 5295TIP3   OH237443   3.020   3.689   1.407 -0.4846  0.1506 -0.4461
 5295TIP3    H137444   3.099   3.642   1.380 -0.7931  0.4244 -1.9127
 5295TIP3    H237445   2.997   3.652   1.492  0.1899 -1.2160 -0.8405
 5296TIP3   OH237446   0.447   5.555   7.125  0.2887 -0.3215 -0.6753
 5296TIP3    H137447   0.438   5.650   7.138 -0.1903 -0.1829 -1.8260
 5296TIP3    H237448   0.366   5.530   7.080 -0.9151 -1.8203  2.1303
 5297TIP3   OH237449   6.344   5.732   1.873  0.3078  0.5457  0.2461
 5297TIP3    H137450   6.397   5.793   1.924 -0.3063  3.2124 -2.0488
 5297TIP3    H237451   6.258   5.773   1.869  0.0308 -0.1242 -1.8875
 5298TIP3   OH237452   4.849   0.234   8.021  0.1066 -0.0952  0.1062
 5298TIP3    H137453   4.893   0.152   8.045  2.1246  0.7240 -0.5728
 5298TIP3    H237454   4.792   0.209   7.948  0.9932 -0.8614 -0.3585
 5299TIP3   OH237455   1.716   0.046   2.273  0.2478 -0.3826 -0.0154
 5299TIP3    H137456   1.714  -0.038   2.229  0.3814 -0.5437  0.2862
 5299TIP3    H237457   1.757   0.029   2.358 -2.6371 -0.7108  1.4458
 5300TIP3   OH237458   4.404   0.662   2.439  0.1307 -0.1792 -0.0216
 5300TIP3    H137459   4.483   0.613   2.459  2.1766  1.5138 -3.1041
 5300TIP3    H237460   4.333   0.606   2.469  2.3620 -3.3811 -0.1646
 5301TIP3   OH237461   1.064   6.328   8.622 -0.4787 -0.4422  0.2691
 5301TIP3    H137462   1.023   6.319   8.536 -0.4486  1.9545 -0.0706
 5301TIP3    H237463   1.128   6.399   8.610 -0.0252 -0.4998  2.1126
 5302TIP3   OH237464   6.729   6.705   0.356 -1.0299  0.3241  0.3951
 5302TIP3    H137465   6.716   6.700   0.450 -2.8079 -0.8740  0.1432
 5302TIP3    H237466   6.643   6.729   0.321 -0.3243  1.0739 -0.9158
 5303TIP3   OH237467   1.652   5.613   8.748 -0.1153 -0.0112 -0.3241
 5303TIP3    H137468   1.649   5.605   8.843 -1.8412 -1.9274 -0.4811
 5303TIP3    H237469   1.560   5.626   8.722 -0.2133 -3.0677 -1.9137
 5304TIP3   OH237470   3.882   4.580   1.464  0.7336 -0.2026 -0.1946
 5304TIP3    H137471   3.898   4.669   1.495  0.3253  0.4157 -1.6925
 5304TIP3    H237472   3.941   4.569   1.389  1.6404 -1.6308  0.6757
 5305TIP3   OH237473   5.925   1.572   2.121 -0.1970  0.9859  0.3357
 5305TIP3    H137474   5.931   1.646   2.181 -0.8652  0.2384  1.3652
 5305TIP3    H237475   5.874   1.605   2.047 -1.4721  1.2535  1.2991
 5306TIP3   OH237476   0.392   4.572   0.701 -0.3818  0.6959  0.2690
 5306TIP3    H137477   0.392   4.501   0.765  0.6290  0.7503  0.3586
 5306TIP3    H237478   0.478   4.565   0.659 -0.6496  1.2747 -0.3854
 5307TIP3   OH237479   2.100   4.735   0.962  0.3698 -0.1017  0.1028
 5307TIP3    H137480   2.110   4.830   0.955  0.8705 -0.0234  1.6800
 5307TIP3    H237481   2.034   4.723   1.031 -2.3147 -0.8729 -2.3606
 5308TIP3   OH237482   4.821   3.172   0.259 -0.1922  0.5841  0.1555
 5308TIP3    H137483   4.855   3.144   0.344 -0.0555  0.9132  0.2129
 5308TIP3    H237484   4.730   3.143   0.259  0.3010 -1.0906 -0.3597
 5309TIP3   OH237485   4.337   2.091   2.100 -0.2203 -0.9508 -0.0970
 5309TIP3    H137486   4.330   2.000   2.127 -0.0490 -0.5142  1.5058
 5309TIP3    H237487   4.247   2.118   2.083 -0.3546 -1.1695  0.2745
 5310TIP3   OH237488   1.161   4.408   0.277 -0.0199  0.1488  0.5253
 5310TIP3    H137489   1.104   4.395   0.201 -0.1406  0.8911  0.4878
 5310TIP3    H237490   1.175   4.502   0.281 -1.6758  0.3676  2.6358
 5311TIP3   OH237491   6.388   5.472   3.089 -0.6558  0.1921 -0.2202
 5311TIP3    H137492   6.297   5.487   3.064 -0.9364 -0.6500  0.2650
 5311TIP3    H237493   6.420   5.559   3.113 -2.3971  0.1074  3.0704
 5312TIP3   OH237494   2.767   2.481   8.703  0.4056 -0.4618  0.1317
 5312TIP3    H137495   2.774   2.391   8.737 -0.5090 -0.4830  0.2963
 5312TIP3    H237496   2.855   2.502   8.674  1.1335 -0.6333  2.0539
 5313TIP3   OH237497   3.424   3.973   1.269 -0.2459  0.6775 -0.3925
 5313TIP3    H137498   3.339   3.940   1.296  0.4239 -2.0013 -1.2843
 5313TIP3    H237499   3.406   4.022   1.188 -0.8667 -0.5296 -1.0061
 5314TIP3   OH237500   4.662   1.261   7.523 -0.0497  0.0073  0.4697
 5314TIP3    H137501   4.731   1.304   7.471  0.8104 -0.6413  1.0559
 5314TIP3    H237502   4.583   1.271   7.470  0.7827 -0.5333 -0.9232
 5315TIP3   OH237503   1.152   3.347   1.880 -0.0881 -0.2564  0.3445
 5315TIP3    H137504   1.139   3.430   1.834 -0.6184 -1.1725 -1.2506
 5315TIP3    H237505   1.223   3.364   1.941  0.6470  1.0469 -0.8121
 5316TIP3   OH237506   4.708   5.725   7.809 -0.0606  0.4194  0.0693
 5316TIP3    H137507   4.711   5.811   7.851  1.2557 -0.2847  1.4685
 5316TIP3    H237508   4.794   5.687   7.824 -0.9186 -1.5543  0.3276
 5317TIP3   OH237509   5.626   2.716   7.659 -0.1453  0.3755 -0.0819
 5317TIP3    H137510   5.646   2.678   7.745  1.6122  3.0860  0.8660
 5317TIP3    H237511   5.544   2.764   7.673  0.5566  1.4779  0.3598
 5318TIP3   OH237512   5.045   0.044   8.129 -0.0594 -0.2106 -0.4200
 5318TIP3    H137513   5.105   0.028   8.201  0.2576  1.6011 -0.2418
 5318TIP3    H237514   5.100   0.081   8.060 -0.5740 -0.7660 -1.1438
 5319TIP3   OH237515   0.641   6.769   0.190 -0.4985 -0.8881  0.0342
 5319TIP3    H137516   0.553   6.757   0.157 -0.9062  1.0183  0.2829
 5319TIP3    H237517   0.683   6.829   0.128 -0.1689  0.0446  1.1027
 5320TIP3   OH237518   6.262   1.031   3.580 -0.0997  0.0639  0.0611
 5320TIP3    H137519   6.287   0.942   3.556  1.0927  0.5864 -0.7299
 5320TIP3    H237520   6.266   1.032   3.676  1.9983 -0.1859  0.0281
 5321TIP3   OH237521   2.667   0.231   1.706  0.2290 -0.1531  0.1466
 5321TIP3    H137522   2.595   0.176   1.676  1.6809 -2.2341  0.2781
 5321TIP3    H237523   2.746   0.189   1.671  1.4957  1.0656  1.4140
 5322TIP3   OH237524   1.189   3.278   7.582  0.5006  0.1873 -0.1297
 5322TIP3    H137525   1.272   3.313   7.549  0.6403 -0.6655 -0.7264
 5322TIP3    H237526   1.135   3.355   7.599 -0.0351  0.7186 -3.5186
 5323TIP3   OH237527   1.756   6.187   2.314  0.1795 -0.0056 -0.3130
 5323TIP3    H137528   1.737   6.240   2.237 -0.5533 -0.1536 -0.2395
 5323TIP3    H237529   1.686   6.209   2.376 -0.2098 -1.1328 -0.3259
 5324TIP3   OH237530   2.167   0.506   0.614  0.1537  0.4361  0.0353
 5324TIP3    H137531   2.131   0.571   0.674 -3.6997 -2.0342  0.7652
 5324TIP3    H237532   2.100   0.496   0.546 -0.0113 -3.4298  0.5540
 5325TIP3   OH237533   4.800   5.827   0.507  0.3484  0.2772 -0.3049
 5325TIP3    H137534   4.770   5.915   0.528 -1.0994 -0.2338 -0.1209
 5325TIP3    H237535   4.740   5.769   0.555  1.6788 -0.8079  0.1201
 5326TIP3   OH237536   3.831   6.625   3.243  0.4387  0.3255  0.0393
 5326TIP3    H137537   3.861   6.543   3.282 -0.6241  0.1291  0.5005
 5326TIP3    H237538   3.736   6.623   3.255  0.1370  0.5343 -2.0649
 5327TIP3   OH237539   6.597   4.683   1.672  0.1792  0.2218 -0.0754
 5327TIP3    H137540   6.542   4.653   1.745  2.5098  0.5869  1.9679
 5327TIP3    H237541   6.626   4.771   1.699  1.8450 -0.0210 -0.9762
 5328TIP3   OH237542   3.589   5.012   0.729 -0.4616  0.3076 -0.9058
 5328TIP3    H137543   3.595   4.926   0.770  2.9736  0.0735 -1.6096
 5328TIP3    H237544   3.541   4.997   0.647 -2.4997 -0.2619  0.3063
 5329TIP3   OH237545   5.535   5.813   8.648 -0.0939 -0.1171 -0.5017
 5329TIP3    H137546   5.538   5.853   8.735  0.7792 -0.8652 -0.1749
 5329TIP3    H237547   5.460   5.855   8.606 -0.3015  0.5389  0.4690
 5330TIP3   OH237548   4.069   6.471   2.407  0.2942 -0.5319  0.6147
 5330TIP3    H137549   4.099   6.535   2.342 -0.6447  0.5614  1.2158
 5330TIP3    H237550   4.117   6.391   2.386 -0.4866 -0.4399 -1.9087
 5331TIP3   OH237551   3.707   1.307   0.125 -0.2560 -0.2988  0.6176
 5331TIP3    H137552   3.793   1.314   0.166  0.1396 -3.7315  0.6770
 5331TIP3    H237553   3.651   1.272   0.194 -1.4679  0.8231  0.2403
 5332TIP3   OH237554   3.785   0.772   0.383 -0.1508 -0.4125  0.0570
 5332TIP3    H137555   3.762   0.746   0.294  1.8308 -1.2756 -0.2494
 5332TIP3    H237556   3.771   0.693   0.435 -0.8633 -0.0352  0.4664
 5333TIP3   OH237557   3.401   6.659   2.064  0.3101  0.3032  0.8570
 5333TIP3    H137558   3.381   6.740   2.111 -0.8066  0.3403  0.3477
 5333TIP3    H237559   3.458   6.686   1.992 -2.0692  1.1032 -0.8416
 5334TIP3   OH237560   2.224   6.390   2.816  0.0655 -0.1553 -0.0819
 5334TIP3    H137561   2.232   6.372   2.722 -3.1830 -1.6988 -0.1913
 5334TIP3    H237562   2.225   6.303   2.857 -1.8977  0.2375  0.9132
 5335TIP3   OH237563   1.660   1.624   8.512 -0.0145 -0.0299 -0.1387
 5335TIP3    H137564   1.729   1.603   8.574  0.7986  1.8713 -0.3174
 5335TIP3    H237565   1.678   1.715   8.487 -2.1359  0.2587 -0.7822
 5336TIP3   OH237566   2.077   1.995   1.693  0.2105  0.4430 -0.0865
 5336TIP3    H137567   2.062   1.905   1.665  1.1892 -0.2672  1.5788
 5336TIP3    H237568   1.999   2.017   1.744 -0.2286  0.7145 -0.8559
 5337TIP3   OH237569   5.170   4.112   2.594  0.3398 -0.0340  0.0463
 5337TIP3    H137570   5.138   4.059   2.667 -0.0798 -0.3944 -0.3945
 5337TIP3    H237571   5.196   4.195   2.634  1.0146 -0.5746  0.7471
 5338TIP3   OH237572   5.916   5.238   1.863  0.3969  0.0275 -0.1032
 5338TIP3    H137573   5.857   5.286   1.921  0.4177 -0.9881  0.8060
 5338TIP3    H237574   5.975   5.192   1.922 -0.4358 -2.1262 -0.8416
 5339TIP3   OH237575   5.655   4.475   0.084  0.0162  0.3809 -0.5903
 5339TIP3    H137576   5.732   4.494   0.031  0.3588  1.1020  0.1455
 5339TIP3    H237577   5.689   4.451   0.170 -0.5784  1.0992 -0.1395
 5340TIP3   OH237578   2.670   3.959   7.655 -0.3286  0.0308  0.1635
 5340TIP3    H137579   2.748   3.926   7.610 -0.2260  1.8907 -1.1155
 5340TIP3    H237580   2.695   3.960   7.747  1.1198  0.4428 -0.2077
 5341TIP3   OH237581   3.735   4.374   0.877 -0.2421 -0.3102 -0.3368
 5341TIP3    H137582   3.764   4.401   0.965 -1.9860 -1.8565  0.7750
 5341TIP3    H237583   3.803   4.409   0.819  1.6381 -0.2821  1.7210
 5342TIP3   OH237584   1.953   0.486   0.425 -0.5186 -0.1291  0.8770
 5342TIP3    H137585   1.948   0.580   0.410 -0.2537 -0.1716  0.4925
 5342TIP3    H237586   1.891   0.469   0.496 -0.1100  0.4203  1.3713
 5343TIP3   OH237587   6.654   0.176   0.313 -0.4535 -0.2368  0.3127
 5343TIP3    H137588   6.621   0.096   0.355  1.7088 -1.1723  0.3645
 5343TIP3    H237589   6.748   0.174   0.329  0.1169  0.7097 -2.3934
 5344TIP3   OH237590   3.936   3.139   2.219  0.0076  0.6230  0.7423
 5344TIP3    H137591   3.996   3.108   2.151 -1.2458  0.1658 -0.1791
 5344TIP3    H237592   3.927   3.233   2.201 -2.3098  0.0952 -1.4047
 5345TIP3   OH237593   2.901   5.866   2.106  0.4954 -0.2795 -0.2668
 5345TIP3    H137594   2.983   5.831   2.070 -0.0165 -0.9747 -0.7542
 5345TIP3    H237595   2.909   5.853   2.200  1.1817  0.1644 -0.2526
 5346TIP3   OH237596   4.507   1.041   1.079  0.1497  0.2606 -0.2630
 5346TIP3    H137597   4.485   1.125   1.117 -0.6483  0.3336 -0.8597
 5346TIP3    H237598   4.552   0.994   1.149  1.5028  1.5327 -0.2221
 5347TIP3   OH237599   1.957   3.161   6.848  0.3695 -0.3617 -0.2326
 5347TIP3    H137600   1.977   3.245   6.806 -1.3443  1.0843  1.6652
 5347TIP3    H237601   2.022   3.152   6.917 -0.3584  0.2131  0.5536
 5348TIP3   OH237602   6.672   1.120   3.037  0.3493 -0.1656  0.4564
 5348TIP3    H137603   6.679   1.103   2.943  0.2929 -1.7943  0.7081
 5348TIP3    H237604   6.588   1.080   3.062  1.9099 -2.9472  1.7611
 5349TIP3   OH237605   2.248   5.057   1.520 -0.0474 -0.2408  0.2354
 5349TIP3    H137606   2.239   5.096   1.607  1.0520  0.0320  0.2420
 5349TIP3    H237607   2.336   5.017   1.521  0.3320  0.5270 -1.0473
 5350TIP3   OH237608   1.484   6.440   2.415 -0.3425 -0.2813 -0.3605
 5350TIP3    H137609   1.555   6.462   2.356 -0.5826 -2.1725 -1.4133
 5350TIP3    H237610   1.463   6.349   2.396 -4.3355  0.6662 -1.5078
 5351TIP3   OH237611   4.449   2.950   0.850 -0.0483  0.4042 -0.1335
 5351TIP3    H137612   4.432   2.860   0.878  1.1682  0.4690  0.8835
 5351TIP3    H237613   4.412   2.955   0.761  1.1186 -1.5405 -0.7918
 5352TIP3   OH237614   1.840   2.085   1.487 -0.0565 -0.3933  0.8685
 5352TIP3    H137615   1.756   2.045   1.509 -0.2759 -1.6720 -1.9342
 5352TIP3    H237616   1.818   2.171   1.452 -0.1817 -0.6952  0.2118
 5353TIP3   OH237617   0.849   6.603   8.069  0.2316 -0.8506 -0.7050
 5353TIP3    H137618   0.940   6.632   8.058 -0.1831  1.0709  0.3972
 5353TIP3    H237619   0.819   6.650   8.147 -1.0428 -3.1510  0.2719
 5354TIP3   OH237620   3.312   5.839   3.110 -1.1125  0.2614 -0.4599
 5354TIP3    H137621   3.257   5.916   3.092  0.1759  1.8816  1.9891
 5354TIP3    H237622   3.373   5.869   3.178  0.1561 -2.6530 -0.1922
 5355TIP3   OH237623   6.629   2.589   1.016  0.0064 -0.5814 -0.8275
 5355TIP3    H137624   6.696   2.633   1.070 -0.1173 -1.5353  0.1526
 5355TIP3    H237625   6.674   2.570   0.933  1.3919 -2.2302  0.2058
 5356TIP3   OH237626   1.503   5.126   7.040  0.1683  0.1497 -0.1512
 5356TIP3    H137627   1.455   5.198   6.999 -0.0186 -0.5524 -1.2094
 5356TIP3    H237628   1.440   5.054   7.046  0.4878 -0.0955  0.4317
 5357TIP3   OH237629   6.563   5.853   2.349  0.2332  0.2158 -0.3405
 5357TIP3    H137630   6.632   5.919   2.338 -2.2217  2.9685 -0.3068
 5357TIP3    H237631   6.548   5.819   2.261  2.0382 -0.9733 -0.2456
 5358TIP3   OH237632   3.929   5.010   7.737  0.4621 -0.2976 -0.5800
 5358TIP3    H137633   3.869   4.948   7.779 -1.1615  0.7328 -1.2910
 5358TIP3    H237634   3.874   5.061   7.678  1.8176  1.5140 -0.3703
 5359TIP3   OH237635   1.758   6.675   1.460  0.7507 -0.2194 -0.5024
 5359TIP3    H137636   1.717   6.628   1.388  0.5497  0.0448 -0.5634
 5359TIP3    H237637   1.741   6.768   1.441  0.0926 -0.1782  0.2441
 5360TIP3   OH237638   3.858   2.166   7.968  0.6224  0.4872  0.0669
 5360TIP3    H137639   3.781   2.181   8.023  0.1428 -0.3532 -0.3461
 5360TIP3    H237640   3.888   2.078   7.993  0.4671  0.1425 -0.9069
 5361TIP3   OH237641   5.563   2.430   7.609  0.1960 -0.5630 -0.1794
 5361TIP3    H137642   5.595   2.510   7.650  0.1419 -0.0626 -1.0775
 5361TIP3    H237643   5.602   2.431   7.521 -0.8138 -0.8643 -0.6478
 5362TIP3   OH237644   0.876   5.072   8.279 -0.3603 -0.8599 -0.1561
 5362TIP3    H137645   0.966   5.101   8.293 -0.4176 -0.5388 -0.4480
 5362TIP3    H237646   0.851   5.032   8.362  0.1703 -1.2700 -0.1883
 5363TIP3   OH237647   0.978   6.395   2.170  0.5632 -0.4522 -0.5680
 5363TIP3    H137648   0.894   6.348   2.163  0.6368 -0.6010 -0.4552
 5363TIP3    H237649   1.023   6.352   2.243  0.0340  0.7268  0.4739
 5364TIP3   OH237650   4.920   2.727   0.064 -0.4302  0.4433 -0.2483
 5364TIP3    H137651   4.982   2.687   0.003  0.7983  1.1902  0.4692
 5364TIP3    H237652   4.907   2.815   0.030  0.0692  0.7819  0.4031
 5365TIP3   OH237653   6.669   5.218   2.360 -0.7117  0.5297  0.8019
 5365TIP3    H137654   6.594   5.180   2.313 -0.4065  0.2047  0.5736
 5365TIP3    H237655   6.702   5.146   2.414  1.2398 -0.2474 -1.2807
 5366TIP3   OH237656   3.753   5.343   1.960 -0.4103 -0.4493  0.6128
 5366TIP3    H137657   3.796   5.426   1.982 -1.1984 -0.1643  1.0954
 5366TIP3    H237658   3.683   5.335   2.024  0.3965 -2.0863  1.3489
 5367TIP3   OH237659   1.937   2.482   2.001 -0.6811  0.1736  0.0162
 5367TIP3    H137660   1.979   2.551   1.950 -2.7057  1.1449 -0.4353
 5367TIP3    H237661   2.010   2.430   2.035  0.8603 -0.6207 -3.8813
 5368TIP3   OH237662   1.941   0.785   1.526 -0.1462  0.1150 -0.0509
 5368TIP3    H137663   1.917   0.876   1.542  0.7421  0.6485 -1.5775
 5368TIP3    H237664   2.031   0.779   1.558  0.0515 -0.0219 -0.6255
 5369TIP3   OH237665   3.867   3.525   8.153  0.0106  0.2666 -0.1435
 5369TIP3    H137666   3.800   3.587   8.184  0.6958  2.4800 -2.7038
 5369TIP3    H237667   3.924   3.512   8.229 -1.0514  1.6068  0.9343
 5370TIP3   OH237668   1.125   5.153   8.330 -0.0314 -0.2382 -0.0468
 5370TIP3    H137669   1.145   5.178   8.420 -0.9482  1.3720 -0.2546
 5370TIP3    H237670   1.209   5.155   8.285  0.2447  0.2602  0.4760
 5371TIP3   OH237671   6.429   5.440   0.710 -0.4590 -0.3556  0.3300
 5371TIP3    H137672   6.403   5.475   0.625 -0.3604  0.5393  0.6610
 5371TIP3    H237673   6.479   5.361   0.689  0.6581  0.5511 -0.5114
 5372TIP3   OH237674   2.510   2.999   0.195 -0.0240  0.3079 -0.7199
 5372TIP3    H137675   2.524   2.912   0.232 -1.5746  0.4981  0.4496
 5372TIP3    H237676   2.592   3.045   0.211 -0.0412 -0.1609  1.0060
 5373TIP3   OH237677   6.578   5.093   1.307  0.5164  0.3175  0.6329
 5373TIP3    H137678   6.497   5.126   1.268  1.0463  0.6146 -0.2482
 5373TIP3    H237679   6.596   5.013   1.258  0.0643 -0.4733  1.7202
 5374TIP3   OH237680   0.448   4.127   7.534 -0.1297  0.1242  0.2231
 5374TIP3    H137681   0.479   4.095   7.449 -0.1797  0.2076  0.1726
 5374TIP3    H237682   0.512   4.094   7.597  1.1442  1.8521 -0.0818
 5375TIP3   OH237683   5.338   4.502   8.541  0.2276 -0.1347  0.6501
 5375TIP3    H137684   5.299   4.443   8.477  1.3497  0.5619 -0.7387
 5375TIP3    H237685   5.275   4.574   8.548  0.5470  0.2815 -0.4844
 5376TIP3   OH237686   0.477   2.297   8.292 -0.4762  0.2263 -0.3239
 5376TIP3    H137687   0.387   2.271   8.312 -0.0050  0.3396  2.3167
 5376TIP3    H237688   0.474   2.393   8.286 -0.8594  0.1376 -2.4954
 5377TIP3   OH237689   6.395   2.999   2.637  0.3388 -0.2995 -0.4253
 5377TIP3    H137690   6.444   3.081   2.630 -2.1771  1.7039  2.8086
 5377TIP3    H237691   6.320   3.010   2.578  0.4379 -0.6807 -0.6285
 5378TIP3   OH237692   0.105   5.050   0.682 -0.0770  0.0813  0.2881
 5378TIP3    H137693   0.054   5.123   0.648 -1.8798 -0.4151  1.7739
 5378TIP3    H237694   0.041   4.995   0.728  1.4541 -1.6990  0.4117
 5379TIP3   OH237695   1.200   5.774   1.754 -0.0912  0.1081  0.2683
 5379TIP3    H137696   1.285   5.766   1.797 -0.3171 -2.6245  0.4023
 5379TIP3    H237697   1.166   5.684   1.752 -1.2736  0.4886 -3.2334
 5380TIP3   OH237698   5.438   3.251   8.509 -0.3500 -0.1017 -0.2721
 5380TIP3    H137699   5.389   3.220   8.585 -1.4356 -0.9940 -1.2936
 5380TIP3    H237700   5.507   3.307   8.546 -1.9522  0.9887  1.2581
 5381TIP3   OH237701   4.513   2.835   7.267 -0.1376  0.0517  0.0552
 5381TIP3    H137702   4.447   2.796   7.324 -0.7415 -0.6684 -1.1049
 5381TIP3    H237703   4.581   2.769   7.261 -0.9068 -0.6344 -1.4720
 5382TIP3   OH237704   5.451   3.520   8.650  0.0886  0.0423  0.3545
 5382TIP3    H137705   5.457   3.585   8.580  0.0427 -0.1230  0.1946
 5382TIP3    H237706   5.366   3.477   8.637 -0.4948  0.8841  1.2962
 5383TIP3   OH237707   5.785   1.720   2.344  0.6707  0.2768  0.1870
 5383TIP3    H137708   5.717   1.787   2.331  0.1897 -0.3848 -0.9034
 5383TIP3    H237709   5.757   1.672   2.421  0.0648  0.2269 -0.0558
 5384TIP3   OH237710   3.629   2.637   1.219  0.6526  0.3573  0.0203
 5384TIP3    H137711   3.573   2.693   1.273  1.9508  0.5940  1.1627
 5384TIP3    H237712   3.587   2.551   1.222 -0.7295  0.9623 -0.8026
 5385TIP3   OH237713   0.213   0.135   8.537 -0.3800  0.1370  0.4643
 5385TIP3    H137714   0.149   0.123   8.607 -0.3400  1.9313  0.8653
 5385TIP3    H237715   0.189   0.217   8.496 -0.2538 -0.7694 -1.5295
 5386TIP3   OH237716   1.385   5.545   1.888 -0.0661  0.0408  0.3486
 5386TIP3    H137717   1.298   5.527   1.924 -0.0578  1.1788  0.9554
 5386TIP3    H237718   1.430   5.461   1.893 -0.8387 -0.3599  0.8408
 5387TIP3   OH237719   3.999   0.417   2.110 -0.0815 -0.2453 -0.7572
 5387TIP3    H137720   3.995   0.342   2.050 -0.7543  0.2124 -1.2885
 5387TIP3    H237721   3.914   0.458   2.103 -0.7754 -1.0650  1.6787
 5388TIP3   OH237722   6.653   4.126   0.324 -0.3137  0.4715 -0.3610
 5388TIP3    H137723   6.612   4.174   0.252 -0.1522  0.9952 -0.1043
 5388TIP3    H237724   6.583   4.073   0.361 -0.1530 -0.7187 -1.6484
 5389TIP3   OH237725   0.822   5.894   0.152 -0.0268  0.2170 -0.4011
 5389TIP3    H137726   0.845   5.924   0.064  1.8465 -0.4599 -0.1821
 5389TIP3    H237727   0.737   5.850   0.141 -0.5987  1.5357 -1.5434
 5390TIP3   OH237728   2.620   6.592   8.740 -0.0784 -0.0396 -0.4284
 5390TIP3    H137729   2.631   6.576   8.646  0.8033  0.4023 -0.4118
 5390TIP3    H237730   2.537   6.639   8.746  0.3446  0.8364 -1.1057
 5391TIP3   OH237731   2.389   3.226   2.315  0.3107 -0.3978  0.0497
 5391TIP3    H137732   2.325   3.219   2.386  0.1873  0.7559  0.0660
 5391TIP3    H237733   2.341   3.200   2.236  0.2284 -0.9260  0.2730
 5392TIP3   OH237734   3.563   2.314   7.894 -0.0207 -0.4659  0.4366
 5392TIP3    H137735   3.596   2.230   7.926  0.5148 -0.8538 -1.0509
 5392TIP3    H237736   3.485   2.292   7.844 -0.9475  0.1499  1.5638
 5393TIP3   OH237737   3.801   2.409   7.859 -0.1804  0.3976  0.1422
 5393TIP3    H137738   3.707   2.392   7.846  0.0673 -1.6884  0.7365
 5393TIP3    H237739   3.832   2.335   7.912  2.0680  0.3338 -1.1252
 5394TIP3   OH237740   3.532   3.738   8.513  0.2910  0.2180  0.3965
 5394TIP3    H137741   3.483   3.814   8.547 -0.9086  0.3438 -1.4476
 5394TIP3    H237742   3.622   3.769   8.506  0.4188  0.4677  2.4798
 5395TIP3   OH237743   2.701   2.459   8.051 -0.8815 -0.2972  0.5090
 5395TIP3    H137744   2.658   2.434   7.969 -2.0896 -0.4092  1.1597
 5395TIP3    H237745   2.694   2.555   8.054 -0.7210 -0.2825  0.4229
 5396TIP3   OH237746   4.833   0.727   1.134  0.2602  0.6042 -0.0136
 5396TIP3    H137747   4.813   0.703   1.044 -1.1561 -0.3885  0.5331
 5396TIP3    H237748   4.927   0.746   1.133 -0.0625  2.5273 -2.0762
 5397TIP3   OH237749   1.115   0.959   1.149  0.6885  0.4762 -0.5998
 5397TIP3    H137750   1.075   1.041   1.120 -1.9613 -0.5922 -0.2559
 5397TIP3    H237751   1.202   0.984   1.179 -0.0703  3.1838 -0.3972
 5398TIP3   OH237752   4.543   5.141   0.245  0.6936  0.0940 -0.4936
 5398TIP3    H137753   4.601   5.214   0.267  0.6340  0.2364 -0.8099
 5398TIP3    H237754   4.581   5.102   0.166  1.6127 -1.1932  0.5394
 5399TIP3   OH237755   6.568   3.119   0.082 -0.8283 -0.1428 -0.1814
 5399TIP3    H137756   6.528   3.049   0.031  0.0182 -1.5248  0.9674
 5399TIP3    H237757   6.495   3.178   0.102 -2.3361 -2.3634  1.4981
 5400TIP3   OH237758   3.395   6.263   8.645  0.3240 -0.5071 -0.2181
 5400TIP3    H137759   3.336   6.187   8.638 -1.3263  0.7112  0.0199
 5400TIP3    H237760   3.386   6.307   8.561 -1.7808  1.5504  1.0033
 5401TIP3   OH237761   3.210   2.268   2.899  0.1821  0.0220  0.2705
 5401TIP3    H137762   3.305   2.263   2.902  0.1256 -2.2392  0.1189
 5401TIP3    H237763   3.191   2.333   2.831  1.6028  0.5861  0.3906
 5402TIP3   OH237764   1.137   3.863   0.140  0.2367  0.0640 -0.2123
 5402TIP3    H137765   1.176   3.834   0.058  1.6368  0.2108  0.3728
 5402TIP3    H237766   1.192   3.824   0.208 -0.4855  0.5077  0.6542
 5403TIP3   OH237767   6.607   3.417   7.957 -0.3457  0.4135  0.1572
 5403TIP3    H137768   6.570   3.481   7.897 -0.0121  0.4974  0.0398
 5403TIP3    H237769   6.538   3.352   7.969  0.0953 -0.4311 -1.5332
 5404TIP3   OH237770   3.700   5.047   1.651  0.1077  0.2838  0.2440
 5404TIP3    H137771   3.737   5.121   1.699 -3.4717  1.7575  1.1076
 5404TIP3    H237772   3.647   5.088   1.582  0.3093 -1.6116 -1.0882
 5405TIP3   OH237773   1.799   6.340   1.477 -0.2944 -0.9255 -0.1204
 5405TIP3    H137774   1.895   6.336   1.483 -0.1159  1.1259 -0.9403
 5405TIP3    H237775   1.774   6.396   1.550 -0.6694  0.1457 -1.0459
 5406TIP3   OH237776   2.448   0.105   0.892  0.3727 -0.1722  0.3439
 5406TIP3    H137777   2.468   0.075   0.804  1.3859 -1.9767  1.1366
 5406TIP3    H237778   2.530   0.143   0.924  0.4411 -0.8316  0.9891
 5407TIP3   OH237779   1.622   3.500   1.666  0.2366  0.7885  0.0126
 5407TIP3    H137780   1.555   3.479   1.600  1.0268  0.6822 -0.7655
 5407TIP3    H237781   1.683   3.558   1.620  0.2272  1.5873  0.9730
 5408TIP3   OH237782   1.768   3.793   3.009  0.3140  0.5598  0.0345
 5408TIP3    H137783   1.676   3.799   2.983  0.5945  1.3166 -0.8281
 5408TIP3    H237784   1.797   3.883   3.018  1.2690  0.3573 -0.7969
 5409TIP3   OH237785   0.010   1.378   1.472  0.1888 -0.1424  1.1600
 5409TIP3    H137786   0.029   1.418   1.387  0.7836 -2.5475  0.0518
 5409TIP3    H237787  -0.081   1.401   1.491 -0.2829 -0.3495 -0.6552
 5410TIP3   OH237788   4.307   3.761   2.498 -0.5365 -0.3102  0.3259
 5410TIP3    H137789   4.395   3.723   2.503 -0.3017 -0.3160 -2.2260
 5410TIP3    H237790   4.300   3.818   2.574  1.2333 -1.2052  1.2045
 5411TIP3   OH237791   2.164   2.297   0.893  0.6222 -0.2677 -0.1113
 5411TIP3    H137792   2.089   2.239   0.902  0.7511 -0.3530  0.4442
 5411TIP3    H237793   2.235   2.240   0.865  0.8484 -0.4565  0.8225
 5412TIP3   OH237794   3.258   2.791   8.312  0.1600 -0.1768 -0.3156
 5412TIP3    H137795   3.236   2.874   8.356  1.1566  0.1751 -0.4513
 5412TIP3    H237796   3.222   2.801   8.224 -1.5628 -0.7535  0.2965
 5413TIP3   OH237797   2.139   0.149   2.256 -0.1212  0.5167  0.0020
 5413TIP3    H137798   2.108   0.091   2.187 -0.9492  1.8985 -0.8310
 5413TIP3    H237799   2.065   0.209   2.273  0.0446  0.2212  2.0927
 5414TIP3   OH237800   4.965   2.192   1.518  0.2976 -0.3278 -0.2415
 5414TIP3    H137801   4.902   2.120   1.517 -0.4410  0.2514  1.2094
 5414TIP3    H237802   5.005   2.188   1.605 -0.5112  1.5963  0.2747
 5415TIP3   OH237803   3.200   0.872   2.442 -0.0040 -0.1929 -0.2896
 5415TIP3    H137804   3.144   0.842   2.514 -0.0882 -0.5052 -0.4797
 5415TIP3    H237805   3.170   0.820   2.366  2.3477 -2.3891  0.1632
 5416TIP3   OH237806   3.623   5.271   6.859  0.1254  0.2230 -0.0702
 5416TIP3    H137807   3.614   5.361   6.827  0.0124  0.6038  1.0182
 5416TIP3    H237808   3.669   5.225   6.787 -0.2279  1.0218 -0.8241
 5417TIP3   OH237809   5.797   2.778   2.134  0.1247  0.3279 -0.8262
 5417TIP3    H137810   5.854   2.704   2.151  0.1839  0.6925  0.7380
 5417TIP3    H237811   5.853   2.855   2.147 -1.0103  0.7626  2.5845
 5418TIP3   OH237812   5.555   1.625   7.880 -0.3071 -0.4198  0.4481
 5418TIP3    H137813   5.475   1.628   7.828  0.8939 -0.9458 -1.5451
 5418TIP3    H237814   5.626   1.636   7.815  1.2535 -0.6335  2.0463
 5419TIP3   OH237815   0.994   4.153   0.239 -0.3604  0.2945 -0.0455
 5419TIP3    H137816   0.947   4.070   0.230 -1.3046  0.8502 -0.3782
 5419TIP3    H237817   0.926   4.217   0.260  0.2075  1.1766 -0.8390
 5420TIP3   OH237818   6.546   2.813   1.211  0.1019  0.1997 -0.4942
 5420TIP3    H137819   6.525   2.722   1.188  0.2536  0.1617 -0.4813
 5420TIP3    H237820   6.461   2.856   1.218 -0.0532 -0.3019  1.0407
 5421TIP3   OH237821   3.988   5.443   1.026 -0.4731 -0.0141 -0.3809
 5421TIP3    H137822   4.076   5.407   1.012 -0.4079  0.0853 -0.2294
 5421TIP3    H237823   4.002   5.537   1.037 -0.6143  0.0223 -0.5081
 5422TIP3   OH237824   0.799   1.207   3.489  0.1714 -0.0191 -0.2813
 5422TIP3    H137825   0.847   1.135   3.449 -0.5919 -1.4165  1.1993
 5422TIP3    H237826   0.850   1.285   3.468  0.5905 -0.8551 -2.6296
 5423TIP3   OH237827   2.394   1.993   0.950  0.1664 -0.6136 -0.2259
 5423TIP3    H137828   2.451   2.060   0.914 -0.2596 -0.9346 -1.5509
 5423TIP3    H237829   2.417   1.913   0.903  1.1187 -1.6108  1.7631
 5424TIP3   OH237830   1.341   4.727   8.510 -0.3607 -0.8253  0.0910
 5424TIP3    H137831   1.258   4.775   8.506  0.0824 -0.0792 -0.6868
 5424TIP3    H237832   1.323   4.651   8.564 -1.1651  0.0813  1.1289
 5425TIP3   OH237833   3.185   4.109   0.469  0.3764  0.1824 -0.2228
 5425TIP3    H137834   3.118   4.046   0.493  0.6147 -0.0813 -0.2425
 5425TIP3    H237835   3.235   4.065   0.399  0.8687  0.1795  0.1269
 5426TIP3   OH237836   6.122   2.354   8.669 -0.3603  0.2578  0.2716
 5426TIP3    H137837   6.210   2.387   8.689  0.1478 -0.7455 -0.1991
 5426TIP3    H237838   6.124   2.336   8.575 -1.0657  0.2147  0.2632
 5427TIP3   OH237839   6.755   0.232   1.009 -0.7607  0.9834  0.4806
 5427TIP3    H137840   6.762   0.257   0.917 -0.9419  0.2250  0.2548
 5427TIP3    H237841   6.673   0.272   1.039 -0.3960  1.7477  0.4930
 5428TIP3   OH237842   1.520   1.351   1.129 -0.2608  0.1378  0.8767
 5428TIP3    H137843   1.453   1.386   1.071  1.3738  1.4411 -0.3114
 5428TIP3    H237844   1.515   1.405   1.208 -0.8703 -0.0474  0.9686
 5429TIP3   OH237845   4.520   3.075   2.228  0.2590  0.1349 -0.2410
 5429TIP3    H137846   4.485   2.986   2.234  0.1493  0.2321  0.6954
 5429TIP3    H237847   4.442   3.131   2.227  0.2916  0.1832 -1.8899
 5430TIP3   OH237848   0.261   3.745   1.128 -0.1786  0.0280 -0.1502
 5430TIP3    H137849   0.186   3.689   1.147 -1.4043  1.2809 -1.0633
 5430TIP3    H237850   0.336   3.685   1.123 -0.6802 -1.0453  2.8595
 5431TIP3   OH237851   1.069   5.529   8.038  0.2896 -0.1188  0.9334
 5431TIP3    H137852   1.071   5.523   8.134  0.5909 -0.5366  0.9027
 5431TIP3    H237853   1.113   5.449   8.008 -0.3485 -0.2984  0.4393
 5432TIP3   OH237854   4.538   2.263   0.927 -0.5050 -0.0902  0.0939
 5432TIP3    H137855   4.627   2.286   0.954 -0.1533 -0.1553 -0.9865
 5432TIP3    H237856   4.531   2.169   0.945  0.1632 -0.4042 -1.1715
 5433TIP3   OH237857   6.275   5.933   7.742  0.3614 -0.0276 -0.1234
 5433TIP3    H137858   6.303   5.947   7.832 -0.5209  1.6991 -0.0828
 5433TIP3    H237859   6.186   5.969   7.739  1.1585  1.9889 -2.1946
 5434TIP3   OH237860   2.060   2.560   0.790  0.3325 -0.2819  0.3130
 5434TIP3    H137861   2.042   2.615   0.866 -0.1511 -0.0374  0.0316
 5434TIP3    H237862   2.071   2.472   0.826 -0.7582 -0.3220  0.5930
 5435TIP3   OH237863   4.744   1.676   1.204  0.2949  0.2578  0.2157
 5435TIP3    H137864   4.681   1.660   1.274 -0.0025 -2.1702 -0.5225
 5435TIP3    H237865   4.692   1.669   1.124  1.0008  1.0217 -0.3214
 5436TIP3   OH237866   3.571   0.485   2.783  0.6571 -0.4844 -0.0548
 5436TIP3    H137867   3.487   0.507   2.824  0.7301  0.8610 -0.5519
 5436TIP3    H237868   3.636   0.504   2.851  0.7005  0.7340 -0.4021
 5437TIP3   OH237869   5.164   5.791   8.704 -0.6896  0.5883  0.5417
 5437TIP3    H137870   5.249   5.828   8.683 -2.0682  4.1401  0.4934
 5437TIP3    H237871   5.177   5.697   8.702  2.5676  0.9375 -2.1702
 5438TIP3   OH237872   0.729   3.545   0.008 -0.3925 -0.1124 -0.3375
 5438TIP3    H137873   0.788   3.617  -0.015  0.9987 -0.8821  0.6273
 5438TIP3    H237874   0.779   3.466  -0.013 -0.2863 -0.8104  2.2398
 5439TIP3   OH237875   4.791   2.831   0.427 -0.0532  0.2933 -0.1129
 5439TIP3    H137876   4.745   2.889   0.487 -1.7000  0.7936 -1.7627
 5439TIP3    H237877   4.731   2.821   0.352  1.6274 -0.7889 -1.3949
 5440TIP3   OH237878   0.737   5.373   7.625 -0.2476  0.6586 -0.2798
 5440TIP3    H137879   0.642   5.363   7.616 -0.4180  0.6772  1.2357
 5440TIP3    H237880   0.756   5.343   7.714  1.5385 -1.6995 -1.3634
 5441TIP3   OH237881   2.084   6.330   1.450 -0.1027  0.2664  0.2113
 5441TIP3    H137882   2.168   6.319   1.406 -0.2415  0.1259 -0.0189
 5441TIP3    H237883   2.091   6.414   1.495  0.1499  0.2684  0.1693
 5442TIP3   OH237884   1.373   2.902   1.876 -0.2336 -0.1405  0.1480
 5442TIP3    H137885   1.397   2.978   1.929 -2.2804  2.8961 -2.8528
 5442TIP3    H237886   1.315   2.851   1.932  0.9938  0.5731  2.1826
 5443TIP3   OH237887   2.689   6.381   1.621  0.0591 -0.1443  0.0533
 5443TIP3    H137888   2.608   6.329   1.617  0.7976 -1.5128  1.8706
 5443TIP3    H237889   2.725   6.364   1.708  1.1520  2.2604  0.1501
 5444TIP3   OH237890   3.385   4.095   1.030 -0.0863  0.5026 -0.2576
 5444TIP3    H137891   3.389   4.106   0.935 -0.9986  0.7888 -0.2687
 5444TIP3    H237892   3.314   4.152   1.058 -0.8486 -0.7260  0.4195
 5445TIP3   OH237893   6.403   2.143   7.105  0.8831  0.0944 -0.1819
 5445TIP3    H137894   6.493   2.162   7.130  1.1515  2.3982 -2.5008
 5445TIP3    H237895   6.352   2.216   7.139  0.1399 -0.3737 -0.2622
 5446TIP3   OH237896   1.376   0.708   1.071 -0.2143 -0.4558  0.0241
 5446TIP3    H137897   1.405   0.734   1.158  3.0698  0.0739 -1.1022
 5446TIP3    H237898   1.352   0.615   1.080  0.8343 -0.6256  1.3435
 5447TIP3   OH237899   5.441   2.966   1.004 -0.1451  0.3851  0.3344
 5447TIP3    H137900   5.345   2.963   1.004 -0.1451 -0.1682  1.5981
 5447TIP3    H237901   5.462   3.059   1.002 -0.6629  0.5123 -1.4795
 5448TIP3   OH237902   4.898   3.450   1.662  0.0863  0.3827  0.3899
 5448TIP3    H137903   4.892   3.533   1.709 -1.7278  0.0305  0.8615
 5448TIP3    H237904   4.910   3.385   1.731 -1.9956 -0.0762  0.3660
 5449TIP3   OH237905   3.057   5.710   7.899 -0.3073 -0.1158  0.0302
 5449TIP3    H137906   3.092   5.733   7.813  0.5411 -0.3308  0.3174
 5449TIP3    H237907   3.013   5.626   7.885  0.4085 -0.4837 -0.0535
 5450TIP3   OH237908   6.165   5.373   2.455  0.5263 -0.3238  0.3802
 5450TIP3    H137909   6.200   5.445   2.403  0.4372  0.0872  0.8755
 5450TIP3    H237910   6.241   5.333   2.497  0.8408 -1.8637 -1.5031
 5451TIP3   OH237911   3.300   5.705   1.661  0.0176  0.2537  0.1609
 5451TIP3    H137912   3.292   5.615   1.628  2.0351  0.0901  0.0072
 5451TIP3    H237913   3.290   5.760   1.584  0.3919  0.0831 -0.0105
 5452TIP3   OH237914   4.976   0.867   3.410 -0.4479 -0.0727  0.3487
 5452TIP3    H137915   4.958   0.777   3.383 -2.5882  0.6487 -0.8255
 5452TIP3    H237916   4.995   0.861   3.504  1.6971 -1.9717 -0.0989
 5453TIP3   OH237917   2.135   4.855   6.934  0.9717  0.2175 -0.3080
 5453TIP3    H137918   2.061   4.914   6.922  1.2891  0.2242 -2.7355
 5453TIP3    H237919   2.211   4.903   6.900  1.7043 -0.5931  0.1210
 5454TIP3   OH237920   3.934   3.825   2.456 -0.0300 -0.6499 -0.5309
 5454TIP3    H137921   3.960   3.734   2.443  0.3483 -1.1853  2.8802
 5454TIP3    H237922   3.913   3.831   2.550 -1.0381  2.5454 -0.8144
 5455TIP3   OH237923   3.903   4.262   8.188 -0.6215 -0.0180  0.5348
 5455TIP3    H137924   3.970   4.319   8.151 -0.5945 -0.5273 -0.2252
 5455TIP3    H237925   3.866   4.217   8.113 -1.4044 -0.1879  1.0133
 5456TIP3   OH237926   2.213   6.437   2.139 -0.0771  0.5064 -0.0525
 5456TIP3    H137927   2.260   6.355   2.151 -1.3501 -0.6029 -2.0539
 5456TIP3    H237928   2.280   6.505   2.146  1.3434 -0.8245 -0.3126
 5457TIP3   OH237929   6.114   4.226   2.317 -0.1571  0.1916  0.1391
 5457TIP3    H137930   6.114   4.208   2.411  1.0342  0.1222  0.1470
 5457TIP3    H237931   6.060   4.304   2.307  0.5256  0.7884  1.0113
 5458TIP3   OH237932   1.016   1.924   2.482  0.3983 -0.3268 -0.2962
 5458TIP3    H137933   0.955   1.922   2.408  1.5054 -0.2562 -1.2591
 5458TIP3    H237934   1.048   2.014   2.484  1.5905 -0.7159 -0.7938
 5459TIP3   OH237935   5.777   3.744   0.019  0.0462 -0.0710  1.1232
 5459TIP3    H137936   5.740   3.810  -0.040  1.2697 -0.2107  0.1716
 5459TIP3    H237937   5.713   3.737   0.090 -1.0443  0.7230  0.2509
 5460TIP3   OH237938   0.383   4.018   1.573  0.4014  0.6097  0.1639
 5460TIP3    H137939   0.290   4.039   1.565  0.6640  1.2174 -2.0543
 5460TIP3    H237940   0.385   3.939   1.627 -1.4315  0.3537 -0.0613
 5461TIP3   OH237941   4.861   3.239   0.560  0.3819 -0.0786 -0.4514
 5461TIP3    H137942   4.856   3.237   0.655  0.8806 -1.4651 -0.4368
 5461TIP3    H237943   4.784   3.289   0.533  0.4313  0.6444  0.6795
 5462TIP3   OH237944   2.234   3.250   7.330 -0.5453 -0.5960  0.0366
 5462TIP3    H137945   2.266   3.194   7.401  1.1137  1.6769  1.2394
 5462TIP3    H237946   2.312   3.270   7.278 -0.6941  1.7395  0.5639
 5463TIP3   OH237947   5.717   0.770   0.958 -0.3422  0.2084  0.5142
 5463TIP3    H137948   5.751   0.842   1.012 -0.1793 -0.6079  1.5234
 5463TIP3    H237949   5.785   0.703   0.962 -0.4205  0.0461 -0.5562
 5464TIP3   OH237950   2.839   4.264   8.343 -0.5884  0.6919 -0.0251
 5464TIP3    H137951   2.899   4.226   8.408 -0.5807  0.0791 -0.3851
 5464TIP3    H237952   2.769   4.303   8.395 -2.2339 -2.4591  0.3495
 5465TIP3   OH237953   5.610   4.480   8.286 -0.2387 -0.3780  0.0805
 5465TIP3    H137954   5.544   4.543   8.313 -0.6880 -0.0114 -1.7376
 5465TIP3    H237955   5.634   4.507   8.197  2.4232 -0.4526  0.6922
 5466TIP3   OH237956   2.793   6.740   0.142 -0.3421  0.2988 -0.5660
 5466TIP3    H137957   2.854   6.730   0.069 -0.3462  0.6051 -0.6099
 5466TIP3    H237958   2.707   6.722   0.104 -0.3472  0.4844 -0.6436
 5467TIP3   OH237959   5.722   4.426   0.696 -0.6131 -0.0678 -0.0325
 5467TIP3    H137960   5.794   4.377   0.655 -0.3335  1.3544 -1.3342
 5467TIP3    H237961   5.655   4.432   0.628 -1.2131  0.1942  0.5722
 5468TIP3   OH237962   4.198   1.666   1.855  0.5252 -0.4788  0.7279
 5468TIP3    H137963   4.183   1.753   1.891 -0.3634  0.1084 -0.9283
 5468TIP3    H237964   4.173   1.606   1.925 -0.1026  0.6079  1.4575
 5469TIP3   OH237965   1.546   5.946   7.222  0.4502 -0.0907  0.0423
 5469TIP3    H137966   1.477   5.979   7.164  0.9366 -0.8824 -1.0180
 5469TIP3    H237967   1.625   5.991   7.192  0.6821 -0.4118  0.1770
 5470TIP3   OH237968   5.516   4.639   7.829 -1.0812  0.3180  0.1235
 5470TIP3    H137969   5.493   4.702   7.898 -1.3670 -0.7706  1.0391
 5470TIP3    H237970   5.437   4.588   7.815 -0.7477 -0.0704 -0.3852
 5471TIP3   OH237971   4.702   3.804   1.411  0.6069 -0.0101 -0.0471
 5471TIP3    H137972   4.684   3.712   1.392  1.6811 -0.2625  0.0575
 5471TIP3    H237973   4.626   3.851   1.378  0.6037 -0.8212 -1.2728
 5472TIP3   OH237974   2.427   4.029   1.043 -0.2885  0.3389 -0.2186
 5472TIP3    H137975   2.502   4.071   1.002  0.3010  0.4745  0.9571
 5472TIP3    H237976   2.461   3.947   1.078 -1.1788 -0.6215 -1.4930
 5473TIP3   OH237977   3.434   2.017   6.953 -0.2200  0.0770 -0.3927
 5473TIP3    H137978   3.512   2.009   6.898  1.4311 -0.2719  1.8515
 5473TIP3    H237979   3.463   2.071   7.027 -2.4059  0.7263  0.0576
 5474TIP3   OH237980   0.101   2.354   0.583  0.4208 -0.6695  0.4150
 5474TIP3    H137981   0.185   2.352   0.629  1.0877  0.2655 -0.6935
 5474TIP3    H237982   0.067   2.265   0.591  1.5498 -1.0849  0.8531
 5475TIP3   OH237983   0.589   3.422   8.014 -0.7138  0.1737  0.1094
 5475TIP3    H137984   0.639   3.356   7.966  0.5905  2.4704 -1.8643
 5475TIP3    H237985   0.640   3.437   8.094 -0.0031  0.1450 -0.3337
 5476TIP3   OH237986   3.283   0.428   1.136  0.5693 -0.0957  0.3640
 5476TIP3    H137987   3.213   0.387   1.186 -0.8009  1.2829 -0.3585
 5476TIP3    H237988   3.276   0.521   1.156  1.7372  0.1562 -0.2893
 5477TIP3   OH237989   2.076   6.393   2.445 -0.3588  0.8534  0.2619
 5477TIP3    H137990   2.073   6.463   2.380 -0.4589  1.1300  0.5629
 5477TIP3    H237991   2.040   6.317   2.400  2.8551  0.0344 -1.2451
 5478TIP3   OH237992   0.100   6.684   0.164 -0.1755  0.5492 -0.2509
 5478TIP3    H137993   0.078   6.777   0.167 -2.3890  0.0656  0.1186
 5478TIP3    H237994   0.034   6.642   0.219  1.6481 -1.1181  0.8010
 5479TIP3   OH237995   2.063   4.423   0.672 -0.0803 -0.7727  0.1126
 5479TIP3    H137996   1.971   4.433   0.695  0.4001  0.8705  1.5227
 5479TIP3    H237997   2.110   4.469   0.741  1.8221 -1.7821 -0.4535
 5480TIP3   OH237998   0.820   4.067   8.541 -0.6534 -0.0293  0.4127
 5480TIP3    H137999   0.804   4.081   8.634 -1.9322 -2.0300  0.5653
 5480TIP3    H238000   0.732   4.056   8.504 -0.1270  0.1428 -0.9380
 5481TIP3   OH238001   2.817   5.238   7.192 -0.3221 -0.7247  0.3599
 5481TIP3    H138002   2.840   5.312   7.249 -0.7898 -0.9316  0.8264
 5481TIP3    H238003   2.787   5.279   7.111  0.2949 -0.4260  0.2798
 5482TIP3   OH238004   3.362   0.529   0.385  0.5018  0.2315  0.1944
 5482TIP3    H138005   3.291   0.590   0.364 -0.1584  0.3359  2.4670
 5482TIP3    H238006   3.320   0.444   0.390  1.5346 -0.6906 -3.6395
 5483TIP3   OH238007   1.686   4.757   7.437 -0.4484 -0.2325  0.1017
 5483TIP3    H138008   1.770   4.795   7.413 -0.0873  0.7302  2.5834
 5483TIP3    H238009   1.621   4.822   7.411 -0.1760  0.2126  0.5183
 5484TIP3   OH238010   6.292   0.615   1.590  0.2120 -0.3131 -0.4155
 5484TIP3    H138011   6.256   0.547   1.647  0.3801 -1.4998 -1.6843
 5484TIP3    H238012   6.381   0.629   1.623  0.5776 -1.5438 -0.8168
 5485TIP3   OH238013   6.449   4.876   1.891  0.3607  0.7046 -0.3827
 5485TIP3    H138014   6.374   4.922   1.853 -0.8075  0.7875  1.8694
 5485TIP3    H238015   6.526   4.923   1.858 -0.6896  2.4487 -0.4741
 5486TIP3   OH238016   0.676   0.258   0.464  0.2495 -0.1463  0.0959
 5486TIP3    H138017   0.673   0.200   0.541  1.5581 -0.0398  0.2515
 5486TIP3    H238018   0.731   0.212   0.401 -0.1007  0.1700 -0.4517
 5487TIP3   OH238019   2.235   4.786   7.891 -0.5493  0.1094 -0.5424
 5487TIP3    H138020   2.238   4.832   7.975 -1.6187 -0.2239 -0.3155
 5487TIP3    H238021   2.296   4.835   7.835  0.5731  0.0229  0.5662
 5488TIP3   OH238022   1.982   2.097   0.919  0.2451  0.1855  0.3475
 5488TIP3    H138023   1.986   2.025   0.982 -0.6833  0.0669  0.2924
 5488TIP3    H238024   1.996   2.055   0.834 -1.0171 -0.0631  0.2442
 5489TIP3   OH238025   3.414   3.014   0.938  0.7913 -0.1774 -0.4447
 5489TIP3    H138026   3.439   3.028   1.030  1.4274 -4.5645  0.2373
 5489TIP3    H238027   3.320   3.034   0.936  0.8364  0.3736  1.0573
 5490TIP3   OH238028   2.360   0.422   2.554  0.0223 -0.1291 -0.9959
 5490TIP3    H138029   2.351   0.407   2.648 -3.8754  1.4787 -0.9405
 5490TIP3    H238030   2.394   0.511   2.547  1.1924 -0.5622 -1.2051
 5491TIP3   OH238031   6.328   2.921   1.656 -0.0530 -0.0112  0.3925
 5491TIP3    H138032   6.368   2.895   1.739 -1.5974  1.0422  1.5397
 5491TIP3    H238033   6.257   2.857   1.643 -0.3407  0.3141  0.3367
 5492TIP3   OH238034   5.399   0.698   1.245 -0.1317  0.2281  0.2459
 5492TIP3    H138035   5.364   0.787   1.247  0.1675  0.3359  0.8424
 5492TIP3    H238036   5.322   0.643   1.230 -0.2807  0.6007 -0.4270
 5493TIP3   OH238037   5.676   2.792   8.040 -0.1927  0.1119 -0.1275
 5493TIP3    H138038   5.771   2.778   8.037  0.1322  1.0089  2.8128
 5493TIP3    H238039   5.639   2.711   8.005  1.6635 -1.2044  0.7685
 5494TIP3   OH238040   1.644   3.881   8.484 -0.2608 -0.1399  0.3767
 5494TIP3    H138041   1.665   3.808   8.426 -3.0338  0.1064 -1.1236
 5494TIP3    H238042   1.672   3.959   8.437  0.2284 -0.0761  0.7615
 5495TIP3   OH238043   1.062   2.041   7.942  0.4428 -0.3439 -0.2133
 5495TIP3    H138044   1.061   2.136   7.930 -0.2583 -0.4514 -1.1673
 5495TIP3    H238045   1.097   2.028   8.030  0.1222  0.8151  0.1048
 5496TIP3   OH238046   2.584   3.868   1.624 -0.6687 -0.3814 -0.7154
 5496TIP3    H138047   2.656   3.931   1.626  0.4888 -1.5992 -1.8137
 5496TIP3    H238048   2.550   3.867   1.714  0.4782  0.4577 -0.2503
 5497TIP3   OH238049   1.879   5.810   1.526  0.3329 -0.3016  0.3214
 5497TIP3    H138050   1.849   5.883   1.579 -2.4334 -1.3503  0.3643
 5497TIP3    H238051   1.868   5.839   1.435 -0.8523 -0.6474  0.3378
 5498TIP3   OH238052   3.516   2.767   0.388  0.3815  0.4306  0.0065
 5498TIP3    H138053   3.452   2.831   0.421  2.6031  1.3824  2.8782
 5498TIP3    H238054   3.546   2.804   0.305 -2.9847 -0.3035 -1.7136
 5499TIP3   OH238055   5.440   4.358   7.126 -0.2524  0.4541  0.8925
 5499TIP3    H138056   5.512   4.395   7.178  0.7557 -1.1042  0.6569
 5499TIP3    H238057   5.383   4.317   7.191  0.6338 -0.8685  0.8654
 5500TIP3   OH238058   1.553   4.733   7.792 -0.1222  0.1002  0.1941
 5500TIP3    H138059   1.513   4.684   7.721  1.1647  0.0299 -0.5084
 5500TIP3    H238060   1.609   4.669   7.837  2.3779  1.0652 -1.3562
 5501TIP3   OH238061   3.072   3.194   2.898 -0.2080  0.1433 -1.0921
 5501TIP3    H138062   3.157   3.207   2.940 -0.7020  0.4233 -0.1594
 5501TIP3    H238063   3.034   3.281   2.893 -1.0234 -0.1487 -0.2234
 5502TIP3   OH238064   1.164   2.309   1.401 -0.0340 -0.3261  0.1530
 5502TIP3    H138065   1.213   2.240   1.444 -0.0871 -0.1208  0.5461
 5502TIP3    H238066   1.089   2.265   1.362 -1.2511 -0.2162  2.2179
 5503TIP3   OH238067   2.196   4.828   0.670 -0.3512  0.3492  0.1873
 5503TIP3    H138068   2.120   4.780   0.701  0.7749 -1.4794  0.2305
 5503TIP3    H238069   2.265   4.809   0.733  0.6709  0.4232 -0.8623
 5504TIP3   OH238070   0.319   0.920   8.043  0.0134  0.1326 -0.1547
 5504TIP3    H138071   0.377   0.939   8.117  0.9964  2.5215 -1.4259
 5504TIP3    H238072   0.362   0.847   7.998  0.0903 -0.4851  0.8988
 5505TIP3   OH238073   1.477   0.075   0.400  0.2030  0.2123  0.0829
 5505TIP3    H138074   1.474   0.129   0.321  2.2953  1.5399  0.8346
 5505TIP3    H238075   1.395   0.096   0.446 -1.0041 -0.5078 -1.6215
 5506TIP3   OH238076   4.275   0.057   3.327 -0.1662  0.2800 -0.6091
 5506TIP3    H138077   4.285  -0.019   3.269 -0.6818  0.2113 -0.6188
 5506TIP3    H238078   4.182   0.079   3.321 -0.0774  0.7311 -0.3752
 5507TIP3   OH238079   2.415   5.453   0.144  0.3584  0.3909  0.3500
 5507TIP3    H138080   2.353   5.466   0.216  0.5970  2.1796  0.2899
 5507TIP3    H238081   2.441   5.542   0.119  0.4020 -0.1787 -1.8524
 5508TIP3   OH238082   3.197   1.550   8.087  0.3041 -0.6957  0.3216
 5508TIP3    H138083   3.129   1.511   8.032  0.7780  1.6902 -2.2025
 5508TIP3    H238084   3.155   1.565   8.171 -2.1845  0.1953 -0.9822
 5509TIP3   OH238085   5.763   5.434   2.007 -0.2790  0.3422 -0.6515
 5509TIP3    H138086   5.672   5.423   1.980 -1.1581  0.2760  2.0302
 5509TIP3    H238087   5.757   5.475   2.094  2.1835 -1.3345  0.4097
 5510TIP3   OH238088   5.780   3.504   1.889  0.2599 -0.8426 -0.3650
 5510TIP3    H138089   5.747   3.553   1.813  0.6168 -0.3800 -0.2260
 5510TIP3    H238090   5.715   3.436   1.904 -0.2767 -0.3679 -0.5232
 5511TIP3   OH238091   0.308   5.332   2.205 -0.1520  0.4387  0.3892
 5511TIP3    H138092   0.403   5.341   2.199 -0.3204  1.3189 -2.4515
 5511TIP3    H238093   0.294   5.239   2.225  1.3056  0.1216  0.0347
 5512TIP3   OH238094   1.276   1.550   8.023  0.0947  0.0562 -0.0127
 5512TIP3    H138095   1.363   1.523   7.995 -0.2022  0.1834 -1.0966
 5512TIP3    H238096   1.218   1.481   7.991 -0.4500  1.0288 -1.2150
 5513TIP3   OH238097   1.418   2.782   8.612 -0.7281  0.4194  0.1711
 5513TIP3    H138098   1.428   2.701   8.563 -0.9185  0.7773 -0.4709
 5513TIP3    H238099   1.328   2.810   8.595 -0.5256  0.9931  0.0296
 5514TIP3   OH238100   1.555   0.838   2.164  0.2298 -0.1911  0.1287
 5514TIP3    H138101   1.642   0.872   2.145  0.2945 -0.6952 -0.5405
 5514TIP3    H238102   1.556   0.817   2.257  0.9844 -0.6343  0.0272
 5515TIP3   OH238103   5.684   0.763   0.566  0.2094 -0.9305  0.1907
 5515TIP3    H138104   5.633   0.707   0.625 -0.8387 -0.3911 -0.1844
 5515TIP3    H238105   5.768   0.775   0.611 -0.3860 -0.9289  1.3385
 5516TIP3   OH238106   0.515   4.036   0.943 -0.5899  0.0275 -0.1093
 5516TIP3    H138107   0.535   4.125   0.911 -0.9936 -0.1442 -0.8603
 5516TIP3    H238108   0.519   3.982   0.865  1.2550 -0.9106  0.5779
 5517TIP3   OH238109   0.244   1.950   3.080  0.0871  0.4527 -0.4136
 5517TIP3    H138110   0.287   1.915   3.159 -0.3359 -0.0463 -0.4006
 5517TIP3    H238111   0.239   2.045   3.096  0.4288  0.4128 -0.0478
 5518TIP3   OH238112   1.332   2.649   0.307  0.0945 -0.2619 -0.6323
 5518TIP3    H138113   1.359   2.599   0.230  1.2730  0.7921 -0.9477
 5518TIP3    H238114   1.259   2.702   0.277  1.5090  1.2762 -1.5092
 5519TIP3   OH238115   0.514   1.299   0.450 -0.3472  0.1277  0.6178
 5519TIP3    H138116   0.422   1.300   0.426  0.3408  0.6346 -2.4748
 5519TIP3    H238117   0.543   1.389   0.438  0.9648 -0.4069 -0.5815
 5520TIP3   OH238118   5.755   1.343   8.195 -0.1856 -0.3716 -0.1553
 5520TIP3    H138119   5.692   1.273   8.179  0.4709 -0.4651 -2.8146
 5520TIP3    H238120   5.757   1.393   8.113  1.8320  0.7369  0.4977
 5521TIP3   OH238121   3.783   3.880   7.136 -0.5070  0.0187 -0.0576
 5521TIP3    H138122   3.714   3.815   7.127  1.0503 -1.6682 -0.4749
 5521TIP3    H238123   3.849   3.838   7.191  1.5377  0.3118 -2.1324
 5522TIP3   OH238124   6.482   1.786   7.789 -0.1252  0.1980  0.6636
 5522TIP3    H138125   6.406   1.781   7.847  1.1417 -1.5719  2.3122
 5522TIP3    H238126   6.457   1.736   7.711  0.0928 -2.4601  2.2085
 5523TIP3   OH238127   6.609   1.348   7.168 -0.1602  0.3875 -0.5432
 5523TIP3    H138128   6.619   1.254   7.154  1.5355  0.6888 -1.5686
 5523TIP3    H238129   6.603   1.385   7.080  1.0579  1.4058 -0.2297
 5524TIP3   OH238130   4.269   3.281   2.430 -0.3579 -0.5945 -0.1969
 5524TIP3    H138131   4.286   3.202   2.481  0.1821  0.7245  1.7685
 5524TIP3    H238132   4.176   3.299   2.445 -0.9283 -1.7596 -2.0542
 5525TIP3   OH238133   3.233   4.779   1.616  0.4306  0.7293  0.1971
 5525TIP3    H138134   3.253   4.838   1.689  2.4922  1.2775 -0.7560
 5525TIP3    H238135   3.156   4.819   1.574 -0.7047  0.4757  1.9225
 5526TIP3   OH238136   0.203   3.925   0.425  0.2475  1.3783  0.9505
 5526TIP3    H138137   0.141   3.854   0.409  1.2452  0.3982  1.3742
 5526TIP3    H238138   0.147   4.001   0.444 -0.8242  0.5786  1.0944
 5527TIP3   OH238139   5.441   2.712   0.177 -0.5645 -0.5281  0.2667
 5527TIP3    H138140   5.485   2.781   0.227 -3.1257  0.7728  0.8703
 5527TIP3    H238141   5.469   2.631   0.220 -0.4462  0.3802  2.0064
 5528TIP3   OH238142   0.096   1.210   7.652 -0.3940  0.0635 -0.3863
 5528TIP3    H138143   0.128   1.127   7.686 -0.9106  0.2720  0.6575
 5528TIP3    H238144   0.117   1.274   7.720  0.6440  0.9392 -1.4806
 5529TIP3   OH238145   2.237   3.559   0.633  0.6073 -0.0326 -0.1287
 5529TIP3    H138146   2.180   3.526   0.564  1.0629  0.2387 -0.6405
 5529TIP3    H238147   2.232   3.654   0.625  1.3591 -0.0062 -0.3729
 5530TIP3   OH238148   0.019   1.859   0.729 -0.2941  0.7353 -0.2590
 5530TIP3    H138149   0.048   1.939   0.686 -1.6772  0.7082 -1.3459
 5530TIP3    H238150   0.061   1.789   0.679  0.9683  0.7565  0.7326
 5531TIP3   OH238151   3.364   5.885   2.114  0.2910  0.2112  0.7080
 5531TIP3    H138152   3.341   5.941   2.041 -2.2873 -0.5223  0.8695
 5531TIP3    H238153   3.356   5.941   2.191  0.8997  0.4243  0.6234
 5532TIP3   OH238154   4.918   6.511   8.540 -0.1639 -0.0245  0.8052
 5532TIP3    H138155   4.929   6.459   8.619  2.3618 -0.3224  0.3596
 5532TIP3    H238156   4.941   6.450   8.469 -1.9164  0.3699 -0.1359
 5533TIP3   OH238157   3.615   5.755   0.626 -0.0391  0.2960  0.3419
 5533TIP3    H138158   3.664   5.768   0.544 -0.7747  0.5082 -0.0764
 5533TIP3    H238159   3.610   5.660   0.636 -0.5361  0.2582 -0.2272
 5534TIP3   OH238160   0.764   1.960   1.380 -0.3755  0.2307 -0.0698
 5534TIP3    H138161   0.838   1.914   1.341 -0.9372  0.0171 -0.9071
 5534TIP3    H238162   0.705   1.891   1.411 -1.0343  0.3539 -0.9788
 5535TIP3   OH238163   6.574   2.209   1.837  0.6895 -0.1207 -0.1173
 5535TIP3    H138164   6.600   2.212   1.745  0.2605  2.4339 -0.2502
 5535TIP3    H238165   6.632   2.272   1.879  0.1277 -0.4302  1.1484
 5536TIP3   OH238166   4.626   2.265   1.662 -0.0192  0.0162 -0.2826
 5536TIP3    H138167   4.715   2.236   1.642 -1.1989 -3.1805 -1.5434
 5536TIP3    H238168   4.580   2.261   1.579 -1.3273  2.0059  0.2605
 5537TIP3   OH238169   0.532   4.906   1.635  0.4948 -0.1240 -0.3389
 5537TIP3    H138170   0.518   4.956   1.554  1.0918 -0.6626 -0.7861
 5537TIP3    H238171   0.498   4.819   1.614  1.5783 -0.5543 -0.3683
 5538TIP3   OH238172   4.593   0.204   7.465 -0.5889  0.1796 -0.0734
 5538TIP3    H138173   4.687   0.199   7.447 -0.3002 -0.3340  1.3903
 5538TIP3    H238174   4.554   0.232   7.383  0.6680 -1.1547 -1.1810
 5539TIP3   OH238175   1.477   4.677   2.999  0.0000  0.6698  0.2373
 5539TIP3    H138176   1.423   4.630   2.935 -0.1125  0.2757  0.6163
 5539TIP3    H238177   1.545   4.719   2.947  0.3873 -0.3009 -0.0731
 5540TIP3   OH238178   1.317   3.614   8.433  0.1056 -0.0194  0.0193
 5540TIP3    H138179   1.335   3.532   8.387  0.5396 -0.6471  1.2667
 5540TIP3    H238180   1.283   3.672   8.365  0.6015 -0.9494 -1.0687
 5541TIP3   OH238181   4.520   4.538   0.436 -0.1983  1.1399  0.4513
 5541TIP3    H138182   4.506   4.460   0.489  1.9493  1.0582  0.9743
 5541TIP3    H238183   4.591   4.586   0.480  1.4828  1.2176 -2.1132
 5542TIP3   OH238184   3.911   4.680   1.797 -0.2357  1.5167  0.4385
 5542TIP3    H138185   3.837   4.639   1.843 -0.7565  0.1100 -1.5249
 5542TIP3    H238186   3.962   4.606   1.764  0.9738  2.4809  0.0751
 5543TIP3   OH238187   5.260   1.176   0.439  0.4003  0.4562 -0.2739
 5543TIP3    H138188   5.315   1.135   0.372  0.1405  1.1138 -0.8937
 5543TIP3    H238189   5.186   1.213   0.391  0.7621  1.9024  0.2190
 5544TIP3   OH238190   5.147   6.423   7.445  0.0209  0.1817  0.0118
 5544TIP3    H138191   5.216   6.460   7.390 -0.2459 -1.0788 -1.2120
 5544TIP3    H238192   5.123   6.495   7.504  1.1284  1.1990 -0.7271
 5545TIP3   OH238193   5.783   1.765   0.414 -0.4250  0.1836 -0.0432
 5545TIP3    H138194   5.732   1.696   0.457  0.6425  1.4272  3.5988
 5545TIP3    H238195   5.873   1.749   0.441  0.2727  1.3796 -1.5116
 5546TIP3   OH238196   2.339   3.159   0.963 -0.3279  0.4672 -0.4127
 5546TIP3    H138197   2.267   3.096   0.972 -0.3177  0.6177  0.9163
 5546TIP3    H238198   2.303   3.230   0.911 -0.6097 -0.2259 -1.1927
 5547TIP3   OH238199   1.433   3.905   0.637 -0.2244  0.6350 -0.1011
 5547TIP3    H138200   1.499   3.877   0.702  0.1721 -0.3875 -0.9107
 5547TIP3    H238201   1.474   3.886   0.553 -0.6521  2.1478 -0.6728
 5548TIP3   OH238202   0.263   5.725   8.652  0.0132  0.2497 -0.3525
 5548TIP3    H138203   0.180   5.711   8.697  1.1607 -3.2260  1.0057
 5548TIP3    H238204   0.310   5.788   8.707 -0.7752  0.3789  0.1842
 5549TIP3   OH238205   0.832   0.609   0.359 -0.6302  0.0610 -0.3968
 5549TIP3    H138206   0.759   0.566   0.404  0.5830 -0.4585  1.1203
 5549TIP3    H238207   0.804   0.700   0.350 -1.3760 -0.0867  0.3543
 5550TIP3   OH238208   3.357   4.557   0.344 -0.0038 -0.4311 -0.0539
 5550TIP3    H138209   3.277   4.605   0.323  0.4984  0.8468  0.8781
 5550TIP3    H238210   3.375   4.578   0.435  1.0586 -1.2065 -0.0694
 5551TIP3   OH238211   1.116   6.753   3.261  0.8023 -0.2373 -0.4196
 5551TIP3    H138212   1.100   6.658   3.264 -1.1099  0.0781  1.0642
 5551TIP3    H238213   1.206   6.762   3.292  1.0243 -1.5673 -0.5855
 5552TIP3   OH238214   0.778   0.293   1.953 -0.8623 -0.5041 -0.4737
 5552TIP3    H138215   0.827   0.213   1.973  2.0633  0.5218 -2.8259
 5552TIP3    H238216   0.725   0.269   1.877  0.0382 -0.2343 -1.1982
 5553TIP3   OH238217   6.575   6.220   2.841  0.4653 -0.3616  0.2721
 5553TIP3    H138218   6.484   6.247   2.854  1.0035  1.6074  0.2370
 5553TIP3    H238219   6.625   6.273   2.904  1.6176 -1.2243  0.1128
 5554TIP3   OH238220   3.160   3.905   1.289 -0.1536 -0.2255  0.4228
 5554TIP3    H138221   3.102   3.842   1.331 -1.0394  1.3442  1.6145
 5554TIP3    H238222   3.103   3.957   1.232  0.4379  0.0353  0.0507
 5555TIP3   OH238223   1.093   6.811   8.640  0.1747  0.0680 -0.2426
 5555TIP3    H138224   1.163   6.788   8.579  0.4900 -1.0058  0.5051
 5555TIP3    H238225   1.013   6.801   8.589  0.4633 -0.3470 -0.6237
 5556TIP3   OH238226   2.589   6.221   7.909  0.3896 -0.4256 -0.0140
 5556TIP3    H138227   2.590   6.311   7.878 -0.2005 -0.7309 -0.9550
 5556TIP3    H238228   2.652   6.175   7.854  0.6184 -0.6142  0.3978
 5557TIP3   OH238229   5.891   5.286   1.584 -0.8338  0.0304  0.3690
 5557TIP3    H138230   5.936   5.211   1.545 -1.0269  0.7682 -1.3656
 5557TIP3    H238231   5.892   5.268   1.678  2.7987 -0.1336  0.4202
 5558TIP3   OH238232   2.837   0.195   8.030  0.0851  0.5732  0.4152
 5558TIP3    H138233   2.843   0.251   7.953 -0.8211  0.1085 -0.0040
 5558TIP3    H238234   2.769   0.132   8.009  0.5047 -0.1750  1.2081
 5559TIP3   OH238235   1.490   5.260   8.007  0.4952 -0.0450 -0.2034
 5559TIP3    H138236   1.579   5.234   7.986  0.3339 -1.7500  1.1081
 5559TIP3    H238237   1.435   5.204   7.952  0.1924  0.5884 -0.5671
 5560TIP3   OH238238   2.040   4.842   2.929  0.2033 -0.2914  0.3244
 5560TIP3    H138239   1.985   4.769   2.899 -1.1054 -0.0683  2.0180
 5560TIP3    H238240   2.035   4.906   2.858 -1.3683 -0.4815  0.2124
 5561TIP3   OH238241   1.575   6.833   7.193  0.0974  0.3310 -0.7177
 5561TIP3    H138242   1.584   6.871   7.280  1.0349 -0.8008 -0.2944
 5561TIP3    H238243   1.658   6.853   7.149 -0.5817  1.3732 -1.5639
 5562TIP3   OH238244   1.738   0.779   8.080 -0.5617 -0.2542 -0.3698
 5562TIP3    H138245   1.787   0.828   8.146  0.5173  1.4231 -2.3305
 5562TIP3    H238246   1.662   0.835   8.061 -0.2949 -0.1965 -1.2990
 5563TIP3   OH238247   6.067   1.542   2.500 -0.1272  0.0841  0.0152
 5563TIP3    H138248   6.034   1.453   2.515 -0.0458  0.0983  0.2966
 5563TIP3    H238249   6.159   1.530   2.477 -0.1571  0.0843 -0.1000
 5564TIP3   OH238250   0.948   6.070   2.608  0.0765 -0.6615  0.0608
 5564TIP3    H138251   0.920   5.996   2.555 -1.0977  1.2382 -2.1224
 5564TIP3    H238252   0.878   6.082   2.673  0.4087 -1.5855  0.6094
 5565TIP3   OH238253   6.113   0.425   0.672 -0.3402 -0.7723 -0.6142
 5565TIP3    H138254   6.046   0.378   0.721 -0.4492 -0.4466 -0.4476
 5565TIP3    H238255   6.196   0.388   0.704 -0.4508 -1.6453 -1.3062
 5566TIP3   OH238256   4.708   5.590   1.818  0.0535  0.2009  0.1845
 5566TIP3    H138257   4.691   5.684   1.814  0.1284  0.1914 -0.5419
 5566TIP3    H238258   4.622   5.551   1.831 -0.0229  0.3493  0.1263
 5567TIP3   OH238259   1.937   5.996   0.436  0.0965 -0.9294  0.2824
 5567TIP3    H138260   1.984   5.927   0.484  0.4810 -1.3395 -0.6677
 5567TIP3    H238261   1.944   5.971   0.344  0.3929  0.4741 -0.1044
 5568TIP3   OH238262   3.654   2.213   8.162  0.3112 -0.3051  0.3391
 5568TIP3    H138263   3.572   2.215   8.113  0.1517 -0.4558  0.5934
 5568TIP3    H238264   3.633   2.253   8.246 -0.0388 -2.1490  1.1796
 5569TIP3   OH238265   4.014   6.189   3.187 -0.1771  0.3714  0.8740
 5569TIP3    H138266   4.103   6.190   3.222 -0.0423 -0.6594  0.5992
 5569TIP3    H238267   4.025   6.200   3.093 -0.4441  1.6114  0.9636
 5570TIP3   OH238268   0.183   5.925   2.245 -0.3612  0.5379  0.1736
 5570TIP3    H138269   0.252   5.859   2.254 -0.9343 -0.1582 -0.4400
 5570TIP3    H238270   0.214   5.982   2.174 -1.1701 -0.7839 -1.3067
 5571TIP3   OH238271   3.851   0.402   0.132  0.6295 -0.7503 -0.5158
 5571TIP3    H138272   3.801   0.321   0.138 -0.1381 -0.4391 -2.1445
 5571TIP3    H238273   3.907   0.402   0.210 -0.2815 -2.2021  0.1758
 5572TIP3   OH238274   1.112   3.158   8.733  0.4541  0.2125  0.4608
 5572TIP3    H138275   1.120   3.132   8.641 -1.8006  0.6349  0.0963
 5572TIP3    H238276   1.066   3.085   8.775  0.5674  0.4604  1.0303
 5573TIP3   OH238277   0.498   2.002   1.709 -0.3652  0.0973 -0.1399
 5573TIP3    H138278   0.512   2.078   1.765 -2.7214 -0.4026  1.2653
 5573TIP3    H238279   0.414   1.967   1.737  0.5044 -2.9073 -0.8897
 5574TIP3   OH238280   1.812   3.859   2.245  0.5439 -0.0660  0.1666
 5574TIP3    H138281   1.802   3.948   2.212  1.5033 -0.0722 -0.1458
 5574TIP3    H238282   1.724   3.835   2.274  0.2405  0.9179  0.1005
 5575TIP3   OH238283   0.932   2.821   1.106 -0.1324 -0.6097  0.7272
 5575TIP3    H138284   0.884   2.889   1.153  0.7768  0.2844  0.4091
 5575TIP3    H238285   0.938   2.748   1.168 -2.6087 -1.1085  0.4762
 5576TIP3   OH238286   0.747   5.940   8.236 -0.2527 -0.7102 -0.5904
 5576TIP3    H138287   0.710   5.971   8.153 -0.4138  0.4590 -0.1022
 5576TIP3    H238288   0.739   6.015   8.295  0.1339 -1.4304  0.4000
 5577TIP3   OH238289   5.804   6.163   0.204 -0.1541 -0.1058 -0.3315
 5577TIP3    H138290   5.892   6.200   0.204  0.1941 -0.9107 -0.1877
 5577TIP3    H238291   5.766   6.191   0.120 -0.4979  1.8966  0.4367
 5578TIP3   OH238292   6.549   1.440   2.972 -0.1750  0.8605  0.3521
 5578TIP3    H138293   6.559   1.531   3.000 -0.6172  0.2766  2.6161
 5578TIP3    H238294   6.630   1.397   3.000 -0.7135  0.2035  0.9638
 5579TIP3   OH238295   1.984   4.481   2.049 -0.3602  0.1519 -0.7848
 5579TIP3    H138296   1.927   4.528   1.988 -2.2607 -0.2403  0.5677
 5579TIP3    H238297   1.952   4.390   2.047 -0.4831  0.1207  0.7225
 5580TIP3   OH238298   3.804   6.421   7.330  0.2890 -0.1884  0.1679
 5580TIP3    H138299   3.763   6.341   7.299 -0.0314  0.2059 -0.4394
 5580TIP3    H238300   3.898   6.404   7.322  0.2171 -0.2831 -0.5349
 5581TIP3   OH238301   1.384   4.093   1.139 -0.1950  0.0395 -0.2487
 5581TIP3    H138302   1.327   4.162   1.105  0.7193  2.0737  2.0201
 5581TIP3    H238303   1.324   4.030   1.179 -1.0139  0.0816 -1.3884
 5582TIP3   OH238304   5.511   5.017   2.372 -0.0501  0.1383 -0.2013
 5582TIP3    H138305   5.578   5.070   2.416 -0.5916 -1.1742  2.4028
 5582TIP3    H238306   5.458   4.981   2.443 -1.7141 -1.2590 -2.0307
 5583TIP3   OH238307   2.680   6.027   1.161 -0.5190  0.5184  0.1358
 5583TIP3    H138308   2.620   5.952   1.158 -0.2814  0.3257  0.1656
 5583TIP3    H238309   2.766   5.988   1.171 -0.4037  0.8027  0.2569
 5584TIP3   OH238310   6.462   4.801   7.744  0.2253  0.4598  0.2928
 5584TIP3    H138311   6.467   4.707   7.760  1.2792  0.3395 -0.6123
 5584TIP3    H238312   6.379   4.813   7.697  0.7072 -0.2332 -0.7808
 5585TIP3   OH238313   4.554   1.984   8.134 -0.4218 -0.0623  0.1121
 5585TIP3    H138314   4.614   1.918   8.099 -0.7808  0.4906 -1.6794
 5585TIP3    H238315   4.610   2.041   8.187  0.0387 -1.2999  0.9831
 5586TIP3   OH238316   4.244   2.433   1.488 -0.5666  0.3102  0.4374
 5586TIP3    H138317   4.198   2.513   1.464  0.4848  0.6552 -0.5341
 5586TIP3    H238318   4.337   2.457   1.487 -0.2268 -0.9044  0.1144
 5587TIP3   OH238319   6.432   2.157   2.604  0.2247 -0.3111 -0.0393
 5587TIP3    H138320   6.390   2.224   2.550  0.4063 -0.8373 -0.8656
 5587TIP3    H238321   6.399   2.173   2.692 -0.2961  0.4115 -0.3498
 5588TIP3   OH238322   1.064   4.964   0.596 -0.4340  0.2596  0.6151
 5588TIP3    H138323   1.022   4.946   0.512 -0.7175  2.3083  0.2508
 5588TIP3    H238324   0.995   4.948   0.661  0.4465 -3.6697  0.7925
 5589TIP3   OH238325   5.054   2.617   1.203  0.3848  0.1752  0.7330
 5589TIP3    H138326   5.099   2.577   1.278  0.1239  0.9235  1.3133
 5589TIP3    H238327   4.970   2.646   1.239  0.6793  1.5011  0.4371
 5590TIP3   OH238328   0.820   0.973   3.274  0.6951 -0.1863 -0.7296
 5590TIP3    H138329   0.853   0.984   3.184  2.5239 -0.1278 -0.0844
 5590TIP3    H238330   0.898   0.977   3.329 -0.4680  0.5614  0.9489
 5591TIP3   OH238331   3.355   4.707   0.636 -1.0717  0.3411  0.5173
 5591TIP3    H138332   3.405   4.717   0.717 -1.4999 -0.2831  0.8712
 5591TIP3    H238333   3.368   4.789   0.589 -1.6828  1.1540  1.7121
 5592TIP3   OH238334   4.586   3.869   2.744  0.6130  0.5337  0.1332
 5592TIP3    H138335   4.663   3.826   2.708  0.6983 -0.9409  1.9240
 5592TIP3    H238336   4.598   3.864   2.839 -1.5494  0.5014  0.4638
 5593TIP3   OH238337   0.814   1.729   1.940 -0.0234  0.0261 -0.4104
 5593TIP3    H138338   0.848   1.765   1.859 -0.7160 -0.1929 -0.8084
 5593TIP3    H238339   0.719   1.738   1.932 -0.1019 -0.0776  0.3356
 5594TIP3   OH238340   0.087   4.632   7.815 -0.1016 -0.6969 -0.1297
 5594TIP3    H138341   0.002   4.639   7.773  0.3975 -0.9092 -1.2125
 5594TIP3    H238342   0.128   4.717   7.801 -0.2654 -0.4729  0.7044
 5595TIP3   OH238343   0.144   2.095   1.761  0.5469  0.0451  0.2720
 5595TIP3    H138344   0.176   2.063   1.677 -1.3231 -0.2331 -0.3880
 5595TIP3    H238345   0.117   2.016   1.808  0.5386  0.2841  0.6748
 5596TIP3   OH238346   5.167   4.809   7.851 -0.0999 -0.1461 -0.0946
 5596TIP3    H138347   5.072   4.802   7.842 -0.1604  0.2953  0.1953
 5596TIP3    H238348   5.181   4.831   7.943  0.1852  1.7428 -0.5546
 5597TIP3   OH238349   4.579   3.814   0.228  0.3802 -0.0114  0.2872
 5597TIP3    H138350   4.580   3.884   0.293 -0.0612  1.5782 -1.3098
 5597TIP3    H238351   4.633   3.847   0.156 -2.1376  0.0443 -1.7633
 5598TIP3   OH238352   2.060   0.757   1.151 -0.5834 -1.0284 -0.0929
 5598TIP3    H138353   2.087   0.679   1.199  0.0564 -0.2202  0.8940
 5598TIP3    H238354   2.065   0.828   1.215  0.3175  0.0875 -1.3356
 5599TIP3   OH238355   3.318   1.872   0.816  0.5380  0.2795  0.1147
 5599TIP3    H138356   3.390   1.810   0.825 -0.3607 -0.7415  0.4176
 5599TIP3    H238357   3.356   1.956   0.842  2.0454  0.0774 -1.3016
 5600TIP3   OH238358   2.773   3.304   7.926  0.1917 -0.7731 -0.7355
 5600TIP3    H138359   2.685   3.267   7.922  0.0064 -0.4288  0.0243
 5600TIP3    H238360   2.760   3.397   7.910  0.7104 -1.0426 -3.1747
 5601TIP3   OH238361   0.044   6.512   1.993 -0.1239 -0.3733 -0.0382
 5601TIP3    H138362   0.050   6.471   2.080 -2.3442  0.0566  0.3834
 5601TIP3    H238363   0.112   6.469   1.942  2.1969  0.3267  2.2441
 5602TIP3   OH238364   2.353   5.413   0.404  1.1426 -0.3577  0.8009
 5602TIP3    H138365   2.353   5.389   0.496 -1.3019 -0.1807  0.9059
 5602TIP3    H238366   2.263   5.399   0.375  1.5442  0.8244 -1.2412
 5603TIP3   OH238367   2.122   0.640   7.767 -0.1029  0.2722 -0.2110
 5603TIP3    H138368   2.083   0.640   7.680 -0.3584  0.2655 -0.0993
 5603TIP3    H238369   2.059   0.592   7.821  1.1156 -1.7325 -0.4801
 5604TIP3   OH238370   1.749   6.540   0.456  0.4940  0.0391 -0.6320
 5604TIP3    H138371   1.803   6.524   0.378  0.2673 -0.3884 -0.7063
 5604TIP3    H238372   1.698   6.460   0.466  0.1723  0.2806 -0.3221
 5605TIP3   OH238373   0.371   6.563   0.417 -0.0858  0.2754 -0.7288
 5605TIP3    H138374   0.436   6.512   0.466 -0.3455  1.8063  1.3578
 5605TIP3    H238375   0.288   6.519   0.436 -0.0579  0.2133 -0.7473
 5606TIP3   OH238376   6.319   1.677   1.811  0.0408 -0.2368  0.0457
 5606TIP3    H138377   6.324   1.760   1.765  0.8469  0.1444  0.7771
 5606TIP3    H238378   6.243   1.684   1.868 -0.0295 -0.0854 -0.0699
 5607TIP3   OH238379   0.144   1.737   7.347 -0.2634  0.4022 -0.1022
 5607TIP3    H138380   0.136   1.658   7.399  1.1918  0.6465  0.5300
 5607TIP3    H238381   0.058   1.748   7.307 -0.5682 -1.3310  0.0170
 5608TIP3   OH238382   3.099   0.355   2.719  0.1001 -0.1619 -0.2056
 5608TIP3    H138383   3.006   0.372   2.736  0.5801  1.6120  0.9291
 5608TIP3    H238384   3.145   0.430   2.758  2.2331 -2.3917  1.9599
 5609TIP3   OH238385   4.471   3.598   1.534 -0.7798  0.2163  0.5962
 5609TIP3    H138386   4.561   3.592   1.503 -1.3117 -0.2593 -0.9439
 5609TIP3    H238387   4.468   3.679   1.585  0.4551  0.3561  0.4689
 5610TIP3   OH238388   6.495   5.879   1.578  0.0134  0.5580  0.0314
 5610TIP3    H138389   6.521   5.795   1.615 -0.6196  0.7841  1.0378
 5610TIP3    H238390   6.435   5.916   1.643  0.4330  1.8699 -0.3035
 5611TIP3   OH238391   5.011   5.854   2.975 -0.2380  0.0291  0.1427
 5611TIP3    H138392   5.059   5.855   3.058  0.8172 -0.5021 -0.4548
 5611TIP3    H238393   4.967   5.769   2.974  2.0058 -1.1849 -1.0867
 5612TIP3   OH238394   0.227   4.420   7.898  0.7827  0.2635  0.0651
 5612TIP3    H138395   0.162   4.478   7.859 -0.8114 -0.4420  1.5048
 5612TIP3    H238396   0.277   4.387   7.824 -0.4149  0.9586 -1.1060
 5613TIP3   OH238397   3.193   6.228   7.766 -0.2859 -0.3334 -0.0466
 5613TIP3    H138398   3.181   6.308   7.715  1.0068 -1.1846 -1.8418
 5613TIP3    H238399   3.107   6.187   7.768 -1.2385  1.5811  1.8993
 5614TIP3   OH238400   3.269   0.688   1.212  0.1602 -0.4566  0.5159
 5614TIP3    H138401   3.252   0.736   1.293  0.6668 -0.1224  0.4296
 5614TIP3    H238402   3.236   0.746   1.143  3.4972  1.2501  0.1548
 5615TIP3   OH238403   4.050   5.749   2.116  0.2388  0.1069  0.1906
 5615TIP3    H138404   3.971   5.803   2.126  0.6298  0.5874  0.8196
 5615TIP3    H238405   4.027   5.665   2.156 -0.2188 -0.0397 -0.3661
 5616TIP3   OH238406   3.902   5.164   6.797 -0.3335  0.6048  0.4264
 5616TIP3    H138407   3.957   5.085   6.791 -0.8753  0.3151 -1.2724
 5616TIP3    H238408   3.955   5.233   6.757 -0.1770  0.9302  1.1873
 5617TIP3   OH238409   5.527   0.792   1.921 -0.6747  0.4851 -0.0526
 5617TIP3    H138410   5.517   0.886   1.904  1.2431  0.6580 -0.4519
 5617TIP3    H238411   5.558   0.787   2.011 -2.0975  0.1050  0.4540
 5618TIP3   OH238412   5.960   3.514   8.744 -0.3044  0.1152 -0.4271
 5618TIP3    H138413   6.012   3.541   8.668 -0.0957 -0.2620 -0.4171
 5618TIP3    H238414   5.909   3.592   8.766  0.5036  0.5998 -0.2204
 5619TIP3   OH238415   5.973   6.217   8.180 -0.4960 -0.1947 -0.2469
 5619TIP3    H138416   5.974   6.249   8.090 -1.3611 -0.4355 -0.3562
 5619TIP3    H238417   5.951   6.294   8.233  1.2751  0.2364 -0.0911
 5620TIP3   OH238418   0.067   3.122   2.840 -0.6049  0.6505 -0.3084
 5620TIP3    H138419   0.117   3.101   2.919 -0.8485  2.8405  0.4876
 5620TIP3    H238420   0.108   3.202   2.806  0.5059 -1.0177 -3.3495
 5621TIP3   OH238421   4.432   6.611   8.411  0.7768  0.3084 -0.1292
 5621TIP3    H138422   4.430   6.622   8.316  0.7571  0.5861 -0.0954
 5621TIP3    H238423   4.526   6.610   8.432  0.7781  0.4939 -0.1224
 5622TIP3   OH238424   1.825   4.253   1.024  0.3842 -0.0389  0.5116
 5622TIP3    H138425   1.770   4.186   1.065 -0.3568  0.0933 -0.2426
 5622TIP3    H238426   1.895   4.205   0.982  0.7233 -0.2272  1.2765
 5623TIP3   OH238427   5.838   2.255   7.541 -0.4228  0.0401  0.2935
 5623TIP3    H138428   5.921   2.275   7.497 -1.1121 -1.4579 -1.8726
 5623TIP3    H238429   5.780   2.328   7.516  0.0485  0.8006  1.3523
 5624TIP3   OH238430   3.578   6.695   3.001 -0.0959 -0.0138  0.1472
 5624TIP3    H138431   3.500   6.748   3.021 -0.8118 -0.3274 -1.6025
 5624TIP3    H238432   3.545   6.626   2.943  1.3863 -0.5407 -0.0928
 5625TIP3   OH238433   1.470   4.227   7.312 -0.1843  0.4146  0.0082
 5625TIP3    H138434   1.456   4.270   7.227 -0.2189 -0.3893 -0.4021
 5625TIP3    H238435   1.388   4.242   7.360 -0.7747 -0.4261 -0.6911
 5626TIP3   OH238436   1.691   6.276   7.956 -0.3058 -0.1647 -0.3934
 5626TIP3    H138437   1.728   6.357   7.921  0.1773  0.6106  1.7572
 5626TIP3    H238438   1.767   6.223   7.979 -0.5741 -2.0590 -3.2993
 5627TIP3   OH238439   2.729   3.941   7.914  0.5540 -0.2142 -0.3449
 5627TIP3    H138440   2.777   3.866   7.948  0.8124 -0.8891 -2.0919
 5627TIP3    H238441   2.682   3.975   7.990  0.6974 -1.9292  0.5780
 5628TIP3   OH238442   5.332   3.950   1.919 -0.0031 -0.2792 -0.2013
 5628TIP3    H138443   5.365   3.866   1.952 -0.7563 -0.6402 -0.3600
 5628TIP3    H238444   5.255   3.928   1.867 -0.2456  0.5187 -0.2015
 5629TIP3   OH238445   3.069   5.596   8.324 -0.5902  0.1261  0.1299
 5629TIP3    H138446   3.149   5.600   8.376 -0.4287  0.4045 -0.1333
 5629TIP3    H238447   3.065   5.681   8.280  0.1787 -0.7264 -1.6547
 5630TIP3   OH238448   2.543   4.056   8.744  0.0161 -0.9465  0.0455
 5630TIP3    H138449   2.616   3.998   8.764  0.1634 -1.0277 -0.7093
 5630TIP3    H238450   2.549   4.125   8.811 -1.0125 -2.5131  1.8473
 5631TIP3   OH238451   5.451   6.363   0.947  0.4383  0.6965 -0.2035
 5631TIP3    H138452   5.415   6.336   0.863  0.9054 -1.8584  0.3193
 5631TIP3    H238453   5.379   6.353   1.009  0.2811  1.9261 -0.1608
 5632TIP3   OH238454   6.269   1.739   7.971  0.3603 -0.0822 -0.3552
 5632TIP3    H138455   6.192   1.788   8.001  0.4444 -0.2103  0.0799
 5632TIP3    H238456   6.248   1.648   7.990  0.4045 -0.1704 -0.7227
 5633TIP3   OH238457   3.342   6.153   7.403  0.1001  0.0803 -0.2550
 5633TIP3    H138458   3.388   6.236   7.420  0.6714  0.3631 -2.7609
 5633TIP3    H238459   3.259   6.180   7.365 -0.1956 -0.4943 -0.0122
 5634TIP3   OH238460   5.256   0.815   8.462  0.1949  0.2098  0.0772
 5634TIP3    H138461   5.269   0.854   8.548 -0.9019  1.8089 -0.4439
 5634TIP3    H238462   5.226   0.887   8.407  0.4641 -0.8641 -1.5545
 5635TIP3   OH238463   0.828   5.942   3.124 -0.1733 -0.0844 -0.0628
 5635TIP3    H138464   0.850   6.035   3.113 -0.3045 -0.0937 -0.4003
 5635TIP3    H238465   0.736   5.936   3.099 -0.2289 -0.2685  0.1780
 5636TIP3   OH238466   6.652   3.857   1.859  0.5198 -0.1636 -0.4744
 5636TIP3    H138467   6.646   3.952   1.846  0.0009 -0.1455 -0.1643
 5636TIP3    H238468   6.717   3.827   1.795  1.1446  0.4852 -0.1550
 5637TIP3   OH238469   4.443   3.048   8.537  0.3878 -0.1053  0.2414
 5637TIP3    H138470   4.365   3.095   8.510  1.0974  0.7608 -0.3776
 5637TIP3    H238471   4.418   3.003   8.617 -0.7310  0.1773  0.0641
 5638TIP3   OH238472   0.539   4.003   7.312 -0.2421  0.2601 -0.3278
 5638TIP3    H138473   0.557   3.914   7.283 -0.8332 -0.6227  1.8155
 5638TIP3    H238474   0.514   4.049   7.232 -0.6016 -1.6687 -1.4020
 5639TIP3   OH238475   0.434   1.732   7.594  0.5921  0.0483 -0.2245
 5639TIP3    H138476   0.451   1.638   7.598 -0.0182 -0.0532  0.2392
 5639TIP3    H238477   0.511   1.769   7.551  0.0810 -0.8669 -2.0534
 5640TIP3   OH238478   1.162   5.708   8.592  0.5193 -0.4604 -0.2534
 5640TIP3    H138479   1.232   5.660   8.548  1.5792  1.3613 -0.6600
 5640TIP3    H238480   1.202   5.791   8.618 -0.9332 -0.2187  1.4148
 5641TIP3   OH238481   1.932   3.361   7.763  0.1209  0.0734 -0.2931
 5641TIP3    H138482   1.930   3.394   7.853 -1.3363  2.6122 -1.1599
 5641TIP3    H238483   1.898   3.272   7.769  1.8100 -0.5216  1.8603
 5642TIP3   OH238484   3.106   2.164   0.035 -0.0508 -0.5402 -1.0325
 5642TIP3    H138485   3.148   2.135  -0.046  2.2286 -0.9994  0.2016
 5642TIP3    H238486   3.085   2.256   0.020  1.0241 -0.4186 -1.9096
 5643TIP3   OH238487   4.614   4.168   1.476 -0.0068  0.2333  0.0616
 5643TIP3    H138488   4.596   4.203   1.564  1.6693 -1.7483  1.3064
 5643TIP3    H238489   4.703   4.198   1.457  0.1651 -0.5059 -0.3261
 5644TIP3   OH238490   0.304   3.771   8.071 -0.3155  0.5079 -0.2343
 5644TIP3    H138491   0.379   3.825   8.048  1.2936 -1.1281  0.9108
 5644TIP3    H238492   0.314   3.755   8.165 -2.3668  0.6170  0.0404
 5645TIP3   OH238493   1.696   4.988   2.161 -0.4159  0.7143  0.5834
 5645TIP3    H138494   1.731   4.932   2.093 -0.8404 -3.4192  3.4384
 5645TIP3    H238495   1.771   5.039   2.191  0.8208 -0.6825 -0.0102
 5646TIP3   OH238496   4.886   6.093   8.280 -0.6972  0.3686  0.0347
 5646TIP3    H138497   4.809   6.143   8.255 -1.5521 -0.1818  1.4206
 5646TIP3    H238498   4.957   6.127   8.225 -1.8108  1.2514 -0.8852
 5647TIP3   OH238499   0.385   4.678   8.113  0.0463  0.2045  0.5498
 5647TIP3    H138500   0.481   4.682   8.119  0.1672 -1.6748  0.4591
 5647TIP3    H238501   0.367   4.589   8.083 -1.7310  0.6039  0.3563
 5648TIP3   OH238502   3.527   3.656   7.430 -0.5983 -0.6859  0.0290
 5648TIP3    H138503   3.570   3.739   7.449  1.7514 -1.9338  0.5862
 5648TIP3    H238504   3.537   3.644   7.336 -0.6647 -0.4954 -0.0031
 5649TIP3   OH238505   1.495   6.251   2.925  0.2351 -0.2833 -0.0703
 5649TIP3    H138506   1.497   6.168   2.877  1.5270  0.3679 -1.2301
 5649TIP3    H238507   1.550   6.236   3.002  2.9999  0.2909 -1.8005
 5650TIP3   OH238508   0.400   3.777   3.227 -0.1570 -0.4463  0.7369
 5650TIP3    H138509   0.364   3.705   3.175 -0.5637  0.6879 -0.6204
 5650TIP3    H238510   0.323   3.830   3.249  0.3617  0.6934 -0.1024
 5651TIP3   OH238511   6.173   5.498   0.012  0.2124  0.3270  0.0331
 5651TIP3    H138512   6.245   5.487   0.074 -1.2428 -0.4929  1.6731
 5651TIP3    H238513   6.097   5.519   0.067 -1.4778 -1.8589 -1.2658
 5652TIP3   OH238514   4.130   1.457   0.791  0.1458 -0.4427 -0.5394
 5652TIP3    H138515   4.117   1.388   0.856  0.4944  0.3972  0.4377
 5652TIP3    H238516   4.061   1.441   0.726  0.7401 -2.2063 -0.7905
 5653TIP3   OH238517   2.992   5.091   1.960 -0.0118  0.6355 -0.6344
 5653TIP3    H138518   2.916   5.041   1.990  0.0625 -0.0918 -1.6223
 5653TIP3    H238519   2.977   5.104   1.866  0.6837  1.2115 -0.6716
 5654TIP3   OH238520   3.829   6.661   2.525 -0.0882 -0.2633  0.1016
 5654TIP3    H138521   3.917   6.684   2.554  0.8197 -1.4827 -1.4966
 5654TIP3    H238522   3.793   6.609   2.597  0.6219 -0.0046  0.6520
 5655TIP3   OH238523   1.681   2.786   7.594  0.3352  0.7774  0.2011
 5655TIP3    H138524   1.746   2.766   7.527 -0.1216  0.4371 -0.1496
 5655TIP3    H238525   1.718   2.750   7.675 -0.0073 -0.5927 -0.2374
 5656TIP3   OH238526   6.793   2.654   2.033 -0.0940 -0.3826  0.1776
 5656TIP3    H138527   6.842   2.587   2.082  1.0067  0.2169 -0.0755
 5656TIP3    H238528   6.830   2.651   1.945 -3.3688 -2.8369 -1.3493
 5657TIP3   OH238529   4.247   0.906   2.590  0.2012 -0.1601 -0.0283
 5657TIP3    H138530   4.335   0.936   2.613  1.3041 -2.0121 -1.5855
 5657TIP3    H238531   4.261   0.828   2.536 -2.4118 -0.6454 -0.1363
 5658TIP3   OH238532   2.053   1.555   2.149  0.2136 -0.4667 -0.0215
 5658TIP3    H138533   2.089   1.617   2.085  2.3251 -0.9725  0.5956
 5658TIP3    H238534   2.129   1.507   2.181 -1.1846 -2.3187  0.6714
 5659TIP3   OH238535   0.289   1.157   3.019 -0.3303  0.3220 -0.6126
 5659TIP3    H138536   0.291   1.077   2.967  0.3416 -0.1728  0.1447
 5659TIP3    H238537   0.254   1.130   3.104 -0.9924  1.0265 -0.6424
 5660TIP3   OH238538   2.570   3.976   1.883  0.0199  0.0368 -0.3048
 5660TIP3    H138539   2.626   4.016   1.816  0.9576  0.0353  0.4654
 5660TIP3    H238540   2.528   4.049   1.926  0.5410  0.1179  0.0712
 5661TIP3   OH238541   1.087   2.997   6.804 -0.1267  0.2717  0.2171
 5661TIP3    H138542   1.024   2.937   6.843 -0.7832  0.1254 -1.0008
 5661TIP3    H238543   1.171   2.951   6.808 -0.3894 -0.1869  0.4478
 5662TIP3   OH238544   2.053   1.861   2.361  0.3566 -0.3692  0.1528
 5662TIP3    H138545   1.981   1.855   2.423  0.2442  2.1082  0.3818
 5662TIP3    H238546   2.114   1.792   2.387 -1.1576 -1.4568  0.9531
 5663TIP3   OH238547   5.491   4.460   2.658 -0.4218 -0.0374 -0.2932
 5663TIP3    H138548   5.530   4.416   2.734  0.9722 -0.7791 -1.3973
 5663TIP3    H238549   5.538   4.543   2.652  0.7879 -0.7689 -1.4003
 5664TIP3   OH238550   1.927   5.016   6.890 -0.4002  0.3261  0.3328
 5664TIP3    H138551   1.842   4.976   6.874 -0.0712  0.0555 -0.8950
 5664TIP3    H238552   1.915   5.109   6.872 -0.2542  0.1618 -0.6547
 5665TIP3   OH238553   1.483   0.438   7.363 -0.2141  0.2083 -0.1798
 5665TIP3    H138554   1.473   0.378   7.289 -1.1553 -0.3960  0.4218
 5665TIP3    H238555   1.406   0.495   7.359 -0.1743  0.2928  0.2221
 5666TIP3   OH238556   3.462   0.258   0.581 -0.3128  0.3028  0.0088
 5666TIP3    H138557   3.512   0.299   0.511 -0.6977  2.4983  0.9495
 5666TIP3    H238558   3.390   0.319   0.599 -1.1913 -1.0031  1.1849
 5667TIP3   OH238559   2.212   5.682   8.243  0.2077 -0.6343 -0.1547
 5667TIP3    H138560   2.237   5.772   8.226 -1.9090  0.0738  0.2112
 5667TIP3    H238561   2.180   5.682   8.334 -1.9468 -1.1964 -0.8405
 5668TIP3   OH238562   1.756   3.239   2.322  0.2417  0.6770 -0.5354
 5668TIP3    H138563   1.849   3.222   2.305  0.2341  0.9308 -0.8535
 5668TIP3    H238564   1.755   3.286   2.405  0.5221  1.8943 -1.1841
 5669TIP3   OH238565   1.800   4.758   0.444 -0.4154  0.0389 -0.1022
 5669TIP3    H138566   1.775   4.685   0.388 -0.4294 -0.4022  0.4764
 5669TIP3    H238567   1.855   4.813   0.389 -0.3407 -0.4450 -0.5130
 5670TIP3   OH238568   5.634   6.296   8.006 -0.8765  0.5780 -0.1187
 5670TIP3    H138569   5.539   6.300   8.005 -0.8779  1.7750  1.2530
 5670TIP3    H238570   5.656   6.276   8.098  0.1998  0.4573 -0.3849
 5671TIP3   OH238571   5.264   3.046   2.218  0.3456  0.5761 -0.4084
 5671TIP3    H138572   5.246   3.054   2.312  2.8270  1.2607  0.0609
 5671TIP3    H238573   5.299   2.957   2.208  2.2515  1.2718 -0.2459
 5672TIP3   OH238574   3.417   1.122   3.117  0.3623 -0.7613  0.1312
 5672TIP3    H138575   3.337   1.161   3.150  0.7065 -0.9767  1.2531
 5672TIP3    H238576   3.449   1.184   3.051 -1.1916 -1.1183 -1.0053
 5673TIP3   OH238577   5.292   5.870   1.432  0.0935  0.0740 -0.4452
 5673TIP3    H138578   5.312   5.905   1.519  0.1100 -0.8412 -0.0699
 5673TIP3    H238579   5.278   5.776   1.446 -0.7695  0.0546 -1.2928
 5674TIP3   OH238580   3.980   0.696   2.798 -0.1544 -0.3238  0.3650
 5674TIP3    H138581   3.907   0.742   2.756  0.9505  1.2602  0.0696
 5674TIP3    H238582   3.951   0.684   2.889 -0.4985  1.0326  0.4683
 5675TIP3   OH238583   1.074   2.773   1.805 -0.1685 -0.0792 -0.4861
 5675TIP3    H138584   1.079   2.718   1.883  0.9253  0.7010  0.0186
 5675TIP3    H238585   1.009   2.840   1.828 -1.3538 -1.0153 -1.0274
 5676TIP3   OH238586   2.156   1.105   3.409  0.2488  0.1280 -0.3333
 5676TIP3    H138587   2.069   1.145   3.409  0.4101  0.4852 -0.0964
 5676TIP3    H238588   2.216   1.177   3.388  0.5578  0.0465  0.2410
 5677TIP3   OH238589   3.860   0.442   7.120  0.1683  0.1420 -0.8662
 5677TIP3    H138590   3.901   0.374   7.174  0.9629  1.2600  0.0069
 5677TIP3    H238591   3.852   0.517   7.179 -0.6790  0.8081 -1.8027
 5678TIP3   OH238592   2.494   5.703   8.032  0.5917  0.0129 -0.4219
 5678TIP3    H138593   2.446   5.721   8.113  0.3027  2.6780 -1.0652
 5678TIP3    H238594   2.460   5.768   7.970  3.8605  0.9799 -1.4091
 5679TIP3   OH238595   6.486   2.414   7.932 -0.4022  0.1544  0.2733
 5679TIP3    H138596   6.422   2.470   7.889  0.9403  0.8920 -0.8530
 5679TIP3    H238597   6.561   2.414   7.872  0.5180 -0.9510  1.3851
 5680TIP3   OH238598   0.078   0.671   0.595 -0.1204  0.4934 -0.3178
 5680TIP3    H138599   0.111   0.585   0.620  1.0370  1.1240  0.3930
 5680TIP3    H238600   0.155   0.727   0.592 -0.5498  1.0680 -2.8555
 5681TIP3   OH238601   4.132   4.431   8.134  0.2621  0.1575 -0.5992
 5681TIP3    H138602   4.086   4.507   8.099 -0.3995 -0.0994 -0.3155
 5681TIP3    H238603   4.135   4.447   8.228  1.7622  0.7024 -0.7048
 5682TIP3   OH238604   6.392   2.862   3.392  0.1114  0.8121  0.0514
 5682TIP3    H138605   6.339   2.800   3.341 -0.5489  1.4581 -0.0580
 5682TIP3    H238606   6.466   2.809   3.424 -0.0844  0.1242 -0.5929
 5683TIP3   OH238607   3.573   5.540   0.186  0.4935  0.8786  0.4427
 5683TIP3    H138608   3.505   5.478   0.161  1.7620 -0.8552  1.1672
 5683TIP3    H238609   3.573   5.605   0.116  0.4268 -0.9824 -1.3575
 5684TIP3   OH238610   2.245   5.825   2.556 -0.3335 -0.1980 -0.1577
 5684TIP3    H138611   2.289   5.757   2.505  0.3847 -0.5014  0.8387
 5684TIP3    H238612   2.216   5.889   2.490  1.5535 -0.0050 -0.8618
 5685TIP3   OH238613   2.597   6.724   1.944 -0.1050  0.0292 -0.1023
 5685TIP3    H138614   2.679   6.774   1.939  0.1288 -0.2645  0.6162
 5685TIP3    H238615   2.581   6.715   2.038  0.1187 -1.6564 -0.1940
 5686TIP3   OH238616   0.941   0.414   0.647  0.0618  0.4126 -0.4247
 5686TIP3    H138617   0.880   0.397   0.576  0.2149 -1.3442 -0.1672
 5686TIP3    H238618   0.888   0.407   0.727  0.0025  1.8468 -0.3083
 5687TIP3   OH238619   0.631   2.964   0.244  0.0934  0.7371  0.1826
 5687TIP3    H138620   0.560   2.958   0.308  0.2888 -1.8268  0.2515
 5687TIP3    H238621   0.672   2.878   0.245  3.5850  2.2259  0.5288
 5688TIP3   OH238622   4.651   1.140   7.190 -0.3330 -0.0402  0.1108
 5688TIP3    H138623   4.594   1.164   7.263 -1.7714 -2.2232 -0.2163
 5688TIP3    H238624   4.646   1.215   7.130 -0.1711  1.2086  1.6039
 5689TIP3   OH238625   4.068   5.254   1.248 -0.1008 -0.3667  0.3054
 5689TIP3    H138626   4.032   5.194   1.313 -1.4766 -0.5579 -0.6116
 5689TIP3    H238627   4.006   5.326   1.244  0.8440  0.4875  0.3970
 5690TIP3   OH238628   1.135   6.410   1.124  0.1004  0.4536  0.0386
 5690TIP3    H138629   1.114   6.317   1.115  0.4142  0.3694  0.1517
 5690TIP3    H238630   1.221   6.419   1.081  1.3904  0.1457  2.4219
 5691TIP3   OH238631   6.562   2.202   0.224 -0.5297  0.2528  0.0783
 5691TIP3    H138632   6.640   2.174   0.270 -0.7342  0.0307  0.2900
 5691TIP3    H238633   6.552   2.140   0.152 -0.6277  0.1582  0.1735
 5692TIP3   OH238634   2.142   0.713   0.822 -0.0074 -0.1321 -0.0519
 5692TIP3    H138635   2.072   0.746   0.877  0.2305 -1.7839  1.3234
 5692TIP3    H238636   2.220   0.763   0.849  0.3415 -1.6622  1.9681
 5693TIP3   OH238637   5.696   0.711   2.153 -0.2928 -0.1169  0.5534
 5693TIP3    H138638   5.749   0.784   2.123 -1.8648  0.2434 -1.5434
 5693TIP3    H238639   5.753   0.634   2.143  0.5232  0.4979  0.4077
 5694TIP3   OH238640   2.244   6.015   0.975 -0.3661 -0.4169 -0.2063
 5694TIP3    H138641   2.317   6.065   0.937 -1.2341  0.4498 -0.7551
 5694TIP3    H238642   2.287   5.940   1.017  0.8943  0.3621 -0.0435
 5695TIP3   OH238643   5.485   1.108   0.279 -0.3560 -0.3803  0.5364
 5695TIP3    H138644   5.535   1.190   0.279 -1.3954  0.2757 -0.6435
 5695TIP3    H238645   5.550   1.041   0.303  0.9510  0.5334 -0.3123
 5696TIP3   OH238646   5.141   5.858   0.796 -0.0494  0.4130 -0.5208
 5696TIP3    H138647   5.160   5.814   0.713  0.3982  1.2927 -0.8898
 5696TIP3    H238648   5.226   5.879   0.833 -0.2613  0.9984 -0.3587
 5697TIP3   OH238649   4.171   0.202   0.630  0.1517 -0.3991  0.3377
 5697TIP3    H138650   4.229   0.253   0.686  0.0455 -0.0177  0.1019
 5697TIP3    H238651   4.177   0.113   0.664 -0.9725  0.0596  1.8345
 5698TIP3   OH238652   1.088   1.499   8.259 -0.3424  0.6928 -0.4780
 5698TIP3    H138653   1.093   1.577   8.205 -0.1732  0.3113 -1.0221
 5698TIP3    H238654   1.179   1.474   8.274 -0.3570 -1.3767 -3.2318
 5699TIP3   OH238655   0.955   2.774   7.227  0.2570 -0.0519 -0.5636
 5699TIP3    H138656   1.033   2.818   7.196 -0.3711  0.9974 -0.7169
 5699TIP3    H238657   0.962   2.684   7.194 -0.6000  1.0693 -4.2232
 5700TIP3   OH238658   0.031   0.085   8.724  0.7408  0.7976  0.4363
 5700TIP3    H138659  -0.018   0.012   8.761 -1.6304  1.7291 -0.6560
 5700TIP3    H238660  -0.031   0.129   8.666  2.9637  1.9991 -1.1789
 5701TIP3   OH238661   2.170   2.594   2.696  0.6247 -0.0985 -0.1783
 5701TIP3    H138662   2.244   2.628   2.647  1.0169  0.1587  0.5795
 5701TIP3    H238663   2.111   2.559   2.629  1.0727  0.3840 -0.8361
 5702TIP3   OH238664   4.689   1.222   0.537  0.3687 -0.2608 -0.2551
 5702TIP3    H138665   4.667   1.210   0.629  0.2418 -1.9138 -0.4785
 5702TIP3    H238666   4.613   1.267   0.500 -0.6019 -1.6502 -0.0164
 5703TIP3   OH238667   4.286   1.790   0.500  0.4446 -0.1344 -0.4472
 5703TIP3    H138668   4.378   1.812   0.485  0.3000  0.6340 -0.2574
 5703TIP3    H238669   4.289   1.711   0.553  0.9967 -0.2247 -0.6026
 5704TIP3   OH238670   0.507   1.409   0.129 -0.2647  0.7010  0.0753
 5704TIP3    H138671   0.451   1.331   0.138  0.3428  0.2504 -0.0375
 5704TIP3    H238672   0.516   1.421   0.035  1.0280 -0.1007  0.0827
 5705TIP3   OH238673   0.906   3.340   1.261 -0.0533 -0.0830  0.5387
 5705TIP3    H138674   0.934   3.322   1.171  1.8558  1.4056  0.7635
 5705TIP3    H238675   0.953   3.275   1.314 -0.7633 -0.6157  0.5319
 5706TIP3   OH238676   6.061   2.938   1.582 -0.0038  0.1757  0.2125
 5706TIP3    H138677   6.025   2.929   1.670 -0.1763 -2.4821 -0.0567
 5706TIP3    H238678   5.987   2.920   1.524  0.5317  0.0663 -0.4429
 5707TIP3   OH238679   6.473   1.301   8.582  0.0318 -0.1937  0.5085
 5707TIP3    H138680   6.463   1.314   8.677  3.8749 -2.7966  1.5223
 5707TIP3    H238681   6.402   1.241   8.560 -0.2174 -0.5308  2.0586
 5708TIP3   OH238682   6.251   3.617   1.636  0.2465 -0.1427 -0.4317
 5708TIP3    H138683   6.345   3.602   1.648  0.0937 -0.3137  0.6354
 5708TIP3    H238684   6.214   3.605   1.723 -0.8521 -0.6443 -0.9566
 5709TIP3   OH238685   0.490   1.816   1.211 -0.5489  0.3073 -0.6156
 5709TIP3    H138686   0.535   1.873   1.274  0.1264 -0.8458 -0.0220
 5709TIP3    H238687   0.549   1.812   1.136 -0.9389  0.9628 -0.9659
 5710TIP3   OH238688   2.466   1.276   1.580 -0.0481 -0.0810 -0.4709
 5710TIP3    H138689   2.469   1.189   1.619  1.0936 -0.3681 -1.1554
 5710TIP3    H238690   2.487   1.262   1.487 -1.8303  0.6888 -1.0291
 5711TIP3   OH238691   1.526   2.135   8.416  0.4450  0.3874  0.4783
 5711TIP3    H138692   1.563   2.092   8.493 -0.8566 -1.7187  0.0086
 5711TIP3    H238693   1.431   2.123   8.425  0.2326  0.6685 -1.0989
 5712TIP3   OH238694   3.632   2.370   1.521 -0.3936  0.3110  0.2418
 5712TIP3    H138695   3.722   2.396   1.540 -0.5011 -0.7233  2.3519
 5712TIP3    H238696   3.578   2.432   1.571 -0.7921 -0.3856  0.6823
 5713TIP3   OH238697   0.993   3.130   1.427  0.0138  0.2356  0.1180
 5713TIP3    H138698   0.980   3.191   1.500  1.1524  0.0714  0.4874
 5713TIP3    H238699   0.997   3.044   1.469  0.4660  0.1202 -0.1596
 5714TIP3   OH238700   0.216   6.522   7.746  0.1109  0.0716 -0.0330
 5714TIP3    H138701   0.133   6.488   7.780  1.3946 -1.2292  2.0130
 5714TIP3    H238702   0.225   6.483   7.660 -0.7277 -0.9151  0.3105
 5715TIP3   OH238703   0.522   5.413   2.077 -0.0620  0.0478  0.0453
 5715TIP3    H138704   0.530   5.506   2.098  2.1965 -0.1911  0.4931
 5715TIP3    H238705   0.582   5.399   2.004 -0.8948 -0.9425 -0.4804
 5716TIP3   OH238706   3.910   1.537   1.107 -0.2141  0.2146 -0.2476
 5716TIP3    H138707   3.942   1.462   1.057  1.8066  1.6243 -1.2252
 5716TIP3    H238708   3.865   1.592   1.043  1.9595  1.7964 -0.5275
 5717TIP3   OH238709   6.070   5.624   2.645 -0.2821  0.3713 -0.4034
 5717TIP3    H138710   6.123   5.551   2.613 -0.5824  0.4287 -1.0627
 5717TIP3    H238711   6.031   5.592   2.726 -0.8120 -0.3958 -0.9456
 5718TIP3   OH238712   0.287   1.921   8.176  0.0046 -0.0187  0.4964
 5718TIP3    H138713   0.353   1.869   8.221 -0.3471  0.3005  1.4213
 5718TIP3    H238714   0.208   1.867   8.177 -0.2330  0.3221  1.0381
 5719TIP3   OH238715   6.123   4.947   0.451  0.4544 -0.6202 -0.0681
 5719TIP3    H138716   6.183   5.007   0.406  0.9171 -0.5389  0.6520
 5719TIP3    H238717   6.074   5.004   0.511  0.3703 -0.8495  0.0794
 5720TIP3   OH238718   3.030   2.535   2.473  0.0072  0.5960  0.3811
 5720TIP3    H138719   3.014   2.598   2.403 -1.2026 -0.2754 -0.1608
 5720TIP3    H238720   2.943   2.509   2.502  0.3455 -2.6552 -1.0860
 5721TIP3   OH238721   5.390   4.589   2.939 -0.4881 -0.1003 -0.1075
 5721TIP3    H138722   5.385   4.666   2.882  0.0557  0.0234  0.0002
 5721TIP3    H238723   5.338   4.613   3.016 -0.7522 -0.0432 -0.3028
 5722TIP3   OH238724   1.045   6.040   0.456  0.2532 -0.2492  0.4972
 5722TIP3    H138725   1.122   6.097   0.465 -1.9251  3.2305 -0.9172
 5722TIP3    H238726   1.011   6.033   0.545  0.2935  1.1524  0.6493
 5723TIP3   OH238727   2.753   5.946   8.017  0.1264  0.4190 -0.8643
 5723TIP3    H138728   2.755   5.883   7.945 -0.4631  0.4511 -0.9131
 5723TIP3    H238729   2.805   5.905   8.086 -0.7171 -0.4021 -0.6838
 5724TIP3   OH238730   6.462   0.373   7.924 -0.4705  0.8180  0.1210
 5724TIP3    H138731   6.385   0.327   7.892 -0.9415  0.3963  1.7667
 5724TIP3    H238732   6.520   0.379   7.848 -0.4398 -2.3486 -0.2382
 5725TIP3   OH238733   1.585   6.518   1.630  0.0028  0.9757 -0.4282
 5725TIP3    H138734   1.660   6.573   1.607  1.0431 -0.3776 -0.4333
 5725TIP3    H238735   1.582   6.521   1.726  1.4097 -0.6037 -0.2915
 5726TIP3   OH238736   3.221   6.206   0.314 -0.4240 -0.2931 -0.0180
 5726TIP3    H138737   3.142   6.206   0.368 -0.8287  0.6246 -0.5853
 5726TIP3    H238738   3.268   6.126   0.339 -1.0659 -0.3642  0.9979
 5727TIP3   OH238739   2.329   1.245   1.917  0.4283 -0.3279 -0.3866
 5727TIP3    H138740   2.345   1.214   2.007  0.3018 -0.6033 -0.4593
 5727TIP3    H238741   2.412   1.231   1.872  0.0645 -1.6115 -0.7206
 5728TIP3   OH238742   4.597   0.104   7.067  0.1769 -0.0699 -0.1861
 5728TIP3    H138743   4.515   0.150   7.084  0.6929  0.2230  1.7939
 5728TIP3    H238744   4.663   0.173   7.061  0.2360 -0.2514 -2.4656
 5729TIP3   OH238745   2.910   5.682   0.667 -0.6987  0.4857 -0.1050
 5729TIP3    H138746   2.862   5.764   0.676  0.0855  1.1452 -1.4621
 5729TIP3    H238747   2.895   5.635   0.749 -1.9429  1.5635  0.3091
 5730TIP3   OH238748   2.894   2.315   1.317 -0.9165 -0.0710  0.3659
 5730TIP3    H138749   2.837   2.272   1.253 -0.9600  0.7709 -0.1743
 5730TIP3    H238750   2.983   2.288   1.293 -0.5305  2.9992 -2.3647
 5731TIP3   OH238751   6.220   4.396   1.881  0.2284 -0.1506  0.2917
 5731TIP3    H138752   6.298   4.351   1.913  0.8731  0.9852  0.3654
 5731TIP3    H238753   6.244   4.428   1.794 -0.4459 -0.5217 -0.0352
 5732TIP3   OH238754   1.992   4.089   8.290 -0.4205  0.1487  0.2844
 5732TIP3    H138755   2.013   4.046   8.374 -1.2410 -1.3346 -0.2327
 5732TIP3    H238756   2.039   4.172   8.294 -1.2866  0.6260  2.6790
 5733TIP3   OH238757   6.660   2.860   2.427  0.0693  0.5771  0.4721
 5733TIP3    H138758   6.629   2.806   2.499 -0.8822  0.4247 -0.0345
 5733TIP3    H238759   6.622   2.820   2.349  0.8750  0.8849 -0.0956
 5734TIP3   OH238760   1.451   1.548   1.632 -0.4010 -0.4911  0.5154
 5734TIP3    H138761   1.459   1.643   1.633 -1.9326 -0.3447  0.5802
 5734TIP3    H238762   1.438   1.523   1.723  2.2525 -1.0286  0.8268
 5735TIP3   OH238763   6.278   5.734   2.834 -0.1113  0.0873 -0.3859
 5735TIP3    H138764   6.287   5.827   2.813 -0.3953  0.0365 -0.7479
 5735TIP3    H238765   6.236   5.696   2.757 -2.5028  0.1592  0.7784
 5736TIP3   OH238766   6.024   0.068   8.066  0.8643 -0.3130  0.1278
 5736TIP3    H138767   5.993   0.097   7.980  0.3449 -0.1109  0.3756
 5736TIP3    H238768   6.083   0.138   8.095 -0.7465  0.7681  0.9278
 5737TIP3   OH238769   5.604   4.859   0.845  0.5972  0.0447 -0.1620
 5737TIP3    H138770   5.658   4.798   0.794  1.4077  0.3500  0.3232
 5737TIP3    H238771   5.572   4.807   0.918 -0.4290 -0.3491 -0.8738
 5738TIP3   OH238772   6.142   4.859   1.582 -0.0841  0.1423  0.1541
 5738TIP3    H138773   6.230   4.822   1.575  0.1097  0.4700  0.7840
 5738TIP3    H238774   6.084   4.789   1.552  0.4003  0.0033 -0.4813
 5739TIP3   OH238775   6.154   1.524   3.877  0.2727 -0.5036 -0.2031
 5739TIP3    H138776   6.160   1.612   3.914 -1.0009  0.3512 -1.8617
 5739TIP3    H238777   6.207   1.469   3.935  1.2293  1.3734  0.7823
 5740TIP3   OH238778   5.874   6.779   1.582 -0.0226 -0.2517  0.3456
 5740TIP3    H138779   5.845   6.847   1.521  1.4923  1.2822  1.2196
 5740TIP3    H238780   5.829   6.800   1.664  0.2104 -0.4757  0.5323
 5741TIP3   OH238781   6.606   0.132   8.608 -0.0333 -0.0930 -0.4774
 5741TIP3    H138782   6.518   0.097   8.601 -0.6162  1.3579 -0.8655
 5741TIP3    H238783   6.638   0.137   8.517  0.1427  0.1101 -0.4066
 5742TIP3   OH238784   4.639   3.817   7.116 -0.1975  0.4163 -0.4200
 5742TIP3    H138785   4.711   3.785   7.062  1.6981  1.2315  1.4917
 5742TIP3    H238786   4.595   3.738   7.146  0.6018 -0.1569 -0.7281
 5743TIP3   OH238787   5.621   1.401   1.327  0.0286 -0.0283  0.4771
 5743TIP3    H138788   5.584   1.357   1.251  1.2808 -1.4101  0.6230
 5743TIP3    H238789   5.564   1.477   1.341 -0.0528  0.4312 -1.9956
 5744TIP3   OH238790   6.824   4.910   1.038  0.2126 -0.1311 -0.2167
 5744TIP3    H138791   6.873   4.990   1.054 -0.9732  0.4189  0.8191
 5744TIP3    H238792   6.783   4.923   0.953  1.0828 -0.2173 -0.6671
 5745TIP3   OH238793   1.592   2.726   0.944  0.2361  0.4178 -0.1248
 5745TIP3    H138794   1.668   2.775   0.914  0.9501  0.1016  1.1188
 5745TIP3    H238795   1.543   2.788   0.999  0.1370  0.3037 -0.0829
 5746TIP3   OH238796   6.364   0.727   0.528 -0.0302  0.3930  0.4481
 5746TIP3    H138797   6.368   0.690   0.616 -2.7331  1.4907  1.1559
 5746TIP3    H238798   6.323   0.659   0.475 -2.1016  1.1233  1.0270
 5747TIP3   OH238799   0.737   3.828   0.817 -0.1881  0.0074  0.3792
 5747TIP3    H138800   0.776   3.861   0.898  0.2712 -1.9032  1.0049
 5747TIP3    H238801   0.771   3.738   0.810 -1.9859 -0.6298 -0.7592
 5748TIP3   OH238802   3.559   1.977   1.391  0.1795  0.5832  0.0169
 5748TIP3    H138803   3.510   1.905   1.349  1.3470  0.0026 -0.3883
 5748TIP3    H238804   3.574   2.040   1.320 -0.1087  0.8295  0.1750
 5749TIP3   OH238805   0.526   0.046   7.785  0.1278  0.0952 -0.2450
 5749TIP3    H138806   0.551   0.002   7.866 -0.3672  0.5234  0.1488
 5749TIP3    H238807   0.572   0.130   7.787  1.0500 -0.3783 -0.9806
 5750TIP3   OH238808   3.282   0.025   8.078  0.1920  0.0653  0.8453
 5750TIP3    H138809   3.333  -0.035   8.023 -1.6000 -0.3094 -0.4959
 5750TIP3    H238810   3.277  -0.019   8.163 -0.7521 -1.5642  0.0088
 5751TIP3   OH238811   4.806   4.918   2.450  0.0343 -0.1210  0.0343
 5751TIP3    H138812   4.856   4.867   2.513 -0.3120 -2.0378 -1.1645
 5751TIP3    H238813   4.803   5.006   2.487  1.8645 -0.6149  1.5010
 5752TIP3   OH238814   2.941   4.902   0.885 -0.2508 -0.0757  0.2213
 5752TIP3    H138815   2.889   4.944   0.816  0.3441 -1.4041 -1.1055
 5752TIP3    H238816   2.920   4.809   0.876  1.5084 -0.5088  0.3815
 5753TIP3   OH238817   2.491   4.923   1.597  0.7939  0.1158 -0.2559
 5753TIP3    H138818   2.452   4.851   1.646 -1.1122  0.7716 -0.7157
 5753TIP3    H238819   2.529   4.882   1.520  2.8463 -0.7877  1.1757
 5754TIP3   OH238820   0.339   0.077   2.081 -0.3092  0.1527 -0.3020
 5754TIP3    H138821   0.258   0.030   2.104 -0.1007 -0.4045 -0.6722
 5754TIP3    H238822   0.404   0.007   2.070  1.0129  0.7038  2.8945
 5755TIP3   OH238823   6.107   0.689   8.692 -0.2507 -0.0338 -0.0004
 5755TIP3    H138824   6.163   0.743   8.636 -0.3233  1.1952  1.0561
 5755TIP3    H238825   6.040   0.654   8.634 -1.8524  3.2651 -0.3295
 5756TIP3   OH238826   3.809   4.977   0.213  0.2787  0.1668 -0.1132
 5756TIP3    H138827   3.775   4.922   0.283  1.5306 -1.4900 -0.7507
 5756TIP3    H238828   3.885   5.021   0.252 -0.0898  0.6551  0.0741
 5757TIP3   OH238829   5.048   2.718   2.093  0.4848 -0.0544  0.4875
 5757TIP3    H138830   5.026   2.628   2.117  0.4164  0.4908  2.6343
 5757TIP3    H238831   5.129   2.710   2.042 -2.2509 -1.7651 -4.3007
 5758TIP3   OH238832   2.851   4.791   7.723 -0.8774 -0.0036  0.4188
 5758TIP3    H138833   2.786   4.827   7.784  0.2872 -0.4744  2.0147
 5758TIP3    H238834   2.863   4.700   7.752 -0.9879 -0.5421 -1.1448
 5759TIP3   OH238835   5.370   5.011   0.688  0.1490 -0.4734 -0.6646
 5759TIP3    H138836   5.413   5.032   0.605 -0.1819  1.6137 -0.3403
 5759TIP3    H238837   5.441   4.977   0.743  0.5913 -0.7888 -1.4096
 5760TIP3   OH238838   3.064   3.388   7.675 -0.2773  0.0068  0.1225
 5760TIP3    H138839   3.117   3.335   7.736 -1.4752 -1.1686  0.1743
 5760TIP3    H238840   3.102   3.371   7.589 -1.2730 -1.7877  0.0014
 5761TIP3   OH238841   2.890   1.808   2.479  0.3422 -0.2863  0.0029
 5761TIP3    H138842   2.868   1.743   2.412  0.1501 -0.5955  0.3604
 5761TIP3    H238843   2.846   1.888   2.450 -0.4828 -0.6467  0.2098
 5762TIP3   OH238844   3.799   0.420   1.106 -0.2623 -0.3109 -0.2232
 5762TIP3    H138845   3.806   0.380   1.019 -0.9080 -1.2491  0.1404
 5762TIP3    H238846   3.771   0.510   1.089 -0.1078 -0.4075 -1.0051
 5763TIP3   OH238847   5.212   0.515   1.194 -0.2434  0.1633 -0.0561
 5763TIP3    H138848   5.134   0.495   1.246  0.2810 -1.3318  0.2059
 5763TIP3    H238849   5.236   0.431   1.154  1.7640  0.3578  0.6233
 5764TIP3   OH238850   2.417   4.206   1.281 -0.4314 -0.1164  0.0966
 5764TIP3    H138851   2.371   4.149   1.219  0.2168  0.1470 -0.6324
 5764TIP3    H238852   2.414   4.157   1.364 -2.5345  0.1518  0.2347
 5765TIP3   OH238853   0.644   4.820   2.838 -0.4259 -0.0389  0.1495
 5765TIP3    H138854   0.679   4.778   2.916  0.4963 -0.5187 -0.5014
 5765TIP3    H238855   0.720   4.855   2.792 -1.0088  0.7376 -0.2494
 5766TIP3   OH238856   0.836   3.349   7.570  0.1610 -0.3749  0.3780
 5766TIP3    H138857   0.879   3.434   7.577  0.4478 -0.5793  1.2733
 5766TIP3    H238858   0.780   3.356   7.494  0.7932  0.3476 -0.0327
 5767TIP3   OH238859   2.051   0.238   0.287  0.1367  0.1479 -0.1318
 5767TIP3    H138860   2.109   0.228   0.211 -2.3396 -1.8940 -1.9312
 5767TIP3    H238861   2.008   0.323   0.274  0.6638  0.4001 -0.2704
 5768TIP3   OH238862   0.590   1.737   0.978  0.1870 -0.0945  0.0910
 5768TIP3    H138863   0.671   1.705   0.938  0.4856  0.0156  0.6040
 5768TIP3    H238864   0.531   1.661   0.977  0.1050 -0.0337 -0.7671
 5769TIP3   OH238865   2.075   3.042   7.538  0.0156  0.4372 -0.3581
 5769TIP3    H138866   2.119   2.988   7.472  1.4056 -2.4605  2.6389
 5769TIP3    H238867   2.139   3.108   7.562  0.5323 -0.1398 -0.1149
 5770TIP3   OH238868   4.270   6.189   3.292 -0.1624 -0.2100  0.1389
 5770TIP3    H138869   4.268   6.116   3.353  1.2997 -0.5877 -0.2267
 5770TIP3    H238870   4.347   6.173   3.237 -1.6074 -0.0850 -2.0511
 5771TIP3   OH238871   6.803   5.753   0.931 -1.1774  0.1461 -0.4268
 5771TIP3    H138872   6.760   5.838   0.923 -1.0163  0.2013 -0.6934
 5771TIP3    H238873   6.744   5.692   0.888 -2.7796 -0.3910  2.2851
 5772TIP3   OH238874   1.501   1.713   2.857 -0.2306  0.0392 -0.3660
 5772TIP3    H138875   1.441   1.680   2.790 -0.3087 -0.0379 -0.2573
 5772TIP3    H238876   1.588   1.709   2.816 -0.4643  1.5559 -1.0791
 5773TIP3   OH238877   4.374   1.708   1.652  0.3502 -1.1192  0.1343
 5773TIP3    H138878   4.422   1.636   1.610  0.0730 -0.5900 -1.1075
 5773TIP3    H238879   4.287   1.672   1.670 -0.6440 -0.4287 -2.7355
 5774TIP3   OH238880   3.384   4.375   0.154 -0.2946 -0.0591  0.0904
 5774TIP3    H138881   3.420   4.424   0.080  1.2521 -0.0263  0.8193
 5774TIP3    H238882   3.373   4.441   0.222 -0.3073 -0.3395  0.3604
 5775TIP3   OH238883   6.574   1.193   1.558  0.1877  0.0670  0.0695
 5775TIP3    H138884   6.554   1.286   1.558 -2.8062 -0.4623  0.8394
 5775TIP3    H238885   6.520   1.157   1.628  0.0097 -2.4732 -1.2500
 5776TIP3   OH238886   2.804   0.686   2.401  0.2515  0.1601 -0.1520
 5776TIP3    H138887   2.711   0.674   2.380  0.5489 -0.7971 -1.0291
 5776TIP3    H238888   2.824   0.613   2.460  0.4144  0.4379  0.1356
 5777TIP3   OH238889   5.409   5.902   1.173 -0.1478 -0.4156  0.5580
 5777TIP3    H138890   5.361   5.881   1.253 -1.8010 -1.1513 -0.5683
 5777TIP3    H238891   5.414   5.997   1.172 -0.1660 -0.3931  1.4934
 5778TIP3   OH238892   5.675   3.618   8.232 -0.1613 -0.0543  0.0694
 5778TIP3    H138893   5.709   3.569   8.157 -0.5314  1.0045 -0.8065
 5778TIP3    H238894   5.711   3.572   8.309  1.0369 -0.5491 -0.7630
 5779TIP3   OH238895   6.326   2.383   1.679  0.1552  0.1924 -0.2479
 5779TIP3    H138896   6.378   2.456   1.645 -1.6923  1.7800  0.1102
 5779TIP3    H238897   6.372   2.354   1.757 -1.2239  4.0661  2.3066
 5780TIP3   OH238898   1.178   5.764   8.234  0.3173 -0.2416  0.2639
 5780TIP3    H138899   1.249   5.827   8.250 -0.1868  1.1858 -2.4537
 5780TIP3    H238900   1.222   5.679   8.228  1.1395 -0.1283  3.0787
 5781TIP3   OH238901   3.639   6.190   1.993 -0.3297 -0.0559  0.5579
 5781TIP3    H138902   3.630   6.185   2.088  0.6228 -1.5243  0.6128
 5781TIP3    H238903   3.574   6.128   1.959  1.4451 -1.9555  0.4446
 5782TIP3   OH238904   0.591   1.424   8.339  0.0054 -0.4759  0.0037
 5782TIP3    H138905   0.503   1.394   8.316 -0.7727  1.2381  0.5275
 5782TIP3    H238906   0.609   1.495   8.278  0.7689 -0.3979  0.3057
 5783TIP3   OH238907   4.121   4.001   8.632 -0.3813  0.2597 -1.0226
 5783TIP3    H138908   4.141   4.094   8.637  1.2959 -0.0511 -1.4768
 5783TIP3    H238909   4.078   3.981   8.715  0.2860  1.2018 -0.4351
 5784TIP3   OH238910   3.469   6.580   0.718  0.3187  0.0220 -0.1435
 5784TIP3    H138911   3.547   6.546   0.674  0.1632 -0.6352  0.0685
 5784TIP3    H238912   3.482   6.675   0.720  0.7965 -0.0253 -0.7031
 5785TIP3   OH238913   6.206   0.108   0.769 -0.2708  0.3729  0.5213
 5785TIP3    H138914   6.114   0.088   0.753 -0.1675  0.4586 -0.1899
 5785TIP3    H238915   6.237   0.035   0.824 -0.8386  0.5146  1.0368
 5786TIP3   OH238916   4.286   5.715   1.981  0.5066 -0.0597 -0.1966
 5786TIP3    H138917   4.200   5.733   2.019  0.7238  0.5180  0.0246
 5786TIP3    H238918   4.331   5.799   1.980  1.1231 -0.3803 -0.1864
 5787TIP3   OH238919   6.417   4.634   8.719 -0.6935 -0.2807  0.3771
 5787TIP3    H138920   6.465   4.687   8.784 -0.5396  0.2830 -0.1868
 5787TIP3    H238921   6.343   4.689   8.694 -1.6892 -1.1725  1.2891
 5788TIP3   OH238922   0.697   2.909   7.656  0.1897  0.3926  0.4943
 5788TIP3    H138923   0.612   2.864   7.657  1.1710 -1.5466  1.1143
 5788TIP3    H238924   0.721   2.911   7.563 -0.5729  1.0926  0.2946
 5789TIP3   OH238925   3.808   4.251   1.388 -0.3757 -0.2621  0.1983
 5789TIP3    H138926   3.745   4.234   1.458 -0.3210  0.1894  0.3600
 5789TIP3    H238927   3.755   4.265   1.310 -0.6051  2.0676  0.7146
 5790TIP3   OH238928   6.186   1.591   8.692  0.3086  0.2804  0.0531
 5790TIP3    H138929   6.143   1.587   8.607  0.5556 -0.4873 -0.0419
 5790TIP3    H238930   6.115   1.611   8.754  0.3045  2.0127 -0.4477
 5791TIP3   OH238931   5.486   2.941   1.822  0.0930 -0.0547  0.3499
 5791TIP3    H138932   5.506   2.974   1.735 -2.0064 -1.6408 -0.8239
 5791TIP3    H238933   5.420   3.001   1.857 -0.3643 -0.4019  0.0958
 5792TIP3   OH238934   1.534   3.867   2.258 -0.0820 -0.3091  0.5723
 5792TIP3    H138935   1.469   3.896   2.323  0.6649  0.1762  1.1077
 5792TIP3    H238936   1.516   3.773   2.248 -2.5580  0.2426 -1.2219
 5793TIP3   OH238937   5.932   4.804   1.284  0.4344 -0.1115 -0.3635
 5793TIP3    H138938   6.017   4.833   1.252 -0.2084  3.7552  0.8186
 5793TIP3    H238939   5.950   4.725   1.334  3.0206 -0.3355 -1.5198
 5794TIP3   OH238940   0.138   5.082   8.288  0.4416  0.1543 -0.0264
 5794TIP3    H138941   0.049   5.050   8.279  0.5211  0.0110 -0.3210
 5794TIP3    H238942   0.192   5.002   8.289  0.4930  0.1963  1.0622
 5795TIP3   OH238943   4.428   1.071   1.614  0.2719 -0.4183 -0.0458
 5795TIP3    H138944   4.454   1.007   1.548 -0.2838 -0.5885 -0.0996
 5795TIP3    H238945   4.462   1.155   1.581 -1.9451 -0.1108 -1.7006
 5796TIP3   OH238946   5.470   5.224   1.348  0.3240 -0.1339 -0.0596
 5796TIP3    H138947   5.439   5.156   1.407  1.4258 -2.1448 -1.6807
 5796TIP3    H238948   5.391   5.266   1.315 -0.3412  0.1110  1.7186
 5797TIP3   OH238949   0.870   0.843   8.289 -0.5926  0.9054  0.1372
 5797TIP3    H138950   0.886   0.881   8.203  0.3932 -0.1896 -0.1809
 5797TIP3    H238951   0.940   0.780   8.301 -2.0454 -0.6691  0.7479
 5798TIP3   OH238952   0.371   0.578   1.296  0.2008 -0.2212 -0.3322
 5798TIP3    H138953   0.278   0.554   1.298  0.3520 -0.7695  0.8992
 5798TIP3    H238954   0.415   0.499   1.266  0.3825 -0.3930  0.3692
 5799TIP3   OH238955   0.524   4.802   8.724 -0.1909 -0.3641 -0.4566
 5799TIP3    H138956   0.470   4.878   8.705 -1.7835 -1.0566  1.0553
 5799TIP3    H238957   0.562   4.821   8.810  0.0580 -0.9173 -0.4432
 5800TIP3   OH238958   3.157   4.927   8.550 -0.3798 -0.3267 -0.6542
 5800TIP3    H138959   3.117   4.915   8.464 -0.0116 -0.3389 -0.8296
 5800TIP3    H238960   3.247   4.896   8.538  0.0393  0.7953 -0.6086
 5801TIP3   OH238961   0.054   4.623   2.417  0.2168 -0.3818  0.2395
 5801TIP3    H138962  -0.028   4.619   2.466  0.5587 -0.1984  0.8347
 5801TIP3    H238963   0.037   4.689   2.349  0.1689  0.3291  0.9314
 5802TIP3   OH238964   1.048   6.792   3.586  0.2267  0.1803  1.0324
 5802TIP3    H138965   1.129   6.780   3.536 -0.1027  1.4891  0.1448
 5802TIP3    H238966   1.045   6.717   3.645  1.4664 -0.5296  0.2279
 5803TIP3   OH238967   3.833   3.421   1.344  0.0445  0.8146  0.5904
 5803TIP3    H138968   3.821   3.504   1.391  1.3519  0.8588  0.8879
 5803TIP3    H238969   3.898   3.441   1.276  1.3568 -0.2531  1.4862
 5804TIP3   OH238970   3.576   0.817   0.595  0.4329 -0.2860 -1.4686
 5804TIP3    H138971   3.640   0.777   0.536  1.3183 -1.0192 -0.0432
 5804TIP3    H238972   3.564   0.753   0.665 -1.3625  0.1319 -1.3429
 5805TIP3   OH238973   2.626   4.822   8.725  0.4580 -0.0008 -0.1231
 5805TIP3    H138974   2.682   4.899   8.723  0.9865 -0.3969 -0.9323
 5805TIP3    H238975   2.593   4.814   8.635 -1.7893  0.8579  0.5386
 5806TIP3   OH238976   3.620   2.337   0.627  0.1640 -0.2297 -0.0381
 5806TIP3    H138977   3.643   2.362   0.716  2.2970  0.6578 -0.7456
 5806TIP3    H238978   3.579   2.415   0.590 -0.1473 -0.3860 -0.0267
 5807TIP3   OH238979   4.840   6.770   1.826  0.6392 -0.4445 -0.8183
 5807TIP3    H138980   4.766   6.715   1.852  0.1972  0.7741  0.6072
 5807TIP3    H238981   4.891   6.714   1.767 -1.7249 -1.0990 -2.3759
 5808TIP3   OH238982   4.439   4.934   0.859  0.0235  0.3872 -0.0150
 5808TIP3    H138983   4.431   4.969   0.948 -1.5621 -0.5901  0.2629
 5808TIP3    H238984   4.412   5.007   0.802 -2.2319  0.0538  0.5129
 5809TIP3   OH238985   4.399   2.495   7.835 -0.5464  0.2023 -0.5160
 5809TIP3    H138986   4.419   2.473   7.744 -0.5143  1.9224 -0.9613
 5809TIP3    H238987   4.440   2.580   7.849  2.2962 -1.3930  2.1567
 5810TIP3   OH238988   4.625   1.501   1.002 -0.4865 -0.3810  0.4790
 5810TIP3    H138989   4.706   1.487   0.953  0.3736 -3.3530  2.5088
 5810TIP3    H238990   4.555   1.472   0.943  0.5878 -4.8227  1.0662
 5811TIP3   OH238991   4.775   5.864   1.527  0.1097 -0.1441 -0.5243
 5811TIP3    H138992   4.696   5.911   1.553 -0.1210  0.9487 -3.0233
 5811TIP3    H238993   4.794   5.807   1.602 -0.7019  2.4747  1.8376
 5812TIP3   OH238994   5.289   0.641   7.831  0.2073  0.4288  0.2760
 5812TIP3    H138995   5.341   0.715   7.862  0.0599  0.3522  0.7111
 5812TIP3    H238996   5.290   0.578   7.903  1.3521 -0.5373 -0.5437
 5813TIP3   OH238997   4.143   3.987   2.226  0.1483 -0.0523 -0.4114
 5813TIP3    H138998   4.148   4.007   2.319 -0.1608  0.0753 -0.4205
 5813TIP3    H238999   4.069   4.039   2.194  0.4118  0.0983 -0.7787
 5814TIP3   OH239000   0.175   0.052   0.441  0.0862  0.0680  0.1715
 5814TIP3    H139001   0.267   0.042   0.415 -0.4232 -0.6608 -1.4899
 5814TIP3    H239002   0.137   0.108   0.374 -1.2787 -1.8188 -0.7332
 5815TIP3   OH239003   2.591   2.182   1.838 -0.0863 -0.2699 -0.1616
 5815TIP3    H139004   2.590   2.118   1.766  0.2896 -1.3944  0.8057
 5815TIP3    H239005   2.684   2.191   1.861 -0.2826 -0.6278  0.7959
 5816TIP3   OH239006   3.218   6.315   0.964  0.6529 -0.2424  0.1948
 5816TIP3    H139007   3.301   6.362   0.958  0.3329  0.1963 -1.1805
 5816TIP3    H239008   3.219   6.255   0.889 -0.6017  0.3480 -0.3292
 5817TIP3   OH239009   0.780   3.930   2.895  0.5392  0.0175 -0.4511
 5817TIP3    H139010   0.817   4.016   2.915 -0.0711  0.3075 -0.5433
 5817TIP3    H239011   0.776   3.886   2.980  0.0402  0.4083 -0.2690
 5818TIP3   OH239012   2.996   6.561   8.065 -0.7116 -0.2050 -0.4217
 5818TIP3    H139013   3.066   6.558   7.999 -0.4076 -3.3205 -0.0723
 5818TIP3    H239014   2.915   6.569   8.014 -0.3573 -0.7819 -1.0902
 5819TIP3   OH239015   6.486   4.370   7.474  0.3831 -0.4544  0.0715
 5819TIP3    H139016   6.452   4.404   7.391  0.4859  0.2030  0.2957
 5819TIP3    H239017   6.570   4.330   7.449  0.2871 -0.4977 -0.1894
 5820TIP3   OH239018   2.031   6.775   2.072 -0.3781 -0.2592  0.7704
 5820TIP3    H139019   1.981   6.723   2.009 -2.5324  2.3611  0.1205
 5820TIP3    H239020   2.012   6.734   2.156  0.6279 -2.3892  0.0315
 5821TIP3   OH239021   4.381   2.869   2.462  0.1190  0.7939  0.4353
 5821TIP3    H139022   4.319   2.883   2.390  0.5154  4.6723  0.6025
 5821TIP3    H239023   4.328   2.876   2.541 -0.0410 -1.7943  0.6421
 5822TIP3   OH239024   2.869   3.463   7.078 -0.2676  0.3108  0.1881
 5822TIP3    H139025   2.816   3.540   7.057  0.2130  0.9460  1.2215
 5822TIP3    H239026   2.811   3.389   7.060 -0.5126  0.8602 -1.4928
 5823TIP3   OH239027   0.860   1.331   0.085 -0.1084  0.1889  0.3140
 5823TIP3    H139028   0.817   1.284   0.157 -2.4590  2.0918  0.2700
 5823TIP3    H239029   0.908   1.402   0.129  2.2779 -1.2756  0.2679
 5824TIP3   OH239030   2.874   2.041   0.530 -0.2195 -0.9108 -0.2244
 5824TIP3    H139031   2.899   2.110   0.592 -0.6277 -0.3183 -0.7069
 5824TIP3    H239032   2.936   1.970   0.547 -0.2981 -0.7448  0.8369
 5825TIP3   OH239033   1.301   6.580   0.793 -0.6538 -0.7725 -0.4178
 5825TIP3    H139034   1.391   6.603   0.773 -0.4213 -2.3236 -1.3561
 5825TIP3    H239035   1.288   6.495   0.751 -2.4857 -0.6944 -0.1112
 5826TIP3   OH239036   6.216   3.713   7.812  0.0728  0.4462  0.1070
 5826TIP3    H139037   6.189   3.721   7.720 -0.8468 -1.8085  0.1077
 5826TIP3    H239038   6.222   3.619   7.827  0.9579  0.7807  2.1691
 5827TIP3   OH239039   5.823   4.473   1.871 -0.5537 -0.5125  0.7096
 5827TIP3    H139040   5.873   4.409   1.922  2.3167 -0.1009 -1.3320
 5827TIP3    H239041   5.770   4.420   1.812 -0.0464 -1.0216  0.6945
 5828TIP3   OH239042   2.478   3.171   1.214 -0.1104  0.0230  0.7085
 5828TIP3    H139043   2.421   3.141   1.143  0.7571 -1.5264  0.6294
 5828TIP3    H239044   2.429   3.150   1.294  0.0851 -0.8006  0.6241
 5829TIP3   OH239045   3.320   5.789   8.232 -0.1237 -0.3465 -0.2412
 5829TIP3    H139046   3.324   5.827   8.320  1.9961 -0.2663 -0.3309
 5829TIP3    H239047   3.262   5.847   8.183 -1.2436 -0.3260  1.0599
 5830TIP3   OH239048   3.957   0.926   0.068  0.6753 -0.6921 -0.2580
 5830TIP3    H139049   3.883   0.871   0.045 -0.0562  0.3993 -0.5693
 5830TIP3    H239050   3.922   0.989   0.130  2.0072 -1.9004  1.8469
 5831TIP3   OH239051   0.986   1.612   2.576  0.5703 -0.7711 -0.4850
 5831TIP3    H139052   1.058   1.634   2.518  0.5329 -1.3012 -0.7381
 5831TIP3    H239053   1.028   1.576   2.654  0.6526  0.5404  0.1074
 5832TIP3   OH239054   0.291   4.888   7.960 -0.8018 -0.6736 -0.0932
 5832TIP3    H139055   0.212   4.887   8.013 -0.1631 -1.4409  0.8939
 5832TIP3    H239056   0.349   4.826   8.003  1.0364  1.1893  0.2980
 5833TIP3   OH239057   2.403   5.710   1.971 -0.0988  0.1862 -0.5015
 5833TIP3    H139058   2.409   5.793   1.923  1.0559 -0.1476 -0.9588
 5833TIP3    H239059   2.317   5.675   1.947 -0.1633  0.7465 -1.1308
 5834TIP3   OH239060   6.264   1.372   2.389  0.1083 -0.9578  0.6282
 5834TIP3    H139061   6.292   1.401   2.302  3.2972 -1.4542  1.3848
 5834TIP3    H239062   6.239   1.281   2.377 -1.1807 -0.5509 -0.0310
 5835TIP3   OH239063   2.573   3.468   2.216  0.2609 -0.4196  0.2252
 5835TIP3    H139064   2.518   3.460   2.294 -0.4636 -2.0538 -0.4234
 5835TIP3    H239065   2.536   3.406   2.154 -1.0009  2.7839 -2.5465
 5836TIP3   OH239066   2.597   0.035   7.604  0.0844  0.4822  0.1313
 5836TIP3    H139067   2.504   0.031   7.582 -0.1847  0.8762  1.1431
 5836TIP3    H239068   2.640   0.067   7.525 -0.3528 -1.7500 -1.0939
 5837TIP3   OH239069   5.614   4.574   1.617 -0.1179 -0.5691 -0.1549
 5837TIP3    H139070   5.621   4.551   1.524  0.3974  0.5849 -0.4275
 5837TIP3    H239071   5.658   4.659   1.623  1.5824 -1.4796  1.4845
 5838TIP3   OH239072   0.127   2.500   2.439 -0.2822 -0.6592  0.4109
 5838TIP3    H139073   0.083   2.574   2.481 -0.7860  0.0598 -1.2761
 5838TIP3    H239074   0.215   2.499   2.478 -0.7819 -0.1695  1.5873
 5839TIP3   OH239075   2.169   0.769   8.487 -0.2041  0.2433  0.0224
 5839TIP3    H139076   2.165   0.777   8.392  3.0279 -0.2794 -0.2550
 5839TIP3    H239077   2.224   0.842   8.515 -1.3447  0.5666  1.5811
 5840TIP3   OH239078   2.175   4.047   0.986  0.4773 -0.5490  0.4020
 5840TIP3    H139079   2.177   4.059   0.891 -1.6143  0.5648  0.4307
 5840TIP3    H239080   2.266   4.030   1.010  1.4263  1.2418 -1.5668
 5841TIP3   OH239081   5.018   3.965   7.930 -0.4784  0.6273  0.3162
 5841TIP3    H139082   4.990   3.913   7.854  0.6657  1.0892 -0.4700
 5841TIP3    H239083   4.940   3.974   7.984 -0.1471 -4.7372  2.2753
 5842TIP3   OH239084   0.335   1.492   2.789 -0.6190 -0.1054  0.3412
 5842TIP3    H139085   0.311   1.556   2.856  1.1517  0.0163  0.9353
 5842TIP3    H239086   0.431   1.496   2.787 -0.6019  0.0044 -2.3308
 5843TIP3   OH239087   0.803   6.665   0.633 -0.2180  1.2104  0.4556
 5843TIP3    H139088   0.812   6.650   0.539 -3.2384  1.0781  0.0857
 5843TIP3    H239089   0.881   6.625   0.671  1.6583  2.2672 -2.0221
 5844TIP3   OH239090   3.387   6.622   0.352  0.6263 -0.4228 -0.5716
 5844TIP3    H139091   3.445   6.557   0.391  0.0930 -1.3916 -1.3610
 5844TIP3    H239092   3.338   6.574   0.286 -0.8693  0.4296 -0.1313
 5845TIP3   OH239093   1.965   1.667   0.119 -0.7062 -0.3820 -0.2402
 5845TIP3    H139094   2.027   1.718   0.066 -0.1328 -1.3145 -0.4959
 5845TIP3    H239095   1.907   1.732   0.157  1.1080  0.6524  0.9142
 5846TIP3   OH239096   5.937   6.226   1.332 -0.2906 -0.0536  0.3427
 5846TIP3    H139097   5.969   6.311   1.301  0.9583 -1.4924 -2.8565
 5846TIP3    H239098   5.880   6.196   1.261 -0.0169 -2.2033  0.9721
 5847TIP3   OH239099   1.077   0.230   3.513  0.2455 -0.5440 -0.5923
 5847TIP3    H139100   1.072   0.175   3.592 -0.8995  1.3500  0.7213
 5847TIP3    H239101   0.989   0.226   3.476 -0.2209  1.3006  0.2089
 5848TIP3   OH239102   5.202   2.548   2.666 -0.5652 -0.1389  0.2075
 5848TIP3    H139103   5.133   2.597   2.711  0.2641 -0.3466  1.8037
 5848TIP3    H239104   5.283   2.574   2.711 -0.1206 -3.2050  1.4828
 5849TIP3   OH239105   4.064   6.028   0.202 -0.1030 -0.1380 -0.1552
 5849TIP3    H139106   4.016   6.111   0.209 -3.1053 -1.4162 -3.0201
 5849TIP3    H239107   4.040   5.994   0.116  5.1506 -1.6339 -1.3720
 5850TIP3   OH239108   3.538   4.142   1.455 -0.4137  0.2417  0.0492
 5850TIP3    H139109   3.487   4.086   1.398 -0.2077 -0.3817  0.4702
 5850TIP3    H239110   3.520   4.231   1.424 -3.0560  0.2128  1.2009
 5851TIP3   OH239111   4.346   3.170   1.306  0.0244  0.6328 -0.3619
 5851TIP3    H139112   4.356   3.080   1.275  0.8709  0.1821  1.0996
 5851TIP3    H239113   4.252   3.187   1.300 -1.1712 -2.3671  4.3307
 5852TIP3   OH239114   6.259   5.373   0.947 -0.1199 -0.2434  0.1400
 5852TIP3    H139115   6.177   5.323   0.946 -1.7244  2.2384 -0.9374
 5852TIP3    H239116   6.296   5.359   0.860 -1.3868  1.5648 -0.7553
 5853TIP3   OH239117   2.887   5.049   1.324  0.0548  0.2062 -0.2890
 5853TIP3    H139118   2.836   5.031   1.245 -0.2133 -1.3012  0.1900
 5853TIP3    H239119   2.869   5.141   1.344 -1.8037 -0.0567 -0.6209
 5854TIP3   OH239120   0.382   5.067   7.745 -0.2003 -0.3021  0.4842
 5854TIP3    H139121   0.346   5.029   7.825 -1.6109  0.0440  0.0504
 5854TIP3    H239122   0.384   4.995   7.682  1.7181 -0.7851  1.0410
 5855TIP3   OH239123   6.422   5.629   7.896  0.5261  0.2024 -0.2155
 5855TIP3    H139124   6.374   5.668   7.822 -1.7828  0.2315  1.1906
 5855TIP3    H239125   6.355   5.616   7.963  2.7682  1.7100  2.5372
 5856TIP3   OH239126   6.292   2.537   7.790  0.5260  0.5877 -0.0099
 5856TIP3    H139127   6.281   2.541   7.695  2.4919 -0.9746 -0.3536
 5856TIP3    H239128   6.287   2.629   7.818 -1.4783  0.9767 -1.3798
 5857TIP3   OH239129   4.813   1.877   7.473  0.7755  0.8994 -0.4125
 5857TIP3    H139130   4.869   1.942   7.517  1.8392  0.2025 -0.7115
 5857TIP3    H239131   4.868   1.799   7.465 -1.0422 -0.7267  1.6107
 5858TIP3   OH239132   6.562   0.535   8.359 -0.0519 -0.2495  0.2299
 5858TIP3    H139133   6.651   0.501   8.354 -0.0509 -1.0429  3.3090
 5858TIP3    H239134   6.573   0.629   8.373  0.5667 -0.6459  3.2171
 5859TIP3   OH239135   1.212   1.043   2.881 -0.1074 -0.4575  0.2328
 5859TIP3    H139136   1.151   1.116   2.875  0.2302 -0.2339 -0.6281
 5859TIP3    H239137   1.298   1.082   2.868  0.3526 -0.6093  2.5339
 5860TIP3   OH239138   3.101   0.008   1.266  0.0765  0.0005 -0.2800
 5860TIP3    H139139   3.103   0.100   1.293 -0.5794 -0.2239  0.5976
 5860TIP3    H239140   3.009  -0.016   1.272  0.5666 -1.5791  2.7129
 5861TIP3   OH239141   0.945   4.305   8.078  0.0449  0.1294  0.3803
 5861TIP3    H139142   0.949   4.210   8.094  0.1641 -0.1484 -1.1733
 5861TIP3    H239143   0.971   4.315   7.987 -3.5127  1.2935 -0.6718
 5862TIP3   OH239144   5.695   2.786   7.349  0.0178 -0.3440 -0.4839
 5862TIP3    H139145   5.697   2.882   7.344  0.1839 -0.1267  2.3848
 5862TIP3    H239146   5.603   2.764   7.338 -0.2638  0.3064  0.4372
 5863TIP3   OH239147   3.912   3.933   6.906  0.3117 -0.0962 -0.4014
 5863TIP3    H139148   3.948   4.020   6.923  0.2935 -0.1393 -0.1499
 5863TIP3    H239149   3.860   3.913   6.983  0.8209 -0.5908 -0.1777
 5864TIP3   OH239150   4.904   1.999   3.134 -0.7704 -0.4926 -0.0628
 5864TIP3    H139151   4.883   2.063   3.066 -1.5128  0.5068  1.0699
 5864TIP3    H239152   4.982   1.954   3.101 -0.4324  0.7499 -1.0444
 5865TIP3   OH239153   5.951   4.903   0.939  0.0788  0.2444 -0.0499
 5865TIP3    H139154   6.040   4.891   0.970 -0.0031  1.7548  0.9016
 5865TIP3    H239155   5.902   4.828   0.974  0.7271  0.0475  0.4384
 5866TIP3   OH239156   0.911   5.505   7.423 -0.0742  0.1945 -0.2873
 5866TIP3    H139157   0.957   5.438   7.371  0.3069  0.6748 -0.5820
 5866TIP3    H239158   0.850   5.456   7.478  0.8282 -0.4721  0.1426
 5867TIP3   OH239159   1.216   6.486   3.274  0.1040 -0.1627 -0.5496
 5867TIP3    H139160   1.219   6.434   3.194 -1.9791 -0.9153 -0.1786
 5867TIP3    H239161   1.289   6.453   3.327 -1.4359 -3.1978 -0.0965
 5868TIP3   OH239162   2.135   5.094   0.558  0.1101  0.1856  0.3778
 5868TIP3    H139163   2.179   5.092   0.473  0.4779  1.2820  0.5253
 5868TIP3    H239164   2.105   5.004   0.571  0.7275 -0.1790 -0.5518
 5869TIP3   OH239165   1.908   3.700   0.760  0.2155  0.1892  0.0542
 5869TIP3    H139166   1.863   3.763   0.817 -1.7541  1.8133 -3.0109
 5869TIP3    H239167   1.846   3.628   0.750 -0.3976  0.8917 -1.5727
 5870TIP3   OH239168   0.119   5.303   2.939  0.0927  0.1129 -0.1452
 5870TIP3    H139169   0.042   5.320   2.885  0.8729  1.1677 -0.9795
 5870TIP3    H239170   0.128   5.382   2.993 -0.1106 -0.5208  0.8341
 5871TIP3   OH239171   1.651   2.285   0.032  0.0495  0.3846  0.6631
 5871TIP3    H139172   1.572   2.250  -0.008 -0.5436  0.3947  1.7814
 5871TIP3    H239173   1.664   2.370  -0.011  1.3381 -0.9951 -1.8527
 5872TIP3   OH239174   3.871   6.265   2.375 -0.2315  0.3240  0.0989
 5872TIP3    H139175   3.846   6.305   2.291 -0.5095  0.7776  0.3962
 5872TIP3    H239176   3.939   6.323   2.409  0.5100 -0.3356 -0.2139
 5873TIP3   OH239177   4.749   0.909   8.329  0.4832 -0.0112 -0.0771
 5873TIP3    H139178   4.825   0.941   8.280  0.7241  0.1399  0.3932
 5873TIP3    H239179   4.763   0.939   8.418 -0.2574  0.2227 -0.0336
 5874TIP3   OH239180   3.064   1.672   7.827  0.4050  0.0532 -0.5947
 5874TIP3    H139181   2.984   1.673   7.881  2.1200 -0.5669  2.1732
 5874TIP3    H239182   3.129   1.715   7.882  2.2028 -0.2656 -2.3945
 5875TIP3   OH239183   4.043   6.482   8.592  0.9874  0.1238 -0.2117
 5875TIP3    H139184   4.026   6.459   8.684 -0.7424 -0.5184 -0.6470
 5875TIP3    H239185   4.103   6.556   8.596  1.6061 -0.4233  1.4176
 5876TIP3   OH239186   2.433   1.543   0.701 -0.2363 -0.3251  0.5407
 5876TIP3    H139187   2.350   1.507   0.670 -0.0768 -0.6625  0.4913
 5876TIP3    H239188   2.474   1.471   0.749  0.9672 -0.8779 -1.1952
 5877TIP3   OH239189   1.310   2.350   6.876  0.3798 -0.4780 -0.0102
 5877TIP3    H139190   1.385   2.406   6.899 -1.7164  2.7776 -0.3859
 5877TIP3    H239191   1.293   2.299   6.955  0.3183  2.0618  1.7477
 5878TIP3   OH239192   6.523   4.060   8.144  0.3312 -0.3404 -0.0754
 5878TIP3    H139193   6.558   4.005   8.214 -1.1938 -0.0486  0.9700
 5878TIP3    H239194   6.428   4.058   8.157  0.1352  1.2257 -1.0216
 5879TIP3   OH239195   1.873   2.295   8.372 -0.0762 -0.4491  0.4872
 5879TIP3    H139196   1.920   2.351   8.434 -0.5871  1.3545 -0.6872
 5879TIP3    H239197   1.785   2.332   8.369 -0.3201 -1.0852 -0.6210
 5880TIP3   OH239198   2.059   4.659   7.126 -0.1506 -0.0663 -0.0529
 5880TIP3    H139199   2.075   4.707   7.044  0.4666 -2.2562 -1.3174
 5880TIP3    H239200   2.115   4.702   7.190  0.7607  0.6065 -1.2428
 5881TIP3   OH239201   6.350   0.041   8.576  0.4480  0.1712  0.2875
 5881TIP3    H139202   6.276   0.084   8.618 -0.0758  0.2687 -0.7236
 5881TIP3    H239203   6.327   0.036   8.484  1.4284 -0.3672  0.0522
 5882TIP3   OH239204   2.776   1.270   2.381  0.2173 -0.0296 -0.1870
 5882TIP3    H139205   2.856   1.235   2.421  0.1931  0.3825  0.2305
 5882TIP3    H239206   2.770   1.225   2.297  0.4065 -0.7169  0.1644
 5883TIP3   OH239207   0.027   0.179   0.751 -0.2610  0.2189  0.2894
 5883TIP3    H139208   0.022   0.088   0.781  0.1953  0.6481  1.7859
 5883TIP3    H239209   0.111   0.186   0.706  0.2465  0.1616  1.2051
 5884TIP3   OH239210   5.837   6.382   1.673  0.2755  0.2560 -0.1203
 5884TIP3    H139211   5.814   6.450   1.737 -0.3356  0.4095 -0.4967
 5884TIP3    H239212   5.870   6.310   1.726  0.7409  0.7658  0.2996
 5885TIP3   OH239213   1.391   0.389   0.566 -1.1680 -0.2035 -0.3883
 5885TIP3    H139214   1.412   0.316   0.625  0.1728 -0.5541 -1.2563
 5885TIP3    H239215   1.297   0.380   0.549 -1.6729  0.1065  1.9135
 5886TIP3   OH239216   4.570   3.666   2.461 -0.8473  0.3869 -0.5166
 5886TIP3    H139217   4.651   3.667   2.511 -0.3686  0.7413 -1.2909
 5886TIP3    H239218   4.573   3.583   2.413  0.4157  1.6108 -2.6984
 5887TIP3   OH239219   4.413   0.660   0.533  0.1182  0.1129 -0.1283
 5887TIP3    H139220   4.350   0.691   0.598 -0.3637 -1.1479  0.0305
 5887TIP3    H239221   4.359   0.621   0.464  0.6699  0.4809 -0.7785
 5888TIP3   OH239222   2.841   0.917   2.017  0.1036 -0.6728 -0.4517
 5888TIP3    H139223   2.815   0.862   1.943 -0.1973 -0.5782 -0.4171
 5888TIP3    H239224   2.937   0.923   2.010 -0.0972  2.0028 -2.7791
 5889TIP3   OH239225   5.408   4.486   1.100 -0.1162 -0.4296 -0.1399
 5889TIP3    H139226   5.468   4.559   1.088 -0.2452  0.1958  2.4195
 5889TIP3    H239227   5.443   4.416   1.044  2.2682  0.3151  0.3261
 5890TIP3   OH239228   5.968   4.963   0.684  0.3402 -0.0123  0.2902
 5890TIP3    H139229   5.979   4.924   0.770 -0.0704  1.4001  1.0028
 5890TIP3    H239230   5.876   4.989   0.680  0.4438  0.2861 -0.4309
 5891TIP3   OH239231   5.027   0.671   7.123 -0.0621  0.2322  0.3506
 5891TIP3    H139232   5.110   0.702   7.088  0.2253 -1.5074 -0.6193
 5891TIP3    H239233   4.994   0.609   7.057 -1.6539  0.1593  1.1593
 5892TIP3   OH239234   2.001   3.770   2.079  0.0611 -0.4606 -0.4319
 5892TIP3    H139235   1.928   3.793   2.135  1.7896 -1.2703  2.3755
 5892TIP3    H239236   2.066   3.839   2.094  0.6540 -0.8115 -1.2720
 5893TIP3   OH239237   0.057   0.821   2.533  0.5998  0.9866 -0.1656
 5893TIP3    H139238   0.000   0.833   2.457  1.4069 -1.8231 -1.3510
 5893TIP3    H239239   0.139   0.863   2.509  1.9148 -2.3693 -2.3655
 5894TIP3   OH239240   3.590   1.798   0.994 -0.1197  0.3297 -0.1601
 5894TIP3    H139241   3.615   1.761   0.909 -0.5061  2.4761 -1.2813
 5894TIP3    H239242   3.673   1.820   1.036  0.1120 -1.7259  0.5303
 5895TIP3   OH239243   4.493   0.956   0.348  0.3270  0.4333  0.0929
 5895TIP3    H139244   4.440   1.006   0.286  0.5097 -0.0049 -0.4249
 5895TIP3    H239245   4.449   0.872   0.355  1.4045 -0.2687 -1.0364
 5896TIP3   OH239246   4.939   2.006   7.667  0.5126  0.2992  1.0870
 5896TIP3    H139247   5.034   1.998   7.676  0.8164  2.2425  0.0773
 5896TIP3    H239248   4.905   1.991   7.755  1.9204  1.5009  1.8810
 5897TIP3   OH239249   2.111   1.840   0.937  0.0091  0.4994 -0.2297
 5897TIP3    H139250   2.176   1.908   0.920  0.4299  0.4275  0.9914
 5897TIP3    H239251   2.099   1.841   1.032 -1.0261 -0.1785 -0.3346
 5898TIP3   OH239252   3.110   6.264   1.575 -0.8199 -0.1217 -0.0706
 5898TIP3    H139253   3.148   6.352   1.579 -0.9564 -0.0851  0.4960
 5898TIP3    H239254   3.061   6.263   1.493 -0.3323  0.1327 -0.3662
 5899TIP3   OH239255   0.307   5.179   0.180 -0.3160  0.2560 -0.1636
 5899TIP3    H139256   0.358   5.192   0.260 -0.1149  0.6749 -0.3591
 5899TIP3    H239257   0.271   5.265   0.160  0.5088  0.3980 -1.1136
 5900TIP3   OH239258   4.056   0.678   7.228 -0.4397  0.0207 -0.1245
 5900TIP3    H139259   4.105   0.747   7.183  1.5646 -0.8185  0.6811
 5900TIP3    H239260   4.119   0.639   7.289 -2.6329  0.1853  2.4309
 5901TIP3   OH239261   2.050   3.349   1.834 -0.2582 -0.1169 -0.6666
 5901TIP3    H139262   1.984   3.411   1.866  0.2226  0.1020 -0.0810
 5901TIP3    H239263   2.034   3.344   1.740  0.0262  1.3195 -0.8173
 5902TIP3   OH239264   4.511   4.143   2.101 -0.3398  0.2972  0.3330
 5902TIP3    H139265   4.584   4.204   2.107 -1.4826  1.6339  1.2854
 5902TIP3    H239266   4.520   4.086   2.178  1.2269 -1.4086 -1.0138
 5903TIP3   OH239267   6.112   0.159   1.433 -0.2392 -0.1838 -0.1243
 5903TIP3    H139268   6.200   0.171   1.468 -0.2739  1.1312 -0.4524
 5903TIP3    H239269   6.106   0.065   1.415  0.9429 -0.3523  0.2859
 5904TIP3   OH239270   1.591   2.410   1.401 -0.4725 -0.1124  0.0505
 5904TIP3    H139271   1.687   2.416   1.396 -0.5289  0.6299 -0.3724
 5904TIP3    H239272   1.561   2.497   1.375 -1.2489 -0.1759  0.7062
 5905TIP3   OH239273   3.996   4.059   7.688 -0.5727 -0.3837  0.0906
 5905TIP3    H139274   4.020   4.140   7.644  1.3535 -0.9369  0.0177
 5905TIP3    H239275   3.939   4.013   7.626  1.7009 -0.9377 -1.7163
 5906TIP3   OH239276   5.116   4.814   8.135 -0.2191  0.4187 -0.1742
 5906TIP3    H139277   5.061   4.872   8.188 -0.1118 -0.0056  0.3996
 5906TIP3    H239278   5.122   4.733   8.185 -0.6878 -0.2391 -1.1594
 5907TIP3   OH239279   4.393   1.164   0.732  0.3481  0.3550  1.1941
 5907TIP3    H139280   4.444   1.170   0.651  0.5115 -1.9398  1.0623
 5907TIP3    H239281   4.312   1.212   0.713  1.1947  1.5292  0.3804
 5908TIP3   OH239282   5.076   1.428   1.999  0.4620 -0.1141  0.4898
 5908TIP3    H139283   5.061   1.341   1.963 -0.4135 -0.3879  1.4710
 5908TIP3    H239284   5.164   1.425   2.035  0.5346 -0.5042  0.2804
 5909TIP3   OH239285   3.019   0.585   7.703  0.1373  0.5960  0.3576
 5909TIP3    H139286   2.932   0.624   7.714 -0.1270  0.9422 -2.3258
 5909TIP3    H239287   3.006   0.515   7.639  1.7695  0.3339  0.2668
 5910TIP3   OH239288   4.787   0.170   2.762  0.4802 -0.0084 -0.4368
 5910TIP3    H139289   4.705   0.182   2.809  1.2881 -0.5637  1.1777
 5910TIP3    H239290   4.764   0.113   2.688 -1.1063  2.0961 -1.6685
 5911TIP3   OH239291   5.433   3.468   2.095  0.3969  0.3289 -0.1390
 5911TIP3    H139292   5.501   3.410   2.060  0.2039 -0.8324  1.2905
 5911TIP3    H239293   5.356   3.451   2.041  0.6596  0.0992 -0.4435
 5912TIP3   OH239294   4.620   1.373   7.774 -0.7736 -0.2462 -1.0240
 5912TIP3    H139295   4.592   1.290   7.813  1.7312 -1.3541 -1.3818
 5912TIP3    H239296   4.624   1.355   7.680 -1.0416  0.5442 -1.1860
 5913TIP3   OH239297   3.543   5.095   2.243 -0.8570 -0.2097 -0.7914
 5913TIP3    H139298   3.634   5.094   2.271 -1.1128  0.0125  0.1204
 5913TIP3    H239299   3.540   5.158   2.171 -0.3422  0.0060 -0.6301
 5914TIP3   OH239300   3.022   5.024   2.308  0.6917 -0.3682 -0.0380
 5914TIP3    H139301   2.944   5.068   2.274 -0.0654 -2.2126 -0.8230
 5914TIP3    H239302   3.066   4.990   2.230  1.3346 -0.8631  0.5236
 5915TIP3   OH239303   1.155   5.539   1.592 -0.1088 -0.1836  0.2905
 5915TIP3    H139304   1.064   5.539   1.618 -0.2042  0.2496 -0.0245
 5915TIP3    H239305   1.161   5.471   1.525 -0.7415  1.3908 -1.4463
 5916TIP3   OH239306   3.114   3.059   0.728 -0.4557 -0.0382 -0.5664
 5916TIP3    H139307   3.077   3.086   0.812  1.1512 -0.1572  0.2202
 5916TIP3    H239308   3.133   2.966   0.740  0.3174  0.0822 -0.8486
 5917TIP3   OH239309   1.568   3.848   0.879  0.1742 -0.0705 -0.5309
 5917TIP3    H139310   1.518   3.846   0.960  2.0752 -0.1191  0.7156
 5917TIP3    H239311   1.658   3.864   0.907  0.9308 -0.3187 -2.6252
 5918TIP3   OH239312   0.659   0.418   2.225 -0.1772  0.3571 -0.1029
 5918TIP3    H139313   0.594   0.359   2.264 -0.7300  0.1049 -1.3709
 5918TIP3    H239314   0.713   0.362   2.169 -1.8434  1.2240 -2.7834
 5919TIP3   OH239315   5.983   2.252   8.091  0.5522 -0.0588  0.2989
 5919TIP3    H139316   5.902   2.303   8.082  0.4016 -0.5281 -1.3382
 5919TIP3    H239317   5.977   2.186   8.022  3.0074  0.8174 -0.8448
 5920TIP3   OH239318   4.492   5.079   1.419 -0.0293  0.1881  0.0613
 5920TIP3    H139319   4.428   5.145   1.445  1.1752  1.1799  0.6273
 5920TIP3    H239320   4.454   5.037   1.342 -0.7458  1.6868 -0.4379
 5921TIP3   OH239321   4.581   3.342   0.598 -0.0784 -0.4581 -0.0845
 5921TIP3    H139322   4.625   3.401   0.538 -0.0120  0.2741  0.6724
 5921TIP3    H239323   4.526   3.287   0.542 -1.0109  1.0680 -0.7079
 5922TIP3   OH239324   5.336   6.619   0.054 -0.1217 -0.6114 -0.8409
 5922TIP3    H139325   5.309   6.546   0.110  1.1221 -0.0884  0.4902
 5922TIP3    H239326   5.419   6.590   0.015  1.0289  0.5217  0.6603
 5923TIP3   OH239327   1.842   4.733   0.094 -0.1600 -0.7013  0.4416
 5923TIP3    H139328   1.888   4.817   0.100 -1.5549  0.3756 -2.2409
 5923TIP3    H239329   1.908   4.673   0.058 -0.0540  0.1574 -0.8800
 5924TIP3   OH239330   3.030   6.302   2.239  0.0884  0.0367  0.1878
 5924TIP3    H139331   2.973   6.226   2.250  0.6834 -0.3159  0.9538
 5924TIP3    H239332   2.976   6.367   2.194 -0.6186 -0.6189  0.0795
 5925TIP3   OH239333   2.968   4.260   8.595 -0.0353  0.2949  0.0071
 5925TIP3    H139334   2.999   4.197   8.660 -0.5666 -0.5458 -0.5403
 5925TIP3    H239335   2.919   4.325   8.646 -0.6714 -0.5002  0.4266
 5926TIP3   OH239336   3.295   3.538   1.077 -0.2736  0.0914  0.1838
 5926TIP3    H139337   3.384   3.570   1.069 -0.4207  0.4913  0.1254
 5926TIP3    H239338   3.242   3.602   1.030 -0.6002 -0.1008  0.2852
 5927TIP3   OH239339   1.454   2.910   7.936 -0.2119 -0.5853 -0.1139
 5927TIP3    H139340   1.536   2.863   7.953 -0.4099 -1.0154 -0.3195
 5927TIP3    H239341   1.459   2.932   7.843 -0.1845 -0.3220 -0.0503
 5928TIP3   OH239342   4.982   2.366   2.452 -0.1742 -0.0587 -0.2125
 5928TIP3    H139343   4.903   2.315   2.471  0.3905 -0.9727 -0.2507
 5928TIP3    H239344   4.955   2.457   2.460 -2.0123 -0.2246 -3.2533
 5929TIP3   OH239345   4.867   0.263   8.311 -0.1216  0.1244 -0.2057
 5929TIP3    H139346   4.878   0.281   8.217 -0.1368 -2.3991 -0.7657
 5929TIP3    H239347   4.773   0.265   8.325 -0.0616  2.2644  0.2062
 5930TIP3   OH239348   1.767   6.361   8.399 -0.4331  0.0984  0.5442
 5930TIP3    H139349   1.793   6.438   8.449 -1.2966 -1.2972  3.3508
 5930TIP3    H239350   1.672   6.369   8.389 -0.3299  0.1308 -0.5407
 5931TIP3   OH239351   1.033   1.221   0.435  0.2674 -0.3256  0.0964
 5931TIP3    H139352   1.123   1.254   0.435 -0.4657  1.8225  0.8573
 5931TIP3    H239353   1.013   1.204   0.527 -0.5069  0.4588  0.0864
 5932TIP3   OH239354   0.765   2.414   8.391 -0.2521  0.1474 -0.2448
 5932TIP3    H139355   0.820   2.401   8.469 -0.0959  2.0327  0.0139
 5932TIP3    H239356   0.681   2.375   8.413 -0.9638  2.5999  1.8426
 5933TIP3   OH239357   2.277   5.951   8.604  0.3510  0.1246 -0.3728
 5933TIP3    H139358   2.290   5.866   8.560  0.4250  0.4842 -1.0669
 5933TIP3    H239359   2.184   5.952   8.626  0.5821 -0.6355  0.7176
 5934TIP3   OH239360   5.450   2.910   1.384  0.2676  0.2473  0.1116
 5934TIP3    H139361   5.388   2.952   1.443  1.9342  0.5703  1.7206
 5934TIP3    H239362   5.508   2.981   1.356  0.3204 -0.1610 -0.8854
 5935TIP3   OH239363   6.137   6.377   8.736  0.1482 -0.1070  0.0661
 5935TIP3    H139364   6.164   6.456   8.782  2.3573 -1.4713  1.3287
 5935TIP3    H239365   6.217   6.325   8.729 -1.2806 -2.3999 -0.3863
 5936TIP3   OH239366   6.058   6.262   0.322 -0.2144  0.2366 -0.6772
 5936TIP3    H139367   6.029   6.217   0.401 -1.9909  0.5517 -1.0968
 5936TIP3    H239368   6.152   6.245   0.317 -0.3277 -0.9751  0.7177
 5937TIP3   OH239369   6.580   6.443   0.802 -0.2449  0.6693 -0.3260
 5937TIP3    H139370   6.633   6.468   0.877  0.2168  0.4482 -0.5721
 5937TIP3    H239371   6.641   6.397   0.744 -0.0041  2.7927 -1.8967
 5938TIP3   OH239372   5.537   4.280   7.452 -0.3481  0.5599 -0.0598
 5938TIP3    H139373   5.582   4.219   7.394  1.3827  1.7442 -0.0213
 5938TIP3    H239374   5.445   4.276   7.423  0.0363 -0.7101 -1.2166
 5939TIP3   OH239375   6.283   2.644   0.131 -0.1423  0.0068  0.3776
 5939TIP3    H139376   6.334   2.562   0.130  0.0442  0.1260  0.0069
 5939TIP3    H239377   6.227   2.635   0.208 -1.8136 -1.5073 -0.9389
 5940TIP3   OH239378   1.546   4.732   0.794 -0.1891 -0.2983 -0.2136
 5940TIP3    H139379   1.529   4.706   0.885  1.5400 -3.2997 -0.5852
 5940TIP3    H239380   1.641   4.742   0.790 -0.3025  0.3351 -1.5732
 5941TIP3   OH239381   2.750   1.793   0.885 -0.5645  0.1171  0.2382
 5941TIP3    H139382   2.791   1.727   0.829  0.4739  0.2389  0.8366
 5941TIP3    H239383   2.813   1.865   0.886 -0.6102  0.1505  1.4924
 5942TIP3   OH239384   4.752   4.202   7.871  0.5522  0.3242  0.5114
 5942TIP3    H139385   4.768   4.153   7.790 -1.1164  0.6103 -0.0170
 5942TIP3    H239386   4.797   4.151   7.939  1.0537 -0.5050 -0.4143
 5943TIP3   OH239387   3.593   0.621   3.575  0.1099 -0.6859  0.1365
 5943TIP3    H139388   3.573   0.586   3.662  0.6000  1.8655  1.3609
 5943TIP3    H239389   3.688   0.612   3.568 -0.0134 -1.6555 -0.5437
 5944TIP3   OH239390   5.874   2.391   1.332 -0.0985 -0.0595 -0.0344
 5944TIP3    H139391   5.780   2.389   1.350 -0.4564  1.5031 -1.4197
 5944TIP3    H239392   5.909   2.312   1.372 -1.8749 -0.2492  1.2112
 5945TIP3   OH239393   3.595   0.381   8.499  0.0226  0.1591 -0.2013
 5945TIP3    H139394   3.688   0.395   8.477  0.0093 -1.7457 -1.6973
 5945TIP3    H239395   3.548   0.412   8.422 -0.5602  0.4930  0.2853
 5946TIP3   OH239396   0.333   1.575   2.217  0.2181  0.4621  0.2269
 5946TIP3    H139397   0.292   1.541   2.137  0.1189 -0.0839  0.4995
 5946TIP3    H239398   0.277   1.543   2.288  0.4270  0.7562  0.5286
 5947TIP3   OH239399   6.238   2.240   0.695  0.0483  0.2324 -0.3992
 5947TIP3    H139400   6.261   2.303   0.628  0.0003 -0.7434 -1.3623
 5947TIP3    H239401   6.149   2.264   0.721  0.1857  0.8061 -0.4594
 5948TIP3   OH239402   3.625   4.530   0.013 -0.0388  0.4207 -0.2580
 5948TIP3    H139403   3.672   4.447   0.002 -1.4017 -0.6577  1.5753
 5948TIP3    H239404   3.675   4.592  -0.040  1.5488 -1.3530 -0.9789
 5949TIP3   OH239405   6.468   0.920   7.804 -0.0756 -0.1847  0.6029
 5949TIP3    H139406   6.463   0.829   7.774  1.5759  0.6370 -2.6768
 5949TIP3    H239407   6.560   0.943   7.795 -0.2578  1.5153  2.4842
 5950TIP3   OH239408   4.150   3.819   2.749  0.0553  0.2034 -0.1337
 5950TIP3    H139409   4.219   3.869   2.793  0.9158 -2.3859  1.7123
 5950TIP3    H239410   4.069   3.863   2.775  0.8400  2.5656 -1.3483
 5951TIP3   OH239411   0.753   1.871   1.727  0.5901  0.0320 -0.2615
 5951TIP3    H139412   0.824   1.935   1.724  0.8010 -0.0815  1.2705
 5951TIP3    H239413   0.673   1.924   1.726  0.7379  0.2544 -0.3392
 5952TIP3   OH239414   5.182   3.435   1.724 -0.9038  0.2796 -1.0926
 5952TIP3    H139415   5.232   3.504   1.681  0.7768  0.8675  1.5457
 5952TIP3    H239416   5.096   3.437   1.683  0.4060  1.0203 -4.0040
 5953TIP3   OH239417   1.982   5.013   1.965  0.1923 -0.9500 -0.3184
 5953TIP3    H139418   2.019   5.094   1.930  0.0208 -0.7672 -0.0836
 5953TIP3    H239419   1.937   4.973   1.890  0.6718 -1.0636 -0.5473
 5954TIP3   OH239420   6.101   2.160   0.099 -0.9571  0.5951 -0.4183
 5954TIP3    H139421   6.092   2.213   0.020 -0.8940  0.3869 -0.5660
 5954TIP3    H239422   6.180   2.193   0.141 -1.7031  1.6062  0.2499
 5955TIP3   OH239423   5.983   0.651   1.623  0.2560  0.4384  0.0026
 5955TIP3    H139424   6.029   0.590   1.680  0.7873 -1.6718 -2.5019
 5955TIP3    H239425   6.034   0.732   1.629  2.7276 -0.9640 -0.5004
 5956TIP3   OH239426   4.163   0.427   2.342 -0.4212  0.0704  0.2732
 5956TIP3    H139427   4.086   0.479   2.365  1.5230  2.8765  0.9759
 5956TIP3    H239428   4.181   0.448   2.250 -1.6345 -2.2394 -0.5524
 5957TIP3   OH239429   6.379   0.165   0.551  0.2523  0.6372  0.7742
 5957TIP3    H139430   6.328   0.144   0.629  0.3637 -0.0192  0.6766
 5957TIP3    H239431   6.375   0.086   0.498  0.4700  0.9585  0.2726
 5958TIP3   OH239432   6.520   0.024   7.876 -0.4598 -0.7140  0.0109
 5958TIP3    H139433   6.469   0.105   7.873 -1.4893 -1.2974  1.1867
 5958TIP3    H239434   6.536   0.002   7.784 -0.0142  0.8970 -0.3209
 5959TIP3   OH239435   4.517   4.623   7.363  0.5213  0.2262 -0.5550
 5959TIP3    H139436   4.437   4.657   7.325  0.9622 -0.3768 -2.1086
 5959TIP3    H239437   4.531   4.675   7.442 -2.2467 -0.7188  0.6671
 5960TIP3   OH239438   6.582   1.035   2.132 -0.1219 -0.1122 -0.4734
 5960TIP3    H139439   6.607   0.960   2.078 -0.1319 -1.2452  1.0499
 5960TIP3    H239440   6.496   1.061   2.097 -0.0288 -0.6782 -1.1445
 5961TIP3   OH239441   5.722   4.549   2.150  0.0431  0.0175  0.1416
 5961TIP3    H139442   5.649   4.488   2.164 -0.1830  0.5436  1.4266
 5961TIP3    H239443   5.707   4.619   2.214  2.4475 -0.5861  1.4874
 5962TIP3   OH239444   2.692   4.446   0.059  0.3684  0.0649  0.1405
 5962TIP3    H139445   2.760   4.501   0.099 -0.3197  1.7956 -0.9635
 5962TIP3    H239446   2.610   4.493   0.076 -0.2300 -0.5437 -0.9523
 5963TIP3   OH239447   1.966   2.445   1.209 -0.0199 -0.6391  0.1500
 5963TIP3    H139448   1.967   2.457   1.304  0.0939  1.9581 -0.1156
 5963TIP3    H239449   1.907   2.370   1.195 -2.6007  0.8423  2.1255
 5964TIP3   OH239450   4.936   1.524   1.780 -0.1541 -0.1466 -0.7428
 5964TIP3    H139451   4.983   1.507   1.862 -1.4327  0.8860  0.2545
 5964TIP3    H239452   4.991   1.485   1.712  0.6169 -1.6062  0.6628
 5965TIP3   OH239453   1.696   3.850   1.409 -0.0804  0.0434 -1.0117
 5965TIP3    H139454   1.778   3.876   1.367  0.6911 -0.6601 -0.0044
 5965TIP3    H239455   1.723   3.787   1.475 -0.9484  2.3970  1.8111
 5966TIP3   OH239456   4.714   2.646   0.957 -0.3964 -0.0751 -0.0798
 5966TIP3    H139457   4.674   2.724   0.993 -0.6154  0.3192 -1.1592
 5966TIP3    H239458   4.675   2.635   0.871 -2.2214 -2.7667  0.9422
 5967TIP3   OH239459   6.823   3.714   0.378 -0.2359  0.1212  0.2523
 5967TIP3    H139460   6.731   3.689   0.387 -1.0750  2.5165 -0.6713
 5967TIP3    H239461   6.852   3.671   0.298 -0.0965 -1.7388  1.2599
 5968TIP3   OH239462   1.245   3.189   0.209  0.1749 -0.0998  0.1116
 5968TIP3    H139463   1.189   3.191   0.132 -1.0922 -1.2596  0.9508
 5968TIP3    H239464   1.293   3.106   0.201  0.5067  0.0747  0.2610
 5969TIP3   OH239465   3.627   0.254   1.801 -0.0677  0.2537  0.1281
 5969TIP3    H139466   3.664   0.342   1.812  0.8668 -0.0916 -0.1730
 5969TIP3    H239467   3.637   0.235   1.708 -0.1447 -0.2331  0.2166
 5970TIP3   OH239468   1.895   5.111   0.995 -0.7770 -0.0510  0.4757
 5970TIP3    H139469   1.980   5.093   0.956 -0.6405  2.0746 -0.2907
 5970TIP3    H239470   1.852   5.025   0.997  0.4889 -0.7911 -1.2649
 5971TIP3   OH239471   0.985   2.284   7.736  0.0792  0.0449 -0.2845
 5971TIP3    H139472   1.033   2.311   7.657  0.6708  1.0224  0.3804
 5971TIP3    H239473   0.930   2.212   7.707 -1.6191  1.9707 -2.2157
 5972TIP3   OH239474   4.091   0.310   2.965  0.0775  0.0793 -0.2161
 5972TIP3    H139475   4.040   0.335   3.042  0.8048 -1.1219  0.6766
 5972TIP3    H239476   4.171   0.272   3.000  0.7551  0.1776 -1.5827
 5973TIP3   OH239477   3.309   2.692   1.771 -0.1242 -0.3968  0.1268
 5973TIP3    H139478   3.295   2.711   1.863 -2.1936  0.0542 -0.2190
 5973TIP3    H239479   3.309   2.778   1.728 -1.9907 -0.6770 -0.5635
 5974TIP3   OH239480   0.641   3.622   7.850 -0.2820 -0.4721  0.2619
 5974TIP3    H139481   0.708   3.575   7.801 -0.5437  0.2642 -0.8527
 5974TIP3    H239482   0.619   3.564   7.923  2.2674 -0.3046  1.2760
 5975TIP3   OH239483   5.794   4.289   1.610 -0.3413 -0.3071  0.2842
 5975TIP3    H139484   5.802   4.319   1.519  0.8781  1.8158  1.0140
 5975TIP3    H239485   5.875   4.242   1.627 -0.5550 -0.6744  0.2918
 5976TIP3   OH239486   4.214   4.966   1.659  0.0100 -0.0333  0.5827
 5976TIP3    H139487   4.262   4.921   1.589 -0.7397  1.0184 -0.6419
 5976TIP3    H239488   4.178   4.896   1.712 -1.2078 -0.9337 -1.3280
 5977TIP3   OH239489   3.696   2.581   1.855  0.4981  0.6842 -0.2377
 5977TIP3    H139490   3.741   2.499   1.875 -0.5261  0.2089  0.2204
 5977TIP3    H239491   3.724   2.641   1.924  0.0393  0.2348  0.3533
 5978TIP3   OH239492   5.446   3.217   0.218 -0.6217  0.5191  0.4017
 5978TIP3    H139493   5.378   3.207   0.285 -1.3171  0.8683 -0.2391
 5978TIP3    H239494   5.398   3.222   0.136  0.2023  0.5203 -0.0873
 5979TIP3   OH239495   1.539   0.773   1.290 -0.8791  0.1880 -0.4293
 5979TIP3    H139496   1.513   0.685   1.316 -0.4495  0.1215 -0.2151
 5979TIP3    H239497   1.621   0.761   1.242 -0.4876  0.5255  0.1373
 5980TIP3   OH239498   0.445   2.179   1.446 -0.6172  0.2662 -0.2131
 5980TIP3    H139499   0.476   2.251   1.390 -0.0101  0.5420  0.4621
 5980TIP3    H239500   0.486   2.195   1.530 -2.7009  0.7177  0.7775
 5981TIP3   OH239501   1.810   3.458   6.708 -0.6841  0.2696 -0.0347
 5981TIP3    H139502   1.790   3.412   6.626  0.2277 -0.1057 -0.0513
 5981TIP3    H239503   1.903   3.442   6.724 -0.5589  1.3499  0.4490
 5982TIP3   OH239504   3.807   0.051   1.383 -0.1534 -0.0029  0.2536
 5982TIP3    H139505   3.861  -0.012   1.336  1.1477  1.6615 -0.5918
 5982TIP3    H239506   3.746  -0.003   1.434 -1.0556 -1.9477 -2.6287
 5983TIP3   OH239507   5.919   1.007   1.682  0.6878  0.1226  0.5753
 5983TIP3    H139508   5.990   1.064   1.652  0.4493  0.0043 -0.2474
 5983TIP3    H239509   5.882   0.971   1.601  0.7490 -1.0968  1.0751
 5984TIP3   OH239510   2.701   6.131   7.689 -0.0034  0.3273  0.3217
 5984TIP3    H139511   2.645   6.177   7.627  0.3065  1.3091  0.7423
 5984TIP3    H239512   2.686   6.038   7.671 -2.0282  0.5430  0.6405
 5985TIP3   OH239513   4.381   2.917   0.016  0.0103 -0.8039  0.2600
 5985TIP3    H139514   4.319   2.873   0.074  2.2766 -2.3432  1.6677
 5985TIP3    H239515   4.447   2.850  -0.004  0.1195  0.0964 -2.9699
 5986TIP3   OH239516   2.780   6.657   7.328 -0.2033  0.1828  0.1901
 5986TIP3    H139517   2.700   6.675   7.278 -0.3261 -2.7617 -0.8613
 5986TIP3    H239518   2.849   6.701   7.278 -0.4422 -1.9990 -2.3191
 5987TIP3   OH239519   2.559   4.378   2.282 -0.3334 -0.2449 -0.0168
 5987TIP3    H139520   2.526   4.403   2.195  1.9420  0.9194 -0.6259
 5987TIP3    H239521   2.616   4.450   2.307  0.4516 -1.4008  1.6744
 5988TIP3   OH239522   0.633   4.379   2.359  0.5016  0.3260  0.4874
 5988TIP3    H139523   0.538   4.370   2.368  0.5896 -0.8872  0.3374
 5988TIP3    H239524   0.670   4.310   2.414  1.2859  0.5258  0.2312
 5989TIP3   OH239525   1.231   5.986   1.293  0.1548  0.4794  0.2304
 5989TIP3    H139526   1.236   5.900   1.334  0.2277 -0.3715 -1.4516
 5989TIP3    H239527   1.310   6.031   1.321  1.6707 -1.1363 -1.1664
 5990TIP3   OH239528   1.163   6.442   1.396 -0.2037  0.0337 -0.1911
 5990TIP3    H139529   1.250   6.402   1.397  0.6450  1.7712 -1.1016
 5990TIP3    H239530   1.141   6.450   1.304 -1.3976 -0.4584  0.0320
 5991TIP3   OH239531   3.805   2.171   7.316  0.4979 -0.0031  0.4561
 5991TIP3    H139532   3.746   2.097   7.322 -0.3273  0.5460 -0.5368
 5991TIP3    H239533   3.759   2.243   7.359 -0.1748  0.7606 -1.4103
 5992TIP3   OH239534   5.883   5.683   1.868 -0.4987  0.2164  0.0415
 5992TIP3    H139535   5.828   5.711   1.795  1.5013  0.9456 -1.2462
 5992TIP3    H239536   5.876   5.588   1.868 -0.8143  0.2332 -0.8734
 5993TIP3   OH239537   5.147   0.262   2.134 -0.2075 -0.3871 -0.4820
 5993TIP3    H139538   5.075   0.206   2.104 -0.3010 -0.4013 -0.2314
 5993TIP3    H239539   5.174   0.223   2.217 -1.7238  1.1910  0.8240
 5994TIP3   OH239540   2.065   1.550   1.041  0.3277 -0.0889  0.0489
 5994TIP3    H139541   2.056   1.484   0.972 -0.7166  0.1814 -0.0841
 5994TIP3    H239542   2.086   1.631   0.993 -2.1824  0.5158 -0.1772
 5995TIP3   OH239543   3.599   4.042   0.426 -0.2478  0.1691  0.3476
 5995TIP3    H139544   3.625   4.010   0.513 -0.1106  0.4484  0.4117
 5995TIP3    H239545   3.618   4.136   0.429 -3.1874  0.8395  1.1257
 5996TIP3   OH239546   3.489   2.309   1.856  0.4479  0.2725  0.1453
 5996TIP3    H139547   3.480   2.285   1.764  0.3406 -1.7516  0.6266
 5996TIP3    H239548   3.484   2.225   1.903  0.9145  1.2104  1.9621
 5997TIP3   OH239549   1.480   3.579   1.881 -0.2474  0.0501  0.0551
 5997TIP3    H139550   1.545   3.549   1.818 -0.3655  1.1387 -0.6190
 5997TIP3    H239551   1.439   3.499   1.913  1.5009 -0.6802  0.6146
 5998TIP3   OH239552   0.076   5.791   3.009  0.0044  0.1175 -0.0732
 5998TIP3    H139553   0.070   5.887   3.005  0.3378  0.0969 -2.1633
 5998TIP3    H239554  -0.013   5.761   2.992  0.4415  0.0823 -2.7081
 5999TIP3   OH239555   6.003   6.751   7.229 -0.4530 -0.4658  0.6500
 5999TIP3    H139556   5.913   6.727   7.210 -0.2023 -0.8776 -0.0654
 5999TIP3    H239557   6.047   6.749   7.144  0.2327 -0.2951  0.9922
 6000TIP3   OH239558   3.998   6.316   8.389 -0.3639  0.0909  0.4680
 6000TIP3    H139559   4.033   6.351   8.308 -0.4925 -0.5437  0.1274
 6000TIP3    H239560   4.009   6.386   8.453 -0.3803  0.6456 -0.1275
 6001TIP3   OH239561   5.474   5.226   1.752 -0.3002  0.2090 -0.3109
 6001TIP3    H139562   5.498   5.269   1.834 -1.8029 -0.8160  0.7061
 6001TIP3    H239563   5.554   5.182   1.724  0.0807  0.0934  0.9092
 6002TIP3   OH239564   2.798   1.130   1.718 -0.1335 -0.3939 -0.2349
 6002TIP3    H139565   2.818   1.049   1.671 -2.7061 -1.4229  0.2626
 6002TIP3    H239566   2.868   1.139   1.783 -0.1805 -2.6514  0.1902
 6003TIP3   OH239567   3.675   1.257   1.420  0.3283 -0.0900 -0.1232
 6003TIP3    H139568   3.645   1.316   1.350 -3.0558  0.0123  1.2049
 6003TIP3    H239569   3.675   1.170   1.380  0.7349  0.2386 -0.8558
 6004TIP3   OH239570   6.544   1.082   0.317  0.2307 -0.1731  0.1572
 6004TIP3    H139571   6.531   1.017   0.248  1.4027 -0.4144  0.1441
 6004TIP3    H239572   6.458   1.124   0.327 -0.0851 -0.4843 -1.0824
 6005TIP3   OH239573   3.779   4.182   7.156  0.4214  0.3933 -0.1169
 6005TIP3    H139574   3.808   4.236   7.230 -2.0324  1.2099  0.3504
 6005TIP3    H239575   3.750   4.100   7.196  0.6223  0.1908 -0.3837
 6006TIP3   OH239576   5.232   1.035   2.515  0.8146 -0.6053 -0.1866
 6006TIP3    H139577   5.229   1.000   2.426 -0.1590 -3.0837  0.7278
 6006TIP3    H239578   5.168   0.983   2.564  0.8178  1.1285  1.8466
 6007TIP3   OH239579   5.368   3.622   1.022  0.5057  0.2629  0.8906
 6007TIP3    H139580   5.401   3.645   0.935 -0.3286 -0.2566  0.4242
 6007TIP3    H239581   5.422   3.548   1.049 -0.7945 -1.1783 -0.2605
 6008TIP3   OH239582   6.831   2.093   0.586  0.1535 -0.0194  0.4542
 6008TIP3    H139583   6.747   2.138   0.587 -0.7203 -1.4798 -1.1484
 6008TIP3    H239584   6.817   2.017   0.529  3.1073  0.7896 -1.5993
 6009TIP3   OH239585   0.597   2.352   0.057  0.5494 -0.0263 -0.3647
 6009TIP3    H139586   0.598   2.442   0.023 -1.7520  0.4349  0.5339
 6009TIP3    H239587   0.550   2.360   0.141 -0.8717 -2.2386 -0.8863
 6010TIP3   OH239588   3.604   6.634   2.373 -0.1802  0.7084  0.8736
 6010TIP3    H139589   3.567   6.721   2.363  0.1485  0.9927  1.9651
 6010TIP3    H239590   3.684   6.648   2.424  0.3122 -0.1383  0.3629
 6011TIP3   OH239591   2.303   4.667   8.612 -0.2273 -0.0200 -0.1229
 6011TIP3    H139592   2.227   4.656   8.670 -1.1606  0.3550 -1.2339
 6011TIP3    H239593   2.333   4.578   8.594  1.2452 -0.1254  2.3521
 6012TIP3   OH239594   2.055   0.317   2.492  0.3539 -0.3074  0.0238
 6012TIP3    H139595   2.147   0.341   2.503  1.1985 -1.5756 -3.1402
 6012TIP3    H239596   2.023   0.376   2.423 -1.3894  0.3476  1.2915
 6013TIP3   OH239597   1.438   0.167   2.158  0.3401 -0.3637 -0.1339
 6013TIP3    H139598   1.386   0.246   2.144  1.6286  0.4499 -0.5017
 6013TIP3    H239599   1.382   0.095   2.127 -0.0875  0.5981 -1.6947
 6014TIP3   OH239600   6.285   2.501   2.813 -0.4520 -0.0036  0.4535
 6014TIP3    H139601   6.199   2.534   2.840 -0.6314 -0.5418  0.5513
 6014TIP3    H239602   6.338   2.580   2.803 -1.8249  0.6958 -2.7955
 6015TIP3   OH239603   0.665   4.017   0.103 -0.0366 -0.1215  0.2435
 6015TIP3    H139604   0.621   3.974   0.029 -0.0697 -0.6032  0.5436
 6015TIP3    H239605   0.744   3.965   0.118  0.8206  0.9108 -0.4850
 6016TIP3   OH239606   0.342   6.117   1.012  0.4502 -0.3939  0.0718
 6016TIP3    H139607   0.405   6.159   0.954  0.4250  0.9317  0.9571
 6016TIP3    H239608   0.334   6.028   0.978  0.7566  0.1979 -1.6711
 6017TIP3   OH239609   5.152   0.288   2.679  0.3639  0.3752 -0.6690
 6017TIP3    H139610   5.060   0.311   2.692  0.4272  0.8300 -1.0004
 6017TIP3    H239611   5.199   0.370   2.691  0.7489  0.1117 -0.3223
 6018TIP3   OH239612   1.369   2.266   0.001 -0.3727  0.0112  0.0680
 6018TIP3    H139613   1.339   2.316  -0.074 -0.1857 -0.7837 -0.5480
 6018TIP3    H239614   1.293   2.215   0.028 -0.0228 -0.8659 -0.5550
 6019TIP3   OH239615   0.029   5.322   2.524  0.0626  0.2894  0.2414
 6019TIP3    H139616  -0.053   5.312   2.476  0.2386  2.8285 -0.7502
 6019TIP3    H239617   0.002   5.343   2.613 -0.4364  1.4979 -0.1623
 6020TIP3   OH239618   2.216   4.192   7.375  0.6172  0.1345 -0.4355
 6020TIP3    H139619   2.205   4.287   7.383  2.1370  0.2224  1.1633
 6020TIP3    H239620   2.268   4.180   7.296  2.5866  0.8883  0.6606
 6021TIP3   OH239621   3.561   1.444   2.040 -0.0112  0.2195  0.0931
 6021TIP3    H139622   3.550   1.490   2.123  0.5426 -0.1940  0.3998
 6021TIP3    H239623   3.477   1.401   2.025  0.1692 -0.4460  0.8973
 6022TIP3   OH239624   2.552   1.480   0.386  0.2165  0.0885 -0.1533
 6022TIP3    H139625   2.607   1.510   0.314 -0.0848  0.1719 -0.3507
 6022TIP3    H239626   2.483   1.430   0.344  1.4214 -2.0200  0.2629
 6023TIP3   OH239627   4.735   4.762   6.996 -0.2677 -0.3100  0.2383
 6023TIP3    H139628   4.808   4.805   6.952 -1.8694  1.7090 -0.6144
 6023TIP3    H239629   4.775   4.720   7.072  1.8617  0.1818 -0.5396
 6024TIP3   OH239630   0.450   4.825   0.249 -0.9141 -0.0630  0.1997
 6024TIP3    H139631   0.405   4.839   0.333  0.2976 -1.5449  1.1409
 6024TIP3    H239632   0.409   4.746   0.213  1.2537 -1.8757  1.4124
 6025TIP3   OH239633   2.734   6.126   8.313  0.1620 -0.3495 -0.1752
 6025TIP3    H139634   2.804   6.165   8.260 -0.3922  0.1129 -0.5878
 6025TIP3    H239635   2.759   6.034   8.323  1.0039 -0.1059 -0.0179
 6026TIP3   OH239636   4.141   5.335   0.535 -0.2348 -0.4020  0.2687
 6026TIP3    H139637   4.214   5.371   0.485 -0.8191  0.5617  0.0763
 6026TIP3    H239638   4.064   5.351   0.479 -0.5554 -1.7596  0.2784
 6027TIP3   OH239639   1.849   2.715   8.432 -0.6431 -0.3232 -0.4838
 6027TIP3    H139640   1.783   2.773   8.470 -0.5744 -0.0277 -0.8211
 6027TIP3    H239641   1.846   2.637   8.488 -0.0401  0.3914  0.5754
 6028TIP3   OH239642   3.341   4.999   0.232 -0.2421  0.3092 -0.0164
 6028TIP3    H139643   3.258   5.046   0.238 -0.8790 -0.8040  0.1476
 6028TIP3    H239644   3.400   5.059   0.186 -1.0928  1.1695 -0.0019
 6029TIP3   OH239645   6.650   1.720   1.431  0.0322  0.4181 -0.0632
 6029TIP3    H139646   6.722   1.769   1.391  0.9994 -0.8089  0.1194
 6029TIP3    H239647   6.634   1.764   1.514 -0.6596  1.7861 -0.8860
 6030TIP3   OH239648   1.377   3.197   6.793 -0.0007  0.3655  0.0955
 6030TIP3    H139649   1.377   3.158   6.880 -1.5483 -1.0414 -0.4813
 6030TIP3    H239650   1.466   3.229   6.781  0.4395 -0.1067  1.8940
 6031TIP3   OH239651   4.562   5.213   0.806  0.3219  0.0184 -0.4181
 6031TIP3    H139652   4.520   5.254   0.881 -0.3215 -0.2179 -0.6378
 6031TIP3    H239653   4.491   5.200   0.743  0.5799 -1.0520 -0.5154
 6032TIP3   OH239654   2.244   4.403   2.696  0.1404 -0.0764  0.3756
 6032TIP3    H139655   2.176   4.335   2.694 -1.4616  1.4779  0.2640
 6032TIP3    H239656   2.203   4.477   2.740  1.0906  1.5762 -1.3618
 6033TIP3   OH239657   2.085   3.402   1.527  0.0922  0.0000  0.1925
 6033TIP3    H139658   2.048   3.349   1.457  2.9165 -2.3592  0.2708
 6033TIP3    H239659   2.097   3.489   1.487  0.5707 -0.9619 -1.9120
 6034TIP3   OH239660   1.599   5.778   0.985 -0.3257  0.0556  0.4383
 6034TIP3    H139661   1.536   5.726   1.036 -0.0734  0.5777  1.3136
 6034TIP3    H239662   1.573   5.868   1.000  1.0510  0.3317  1.4364
 6035TIP3   OH239663   4.396   3.127   0.612  0.4774  0.9803  0.0122
 6035TIP3    H139664   4.371   3.167   0.529  0.7531 -0.2694 -0.6994
 6035TIP3    H239665   4.384   3.033   0.598  1.9220  0.6320  0.9019
 6036TIP3   OH239666   4.037   6.028   1.731  0.3246  0.0516 -0.0939
 6036TIP3    H139667   4.055   5.935   1.714  0.8279 -0.1738  1.5099
 6036TIP3    H239668   3.941   6.034   1.729  0.3177 -0.0214 -2.4095
 6037TIP3   OH239669   1.347   4.487   0.872 -0.5108 -0.0443  0.1732
 6037TIP3    H139670   1.287   4.436   0.818 -0.8147 -0.5982  1.0230
 6037TIP3    H239671   1.405   4.531   0.809  0.0802 -1.8124 -0.5706
 6038TIP3   OH239672   1.842   2.199   1.196 -0.3372 -0.0261  0.4766
 6038TIP3    H139673   1.777   2.136   1.226  0.4817  0.1139  2.7307
 6038TIP3    H239674   1.914   2.146   1.161 -0.2309 -0.2909  1.0989
 6039TIP3   OH239675   6.112   0.368   2.068 -0.1584 -0.8817 -0.3674
 6039TIP3    H139676   6.181   0.430   2.091 -0.9510 -0.2293  0.3052
 6039TIP3    H239677   6.141   0.331   1.984  0.9099 -0.4900 -0.1926
 6040TIP3   OH239678   6.528   3.464   2.161 -0.7908  0.1636 -0.3010
 6040TIP3    H139679   6.471   3.527   2.117  1.8490  1.5656 -1.9363
 6040TIP3    H239680   6.517   3.483   2.254 -0.4450  2.7478 -0.7316
 6041TIP3   OH239681   4.353   3.655   0.803  0.4684 -0.3636  0.5062
 6041TIP3    H139682   4.405   3.676   0.726 -1.2677  0.4137 -0.5109
 6041TIP3    H239683   4.381   3.567   0.828  0.0064 -1.3044 -1.9792
 6042TIP3   OH239684   4.430   3.573   8.505  0.0358  0.7546 -0.4534
 6042TIP3    H139685   4.395   3.604   8.421 -0.5145 -0.5703 -0.7374
 6042TIP3    H239686   4.394   3.634   8.569 -1.9201  0.1289 -0.8791
 6043TIP3   OH239687   3.009   4.861   2.547 -0.8632 -0.1535 -0.4647
 6043TIP3    H139688   2.913   4.851   2.545 -0.8961 -0.8374  1.6457
 6043TIP3    H239689   3.026   4.937   2.492 -2.8044  1.0413  0.4441
 6044TIP3   OH239690   3.581   6.448   8.135 -0.4771  0.5184 -0.2625
 6044TIP3    H139691   3.571   6.478   8.045 -2.0119 -1.2195 -0.7463
 6044TIP3    H239692   3.523   6.372   8.141 -1.3142  1.2594  2.5140
 6045TIP3   OH239693   3.638   2.174   3.155  0.3269  0.1546  1.1287
 6045TIP3    H139694   3.629   2.086   3.119  0.8818  0.2375  0.7720
 6045TIP3    H239695   3.731   2.184   3.173  0.6070  1.3634 -0.6846
 6046TIP3   OH239696   1.726   1.471   1.688 -0.1296 -0.4174 -0.7870
 6046TIP3    H139697   1.747   1.438   1.601  1.1271 -1.4177 -0.1369
 6046TIP3    H239698   1.630   1.470   1.691 -0.1674 -1.6089 -1.6970
 6047TIP3   OH239699   2.330   3.913   6.334  0.3203  0.1861 -0.2233
 6047TIP3    H139700   2.234   3.912   6.335  0.3252 -0.0790  0.2937
 6047TIP3    H239701   2.355   3.832   6.377  0.7856 -0.3916 -1.5307
 6048TIP3   OH239702   5.213   2.945   0.086 -0.1613 -0.5119  0.2418
 6048TIP3    H139703   5.189   2.964   0.177  1.2250  1.2456  0.2930
 6048TIP3    H239704   5.241   2.853   0.087 -1.8347 -1.0661  1.1843
 6049TIP3   OH239705   6.247   5.635   1.158 -0.1690 -0.0887 -0.3701
 6049TIP3    H139706   6.160   5.656   1.125 -0.6066 -0.8462  0.2646
 6049TIP3    H239707   6.286   5.581   1.089 -0.7602 -0.9695 -0.0242
 6050TIP3   OH239708   1.798   6.083   7.225 -0.4573  0.2201  0.7173
 6050TIP3    H139709   1.837   6.169   7.241  2.1186 -0.8675  0.7184
 6050TIP3    H239710   1.841   6.025   7.287 -0.9116 -1.3920 -0.4076
 6051TIP3   OH239711   3.561   1.412   2.549 -0.5938  0.1834 -0.1127
 6051TIP3    H139712   3.518   1.475   2.607 -0.8565  0.6695 -0.8191
 6051TIP3    H239713   3.503   1.336   2.549 -0.9507  0.4515 -0.2760
 6052TIP3   OH239714   6.526   0.629   0.160 -0.2264 -0.8655  0.8769
 6052TIP3    H139715   6.572   0.650   0.241 -0.0629 -0.8063  0.7695
 6052TIP3    H239716   6.533   0.534   0.152  1.0487 -0.7406  0.1740
 6053TIP3   OH239717   1.273   6.109   8.403 -0.4518 -0.0153 -0.2418
 6053TIP3    H139718   1.265   6.187   8.348  0.9906 -0.4437 -1.1103
 6053TIP3    H239719   1.342   6.058   8.362 -1.5245 -1.8905  0.1696
 6054TIP3   OH239720   2.196   4.260   8.056  0.3664  0.0462 -0.0385
 6054TIP3    H139721   2.235   4.202   8.121  0.8184  0.6417  0.2231
 6054TIP3    H239722   2.234   4.231   7.973 -0.1060 -0.6214 -0.0347
 6055TIP3   OH239723   4.235   4.318   8.545 -0.0969  0.1354 -0.3304
 6055TIP3    H139724   4.237   4.387   8.611  1.9032  1.3026 -1.4825
 6055TIP3    H239725   4.204   4.362   8.466 -3.3338 -1.4366 -0.0937
 6056TIP3   OH239726   1.401   6.402   2.128 -0.1996  0.3094 -0.0662
 6056TIP3    H139727   1.383   6.484   2.174  0.9848  0.5951 -0.0774
 6056TIP3    H239728   1.356   6.335   2.181 -0.8618  0.9110  0.1504
 6057TIP3   OH239729   3.932   2.926   1.824 -0.6981  0.0361 -0.1320
 6057TIP3    H139730   3.964   2.836   1.831  1.1569  0.3982 -2.6734
 6057TIP3    H239731   3.965   2.970   1.902  1.4287 -0.6779 -0.5747
 6058TIP3   OH239732   4.959   2.444   2.134 -0.4962  0.3999  0.0472
 6058TIP3    H139733   5.025   2.378   2.154 -0.5436  0.2377 -0.3254
 6058TIP3    H239734   4.881   2.416   2.182 -0.0090  1.1308  1.2935
 6059TIP3   OH239735   6.803   5.182   1.138 -0.3349  0.4457  0.2452
 6059TIP3    H139736   6.749   5.133   1.199 -0.6054 -2.1390 -1.8445
 6059TIP3    H239737   6.751   5.187   1.058  0.6474  2.2052 -0.3432
 6060TIP3   OH239738   3.191   1.268   0.997  0.4758 -0.3812 -0.2790
 6060TIP3    H139739   3.118   1.302   1.048  0.2630  0.6681 -1.2526
 6060TIP3    H239740   3.223   1.193   1.047 -0.6484 -0.2589  0.6382
 6061TIP3   OH239741   3.500   3.164   1.742  0.2822  0.0606  0.2351
 6061TIP3    H139742   3.461   3.221   1.808 -0.0433  0.9285 -0.6830
 6061TIP3    H239743   3.434   3.097   1.726 -0.2186  0.6537 -0.2135
 6062TIP3   OH239744   6.411   2.127   8.618  0.2897 -0.4941 -0.0492
 6062TIP3    H139745   6.440   2.068   8.688  1.7406  1.6250  1.2617
 6062TIP3    H239746   6.490   2.141   8.565  0.1195  0.6416 -0.0220
 6063TIP3   OH239747   2.963   1.910   7.338 -0.6715  0.0498 -0.1608
 6063TIP3    H139748   2.972   1.850   7.412 -0.4340 -0.3588 -0.5167
 6063TIP3    H239749   2.869   1.912   7.320 -0.9347  1.3536  1.1240
 6064TIP3   OH239750   5.044   3.190   7.688 -0.4336  0.5416 -0.0334
 6064TIP3    H139751   4.970   3.251   7.681  0.8843  2.3854  1.1755
 6064TIP3    H239752   5.105   3.218   7.619  0.6386  1.3124  1.1883
 6065TIP3   OH239753   2.989   4.513   1.902 -0.3689 -0.3044 -0.1767
 6065TIP3    H139754   2.922   4.468   1.954  0.4030 -0.0880  1.0533
 6065TIP3    H239755   2.984   4.604   1.931 -0.0037 -0.1587 -0.5631
 6066TIP3   OH239756   3.917   4.600   7.746 -0.0603  0.3030  0.0131
 6066TIP3    H139757   3.964   4.517   7.755 -0.9787 -0.1944  0.2553
 6066TIP3    H239758   3.914   4.616   7.651 -1.2081 -0.7194 -0.1406
 6067TIP3   OH239759   2.962   2.773   7.842  0.6399  0.0424 -0.1269
 6067TIP3    H139760   3.029   2.773   7.910 -0.9300 -0.9377  1.5073
 6067TIP3    H239761   2.962   2.683   7.808 -0.3724 -0.1872  0.4548
 6068TIP3   OH239762   4.100   3.036   2.023 -0.1223 -0.7923 -0.1394
 6068TIP3    H139763   4.171   2.978   2.049 -0.6728 -0.5679  2.0584
 6068TIP3    H239764   4.143   3.108   1.978  0.9858 -1.0279  0.5061
 6069TIP3   OH239765   0.263   0.952   1.721  0.1220  0.4673 -0.2716
 6069TIP3    H139766   0.336   0.923   1.666 -0.9830 -0.8023 -1.1176
 6069TIP3    H239767   0.243   0.876   1.776 -0.8959  0.6063 -0.4290
 6070TIP3   OH239768   5.159   0.425   3.584 -0.5129 -0.0855 -0.6739
 6070TIP3    H139769   5.122   0.504   3.624 -0.8024  0.8624 -2.6878
 6070TIP3    H239770   5.248   0.450   3.560  0.0549 -1.0163  0.3703
 6071TIP3   OH239771   6.011   2.843   0.947 -0.4103  0.2420 -0.7553
 6071TIP3    H139772   6.043   2.768   0.897 -1.3426 -0.3054 -0.5621
 6071TIP3    H239773   5.951   2.888   0.887 -1.2724 -0.2282 -0.2794
 6072TIP3   OH239774   3.371   3.966   0.281 -0.0500  0.1350 -0.2413
 6072TIP3    H139775   3.451   3.978   0.332  1.5644  0.1211 -2.6042
 6072TIP3    H239776   3.342   3.877   0.303  1.3854 -0.3879 -0.3355
 6073TIP3   OH239777   3.200   2.900   0.246  0.2600  0.2359  0.8541
 6073TIP3    H139778   3.196   2.939   0.159 -0.5640  1.3442  1.3725
 6073TIP3    H239779   3.272   2.945   0.290  1.7139 -1.4103  0.2609
 6074TIP3   OH239780   1.160   6.839   7.744  0.0802  0.3528 -0.2722
 6074TIP3    H139781   1.186   6.919   7.700 -0.4909  0.1711 -0.9616
 6074TIP3    H239782   1.105   6.793   7.681 -0.6807  0.0316  0.5919
 6075TIP3   OH239783   5.197   6.726   0.371 -0.0161  0.1832 -0.2216
 6075TIP3    H139784   5.235   6.701   0.287 -0.3637 -0.1671 -0.2811
 6075TIP3    H239785   5.183   6.642   0.416  0.9016  0.4137  0.5073
 6076TIP3   OH239786   4.380   0.294   3.571 -0.1291  0.2156 -0.1205
 6076TIP3    H139787   4.424   0.225   3.620 -2.5924 -1.5570 -0.2147
 6076TIP3    H239788   4.349   0.356   3.638  0.4504  0.2342  0.1325
 6077TIP3   OH239789   5.093   3.718   1.055 -0.0682 -0.5186 -0.3670
 6077TIP3    H139790   5.057   3.704   0.967  0.5635  0.9602 -0.8951
 6077TIP3    H239791   5.188   3.707   1.044  0.1117  0.6274 -0.1080
 6078TIP3   OH239792   1.304   4.689   0.246  0.8031 -0.7297  0.2007
 6078TIP3    H139793   1.276   4.778   0.229  1.0851 -0.8230 -0.8336
 6078TIP3    H239794   1.396   4.688   0.220  0.7806 -1.3354  0.1336
 6079TIP3   OH239795   4.810   6.097   3.036  0.5330  0.2045 -0.0444
 6079TIP3    H139796   4.749   6.047   3.090 -2.1623  2.3293 -0.8913
 6079TIP3    H239797   4.886   6.112   3.092 -0.9656 -0.0736  2.1687
 6080TIP3   OH239798   0.950   6.327   8.236  0.4043 -0.3018  0.5877
 6080TIP3    H139799   0.937   6.395   8.302 -1.4102  0.8717 -0.9012
 6080TIP3    H239800   1.020   6.361   8.180 -1.4149  1.0782 -0.9631
 6081TIP3   OH239801   5.061   6.659   7.866  0.3976  0.0809 -0.2547
 6081TIP3    H139802   5.034   6.709   7.944 -0.7856 -0.5069 -0.2586
 6081TIP3    H239803   5.030   6.570   7.884  0.5170 -0.1571 -1.2114
 6082TIP3   OH239804   1.183   4.681   2.793 -0.3253 -0.5706 -0.6871
 6082TIP3    H139805   1.117   4.723   2.737 -0.3760 -1.2646 -1.1652
 6082TIP3    H239806   1.188   4.737   2.870  0.2680  0.8164 -1.6924
 6083TIP3   OH239807   0.212   0.445   0.549 -0.0689  0.3928  0.5889
 6083TIP3    H139808   0.285   0.474   0.494  0.4416  0.7117  1.4047
 6083TIP3    H239809   0.242   0.360   0.584  0.0967  0.7175  1.2489
 6084TIP3   OH239810   5.376   5.497   1.089 -0.0173  0.2507 -0.7413
 6084TIP3    H139811   5.289   5.535   1.098  1.1133  3.2409 -1.4250
 6084TIP3    H239812   5.388   5.487   0.995 -0.3197 -2.1428 -0.5951
 6085TIP3   OH239813   6.111   3.975   0.449 -0.0123 -0.4171  0.1421
 6085TIP3    H139814   6.201   4.000   0.430 -0.3739  0.0765 -1.0095
 6085TIP3    H239815   6.098   3.894   0.400 -0.4273 -0.0651 -0.3399
 6086TIP3   OH239816   3.059   5.185   1.703 -0.0376  0.1508  0.5882
 6086TIP3    H139817   3.036   5.139   1.623  0.0450 -0.7361  1.0554
 6086TIP3    H239818   3.149   5.157   1.722 -0.4164 -0.4692  1.5366
 6087TIP3   OH239819   2.115   2.368   3.255 -0.2496 -0.3590  0.7511
 6087TIP3    H139820   2.062   2.414   3.189 -0.3412 -1.4193  0.0676
 6087TIP3    H239821   2.182   2.322   3.205 -0.1314 -0.9360  1.4253
 6088TIP3   OH239822   2.648   5.715   0.855  0.3200 -0.8688 -0.0851
 6088TIP3    H139823   2.709   5.656   0.899 -0.3091 -1.2582  0.2847
 6088TIP3    H239824   2.619   5.667   0.778 -0.1325 -1.0213  0.1745
 6089TIP3   OH239825   4.111   4.007   0.162  0.9244 -0.0931  0.8697
 6089TIP3    H139826   4.127   4.050   0.246  2.2328  1.8027 -0.2648
 6089TIP3    H239827   4.196   4.007   0.118  0.1879 -0.6093 -0.6460
 6090TIP3   OH239828   1.891   6.607   8.081  0.2041  0.4839 -0.2692
 6090TIP3    H139829   1.803   6.591   8.116 -0.2978  2.0064 -0.7659
 6090TIP3    H239830   1.950   6.572   8.149 -0.7483 -0.9901 -0.1439
 6091TIP3   OH239831   0.031   3.406   1.053 -0.1925  0.0920 -0.4298
 6091TIP3    H139832   0.053   3.496   1.078 -0.2629  0.2749 -1.0214
 6091TIP3    H239833   0.025   3.408   0.958 -0.2927 -0.5201 -0.4395
 6092TIP3   OH239834   3.123   2.267   2.413  0.0338 -0.1715 -0.1833
 6092TIP3    H139835   3.192   2.273   2.348  0.8139  1.0723  0.7112
 6092TIP3    H239836   3.089   2.357   2.420  1.7252  0.3867  2.9181
 6093TIP3   OH239837   3.846   0.014   2.335  0.1595 -0.1428 -0.7026
 6093TIP3    H139838   3.820  -0.051   2.401 -0.7017 -1.0972 -1.9210
 6093TIP3    H239839   3.933   0.042   2.362 -0.2351 -0.3723  0.9273
 6094TIP3   OH239840   5.717   5.809   8.442  0.3167 -0.1273  0.1716
 6094TIP3    H139841   5.665   5.818   8.522  0.9235  0.7472  0.4813
 6094TIP3    H239842   5.745   5.898   8.420  2.8473 -0.6663  0.8207
 6095TIP3   OH239843   2.039   6.168   0.624  0.1497  0.1275  0.2594
 6095TIP3    H139844   1.973   6.134   0.563  0.2698  2.0038 -0.9699
 6095TIP3    H239845   1.987   6.204   0.697 -0.1153  0.2824 -0.0047
 6096TIP3   OH239846   6.467   2.401   8.304 -0.1329  0.5994  0.5726
 6096TIP3    H139847   6.548   2.432   8.265  1.4409 -0.1676  2.9696
 6096TIP3    H239848   6.425   2.480   8.339 -0.2429  0.9512 -0.3369
 6097TIP3   OH239849   3.911   2.725   3.319  0.2527  0.2504  0.0324
 6097TIP3    H139850   3.853   2.730   3.243  1.4053  0.1658 -0.8891
 6097TIP3    H239851   3.875   2.788   3.381 -0.5144  0.5867 -0.7360
 6098TIP3   OH239852   2.966   6.392   8.554  0.0873 -0.0730 -0.4660
 6098TIP3    H139853   2.955   6.299   8.574 -0.1209 -0.7176 -3.2817
 6098TIP3    H239854   2.906   6.409   8.482  0.8943  2.0159 -0.7150
 6099TIP3   OH239855   2.050   5.714   8.000  0.0550 -0.2839  0.2927
 6099TIP3    H139856   2.141   5.699   8.023 -0.2703 -1.3292  0.9535
 6099TIP3    H239857   2.001   5.689   8.078 -0.7335  1.5435  0.4248
 6100TIP3   OH239858   2.113   3.136   0.665 -0.1317  0.4876  0.2184
 6100TIP3    H139859   2.140   3.158   0.576 -0.8345 -0.6479 -0.2999
 6100TIP3    H239860   2.162   3.057   0.687 -1.6896 -0.6310 -0.1058
 6101TIP3   OH239861   4.937   6.598   2.502 -0.2294 -0.4913  0.7083
 6101TIP3    H139862   4.960   6.587   2.594 -1.3363  0.5252  1.1319
 6101TIP3    H239863   4.908   6.512   2.473  0.2991 -0.8603  1.2454
 6102TIP3   OH239864   3.966   5.236   8.293  0.0277  0.9731  0.5679
 6102TIP3    H139865   3.899   5.295   8.327 -0.0910  1.0303  0.2409
 6102TIP3    H239866   3.972   5.257   8.200 -0.5405 -0.0310  0.2824
 6103TIP3   OH239867   2.974   5.541   0.428  0.3872  0.2288 -0.4520
 6103TIP3    H139868   2.886   5.566   0.401  0.2435  0.0521 -0.1493
 6103TIP3    H239869   2.981   5.571   0.519  0.5971  0.1337 -0.4361
 6104TIP3   OH239870   2.264   2.845   0.939 -0.1383 -0.3421 -0.3271
 6104TIP3    H139871   2.205   2.773   0.960  0.2176 -0.3851  0.5629
 6104TIP3    H239872   2.335   2.804   0.890 -0.2299 -0.4935 -0.3336
 6105TIP3   OH239873   4.537   3.958   7.601 -0.1454  0.5847  0.4078
 6105TIP3    H139874   4.632   3.959   7.589 -0.2283  2.2644 -0.3645
 6105TIP3    H239875   4.523   4.005   7.683 -0.1965 -2.1193  2.0634
 6106TIP3   OH239876   2.725   2.505   1.415  0.5985 -0.6188  0.3259
 6106TIP3    H139877   2.784   2.436   1.383  0.6689 -0.6610  0.5427
 6106TIP3    H239878   2.747   2.513   1.508 -2.1224 -3.0812  1.3182
 6107TIP3   OH239879   3.600   4.235   7.721 -0.1806  0.0037 -0.6143
 6107TIP3    H139880   3.543   4.272   7.653 -0.7563  1.3483  0.5611
 6107TIP3    H239881   3.686   4.231   7.680 -0.9207 -1.2630 -2.1397
 6108TIP3   OH239882   4.491   2.274   7.976  0.3417 -0.1456  0.6872
 6108TIP3    H139883   4.568   2.267   7.919  0.3927 -0.8597  0.8313
 6108TIP3    H239884   4.450   2.357   7.952  0.9328  0.0425  0.3236
 6109TIP3   OH239885   3.167   4.752   2.352 -0.0679 -0.1745  0.1895
 6109TIP3    H139886   3.262   4.762   2.351  0.0154 -0.8854 -0.3621
 6109TIP3    H239887   3.145   4.739   2.444  0.4173 -0.3882  0.2818
 6110TIP3   OH239888   3.559   1.152   0.481  0.1419  0.5196  0.3461
 6110TIP3    H139889   3.473   1.149   0.523  0.2277 -0.6280  0.4737
 6110TIP3    H239890   3.542   1.178   0.391 -0.2126  1.4469  0.6742
 6111TIP3   OH239891   0.726   6.279   0.658 -0.1192  0.3623 -0.1068
 6111TIP3    H139892   0.777   6.328   0.723 -0.0768 -0.8520  0.8173
 6111TIP3    H239893   0.791   6.224   0.613 -0.5864 -1.4258  1.2893
 6112TIP3   OH239894   4.734   5.627   7.191 -0.1801 -0.1325 -0.2559
 6112TIP3    H139895   4.662   5.684   7.163 -2.5697 -1.8290  2.0259
 6112TIP3    H239896   4.783   5.679   7.254 -1.0606  0.1611  0.2024
 6113TIP3   OH239897   6.496   3.627   1.764 -0.1040  0.3125  0.8301
 6113TIP3    H139898   6.548   3.705   1.781  0.7774 -0.2072  0.5445
 6113TIP3    H239899   6.544   3.555   1.804 -0.4702 -0.2121  0.3581
 6114TIP3   OH239900   2.762   3.448   0.676  0.1427 -0.5314  0.4580
 6114TIP3    H139901   2.687   3.403   0.716  0.4317 -1.3254  0.1161
 6114TIP3    H239902   2.812   3.379   0.633 -0.7026  0.3780 -2.2227
 6115TIP3   OH239903   0.030   1.298   2.855 -0.4241 -0.1582  0.2734
 6115TIP3    H139904   0.016   1.388   2.826  1.4414  0.4749  1.1721
 6115TIP3    H239905   0.062   1.307   2.945 -1.4940 -1.7982  0.8554
 6116TIP3   OH239906   0.133   0.397   8.523  0.4259 -0.2839 -0.1698
 6116TIP3    H139907   0.061   0.423   8.580  1.5061 -0.3743  1.2830
 6116TIP3    H239908   0.103   0.418   8.435 -1.1832  0.1009  0.4431
 6117TIP3   OH239909   2.514   6.293   1.025 -0.2504 -0.5118 -0.3133
 6117TIP3    H139910   2.487   6.230   1.092 -0.2865 -0.3190 -0.1462
 6117TIP3    H239911   2.464   6.269   0.948 -1.9423  0.6794  0.3572
 6118TIP3   OH239912   1.863   2.630   7.736 -0.1560  0.3594 -0.5428
 6118TIP3    H139913   1.897   2.540   7.742  2.6380  1.3945  2.0717
 6118TIP3    H239914   1.897   2.662   7.653  1.0932 -0.2533 -0.3048
 6119TIP3   OH239915   4.231   0.436   0.069  0.1884 -0.1395  0.3822
 6119TIP3    H139916   4.181   0.362   0.102 -0.4262  0.8211  1.6852
 6119TIP3    H239917   4.177   0.471  -0.003  1.4874 -2.1724 -1.7123
 6120TIP3   OH239918   3.262   1.318   8.344 -0.1912  0.3260  0.2180
 6120TIP3    H139919   3.212   1.398   8.329 -0.1986  0.4944  1.1154
 6120TIP3    H239920   3.309   1.334   8.426 -1.5329 -1.2222  1.3644
 6121TIP3   OH239921   1.821   4.735   0.719  0.6143  0.2104 -0.5691
 6121TIP3    H139922   1.806   4.760   0.628  0.0070  0.6598 -0.3508
 6121TIP3    H239923   1.846   4.643   0.715  0.0533  0.0768 -1.1496
 6122TIP3   OH239924   6.803   6.719   8.374 -0.3977 -0.2483  0.1223
 6122TIP3    H139925   6.725   6.671   8.347 -0.7443  0.3303  0.0706
 6122TIP3    H239926   6.775   6.811   8.376 -0.1492 -0.1933  1.6750
 6123TIP3   OH239927   4.339   1.472   7.839  0.1786  0.2802 -0.5093
 6123TIP3    H139928   4.389   1.482   7.920 -0.1195  1.1989 -0.4341
 6123TIP3    H239929   4.400   1.427   7.780  0.5230 -0.0721  0.0964
 6124TIP3   OH239930   3.223   5.192   8.564  0.2808  0.0578  0.1600
 6124TIP3    H139931   3.303   5.200   8.616  0.3442 -2.0553  0.4689
 6124TIP3    H239932   3.211   5.097   8.552 -2.7167  0.2452  0.9562
 6125TIP3   OH239933   3.465   1.114   8.288 -0.0409  0.2378 -0.4385
 6125TIP3    H139934   3.391   1.175   8.286 -0.0028  0.2942 -2.2734
 6125TIP3    H239935   3.521   1.144   8.217  0.6944 -1.0796 -0.4363
 6126TIP3   OH239936   1.699   2.867   8.623  0.1366  0.5339  0.4687
 6126TIP3    H139937   1.753   2.876   8.702 -0.2168 -1.0262  0.9237
 6126TIP3    H239938   1.616   2.831   8.655  0.9728 -3.0041 -0.8523
 6127TIP3   OH239939   1.149   2.351   2.189 -0.0532  0.4071 -0.2426
 6127TIP3    H139940   1.242   2.361   2.210  0.3832 -0.7689 -1.4526
 6127TIP3    H239941   1.139   2.393   2.104 -0.6780  0.7084 -0.0254
 6128TIP3   OH239942   2.803   0.872   1.600 -0.1745 -0.1774 -0.0107
 6128TIP3    H139943   2.741   0.840   1.665 -0.6950  0.5702 -0.1304
 6128TIP3    H239944   2.818   0.798   1.542  1.1971 -1.2457  1.6051
 6129TIP3   OH239945   6.549   1.957   0.016 -0.8043  0.3201 -0.1134
 6129TIP3    H139946   6.600   1.914  -0.053  1.4456 -0.1631  1.7487
 6129TIP3    H239947   6.531   1.887   0.079  0.4241  1.4519  1.5645
 6130TIP3   OH239948   5.573   2.357   1.324 -0.8587  0.3629  0.2739
 6130TIP3    H139949   5.528   2.334   1.406  0.4943  0.8152  1.1737
 6130TIP3    H239950   5.539   2.443   1.301 -0.9808  0.3913  0.5572
 6131TIP3   OH239951   4.067   6.017   2.338  0.6433 -0.1666  0.1807
 6131TIP3    H139952   4.112   6.037   2.256  1.7308  1.3490  1.0955
 6131TIP3    H239953   4.004   6.089   2.349 -0.1716 -0.8670  0.2283
 6132TIP3   OH239954   5.942   3.361   2.665 -0.8256  0.1399  0.0283
 6132TIP3    H139955   5.990   3.278   2.668 -1.9197 -0.5406 -0.7321
 6132TIP3    H239956   5.991   3.418   2.724  0.7234 -0.6186 -0.4604
 6133TIP3   OH239957   4.951   2.717   7.124  0.0645 -0.4192 -0.1248
 6133TIP3    H139958   4.905   2.729   7.207  0.7395 -1.3103  0.4061
 6133TIP3    H239959   4.920   2.633   7.092 -1.2091  0.5310 -1.4809
 6134TIP3   OH239960   4.937   3.232   1.837 -0.1342  0.8176 -0.5205
 6134TIP3    H139961   4.872   3.220   1.906 -1.1796  0.7884 -1.4741
 6134TIP3    H239962   4.911   3.169   1.769  0.2082  1.6007 -1.3974
 6135TIP3   OH239963   3.774   3.875   1.695  0.5964  0.0908 -0.1614
 6135TIP3    H139964   3.743   3.930   1.623  1.4232  0.5107 -0.2132
 6135TIP3    H239965   3.719   3.900   1.769  1.4676  1.6163  0.0264
 6136TIP3   OH239966   2.844   2.132   1.677  0.4939  0.1574 -0.4439
 6136TIP3    H139967   2.909   2.092   1.618  1.0563 -1.1093  0.9374
 6136TIP3    H239968   2.760   2.096   1.648  0.4870  1.0996 -1.6793
 6137TIP3   OH239969   1.050   4.698   0.809  0.1917 -0.9573  0.5731
 6137TIP3    H139970   1.049   4.655   0.724 -3.3438  1.4928 -0.8366
 6137TIP3    H239971   1.129   4.752   0.808 -0.3085 -0.1839 -1.6230
 6138TIP3   OH239972   4.053   5.392   8.627  0.0746 -0.2334 -0.3646
 6138TIP3    H139973   4.093   5.410   8.712 -0.0878  0.6630 -0.4688
 6138TIP3    H239974   4.015   5.305   8.636 -0.3698  0.0593  0.6470
 6139TIP3   OH239975   5.239   2.843   2.508 -0.5285 -0.2364 -0.1958
 6139TIP3    H139976   5.189   2.769   2.474 -0.5022 -0.3760  0.0634
 6139TIP3    H239977   5.176   2.915   2.511 -0.9822 -0.6542  1.0166
 6140TIP3   OH239978   2.629   4.365   1.183  0.2351  0.3059 -0.2895
 6140TIP3    H139979   2.559   4.310   1.218  1.3214 -1.0532 -0.1481
 6140TIP3    H239980   2.695   4.367   1.252 -0.2009  2.7360  0.1522
 6141TIP3   OH239981   2.607   5.150   1.946 -0.3130 -0.2169 -0.3115
 6141TIP3    H139982   2.677   5.122   2.004  0.0560 -0.4596 -0.8717
 6141TIP3    H239983   2.648   5.215   1.888 -1.0894  1.3577  0.8203
 6142TIP3   OH239984   1.928   0.287   7.615  0.5807  0.0374  0.8964
 6142TIP3    H139985   1.837   0.278   7.586  0.6506  1.1851  0.2793
 6142TIP3    H239986   1.948   0.380   7.601  1.4499  0.0682  2.1915
 6143TIP3   OH239987   6.746   1.919   0.952  0.1135 -0.1056  0.2981
 6143TIP3    H139988   6.800   1.886   0.881  0.9684 -2.9038  2.0668
 6143TIP3    H239989   6.805   1.977   1.002  0.6548 -0.9738  0.6874
 6144TIP3   OH239990   1.440   3.829   1.999 -0.2721 -0.2763 -0.5205
 6144TIP3    H139991   1.501   3.864   2.063  1.6385 -0.4091 -2.1741
 6144TIP3    H239992   1.486   3.755   1.959 -2.2863 -1.6242 -0.5426
 6145TIP3   OH239993   5.793   4.348   2.511  0.3001 -0.3848  0.4326
 6145TIP3    H139994   5.706   4.308   2.507 -0.0998  0.5348 -0.4402
 6145TIP3    H239995   5.832   4.314   2.592 -1.4350  0.3394  1.6209
 6146TIP3   OH239996   0.167   6.680   1.124 -0.6445  0.2154 -0.4744
 6146TIP3    H139997   0.151   6.762   1.170  0.0419 -0.1719  0.4920
 6146TIP3    H239998   0.121   6.690   1.040 -1.2348  1.2610 -0.0480
 6147TIP3   OH239999   3.202   2.495   2.742 -0.5245 -0.7171  0.2904
 6147TIP3    H140000   3.266   2.559   2.775  1.1376 -0.4706 -3.0108
 6147TIP3    H240001   3.145   2.546   2.684 -0.3558 -1.8548 -0.9103
 6148TIP3   OH240002   4.304   1.985   0.243 -0.2139 -0.0368  0.0128
 6148TIP3    H140003   4.242   2.017   0.178  0.3834 -0.8621 -0.9730
 6148TIP3    H240004   4.275   2.027   0.325 -1.9140 -0.2208 -0.4552
 6149TIP3   OH240005   1.340   1.928   0.217  1.1013  0.2294 -0.4601
 6149TIP3    H140006   1.298   1.883   0.291  1.5205 -0.3494 -0.5749
 6149TIP3    H240007   1.354   2.017   0.249  0.2086  0.3052 -0.2534
 6150TIP3   OH240008   0.396   6.483   1.393 -0.0279 -0.6913  0.1073
 6150TIP3    H140009   0.318   6.451   1.346  1.0091 -0.8387 -1.5721
 6150TIP3    H240010   0.387   6.445   1.480 -2.1595 -0.1900  0.1808
 6151TIP3   OH240011   2.132   6.627   3.280 -0.2696  0.2041  0.3114
 6151TIP3    H140012   2.040   6.614   3.302 -1.0406  2.0851 -1.4941
 6151TIP3    H240013   2.170   6.664   3.360 -1.0694 -0.4961  1.0462
 6152TIP3   OH240014   4.771   6.212   7.391  0.2624  0.0950 -0.2532
 6152TIP3    H140015   4.697   6.175   7.344 -0.5503  1.7442 -0.3610
 6152TIP3    H240016   4.747   6.203   7.484 -0.2670  0.9397 -0.2948
 6153TIP3   OH240017   3.797   3.608   0.876  0.1923 -0.1624  0.3372
 6153TIP3    H140018   3.725   3.632   0.934 -1.2412 -2.1332 -0.5271
 6153TIP3    H240019   3.851   3.548   0.927  1.7184  1.8413  1.2282
 6154TIP3   OH240020   2.677   0.369   3.204 -0.0065  0.1857  0.3203
 6154TIP3    H140021   2.759   0.367   3.254  0.5512 -0.9030 -0.5802
 6154TIP3    H240022   2.695   0.429   3.132 -0.0495  0.0687  0.2121
 6155TIP3   OH240023   4.006   4.652   8.029 -0.5895  0.2797 -0.1957
 6155TIP3    H140024   4.061   4.709   7.976 -1.1287 -1.5836 -2.9519
 6155TIP3    H240025   3.921   4.655   7.986 -1.3453 -0.5621  1.1861
 6156TIP3   OH240026   5.279   0.510   8.061  0.8344  0.2675  0.0969
 6156TIP3    H140027   5.219   0.436   8.055 -0.0185  0.8258  1.2848
 6156TIP3    H240028   5.285   0.529   8.155  1.9981  0.9449 -0.0899
 6157TIP3   OH240029   5.983   2.457   0.605  0.0902  0.4311  0.2987
 6157TIP3    H140030   5.888   2.456   0.600  0.1057 -0.7234 -0.1224
 6157TIP3    H240031   6.012   2.411   0.526  0.9246 -0.7513  1.2402
 6158TIP3   OH240032   0.777   2.272   0.261 -0.1373  0.3783 -0.5187
 6158TIP3    H140033   0.716   2.277   0.335 -1.5131 -0.0014 -1.5771
 6158TIP3    H240034   0.722   2.245   0.187  1.4602 -0.7041 -1.3664
 6159TIP3   OH240035   4.878   3.032   8.272 -0.2501 -0.3558  0.0563
 6159TIP3    H140036   4.923   2.948   8.277  0.2423 -0.1101 -0.1675
 6159TIP3    H240037   4.785   3.009   8.271 -0.1190 -1.0508 -2.4001
 6160TIP3   OH240038   2.320   6.339   2.578 -0.1867 -0.6329  0.2184
 6160TIP3    H140039   2.388   6.384   2.528 -0.4068 -0.7783 -0.2159
 6160TIP3    H240040   2.243   6.341   2.521 -0.7644  0.1779  0.9961
 6161TIP3   OH240041   0.904   5.866   2.402 -0.0466  0.0941  0.0647
 6161TIP3    H140042   0.888   5.887   2.310  0.9907 -2.2940 -0.7457
 6161TIP3    H240043   0.843   5.795   2.421 -0.3680  0.6702  1.3054
 6162TIP3   OH240044   5.987   5.644   1.044  0.0676  1.0699 -0.1069
 6162TIP3    H140045   5.950   5.682   1.123 -1.4233  1.1964 -0.8373
 6162TIP3    H240046   5.917   5.589   1.008  0.6035  1.2399 -1.4856
 6163TIP3   OH240047   2.002   0.424   1.341  0.4413 -0.1698 -0.4794
 6163TIP3    H140048   2.033   0.463   1.422 -2.6712  1.8830 -0.1054
 6163TIP3    H240049   2.078   0.425   1.283  2.4575 -0.6687  1.9867
 6164TIP3   OH240050   1.362   2.441   8.126  0.1100 -0.4489 -0.5220
 6164TIP3    H140051   1.416   2.362   8.131 -0.0218 -0.5025  0.3340
 6164TIP3    H240052   1.382   2.479   8.041 -0.4505 -1.8511 -1.3207
 6165TIP3   OH240053   1.778   1.463   8.084 -0.1281  0.0769 -0.2771
 6165TIP3    H140054   1.714   1.525   8.119 -0.0825  0.2406 -0.4829
 6165TIP3    H240055   1.746   1.378   8.113  0.4161  0.2721  0.9697
 6166TIP3   OH240056   5.009   0.506   2.035  0.3293 -0.1088  0.5528
 6166TIP3    H140057   5.004   0.448   1.959  4.4979  1.0967 -0.9108
 6166TIP3    H240058   5.073   0.465   2.093  2.2670  2.1436  0.1648
 6167TIP3   OH240059   0.406   3.525   0.184  0.3906  0.6004  0.2288
 6167TIP3    H140060   0.375   3.522   0.275 -0.8864  0.1180 -0.2020
 6167TIP3    H240061   0.401   3.434   0.154  0.3576  0.8241 -0.4632
 6168TIP3   OH240062   4.685   6.591   8.058  0.6008 -0.2128 -0.2717
 6168TIP3    H140063   4.608   6.534   8.057  2.1501 -2.4526  0.4419
 6168TIP3    H240064   4.652   6.677   8.086 -1.6081 -1.0993 -0.0086
 6169TIP3   OH240065   6.136   4.293   0.415 -0.2932 -0.0724 -0.0829
 6169TIP3    H140066   6.165   4.244   0.492 -0.4014 -1.3674 -0.8350
 6169TIP3    H240067   6.128   4.226   0.347  0.7308  1.1866 -1.4816
 6170TIP3   OH240068   2.463   3.797   7.779 -0.3177  0.1097 -0.0100
 6170TIP3    H140069   2.456   3.724   7.717 -0.7253  0.4958 -0.4281
 6170TIP3    H240070   2.546   3.840   7.757 -0.2464 -0.0197  0.0074
 6171TIP3   OH240071   4.326   6.185   7.614  0.1597 -0.1588  0.3035
 6171TIP3    H140072   4.336   6.216   7.524  0.1330 -1.7803 -0.2748
 6171TIP3    H240073   4.232   6.168   7.623  0.2838 -0.8086  0.3643
 6172TIP3   OH240074   6.453   3.017   2.216  0.6782  0.0007 -0.0276
 6172TIP3    H140075   6.462   3.035   2.122 -0.5830  1.4762  0.1020
 6172TIP3    H240076   6.414   3.096   2.252 -1.1885 -1.4737  1.3457
 6173TIP3   OH240077   3.905   4.593   0.866 -0.3521 -0.3915  0.9154
 6173TIP3    H140078   3.912   4.608   0.960  0.7804 -0.2026  0.8265
 6173TIP3    H240079   3.995   4.573   0.839 -0.6867 -0.5819 -0.1004
 6174TIP3   OH240080   1.329   2.465   1.254  0.3409 -0.2976 -0.6200
 6174TIP3    H140081   1.300   2.401   1.318  0.5434  0.6959  0.4979
 6174TIP3    H240082   1.249   2.502   1.218  0.2128  0.2204  0.1809
 6175TIP3   OH240083   6.402   4.638   1.998 -0.6407  0.0551  0.4795
 6175TIP3    H140084   6.419   4.730   1.979  0.0684  0.8522  4.1552
 6175TIP3    H240085   6.307   4.633   2.010 -1.0442 -0.3769 -2.2062
 6176TIP3   OH240086   2.975   3.451   2.809 -0.2727  0.0167  0.0867
 6176TIP3    H140087   3.018   3.438   2.724  1.3425 -0.2209  0.9001
 6176TIP3    H240088   2.910   3.519   2.793  0.7860  0.8033 -1.0986
 6177TIP3   OH240089   3.444   3.431   0.377  0.2131  0.0701 -0.0668
 6177TIP3    H140090   3.455   3.415   0.470  0.7693  1.8235  0.1993
 6177TIP3    H240091   3.387   3.508   0.372  1.6471  1.1171 -1.1112
 6178TIP3   OH240092   6.051   6.468   1.540 -0.1449 -0.6792  0.2577
 6178TIP3    H140093   6.111   6.398   1.515  0.9207 -0.2299  1.4998
 6178TIP3    H240094   6.000   6.431   1.612  0.8335 -0.0196  1.3285
 6179TIP3   OH240095   5.731   4.060   1.051  0.8670 -0.4339  0.2106
 6179TIP3    H140096   5.701   4.037   0.963 -0.6634 -1.6696  0.9949
 6179TIP3    H240097   5.818   4.021   1.057  1.3564  0.3919 -1.0138
 6180TIP3   OH240098   5.076   5.874   2.066 -0.0376  0.0222 -0.2282
 6180TIP3    H140099   5.062   5.895   2.159 -0.8217  0.4952 -0.4421
 6180TIP3    H240100   5.096   5.959   2.026  2.7902 -0.4877 -0.1013
 6181TIP3   OH240101   1.611   4.100   1.459  0.3018 -0.5865  0.8137
 6181TIP3    H140102   1.540   4.089   1.523 -0.4263 -0.0636  0.1097
 6181TIP3    H240103   1.633   4.010   1.434 -0.6042 -0.7396  0.5167
 6182TIP3   OH240104   3.282   6.049   0.818 -0.0647  0.0648 -0.2606
 6182TIP3    H140105   3.316   6.084   0.736  0.0812  0.1391 -0.1704
 6182TIP3    H240106   3.360   6.016   0.864 -0.4010 -1.9841 -1.0895
 6183TIP3   OH240107   1.175   2.774   7.999 -0.0762  0.4111 -0.1003
 6183TIP3    H140108   1.187   2.861   8.038 -0.6506 -0.0817  1.2263
 6183TIP3    H240109   1.259   2.755   7.957  0.0127  1.6569 -0.5527
 6184TIP3   OH240110   0.190   1.845   7.600  0.4477 -0.1094  0.2723
 6184TIP3    H140111   0.154   1.810   7.518 -0.1813  0.2169  0.4034
 6184TIP3    H240112   0.266   1.790   7.618  0.0967 -0.7245 -0.0866
 6185TIP3   OH240113   1.746   1.656   2.714 -0.4612  0.7526 -0.0492
 6185TIP3    H140114   1.764   1.743   2.679 -0.1858  0.9311  0.5106
 6185TIP3    H240115   1.768   1.596   2.643  1.7963  0.9963  0.3403
 6186TIP3   OH240116   6.659   6.556   7.584 -0.1125 -0.3863 -0.0026
 6186TIP3    H140117   6.748   6.526   7.603 -0.1668 -0.2675  0.4576
 6186TIP3    H240118   6.664   6.590   7.494  0.1994 -0.7903 -0.1406
 6187TIP3   OH240119   3.871   2.371   1.860 -0.4762  0.1153  0.3545
 6187TIP3    H140120   3.852   2.283   1.892  1.3328 -1.0053 -1.4030
 6187TIP3    H240121   3.909   2.416   1.935  0.5377 -1.3147  0.7417
 6188TIP3   OH240122   2.156   6.191   7.312  0.2151  0.1840  0.0996
 6188TIP3    H140123   2.236   6.161   7.269 -0.2210  0.2275 -0.7749
 6188TIP3    H240124   2.164   6.161   7.402  0.3222 -1.5668 -0.4542
 6189TIP3   OH240125   0.668   1.102   2.886  0.4319 -0.1194  0.1840
 6189TIP3    H140126   0.690   1.193   2.866 -1.5596  0.2772 -0.4398
 6189TIP3    H240127   0.631   1.105   2.975  0.3824 -0.3284  0.1718
 6190TIP3   OH240128   1.777   6.587   2.517 -0.1494  0.0177  0.3744
 6190TIP3    H140129   1.701   6.571   2.573 -1.6839  3.7485 -0.3375
 6190TIP3    H240130   1.745   6.573   2.428  1.0173 -1.5991  0.1697
 6191TIP3   OH240131   0.040   5.392   2.191 -0.1144  0.0043  0.2406
 6191TIP3    H140132   0.130   5.370   2.217  0.5713  0.4277 -1.6125
 6191TIP3    H240133  -0.014   5.329   2.238  1.0612  0.2845  2.0712
 6192TIP3   OH240134   1.819   3.298   0.347 -0.2615 -0.3065  0.7014
 6192TIP3    H140135   1.835   3.281   0.440  0.2477  2.0502  1.1137
 6192TIP3    H240136   1.901   3.273   0.304 -0.3039 -0.9003  0.9563
 6193TIP3   OH240137   4.326   6.519   0.630 -0.3170  0.1036  0.3672
 6193TIP3    H140138   4.244   6.483   0.597 -0.1592  0.7767 -0.7814
 6193TIP3    H240139   4.314   6.521   0.725 -1.4963 -0.1174  0.2418
 6194TIP3   OH240140   2.330   0.095   7.471  0.2592 -0.1244  0.5403
 6194TIP3    H140141   2.264   0.026   7.482 -0.7251  1.0212  2.3038
 6194TIP3    H240142   2.306   0.138   7.389  0.9956 -1.9176 -0.6834
 6195TIP3   OH240143   1.565   6.684   2.997 -0.4244 -0.0855 -0.1243
 6195TIP3    H140144   1.539   6.607   3.047  3.5268 -1.3658  0.2869
 6195TIP3    H240145   1.553   6.757   3.057 -0.8323 -0.8859  0.7813
 6196TIP3   OH240146   5.637   4.861   7.239  0.4259 -0.5503  0.1491
 6196TIP3    H140147   5.578   4.934   7.255  0.4125 -0.7059  0.8452
 6196TIP3    H240148   5.592   4.808   7.174  0.4625  0.0876 -0.4013
 6197TIP3   OH240149   5.553   0.996   2.321 -0.4621  0.0983  0.1606
 6197TIP3    H140150   5.484   0.970   2.260 -0.9143 -0.5815  0.9466
 6197TIP3    H240151   5.511   1.058   2.380 -0.6650 -0.9734  1.1807
 6198TIP3   OH240152   1.340   4.336   8.071  0.2623  0.3744 -0.3406
 6198TIP3    H140153   1.407   4.272   8.093  0.5278  0.7885  0.0766
 6198TIP3    H240154   1.258   4.288   8.074  0.5456 -0.1721 -0.9815
 6199TIP3   OH240155   0.408   4.179   1.219 -0.2964  0.5626  0.1381
 6199TIP3    H140156   0.377   4.244   1.282  0.3637  0.1470  0.9230
 6199TIP3    H240157   0.464   4.227   1.159  0.9679  0.5743  1.2909
 6200TIP3   OH240158   3.673   1.547   1.816 -0.0958 -0.1072 -0.1538
 6200TIP3    H140159   3.749   1.605   1.828 -0.4896  0.3134  0.3601
 6200TIP3    H240160   3.669   1.496   1.898 -0.2907 -0.2241 -0.2358
 6201TIP3   OH240161   3.653   4.382   3.101  0.5491 -0.4153 -0.5039
 6201TIP3    H140162   3.724   4.445   3.086 -0.1637  0.4615 -0.3431
 6201TIP3    H240163   3.691   4.315   3.157  1.2776  0.0014 -0.4878
 6202TIP3   OH240164   3.478   1.397   0.281  0.0603  0.0558  1.0924
 6202TIP3    H140165   3.483   1.484   0.241 -1.9467  0.8801  2.4445
 6202TIP3    H240166   3.385   1.375   0.277  0.6988 -2.7610 -0.5856
 6203TIP3   OH240167   1.630   1.984   1.670  0.2341  0.6504 -0.1264
 6203TIP3    H140168   1.546   2.031   1.673 -1.6423 -2.1645 -2.8102
 6203TIP3    H240169   1.626   1.922   1.742 -0.1612  0.3103 -0.4368
 6204TIP3   OH240170   5.909   2.207   7.227  0.0274  0.1573 -0.1403
 6204TIP3    H140171   5.960   2.210   7.146  0.1287  1.6574 -0.0650
 6204TIP3    H240172   5.959   2.262   7.288 -1.3741  1.2123  0.1145
 6205TIP3   OH240173   6.203   6.086   1.910 -0.4928  0.1829 -0.0103
 6205TIP3    H140174   6.175   6.122   1.994 -0.0288  1.8279 -0.5070
 6205TIP3    H240175   6.184   5.993   1.915 -3.2761  0.7037  0.7883
 6206TIP3   OH240176   1.974   5.508   0.862 -0.0799  0.0364  0.0956
 6206TIP3    H140177   1.914   5.578   0.888  1.0885  0.4441  1.9220
 6206TIP3    H240178   1.921   5.449   0.809 -2.3535 -0.0264  2.2407
 6207TIP3   OH240179   1.903   5.500   1.231  0.5309  1.5927 -0.3927
 6207TIP3    H140180   1.985   5.455   1.252  0.6329  2.1827  0.5792
 6207TIP3    H240181   1.853   5.438   1.179 -0.1930 -0.4747  2.5436
 6208TIP3   OH240182   6.397   3.793   7.230  0.1745  0.6245 -0.3282
 6208TIP3    H140183   6.436   3.752   7.153 -2.3019  0.7445 -1.7350
 6208TIP3    H240184   6.307   3.760   7.231  0.0359  0.8803  2.3645
 6209TIP3   OH240185   4.836   5.705   8.070  0.4392  0.3294  0.1908
 6209TIP3    H140186   4.815   5.786   8.023  0.4946  1.3632  1.8547
 6209TIP3    H240187   4.751   5.668   8.092  0.4122 -0.2119 -0.7671
 6210TIP3   OH240188   4.834   4.287   1.354  0.0445 -0.4370  0.0986
 6210TIP3    H140189   4.821   4.370   1.308  0.0244  0.1832  1.1789
 6210TIP3    H240190   4.886   4.233   1.294 -1.2196 -0.2109 -1.2377
 6211TIP3   OH240191   1.069   2.567   7.102  0.3619  0.1523  0.3750
 6211TIP3    H140192   1.118   2.552   7.021  0.9569 -1.1664  0.9618
 6211TIP3    H240193   1.118   2.522   7.169 -0.6307  0.4416  1.3302
 6212TIP3   OH240194   3.098   0.117   8.651 -0.2535 -0.1224  0.2273
 6212TIP3    H140195   3.084   0.029   8.616 -0.8491  0.2653 -0.5410
 6212TIP3    H240196   3.183   0.145   8.615 -0.7991  0.2215 -0.8351
 6213TIP3   OH240197   1.974   0.273   2.747 -0.6887 -0.6567 -0.2255
 6213TIP3    H140198   1.884   0.241   2.755 -0.7212 -0.2064  1.6345
 6213TIP3    H240199   1.986   0.288   2.654 -2.2241 -1.6309 -0.6105
 6214TIP3   OH240200   2.239   3.345   0.800  0.2932  0.1790 -0.1823
 6214TIP3    H140201   2.184   3.283   0.752  0.2364  0.4288 -0.4345
 6214TIP3    H240202   2.242   3.423   0.746 -2.0002  1.5110  1.4121
 6215TIP3   OH240203   0.166   5.528   3.118 -0.4126  0.0969 -0.2260
 6215TIP3    H140204   0.094   5.497   3.174  1.0241 -0.1080  1.6177
 6215TIP3    H240205   0.145   5.619   3.101 -0.1002  0.6891  2.1501
 6216TIP3   OH240206   5.920   1.967   2.523 -0.1404  0.0363  0.7387
 6216TIP3    H140207   5.895   1.876   2.506  2.8603 -1.3403  2.7093
 6216TIP3    H240208   5.863   1.994   2.595  0.0058 -0.8955  1.2270
 6217TIP3   OH240209   1.905   3.440   8.018  0.8435 -0.1981  0.4241
 6217TIP3    H140210   1.852   3.434   8.098  0.6056  1.0702  0.3851
 6217TIP3    H240211   1.939   3.529   8.018  0.3369  0.0395 -1.2016
 6218TIP3   OH240212   2.551   0.739   0.778 -0.5594 -0.1427 -0.2486
 6218TIP3    H140213   2.563   0.743   0.873  1.6309 -0.8991 -0.4329
 6218TIP3    H240214   2.508   0.655   0.763 -0.7429 -0.1060  0.0749
 6219TIP3   OH240215   4.232   5.576   8.074  0.3549 -0.3313 -0.2179
 6219TIP3    H140216   4.289   5.647   8.043 -0.9321  1.3697  1.0988
 6219TIP3    H240217   4.223   5.518   7.998  1.5479  0.8358 -1.3102
 6220TIP3   OH240218   0.745   0.894   0.439 -0.7096  0.8091 -0.1347
 6220TIP3    H140219   0.763   0.923   0.528 -1.2857 -3.1259  1.4745
 6220TIP3    H240220   0.823   0.921   0.389  0.4458  1.5668  1.9639
 6221TIP3   OH240221   4.595   5.313   2.449  0.3830  0.0209 -0.2262
 6221TIP3    H140222   4.680   5.346   2.418 -0.6946  2.8931 -0.4246
 6221TIP3    H240223   4.602   5.313   2.544  0.6081  0.2462 -0.2420
 6222TIP3   OH240224   1.002   1.008   1.381  0.1272  0.3547  0.5352
 6222TIP3    H140225   1.013   0.968   1.295 -1.4365 -0.3253  0.6290
 6222TIP3    H240226   1.063   0.961   1.438 -0.1341 -0.4183  0.1805
 6223TIP3   OH240227   4.283   0.665   7.984  0.5532  0.0515  0.0750
 6223TIP3    H140228   4.360   0.621   8.019  1.0147  0.6970 -0.1180
 6223TIP3    H240229   4.220   0.665   8.056  1.3011  0.9073  0.7603
 6224TIP3   OH240230   1.445   5.240   7.594  0.0318  0.2499  0.2905
 6224TIP3    H140231   1.506   5.296   7.642  1.8162 -0.1665 -1.3267
 6224TIP3    H240232   1.436   5.161   7.647  3.4883 -1.0416 -0.7354
 6225TIP3   OH240233   1.935   1.727   1.708  0.2207  0.2639 -0.3253
 6225TIP3    H140234   1.865   1.715   1.772 -0.6425 -0.6046 -1.3796
 6225TIP3    H240235   2.010   1.759   1.759 -1.1022  1.8396  0.7495
 6226TIP3   OH240236   0.404   3.758   0.624 -0.2808 -0.0162 -0.4058
 6226TIP3    H140237   0.470   3.718   0.567 -0.8882 -0.5316 -0.7727
 6226TIP3    H240238   0.425   3.851   0.623  0.0479 -0.0882 -1.0505
 6227TIP3   OH240239   6.127   3.402   0.167 -0.2949 -0.0265 -0.5105
 6227TIP3    H140240   6.140   3.475   0.227 -0.3675  0.2390 -0.8139
 6227TIP3    H240241   6.058   3.432   0.108 -0.3682 -0.3644 -0.5981
 6228TIP3   OH240242   0.428   5.822   0.866  0.2496 -0.4378  0.3193
 6228TIP3    H140243   0.334   5.836   0.878  0.4206  0.2691  0.8915
 6228TIP3    H240244   0.436   5.790   0.776 -0.5325 -0.4827  0.2578
 6229TIP3   OH240245   4.723   4.151   2.970  0.4265  1.1927 -0.1962
 6229TIP3    H140246   4.805   4.103   2.981 -1.9290 -2.7670  2.4268
 6229TIP3    H240247   4.724   4.217   3.040  0.2465 -0.7681  1.7289
 6230TIP3   OH240248   5.029   0.351   7.852  0.0565 -0.0861  0.0265
 6230TIP3    H140249   5.006   0.444   7.851 -1.7529 -0.5034 -0.8449
 6230TIP3    H240250   4.958   0.309   7.900  0.2083 -1.1630 -0.6591
 6231TIP3   OH240251   3.338   0.007   1.122  0.1007 -0.2260 -0.3798
 6231TIP3    H140252   3.390   0.081   1.154  0.3231 -1.1324  1.4464
 6231TIP3    H240253   3.262   0.004   1.180 -0.1916 -1.0910 -0.7895
 6232TIP3   OH240254   3.574   1.583   1.476 -0.3928  0.2354  0.3639
 6232TIP3    H140255   3.481   1.560   1.488 -0.7744  1.3300 -0.3774
 6232TIP3    H240256   3.604   1.522   1.408 -1.4370  1.8661 -1.6902
 6233TIP3   OH240257   6.235   0.908   0.341  0.7897  0.0537  0.6029
 6233TIP3    H140258   6.164   0.851   0.312  1.1674  0.2088 -0.6605
 6233TIP3    H240259   6.296   0.850   0.386 -0.3213 -0.0129  2.1107
 6234TIP3   OH240260   4.524   5.550   2.058  0.3406 -0.0553 -0.3216
 6234TIP3    H140261   4.430   5.542   2.074  0.8350 -3.5710  1.9359
 6234TIP3    H240262   4.557   5.605   2.129  0.2973 -1.1549  0.5689
 6235TIP3   OH240263   5.848   4.659   2.922  0.4357 -0.5380  0.4724
 6235TIP3    H140264   5.910   4.599   2.963  1.4323  0.2149  0.0923
 6235TIP3    H240265   5.853   4.640   2.829  0.6369  0.0180  0.3652
 6236TIP3   OH240266   0.637   5.119   7.866 -0.2731 -0.6669 -0.0172
 6236TIP3    H140267   0.607   5.080   7.948 -0.0587 -0.4759  0.1532
 6236TIP3    H240268   0.556   5.141   7.819 -0.3992 -0.4747  0.2847
 6237TIP3   OH240269   0.709   2.355   7.901 -0.8447  0.0116 -0.0536
 6237TIP3    H140270   0.763   2.293   7.852  0.8158  2.8634 -2.1988
 6237TIP3    H240271   0.660   2.402   7.833 -0.9408  1.9787  1.2957
 6238TIP3   OH240272   3.995   0.332   1.703  0.0025  0.1847 -0.3230
 6238TIP3    H140273   4.082   0.361   1.730 -0.3640  0.4217  0.6354
 6238TIP3    H240274   4.008   0.243   1.668  0.6185  0.2174 -0.1713
 6239TIP3   OH240275   0.208   6.568   1.640 -0.0743 -0.3209 -0.5047
 6239TIP3    H140276   0.217   6.491   1.696  1.8083 -1.0654 -1.7401
 6239TIP3    H240277   0.132   6.549   1.584  0.5314 -1.4211 -0.9695
 6240TIP3   OH240278   5.229   2.711   0.736  0.2230  0.3745 -0.2449
 6240TIP3    H140279   5.180   2.649   0.791  1.1436 -0.6849 -0.5763
 6240TIP3    H240280   5.264   2.658   0.665  1.4790  1.1667 -0.2585
 6241TIP3   OH240281   0.280   1.460   1.927 -0.5174  0.4084 -0.1784
 6241TIP3    H140282   0.355   1.422   1.882  0.4247  1.6102  0.2909
 6241TIP3    H240283   0.204   1.434   1.875 -0.0242 -2.4081  0.3515
 6242TIP3   OH240284   5.231   2.415   1.462  0.1410  0.2496 -0.0283
 6242TIP3    H140285   5.292   2.351   1.499  1.3120  1.7099  0.7362
 6242TIP3    H240286   5.150   2.366   1.447  1.5290 -1.8163 -1.2367
 6243TIP3   OH240287   3.458   1.780   1.236 -0.1440 -0.0787  0.0887
 6243TIP3    H140288   3.415   1.694   1.231  0.2144 -0.2245 -0.5981
 6243TIP3    H240289   3.507   1.787   1.154 -0.0907  0.7436  0.1843
 6244TIP3   OH240290   5.180   5.558   0.334  0.2013  0.5199 -0.5243
 6244TIP3    H140291   5.155   5.573   0.242 -0.5730 -0.2524 -0.4599
 6244TIP3    H240292   5.101   5.579   0.384  0.4592  0.4436 -0.0839
 6245TIP3   OH240293   5.402   6.815   7.936 -0.3140  0.0227  0.6793
 6245TIP3    H140294   5.334   6.848   7.877 -2.5177 -2.7408  1.4464
 6245TIP3    H240295   5.422   6.889   7.993  0.4053  2.1635 -2.1257
 6246TIP3   OH240296   5.647   1.902   2.935 -0.2370  0.4675  0.2263
 6246TIP3    H140297   5.574   1.916   2.996  1.2292  1.2510  1.8903
 6246TIP3    H240298   5.666   1.808   2.941  0.1974  0.6113  1.4022
 6247TIP3   OH240299   1.823   3.684   1.610 -0.4727  0.4793  0.3305
 6247TIP3    H140300   1.903   3.636   1.589 -0.9241  0.0995 -0.5521
 6247TIP3    H240301   1.845   3.732   1.690  1.2730  1.9599 -0.9664
 6248TIP3   OH240302   3.387   0.422   0.872  0.1295 -0.2541 -0.2572
 6248TIP3    H140303   3.321   0.418   0.803 -1.1055 -1.9919  0.9322
 6248TIP3    H240304   3.337   0.414   0.953  1.8218 -2.6292  0.6591
 6249TIP3   OH240305   4.262   5.744   2.387 -0.0160 -0.8273  0.0469
 6249TIP3    H140306   4.191   5.800   2.357 -0.4513 -0.2009  2.0640
 6249TIP3    H240307   4.239   5.724   2.478  0.8886 -3.0744 -0.1434
 6250TIP3   OH240308   0.261   3.524   0.424 -0.1845  0.3976 -0.2864
 6250TIP3    H140309   0.203   3.449   0.432 -0.4369  0.6840  0.7339
 6250TIP3    H240310   0.214   3.595   0.467  0.0131  1.1709 -1.3016
 6251TIP3   OH240311   1.418   4.444   2.231 -0.0377  0.0747 -0.2378
 6251TIP3    H140312   1.357   4.376   2.201 -0.2625  0.3294 -0.3555
 6251TIP3    H240313   1.422   4.431   2.326 -0.8431  0.5184 -0.1309
 6252TIP3   OH240314   2.908   1.412   8.018  0.2338  0.5862  0.3363
 6252TIP3    H140315   2.839   1.459   8.065  0.0182 -0.4924  1.1042
 6252TIP3    H240316   2.921   1.331   8.067  0.8112 -0.0365 -0.8063
 6253TIP3   OH240317   5.385   3.999   0.786  0.3334  0.0090 -0.5984
 6253TIP3    H140318   5.386   4.089   0.755  0.6668 -0.0642 -0.8088
 6253TIP3    H240319   5.293   3.980   0.802  0.4204  1.1474  1.6896
 6254TIP3   OH240320   0.809   3.782   1.596 -0.1586 -0.3718  0.4872
 6254TIP3    H140321   0.729   3.739   1.628 -2.1215  1.0806 -2.0493
 6254TIP3    H240322   0.790   3.875   1.607  0.2431  0.0685 -2.0681
 6255TIP3   OH240323   3.665   0.990   1.385  0.1674  0.1453 -0.1818
 6255TIP3    H140324   3.632   0.961   1.301  0.5944  1.4558 -0.8363
 6255TIP3    H240325   3.732   0.925   1.408  0.9914  0.4755 -1.5134
 6256TIP3   OH240326   6.610   4.718   3.212  0.4794 -0.3854  0.4771
 6256TIP3    H140327   6.571   4.637   3.181 -1.3533  0.9834 -0.9867
 6256TIP3    H240328   6.558   4.743   3.288 -0.4712  0.5716 -0.4613
 6257TIP3   OH240329   2.333   2.456   7.742 -0.3778 -0.5940 -0.0223
 6257TIP3    H140330   2.274   2.460   7.667 -0.1129  1.3951 -0.1854
 6257TIP3    H240331   2.420   2.448   7.704 -0.3784 -1.3798  0.1398
 6258TIP3   OH240332   1.674   6.318   0.082 -0.2602 -0.1553  0.2674
 6258TIP3    H140333   1.742   6.332   0.148 -1.2002 -0.1492  1.2605
 6258TIP3    H240334   1.704   6.242   0.032  0.0490 -0.6924  1.2602
 6259TIP3   OH240335   2.819   5.483   8.234  0.3172  0.6273  0.4840
 6259TIP3    H140336   2.884   5.496   8.303  1.1556  1.5614 -0.4448
 6259TIP3    H240337   2.735   5.493   8.278  0.7748 -0.8050  1.7507
 6260TIP3   OH240338   1.408   0.526   8.241  0.2283  0.1148  0.1846
 6260TIP3    H140339   1.477   0.484   8.294  0.8324  2.9942  1.8944
 6260TIP3    H240340   1.327   0.489   8.274  0.7041  0.5967  2.0589
 6261TIP3   OH240341   5.009   1.990   0.743 -0.3372  0.3672 -0.0795
 6261TIP3    H140342   5.055   2.060   0.696  0.3055 -0.5513 -0.8587
 6261TIP3    H240343   5.013   2.017   0.835 -0.5271  1.5824 -0.4042
 6262TIP3   OH240344   5.870   6.612   1.175  0.3071  0.2407 -0.4212
 6262TIP3    H140345   5.887   6.620   1.269  1.2375  1.0600 -0.6466
 6262TIP3    H240346   5.787   6.564   1.170 -0.2921  1.0779  0.8364
 6263TIP3   OH240347   5.405   2.775   8.470 -0.2298  0.4946 -0.3373
 6263TIP3    H140348   5.461   2.735   8.536 -0.1885  0.0193 -0.6488
 6263TIP3    H240349   5.463   2.789   8.395 -0.5392 -0.0896 -0.6966
 6264TIP3   OH240350   1.654   2.587   8.756 -0.5925 -0.3106  0.8963
 6264TIP3    H140351   1.742   2.575   8.722 -0.0617 -0.7745  2.3652
 6264TIP3    H240352   1.658   2.666   8.809 -0.9612 -0.5293  1.2630
 6265TIP3   OH240353   5.531   1.250   2.463  0.1875  0.5095 -0.0688
 6265TIP3    H140354   5.491   1.207   2.538  0.5126  0.3099 -0.0104
 6265TIP3    H240355   5.486   1.335   2.457 -0.5652  0.0975 -0.2917
 6266TIP3   OH240356   3.473   4.413   0.790  0.5230 -0.3082  0.1653
 6266TIP3    H140357   3.563   4.381   0.798  0.4895 -0.7526 -1.0064
 6266TIP3    H240358   3.437   4.364   0.716 -1.0190 -0.8993  1.2607
 6267TIP3   OH240359   3.273   6.684   8.257  0.1651  0.2693 -0.3392
 6267TIP3    H140360   3.287   6.625   8.183  1.6082  0.5559 -0.3226
 6267TIP3    H240361   3.273   6.626   8.333  1.7071  0.2749 -0.3107
 6268TIP3   OH240362   2.156   6.149   0.208  0.3506 -0.4117  0.3587
 6268TIP3    H140363   2.101   6.194   0.144 -0.4016  1.5198  2.2601
 6268TIP3    H240364   2.165   6.211   0.280  0.4085 -2.8292  2.5528
 6269TIP3   OH240365   1.397   2.585   8.424 -0.2114  0.0135 -0.6158
 6269TIP3    H140366   1.359   2.502   8.453  0.1872 -0.2323 -0.7888
 6269TIP3    H240367   1.381   2.586   8.330  1.1587 -0.5985 -0.8703
 6270TIP3   OH240368   3.956   0.639   0.692  0.3793 -0.0202  0.3135
 6270TIP3    H140369   3.989   0.549   0.695  0.3622 -0.0480 -0.2437
 6270TIP3    H240370   3.878   0.634   0.637  1.5010  0.6785 -1.4147
 6271TIP3   OH240371   4.322   1.853   8.118  0.3556 -0.1622  0.4712
 6271TIP3    H140372   4.394   1.916   8.120  1.8233 -1.7563  1.7085
 6271TIP3    H240373   4.354   1.781   8.063 -1.1208 -0.0501 -0.5997
 6272TIP3   OH240374   3.637   1.737   6.899  0.3872  0.7721  0.0079
 6272TIP3    H140375   3.706   1.700   6.954 -0.3878  0.5250  0.8284
 6272TIP3    H240376   3.684   1.772   6.823  1.3183 -0.2890  0.0643
 6273TIP3   OH240377   6.388   2.278   2.242  0.1230 -0.2960 -0.7831
 6273TIP3    H140378   6.454   2.224   2.286  0.2835  0.4772 -0.0564
 6273TIP3    H240379   6.438   2.346   2.198 -0.2079  0.8911  0.5919
 6274TIP3   OH240380   1.109   3.945   0.493  0.3368  0.2256  0.1283
 6274TIP3    H140381   1.096   3.908   0.580 -0.5588 -0.4717 -0.2757
 6274TIP3    H240382   1.062   4.028   0.494  1.2935  0.7815  0.6488
 6275TIP3   OH240383   4.786   0.362   1.102  0.9322 -0.0004 -0.0366
 6275TIP3    H140384   4.799   0.267   1.108 -0.6757 -0.3013 -0.9761
 6275TIP3    H240385   4.844   0.389   1.031  2.8159  0.0686  1.4256
 6276TIP3   OH240386   4.516   6.134   1.078 -0.6013 -0.2026 -0.5967
 6276TIP3    H140387   4.582   6.180   1.130 -1.2061 -0.8181  0.7862
 6276TIP3    H240388   4.519   6.176   0.992  1.5375 -0.1756 -0.5671
 6277TIP3   OH240389   6.083   5.830   0.431  0.6475 -0.0313 -0.2298
 6277TIP3    H140390   6.153   5.868   0.378  0.6430 -0.9347 -0.9043
 6277TIP3    H240391   6.109   5.739   0.444 -0.3690 -0.3620 -0.4484
 6278TIP3   OH240392   6.603   2.651   8.063 -0.7436  0.8535  0.2332
 6278TIP3    H140393   6.591   2.566   8.019  0.4157  0.1529  1.2185
 6278TIP3    H240394   6.516   2.692   8.059 -0.8433  0.5455 -2.0855
 6279TIP3   OH240395   5.634   0.416   7.868  0.1997 -0.1136 -0.0949
 6279TIP3    H140396   5.725   0.442   7.851  0.6519 -0.7433  1.2511
 6279TIP3    H240397   5.589   0.499   7.885  1.0840  0.0528  1.6615
 6280TIP3   OH240398   4.168   4.546   8.392 -0.4828  0.7405  0.2188
 6280TIP3    H140399   4.124   4.606   8.453  1.3062  1.1649  1.1588
 6280TIP3    H240400   4.252   4.589   8.373  1.1290 -1.7058  1.3773
 6281TIP3   OH240401   0.795   0.961   1.845  0.0607  0.3277 -0.3476
 6281TIP3    H140402   0.717   0.909   1.864 -0.2993  0.6372 -0.9795
 6281TIP3    H240403   0.810   1.011   1.926 -1.3968  1.5493 -0.7739
 6282TIP3   OH240404   4.739   5.573   0.920  0.0715 -0.4300  0.1910
 6282TIP3    H140405   4.829   5.549   0.895 -0.4659 -2.9386  0.4330
 6282TIP3    H240406   4.745   5.590   1.014  0.6494  1.6184 -0.1536
 6283TIP3   OH240407   5.738   5.115   0.890  0.2451  0.2317 -0.8474
 6283TIP3    H140408   5.674   5.118   0.961 -0.6547  2.2216 -1.6692
 6283TIP3    H240409   5.776   5.027   0.896  1.4282  0.8211  3.0740
 6284TIP3   OH240410   1.911   4.286   1.801 -0.3721 -0.6124  0.9328
 6284TIP3    H140411   1.839   4.227   1.781  0.1018 -0.6127 -0.9512
 6284TIP3    H240412   1.916   4.345   1.725  0.0360  0.9896  2.1347
 6285TIP3   OH240413   6.550   6.447   2.342 -0.0806 -0.0870 -0.1170
 6285TIP3    H140414   6.642   6.427   2.359 -0.2124 -1.1217 -0.5307
 6285TIP3    H240415   6.550   6.539   2.313  0.6997  0.1983  0.7624
 6286TIP3   OH240416   0.053   4.172   0.450  0.2699 -0.0911  0.1831
 6286TIP3    H140417  -0.020   4.134   0.400  0.3846 -0.0141 -0.0426
 6286TIP3    H240418   0.055   4.263   0.423  2.7510 -0.8124 -2.6241
 6287TIP3   OH240419   0.912   6.510   8.432 -0.1924  0.3272  0.4408
 6287TIP3    H140420   0.887   6.498   8.524  1.4495  1.9892  1.1675
 6287TIP3    H240421   0.899   6.603   8.415 -0.5554  0.0353 -1.0800
 6288TIP3   OH240422   1.785   3.308   6.494  0.1097  0.3149 -0.3050
 6288TIP3    H140423   1.724   3.358   6.439 -2.4461  0.0522  2.1179
 6288TIP3    H240424   1.788   3.221   6.454 -0.8593  0.4335 -0.6525
 6289TIP3   OH240425   4.940   4.181   3.247 -0.2115  0.4252  0.1437
 6289TIP3    H140426   4.858   4.231   3.252 -0.0359  0.6442  0.9663
 6289TIP3    H240427   4.931   4.128   3.168 -0.3679  1.8261 -0.8274
 6290TIP3   OH240428   4.339   3.090   7.202  0.1287  0.1133  0.3733
 6290TIP3    H140429   4.302   3.103   7.114  0.6083  0.0837  0.1623
 6290TIP3    H240430   4.386   3.006   7.195 -0.3938 -0.2244  0.8517
 6291TIP3   OH240431   4.307   0.122   0.055  0.4769  0.1245  0.7143
 6291TIP3    H140432   4.338   0.187   0.118 -0.4934  1.0975  0.2305
 6291TIP3    H240433   4.370   0.128  -0.017  1.3398 -0.6828  1.3805
 6292TIP3   OH240434   1.592   6.608   0.754 -0.5956  0.3432  0.0411
 6292TIP3    H140435   1.625   6.671   0.690 -0.6418  1.4197  1.0390
 6292TIP3    H240436   1.643   6.624   0.832  1.0974 -2.5589 -0.3379
 6293TIP3   OH240437   1.661   4.050   1.132  0.0799 -0.5737  0.4057
 6293TIP3    H140438   1.566   4.061   1.136  0.2487  0.6359  2.9068
 6293TIP3    H240439   1.682   3.992   1.205  1.5084  1.7326  1.9363
 6294TIP3   OH240440   3.716   5.432   0.706  0.1965  0.0874  0.4709
 6294TIP3    H140441   3.761   5.364   0.656  4.2913  1.3974  1.9395
 6294TIP3    H240442   3.659   5.475   0.642  0.5814 -2.1018 -1.4752
 6295TIP3   OH240443   1.835   1.515   8.681  0.0732  0.2221  0.1706
 6295TIP3    H140444   1.889   1.556   8.748 -0.8438 -0.0894  1.1433
 6295TIP3    H240445   1.888   1.443   8.647  0.2434 -0.1398  1.1717
 6296TIP3   OH240446   0.446   2.438   2.364  0.4086 -0.4531 -0.6101
 6296TIP3    H140447   0.422   2.487   2.443  0.7508  0.5954 -1.1313
 6296TIP3    H240448   0.413   2.492   2.292  0.0986 -1.3955 -1.1929
 6297TIP3   OH240449   3.202   2.092   8.522 -0.7325 -0.2490 -0.0225
 6297TIP3    H140450   3.224   2.004   8.492  0.5527 -0.0806  0.3618
 6297TIP3    H240451   3.120   2.112   8.478 -0.0412 -0.8800 -1.6983
 6298TIP3   OH240452   6.199   1.611   0.364 -0.1104 -0.0783  0.2707
 6298TIP3    H140453   6.140   1.684   0.346  2.8297  2.0440 -1.5820
 6298TIP3    H240454   6.260   1.645   0.429  0.4199 -1.4774  0.5490
 6299TIP3   OH240455   0.085   5.039   0.119 -0.6009  0.1171  0.1166
 6299TIP3    H140456   0.174   5.066   0.140 -0.5274 -1.1899  1.7602
 6299TIP3    H240457   0.096   4.964   0.060 -0.4228 -1.8770  2.5316
 6300TIP3   OH240458   1.066   4.116   1.321  0.0696 -0.4429 -0.5607
 6300TIP3    H140459   1.052   4.199   1.275  1.4726  0.6819  0.9332
 6300TIP3    H240460   1.043   4.135   1.412  0.7408 -1.5892 -0.1294
 6301TIP3   OH240461   2.071   0.573   2.313 -0.2307 -0.1958  0.8071
 6301TIP3    H140462   2.015   0.616   2.378 -0.0334  0.6681  0.4147
 6301TIP3    H240463   2.109   0.645   2.263 -0.4261 -0.8476 -0.3025
 6302TIP3   OH240464   2.706   6.546   0.573 -0.1948 -0.0971  0.4769
 6302TIP3    H140465   2.748   6.466   0.604  1.9446  1.1228  0.9803
 6302TIP3    H240466   2.668   6.585   0.652 -0.4875 -0.2137  0.3913
 6303TIP3   OH240467   4.681   2.271   8.510 -0.3339  0.1162 -0.0831
 6303TIP3    H140468   4.697   2.251   8.602  0.8147  0.4140 -0.1943
 6303TIP3    H240469   4.597   2.316   8.509 -0.7637 -0.6407  0.7076
 6304TIP3   OH240470   1.683   0.440   1.632 -0.4177  0.7364  0.2805
 6304TIP3    H140471   1.647   0.462   1.718  0.1440 -0.1544  0.7685
 6304TIP3    H240472   1.721   0.353   1.645  1.2241  1.3261 -0.4080
 6305TIP3   OH240473   6.263   4.299   8.754  0.0822 -0.1303 -0.1088
 6305TIP3    H140474   6.305   4.340   8.678  1.5946 -1.1987  0.0997
 6305TIP3    H240475   6.316   4.222   8.771  0.5426  0.7337  2.7965
 6306TIP3   OH240476   1.796   6.677   2.851  0.5572  0.3208 -0.2743
 6306TIP3    H140477   1.709   6.667   2.890  0.7774 -0.8813 -0.0662
 6306TIP3    H240478   1.851   6.616   2.899  0.9939 -0.7085 -2.0173
 6307TIP3   OH240479   2.864   3.375   8.482  0.1079 -0.4792  0.0562
 6307TIP3    H140480   2.784   3.403   8.526  1.1008  0.3623  1.4109
 6307TIP3    H240481   2.834   3.330   8.403 -1.6694  0.2806  0.2570
 6308TIP3   OH240482   4.090   2.950   0.059 -0.0086 -0.2797  0.0910
 6308TIP3    H140483   4.040   2.878   0.020 -1.3623 -0.2398  1.6272
 6308TIP3    H240484   4.026   2.997   0.113  1.5854  0.0196  1.8254
 6309TIP3   OH240485   4.215   5.697   8.568 -0.6748 -0.0604 -0.6802
 6309TIP3    H140486   4.225   5.750   8.489 -0.6288 -0.7723 -1.1536
 6309TIP3    H240487   4.199   5.608   8.536  1.5688 -0.7973  0.0969
 6310TIP3   OH240488   2.102   1.386   7.414  0.2292  0.8544  0.1717
 6310TIP3    H140489   2.194   1.389   7.390  0.5898  0.8501  1.4511
 6310TIP3    H240490   2.059   1.451   7.358  1.4651  2.8111  1.3767
 6311TIP3   OH240491   4.127   0.634   2.570 -0.5462  0.0158  1.0764
 6311TIP3    H140492   4.079   0.653   2.651 -2.4942  0.0537 -0.0193
 6311TIP3    H240493   4.060   0.636   2.502  0.7504 -1.6484 -0.3382
 6312TIP3   OH240494   0.489   6.196   0.792 -0.1287 -0.6141  0.4724
 6312TIP3    H140495   0.461   6.284   0.819 -1.2537 -0.8737  0.2190
 6312TIP3    H240496   0.583   6.204   0.779 -0.4505  1.0776 -1.4550
 6313TIP3   OH240497   5.411   0.910   8.694 -0.3040 -0.2018  0.3666
 6313TIP3    H140498   5.410   1.004   8.711  1.4543  0.0606 -0.7311
 6313TIP3    H240499   5.362   0.872   8.767  0.4636  1.4088  1.7873
 6314TIP3   OH240500   1.165   6.343   1.716  1.0056  0.3085  0.0071
 6314TIP3    H140501   1.232   6.282   1.687  1.1083  0.1128  0.6403
 6314TIP3    H240502   1.117   6.296   1.784  0.8712  0.8047  0.2656
 6315TIP3   OH240503   5.909   4.021   8.477 -0.2719  0.6870  0.2942
 6315TIP3    H140504   5.874   3.933   8.464 -1.3943  0.2917  4.5168
 6315TIP3    H240505   5.841   4.067   8.527  1.7387  2.7283  1.3473
 6316TIP3   OH240506   1.374   5.216   1.179 -0.3399  0.4292  0.3884
 6316TIP3    H140507   1.355   5.293   1.125  1.7107  0.1373 -0.8594
 6316TIP3    H240508   1.443   5.170   1.131 -0.2946 -1.2730  1.9822
 6317TIP3   OH240509   3.286   3.872   8.128  0.4323  0.1211 -0.2123
 6317TIP3    H140510   3.218   3.882   8.195 -0.4506  1.6841 -1.2691
 6317TIP3    H240511   3.359   3.924   8.161  0.1931  0.4560 -0.1986
 6318TIP3   OH240512   0.452   0.366   8.458 -0.3766 -0.0850  0.1621
 6318TIP3    H140513   0.377   0.333   8.506  0.2094 -1.3132  0.2647
 6318TIP3    H240514   0.415   0.411   8.382 -1.1971 -1.2702 -0.1608
 6319TIP3   OH240515   5.950   4.791   2.456  0.0640 -0.5926  0.9727
 6319TIP3    H140516   5.979   4.859   2.516  0.4929 -1.5148  1.8257
 6319TIP3    H240517   5.917   4.721   2.512 -1.0209 -0.8126  0.0913
 6320TIP3   OH240518   3.230   6.520   1.650 -0.1807 -0.0731  0.5206
 6320TIP3    H140519   3.320   6.533   1.621 -0.0313  1.4921  1.5555
 6320TIP3    H240520   3.237   6.508   1.745 -1.0525  0.1236  0.6172
 6321TIP3   OH240521   5.547   5.123   1.102  0.4041  0.3270  0.1575
 6321TIP3    H140522   5.475   5.106   1.162 -0.1052  1.4401 -0.1219
 6321TIP3    H240523   5.596   5.195   1.141  0.3933  0.6864 -0.4693
 6322TIP3   OH240524   0.359   6.409   0.904  0.5359 -0.3050 -0.2888
 6322TIP3    H140525   0.267   6.402   0.931  0.8503 -2.8843  0.3829
 6322TIP3    H240526   0.405   6.435   0.984  0.4454  0.6016 -0.5281
 6323TIP3   OH240527   1.051   1.481   2.252 -0.2613  0.2908 -0.0614
 6323TIP3    H140528   1.028   1.451   2.164 -0.6268  1.6721 -0.4482
 6323TIP3    H240529   0.992   1.554   2.269  1.4752  1.6630  0.3230
 6324TIP3   OH240530   1.473   5.371   8.712  0.1357 -0.0766  0.0409
 6324TIP3    H140531   1.505   5.382   8.623  3.3820 -0.7473  0.9798
 6324TIP3    H240532   1.478   5.459   8.751 -0.1080  0.0006 -0.1056
 6325TIP3   OH240533   3.064   4.676   8.730  0.1881  0.0342 -0.0501
 6325TIP3    H140534   3.067   4.771   8.738  1.5268  0.0390 -0.3031
 6325TIP3    H240535   3.156   4.649   8.735  0.0600 -1.0272 -2.2464
 6326TIP3   OH240536   2.807   0.096   0.682  0.3270 -0.1334  0.2616
 6326TIP3    H140537   2.877   0.161   0.666 -2.4974  3.5177  1.2999
 6326TIP3    H240538   2.832   0.054   0.764  0.2243  2.9869  2.0463
 6327TIP3   OH240539   6.328   5.872   2.508 -0.2643 -0.3070 -0.3291
 6327TIP3    H140540   6.379   5.924   2.570 -1.6559  0.8619 -0.1216
 6327TIP3    H240541   6.366   5.891   2.423 -0.2687  0.4839 -0.1632
 6328TIP3   OH240542   3.800   0.774   8.244  0.2245 -0.3490  0.2642
 6328TIP3    H140543   3.791   0.828   8.165  1.0676  0.9152  0.9901
 6328TIP3    H240544   3.786   0.685   8.214  0.7165  0.0825 -1.3629
 6329TIP3   OH240545   0.366   3.948   0.162 -0.1062 -0.6691 -0.4434
 6329TIP3    H140546   0.446   3.896   0.172  0.0905 -0.1825  0.6418
 6329TIP3    H240547   0.305   3.911   0.225 -0.7740 -1.0595 -1.2905
 6330TIP3   OH240548   4.518   1.126   2.415  0.0628  0.6629  0.5183
 6330TIP3    H140549   4.435   1.137   2.369 -0.0579 -0.3973  0.4477
 6330TIP3    H240550   4.498   1.146   2.507 -0.2327  0.5575  0.4757
 6331TIP3   OH240551   0.812   0.855   8.679 -0.4171 -0.2280  0.1393
 6331TIP3    H140552   0.905   0.872   8.695 -0.3536 -0.4604  0.0262
 6331TIP3    H240553   0.766   0.908   8.744 -0.2873  1.5601 -1.1274
 6332TIP3   OH240554   5.366   5.322   7.024 -0.6519  0.6709 -0.2860
 6332TIP3    H140555   5.428   5.394   7.032 -0.9999  0.8752  0.8156
 6332TIP3    H240556   5.318   5.322   7.107  0.2223 -1.6283  0.3116
 6333TIP3   OH240557   6.781   2.303   8.179 -0.4261 -0.1175  0.5204
 6333TIP3    H140558   6.712   2.239   8.162  0.0899 -0.8957  1.2735
 6333TIP3    H240559   6.850   2.281   8.116 -1.5572  1.8702 -1.5938
 6334TIP3   OH240560   0.114   6.429   0.460 -0.0952 -0.1520 -0.1039
 6334TIP3    H140561   0.152   6.342   0.464 -1.2665 -0.7781 -1.5339
 6334TIP3    H240562   0.025   6.415   0.427 -2.1086  1.0846  4.1108
 6335TIP3   OH240563   3.064   3.315   2.200 -0.0240 -0.5310 -0.4982
 6335TIP3    H140564   2.983   3.346   2.160 -0.6568 -0.3476  0.8768
 6335TIP3    H240565   3.060   3.219   2.191  0.0926 -0.4689 -1.3037
 6336TIP3   OH240566   3.517   5.237   0.445 -0.1146 -0.4662 -0.1168
 6336TIP3    H140567   3.515   5.198   0.358 -1.8700 -1.1300  0.1604
 6336TIP3    H240568   3.607   5.226   0.475  0.3632 -0.7572 -1.6151
 6337TIP3   OH240569   4.569   1.636   0.584  0.6865  0.7006 -0.4939
 6337TIP3    H140570   4.494   1.576   0.585 -0.4170  2.0418 -0.5456
 6337TIP3    H240571   4.621   1.609   0.660  0.5474 -0.7105 -0.8698
 6338TIP3   OH240572   3.312   4.959   0.957  0.2319  0.3086  0.2286
 6338TIP3    H140573   3.260   4.908   1.019 -1.4590 -0.0445 -1.3992
 6338TIP3    H240574   3.359   5.022   1.012 -0.0020 -0.9595  1.9910
 6339TIP3   OH240575   4.753   6.567   7.633 -0.1241 -0.2404  0.3731
 6339TIP3    H140576   4.820   6.506   7.666  1.1528 -0.1564 -1.8633
 6339TIP3    H240577   4.784   6.653   7.662 -0.1270 -0.3448  0.6926
 6340TIP3   OH240578   4.836   3.404   2.235  0.1901  0.5630  0.1457
 6340TIP3    H140579   4.752   3.365   2.258 -0.4898  1.3233 -0.9385
 6340TIP3    H240580   4.868   3.441   2.317 -0.8478  0.8147  0.4553
 6341TIP3   OH240581   6.528   2.472   1.411  0.5296 -0.3362 -0.0016
 6341TIP3    H140582   6.525   2.382   1.443 -0.6603 -0.6601 -0.9478
 6341TIP3    H240583   6.443   2.485   1.368  1.6368  0.3947 -2.0975
 6342TIP3   OH240584   3.877   4.360   2.067 -0.1310  0.6068  0.1101
 6342TIP3    H140585   3.911   4.293   2.126 -1.9379  0.2901  0.8506
 6342TIP3    H240586   3.921   4.343   1.984  1.4606  0.2225  0.9775
 6343TIP3   OH240587   3.313   6.396   0.134  0.7932  0.1649  0.2189
 6343TIP3    H140588   3.335   6.345   0.055  3.7272 -0.4469  1.2820
 6343TIP3    H240589   3.298   6.330   0.202  0.1117  0.7008  0.5995
 6344TIP3   OH240590   1.969   2.257   0.519  0.2477 -0.1054 -0.5075
 6344TIP3    H140591   2.009   2.242   0.433 -2.3425 -0.1054 -1.8122
 6344TIP3    H240592   1.982   2.351   0.535  3.2989 -0.5957  0.5837
 6345TIP3   OH240593   2.496   2.873   1.794  0.4877  0.0482  0.2480
 6345TIP3    H140594   2.557   2.935   1.755 -0.6763  0.8873 -0.3001
 6345TIP3    H240595   2.469   2.913   1.877 -0.5566  0.4993 -0.2847
 6346TIP3   OH240596   1.840   4.679   2.730  0.5196  0.2419 -0.3061
 6346TIP3    H140597   1.829   4.584   2.730 -2.1211  0.4692  1.0277
 6346TIP3    H240598   1.921   4.694   2.680  0.1804 -2.5850 -1.8914
 6347TIP3   OH240599   2.878   0.981   1.116  0.2162  0.1301  0.2106
 6347TIP3    H140600   2.788   0.948   1.117 -0.2673  1.3913  1.4184
 6347TIP3    H240601   2.932   0.903   1.099 -1.1238 -0.4808 -1.5983
 6348TIP3   OH240602   1.957   6.749   0.722 -0.1878  0.3170  0.0179
 6348TIP3    H140603   1.886   6.796   0.680 -1.1538 -1.1443 -0.0521
 6348TIP3    H240604   2.031   6.759   0.663 -0.9653 -0.0093 -1.0451
 6349TIP3   OH240605   0.109   4.722   0.391  0.5341  0.0508  0.6579
 6349TIP3    H140606   0.058   4.801   0.371  0.3392 -0.2509 -0.0569
 6349TIP3    H240607   0.154   4.701   0.309  1.0352 -0.2571  1.0052
 6350TIP3   OH240608   3.388   4.231   7.557  0.3247  0.1287  0.3207
 6350TIP3    H140609   3.317   4.196   7.611 -0.6205  2.2313  0.5543
 6350TIP3    H240610   3.345   4.259   7.476  1.0996  0.2744 -0.0480
 6351TIP3   OH240611   0.616   1.138   8.598  0.8209  0.0649 -0.0651
 6351TIP3    H140612   0.524   1.160   8.613  0.4970 -0.8548 -0.6264
 6351TIP3    H240613   0.648   1.109   8.683  1.5530  3.4892  0.9830
 6352TIP3   OH240614   1.171   4.602   8.081 -0.0281  1.5290 -0.2404
 6352TIP3    H140615   1.266   4.586   8.082 -0.2999 -0.4834 -1.2937
 6352TIP3    H240616   1.155   4.646   7.998 -0.0847  1.2841 -0.3607
 6353TIP3   OH240617   1.587   6.210   2.541 -0.0902 -0.0915  0.3836
 6353TIP3    H140618   1.550   6.147   2.603 -0.8916  0.9919  1.0357
 6353TIP3    H240619   1.599   6.290   2.592  2.4710 -0.1638 -0.0019
 6354TIP3   OH240620   0.486   5.279   7.612  0.1766 -0.2236  0.5168
 6354TIP3    H140621   0.454   5.195   7.645 -0.4339  0.0555  0.6363
 6354TIP3    H240622   0.412   5.339   7.621  0.5971  0.3217  0.3983
 6355TIP3   OH240623   5.377   0.013   7.114  0.0104 -0.0876 -0.0343
 6355TIP3    H140624   5.463   0.009   7.156  0.6276 -2.7508 -1.3600
 6355TIP3    H240625   5.389   0.077   7.043  0.1212  1.4089  1.2800
 6356TIP3   OH240626   6.508   2.640   1.636 -0.7275  0.6305  0.1895
 6356TIP3    H140627   6.514   2.626   1.541 -1.3347  0.8791  0.1099
 6356TIP3    H240628   6.583   2.592   1.672 -2.0507 -1.8735 -0.1628
 6357TIP3   OH240629   5.851   0.154   0.002 -0.0694  0.2149 -0.3653
 6357TIP3    H140630   5.811   0.073   0.034  1.0002  0.2087  1.0664
 6357TIP3    H240631   5.845   0.215   0.076  0.7309  0.8534 -0.8081
 6358TIP3   OH240632   0.574   6.069   2.464  0.6115 -0.2042  0.3512
 6358TIP3    H140633   0.562   6.091   2.557 -0.0428  1.0786 -0.0205
 6358TIP3    H240634   0.557   6.150   2.418 -1.4414 -1.3802 -1.0926
 6359TIP3   OH240635   4.027   0.418   0.361 -0.2652 -0.1178  0.0394
 6359TIP3    H140636   3.998   0.337   0.319 -0.5563 -0.0964  0.1973
 6359TIP3    H240637   3.994   0.412   0.450 -2.2855  1.1854 -0.5572
 6360TIP3   OH240638   0.818   5.017   0.739 -0.0167  0.0435  0.4594
 6360TIP3    H140639   0.760   4.950   0.702  0.5423 -0.0649 -0.2436
 6360TIP3    H240640   0.763   5.095   0.746  0.4084  0.7897 -2.8825
 6361TIP3   OH240641   0.932   3.749   8.648  0.1836  0.0930 -0.0800
 6361TIP3    H140642   0.987   3.825   8.630 -1.2615  0.9723 -0.9754
 6361TIP3    H240643   0.991   3.686   8.689  2.1119  0.5766 -1.9237
 6362TIP3   OH240644   4.672   3.494   8.037  0.2896  0.5045  0.1404
 6362TIP3    H140645   4.675   3.409   8.080  0.1661  0.0311 -0.7679
 6362TIP3    H240646   4.762   3.510   8.008 -0.1418 -0.4998 -1.9045
 6363TIP3   OH240647   5.989   1.262   2.554  0.1002  0.3248 -0.1216
 6363TIP3    H140648   5.930   1.260   2.629  1.7511  0.2242  1.2428
 6363TIP3    H240649   5.995   1.171   2.525  0.4935  0.1547  0.4861
 6364TIP3   OH240650   5.191   4.739   1.374 -0.2136  0.1142 -0.1625
 6364TIP3    H140651   5.155   4.683   1.305  1.1024 -0.8327 -0.1027
 6364TIP3    H240652   5.255   4.794   1.329  0.6001 -0.4622  0.2766
 6365TIP3   OH240653   5.598   1.890   8.010 -0.2395 -0.4428  0.1771
 6365TIP3    H140654   5.528   1.897   7.945  0.5713 -0.6406 -0.7466
 6365TIP3    H240655   5.648   1.813   7.983  0.4315 -0.2132  0.7291
 6366TIP3   OH240656   5.465   1.676   0.746 -0.2673 -0.2742  0.3522
 6366TIP3    H140657   5.394   1.706   0.803 -0.1554  1.2606 -0.2864
 6366TIP3    H240658   5.545   1.698   0.793 -0.1201 -3.3320  1.7633
 6367TIP3   OH240659   3.510   2.781   1.400  0.0427  0.2240 -0.2211
 6367TIP3    H140660   3.512   2.721   1.474  0.9264 -1.3435 -1.4662
 6367TIP3    H240661   3.580   2.843   1.418 -0.4838  0.5663  0.7735
 6368TIP3   OH240662   1.579   5.468   1.131  0.4434 -0.0173 -0.3105
 6368TIP3    H140663   1.586   5.379   1.164 -0.9216  0.1065  0.3631
 6368TIP3    H240664   1.622   5.522   1.197 -0.8324  0.0585  0.4740
 6369TIP3   OH240665   6.181   4.763   8.744  0.1266  0.1293 -0.1347
 6369TIP3    H140666   6.181   4.727   8.833 -0.5969  0.0392 -0.1672
 6369TIP3    H240667   6.089   4.781   8.725  0.2096 -0.4036 -1.0920
 6370TIP3   OH240668   0.093   2.550   7.481 -0.1376 -0.0616  0.3064
 6370TIP3    H140669   0.168   2.606   7.459  0.7960 -1.0132  0.9839
 6370TIP3    H240670   0.039   2.605   7.538  0.5620  0.2946  0.6427
 6371TIP3   OH240671   2.091   4.628   1.462  0.2050 -0.2059 -1.0163
 6371TIP3    H140672   2.084   4.721   1.439  1.2220 -0.0685 -0.7944
 6371TIP3    H240673   2.128   4.586   1.385  0.5081 -0.2933 -0.8244
 6372TIP3   OH240674   6.735   1.298   0.236  0.5327  0.0662 -0.4889
 6372TIP3    H140675   6.789   1.224   0.206  0.0581  0.3071 -2.0180
 6372TIP3    H240676   6.680   1.261   0.305  1.0742 -0.7238 -0.4579
 6373TIP3   OH240677   1.692   2.485   7.946  0.0079  0.2402 -0.1231
 6373TIP3    H140678   1.700   2.539   8.025 -0.1624 -2.3735  1.8125
 6373TIP3    H240679   1.757   2.521   7.886  0.5402  1.9946  1.4165
 6374TIP3   OH240680   1.792   6.504   7.859  0.7725  0.3689 -0.2900
 6374TIP3    H140681   1.726   6.567   7.832 -0.2678 -1.0466 -1.2138
 6374TIP3    H240682   1.843   6.549   7.926 -1.8896  1.1607  1.3695
 6375TIP3   OH240683   4.331   5.328   1.508 -0.8194 -0.6148 -0.3613
 6375TIP3    H140684   4.332   5.389   1.434 -1.4492 -1.4876 -1.1101
 6375TIP3    H240685   4.324   5.384   1.585  0.5713  0.3509 -0.8915
 6376TIP3   OH240686   5.673   3.017   1.594 -0.3912  0.5433 -0.2129
 6376TIP3    H140687   5.718   2.933   1.586  0.2615  0.6146  1.9723
 6376TIP3    H240688   5.698   3.066   1.516  1.1010 -0.4441 -0.3897
 6377TIP3   OH240689   4.125   3.008   1.091 -0.5169  0.0427 -0.2724
 6377TIP3    H140690   4.128   3.094   1.051  0.8859  0.4999  0.7607
 6377TIP3    H240691   4.211   2.969   1.073 -0.6613 -0.6101  0.3700
 6378TIP3   OH240692   3.614   4.563   8.063 -0.1812  0.2373  0.3222
 6378TIP3    H140693   3.541   4.586   8.005  1.7139  0.4547 -2.1797
 6378TIP3    H240694   3.660   4.494   8.015  0.4437 -0.9903  2.5582
 6379TIP3   OH240695   3.470   5.235   8.669  0.1611 -0.7837  0.4916
 6379TIP3    H140696   3.499   5.287   8.594 -1.1959 -0.8490 -0.1123
 6379TIP3    H240697   3.510   5.149   8.656  1.7398 -0.1684  1.0546
 6380TIP3   OH240698   2.558   5.485   0.693  0.0951  0.0997  0.0236
 6380TIP3    H140699   2.533   5.413   0.635  1.6311 -0.4882  0.0589
 6380TIP3    H240700   2.634   5.453   0.741 -1.5657  0.2621  3.0172
 6381TIP3   OH240701   3.094   1.171   1.711  0.4325 -0.1297 -0.2233
 6381TIP3    H140702   3.139   1.242   1.665 -0.3284  0.3785 -0.2008
 6381TIP3    H240703   3.035   1.215   1.772 -1.0163 -0.7482 -1.1284
 6382TIP3   OH240704   3.265   0.067   0.866 -0.0770  0.1175 -0.4152
 6382TIP3    H140705   3.293   0.052   0.956  1.0102  0.5192 -0.6805
 6382TIP3    H240706   3.236   0.158   0.864  1.0894  0.5028 -0.7496
 6383TIP3   OH240707   0.211   3.687   2.551 -0.0256 -0.1725 -0.9735
 6383TIP3    H140708   0.199   3.763   2.608  2.7053 -0.2035 -0.2210
 6383TIP3    H240709   0.185   3.612   2.606  1.4372 -0.0974 -0.1238
 6384TIP3   OH240710   1.800   0.175   8.763 -0.1644  0.1773 -0.3288
 6384TIP3    H140711   1.777   0.254   8.812 -1.1972 -1.1057  1.3543
 6384TIP3    H240712   1.718   0.150   8.719  0.1074 -0.0857 -0.6873
 6385TIP3   OH240713   4.396   4.446   1.614 -0.0342  0.5081  0.3865
 6385TIP3    H140714   4.463   4.479   1.554 -1.2527 -1.0866 -2.0309
 6385TIP3    H240715   4.446   4.409   1.687  1.7303 -0.1546 -1.0719
 6386TIP3   OH240716   3.897   1.148   0.231 -0.4128  0.7397  0.2782
 6386TIP3    H140717   3.939   1.233   0.242 -3.8019  3.1380 -2.8512
 6386TIP3    H240718   3.860   1.129   0.317 -0.3304  2.9394  0.8780
 6387TIP3   OH240719   0.389   3.259   7.835 -0.0275 -0.3544 -0.1642
 6387TIP3    H140720   0.351   3.181   7.874 -0.2143  0.5078  1.4572
 6387TIP3    H240721   0.437   3.301   7.907 -1.5905  2.0583 -0.4162
 6388TIP3   OH240722   3.486   4.588   3.050 -0.2743  0.0319  0.0025
 6388TIP3    H140723   3.524   4.510   3.090 -0.5159  0.0439  0.2627
 6388TIP3    H240724   3.561   4.637   3.015  0.0783  0.6073  1.4776
 6389TIP3   OH240725   5.873   3.147   7.629 -0.1811 -0.0130 -0.5349
 6389TIP3    H140726   5.795   3.097   7.654  0.5010 -0.3776  0.9850
 6389TIP3    H240727   5.904   3.186   7.711  1.4926 -0.2448 -1.0159
 6390TIP3   OH240728   2.944   4.577   2.683  0.2104  0.2006  0.4949
 6390TIP3    H140729   2.855   4.548   2.706 -0.2525  0.4410 -0.8950
 6390TIP3    H240730   2.930   4.659   2.635  1.0518 -0.5414 -1.0808
 6391TIP3   OH240731   0.733   1.247   0.616 -0.0549  0.2519 -0.5947
 6391TIP3    H140732   0.654   1.251   0.563 -1.0764  2.2144  0.9383
 6391TIP3    H240733   0.716   1.177   0.679 -0.1226  0.0033 -0.8852
 6392TIP3   OH240734   0.674   4.697   1.476  0.1664 -0.1075 -0.2004
 6392TIP3    H140735   0.579   4.709   1.480  0.3833  1.7292  2.6764
 6392TIP3    H240736   0.685   4.608   1.444 -2.3804  0.5187 -3.3807
 6393TIP3   OH240737   3.073   2.925   2.425  0.0058 -0.5563 -0.0107
 6393TIP3    H140738   3.042   2.847   2.380 -0.5327 -0.0196 -0.6003
 6393TIP3    H240739   3.009   2.939   2.496 -1.4388  0.7979 -1.4919
 6394TIP3   OH240740   1.421   0.202   0.747  0.2602  0.5158  0.7510
 6394TIP3    H140741   1.340   0.150   0.754  0.6999 -0.7183 -2.0061
 6394TIP3    H240742   1.473   0.175   0.822 -0.5556 -1.2175  0.7485
 6395TIP3   OH240743   5.556   0.075   3.361 -0.4441 -0.2033  0.2868
 6395TIP3    H140744   5.500   0.047   3.433 -1.8274 -0.0287 -0.6816
 6395TIP3    H240745   5.624   0.008   3.355  1.0627  0.9037  3.1448
 6396TIP3   OH240746   2.529   0.202   2.445  0.4545  0.2394 -0.3783
 6396TIP3    H140747   2.491   0.278   2.489  0.2792  0.0114 -0.1371
 6396TIP3    H240748   2.623   0.221   2.442  0.5582 -0.0629  0.7332
 6397TIP3   OH240749   4.044   2.698   1.045  0.2484 -0.0943  0.5927
 6397TIP3    H140750   4.052   2.793   1.053  0.1528 -0.2137  2.6922
 6397TIP3    H240751   4.116   2.664   1.098  0.7887 -1.2259 -0.8006
 6398TIP3   OH240752   5.489   6.404   1.880  0.7541  0.2466  0.1368
 6398TIP3    H140753   5.502   6.439   1.969 -2.6050 -0.3404  1.0281
 6398TIP3    H240754   5.455   6.478   1.830  1.1881  0.2043 -0.2218
 6399TIP3   OH240755   0.671   6.249   7.009  0.7570 -0.4406 -0.6598
 6399TIP3    H140756   0.654   6.162   7.045 -0.0632 -0.9309 -2.1317
 6399TIP3    H240757   0.704   6.300   7.083 -0.1289 -1.5953  0.5812
 6400TIP3   OH240758   2.416   2.717   7.552  0.0255 -0.4700  0.2596
 6400TIP3    H140759   2.491   2.733   7.494  0.0266 -0.5978  0.2242
 6400TIP3    H240760   2.363   2.797   7.545 -0.7594 -1.0767 -1.1180
 6401TIP3   OH240761   5.550   5.454   0.100  0.0669 -0.6492  0.7232
 6401TIP3    H140762   5.543   5.359   0.102 -1.5765 -0.7200 -2.1624
 6401TIP3    H240763   5.474   5.485   0.149 -0.6624 -0.9020 -0.2183
 6402TIP3   OH240764   3.896   0.523   1.501 -0.5967  0.4823 -0.1124
 6402TIP3    H140765   3.972   0.580   1.484 -1.6873  1.7122 -1.1378
 6402TIP3    H240766   3.932   0.435   1.503  1.0168  1.1175  0.5130
 6403TIP3   OH240767   3.318   2.301   2.209  0.8266  0.1086 -0.4342
 6403TIP3    H140768   3.385   2.365   2.183  1.0261 -0.0123 -0.2162
 6403TIP3    H240769   3.367   2.220   2.224  0.3827 -0.5998 -2.4735
 6404TIP3   OH240770   5.135   4.017   8.455 -0.0410  0.8246 -0.6065
 6404TIP3    H140771   5.074   4.074   8.408 -2.0790 -0.9459 -0.3185
 6404TIP3    H240772   5.091   3.931   8.455  1.4906 -0.0432  1.5047
 6405TIP3   OH240773   5.198   3.762   0.205 -0.0502  0.1358  0.2666
 6405TIP3    H140774   5.163   3.848   0.228  2.5272  1.9543 -1.9987
 6405TIP3    H240775   5.148   3.736   0.128  0.3440  0.4753 -0.1102
 6406TIP3   OH240776   1.118   5.553   0.423 -0.2419 -0.2930  0.2002
 6406TIP3    H140777   1.140   5.562   0.516  2.0704  0.1401 -0.3339
 6406TIP3    H240778   1.089   5.640   0.397  4.9370  1.4760 -0.7710
 6407TIP3   OH240779   3.346   3.614   1.389 -0.0051 -0.2387 -0.1525
 6407TIP3    H140780   3.411   3.548   1.366  0.2140 -0.1024  0.0651
 6407TIP3    H240781   3.375   3.693   1.344 -0.3596 -0.3275 -0.5499
 6408TIP3   OH240782   1.823   4.342   0.294 -0.2029  0.1236  0.2939
 6408TIP3    H140783   1.907   4.361   0.336  1.1136  0.5981 -2.3590
 6408TIP3    H240784   1.815   4.246   0.299  0.9526 -0.0149 -0.1974
 6409TIP3   OH240785   1.521   2.898   1.652 -0.0597  0.9879  0.1864
 6409TIP3    H140786   1.488   2.907   1.742  3.3532  1.6696  1.5113
 6409TIP3    H240787   1.533   2.803   1.641 -0.1289  0.9270  0.5933
 6410TIP3   OH240788   2.945   1.193   1.955 -0.0922 -0.2134 -0.1064
 6410TIP3    H140789   3.008   1.121   1.947 -1.2184 -0.9959 -2.7240
 6410TIP3    H240790   3.000   1.270   1.971  1.1776 -1.4653  2.2429
 6411TIP3   OH240791   3.555   3.687   1.952  0.1648 -0.1249  0.0839
 6411TIP3    H140792   3.592   3.645   1.874  0.2106  0.5454 -0.2660
 6411TIP3    H240793   3.596   3.774   1.954 -3.0574  1.6446 -1.6906
 6412TIP3   OH240794   6.185   6.324   1.763 -0.0190 -0.3391  0.2600
 6412TIP3    H140795   6.130   6.297   1.689 -3.1609  3.7201  0.7245
 6412TIP3    H240796   6.201   6.243   1.812  0.2801 -2.8158 -3.4950
 6413TIP3   OH240797   6.125   0.455   8.422  0.5342 -0.1899  0.6151
 6413TIP3    H140798   6.056   0.521   8.431  0.1823 -0.4186 -0.2478
 6413TIP3    H240799   6.204   0.499   8.453  0.1921  0.4247  0.6468
 6414TIP3   OH240800   5.632   2.823   8.302  0.3492 -0.1180  0.0729
 6414TIP3    H140801   5.644   2.913   8.332 -2.4410 -0.5078  2.8719
 6414TIP3    H240802   5.667   2.822   8.213 -0.1621  3.8880 -0.3425
 6415TIP3   OH240803   5.149   6.475   2.077 -0.3349 -0.0043 -0.2556
 6415TIP3    H140804   5.100   6.531   2.138  1.1455  1.2422 -0.1658
 6415TIP3    H240805   5.209   6.425   2.132  0.8675  0.9805 -0.6238
 6416TIP3   OH240806   0.251   5.024   1.771  0.0033 -0.2602  0.2359
 6416TIP3    H140807   0.270   5.117   1.778 -0.4389  0.0222 -1.7538
 6416TIP3    H240808   0.336   4.981   1.780  0.2021  0.3177  1.2207
 6417TIP3   OH240809   6.553   2.743   0.172  0.1622 -0.6646 -0.2860
 6417TIP3    H140810   6.463   2.729   0.204 -0.5179  0.9562 -1.3733
 6417TIP3    H240811   6.542   2.786   0.088  1.9831  0.9523  0.2483
 6418TIP3   OH240812   4.237   0.936   7.645 -0.5210 -0.5723 -0.6653
 6418TIP3    H140813   4.244   0.965   7.554  1.7312  0.6804 -0.1669
 6418TIP3    H240814   4.174   0.996   7.685  1.4599  1.5111 -0.5067
 6419TIP3   OH240815   3.530   0.757   2.054  0.4950  0.0187 -0.3590
 6419TIP3    H140816   3.571   0.829   2.005  0.2423 -0.8672 -1.9449
 6419TIP3    H240817   3.603   0.703   2.082  0.5630 -0.4475 -1.3846
 6420TIP3   OH240818   1.081   3.120   2.037 -0.0710  0.1068 -0.2397
 6420TIP3    H140819   1.098   3.201   1.989  1.5499  0.1242  0.2982
 6420TIP3    H240820   1.022   3.071   1.980  0.5156  0.8108 -1.4990
 6421TIP3   OH240821   6.365   5.381   0.175  0.2499  0.3064  0.5423
 6421TIP3    H140822   6.367   5.435   0.254 -0.2886  1.7817 -0.4277
 6421TIP3    H240823   6.458   5.362   0.158  0.6363  2.5557 -0.1589
 6422TIP3   OH240824   1.705   1.473   0.526  0.2565 -0.4293 -0.2301
 6422TIP3    H140825   1.791   1.513   0.519 -0.3772  1.3110  1.2889
 6422TIP3    H240826   1.708   1.424   0.608 -0.0667 -0.7249 -0.3915
 6423TIP3   OH240827   6.531   1.973   3.013  0.1793  0.1440  0.6484
 6423TIP3    H140828   6.540   1.878   3.021 -1.0629 -0.0984 -0.4091
 6423TIP3    H240829   6.552   1.991   2.922  1.1450  1.0025  1.0277
 6424TIP3   OH240830   1.042   1.525   0.210 -0.4332  0.0767  0.6363
 6424TIP3    H140831   1.071   1.459   0.273 -1.3997 -2.6378 -1.5555
 6424TIP3    H240832   0.999   1.591   0.264 -1.6485 -2.3073  2.8689
 6425TIP3   OH240833   2.933   0.421   8.392 -0.4629  0.6068 -0.3866
 6425TIP3    H140834   2.863   0.486   8.394 -0.9897  0.0896 -1.4601
 6425TIP3    H240835   2.887   0.337   8.382  0.3187  0.3019 -1.6289
 6426TIP3   OH240836   3.993   3.251   8.645  0.0381  0.8128  0.3735
 6426TIP3    H140837   3.902   3.276   8.661 -0.8919 -2.5861  1.0554
 6426TIP3    H240838   4.017   3.197   8.719  2.6662  1.5530  0.1683
 6427TIP3   OH240839   2.632   1.036   7.746 -0.1452 -0.7059  0.1265
 6427TIP3    H140840   2.585   0.953   7.758  1.5766 -1.5200  1.5471
 6427TIP3    H240841   2.628   1.078   7.832 -3.1083  1.9687 -1.0937
 6428TIP3   OH240842   4.109   2.260   7.842  0.4964 -0.3355  0.2843
 6428TIP3    H140843   4.164   2.222   7.911  0.8685  1.0858  0.7928
 6428TIP3    H240844   4.019   2.247   7.873  0.5535 -1.8055 -0.0954
 6429TIP3   OH240845   6.120   0.835   7.017  0.0357  0.0359  0.3801
 6429TIP3    H140846   6.079   0.865   7.098  0.0512  0.5921  0.1845
 6429TIP3    H240847   6.208   0.873   7.018  0.1703 -0.2633  0.2789
 6430TIP3   OH240848   0.910   3.688   1.037 -0.8264 -0.3978 -0.5395
 6430TIP3    H140849   0.951   3.765   1.078  1.1739 -2.2275  1.1561
 6430TIP3    H240850   0.822   3.686   1.073 -0.6778  0.7315 -0.0669
 6431TIP3   OH240851   1.322   5.431   1.006  0.1572 -0.3981 -0.3314
 6431TIP3    H140852   1.234   5.463   0.988  0.0882 -0.9118 -0.9308
 6431TIP3    H240853   1.366   5.505   1.048 -1.0717 -0.7028  1.6534
 6432TIP3   OH240854   3.923   4.811   2.039 -0.1920 -0.0698  0.5702
 6432TIP3    H140855   3.928   4.770   1.952 -1.7798 -0.5734  0.6791
 6432TIP3    H240856   3.932   4.905   2.022 -2.3212  0.0067 -0.3862
 6433TIP3   OH240857   3.936   0.279   1.339 -0.1279 -0.0554  0.7955
 6433TIP3    H140858   3.901   0.327   1.263  1.9797 -0.7317 -0.6889
 6433TIP3    H240859   3.883   0.200   1.344 -0.4687  0.1259  0.1710
 6434TIP3   OH240860   5.723   6.834   1.280 -0.1536  0.5256 -0.2887
 6434TIP3    H140861   5.798   6.782   1.251 -0.2008 -0.4888  1.2754
 6434TIP3    H240862   5.761   6.903   1.334 -0.3662 -1.1774  2.2226
 6435TIP3   OH240863   2.020   6.579   8.734 -1.0996 -0.2956  0.1533
 6435TIP3    H140864   2.102   6.574   8.783 -0.6072  1.1064 -0.4752
 6435TIP3    H240865   1.956   6.607   8.799 -0.6061  0.8065  0.1873
 6436TIP3   OH240866   1.727   2.693   2.006  0.3702  0.0885  0.7205
 6436TIP3    H140867   1.685   2.685   1.920 -0.2160 -2.7971  1.1659
 6436TIP3    H240868   1.801   2.632   2.003  1.7358  1.6380  1.5383
 6437TIP3   OH240869   5.092   3.475   0.623  0.0633 -0.4426 -0.0286
 6437TIP3    H140870   5.095   3.380   0.631 -1.5300 -0.5369 -0.1990
 6437TIP3    H240871   5.106   3.492   0.529 -0.2102 -0.5531 -0.0911
 6438TIP3   OH240872   4.945   1.593   0.563  0.4262  0.4425  0.0645
 6438TIP3    H140873   5.036   1.601   0.590  0.0555 -2.2544  2.5550
 6438TIP3    H240874   4.935   1.501   0.537 -1.1288  1.1638 -2.3130
 6439TIP3   OH240875   3.178   0.970   3.176 -0.3925  0.2734  0.5920
 6439TIP3    H140876   3.202   1.042   3.233  2.2070  0.6440 -0.7991
 6439TIP3    H240877   3.146   1.012   3.096  3.1135  0.1719 -1.0755
 6440TIP3   OH240878   0.675   0.575   0.977  0.2974  0.0430  0.0493
 6440TIP3    H140879   0.687   0.657   1.025  0.8394 -0.5197  0.8954
 6440TIP3    H240880   0.587   0.546   1.001 -0.4040  0.9723 -1.2216
 6441TIP3   OH240881   3.837   3.002   1.406  0.5207 -0.4397  0.1476
 6441TIP3    H140882   3.790   2.973   1.484  0.8800 -0.1844  0.4654
 6441TIP3    H240883   3.792   3.082   1.380  1.8041  0.7850  1.4720
 6442TIP3   OH240884   1.504   4.213   7.777  0.1583  0.1999  0.2599
 6442TIP3    H140885   1.599   4.217   7.789 -0.0397 -0.4841  2.6480
 6442TIP3    H240886   1.483   4.120   7.778 -0.5391  0.3455 -0.1742
 6443TIP3   OH240887   0.698   3.088   1.589 -0.5106 -0.1594 -0.8025
 6443TIP3    H140888   0.716   3.030   1.515 -0.1718  0.0555 -0.8891
 6443TIP3    H240889   0.706   3.031   1.666  0.3139 -0.1231 -0.8525
 6444TIP3   OH240890   1.836   0.222   1.685 -0.4560  0.1289 -1.0626
 6444TIP3    H140891   1.851   0.210   1.779 -0.0868 -0.5308 -1.2010
 6444TIP3    H240892   1.919   0.258   1.652 -0.7892  0.9517 -1.0435
 6445TIP3   OH240893   3.897   3.782   0.146 -0.4587 -0.0524 -0.0242
 6445TIP3    H140894   3.828   3.848   0.142 -0.2936  0.1745  0.6722
 6445TIP3    H240895   3.978   3.833   0.147 -0.3250 -0.2700  0.3607
 6446TIP3   OH240896   1.295   4.087   2.470  0.5549 -0.1277 -0.1254
 6446TIP3    H140897   1.381   4.091   2.511  1.3245 -0.2047 -1.6394
 6446TIP3    H240898   1.287   3.996   2.441 -0.2227 -0.2196  0.3538
 6447TIP3   OH240899   2.415   3.500   0.031 -0.1276 -0.6664 -0.5571
 6447TIP3    H140900   2.509   3.514   0.039 -0.2223  1.0807 -1.8789
 6447TIP3    H240901   2.390   3.455   0.112  1.8383 -1.3224 -0.2606
 6448TIP3   OH240902   6.233   1.529   1.200 -0.5137 -0.0829 -0.0911
 6448TIP3    H140903   6.312   1.581   1.192 -0.4731 -0.4124 -2.5500
 6448TIP3    H240904   6.164   1.592   1.219  0.2103  0.2451  1.6997
 6449TIP3   OH240905   4.239   2.445   1.766 -0.6135 -0.1178 -0.3950
 6449TIP3    H140906   4.288   2.364   1.778  0.8397  0.7208 -0.5244
 6449TIP3    H240907   4.225   2.450   1.671 -0.9831 -0.3524 -0.3586
 6450TIP3   OH240908   1.497   6.043   2.733 -0.3395  0.2530 -0.3712
 6450TIP3    H140909   1.461   5.954   2.741  0.9015 -0.1449  1.8237
 6450TIP3    H240910   1.431   6.091   2.684 -0.7747 -1.9982 -2.1994
 6451TIP3   OH240911   3.800   2.947   7.920 -0.4773 -0.0330 -0.6102
 6451TIP3    H140912   3.858   2.925   7.993 -1.4499 -1.3546 -0.1801
 6451TIP3    H240913   3.840   3.023   7.878  0.7645 -0.0236  0.5460
 6452TIP3   OH240914   3.208   3.808   0.916  0.1035  0.1174  0.3069
 6452TIP3    H140915   3.248   3.890   0.888  0.1421  0.1160  0.3575
 6452TIP3    H240916   3.115   3.818   0.896 -0.2527  0.9854  2.1573
 6453TIP3   OH240917   4.814   2.795   8.096  0.2919 -0.3901  0.4376
 6453TIP3    H140918   4.750   2.858   8.129 -1.2635 -1.8034  0.2344
 6453TIP3    H240919   4.813   2.808   8.001  0.6021 -0.1587  0.4633
 6454TIP3   OH240920   6.707   2.129   1.226 -0.2566 -0.0759  0.5975
 6454TIP3    H140921   6.679   2.154   1.314  1.8696  0.8843  1.0501
 6454TIP3    H240922   6.713   2.033   1.229 -2.6630 -0.3003  0.6532
 6455TIP3   OH240923   2.320   3.643   7.582 -0.1527 -0.0859 -0.2059
 6455TIP3    H140924   2.247   3.582   7.596 -0.3259  0.3985  1.1964
 6455TIP3    H240925   2.279   3.728   7.569  0.1307 -0.0183 -0.6806
 6456TIP3   OH240926   2.071   6.485   7.490  0.4622  0.2367  0.7150
 6456TIP3    H140927   2.149   6.435   7.467 -0.2413  0.1203 -1.6947
 6456TIP3    H240928   2.101   6.576   7.492  0.7431  0.1599  0.1687
 6457TIP3   OH240929   0.841   3.172   2.337  0.2965  0.8137  0.1185
 6457TIP3    H140930   0.831   3.148   2.245 -1.2262 -1.7199  0.8363
 6457TIP3    H240931   0.902   3.246   2.337  1.5751 -0.1338 -2.7612
 6458TIP3   OH240932   4.570   0.444   0.509  0.3924 -0.6249 -0.1137
 6458TIP3    H140933   4.520   0.523   0.531 -0.9713 -1.4348 -0.2074
 6458TIP3    H240934   4.519   0.373   0.546  2.1339 -1.4074  0.8597
 6459TIP3   OH240935   4.797   6.009   2.378 -0.2635  0.3726 -0.4960
 6459TIP3    H140936   4.817   6.091   2.422 -0.5577 -1.0019  2.4044
 6459TIP3    H240937   4.819   5.941   2.441 -0.6651 -1.7923 -2.5325
 6460TIP3   OH240938   0.361   0.882   1.252  0.5034 -0.6113 -0.2006
 6460TIP3    H140939   0.429   0.921   1.308 -1.6801 -0.2223  2.3910
 6460TIP3    H240940   0.374   0.788   1.262  0.6114 -0.5425  0.3684
 6461TIP3   OH240941   2.883   2.971   1.778  0.7725 -0.0345 -0.3349
 6461TIP3    H140942   2.812   2.963   1.714 -0.3926 -0.0831  0.9321
 6461TIP3    H240943   2.924   3.055   1.758  0.1234  0.1661 -0.8328
 6462TIP3   OH240944   4.856   6.257   1.082 -0.5617 -0.1467  0.3107
 6462TIP3    H140945   4.894   6.178   1.043  2.1043  0.8859  0.6190
 6462TIP3    H240946   4.822   6.227   1.166 -0.9937 -1.2514 -0.2362
 6463TIP3   OH240947   6.316   2.885   1.352  0.3075 -0.2684  0.0511
 6463TIP3    H140948   6.339   2.933   1.432 -0.0118  2.1894 -1.2413
 6463TIP3    H240949   6.302   2.795   1.381  0.4259  0.4942  2.7120
 6464TIP3   OH240950   0.501   5.032   1.933  0.6390  0.3823 -0.2890
 6464TIP3    H140951   0.588   5.041   1.894  0.4483  0.1540 -0.7800
 6464TIP3    H240952   0.458   5.115   1.915  0.6975  0.4317 -0.1992
 6465TIP3   OH240953   1.046   2.361   0.625 -0.0367 -0.2798 -0.0047
 6465TIP3    H140954   0.996   2.334   0.701  0.1537 -0.8362 -0.0733
 6465TIP3    H240955   1.138   2.352   0.651  0.0297 -0.4294 -0.2758
 6466TIP3   OH240956   3.149   0.143   1.608 -0.3649  0.3277 -0.5217
 6466TIP3    H140957   3.136   0.186   1.692 -3.9005  1.3218 -1.4043
 6466TIP3    H240958   3.138   0.050   1.627  2.6669  0.0710  0.6045
 6467TIP3   OH240959   1.056   0.456   2.801  0.3731  0.0181  0.0490
 6467TIP3    H140960   0.967   0.425   2.785  0.5637 -0.2481 -0.5158
 6467TIP3    H240961   1.063   0.460   2.896 -0.9621  2.1550  0.1152
 6468TIP3   OH240962   5.407   5.025   6.953 -0.2744 -0.2809  0.0345
 6468TIP3    H140963   5.443   5.113   6.940  1.6683 -1.1536 -0.9363
 6468TIP3    H240964   5.317   5.031   6.920 -0.4488  1.5189  0.7172
 6469TIP3   OH240965   0.886   0.929   0.885  0.0065  0.1222  0.4799
 6469TIP3    H140966   0.956   0.871   0.854  2.8274  1.5264  3.4833
 6469TIP3    H240967   0.855   0.888   0.966 -1.5630  0.3415  0.0206
 6470TIP3   OH240968   0.715   2.131   8.694 -0.0467 -0.0072  0.1036
 6470TIP3    H140969   0.662   2.192   8.745  1.3503  0.9387  0.4966
 6470TIP3    H240970   0.668   2.121   8.612  0.5887  3.2175 -0.8165
 6471TIP3   OH240971   4.303   4.445   7.291 -0.3280  0.0457  0.0537
 6471TIP3    H140972   4.377   4.427   7.234  0.2767 -1.2891  1.2060
 6471TIP3    H240973   4.341   4.489   7.367 -0.6669 -0.8028  0.7362
 6472TIP3   OH240974   3.558   4.521   1.759  0.4082 -0.5884  0.3585
 6472TIP3    H140975   3.541   4.609   1.727 -0.0059 -1.2912 -1.5276
 6472TIP3    H240976   3.611   4.533   1.838  1.5994  1.2924 -0.6487
 6473TIP3   OH240977   4.178   2.824   7.966  0.0831  0.0665  0.1509
 6473TIP3    H140978   4.143   2.890   8.026  0.4910 -0.4010  0.9241
 6473TIP3    H240979   4.214   2.874   7.893  2.4455  0.8908  1.7823
 6474TIP3   OH240980   2.743   3.201   8.751  0.1878 -0.0805  0.5604
 6474TIP3    H140981   2.762   3.150   8.830  1.0584 -1.0892 -0.2814
 6474TIP3    H240982   2.802   3.166   8.684 -0.6858  0.6018 -0.6125
 6475TIP3   OH240983   4.374   1.433   2.127 -0.5023 -0.4618 -0.6862
 6475TIP3    H140984   4.368   1.375   2.050 -2.0071  2.5063 -3.0225
 6475TIP3    H240985   4.390   1.520   2.090 -2.9684  1.4256  2.1927
 6476TIP3   OH240986   1.576   0.496   7.612  0.2469  0.3770  0.5465
 6476TIP3    H140987   1.556   0.486   7.519  0.0098 -1.8905  0.7807
 6476TIP3    H240988   1.634   0.572   7.616  1.0289 -0.0358 -1.5751
 6477TIP3   OH240989   2.834   1.832   2.884 -0.2516 -0.0208 -0.1848
 6477TIP3    H140990   2.744   1.833   2.917 -0.4235  0.0686 -0.6471
 6477TIP3    H240991   2.888   1.813   2.961 -0.8692 -3.2751 -0.4015
 6478TIP3   OH240992   0.861   3.666   7.530 -0.0074  0.1360 -0.5221
 6478TIP3    H140993   0.800   3.596   7.507 -0.9521  0.4515  0.8748
 6478TIP3    H240994   0.930   3.660   7.464 -0.6316 -1.3850 -1.0956
 6479TIP3   OH240995   6.717   3.151   7.897 -0.3937  0.1352  0.0443
 6479TIP3    H140996   6.712   3.152   7.801  0.2597 -0.0726  0.0035
 6479TIP3    H240997   6.687   3.238   7.923  1.2209  0.8673 -0.4491
 6480TIP3   OH240998   1.038   2.987   0.594 -0.5989 -0.3515 -0.0767
 6480TIP3    H140999   1.024   2.991   0.500  0.5909 -1.7932 -0.3619
 6480TIP3    H241000   1.064   3.076   0.619 -0.8615  0.0266 -1.1166
 6481TIP3   OH241001   0.535   2.773   8.290  0.1354 -0.6851  0.0337
 6481TIP3    H141002   0.529   2.857   8.336  2.8082  0.2378 -1.0749
 6481TIP3    H241003   0.620   2.737   8.317  0.7377 -1.2058 -2.3169
 6482TIP3   OH241004   5.119   6.029   2.281 -0.3993  0.0690 -0.0483
 6482TIP3    H141005   5.048   6.092   2.299 -0.1809  0.0674  0.8521
 6482TIP3    H241006   5.197   6.083   2.273 -0.2279 -0.0678  0.6265
 6483TIP3   OH241007   2.380   1.002   7.902 -0.3305 -0.2666 -0.2134
 6483TIP3    H141008   2.342   0.958   7.826 -0.9327 -1.9008  0.9683
 6483TIP3    H241009   2.434   0.935   7.944  0.9701  0.9589  0.1519
 6484TIP3   OH241010   3.730   4.041   0.678  0.2670 -0.5716 -0.4400
 6484TIP3    H141011   3.738   3.967   0.739  0.8371 -0.6035 -0.5532
 6484TIP3    H241012   3.819   4.059   0.650  0.0325 -0.3943 -1.0817
 6485TIP3   OH241013   2.450   2.734   0.254 -0.2296  0.0443 -0.0771
 6485TIP3    H141014   2.367   2.688   0.238  0.3057 -0.9809  0.0217
 6485TIP3    H241015   2.510   2.698   0.189  0.1312  0.8375 -0.1950
 6486TIP3   OH241016   3.338   1.069   7.959  0.0760  0.1796 -0.8076
 6486TIP3    H141017   3.320   0.980   7.989 -0.0397  0.9450  1.7149
 6486TIP3    H241018   3.252   1.103   7.933 -0.3663  0.3304  0.7183
 6487TIP3   OH241019   5.800   5.849   0.450  0.3767  0.0840 -0.1069
 6487TIP3    H141020   5.885   5.851   0.405  0.1605 -3.2509 -0.9559
 6487TIP3    H241021   5.819   5.875   0.540  2.6763 -1.9342  0.1042
 6488TIP3   OH241022   1.494   1.406   7.908  0.0034  0.1190 -0.0433
 6488TIP3    H141023   1.584   1.436   7.900  0.3038 -0.4468  1.0973
 6488TIP3    H241024   1.449   1.446   7.833  1.0569  0.8847 -0.2880
 6489TIP3   OH241025   6.512   5.638   1.678 -0.4685 -0.2672 -0.0041
 6489TIP3    H141026   6.573   5.580   1.724  1.4275  1.7104  0.1539
 6489TIP3    H241027   6.452   5.669   1.745 -0.3000 -0.5727  0.2885
 6490TIP3   OH241028   1.360   3.361   2.055  0.4708  0.3914  0.0016
 6490TIP3    H141029   1.320   3.371   2.141 -1.7968 -0.5690 -0.8835
 6490TIP3    H241030   1.400   3.274   2.057 -0.5020 -0.0757 -0.2340
 6491TIP3   OH241031   4.524   1.945   0.061  0.2724  0.1079 -0.0016
 6491TIP3    H141032   4.602   1.969   0.111 -0.0180  1.7389 -0.2534
 6491TIP3    H241033   4.457   1.929   0.127  0.6994 -0.9141  0.2034
 6492TIP3   OH241034   2.952   0.533   8.059 -0.0782  0.0071 -0.4445
 6492TIP3    H141035   3.009   0.584   8.117 -1.7641 -0.7194  2.0377
 6492TIP3    H241036   3.004   0.456   8.036  0.0374 -0.6415  1.7596
 6493TIP3   OH241037   0.225   4.654   0.139 -0.1479 -0.0124 -0.0997
 6493TIP3    H141038   0.259   4.572   0.103 -1.5840 -0.9150  0.5095
 6493TIP3    H241039   0.192   4.701   0.063  1.7188  0.5733 -0.6118
 6494TIP3   OH241040   0.917   5.663   1.506 -0.3926  0.2477 -0.1495
 6494TIP3    H141041   0.906   5.622   1.592  0.9267 -0.7892 -0.4539
 6494TIP3    H241042   0.860   5.614   1.448  0.7317 -0.8170 -0.3899
 6495TIP3   OH241043   3.947   5.460   2.808  0.0804  0.1805 -0.0194
 6495TIP3    H141044   3.981   5.539   2.849  0.6287 -0.0830  0.0326
 6495TIP3    H241045   3.864   5.488   2.769  1.7511  1.6372 -2.8704
 6496TIP3   OH241046   1.067   1.132   1.739 -0.1644  0.7902  0.2364
 6496TIP3    H141047   1.108   1.137   1.653  1.5199 -0.8746  0.8821
 6496TIP3    H241048   1.073   1.221   1.774 -1.2298  1.5922 -1.4610
 6497TIP3   OH241049   6.822   4.440   0.863 -0.0372 -0.3444 -0.1109
 6497TIP3    H141050   6.886   4.439   0.934 -2.1516  1.6531  2.0271
 6497TIP3    H241051   6.842   4.519   0.813 -1.4809  1.0218  1.3508
 6498TIP3   OH241052   3.383   2.475   0.668  0.5078  0.0180 -0.5295
 6498TIP3    H141053   3.438   2.517   0.734 -0.5200 -0.0733  0.4230
 6498TIP3    H241054   3.360   2.390   0.707  0.3786 -0.3017 -1.2797
 6499TIP3   OH241055   1.163   0.676   2.610 -0.4217 -0.7632  0.3992
 6499TIP3    H141056   1.077   0.689   2.649 -0.1695 -0.3942  0.8369
 6499TIP3    H241057   1.160   0.728   2.530 -0.4228 -0.3315  0.6799
 6500TIP3   OH241058   2.727   2.798   8.673  0.6121 -0.5226  0.4319
 6500TIP3    H141059   2.642   2.818   8.634  0.6000  0.7438  1.0501
 6500TIP3    H241060   2.776   2.754   8.603 -1.2686 -3.3005  0.7197
 6501TIP3   OH241061   1.995   4.901   7.808  0.6861 -0.2269  0.4774
 6501TIP3    H141062   2.067   4.942   7.760  0.6252  1.1686  1.5273
 6501TIP3    H241063   2.032   4.820   7.843  1.1644 -0.4985 -0.6117
 6502TIP3   OH241064   4.388   5.053   7.756 -0.1365  0.0052 -0.2790
 6502TIP3    H141065   4.311   5.092   7.797 -0.1901 -0.3373 -0.0523
 6502TIP3    H241066   4.360   5.032   7.667  0.0181  0.8682 -0.5455
 6503TIP3   OH241067   4.818   0.438   7.324 -0.1006 -0.1050  0.3487
 6503TIP3    H141068   4.850   0.364   7.375  2.0226  0.3651 -0.1893
 6503TIP3    H241069   4.890   0.502   7.327 -0.7565  0.7985 -1.4581
 6504TIP3   OH241070   3.681   3.381   8.362 -0.3041 -0.4380 -0.0761
 6504TIP3    H141071   3.770   3.417   8.360  0.4007 -2.0862 -2.5676
 6504TIP3    H241072   3.683   3.317   8.433  1.0210 -1.5367 -1.0440
 6505TIP3   OH241073   6.667   2.473   7.716  0.1930 -0.3298  0.4694
 6505TIP3    H141074   6.688   2.558   7.678  0.6516 -0.6729 -0.0703
 6505TIP3    H241075   6.742   2.418   7.692 -0.0112 -0.8351  0.9735
 6506TIP3   OH241076   1.778   3.436   8.725  0.0763 -0.1421 -0.7778
 6506TIP3    H141077   1.770   3.425   8.630  0.8067 -2.8324 -0.6054
 6506TIP3    H241078   1.714   3.375   8.761  1.8488 -1.3691  0.4337
 6507TIP3   OH241079   6.177   0.973   7.621  0.1895  0.0753  0.5508
 6507TIP3    H141080   6.169   1.052   7.567  0.0822  0.6282  1.3539
 6507TIP3    H241081   6.266   0.942   7.605 -0.2423 -0.5207 -0.9245
 6508TIP3   OH241082   2.208   1.214   2.992 -0.5649  0.1219 -0.5911
 6508TIP3    H141083   2.209   1.206   2.897 -0.0943  1.4771 -0.7269
 6508TIP3    H241084   2.238   1.304   3.009  2.0254 -0.9036  0.9234
 6509TIP3   OH241085   4.254   3.295   1.960 -0.2744  0.5953 -0.0289
 6509TIP3    H141086   4.226   3.383   1.937  1.1500  0.8445 -0.9250
 6509TIP3    H241087   4.307   3.306   2.039  0.1171  0.6046 -0.2841
 6510TIP3   OH241088   5.444   2.200   0.419  0.1936 -0.5094 -0.6060
 6510TIP3    H141089   5.407   2.166   0.500  0.8456 -0.2249 -0.1772
 6510TIP3    H241090   5.501   2.130   0.387 -0.6384 -0.9181 -1.2258
 6511TIP3   OH241091   5.870   3.795   1.459 -0.1384 -0.5451 -0.4835
 6511TIP3    H141092   5.959   3.829   1.455 -0.7286  1.1032 -0.4232
 6511TIP3    H241093   5.869   3.722   1.398  0.9823  0.1068 -1.3205
 6512TIP3   OH241094   5.945   2.774   8.133 -0.5088  0.9288  0.0673
 6512TIP3    H141095   6.004   2.703   8.158  0.1029  1.1650 -0.6512
 6512TIP3    H241096   5.977   2.850   8.181 -0.0960  1.0987 -0.4591
 6513TIP3   OH241097   1.388   3.325   7.155 -0.4343 -0.3346  0.0128
 6513TIP3    H141098   1.404   3.401   7.099  2.1305 -0.0004  1.0351
 6513TIP3    H241099   1.385   3.251   7.094 -1.3770  0.3910 -0.8549
 6514TIP3   OH241100   5.062   3.900   0.585 -0.1490 -0.0660  0.3098
 6514TIP3    H141101   5.148   3.916   0.545 -0.1945 -1.9421 -0.6531
 6514TIP3    H241102   5.081   3.882   0.677  0.6500 -1.4241 -0.0836
 6515TIP3   OH241103   4.769   0.390   3.418 -0.0897  0.2714 -0.0858
 6515TIP3    H141104   4.802   0.315   3.469  1.7361  1.4845  0.6358
 6515TIP3    H241105   4.685   0.360   3.384 -0.1595 -1.5561  1.4638
 6516TIP3   OH241106   1.176   3.949   7.566  0.2226  0.5729  0.2882
 6516TIP3    H141107   1.173   4.005   7.644  0.6056  0.7468  0.1756
 6516TIP3    H241108   1.259   3.902   7.574  0.3627  0.7507 -0.1313
 6517TIP3   OH241109   5.135   0.887   1.507 -0.0665 -0.3081 -0.8143
 6517TIP3    H141110   5.210   0.896   1.449 -0.6128 -1.2742 -1.6997
 6517TIP3    H241111   5.065   0.936   1.464 -0.0518  0.3252 -0.1494
 6518TIP3   OH241112   0.238   2.219   1.258 -0.7545 -0.5336  0.5909
 6518TIP3    H141113   0.167   2.233   1.321 -1.6303  1.1791 -0.6940
 6518TIP3    H241114   0.306   2.174   1.308 -2.0055 -0.5664  2.3484
 6519TIP3   OH241115   4.276   4.761   7.329 -1.0766  0.6340  0.0987
 6519TIP3    H141116   4.216   4.739   7.257 -2.1413  1.5350  0.6813
 6519TIP3    H241117   4.257   4.853   7.348  1.6512  1.4901 -0.7871
 6520TIP3   OH241118   4.025   3.691   7.977 -0.3755 -0.1948 -0.0761
 6520TIP3    H141119   4.033   3.670   7.884  0.6048 -0.3417  0.0279
 6520TIP3    H241120   3.965   3.625   8.011 -1.3943  0.3584 -0.7534
 6521TIP3   OH241121   0.461   5.809   7.173 -0.4933  0.4881 -0.0131
 6521TIP3    H141122   0.428   5.819   7.262 -1.8588  0.6024 -0.5180
 6521TIP3    H241123   0.423   5.882   7.125  1.1000  1.0647 -0.4726
 6522TIP3   OH241124   1.775   6.098   1.255 -0.0798  0.0109  0.4983
 6522TIP3    H141125   1.810   6.013   1.280  1.1371  0.2217 -0.3705
 6522TIP3    H241126   1.825   6.123   1.177 -1.8770  0.5566 -0.5582
 6523TIP3   OH241127   3.349   1.234   1.301 -0.0837  0.1035  0.0424
 6523TIP3    H141128   3.266   1.192   1.279 -0.8268  0.7379  1.4910
 6523TIP3    H241129   3.357   1.305   1.236  0.2024 -0.9939 -1.1686
 6524TIP3   OH241130   5.158   2.868   1.165 -0.7232  0.8302 -0.1282
 6524TIP3    H141131   5.123   2.779   1.169 -0.2009  0.6377  0.3253
 6524TIP3    H241132   5.253   2.856   1.170 -0.6346  1.3931 -0.4262
 6525TIP3   OH241133   3.098   0.354   7.899  0.3429 -0.0100  0.1702
 6525TIP3    H141134   3.006   0.354   7.875  0.0302 -1.7613  1.2097
 6525TIP3    H241135   3.145   0.349   7.816 -0.4760  0.8576 -0.3587
 6526TIP3   OH241136   2.265   4.109   8.674 -0.1623  0.2398  0.3314
 6526TIP3    H141137   2.252   4.167   8.749 -0.1946  2.2886 -1.1616
 6526TIP3    H241138   2.348   4.065   8.691  0.2083  1.2445  1.2196
 6527TIP3   OH241139   2.937   5.430   8.738  0.0438  0.7088 -0.4228
 6527TIP3    H141140   2.943   5.404   8.647 -1.2841 -1.4510  0.0397
 6527TIP3    H241141   2.988   5.364   8.786 -0.4055  1.0038  0.4970
 6528TIP3   OH241142   6.363   1.777   0.518 -0.0061  0.1384  0.1189
 6528TIP3    H141143   6.333   1.846   0.577 -0.2532  0.0911  0.0482
 6528TIP3    H241144   6.428   1.729   0.570  0.0305  0.3082  0.2327
 6529TIP3   OH241145   5.928   2.449   1.860 -0.1110 -0.3895  0.1383
 6529TIP3    H141146   5.930   2.362   1.820  0.0256  0.6535 -2.3046
 6529TIP3    H241147   5.968   2.507   1.795 -1.8010  1.8176  0.9239
 6530TIP3   OH241148   6.642   1.348   2.038 -0.1642 -0.4062 -0.2917
 6530TIP3    H141149   6.652   1.257   2.065 -1.8613 -0.8029 -0.8378
 6530TIP3    H241150   6.698   1.358   1.961  0.0203 -0.9893 -0.2328
 6531TIP3   OH241151   1.042   4.343   7.131 -0.1427  0.4524 -0.0715
 6531TIP3    H141152   1.102   4.321   7.059 -0.9035 -1.6520 -0.1236
 6531TIP3    H241153   1.031   4.438   7.124  2.5746  0.8237 -0.5096
 6532TIP3   OH241154   4.339   6.335   8.214 -0.4807 -0.4430 -0.1726
 6532TIP3    H141155   4.360   6.375   8.299 -0.4942 -0.8121  0.0068
 6532TIP3    H241156   4.330   6.242   8.234 -1.5816 -0.3958 -0.3709
 6533TIP3   OH241157   0.941   1.726   2.199 -0.3838 -0.1166  0.2023
 6533TIP3    H141158   0.921   1.724   2.105  2.7966  0.2600 -0.6029
 6533TIP3    H241159   0.890   1.798   2.233 -0.6422  0.5672 -1.5218
 6534TIP3   OH241160   1.732   0.854   1.722  0.0963  0.2382 -0.2741
 6534TIP3    H141161   1.810   0.800   1.715 -0.2253 -0.2322 -0.2504
 6534TIP3    H241162   1.761   0.934   1.766  0.2128 -0.6365  1.2935
 6535TIP3   OH241163   6.584   6.708   1.324  0.2072 -0.3811  0.1678
 6535TIP3    H141164   6.512   6.705   1.387  0.5857 -0.6601  0.5932
 6535TIP3    H241165   6.549   6.756   1.249 -0.4980 -0.7226  0.2740
 6536TIP3   OH241166   2.056   1.982   1.162 -0.2566  0.0793  0.7513
 6536TIP3    H141167   2.122   2.028   1.214  0.8036  0.7101 -1.0390
 6536TIP3    H241168   2.013   1.923   1.224  2.1207 -0.5227  1.9667
 6537TIP3   OH241169   2.214   2.378   1.311 -0.6157  0.2576  0.1700
 6537TIP3    H141170   2.266   2.325   1.250 -1.1670 -0.4815  0.3218
 6537TIP3    H241171   2.124   2.356   1.290 -0.8056 -0.2554  1.4638
 6538TIP3   OH241172   5.064   4.891   0.626  0.2620  0.2463 -0.6239
 6538TIP3    H141173   4.992   4.861   0.682 -2.0176  2.5132 -2.1197
 6538TIP3    H241174   5.091   4.974   0.665  0.9577  0.2112 -1.0253
 6539TIP3   OH241175   2.641   4.978   0.734 -0.2963  0.2864 -0.4894
 6539TIP3    H141176   2.711   4.918   0.708  1.7698  1.4768  1.8664
 6539TIP3    H241177   2.622   5.029   0.655 -1.1808 -2.4492 -2.1799
 6540TIP3   OH241178   0.505   4.271   0.032 -0.2451  0.1489  0.5322
 6540TIP3    H141179   0.591   4.311   0.046 -1.0645  1.9969  0.5720
 6540TIP3    H241180   0.471   4.314  -0.046 -2.0530  1.1413  1.7886
 6541TIP3   OH241181   6.408   6.486   1.751 -0.2008 -0.9925  0.0306
 6541TIP3    H141182   6.470   6.418   1.725 -0.8393 -1.3997 -0.4490
 6541TIP3    H241183   6.330   6.438   1.780 -0.8078 -0.4630 -0.6934
 6542TIP3   OH241184   3.668   6.297   8.699 -0.0688  0.2837  0.4350
 6542TIP3    H141185   3.580   6.269   8.673 -0.3173  0.1021  1.4391
 6542TIP3    H241186   3.691   6.364   8.635  0.0126 -1.2685 -1.2367
 6543TIP3   OH241187   4.116   1.505   8.328  0.1622 -1.0815 -0.4526
 6543TIP3    H141188   4.205   1.513   8.362 -0.7410  1.0226  1.7719
 6543TIP3    H241189   4.112   1.568   8.255  0.7509 -1.9406 -1.2379
 6544TIP3   OH241190   3.877   2.496   1.151 -0.1064 -0.2837 -0.0537
 6544TIP3    H141191   3.802   2.541   1.189 -0.0726  0.9667 -1.3416
 6544TIP3    H241192   3.928   2.566   1.109  0.6516 -1.3647 -1.0215
 6545TIP3   OH241193   6.692   5.060   8.261 -0.2613  0.2765  0.6877
 6545TIP3    H141194   6.636   5.138   8.255 -2.6110 -1.4127 -2.0306
 6545TIP3    H241195   6.654   5.009   8.333 -0.7279  0.2187  0.4043
 6546TIP3   OH241196   6.770   1.790   7.787  0.5249 -0.3766 -0.4021
 6546TIP3    H141197   6.784   1.878   7.820  0.0601 -0.4963  0.1356
 6546TIP3    H241198   6.676   1.775   7.798  0.7961 -1.3979  0.6995
 6547TIP3   OH241199   2.575   6.098   1.561  0.2322 -0.3998  0.0165
 6547TIP3    H141200   2.640   6.125   1.496 -1.1442 -0.2697 -1.3446
 6547TIP3    H241201   2.506   6.164   1.556 -1.1858 -1.8479 -0.3576
 6548TIP3   OH241202   5.401   6.439   7.296 -0.5711  0.0112 -0.0223
 6548TIP3    H141203   5.469   6.449   7.230  0.6735  0.2151  1.2505
 6548TIP3    H241204   5.438   6.378   7.361 -0.2938  2.4761  2.2972
 6549TIP3   OH241205   3.690   2.050   2.823  0.0238 -0.5743 -0.1413
 6549TIP3    H141206   3.649   1.963   2.819 -1.9172  0.2400  0.8329
 6549TIP3    H241207   3.745   2.046   2.901  0.3480 -1.0954 -0.3908
 6550TIP3   OH241208   0.766   4.579   1.715  0.4162 -0.1009 -0.0726
 6550TIP3    H141209   0.737   4.608   1.629  1.4338 -1.8031 -1.0561
 6550TIP3    H241210   0.843   4.632   1.734  0.3125  0.1341 -0.3160
 6551TIP3   OH241211   6.407   2.568   2.403 -0.2846 -0.4460  0.1960
 6551TIP3    H141212   6.456   2.562   2.485 -0.6212  0.8018  0.5111
 6551TIP3    H241213   6.471   2.596   2.339  0.0514 -1.7327 -0.0650
 6552TIP3   OH241214   0.737   2.694   7.915 -0.3864 -0.8438 -0.7935
 6552TIP3    H141215   0.652   2.721   7.880  0.2799  0.6506 -1.3872
 6552TIP3    H241216   0.717   2.641   7.992 -1.8622  0.6308 -0.1154
 6553TIP3   OH241217   6.604   5.690   0.769 -0.5753 -0.2227  0.0095
 6553TIP3    H141218   6.527   5.747   0.760 -0.8079 -0.2218  1.7689
 6553TIP3    H241219   6.570   5.608   0.805  0.1236 -0.5574 -0.0697
 6554TIP3   OH241220   5.800   1.088   8.671  0.5252  0.0817  0.2173
 6554TIP3    H141221   5.724   1.140   8.644  1.1887 -0.3916 -3.0295
 6554TIP3    H241222   5.872   1.151   8.674  0.8324 -0.1593 -1.2328
 6555TIP3   OH241223   0.779   4.247   7.574  0.3231  0.2253 -0.2315
 6555TIP3    H141224   0.820   4.224   7.491  1.0624  2.9506 -0.7214
 6555TIP3    H241225   0.716   4.316   7.552  2.0150  2.5547  1.5876
 6556TIP3   OH241226   3.209   0.449   0.614  0.1396  0.0560 -0.0967
 6556TIP3    H141227   3.156   0.394   0.556  0.7651  0.2942 -0.9155
 6556TIP3    H241228   3.180   0.538   0.596 -1.0692  0.0162  1.4311
 6557TIP3   OH241229   3.540   0.401   7.623 -0.3467  0.3645  0.0597
 6557TIP3    H141230   3.487   0.463   7.572  1.8113  1.8997 -0.4566
 6557TIP3    H241231   3.580   0.344   7.558  0.2297  0.5399  0.2540
 6558TIP3   OH241232   4.298   5.416   0.118 -0.4644 -0.3309 -0.2381
 6558TIP3    H141233   4.274   5.329   0.151  2.7553 -0.8199  1.2183
 6558TIP3    H241234   4.346   5.397   0.037 -0.3616  0.1552 -0.2889
 6559TIP3   OH241235   1.625   6.548   8.144  0.3985 -0.4627  0.3691
 6559TIP3    H141236   1.570   6.596   8.206 -0.2461  0.1466 -0.6401
 6559TIP3    H241237   1.591   6.459   8.146 -2.5784  0.4029 -2.2048
 6560TIP3   OH241238   3.847   5.743   8.527  0.0282  0.2507  0.0959
 6560TIP3    H141239   3.793   5.787   8.461  2.0516  0.6163 -1.4257
 6560TIP3    H241240   3.853   5.807   8.599 -0.1045  0.9309 -0.4847
 6561TIP3   OH241241   2.301   5.057   2.169  0.6199 -0.2990 -0.2800
 6561TIP3    H141242   2.282   5.150   2.177 -1.0795 -0.6686  0.4118
 6561TIP3    H241243   2.268   5.033   2.082 -1.6197 -0.7833  0.6274
 6562TIP3   OH241244   3.518   6.779   1.807  0.7983 -0.3146 -0.1196
 6562TIP3    H141245   3.511   6.719   1.733 -1.7499  0.9316 -1.0018
 6562TIP3    H241246   3.523   6.866   1.768  0.6578  0.2966  1.1408
 6563TIP3   OH241247   4.615   4.999   1.110  0.0755 -0.0324  0.4099
 6563TIP3    H141248   4.555   4.952   1.169  0.0832 -1.3777 -0.5916
 6563TIP3    H241249   4.571   5.081   1.090 -0.0670  0.3095  2.0188
 6564TIP3   OH241250   5.594   5.084   8.421 -0.6082  0.1429  0.2559
 6564TIP3    H141251   5.661   5.111   8.359 -0.4482  0.3100  0.4996
 6564TIP3    H241252   5.629   5.004   8.460 -1.1204 -0.4727 -0.5305
 6565TIP3   OH241253   4.983   5.689   0.125 -0.0245  0.2866 -0.0860
 6565TIP3    H141254   5.033   5.732   0.055  0.2246  0.5465  0.2463
 6565TIP3    H241255   4.931   5.759   0.164 -2.7510 -0.4173 -2.1356
 6566TIP3   OH241256   0.616   6.439   7.923  0.2820 -0.6474 -0.1443
 6566TIP3    H141257   0.635   6.504   7.855  0.5129  1.6091  1.9873
 6566TIP3    H241258   0.532   6.465   7.959  0.5285 -1.3423  0.9714
 6567TIP3   OH241259   6.680   2.192   7.197 -0.1842 -0.4640  0.1061
 6567TIP3    H141260   6.670   2.233   7.283 -0.0088 -3.8177  1.9286
 6567TIP3    H241261   6.771   2.211   7.172 -0.6762  1.7976 -0.1351
 6568TIP3   OH241262   5.895   4.609   1.024 -0.4470  0.2965 -0.2163
 6568TIP3    H141263   5.950   4.584   1.098 -0.0036 -0.4071 -0.7725
 6568TIP3    H241264   5.942   4.578   0.947 -0.7652  1.2681 -0.8200
 6569TIP3   OH241265   1.324   5.309   0.570  0.1801 -0.2367 -0.5817
 6569TIP3    H141266   1.293   5.385   0.619 -0.5892 -0.5294 -0.6089
 6569TIP3    H241267   1.358   5.250   0.637 -2.7109 -1.5359 -0.0938
 6570TIP3   OH241268   3.655   2.982   2.061  0.5172  0.2478  0.1715
 6570TIP3    H141269   3.683   3.001   2.150 -0.4196  1.5670  0.2300
 6570TIP3    H241270   3.687   2.894   2.043  0.7559 -0.0206  1.7903
 6571TIP3   OH241271   6.055   4.485   0.059 -0.1600  0.4752  0.1164
 6571TIP3    H141272   6.059   4.535   0.141 -0.8520  1.0909 -0.2147
 6571TIP3    H241273   6.146   4.461   0.041 -0.2105 -1.5691  2.2001
 6572TIP3   OH241274   5.567   0.240   8.267  0.0127 -0.3306 -0.4087
 6572TIP3    H141275   5.659   0.261   8.282 -0.6695  1.4629  1.8344
 6572TIP3    H241276   5.535   0.213   8.353 -1.8192  0.2002 -0.8946
 6573TIP3   OH241277   0.453   6.283   2.262  0.2675  0.3366  0.3023
 6573TIP3    H141278   0.362   6.292   2.290 -0.2245 -0.0941 -1.0447
 6573TIP3    H241279   0.451   6.213   2.196  1.4876  0.6475 -0.1010
 6574TIP3   OH241280   2.600   0.226   2.030  0.1305  0.3677  0.4873
 6574TIP3    H141281   2.688   0.194   2.011  0.7027  0.5045  2.6165
 6574TIP3    H241282   2.548   0.146   2.045 -0.1104  0.2921 -0.6411
 6575TIP3   OH241283   3.389   4.620   2.539  0.5612 -0.8134 -0.0131
 6575TIP3    H141284   3.350   4.540   2.573 -1.1348 -0.3660 -0.7969
 6575TIP3    H241285   3.429   4.593   2.456  0.2638 -0.9105 -0.1266
 6576TIP3   OH241286   3.606   6.189   2.267  0.0380  0.5048  0.2969
 6576TIP3    H141287   3.519   6.189   2.306  0.0896 -0.4601  0.4369
 6576TIP3    H241288   3.656   6.128   2.321  1.4173  2.5959  1.5427
 6577TIP3   OH241289   6.363   6.339   2.500  0.0524  0.3416 -0.4005
 6577TIP3    H141290   6.408   6.378   2.425  1.5790 -0.0901  0.2432
 6577TIP3    H241291   6.361   6.409   2.566  0.3942  0.1529 -0.1877
 6578TIP3   OH241292   1.508   3.230   8.107 -0.1536 -0.2521 -0.1303
 6578TIP3    H141293   1.584   3.172   8.100 -0.0051 -0.0918  0.1310
 6578TIP3    H241294   1.444   3.194   8.046 -1.5341 -2.8837  2.6100
 6579TIP3   OH241295   5.371   2.417   8.713 -0.0447 -0.4205 -0.3033
 6579TIP3    H141296   5.376   2.446   8.622 -0.9654  0.6959 -0.0248
 6579TIP3    H241297   5.460   2.388   8.733  0.6144  0.9398 -1.0516
 6580TIP3   OH241298   2.160   3.671   0.908  0.2531 -0.1873 -0.2017
 6580TIP3    H141299   2.092   3.697   0.845  0.6348  0.1555 -0.4769
 6580TIP3    H241300   2.200   3.593   0.869  0.1876 -0.2407 -0.1627
 6581TIP3   OH241301   6.791   2.374   0.153  0.2905 -0.3159 -0.2937
 6581TIP3    H141302   6.798   2.444   0.217  2.9039  0.6335 -1.4756
 6581TIP3    H241303   6.808   2.293   0.202  2.0384  0.3668  0.2900
 6582TIP3   OH241304   1.944   5.681   0.428 -0.3481 -0.9137 -0.5907
 6582TIP3    H141305   1.865   5.647   0.470 -0.1468 -0.5582  0.0865
 6582TIP3    H241306   2.011   5.677   0.496 -0.1997  0.3673 -0.6273
 6583TIP3   OH241307   4.184   0.681   2.143  0.1633 -0.2864  0.0781
 6583TIP3    H141308   4.170   0.725   2.227 -0.7816  1.4302 -0.9221
 6583TIP3    H241309   4.279   0.671   2.137  0.2821  0.0333  1.1123
 6584TIP3   OH241310   3.250   1.126   8.564  0.2902  0.1796 -0.0927
 6584TIP3    H141311   3.269   1.137   8.471 -0.6306 -0.7351 -0.4082
 6584TIP3    H241312   3.167   1.078   8.566 -0.9854  2.2585  1.2014
 6585TIP3   OH241313   0.174   6.770   7.257 -0.0420 -0.3243 -0.4728
 6585TIP3    H141314   0.095   6.767   7.203  0.6960 -0.0575 -1.5945
 6585TIP3    H241315   0.229   6.699   7.224  1.3769  1.2505 -1.6390
 6586TIP3   OH241316   1.554   0.164   8.596  0.2199  0.4594  0.4083
 6586TIP3    H141317   1.479   0.198   8.547  0.2003 -0.3692 -0.1671
 6586TIP3    H241318   1.561   0.072   8.568  0.6250  0.1536  1.4599
 6587TIP3   OH241319   5.245   0.945   0.584  0.1352  0.3414 -0.4580
 6587TIP3    H141320   5.278   1.019   0.534  0.4578 -0.6558 -1.7662
 6587TIP3    H241321   5.158   0.929   0.548  0.3790 -0.3963 -0.7354
 6588TIP3   OH241322   0.868   3.434   7.928 -0.3520 -0.0151  0.0012
 6588TIP3    H141323   0.828   3.350   7.906  0.6192 -0.4434 -0.1561
 6588TIP3    H241324   0.866   3.438   8.024  0.0646 -0.4523  0.0313
 6589TIP3   OH241325   1.269   6.617   2.249 -0.6483 -0.5738  0.1349
 6589TIP3    H141326   1.287   6.695   2.197 -2.0575 -0.5724 -0.3940
 6589TIP3    H241327   1.175   6.600   2.235 -0.8696 -1.0783  1.9928
 6590TIP3   OH241328   5.376   1.219   7.875 -0.5288 -0.1141 -0.5311
 6590TIP3    H141329   5.445   1.202   7.812  1.3986  1.5413  1.0014
 6590TIP3    H241330   5.355   1.312   7.865 -0.2447  0.1651  1.1473
 6591TIP3   OH241331   6.573   0.336   0.113  0.3595 -0.6540 -0.6389
 6591TIP3    H141332   6.589   0.282   0.191  1.0899 -0.8531 -0.9197
 6591TIP3    H241333   6.479   0.329   0.098  0.0663  0.0088  0.6781
 6592TIP3   OH241334   3.758   4.450   2.325 -0.3252  0.3784 -0.1248
 6592TIP3    H141335   3.789   4.385   2.262 -0.4907 -0.6177  0.8061
 6592TIP3    H241336   3.838   4.498   2.350 -0.3093  1.0106 -1.3240
 6593TIP3   OH241337   6.135   6.125   2.743  0.2227  0.2900 -0.3823
 6593TIP3    H141338   6.070   6.196   2.736 -0.0041  0.1572  0.3339
 6593TIP3    H241339   6.108   6.063   2.675 -0.8075 -0.0823  0.3419
 6594TIP3   OH241340   0.818   3.299   8.695 -0.1947 -0.2222  0.2889
 6594TIP3    H141341   0.868   3.243   8.636 -1.1287 -1.0062  0.2248
 6594TIP3    H241342   0.756   3.240   8.737 -0.0707  0.4718  1.4733
 6595TIP3   OH241343   4.817   2.136   2.426  0.2739 -0.2272  0.9356
 6595TIP3    H141344   4.888   2.072   2.417  0.7616  0.2542  1.3442
 6595TIP3    H241345   4.793   2.132   2.518 -1.6147 -1.8345  0.4653
 6596TIP3   OH241346   6.792   3.232   8.696 -0.1078 -0.2461  0.6157
 6596TIP3    H141347   6.702   3.216   8.723 -0.2886 -0.3664 -0.0372
 6596TIP3    H241348   6.845   3.194   8.766 -0.5596 -0.5158  0.8209
 6597TIP3   OH241349   0.542   2.781   1.947 -0.5619  0.0127 -0.2279
 6597TIP3    H141350   0.538   2.692   1.914 -0.0245  0.0648 -0.4265
 6597TIP3    H241351   0.616   2.782   2.008 -0.3961  0.3881 -0.4279
 6598TIP3   OH241352   0.127   2.342   1.865 -0.1550  0.5521 -0.3826
 6598TIP3    H141353   0.144   2.346   1.959  2.1198 -0.2344 -0.6961
 6598TIP3    H241354   0.170   2.262   1.836 -0.9593  0.6839 -2.0814
 6599TIP3   OH241355   2.734   4.858   8.402 -0.1839 -0.2010 -0.1852
 6599TIP3    H141356   2.747   4.942   8.358  0.2984  0.1578  0.6178
 6599TIP3    H241357   2.640   4.853   8.417 -0.4171 -0.5401 -1.6536
 6600TIP3   OH241358   4.506   4.445   7.838 -0.9576 -0.0098  0.3306
 6600TIP3    H141359   4.569   4.421   7.771 -0.8320  0.6710  0.2012
 6600TIP3    H241360   4.481   4.535   7.817 -1.0271  0.1586  1.1138
 6601TIP3   OH241361   6.395   4.019   0.414 -0.3577  0.5868 -0.0412
 6601TIP3    H141362   6.397   4.096   0.356  0.7664  0.7726  0.2233
 6601TIP3    H241363   6.407   3.945   0.356 -0.8138  0.6543 -0.2256
 6602TIP3   OH241364   4.569   5.598   2.569 -0.2981 -0.3166 -0.5822
 6602TIP3    H141365   4.546   5.505   2.566 -0.8291 -0.2311  0.4987
 6602TIP3    H241366   4.650   5.601   2.619 -0.2431 -0.2005 -0.6780
 6603TIP3   OH241367   5.949   5.000   3.334  0.0415 -0.1820  0.3963
 6603TIP3    H141368   5.967   4.946   3.257  0.9490 -1.4339  1.4447
 6603TIP3    H241369   5.859   5.030   3.322 -0.5976 -2.1889 -0.0891
 6604TIP3   OH241370   4.216   0.921   1.717 -0.7232 -0.0005  0.4167
 6604TIP3    H141371   4.139   0.968   1.749  0.0036  2.2401 -0.8665
 6604TIP3    H241372   4.288   0.983   1.728 -0.2326  0.6425 -4.3883
 6605TIP3   OH241373   6.014   1.323   2.154 -0.0624  0.1244 -0.7359
 6605TIP3    H141374   6.002   1.416   2.135  0.6868  0.4900  0.4795
 6605TIP3    H241375   5.957   1.306   2.229  0.0575 -0.3163 -0.7409
 6606TIP3   OH241376   6.191   0.263   8.260 -0.7091 -0.5855 -0.0698
 6606TIP3    H141377   6.250   0.321   8.211 -0.0769 -0.4771  0.7975
 6606TIP3    H241378   6.150   0.319   8.326  0.4223 -1.2172  1.2247
 6607TIP3   OH241379   4.955   0.636   0.079 -0.0304  0.2989 -0.3909
 6607TIP3    H141380   4.908   0.718   0.095 -1.0232 -0.1517 -0.9057
 6607TIP3    H241381   4.964   0.631  -0.016  2.6606  1.2151 -0.2556
 6608TIP3   OH241382   2.644   3.116   2.186  0.0541 -0.6172 -0.0568
 6608TIP3    H141383   2.650   3.115   2.091  3.8224 -0.3710  0.0131
 6608TIP3    H241384   2.588   3.191   2.206 -2.0389 -1.5570 -2.0091
 6609TIP3   OH241385   1.797   4.738   7.123 -0.8387  0.9166 -0.7178
 6609TIP3    H141386   1.878   4.687   7.127 -1.0794  0.6285  1.3559
 6609TIP3    H241387   1.799   4.792   7.202 -2.9696  0.4254 -0.2853
 6610TIP3   OH241388   0.076   6.576   7.431 -0.1132  0.1961 -0.1583
 6610TIP3    H141389   0.092   6.490   7.392  0.5449 -0.2280  1.0197
 6610TIP3    H241390   0.126   6.636   7.376  0.6261 -0.3594 -0.0992
 6611TIP3   OH241391   2.720   0.111   2.793 -0.1150  0.1233  0.6161
 6611TIP3    H141392   2.722   0.043   2.861 -0.4009  0.7994  1.3081
 6611TIP3    H241393   2.628   0.138   2.789  0.1674  1.1914  1.0730
 6612TIP3   OH241394   0.776   0.362   0.850 -0.4237 -0.4255 -0.3399
 6612TIP3    H141395   0.815   0.319   0.926  0.5785  0.8931 -0.0669
 6612TIP3    H241396   0.722   0.432   0.886 -1.2267 -0.7977 -0.8024
 6613TIP3   OH241397   1.904   1.853   0.336  0.5169  0.2797  0.2101
 6613TIP3    H141398   1.979   1.794   0.343 -0.0715 -0.4567  0.4493
 6613TIP3    H241399   1.926   1.927   0.393  1.8132  0.9190 -1.0609
 6614TIP3   OH241400   4.044   0.773   7.791 -0.2926 -0.1553 -0.2311
 6614TIP3    H141401   4.103   0.775   7.866 -0.8252  0.7219  0.1822
 6614TIP3    H241402   4.099   0.790   7.716  0.1166 -0.2342  0.0494
 6615TIP3   OH241403   3.410   1.073   1.500 -0.3567 -0.0070  0.1803
 6615TIP3    H141404   3.504   1.057   1.489 -0.1206 -0.0255  1.9018
 6615TIP3    H241405   3.391   1.147   1.443  0.9173  0.6053  0.5130
 6616TIP3   OH241406   0.415   3.157   8.628  0.6889  0.0623  0.2649
 6616TIP3    H141407   0.500   3.144   8.671 -0.0786  2.1134  2.5909
 6616TIP3    H241408   0.352   3.112   8.684 -0.0690  0.8535  0.0685
 6617TIP3   OH241409   4.026   3.094   2.731  0.2892 -0.1290  0.4195
 6617TIP3    H141410   3.970   3.088   2.653 -1.6227 -0.8882  1.7918
 6617TIP3    H241411   4.047   3.004   2.753 -0.0798  0.0197  1.4041
 6618TIP3   OH241412   1.078   3.834   1.767 -0.1996 -1.1339  0.4077
 6618TIP3    H141413   0.990   3.869   1.771  0.1749 -0.0120 -0.6179
 6618TIP3    H241414   1.131   3.896   1.817  0.3359 -0.6197 -0.7598
 6619TIP3   OH241415   2.326   2.418   1.782 -0.1278  0.1489  0.0827
 6619TIP3    H141416   2.315   2.330   1.817 -0.3364 -0.1222 -0.6431
 6619TIP3    H241417   2.382   2.463   1.845 -0.4458 -0.3407  0.7253
 6620TIP3   OH241418   1.339   1.227   1.402  0.2597  0.4616 -0.4524
 6620TIP3    H141419   1.247   1.253   1.408  1.1177  3.8743  0.0867
 6620TIP3    H241420   1.349   1.193   1.313 -1.3692  0.6522 -0.7373
 6621TIP3   OH241421   2.998   3.066   1.385  0.6639 -0.3961  0.2243
 6621TIP3    H141422   2.996   3.104   1.473  0.5157  0.8955 -0.3076
 6621TIP3    H241423   2.933   3.116   1.336  1.1648 -0.6962 -0.7732
 6622TIP3   OH241424   6.119   1.345   2.838 -0.6632  0.6068 -0.2101
 6622TIP3    H141425   6.032   1.335   2.876 -0.1800  0.1192  0.7899
 6622TIP3    H241426   6.102   1.381   2.750 -1.9733 -1.0812 -0.7068
 6623TIP3   OH241427   4.420   3.725   1.912 -0.4354 -0.6182  0.4311
 6623TIP3    H141428   4.407   3.800   1.971  1.8032  0.4303 -0.2913
 6623TIP3    H241429   4.462   3.658   1.967  2.4963  0.6869 -0.0299
 6624TIP3   OH241430   0.624   0.717   8.549  0.7409 -0.0369 -0.4603
 6624TIP3    H141431   0.683   0.764   8.607  0.2646  1.0452 -0.8205
 6624TIP3    H241432   0.566   0.668   8.607  0.6946  0.5137 -0.0369
 6625TIP3   OH241433   6.104   1.394   0.769  0.2108 -0.2645 -0.3607
 6625TIP3    H141434   6.076   1.383   0.860  2.4941  0.1695  0.4850
 6625TIP3    H241435   6.089   1.487   0.751 -1.7678 -0.6703 -1.0526
 6626TIP3   OH241436   0.233   2.500   0.221  0.0563  0.0653  0.2607
 6626TIP3    H141437   0.304   2.448   0.261  0.1581  0.4670  0.6129
 6626TIP3    H241438   0.153   2.459   0.254  0.1208 -0.3739 -0.1160
 6627TIP3   OH241439   2.625   6.000   7.172  0.1396 -0.0895 -0.1812
 6627TIP3    H141440   2.718   6.018   7.156  0.2395 -1.0248 -0.7327
 6627TIP3    H241441   2.606   5.923   7.118 -0.3146 -1.4788  1.8463
 6628TIP3   OH241442   2.373   6.798   1.269  0.0847 -0.2009  0.0550
 6628TIP3    H141443   2.446   6.859   1.262 -0.4230  0.3614 -0.4719
 6628TIP3    H241444   2.374   6.751   1.185 -0.0642 -0.2957  0.1074
 6629TIP3   OH241445   1.333   6.452   3.017  0.1794  0.2654 -0.7509
 6629TIP3    H141446   1.393   6.477   3.088 -0.7189  0.4321 -0.0417
 6629TIP3    H241447   1.358   6.362   2.996  0.7863  0.3844 -0.5715
 6630TIP3   OH241448   6.537   0.406   0.975  0.2025 -0.4315  0.1556
 6630TIP3    H141449   6.610   0.458   1.008 -0.0952 -1.1730  2.1144
 6630TIP3    H241450   6.567   0.372   0.890  1.0423  1.4824 -0.3567
 6631TIP3   OH241451   2.795   5.857   8.290  0.9422  1.0834 -0.1090
 6631TIP3    H141452   2.874   5.840   8.239  0.3675 -0.0982 -0.6380
 6631TIP3    H241453   2.816   5.825   8.378  1.0540  0.7782 -0.2454
 6632TIP3   OH241454   4.970   1.887   1.910  0.5072  0.4217  0.2964
 6632TIP3    H141455   4.893   1.930   1.872 -0.2123 -0.6672  0.4887
 6632TIP3    H241456   5.010   1.840   1.837 -0.3564 -0.9250  0.6689
 6633TIP3   OH241457   4.640   3.182   8.680 -0.0787  0.5767 -0.5785
 6633TIP3    H141458   4.580   3.144   8.616 -2.1877 -0.6865  1.9241
 6633TIP3    H241459   4.593   3.258   8.715 -0.0404 -0.0791  1.0070
 6634TIP3   OH241460   2.111   2.506   1.625 -0.6361 -0.3142 -0.0128
 6634TIP3    H141461   2.138   2.587   1.668 -0.7260 -0.2288 -0.1156
 6634TIP3    H241462   2.174   2.440   1.655 -0.3957 -0.1470 -0.1441
 6635TIP3   OH241463   2.912   2.814   0.602  0.1710 -0.7572 -0.0284
 6635TIP3    H141464   2.986   2.755   0.588 -0.5978 -1.8388  0.2941
 6635TIP3    H241465   2.878   2.789   0.688  1.1200  1.6356  1.1238
 6636TIP3   OH241466   4.839   0.908   8.599 -0.2707  0.3058 -0.2656
 6636TIP3    H141467   4.916   0.852   8.591  0.8513  1.8079 -0.5151
 6636TIP3    H241468   4.781   0.861   8.659  0.6176 -1.0915 -0.4598
 6637TIP3   OH241469   3.539   2.504   2.693 -0.0901 -0.0484  0.3916
 6637TIP3    H141470   3.497   2.512   2.607 -0.3763 -2.0579  0.2943
 6637TIP3    H241471   3.509   2.580   2.742 -1.8481 -0.1182 -0.5132
 6638TIP3   OH241472   1.979   2.709   1.855  1.0012  0.1542  0.4040
 6638TIP3    H141473   1.971   2.790   1.905  0.3165 -0.4252  1.2530
 6638TIP3    H241474   2.016   2.736   1.771  1.8152  1.1928  1.0783
 6639TIP3   OH241475   1.598   0.308   2.396  0.5291 -0.2561 -0.4316
 6639TIP3    H141476   1.573   0.280   2.308  0.4876 -1.8479  0.0666
 6639TIP3    H241477   1.576   0.234   2.453 -1.7558  1.5868  1.3308
 6640TIP3   OH241478   5.440   1.770   8.207 -0.0747  0.1847  0.4499
 6640TIP3    H141479   5.357   1.815   8.190  0.6874  1.4411  0.0043
 6640TIP3    H241480   5.494   1.788   8.130  0.5720 -0.7622  0.6628
 6641TIP3   OH241481   4.644   1.722   7.628  0.1852  0.0104  0.0790
 6641TIP3    H141482   4.565   1.689   7.585  0.2650 -0.7216  0.4817
 6641TIP3    H241483   4.682   1.783   7.565 -1.2122  1.1163  0.2654
 6642TIP3   OH241484   3.128   1.411   2.407 -0.3307  0.1627  0.1938
 6642TIP3    H141485   3.222   1.403   2.392 -0.2588  0.3862  0.5209
 6642TIP3    H241486   3.095   1.321   2.409 -0.3606  0.1033 -1.3918
 6643TIP3   OH241487   0.155   4.236   2.635 -0.1270  0.1578 -0.0574
 6643TIP3    H141488   0.135   4.277   2.720 -1.9199  0.4485 -0.5829
 6643TIP3    H241489   0.242   4.270   2.613 -0.4058  1.5413  0.8122
 6644TIP3   OH241490   4.498   6.225   0.371 -0.1110 -0.5396  0.2331
 6644TIP3    H141491   4.485   6.309   0.327 -2.2886 -0.5214  0.8012
 6644TIP3    H241492   4.460   6.161   0.310  0.1459 -0.9294  0.4826
 6645TIP3   OH241493   1.067   2.533   2.385 -0.0091  0.2868 -0.9250
 6645TIP3    H141494   1.118   2.536   2.465 -0.5218  0.3514 -0.5985
 6645TIP3    H241495   1.109   2.464   2.333  2.1854  2.2121 -1.9014
 6646TIP3   OH241496   0.329   1.381   8.303  0.2060 -0.4417  0.2871
 6646TIP3    H141497   0.294   1.461   8.265  0.4114  0.1657  1.3225
 6646TIP3    H241498   0.252   1.330   8.328  0.0502  0.0538  0.8578
 6647TIP3   OH241499   5.864   4.203   7.976  0.4266 -0.1360 -0.4211
 6647TIP3    H141500   5.898   4.118   7.947 -0.5722 -0.6649 -0.0968
 6647TIP3    H241501   5.849   4.191   8.070  0.7562  0.5719 -0.2745
 6648TIP3   OH241502   0.320   4.358   0.300  0.1857 -0.2564 -0.5306
 6648TIP3    H141503   0.360   4.443   0.318 -1.7773  0.2471  2.0659
 6648TIP3    H241504   0.394   4.298   0.291  1.5905  1.0432  1.4990
 6649TIP3   OH241505   2.007   5.589   7.051  0.0468  0.1811  0.6115
 6649TIP3    H141506   1.929   5.581   7.105 -1.6744 -1.1933 -1.8792
 6649TIP3    H241507   1.978   5.565   6.963  3.2420 -0.1784 -0.4754
 6650TIP3   OH241508   1.320   1.748   1.280 -0.0369  0.3825 -0.0247
 6650TIP3    H141509   1.409   1.776   1.262  0.3343 -1.1180 -0.6773
 6650TIP3    H241510   1.325   1.653   1.284 -1.1781  0.3404  2.2982
 6651TIP3   OH241511   1.155   5.707   1.332  0.8878  0.4630 -0.3434
 6651TIP3    H141512   1.081   5.716   1.393  0.8229 -0.0193 -0.3491
 6651TIP3    H241513   1.203   5.630   1.363 -0.0261 -0.7494 -1.7989
 6652TIP3   OH241514   4.920   5.539   7.609 -0.0904  0.6262  0.3000
 6652TIP3    H141515   4.947   5.605   7.672  2.9440 -0.6418  0.4635
 6652TIP3    H241516   4.932   5.456   7.654 -1.2524 -0.1805 -0.8095
 6653TIP3   OH241517   6.412   3.629   8.106  0.1969  0.3483 -0.1903
 6653TIP3    H141518   6.487   3.571   8.091 -1.2699 -1.3543 -1.5544
 6653TIP3    H241519   6.427   3.703   8.048 -1.2033 -2.1077 -4.1508
 6654TIP3   OH241520   1.999   6.682   2.368  0.1402  0.0927 -0.4746
 6654TIP3    H141521   1.913   6.655   2.401 -0.0545  0.3684 -0.7449
 6654TIP3    H241522   2.025   6.754   2.425  1.4617 -1.7266  1.3803
 6655TIP3   OH241523   3.408   5.742   0.314  0.2349  0.2305  0.2513
 6655TIP3    H141524   3.468   5.674   0.283  2.4517  1.6478  1.1689
 6655TIP3    H241525   3.341   5.695   0.363  1.3187 -1.3461  0.2858
 6656TIP3   OH241526   4.232   4.199   1.541  0.0328  0.0346 -0.0637
 6656TIP3    H141527   4.179   4.221   1.464  0.9856 -0.1258 -0.7789
 6656TIP3    H241528   4.285   4.277   1.555  1.7919 -0.8961 -1.2248
 6657TIP3   OH241529   2.141   1.755   0.393 -0.2584 -0.2069 -0.4796
 6657TIP3    H141530   2.194   1.787   0.465 -0.1637 -0.3557 -0.4833
 6657TIP3    H241531   2.204   1.716   0.332 -0.5304 -2.2450  0.4560
 6658TIP3   OH241532   6.407   4.230   0.242 -0.6494 -0.3326 -0.4394
 6658TIP3    H141533   6.470   4.249   0.172  0.0181 -0.3941  0.1246
 6658TIP3    H241534   6.385   4.316   0.279 -0.9449 -0.3061 -0.6727
 6659TIP3   OH241535   0.894   5.340   1.560  0.1112 -0.1779 -0.0566
 6659TIP3    H141536   0.912   5.307   1.472  0.9209  0.2363 -0.0546
 6659TIP3    H241537   0.816   5.291   1.588 -2.5743  2.3459 -2.4484
 6660TIP3   OH241538   1.547   4.947   0.337 -0.3751  0.3298  0.7486
 6660TIP3    H141539   1.564   4.853   0.326  0.5199  0.3449  1.8174
 6660TIP3    H241540   1.610   4.975   0.403 -0.9276  1.6025  0.7641
 6661TIP3   OH241541   5.605   2.450   0.621  0.3066  0.1376  0.5745
 6661TIP3    H141542   5.554   2.494   0.553  1.1558 -0.1236 -0.2626
 6661TIP3    H241543   5.641   2.521   0.674  0.0804  0.3647  0.4283
 6662TIP3   OH241544   2.888   4.904   1.752  0.4229 -0.2228 -0.1042
 6662TIP3    H141545   2.814   4.852   1.721  0.2044  0.3550 -0.5819
 6662TIP3    H241546   2.922   4.856   1.827  0.6857 -1.4458 -0.9649
 6663TIP3   OH241547   5.647   0.196   1.622 -0.1992  0.2454 -0.2370
 6663TIP3    H141548   5.603   0.130   1.568 -0.4387  0.2908 -0.0969
 6663TIP3    H241549   5.673   0.264   1.560 -0.2161  0.1591 -0.3383
 6664TIP3   OH241550   2.419   3.444   0.299  0.0205 -0.1491 -0.4137
 6664TIP3    H141551   2.485   3.501   0.338 -0.0145 -0.0122 -0.5504
 6664TIP3    H241552   2.390   3.387   0.370  1.2421 -1.1152 -0.6689
 6665TIP3   OH241553   6.375   0.497   7.587 -0.7368  0.8639 -0.0417
 6665TIP3    H141554   6.353   0.555   7.515  0.3288  0.0980 -1.0315
 6665TIP3    H241555   6.381   0.410   7.547  0.6201  0.5324  0.8010
 6666TIP3   OH241556   5.630   3.950   7.722 -0.4572  0.4278 -0.7049
 6666TIP3    H141557   5.723   3.938   7.703  0.4248 -0.1992  3.0616
 6666TIP3    H241558   5.612   3.888   7.792 -2.9314  2.5426  0.7326
 6667TIP3   OH241559   2.822   6.431   2.158  0.2659 -0.3804 -0.8803
 6667TIP3    H141560   2.753   6.376   2.194  1.4703 -1.6824 -0.4428
 6667TIP3    H241561   2.822   6.411   2.064  0.2924 -0.6852 -0.8176
 6668TIP3   OH241562   4.646   1.722   0.323  0.8037  0.2953 -0.5056
 6668TIP3    H141563   4.625   1.689   0.411 -0.2041  1.3481 -0.3259
 6668TIP3    H241564   4.725   1.775   0.336  1.2545 -0.3824 -0.4323
 6669TIP3   OH241565   4.704   2.005   1.851 -0.1677  0.0655  0.4278
 6669TIP3    H141566   4.618   2.005   1.810 -0.2253 -0.6428  0.5419
 6669TIP3    H241567   4.686   1.992   1.944  0.1356 -1.6668  0.2671
 6670TIP3   OH241568   1.222   0.466   0.966  0.0570 -0.3169 -0.6668
 6670TIP3    H141569   1.237   0.383   1.011 -1.3635 -0.6375 -0.7383
 6670TIP3    H241570   1.150   0.448   0.905  0.2677  0.7603 -1.2675
 6671TIP3   OH241571   3.892   2.888   0.607  0.0387  0.2784  0.4108
 6671TIP3    H141572   3.956   2.909   0.539 -0.5054 -0.2236 -0.2673
 6671TIP3    H241573   3.856   2.972   0.634 -0.6166  0.3910 -0.7859
 6672TIP3   OH241574   1.883   5.552   6.783 -0.5388  0.6319 -0.1618
 6672TIP3    H141575   1.812   5.594   6.832 -0.5344  1.7844 -1.1045
 6672TIP3    H241576   1.884   5.596   6.698  1.4019  0.7671 -0.1244
 6673TIP3   OH241577   2.162   4.298   1.157  0.0693  0.5096  0.0767
 6673TIP3    H141578   2.119   4.236   1.098  2.6810 -0.4712 -0.9514
 6673TIP3    H241579   2.248   4.314   1.117  1.6351  0.5390  3.1206
 6674TIP3   OH241580   4.263   0.116   2.055 -0.1722 -0.0659  0.3122
 6674TIP3    H141581   4.251   0.051   1.986  0.9950 -1.0088  0.9515
 6674TIP3    H241582   4.175   0.148   2.075 -0.5504  0.0303 -1.4113
 6675TIP3   OH241583   2.702   0.212   0.267  0.4415  0.0902  0.2036
 6675TIP3    H141584   2.769   0.167   0.216  0.8583  0.2912  0.5705
 6675TIP3    H241585   2.748   0.283   0.310  0.2881 -0.6427  1.6274
 6676TIP3   OH241586   2.762   5.060   2.268  0.2463  0.0662 -0.0253
 6676TIP3    H141587   2.669   5.051   2.291  0.4743 -0.0714  0.8534
 6676TIP3    H241588   2.772   5.004   2.191 -0.2858 -0.3442  0.1929
 6677TIP3   OH241589   4.431   3.834   1.641  0.3792 -0.2232 -0.0558
 6677TIP3    H141590   4.522   3.857   1.659  0.5370 -0.2898 -0.7341
 6677TIP3    H241591   4.395   3.808   1.726  0.0915  2.8238  0.8817
 6678TIP3   OH241592   0.122   3.989   1.894  0.2227  0.0222  0.1144
 6678TIP3    H141593   0.057   4.054   1.922 -0.5161 -0.9261  0.7038
 6678TIP3    H241594   0.075   3.935   1.830  1.0331  0.4520 -0.8640
 6679TIP3   OH241595   4.733   4.293   8.543  0.1646  0.0769 -0.0106
 6679TIP3    H141596   4.790   4.368   8.561  0.5682 -0.0040 -0.8739
 6679TIP3    H241597   4.650   4.314   8.587  1.3139 -0.5212  2.6180
 6680TIP3   OH241598   1.249   5.946   2.282  0.1527  0.1823 -0.2012
 6680TIP3    H141599   1.327   5.903   2.248  0.9834 -1.3539  3.2259
 6680TIP3    H241600   1.215   5.885   2.347 -1.4740  2.6473  1.4179
 6681TIP3   OH241601   6.392   3.265   7.728  0.6952  0.1430  0.0676
 6681TIP3    H141602   6.486   3.275   7.715  0.1853  2.8183 -2.7593
 6681TIP3    H241603   6.369   3.189   7.675  1.1106  0.3216 -0.3851
 6682TIP3   OH241604   4.994   3.888   6.880  0.1114  0.5869  0.0328
 6682TIP3    H141605   5.049   3.963   6.903  0.0761  0.7631 -0.4335
 6682TIP3    H241606   4.934   3.923   6.814 -0.0476  0.2012 -0.0279
 6683TIP3   OH241607   3.174   0.982   0.084  0.4823  0.4318 -0.3437
 6683TIP3    H141608   3.171   0.922   0.010  0.3868 -1.8346  1.3850
 6683TIP3    H241609   3.211   1.063   0.048 -2.8111  0.7313 -3.6414
 6684TIP3   OH241610   5.120   6.327   2.517 -0.0437 -0.3481  0.0395
 6684TIP3    H141611   5.199   6.288   2.480  0.2715 -0.2076  0.5613
 6684TIP3    H241612   5.141   6.343   2.609 -0.0306  1.3888 -0.2296
 6685TIP3   OH241613   5.026   1.241   8.151  0.2837 -0.4961  0.2794
 6685TIP3    H141614   4.980   1.214   8.230 -0.2945 -0.0315  0.1098
 6685TIP3    H241615   4.993   1.184   8.082  0.4619 -0.6068  0.2830
 6686TIP3   OH241616   2.219   3.125   8.604 -0.5261 -0.7059  0.2675
 6686TIP3    H141617   2.151   3.180   8.643 -1.4901 -2.7047  1.5628
 6686TIP3    H241618   2.301   3.164   8.634 -1.1202  0.6257  0.2641
 6687TIP3   OH241619   6.737   5.250   0.054  0.1473 -0.3503 -0.0538
 6687TIP3    H141620   6.825   5.220   0.075  0.6334  0.8594 -0.2315
 6687TIP3    H241621   6.700   5.278   0.138 -0.0159 -0.7310  0.0011
 6688TIP3   OH241622   2.525   1.555   1.956 -0.0448  0.1528  0.1224
 6688TIP3    H141623   2.549   1.565   1.864  0.9289 -0.6936  0.2718
 6688TIP3    H241624   2.465   1.628   1.973 -0.0770  0.4384 -1.1199
 6689TIP3   OH241625   4.134   3.745   1.139  0.3516 -0.1160  0.2263
 6689TIP3    H141626   4.209   3.686   1.135 -0.5763 -1.5189  1.8399
 6689TIP3    H241627   4.141   3.799   1.060  2.2347 -1.1686 -0.3939
 6690TIP3   OH241628   0.933   3.943   1.151 -0.3793 -0.2456 -0.6507
 6690TIP3    H141629   0.842   3.946   1.180 -0.1785 -0.5750  0.0298
 6690TIP3    H241630   0.980   3.998   1.214 -0.4797  2.0797 -2.4875
 6691TIP3   OH241631   5.866   4.921   2.232 -0.3993  0.4247 -0.5117
 6691TIP3    H141632   5.889   4.899   2.322 -2.0311 -0.1451 -0.1933
 6691TIP3    H241633   5.918   4.862   2.178  1.2778  1.3841 -0.0214
 6692TIP3   OH241634   5.797   4.697   0.723  0.0928  0.1483  1.0727
 6692TIP3    H141635   5.882   4.715   0.682 -1.1498  0.9373 -1.4181
 6692TIP3    H241636   5.784   4.603   0.713 -0.0198  0.2735 -0.0947
 6693TIP3   OH241637   6.218   4.573   0.457 -0.6669 -0.0874  0.3097
 6693TIP3    H141638   6.176   4.489   0.477  0.9182 -0.7984  0.7738
 6693TIP3    H241639   6.281   4.553   0.389 -2.3366  1.3434 -1.8040
 6694TIP3   OH241640   2.453   5.943   3.035 -0.6560 -0.5284  0.2901
 6694TIP3    H141641   2.481   5.986   3.115 -0.4016  1.5476 -0.8327
 6694TIP3    H241642   2.359   5.961   3.030 -0.7763 -1.1135  0.3772
 6695TIP3   OH241643   3.796   5.409   7.787 -0.1310 -0.4764 -0.0738
 6695TIP3    H141644   3.821   5.337   7.729 -0.2253 -0.8922  0.4024
 6695TIP3    H241645   3.805   5.487   7.732  1.4067 -0.6902 -0.1658
 6696TIP3   OH241646   5.983   6.814   0.631 -0.7692 -0.6313 -0.3896
 6696TIP3    H141647   5.984   6.721   0.651  1.3723 -0.4177  0.7042
 6696TIP3    H241648   6.005   6.819   0.538 -0.7613 -1.1954 -0.4221
 6697TIP3   OH241649   5.916   4.720   1.999 -0.1335 -0.1891  0.5570
 6697TIP3    H141650   5.973   4.650   2.031  0.7613 -0.9682 -2.4360
 6697TIP3    H241651   5.834   4.676   1.978 -0.6790  0.2946  1.5934
 6698TIP3   OH241652   5.539   5.869   0.167 -0.4300 -0.1481  0.1787
 6698TIP3    H141653   5.630   5.850   0.188 -0.2688  0.7861  0.3222
 6698TIP3    H241654   5.517   5.946   0.218 -0.3216  1.5981 -2.2363
 6699TIP3   OH241655   6.154   4.878   2.228 -0.4840 -0.1565 -0.2208
 6699TIP3    H141656   6.153   4.818   2.303 -1.9693 -0.3700 -0.3746
 6699TIP3    H241657   6.132   4.964   2.265  2.4870  0.5629  0.1411
 6700TIP3   OH241658   2.175   2.536   7.169 -0.2524 -0.3138 -0.1701
 6700TIP3    H141659   2.192   2.525   7.075 -0.3464 -2.2106 -0.0011
 6700TIP3    H241660   2.085   2.506   7.181 -0.3226  0.1381  0.5033
 6701TIP3   OH241661   6.555   6.387   2.067 -0.0876 -0.4244  0.3625
 6701TIP3    H141662   6.550   6.391   2.162  1.3796  1.0073  0.4158
 6701TIP3    H241663   6.474   6.427   2.037 -0.9080 -1.5642  0.9720
 6702TIP3   OH241664   1.391   5.646   0.041  0.4528  0.7164  0.4600
 6702TIP3    H141665   1.425   5.645   0.130 -3.1801 -0.9524  2.0282
 6702TIP3    H241666   1.332   5.722   0.039 -0.8634 -0.2908  0.1110
 6703TIP3   OH241667   2.673   2.407   2.070  0.2876 -0.8158 -0.7171
 6703TIP3    H141668   2.748   2.364   2.028  0.7942  1.2853 -2.0672
 6703TIP3    H241669   2.710   2.448   2.148  0.4066 -0.3416 -1.0229
 6704TIP3   OH241670   2.793   3.940   0.999  0.3322 -0.5500 -0.0117
 6704TIP3    H141671   2.846   3.942   0.919 -1.7303 -0.7500 -1.4589
 6704TIP3    H241672   2.804   3.851   1.033 -1.1447 -1.5136 -1.8473
 6705TIP3   OH241673   5.743   1.621   7.300  0.1748  0.2269  1.0360
 6705TIP3    H141674   5.695   1.595   7.222  1.2899 -1.1973  0.7904
 6705TIP3    H241675   5.775   1.709   7.280 -0.4082  0.2819  0.3139
 6706TIP3   OH241676   3.026   0.280   2.447  0.2924 -0.4577 -0.3316
 6706TIP3    H141677   3.091   0.300   2.515 -0.2687  1.0712 -0.1963
 6706TIP3    H241678   3.067   0.307   2.365  0.7367 -1.7401 -0.5461
 6707TIP3   OH241679   1.590   4.426   7.474 -0.5724  0.1650 -0.6554
 6707TIP3    H141680   1.557   4.429   7.563  0.6925 -0.0445 -0.1587
 6707TIP3    H241681   1.571   4.336   7.444 -1.9249  0.5421 -0.9897
 6708TIP3   OH241682   2.640   1.975   7.611  0.6100  0.3919 -0.1438
 6708TIP3    H141683   2.650   1.982   7.516 -0.8869 -1.0332 -0.4514
 6708TIP3    H241684   2.545   1.972   7.626  0.7647  1.9053  1.5372
 6709TIP3   OH241685   1.225   5.575   0.686  0.1534 -0.0770  0.1066
 6709TIP3    H141686   1.177   5.593   0.767  1.1566 -1.6800  1.1074
 6709TIP3    H241687   1.283   5.650   0.675 -1.2233  1.0019 -0.1305
 6710TIP3   OH241688   2.144   0.832   2.618 -0.2328  0.3588 -0.1129
 6710TIP3    H141689   2.070   0.830   2.557  0.2140  1.5166 -0.7402
 6710TIP3    H241690   2.221   0.818   2.563 -0.0033 -1.4945  0.6292
 6711TIP3   OH241691   5.830   0.322   8.252  0.7057 -0.3572 -0.3283
 6711TIP3    H141692   5.849   0.368   8.334 -0.9265 -0.2801  0.0384
 6711TIP3    H241693   5.861   0.381   8.184  0.1824  0.5367  0.1883
 6712TIP3   OH241694   0.541   2.807   0.640 -0.0870 -0.1245  0.6866
 6712TIP3    H141695   0.556   2.817   0.734 -0.2878 -2.7793  1.0761
 6712TIP3    H241696   0.467   2.866   0.622 -0.1322  0.3436  2.2163
 6713TIP3   OH241697   3.799   6.550   2.143 -0.0201 -0.1408 -0.0635
 6713TIP3    H141698   3.761   6.567   2.229  1.2455  1.4044  0.2371
 6713TIP3    H241699   3.730   6.504   2.095 -1.8339  1.5108  0.8151
 6714TIP3   OH241700   1.214   0.164   0.456  0.2299 -0.4564  0.0914
 6714TIP3    H141701   1.123   0.171   0.426  0.3859 -0.6393 -0.4443
 6714TIP3    H241702   1.218   0.079   0.500 -0.2532  0.2545  1.5536
 6715TIP3   OH241703   2.954   4.264   0.819 -0.3587  0.6281  0.1768
 6715TIP3    H141704   2.921   4.273   0.908 -0.0109  0.7092  0.3020
 6715TIP3    H241705   3.043   4.299   0.823 -0.2722  0.4535 -0.1586
 6716TIP3   OH241706   4.998   3.302   0.927 -0.8993  0.2112  0.9766
 6716TIP3    H141707   4.964   3.231   0.874 -1.1566  1.2260 -0.2662
 6716TIP3    H241708   4.922   3.354   0.951 -0.6257  0.5397  1.1548
 6717TIP3   OH241709   1.372   4.505   8.662 -0.3128 -0.3040 -0.4440
 6717TIP3    H141710   1.291   4.458   8.643  0.2932 -1.1515 -0.9730
 6717TIP3    H241711   1.401   4.471   8.747  0.4303 -1.3275 -1.0959
 6718TIP3   OH241712   5.625   4.711   1.055  0.6180 -0.4901  0.3512
 6718TIP3    H141713   5.707   4.663   1.043 -0.3336 -2.4221  1.1776
 6718TIP3    H241714   5.645   4.775   1.123  1.4678 -0.8571  0.4606
 6719TIP3   OH241715   3.108   4.986   0.466 -0.2108 -0.5201  0.2847
 6719TIP3    H141716   3.147   4.905   0.434  1.2186  0.1199  0.3484
 6719TIP3    H241717   3.136   4.992   0.558 -1.1909 -0.4709  0.5965
 6720TIP3   OH241718   3.210   4.781   7.738  0.5337  0.1696 -0.0743
 6720TIP3    H141719   3.171   4.694   7.725  1.5352 -0.5522  1.4108
 6720TIP3    H241720   3.155   4.840   7.687 -0.2949 -1.3094 -0.9673
 6721TIP3   OH241721   3.282   5.566   1.400 -0.6381 -0.5447 -0.6722
 6721TIP3    H141722   3.306   5.606   1.316 -1.2999 -2.8131 -2.0137
 6721TIP3    H241723   3.188   5.552   1.393 -0.7741 -0.3850  0.6462
 6722TIP3   OH241724   1.412   4.000   7.923  0.6200  0.3314  0.8770
 6722TIP3    H141725   1.326   4.042   7.934  0.0320  0.0885 -2.0102
 6722TIP3    H241726   1.463   4.031   7.997 -1.7837  0.9125  2.4074
 6723TIP3   OH241727   2.714   6.007   0.418 -0.0960 -0.3322  0.0260
 6723TIP3    H141728   2.717   5.990   0.512 -0.2611  0.2703  0.1423
 6723TIP3    H241729   2.771   5.940   0.380 -0.0065 -0.5627  0.5545
 6724TIP3   OH241730   1.791   4.125   0.767 -0.8110  0.7575  0.4351
 6724TIP3    H141731   1.743   4.198   0.728 -1.2057  1.7486  2.6428
 6724TIP3    H241732   1.727   4.079   0.820 -0.1892 -0.2582  0.3348
 6725TIP3   OH241733   0.263   3.303   2.278 -0.2561  0.7581  0.5093
 6725TIP3    H141734   0.215   3.324   2.358 -1.8373  0.2043 -0.2514
 6725TIP3    H241735   0.227   3.362   2.212 -0.6838 -0.3859 -0.3219
 6726TIP3   OH241736   3.751   2.099   8.676 -0.0133 -0.2795 -0.3281
 6726TIP3    H141737   3.815   2.066   8.738 -0.4146 -1.6489 -0.6034
 6726TIP3    H241738   3.785   2.185   8.649 -0.4213  0.9311  2.6345
 6727TIP3   OH241739   4.176   0.974   0.605 -0.1265  0.8191 -0.0669
 6727TIP3    H141740   4.137   0.939   0.525  2.7244  1.1303 -1.7419
 6727TIP3    H241741   4.196   0.897   0.658  1.1273  0.2622 -1.2779
 6728TIP3   OH241742   1.752   6.257   0.486  0.6743  0.0032  0.0529
 6728TIP3    H141743   1.692   6.286   0.555  0.8958  1.1856 -0.2407
 6728TIP3    H241744   1.695   6.215   0.422  0.2930  0.1411  0.2950
 6729TIP3   OH241745   1.146   1.341   7.760 -0.3080 -0.0949 -0.1730
 6729TIP3    H141746   1.175   1.281   7.692  1.4086  1.2819 -0.7298
 6729TIP3    H241747   1.111   1.416   7.713 -0.4705  0.2383  0.4681
 6730TIP3   OH241748   5.341   6.616   2.806  0.1268 -0.1871  0.1216
 6730TIP3    H141749   5.362   6.594   2.896  0.3667 -1.5125 -0.2292
 6730TIP3    H241750   5.341   6.712   2.803  1.8599 -0.1097  1.1300
 6731TIP3   OH241751   1.495   3.337   0.990 -0.2263  0.0472 -0.0130
 6731TIP3    H141752   1.495   3.251   0.947  0.5170  0.4939 -0.9376
 6731TIP3    H241753   1.436   3.390   0.937  0.1391  0.4070 -0.0574
 6732TIP3   OH241754   4.351   2.157   3.216  0.1760 -0.4790  0.3838
 6732TIP3    H141755   4.285   2.217   3.252  0.0169 -1.4957  1.9112
 6732TIP3    H241756   4.421   2.214   3.186 -1.1508  0.6019 -0.8204
 6733TIP3   OH241757   5.087   6.451   1.088  0.0176  0.4300  0.2407
 6733TIP3    H141758   5.054   6.395   1.159  0.4077  1.4822  1.2793
 6733TIP3    H241759   5.125   6.389   1.026  2.1055 -0.4452  2.2143
 6734TIP3   OH241760   5.078   0.466   0.303 -0.2434 -0.0439  0.3923
 6734TIP3    H141761   4.984   0.468   0.320 -0.3104  0.9636 -0.0225
 6734TIP3    H241762   5.115   0.526   0.367  0.1749 -0.7551  0.8299
 6735TIP3   OH241763   1.146   0.796   1.508 -0.1162 -0.4855 -0.3832
 6735TIP3    H141764   1.103   0.740   1.573 -1.2561  1.3870  0.6079
 6735TIP3    H241765   1.212   0.844   1.559  1.7747 -1.7917 -1.4737
 6736TIP3   OH241766   2.724   5.539   7.992  0.0290  0.0243 -0.2471
 6736TIP3    H141767   2.761   5.530   8.080 -0.1819  1.3254 -0.0086
 6736TIP3    H241768   2.638   5.579   8.007  0.8204  2.2097 -1.1552
 6737TIP3   OH241769   3.238   1.622   2.214 -0.0476 -0.2871  0.0183
 6737TIP3    H141770   3.177   1.612   2.141  1.3599 -0.7411 -1.1365
 6737TIP3    H241771   3.181   1.630   2.291 -1.5829  0.5354 -1.1384
 6738TIP3   OH241772   5.464   4.176   0.325 -0.1462 -0.2145 -0.6464
 6738TIP3    H141773   5.481   4.090   0.286 -2.1412 -0.1503 -1.8008
 6738TIP3    H241774   5.431   4.229   0.252  0.8588  1.4941  0.0876
 6739TIP3   OH241775   0.976   2.654   8.150  0.0608 -0.6848  0.1441
 6739TIP3    H141776   0.963   2.573   8.102 -0.0489 -0.5854  0.0065
 6739TIP3    H241777   1.046   2.699   8.103 -0.2864 -0.4260 -0.1345
 6740TIP3   OH241778   3.857   2.938   1.111 -0.0367 -0.0874 -0.0521
 6740TIP3    H141779   3.951   2.957   1.114  0.2097 -1.3110  0.4582
 6740TIP3    H241780   3.827   2.951   1.201 -0.0001 -1.3069  0.1600
 6741TIP3   OH241781   6.824   0.333   2.053 -0.3825 -0.9323 -0.1762
 6741TIP3    H141782   6.813   0.428   2.057  0.1420 -0.8723 -0.0623
 6741TIP3    H241783   6.776   0.300   2.128 -1.3095 -0.8331 -0.7038
 6742TIP3   OH241784   5.644   4.568   1.348  0.1500 -0.2655 -0.2803
 6742TIP3    H141785   5.738   4.550   1.344  0.2231  0.0223  0.1398
 6742TIP3    H241786   5.634   4.652   1.304  0.0684 -0.3618 -0.4473
 6743TIP3   OH241787   0.419   0.345   0.308  0.8752  0.0778  0.8472
 6743TIP3    H141788   0.403   0.291   0.230  0.0947 -0.4685  1.3625
 6743TIP3    H241789   0.482   0.294   0.359  1.5353  0.5276  0.4885
 6744TIP3   OH241790   1.350   1.642   2.620 -0.1562 -0.1640 -0.2996
 6744TIP3    H141791   1.295   1.686   2.556 -1.3504 -0.1642  0.6818
 6744TIP3    H241792   1.327   1.549   2.613  1.9858 -0.6527 -2.0067
 6745TIP3   OH241793   3.030   5.310   2.104  0.2188  0.7277 -0.1807
 6745TIP3    H141794   3.116   5.346   2.082  0.3940  0.0767 -0.5803
 6745TIP3    H241795   3.032   5.221   2.070  0.1937 -0.0594  1.7795
 6746TIP3   OH241796   2.612   2.413   7.642 -0.1338 -0.6504 -0.7453
 6746TIP3    H141797   2.611   2.373   7.730 -0.8720  0.6537 -0.1258
 6746TIP3    H241798   2.691   2.379   7.601  1.6531  0.6930  1.3757
 6747TIP3   OH241799   6.018   6.529   0.555  0.0247  0.7992  0.1753
 6747TIP3    H141800   5.998   6.512   0.463 -1.2693  0.2579  0.5341
 6747TIP3    H241801   6.109   6.501   0.565 -0.1443 -0.1382 -0.7001
 6748TIP3   OH241802   1.211   3.294   2.581 -0.1662  0.0120  0.2868
 6748TIP3    H141803   1.185   3.257   2.497 -2.4854  1.0544  0.4753
 6748TIP3    H241804   1.292   3.248   2.603 -1.4892 -3.0557 -0.7234
 6749TIP3   OH241805   4.026   1.110   7.728 -0.0047 -0.4511 -0.4833
 6749TIP3    H141806   3.998   1.180   7.669  0.4093 -0.1044 -0.2775
 6749TIP3    H241807   3.967   1.117   7.803 -0.2393 -0.6000 -0.6531
 6750TIP3   OH241808   0.227   1.681   8.613  0.3518 -0.1190 -0.1684
 6750TIP3    H141809   0.175   1.661   8.535 -1.6831 -1.1858  1.3671
 6750TIP3    H241810   0.209   1.609   8.673 -0.5895  2.1027  2.4449
 6751TIP3   OH241811   2.909   1.741   1.570 -0.2482  0.5193  0.3120
 6751TIP3    H141812   2.974   1.751   1.500  1.7499  0.0568  1.9952
 6751TIP3    H241813   2.928   1.655   1.608  0.8423  1.9504  3.3260
 6752TIP3   OH241814   4.817   1.568   0.019 -0.4092  0.2063 -0.3955
 6752TIP3    H141815   4.864   1.651   0.021 -0.0178  0.0006 -0.8996
 6752TIP3    H241816   4.726   1.591   0.041 -0.0589  0.5843  0.7464
 6753TIP3   OH241817   2.828   1.468   3.404 -0.1223 -0.0409 -0.4025
 6753TIP3    H141818   2.862   1.384   3.373  1.1713  0.2297  0.2137
 6753TIP3    H241819   2.906   1.519   3.427 -0.9254  0.9250  0.2938
 6754TIP3   OH241820   1.738   0.614   1.439 -0.6230  0.4615  0.1463
 6754TIP3    H141821   1.805   0.672   1.474 -1.7372  1.3010  0.9834
 6754TIP3    H241822   1.739   0.538   1.498  0.4735 -0.1434 -0.6328
 6755TIP3   OH241823   4.155   5.243   1.746  1.0229 -0.1881 -0.4155
 6755TIP3    H141824   4.216   5.192   1.693  0.7614 -0.5073 -0.4102
 6755TIP3    H241825   4.174   5.217   1.836  0.2917 -0.9408 -0.4688
 6756TIP3   OH241826   0.282   4.076   7.084 -0.3384 -0.3120 -0.3558
 6756TIP3    H141827   0.364   4.118   7.058 -0.0776 -0.4427  0.2339
 6756TIP3    H241828   0.228   4.148   7.118  0.2539 -0.4803  1.0138
 6757TIP3   OH241829   5.546   2.943   0.268  0.5569  0.2262 -0.2200
 6757TIP3    H141830   5.451   2.944   0.260  0.3414  1.1027  1.7094
 6757TIP3    H241831   5.573   3.031   0.242  0.8827 -0.0991 -1.0078
 6758TIP3   OH241832   3.902   1.722   2.554 -0.1669  0.3235  0.0650
 6758TIP3    H141833   3.822   1.719   2.605 -1.3132 -0.0856 -1.6652
 6758TIP3    H241834   3.970   1.748   2.616 -1.5293  0.1351  1.6892
 6759TIP3   OH241835   6.717   1.646   7.224 -0.5859 -0.0143  0.1892
 6759TIP3    H141836   6.667   1.618   7.147 -1.1842 -0.5372  0.7620
 6759TIP3    H241837   6.714   1.742   7.220 -0.7042 -0.0367 -0.3779
 6760TIP3   OH241838   3.370   4.365   8.087  0.1572  0.2873 -0.5010
 6760TIP3    H141839   3.399   4.417   8.013 -0.7944  1.4758 -0.0639
 6760TIP3    H241840   3.276   4.384   8.096 -0.4867 -2.2509 -0.9186
 6761TIP3   OH241841   0.059   1.527   2.225 -0.0878 -0.4955  0.3873
 6761TIP3    H141842   0.027   1.441   2.196  0.1660 -0.8689  1.1881
 6761TIP3    H241843   0.067   1.518   2.320  3.2919 -0.7342  0.1931
 6762TIP3   OH241844   6.072   2.457   7.927  0.2651  0.0026  0.1334
 6762TIP3    H141845   6.092   2.424   8.015  0.0183 -0.0710  0.1624
 6762TIP3    H241846   6.156   2.489   7.894  0.7054 -1.4755 -0.2470
 6763TIP3   OH241847   0.348   2.838   1.319  0.1581 -0.2422 -0.5217
 6763TIP3    H141848   0.340   2.749   1.352 -0.1052 -0.0475 -0.0328
 6763TIP3    H241849   0.259   2.874   1.327  0.5830  0.5895  0.8865
 6764TIP3   OH241850   2.912   0.532   2.188 -0.2704  0.3432 -0.3013
 6764TIP3    H141851   2.879   0.582   2.263  1.9435  1.0515  0.2835
 6764TIP3    H241852   2.836   0.522   2.131 -2.0715 -0.3365  2.0567
 6765TIP3   OH241853   0.850   4.067   1.990 -0.0709 -0.0004  0.5372
 6765TIP3    H141854   0.875   4.099   2.077 -1.3190  0.6795  0.6656
 6765TIP3    H241855   0.862   3.972   1.995  0.5228  0.0965  1.2175
 6766TIP3   OH241856   0.246   1.981   1.476  0.0227  0.3809  0.2162
 6766TIP3    H141857   0.193   2.059   1.460  0.1529  0.8663  1.9529
 6766TIP3    H241858   0.336   2.010   1.470  0.1008 -0.0303 -0.8263
 6767TIP3   OH241859   1.770   1.125   1.679 -0.1231 -0.1788 -0.3381
 6767TIP3    H141860   1.723   1.187   1.622  1.0828 -0.0329 -1.2256
 6767TIP3    H241861   1.860   1.127   1.646 -0.0368 -2.4136 -0.3901
 6768TIP3   OH241862   0.724   4.558   2.012  0.1136  0.8048  0.5193
 6768TIP3    H141863   0.740   4.567   1.918  0.3514 -0.2243  0.4483
 6768TIP3    H241864   0.636   4.520   2.018 -0.0008  1.0981  0.7227
 6769TIP3   OH241865   2.615   1.309   8.743  0.1996 -0.1550  0.0105
 6769TIP3    H141866   2.687   1.247   8.756  1.1288  0.7257 -0.7462
 6769TIP3    H241867   2.624   1.371   8.815 -0.1893 -0.3800  0.2595
 6770TIP3   OH241868   6.135   2.611   8.266 -0.0810 -0.1886  0.2493
 6770TIP3    H141869   6.223   2.648   8.259 -0.3119  0.4264  0.6041
 6770TIP3    H241870   6.147   2.518   8.245  0.3084  0.2914 -1.8508
 6771TIP3   OH241871   5.122   3.655   1.333 -0.1049  0.7663  0.2526
 6771TIP3    H141872   5.074   3.572   1.325  1.2295 -0.0154  0.1154
 6771TIP3    H241873   5.122   3.691   1.244 -2.1941  1.8247  0.6214
 6772TIP3   OH241874   2.367   4.667   1.658 -0.0910  0.2268 -0.9843
 6772TIP3    H141875   2.371   4.612   1.580 -1.7268  0.3129 -1.1597
 6772TIP3    H241876   2.275   4.664   1.685 -0.0008  1.9661 -0.3456
 6773TIP3   OH241877   3.283   3.393   8.691 -0.4593  0.3430  0.3526
 6773TIP3    H141878   3.308   3.354   8.775  0.1121  1.0660  0.5225
 6773TIP3    H241879   3.222   3.329   8.653 -1.3780  0.3694  1.6831
 6774TIP3   OH241880   0.238   4.238   0.731  0.2216  0.7946  0.2551
 6774TIP3    H141881   0.203   4.205   0.814 -1.9651  0.7873 -0.5871
 6774TIP3    H241882   0.257   4.159   0.680 -0.3972  0.7954  0.0141
 6775TIP3   OH241883   6.091   4.662   1.800 -0.3799 -0.6540 -0.1007
 6775TIP3    H141884   6.025   4.684   1.866 -0.5737 -0.4498 -0.3620
 6775TIP3    H241885   6.134   4.584   1.836 -0.1919 -0.2965  0.4710
 6776TIP3   OH241886   3.895   4.417   0.577  0.1400  0.4558  0.4333
 6776TIP3    H141887   3.921   4.326   0.583  0.8746  0.7335  1.8249
 6776TIP3    H241888   3.960   4.465   0.628 -2.2647  1.3566  2.9210
 6777TIP3   OH241889   1.796   4.458   0.777 -0.4847 -0.7687  0.2279
 6777TIP3    H141890   1.727   4.410   0.731 -1.1613  0.1130  0.2755
 6777TIP3    H241891   1.802   4.416   0.863 -0.6934 -1.0932  0.0863
 6778TIP3   OH241892   6.471   5.343   2.071  0.1539  0.4515  0.6032
 6778TIP3    H141893   6.458   5.318   1.979  2.0475  0.5789  0.2767
 6778TIP3    H241894   6.431   5.272   2.121 -1.3278  0.6151 -0.2927
 6779TIP3   OH241895   2.711   5.758   2.558  0.7233  0.3178 -0.6696
 6779TIP3    H141896   2.671   5.671   2.558 -0.4339  0.8220 -0.8762
 6779TIP3    H241897   2.647   5.813   2.604  1.2551  1.1329 -0.8827
 6780TIP3   OH241898   2.334   3.355   1.626 -0.0522 -0.7027  0.0608
 6780TIP3    H141899   2.311   3.290   1.693 -2.0460 -1.5224 -1.3352
 6780TIP3    H241900   2.250   3.389   1.595  0.9017  1.3817 -0.4186
 6781TIP3   OH241901   2.059   2.456   8.517  0.0651 -0.1619 -0.1378
 6781TIP3    H141902   2.096   2.526   8.463  0.9963 -1.0767 -0.7063
 6781TIP3    H241903   2.134   2.409   8.552 -0.5359 -1.2156 -0.1988
 6782TIP3   OH241904   6.362   4.023   2.636 -0.2266 -0.2634 -0.3602
 6782TIP3    H141905   6.414   4.028   2.716 -0.6462 -2.0116  0.0714
 6782TIP3    H241906   6.412   3.964   2.579  0.4957  1.6186 -1.7674
 6783TIP3   OH241907   4.532   6.070   7.322 -0.1244 -0.4018 -0.7500
 6783TIP3    H141908   4.447   6.111   7.305 -0.1245 -0.7837 -1.7241
 6783TIP3    H241909   4.569   6.055   7.235  0.6437 -0.8672 -0.3503
 6784TIP3   OH241910   6.566   1.457   1.454 -0.1475  0.0139 -0.1942
 6784TIP3    H141911   6.618   1.536   1.446  0.7919 -0.0993  3.2339
 6784TIP3    H241912   6.481   1.487   1.485 -0.4583 -0.1939 -0.8231
 6785TIP3   OH241913   5.123   0.576   1.484 -0.0976  0.3701  0.5675
 6785TIP3    H141914   5.079   0.527   1.414  0.4747  2.0324 -1.0222
 6785TIP3    H241915   5.107   0.668   1.463  2.6935  1.0137  0.8416
 6786TIP3   OH241916   3.372   2.708   0.935 -0.3505  0.0051 -0.4257
 6786TIP3    H141917   3.447   2.767   0.927 -0.9667  0.9198  0.2923
 6786TIP3    H241918   3.409   2.620   0.924  1.2516  0.2520  2.1751
 6787TIP3   OH241919   2.577   4.775   0.451 -0.1283  0.3574 -0.6064
 6787TIP3    H141920   2.610   4.748   0.537 -0.1930  1.7782 -0.1207
 6787TIP3    H241921   2.654   4.773   0.394 -0.1358 -0.8514 -0.5981
 6788TIP3   OH241922   2.872   0.681   1.425  0.3785 -0.7455  0.4956
 6788TIP3    H141923   2.910   0.699   1.339  0.2558  0.5124  0.6894
 6788TIP3    H241924   2.947   0.660   1.480  0.5008 -1.0973  0.2054
 6789TIP3   OH241925   4.798   3.334   7.758 -0.2774  0.4273 -0.6603
 6789TIP3    H141926   4.817   3.427   7.751  0.0788  0.5102  0.8939
 6789TIP3    H241927   4.703   3.328   7.763 -0.2364  0.9980  1.9520
 6790TIP3   OH241928   1.272   4.648   2.131 -0.1350  0.0880  0.1678
 6790TIP3    H141929   1.194   4.592   2.135 -1.9248  2.4568  0.7921
 6790TIP3    H241930   1.345   4.589   2.151 -1.3334 -2.8464 -2.9560
 6791TIP3   OH241931   0.749   0.015   1.781 -0.2538  0.6765 -0.3821
 6791TIP3    H141932   0.674   0.071   1.761  0.5409  1.4808 -1.1526
 6791TIP3    H241933   0.823   0.057   1.739  0.7099  0.0696  0.6464
 6792TIP3   OH241934   1.262   2.029   2.137  0.2268 -0.1278  0.1899
 6792TIP3    H141935   1.240   1.961   2.073  0.1504  0.4790 -0.4373
 6792TIP3    H241936   1.232   2.111   2.097  0.3291  0.2827  0.9304
 6793TIP3   OH241937   1.863   0.079   8.506 -0.3806  0.3670 -0.1151
 6793TIP3    H141938   1.852   0.112   8.596  2.0779 -1.3185  0.9317
 6793TIP3    H241939   1.956   0.092   8.487 -0.1753 -2.1016 -1.1816
 6794TIP3   OH241940   6.612   1.587   1.772 -0.5903  0.2540 -0.7476
 6794TIP3    H141941   6.655   1.672   1.761  0.0448 -0.0157 -0.4086
 6794TIP3    H241942   6.519   1.608   1.780 -0.5804  0.8159 -1.8992
 6795TIP3   OH241943   1.882   5.266   0.532 -0.4245 -0.1343  0.2737
 6795TIP3    H141944   1.958   5.208   0.526 -0.1752 -0.2693  3.3251
 6795TIP3    H241945   1.853   5.259   0.623 -5.0649 -1.2359 -1.0031
 6796TIP3   OH241946   1.281   2.355   8.502 -0.1798 -0.1356  0.8764
 6796TIP3    H141947   1.219   2.428   8.496  0.0999  0.1667  1.5223
 6796TIP3    H241948   1.229   2.278   8.481 -0.2951  0.3247 -0.5933
 6797TIP3   OH241949   0.288   3.819   8.450 -0.4430  0.2323 -0.2116
 6797TIP3    H141950   0.245   3.884   8.506 -1.2632  0.1671 -0.7436
 6797TIP3    H241951   0.381   3.830   8.468 -0.5416  1.7057 -0.4273
 6798TIP3   OH241952   1.159   4.885   1.862 -0.1725 -0.8039 -0.2472
 6798TIP3    H141953   1.237   4.856   1.814  0.7273  0.1606  0.5839
 6798TIP3    H241954   1.191   4.901   1.951 -0.9508  1.1942 -0.2901
 6799TIP3   OH241955   0.546   6.263   0.290 -0.6310  0.4062  0.5655
 6799TIP3    H141956   0.504   6.293   0.370  0.8160  1.5488  0.9357
 6799TIP3    H241957   0.634   6.238   0.317  0.2713  1.9004 -0.8371
 6800TIP3   OH241958   0.495   4.246   1.678  0.2655  0.0413  0.2462
 6800TIP3    H141959   0.542   4.215   1.755  1.6913  0.5507 -0.3972
 6800TIP3    H241960   0.463   4.165   1.636  0.8273 -0.3344  0.5286
 6801TIP3   OH241961   1.354   0.180   2.506  0.4860  0.0938 -0.3532
 6801TIP3    H141962   1.347   0.198   2.599 -3.9457 -1.1170 -0.2470
 6801TIP3    H241963   1.299   0.247   2.464 -1.2355 -1.9859 -1.5926
 6802TIP3   OH241964   3.355   6.794   7.513  0.1118 -0.1269 -0.1928
 6802TIP3    H141965   3.392   6.851   7.580 -1.1302  0.7815 -0.2490
 6802TIP3    H241966   3.407   6.714   7.518  0.8186  0.3865  1.0190
 6803TIP3   OH241967   1.639   0.082   8.313 -0.2700 -0.4684 -0.1329
 6803TIP3    H141968   1.611  -0.009   8.308 -2.7388  0.1613  0.5454
 6803TIP3    H241969   1.690   0.087   8.394 -2.7853 -0.7175  1.5812
 6804TIP3   OH241970   5.243   4.302   8.104 -0.2487 -0.3872  0.0541
 6804TIP3    H141971   5.242   4.241   8.030  0.5202  0.7296 -0.9111
 6804TIP3    H241972   5.329   4.343   8.100 -0.3863  0.0524  1.2816
 6805TIP3   OH241973   3.933   1.757   8.595  0.0126  0.2782  0.4356
 6805TIP3    H141974   4.020   1.719   8.612  0.3432  0.1779 -1.3070
 6805TIP3    H241975   3.894   1.700   8.529  0.3063  2.5625 -1.8820
 6806TIP3   OH241976   6.665   3.443   0.224 -0.1879 -0.1009 -0.1126
 6806TIP3    H141977   6.708   3.499   0.160 -0.8858  0.4139 -0.1447
 6806TIP3    H241978   6.572   3.446   0.200 -0.5276  0.4664  1.1670
 6807TIP3   OH241979   1.121   4.198   8.756 -0.2752  0.0190 -0.7102
 6807TIP3    H141980   1.085   4.284   8.736 -0.0457  0.5061  0.8424
 6807TIP3    H241981   1.102   4.184   8.849  0.5979 -1.1512 -0.6733
 6808TIP3   OH241982   1.214   3.595   1.749 -0.1033 -0.1477 -0.6095
 6808TIP3    H141983   1.300   3.615   1.786  0.8087 -3.2256 -0.8168
 6808TIP3    H241984   1.165   3.677   1.758  2.0814  1.0604  1.5969
 6809TIP3   OH241985   1.833   0.229   1.277  0.3126  0.1841 -0.6371
 6809TIP3    H141986   1.782   0.280   1.214 -0.5010 -1.0103 -0.9858
 6809TIP3    H241987   1.902   0.288   1.306  1.1837  0.5447 -3.2242
 6810TIP3   OH241988   2.670   1.024   2.813 -0.0390 -0.0500 -0.6864
 6810TIP3    H141989   2.666   1.011   2.718  2.3637  0.3233 -0.8920
 6810TIP3    H241990   2.689   0.937   2.848  2.4722  0.3414 -0.9006
 6811TIP3   OH241991   1.511   1.770   1.860 -0.4007 -0.3651  0.1667
 6811TIP3    H141992   1.479   1.720   1.935  2.1589 -2.3792  0.0361
 6811TIP3    H241993   1.605   1.776   1.873  0.0254 -0.0865 -2.4955
 6812TIP3   OH241994   5.663   3.293   2.009  0.0658 -0.1643 -0.4126
 6812TIP3    H141995   5.649   3.231   2.080  0.2842  0.2550  0.0026
 6812TIP3    H241996   5.691   3.239   1.935  1.5041 -0.4421  0.3052
 6813TIP3   OH241997   5.256   0.189   2.387  0.1906  0.1725 -0.1003
 6813TIP3    H141998   5.302   0.114   2.348 -0.5380 -0.6201  0.5158
 6813TIP3    H241999   5.321   0.231   2.443  0.9222  0.6564 -1.2736
 6814TIP3   OH242000   4.776   2.709   1.546 -0.0249 -0.5436  0.1654
 6814TIP3    H142001   4.804   2.737   1.633  1.7046 -1.5564 -0.0101
 6814TIP3    H242002   4.833   2.634   1.526 -2.5666 -2.4306 -0.4923
 6815TIP3   OH242003   6.366   1.156   2.894  0.1948 -1.0422 -0.3671
 6815TIP3    H142004   6.382   1.082   2.953  1.9518 -0.9416 -0.6671
 6815TIP3    H242005   6.407   1.130   2.812  1.7592  0.6257 -0.1807
 6816TIP3   OH242006   5.991   2.294   0.824 -0.1053 -0.5642 -0.4102
 6816TIP3    H142007   5.909   2.274   0.781 -1.0203  1.9962 -0.0292
 6816TIP3    H242008   5.967   2.313   0.915  1.1680 -1.4158  0.1514
 6817TIP3   OH242009   5.901   5.363   1.281 -0.0901 -0.1109 -0.0993
 6817TIP3    H142010   5.828   5.417   1.252 -0.3286  0.3662  1.2902
 6817TIP3    H242011   5.877   5.336   1.370  1.5499  0.3318  0.5307
 6818TIP3   OH242012   1.000   5.813   1.134  0.4128  0.2036 -0.8649
 6818TIP3    H142013   0.949   5.891   1.159  0.1533 -0.3895  0.5831
 6818TIP3    H242014   1.059   5.799   1.208  2.1472  0.3732 -2.1463
 6819TIP3   OH242015   2.031   6.587   3.014  0.6897  0.2150 -0.5849
 6819TIP3    H142016   1.977   6.509   3.027  1.3961  0.0236  1.6304
 6819TIP3    H242017   2.096   6.583   3.084  2.6581  1.2241 -2.2361
 6820TIP3   OH242018   1.641   5.496   2.774  0.1648 -0.5408 -0.6675
 6820TIP3    H142019   1.699   5.421   2.769 -1.8141 -2.0540 -2.6369
 6820TIP3    H242020   1.560   5.462   2.812 -0.2371  1.0047 -0.0381
 6821TIP3   OH242021   0.539   0.892   1.041  0.2922 -0.0383  0.1962
 6821TIP3    H142022   0.626   0.879   1.081  0.6899  1.2683 -0.2105
 6821TIP3    H242023   0.482   0.915   1.114  0.5357  0.2106  0.3082
 6822TIP3   OH242024   5.934   4.458   0.416  0.5154 -0.3503 -0.5537
 6822TIP3    H142025   5.865   4.392   0.407  1.5867 -1.6999  0.6671
 6822TIP3    H242026   6.014   4.407   0.431  1.3259  1.2379  0.7896
 6823TIP3   OH242027   1.225   2.970   1.279 -0.4430  0.3947 -0.1825
 6823TIP3    H142028   1.223   2.954   1.185 -1.0401  1.3072 -0.3341
 6823TIP3    H242029   1.224   2.883   1.318  0.6578 -0.0234 -1.0165
 6824TIP3   OH242030   2.230   1.074   0.014  0.0562  0.3743 -0.0528
 6824TIP3    H142031   2.303   1.032  -0.033  1.6917  0.8733  1.8732
 6824TIP3    H242032   2.244   1.167   0.001 -0.5931  0.4535 -0.1698
 6825TIP3   OH242033   2.028   3.685   7.352  0.6490 -0.3298  0.0789
 6825TIP3    H142034   2.032   3.662   7.445 -1.8191 -0.1440  0.3158
 6825TIP3    H242035   2.005   3.603   7.308 -1.9742  0.2654  0.1687
 6826TIP3   OH242036   3.098   1.132   0.486  0.2393  0.2133  1.0039
 6826TIP3    H142037   3.192   1.143   0.469  0.4544 -1.4902  0.9197
 6826TIP3    H242038   3.091   1.134   0.581  0.1420  1.7664  0.9850
 6827TIP3   OH242039   0.339   4.888   3.135 -0.2738  0.1122 -0.0029
 6827TIP3    H142040   0.269   4.847   3.185  0.7402 -1.4479  0.1994
 6827TIP3    H242041   0.412   4.827   3.141  0.5775  0.9089 -1.5997
 6828TIP3   OH242042   5.269   4.284   8.384 -0.7916  0.3729 -0.3022
 6828TIP3    H142043   5.231   4.202   8.414  0.0361  0.1042  0.0296
 6828TIP3    H242044   5.234   4.296   8.296 -0.4482 -0.6296 -0.5786
 6829TIP3   OH242045   3.911   4.858   1.582 -0.0720  0.0874 -0.1620
 6829TIP3    H142046   3.943   4.806   1.655  0.8603 -1.0355 -1.3232
 6829TIP3    H242047   3.837   4.907   1.617 -1.4559 -2.5248  0.8146
 6830TIP3   OH242048   2.374   2.480   0.991 -0.2588  0.0936  0.3333
 6830TIP3    H142049   2.358   2.561   1.039  0.9536 -0.0152  0.9708
 6830TIP3    H242050   2.287   2.446   0.971 -0.7957  1.7897 -0.3667
 6831TIP3   OH242051   4.511   5.689   2.304 -0.1767 -0.2812 -0.5396
 6831TIP3    H142052   4.521   5.614   2.364 -1.8508 -0.1765 -0.0636
 6831TIP3    H242053   4.431   5.732   2.334  0.2765  1.1937 -1.3706
 6832TIP3   OH242054   6.607   2.540   2.862 -0.1312  0.1051  0.6768
 6832TIP3    H142055   6.636   2.625   2.897  2.1969  0.1607 -1.1126
 6832TIP3    H242056   6.543   2.508   2.926 -2.2014  3.7952  0.7006
 6833TIP3   OH242057   1.276   4.876   0.733 -0.5145 -0.6842 -0.0483
 6833TIP3    H142058   1.208   4.911   0.676  0.3796  0.5105 -0.4158
 6833TIP3    H242059   1.349   4.854   0.674 -0.1811 -0.9617  0.4528
 6834TIP3   OH242060   4.458   2.119   8.414  0.1482  0.3985  0.1519
 6834TIP3    H142061   4.548   2.099   8.439  1.0939  3.1390 -0.7303
 6834TIP3    H242062   4.465   2.195   8.356 -2.6970  0.2730 -0.4997
 6835TIP3   OH242063   4.174   3.920   0.901 -0.3558  0.6352 -0.1837
 6835TIP3    H142064   4.208   3.837   0.867 -2.0245 -0.3514  0.3900
 6835TIP3    H242065   4.201   3.986   0.838 -0.3806 -0.6118 -1.5376
 6836TIP3   OH242066   5.674   1.335   8.663  0.1412  0.4041 -0.1035
 6836TIP3    H142067   5.696   1.426   8.641  0.4739  0.1559 -0.8322
 6836TIP3    H242068   5.605   1.342   8.729  0.3017  1.1853 -0.0120
 6837TIP3   OH242069   3.093   3.163   0.094  0.4854 -0.2466 -0.4460
 6837TIP3    H142070   3.037   3.195   0.164  0.2215  0.2386 -0.8761
 6837TIP3    H242071   3.176   3.208   0.106 -0.0682  1.0746 -1.4007
 6838TIP3   OH242072   4.198   4.475   0.008  0.3788  0.1098 -0.0880
 6838TIP3    H142073   4.119   4.423  -0.009 -0.1480  0.0212  2.3097
 6838TIP3    H242074   4.257   4.415   0.052  1.2815  0.5527 -0.6650
 6839TIP3   OH242075   5.764   2.848   8.750 -0.1590  0.1467  0.0698
 6839TIP3    H142076   5.685   2.801   8.723  0.6619 -0.7374 -0.8645
 6839TIP3    H242077   5.805   2.877   8.669 -0.3462  2.0515  0.6027
 6840TIP3   OH242078   0.240   3.741   1.908  0.1722  0.3808  0.1641
 6840TIP3    H142079   0.332   3.767   1.914 -0.4165  2.9884 -0.9419
 6840TIP3    H242080   0.191   3.822   1.919 -1.9744 -0.7609 -0.4178
 6841TIP3   OH242081   0.477   1.371   3.092 -0.5667 -0.4887  0.0460
 6841TIP3    H142082   0.420   1.298   3.068 -0.4873 -0.4068 -0.3986
 6841TIP3    H242083   0.512   1.402   3.009  1.2307 -1.4302  0.4001
 6842TIP3   OH242084   2.942   0.324   1.024  0.8182 -0.3102  0.1370
 6842TIP3    H142085   2.959   0.316   1.118 -1.0294  0.4686  0.5771
 6842TIP3    H242086   2.874   0.391   1.017 -0.3895 -1.6203 -1.6023
 6843TIP3   OH242087   3.798   6.645   1.109  0.1735 -0.0337 -0.1033
 6843TIP3    H142088   3.741   6.717   1.135 -0.7689 -0.4801 -0.8743
 6843TIP3    H242089   3.746   6.566   1.127  1.1153 -0.5287  0.5576
 6844TIP3   OH242090   5.759   0.405   2.584  0.1088 -0.3525  0.2560
 6844TIP3    H142091   5.709   0.403   2.502  0.2847 -0.7325  0.1548
 6844TIP3    H242092   5.846   0.373   2.560 -0.0764 -1.2610  0.7418
 6845TIP3   OH242093   6.225   6.138   8.246  0.3560  0.4237  0.0497
 6845TIP3    H142094   6.247   6.223   8.284 -1.3530  1.1515 -0.4526
 6845TIP3    H242095   6.137   6.151   8.209  1.7374 -0.2891 -3.9202
 6846TIP3   OH242096   1.754   1.876   1.898  0.1661  0.0808 -0.1988
 6846TIP3    H142097   1.779   1.875   1.990  1.3815 -1.3217 -0.5138
 6846TIP3    H242098   1.804   1.948   1.860 -0.3746  0.6954  0.2112
 6847TIP3   OH242099   3.510   4.582   2.298 -0.9050 -0.4237 -0.0981
 6847TIP3    H142100   3.572   4.510   2.297 -0.7481 -0.3058  0.5083
 6847TIP3    H242101   3.556   4.655   2.256  0.0962  0.2219  1.9868
 6848TIP3   OH242102   6.123   1.753   2.708  0.5100  0.8153 -0.4583
 6848TIP3    H142103   6.110   1.698   2.631 -0.4744  0.7375 -0.2439
 6848TIP3    H242104   6.038   1.756   2.751  0.6967  2.0135 -0.1309
 6849TIP3   OH242105   6.626   0.297   8.130  0.1306 -0.0298  0.4021
 6849TIP3    H142106   6.550   0.324   8.078 -0.3278 -2.7165 -0.4873
 6849TIP3    H242107   6.689   0.264   8.065  0.8903 -0.4357  1.3221
 6850TIP3   OH242108   0.582   2.327   0.845 -0.5118  0.4652  0.2314
 6850TIP3    H142109   0.502   2.356   0.889  0.0339 -0.4525  1.9471
 6850TIP3    H242110   0.553   2.294   0.761 -1.8257  0.8705  0.5008
 6851TIP3   OH242111   5.914   3.851   1.848 -0.2248 -0.4203  0.0926
 6851TIP3    H142112   5.982   3.836   1.782  1.5319  0.0534  1.7362
 6851TIP3    H242113   5.857   3.774   1.840 -0.9301  0.2524 -2.8802
 6852TIP3   OH242114   6.135   3.671   2.275  0.1220  0.3266  0.4004
 6852TIP3    H142115   6.042   3.653   2.262  0.3751 -0.3090 -0.6494
 6852TIP3    H242116   6.138   3.764   2.295 -0.6657  0.5525 -0.4547
 6853TIP3   OH242117   5.882   0.512   8.055 -0.1597 -0.3228  0.2798
 6853TIP3    H142118   5.960   0.561   8.080  1.5216 -1.9889 -1.3784
 6853TIP3    H242119   5.833   0.572   7.999  1.0830 -0.0172 -0.5037
 6854TIP3   OH242120   2.804   2.988   1.149  0.4610 -0.0195 -0.4842
 6854TIP3    H142121   2.731   3.048   1.130 -1.1070 -2.3051 -2.3036
 6854TIP3    H242122   2.854   2.985   1.067  0.6064 -1.0001 -0.3691
 6855TIP3   OH242123   0.329   0.907   8.493 -0.2959 -0.0103  0.3929
 6855TIP3    H142124   0.402   0.857   8.529 -0.7833 -0.5150  0.7022
 6855TIP3    H242125   0.276   0.843   8.447 -0.3472  0.4217 -0.1611
 6856TIP3   OH242126   6.703   4.834   1.259 -0.8680 -0.6555  0.0412
 6856TIP3    H142127   6.745   4.834   1.173  0.3498 -3.0557  0.5552
 6856TIP3    H242128   6.655   4.751   1.263 -0.3687 -0.9115  1.8896
 6857TIP3   OH242129   5.004   5.419   7.374 -0.0400  0.7781 -0.2686
 6857TIP3    H142130   4.968   5.330   7.378  1.6356  0.0854  1.8112
 6857TIP3    H242131   4.943   5.473   7.424 -0.0490  0.3439  0.2021
 6858TIP3   OH242132   3.854   0.063   7.691  0.1461 -0.2510  0.3460
 6858TIP3    H142133   3.850   0.129   7.622  0.0887  0.5391  1.0866
 6858TIP3    H242134   3.942   0.025   7.682  0.8819  1.2050  1.0344
 6859TIP3   OH242135   0.655   2.277   2.180 -1.1964 -0.3709  0.5152
 6859TIP3    H142136   0.596   2.206   2.205 -0.9888 -0.6043  0.3589
 6859TIP3    H242137   0.709   2.239   2.110 -0.7365 -0.2248  0.7876
 6860TIP3   OH242138   4.507   2.083   7.685  0.4939 -0.0970  0.2553
 6860TIP3    H142139   4.472   2.041   7.606 -0.0416 -1.1933  1.0550
 6860TIP3    H242140   4.553   2.160   7.652  0.6513 -0.7652 -1.1699
 6861TIP3   OH242141   6.546   4.167   0.645 -0.1483 -0.3230 -0.1070
 6861TIP3    H142142   6.640   4.174   0.659  0.0566 -1.8018 -0.5475
 6861TIP3    H242143   6.535   4.091   0.589 -1.5194  0.6898 -1.2979
 6862TIP3   OH242144   5.555   5.988   7.507 -0.1721  0.5320 -0.5861
 6862TIP3    H142145   5.535   5.921   7.573  1.4879 -0.6672 -1.2463
 6862TIP3    H242146   5.639   5.961   7.470  0.3075  2.7346 -1.2234
 6863TIP3   OH242147   4.685   6.639   8.478  0.3630 -0.3704  0.1748
 6863TIP3    H142148   4.763   6.585   8.470  0.5727 -0.1230  0.5215
 6863TIP3    H242149   4.713   6.716   8.528  0.2688  0.4786 -1.0408
 6864TIP3   OH242150   3.173   3.111   1.061  0.0926  0.0840 -0.3916
 6864TIP3    H142151   3.233   3.111   1.136 -1.0684  1.3619  0.5822
 6864TIP3    H242152   3.109   3.043   1.081 -0.1027  0.2910 -0.3034
 6865TIP3   OH242153   6.717   4.336   7.956 -0.3363 -0.3677 -0.1436
 6865TIP3    H142154   6.723   4.257   7.902 -2.5138 -1.1374  0.6324
 6865TIP3    H242155   6.808   4.362   7.971  0.3995 -2.0492 -1.3949
 6866TIP3   OH242156   3.035   4.262   7.679 -0.5223  0.1199  0.2770
 6866TIP3    H142157   3.099   4.203   7.720  1.2997  0.6620 -1.6372
 6866TIP3    H242158   2.975   4.203   7.632 -1.4070 -0.3815  1.9460
 6867TIP3   OH242159   0.926   2.243   7.391  0.4939 -0.0414 -0.1551
 6867TIP3    H142160   0.909   2.319   7.335 -0.4366  0.6691  1.0556
 6867TIP3    H242161   1.020   2.248   7.409  0.4470  0.8166 -0.1009
 6868TIP3   OH242162   3.956   3.429   2.216  0.2963 -0.3344  0.4043
 6868TIP3    H142163   4.026   3.493   2.234 -0.7298  0.0559  3.8811
 6868TIP3    H242164   3.897   3.474   2.156  1.3603  0.6422  0.0609
 6869TIP3   OH242165   0.522   5.514   8.155 -0.6944 -0.4384  0.0932
 6869TIP3    H142166   0.467   5.457   8.208 -1.0587 -0.9352 -0.7894
 6869TIP3    H242167   0.468   5.534   8.078 -0.2363  0.3827 -0.0246
 6870TIP3   OH242168   0.758   2.867   7.381 -0.0372  0.8062 -0.2978
 6870TIP3    H142169   0.821   2.835   7.317  0.7520  0.3421  0.6804
 6870TIP3    H242170   0.690   2.800   7.384  0.6604  0.1162  0.3847
 6871TIP3   OH242171   0.959   1.326   2.032 -0.7543 -0.9192 -0.4861
 6871TIP3    H142172   0.902   1.354   1.961 -0.3803 -0.5222 -0.6316
 6871TIP3    H242173   0.934   1.235   2.049 -1.5224 -0.7084 -0.4570
 6872TIP3   OH242174   4.590   6.355   8.486 -0.3209  0.0216  0.1153
 6872TIP3    H142175   4.649   6.292   8.528  1.5522  1.1703 -0.6557
 6872TIP3    H242176   4.517   6.364   8.546  0.5746 -1.0400  1.4099
 6873TIP3   OH242177   0.153   4.654   8.500  0.0749 -0.2453  0.1785
 6873TIP3    H142178   0.081   4.628   8.557  0.5267 -4.0503 -0.6865
 6873TIP3    H242179   0.122   4.634   8.411  0.7660  1.9315 -0.6229
 6874TIP3   OH242180   6.288   5.831   1.338  0.7969 -0.5486 -0.2293
 6874TIP3    H142181   6.297   5.772   1.263  0.2334 -2.6316  1.2777
 6874TIP3    H242182   6.288   5.774   1.414 -0.0373  1.3965  1.3119
 6875TIP3   OH242183   4.779   4.665   8.247  0.4363  0.6896 -0.2528
 6875TIP3    H142184   4.765   4.668   8.152 -0.2870  0.7714 -0.1477
 6875TIP3    H242185   4.840   4.592   8.259  0.0396  0.2636 -0.7354
 6876TIP3   OH242186   0.351   6.098   2.089 -0.1177 -0.1945  0.5073
 6876TIP3    H142187   0.441   6.065   2.097  1.0813  2.5463 -0.5562
 6876TIP3    H242188   0.310   6.039   2.025  0.7568 -1.7277  1.3008
 6877TIP3   OH242189   4.650   6.203   1.538  0.1446  0.3489 -0.1049
 6877TIP3    H142190   4.676   6.269   1.603 -0.3433  1.0947 -0.6455
 6877TIP3    H242191   4.618   6.129   1.590 -0.5408  1.0563  0.5124
 6878TIP3   OH242192   5.230   1.482   7.819  0.1472  0.1410  0.6640
 6878TIP3    H142193   5.147   1.496   7.865 -0.8147 -0.5011 -0.8313
 6878TIP3    H242194   5.221   1.531   7.737  0.3635 -1.7058 -0.5077
 6879TIP3   OH242195   1.786   1.829   7.948 -0.4223  0.2188  0.5243
 6879TIP3    H142196   1.827   1.912   7.926 -1.3965  0.6382  0.2053
 6879TIP3    H242197   1.718   1.852   8.011  0.7214 -0.6448  2.1440
 6880TIP3   OH242198   5.825   3.145   8.463 -0.0815  0.7141 -0.1885
 6880TIP3    H142199   5.754   3.081   8.472  3.2207 -3.2370  0.5690
 6880TIP3    H242200   5.834   3.181   8.551  0.3086 -0.5701  0.3252
 6881TIP3   OH242201   0.326   6.436   2.035  0.0428 -0.2222  0.4403
 6881TIP3    H142202   0.332   6.372   1.964 -1.9548  0.0198  0.0021
 6881TIP3    H242203   0.302   6.384   2.112 -1.9243 -0.0243  0.0118
 6882TIP3   OH242204   4.070   2.672   1.828  0.6330  0.0218 -0.6231
 6882TIP3    H142205   4.018   2.652   1.906 -1.2668 -1.3833 -2.1523
 6882TIP3    H242206   4.130   2.598   1.820 -0.4744 -0.8101 -1.4991
 6883TIP3   OH242207   5.486   6.712   3.143  0.0971 -0.2468 -0.1976
 6883TIP3    H142208   5.565   6.675   3.103  0.9424  0.3139  0.9045
 6883TIP3    H242209   5.452   6.642   3.198  0.6019 -0.0555  0.3733
 6884TIP3   OH242210   0.989   4.443   1.222 -0.3655  0.0361 -0.4978
 6884TIP3    H142211   0.964   4.503   1.292 -0.9215  0.5298 -1.0999
 6884TIP3    H242212   1.063   4.485   1.179 -1.8183  1.2206 -2.0175
 6885TIP3   OH242213   5.624   5.891   8.023 -0.2616  0.0135 -0.1100
 6885TIP3    H142214   5.568   5.861   8.095 -0.0549 -2.5772 -0.9192
 6885TIP3    H242215   5.680   5.958   8.062 -2.1343  0.8163  1.3669
 6886TIP3   OH242216   4.978   2.908   7.328 -0.4831 -0.3227  0.0967
 6886TIP3    H142217   4.983   2.889   7.234  0.2311 -0.6512  0.1945
 6886TIP3    H242218   5.068   2.899   7.359 -0.5498  0.7230  0.6355
 6887TIP3   OH242219   0.178   2.644   8.510 -0.1211 -0.3563  0.3923
 6887TIP3    H142220   0.144   2.567   8.464 -0.2890 -0.0450 -0.0093
 6887TIP3    H242221   0.215   2.609   8.592  1.0567 -1.0465 -0.4083
 6888TIP3   OH242222   4.727   3.701   8.210 -0.9926  0.0424 -0.4340
 6888TIP3    H142223   4.728   3.667   8.120 -1.0289  2.1169 -1.2737
 6888TIP3    H242224   4.639   3.736   8.222 -0.7713  0.4041  0.1730
 6889TIP3   OH242225   3.244   3.689   1.847  0.4383  0.0598 -0.4538
 6889TIP3    H142226   3.311   3.715   1.911  0.4964  2.9895 -1.5586
 6889TIP3    H242227   3.290   3.686   1.764 -0.4437  0.4787 -0.9712
 6890TIP3   OH242228   0.285   1.603   0.258 -0.1757  0.3780  0.2538
 6890TIP3    H142229   0.330   1.522   0.284  0.6756  0.9566  0.6213
 6890TIP3    H242230   0.197   1.594   0.296  0.5143  0.4635  1.9620
 6891TIP3   OH242231   6.070   6.169   7.041 -0.2168 -0.3122  0.5492
 6891TIP3    H142232   6.054   6.246   7.096 -0.4357  0.1137 -0.0907
 6891TIP3    H242233   6.037   6.095   7.092  0.3652 -0.0356  1.3421
 6892TIP3   OH242234   4.601   0.305   8.379  0.0291  0.7287  0.2430
 6892TIP3    H142235   4.538   0.375   8.396  0.3569  0.9050  0.7540
 6892TIP3    H242236   4.561   0.253   8.309 -0.6190  0.9144  0.4668
 6893TIP3   OH242237   5.698   6.234   0.774 -0.8816  0.0717  0.4439
 6893TIP3    H142238   5.792   6.249   0.763 -0.5371 -2.5409 -1.0057
 6893TIP3    H242239   5.685   6.232   0.869  0.7241 -0.4159  0.6792
 6894TIP3   OH242240   4.671   2.489   2.271 -0.3156  0.1472 -0.8468
 6894TIP3    H142241   4.644   2.543   2.345 -0.2570 -0.5169 -0.3291
 6894TIP3    H242242   4.711   2.550   2.210  2.2634  0.3931  0.9023
 6895TIP3   OH242243   6.272   1.184   0.299  0.0996 -0.6504  0.0467
 6895TIP3    H142244   6.269   1.089   0.312 -0.7451 -0.9426 -1.8342
 6895TIP3    H242245   6.287   1.220   0.386  0.7753 -2.5155  0.7596
 6896TIP3   OH242246   1.810   0.534   2.116 -0.3119  0.5696  0.3591
 6896TIP3    H142247   1.834   0.622   2.086  1.0417 -0.1056 -0.6404
 6896TIP3    H242248   1.892   0.496   2.147 -0.6602 -0.7281 -0.2616
 6897TIP3   OH242249   1.034   4.942   8.054 -0.3263  0.2631 -0.4964
 6897TIP3    H142250   1.038   4.853   8.089  0.4080  0.4696 -0.0309
 6897TIP3    H242251   1.000   4.995   8.126 -1.6683  0.2287 -1.0672
 6898TIP3   OH242252   0.031   6.267   7.756 -0.0362 -0.3056  0.3184
 6898TIP3    H142253   0.072   6.281   7.671 -0.7332  0.0735  0.0291
 6898TIP3    H242254   0.028   6.172   7.766  0.1327 -0.3514 -0.0374
 6899TIP3   OH242255   5.962   4.518   7.652 -0.0890  0.7020  0.5157
 6899TIP3    H142256   5.914   4.542   7.573  0.1020 -0.4420  0.0439
 6899TIP3    H242257   5.900   4.467   7.703  0.2133  0.2986  0.4858
 6900TIP3   OH242258   4.798   4.948   1.374 -0.1818  0.0281 -0.4891
 6900TIP3    H142259   4.865   5.008   1.342  0.0767  0.0465  0.0801
 6900TIP3    H242260   4.722   4.964   1.318  0.6706 -0.8661 -1.9568
 6901TIP3   OH242261   2.573   5.672   2.201  0.5466  0.5228  0.2214
 6901TIP3    H142262   2.536   5.673   2.113  2.2170  0.8259 -0.5190
 6901TIP3    H242263   2.667   5.656   2.188  0.6899 -0.3932  2.0111
 6902TIP3   OH242264   1.528   6.451   1.900  0.2683 -0.5187 -0.1034
 6902TIP3    H142265   1.514   6.542   1.924 -2.8503 -0.2325 -2.3650
 6902TIP3    H242266   1.457   6.403   1.942  2.2111 -2.1171  1.5744
 6903TIP3   OH242267   3.747   5.667   0.372  0.2962  0.1427  0.1271
 6903TIP3    H142268   3.704   5.644   0.290 -0.6958  0.3152  0.5844
 6903TIP3    H242269   3.828   5.710   0.345  0.7125 -1.1233 -0.7515
 6904TIP3   OH242270   0.105   5.759   1.518  0.7744 -0.6037 -0.2854
 6904TIP3    H142271   0.093   5.716   1.603  0.5428  0.6955  0.3631
 6904TIP3    H242272   0.199   5.775   1.513  1.5881 -4.6093 -2.3064
 6905TIP3   OH242273   0.481   4.522   1.782  0.4568  0.3941  0.4516
 6905TIP3    H142274   0.573   4.548   1.779  0.7720 -0.5937  1.0794
 6905TIP3    H242275   0.479   4.433   1.747  0.1500 -0.5780  2.7229
 6906TIP3   OH242276   5.856   3.095   0.633 -0.0687 -0.2224  0.3751
 6906TIP3    H142277   5.831   3.012   0.593  1.1464 -0.4697  0.1214
 6906TIP3    H242278   5.783   3.115   0.692 -1.1304 -0.6400 -0.7584
 6907TIP3   OH242279   4.647   0.902   1.848 -0.1331 -0.6569 -0.0860
 6907TIP3    H142280   4.626   0.821   1.895 -1.7961 -0.2806 -0.1275
 6907TIP3    H242281   4.585   0.904   1.775  0.3797  0.3014 -0.5071
 6908TIP3   OH242282   4.719   1.233   8.162 -0.2585  0.1964  0.1698
 6908TIP3    H142283   4.710   1.328   8.149 -0.0762  0.1386 -0.4015
 6908TIP3    H242284   4.766   1.203   8.084 -0.7489 -0.4355  0.1181
 6909TIP3   OH242285   1.377   4.934   7.650  0.2856 -0.3605  0.6955
 6909TIP3    H142286   1.305   4.881   7.615 -0.6426  1.3117 -0.0215
 6909TIP3    H242287   1.449   4.871   7.661  0.1901 -1.3382 -2.8099
 6910TIP3   OH242288   4.987   6.246   1.587 -0.1427  0.4851 -0.5985
 6910TIP3    H142289   4.963   6.244   1.680 -0.7580 -0.5542 -0.7586
 6910TIP3    H242290   4.906   6.270   1.542 -0.2741 -0.5765 -0.9653
 6911TIP3   OH242291   3.766   4.292   0.131 -0.2486  0.1485 -0.1917
 6911TIP3    H142292   3.722   4.208   0.126  0.0937 -0.0716  0.3490
 6911TIP3    H242293   3.745   4.325   0.219 -1.1238  1.0447 -0.7225
 6912TIP3   OH242294   6.487   1.098   2.555 -0.3938  0.4965  0.5429
 6912TIP3    H142295   6.412   1.079   2.499 -0.3458 -1.1656  0.9769
 6912TIP3    H242296   6.560   1.110   2.494 -0.4719 -0.6635  0.1877
 6913TIP3   OH242297   5.680   4.041   0.767 -0.3279 -0.3793  0.4784
 6913TIP3    H142298   5.589   4.052   0.741  0.0475  2.5914  0.0931
 6913TIP3    H242299   5.731   4.062   0.689  0.7059 -0.3931  1.1279
 6914TIP3   OH242300   3.600   3.729   1.278  0.2474 -0.3386  0.0772
 6914TIP3    H142301   3.605   3.824   1.268  0.3075 -0.4157 -0.6438
 6914TIP3    H242302   3.654   3.711   1.355  0.9000  0.1325 -0.2546
 6915TIP3   OH242303   4.292   2.624   1.125  0.2825 -0.0475  0.2644
 6915TIP3    H142304   4.290   2.658   1.036  1.1948  0.9905  0.6148
 6915TIP3    H242305   4.307   2.530   1.115 -0.1290 -0.0212 -0.6800
 6916TIP3   OH242306   1.286   0.621   7.325 -0.2904 -0.6414 -0.0245
 6916TIP3    H142307   1.245   0.700   7.358 -1.9186 -0.7166 -1.7429
 6916TIP3    H242308   1.248   0.607   7.238  0.6524 -2.7831 -0.1784
 6917TIP3   OH242309   5.148   3.530   8.555  0.3347  0.4043 -0.4506
 6917TIP3    H142310   5.189   3.604   8.511 -0.8162  2.4547  1.6956
 6917TIP3    H242311   5.060   3.525   8.517  0.5441 -0.1331 -0.8716
 6918TIP3   OH242312   2.425   5.005   2.585 -0.1184  0.9476 -0.5245
 6918TIP3    H142313   2.461   4.936   2.640  0.5545  0.9873 -0.9140
 6918TIP3    H242314   2.373   5.059   2.645 -1.0568 -0.1592 -0.3060
 6919TIP3   OH242315   4.936   2.380   0.775  0.1837  0.3492 -0.0982
 6919TIP3    H142316   5.003   2.415   0.834 -0.0339  2.0581 -0.7881
 6919TIP3    H242317   4.971   2.395   0.688 -0.2463 -0.5557 -0.4318
 6920TIP3   OH242318   2.432   4.287   2.499  0.5675 -0.1563  0.0251
 6920TIP3    H142319   2.469   4.344   2.431  0.8473  2.1034  1.9329
 6920TIP3    H242320   2.386   4.347   2.557 -2.8412 -2.4037 -0.0817
 6921TIP3   OH242321   2.822   3.457   1.043 -0.2236  0.4654  0.0140
 6921TIP3    H142322   2.761   3.383   1.043  0.1522  0.1483 -0.9360
 6921TIP3    H242323   2.905   3.420   1.012  0.0830  1.2011 -0.0615
 6922TIP3   OH242324   5.500   6.592   8.240  0.1959 -0.2986  0.8549
 6922TIP3    H142325   5.433   6.626   8.181  0.8253 -0.0666  0.2630
 6922TIP3    H242326   5.467   6.506   8.267 -2.5871  1.5468  4.2269
 6923TIP3   OH242327   2.055   2.510   2.931 -0.0581  1.1247 -0.0457
 6923TIP3    H142328   1.961   2.497   2.913  0.1213 -2.1713  0.7761
 6923TIP3    H242329   2.088   2.552   2.851 -1.5217 -1.7134 -2.3831
 6924TIP3   OH242330   3.720   3.492   0.623  0.2240  0.3332 -0.6439
 6924TIP3    H142331   3.654   3.423   0.630  1.3989 -0.8840 -1.0856
 6924TIP3    H242332   3.712   3.542   0.705 -0.3062 -0.6498 -0.0829
 6925TIP3   OH242333   2.764   0.837   0.407  0.3036 -0.0754 -0.1460
 6925TIP3    H142334   2.682   0.854   0.361  0.6845 -2.4071 -1.9029
 6925TIP3    H242335   2.832   0.872   0.349  0.6235  0.9977  0.8506
 6926TIP3   OH242336   2.523   1.033   1.717  0.1688  0.0359 -0.0867
 6926TIP3    H142337   2.606   1.079   1.732 -0.0562  0.1232  1.0043
 6926TIP3    H242338   2.549   0.949   1.679  0.5311  1.3555 -2.9727
 6927TIP3   OH242339   6.361   3.480   0.554  0.7043 -0.1476  0.7617
 6927TIP3    H142340   6.307   3.517   0.485  1.5232  0.7439  0.5792
 6927TIP3    H242341   6.343   3.386   0.550 -0.3687  0.0538  0.3249
 6928TIP3   OH242342   1.334   0.650   0.297 -0.2497 -0.2288  0.6742
 6928TIP3    H142343   1.415   0.643   0.347 -0.6679 -0.5348  1.3190
 6928TIP3    H242344   1.298   0.562   0.297  0.6048 -0.6568 -1.6748
 6929TIP3   OH242345   6.527   4.080   6.865 -0.0877 -0.2700 -0.4435
 6929TIP3    H142346   6.450   4.043   6.824 -1.2986  0.0483  1.4399
 6929TIP3    H242347   6.570   4.006   6.908  0.9387 -0.5242 -1.8317
 6930TIP3   OH242348   1.517   3.496   6.724 -0.0507  0.6039 -0.3119
 6930TIP3    H142349   1.603   3.482   6.687 -0.3058  1.1549 -1.1304
 6930TIP3    H242350   1.525   3.576   6.776 -0.3369  1.2794 -1.2888
 6931TIP3   OH242351   3.974   3.541   0.408 -0.1835  0.1287  0.3544
 6931TIP3    H142352   3.886   3.512   0.432 -0.3158  1.2855  1.3218
 6931TIP3    H242353   3.962   3.626   0.366  0.4436  0.1152  0.1299
 6932TIP3   OH242354   3.532   5.331   8.406  0.4630  0.1534  0.1793
 6932TIP3    H142355   3.466   5.276   8.365 -0.7405  0.5543  1.5153
 6932TIP3    H242356   3.558   5.394   8.338  0.7546 -1.0693 -0.8806
 6933TIP3   OH242357   3.505   5.893   0.891 -0.1536 -0.0097 -0.3032
 6933TIP3    H142358   3.579   5.952   0.879  0.0453 -0.0253  0.7948
 6933TIP3    H242359   3.514   5.829   0.820  0.6282  0.2560 -0.4561
 6934TIP3   OH242360   4.024   2.219   2.953 -0.2699 -0.0733  0.3997
 6934TIP3    H142361   4.071   2.137   2.960  0.4510  0.4328  1.5943
 6934TIP3    H242362   4.054   2.272   3.027 -0.1181  1.5712 -0.7650
 6935TIP3   OH242363   2.201   4.912   8.158  0.1558  0.0355  0.1510
 6935TIP3    H142364   2.286   4.952   8.171  0.7794 -1.2131  0.1135
 6935TIP3    H242365   2.189   4.856   8.235 -0.0669 -0.7193 -0.4150
 6936TIP3   OH242366   3.422   0.631   2.364 -0.0849  0.1162 -0.3914
 6936TIP3    H142367   3.337   0.672   2.343  1.4283  3.0533 -1.3486
 6936TIP3    H242368   3.441   0.658   2.453  0.4318  0.5907 -0.6413
 6937TIP3   OH242369   1.323   2.604   0.606  0.4791 -0.4804  0.6859
 6937TIP3    H142370   1.388   2.555   0.657 -0.3373 -1.3034  0.9561
 6937TIP3    H242371   1.327   2.564   0.519 -0.0992 -0.9464  0.8718
 6938TIP3   OH242372   5.952   3.319   8.099 -0.3736  0.1033 -0.1627
 6938TIP3    H142373   5.978   3.400   8.056 -2.1714  0.2706 -1.0133
 6938TIP3    H242374   5.908   3.268   8.031  0.2628 -1.3783  0.4917
 6939TIP3   OH242375   0.785   2.561   0.606  0.3729 -0.2971 -1.0394
 6939TIP3    H142376   0.876   2.583   0.585  0.0227 -0.5620 -3.0078
 6939TIP3    H242377   0.773   2.591   0.696  3.0123 -2.1463  0.0592
 6940TIP3   OH242378   6.593   1.386   7.810  0.0341  0.1864  0.3676
 6940TIP3    H142379   6.656   1.396   7.882  0.6773 -0.5815 -0.0702
 6940TIP3    H242380   6.635   1.429   7.735  0.5669 -1.2755 -0.2142
 6941TIP3   OH242381   2.058   4.694   7.616 -0.3054  0.2973 -0.1107
 6941TIP3    H142382   2.058   4.776   7.666  1.2065 -0.0457  0.5195
 6941TIP3    H242383   2.110   4.633   7.670 -2.3586 -1.4596  0.0283
 6942TIP3   OH242384   2.091   6.078   1.531  0.3780 -0.0110 -0.2719
 6942TIP3    H142385   2.068   6.169   1.514 -1.6056 -0.8062 -2.5702
 6942TIP3    H242386   2.123   6.045   1.446 -0.2515 -1.7671  0.1204
 6943TIP3   OH242387   5.552   1.724   1.694  0.1016 -0.2098  0.0106
 6943TIP3    H142388   5.529   1.794   1.632  0.7126 -0.2330 -0.2546
 6943TIP3    H242389   5.470   1.678   1.710 -0.0117 -0.4035 -1.0339
 6944TIP3   OH242390   0.052   1.899   1.926  0.2459 -0.0785 -0.2608
 6944TIP3    H142391  -0.023   1.935   1.972  0.5587  0.9509 -0.5423
 6944TIP3    H242392   0.044   1.804   1.939 -0.1544  0.1232  1.1567
 6945TIP3   OH242393   0.936   6.651   2.129  0.1398 -0.3114 -0.1262
 6945TIP3    H142394   0.944   6.561   2.160 -0.6036  0.1082  1.3605
 6945TIP3    H242395   0.880   6.645   2.052 -1.4954 -0.9306  1.0595
 6946TIP3   OH242396   2.923   0.369   3.351  0.2611 -0.7689 -0.1893
 6946TIP3    H142397   2.873   0.424   3.411 -0.0988 -0.0931 -1.0948
 6946TIP3    H242398   3.006   0.415   3.339  0.7221 -1.3922  0.5373
 6947TIP3   OH242399   2.431   2.703   2.635  0.0543 -0.5552  0.2818
 6947TIP3    H142400   2.515   2.746   2.650 -0.6710  0.2873  2.2809
 6947TIP3    H242401   2.380   2.768   2.586  0.1346 -0.5500  0.2043
 6948TIP3   OH242402   5.785   5.613   7.419  0.0303 -0.0748 -0.9173
 6948TIP3    H142403   5.831   5.690   7.455 -0.1453 -0.2577 -0.2865
 6948TIP3    H242404   5.702   5.612   7.466 -0.0084 -0.5979 -0.9999
 6949TIP3   OH242405   4.015   5.769   0.588  0.9769 -0.0643 -0.6497
 6949TIP3    H142406   3.989   5.743   0.500  2.4177 -0.7165 -0.9106
 6949TIP3    H242407   4.009   5.689   0.639 -1.2207  0.5860  0.2383
 6950TIP3   OH242408   0.316   4.777   0.829 -0.2206  0.1838  0.6893
 6950TIP3    H142409   0.227   4.783   0.793  0.2411  1.7325 -0.2699
 6950TIP3    H242410   0.358   4.708   0.777 -0.0677  1.2914 -0.7215
 6951TIP3   OH242411   5.321   3.185   1.611 -0.3082 -0.1699  0.2985
 6951TIP3    H142412   5.302   3.277   1.629  0.1675 -0.4585  2.5179
 6951TIP3    H242413   5.322   3.143   1.697  0.0834 -2.1436 -0.6149
 6952TIP3   OH242414   1.307   5.050   7.915 -0.4757 -0.0436 -0.2193
 6952TIP3    H142415   1.321   4.988   7.987  0.1981  0.9649  0.5393
 6952TIP3    H242416   1.328   5.000   7.836  0.1385 -0.7577  0.3802
 6953TIP3   OH242417   0.760   2.184   1.536 -0.4303  0.0573  0.5037
 6953TIP3    H142418   0.744   2.259   1.479 -3.6809 -1.1448 -0.3527
 6953TIP3    H242419   0.764   2.109   1.476  1.1645 -0.6937  1.4800
 6954TIP3   OH242420   1.606   5.106   2.924 -0.7939 -0.1114 -0.5074
 6954TIP3    H142421   1.687   5.149   2.952 -0.9319 -0.5606  0.6309
 6954TIP3    H242422   1.605   5.117   2.829  1.1106 -0.9419 -0.6663
 6955TIP3   OH242423   1.497   1.926   8.013 -0.0357 -0.2907 -0.0900
 6955TIP3    H142424   1.507   1.873   7.935  1.0168  1.3931 -1.1605
 6955TIP3    H242425   1.499   2.016   7.982  0.3543  0.4371  1.8661
 6956TIP3   OH242426   5.366   4.703   0.531  0.0772 -0.4359  0.0434
 6956TIP3    H142427   5.350   4.788   0.572 -0.0132  0.3985 -1.6369
 6956TIP3    H242428   5.309   4.702   0.454  0.6467 -1.7029 -0.3974
 6957TIP3   OH242429   6.837   3.390   3.076  0.1262  0.4059  0.4939
 6957TIP3    H142430   6.861   3.381   3.168  0.3676  2.9039  0.7413
 6957TIP3    H242431   6.919   3.372   3.029 -0.6638 -4.0743  0.4243
 6958TIP3   OH242432   2.823   4.743   0.349 -0.1713 -0.1260 -0.0474
 6958TIP3    H142433   2.840   4.668   0.292 -0.8019  0.2349 -0.7325
 6958TIP3    H242434   2.821   4.818   0.289 -1.7848  0.1489  0.2958
 6959TIP3   OH242435   4.410   3.716   7.952 -0.0798 -0.2887  0.4696
 6959TIP3    H142436   4.396   3.765   7.870 -0.2240 -1.9692 -0.5710
 6959TIP3    H242437   4.505   3.705   7.958 -0.1209 -1.0434 -0.0529
 6960TIP3   OH242438   6.297   5.660   0.768  1.2620  0.0089  0.0466
 6960TIP3    H142439   6.356   5.585   0.773  1.5573  0.0833 -1.7455
 6960TIP3    H242440   6.209   5.623   0.779  1.5163 -0.3439  0.9190
 6961TIP3   OH242441   4.299   0.469   2.759 -0.6015 -0.3287 -0.0144
 6961TIP3    H142442   4.209   0.439   2.750 -0.1875 -1.2121 -1.5785
 6961TIP3    H242443   4.296   0.562   2.737 -1.3046 -0.0329  1.2191
 6962TIP3   OH242444   6.659   2.191   8.475 -0.5121  0.4314  0.0551
 6962TIP3    H142445   6.715   2.115   8.465  0.1545  1.1636 -2.6722
 6962TIP3    H242446   6.580   2.169   8.425 -0.6258  1.2076 -0.1217
 6963TIP3   OH242447   0.232   1.523   3.412 -0.5482  0.3442  0.1895
 6963TIP3    H142448   0.227   1.477   3.496 -0.0119  0.3090  0.2066
 6963TIP3    H242449   0.210   1.613   3.433 -1.1295  0.1904  0.2420
 6964TIP3   OH242450   5.505   4.287   2.464  0.3137  0.3749 -0.4110
 6964TIP3    H142451   5.418   4.250   2.447  0.0411 -0.2751  2.0563
 6964TIP3    H242452   5.493   4.340   2.543  1.9474  1.1658 -0.6650
 6965TIP3   OH242453   1.116   5.388   8.734  0.1032  0.2815  0.5120
 6965TIP3    H142454   1.050   5.458   8.728  0.8001  0.8884 -0.2866
 6965TIP3    H242455   1.195   5.433   8.763  0.3057 -0.3627  0.9763
 6966TIP3   OH242456   2.103   1.022   1.317 -0.3848  0.0294 -0.0120
 6966TIP3    H142457   2.084   1.115   1.317 -2.5045 -0.3525  0.1380
 6966TIP3    H242458   2.182   1.014   1.371  0.2270  1.7805 -0.5864
 6967TIP3   OH242459   4.416   6.068   1.380  0.2378  0.5049  0.2931
 6967TIP3    H142460   4.445   5.984   1.346  0.3385  0.0144  1.5393
 6967TIP3    H242461   4.405   6.123   1.302  0.3033 -0.6080 -0.5268
 6968TIP3   OH242462   1.571   6.830   1.239  0.2853  0.5305 -0.5398
 6968TIP3    H142463   1.615   6.866   1.316 -0.5789  2.0727 -0.7367
 6968TIP3    H242464   1.526   6.752   1.271  0.8090  0.5515  0.2787
 6969TIP3   OH242465   5.326   4.617   1.594  0.2636 -0.1457  0.2276
 6969TIP3    H142466   5.320   4.675   1.518 -1.7112 -0.6371 -0.0415
 6969TIP3    H242467   5.419   4.594   1.600  0.8991  2.0951 -0.3461
 6970TIP3   OH242468   4.382   4.474   1.149  0.3623 -0.0648 -0.2093
 6970TIP3    H142469   4.451   4.537   1.168 -0.2223  0.3022  0.7927
 6970TIP3    H242470   4.425   4.388   1.153  0.8898  0.1998 -0.2266
 6971TIP3   OH242471   1.997   5.815   0.731 -0.4733  0.4504  0.4951
 6971TIP3    H142472   1.946   5.755   0.785  0.7242  0.8515  2.1350
 6971TIP3    H242473   1.933   5.881   0.702 -1.1142  0.3050  1.5355
 6972TIP3   OH242474   1.064   3.388   8.396  0.3456  0.1690 -0.0244
 6972TIP3    H142475   1.119   3.415   8.471  0.1486 -1.3811  0.7090
 6972TIP3    H242476   1.047   3.470   8.349  2.5607  0.8360  0.2072
 6973TIP3   OH242477   5.608   1.994   7.611 -0.1216 -0.0193 -0.3714
 6973TIP3    H142478   5.651   1.977   7.527 -0.0053 -1.1045 -0.1119
 6973TIP3    H242479   5.680   1.996   7.674 -0.2039  0.8403 -0.2932
 6974TIP3   OH242480   1.538   1.151   0.855 -0.2821 -0.4118  0.1119
 6974TIP3    H142481   1.455   1.148   0.808 -0.2882 -0.6470  0.1375
 6974TIP3    H242482   1.521   1.103   0.936 -0.9272  1.8508  1.4026
 6975TIP3   OH242483   6.652   1.859   1.698 -0.4005  0.5589 -0.0678
 6975TIP3    H142484   6.622   1.945   1.669  2.4865  2.3071  1.6120
 6975TIP3    H242485   6.708   1.877   1.773  0.1384 -2.8576  0.5372
 6976TIP3   OH242486   4.194   6.716   1.888  0.6510  0.4252 -0.4577
 6976TIP3    H142487   4.122   6.663   1.921 -0.1502  1.9095  0.2722
 6976TIP3    H242488   4.246   6.656   1.834  0.1005 -1.2173  0.7691
 6977TIP3   OH242489   2.724   5.036   2.638 -0.0315 -0.1965 -0.2141
 6977TIP3    H142490   2.713   4.941   2.631  0.2545 -0.2576  0.1720
 6977TIP3    H242491   2.736   5.065   2.547  0.9270 -0.6559 -0.2398
 6978TIP3   OH242492   3.153   0.680   1.590  0.3186 -0.2351 -0.5371
 6978TIP3    H142493   3.210   0.715   1.522 -1.3980  0.0898 -1.8793
 6978TIP3    H242494   3.183   0.722   1.671  0.2922  1.9744 -1.6187
 6979TIP3   OH242495   2.787   6.283   1.926 -0.0206  0.1761 -0.1159
 6979TIP3    H142496   2.820   6.228   1.855 -0.1692  0.3564 -0.3264
 6979TIP3    H242497   2.766   6.222   1.996  2.0699  0.1685  0.5661
 6980TIP3   OH242498   0.429   6.579   1.111 -0.5687 -0.3931 -0.1227
 6980TIP3    H142499   0.428   6.574   1.206 -0.3620  4.2547  0.3684
 6980TIP3    H242500   0.338   6.600   1.088 -0.6122 -1.4514 -0.9822
 6981TIP3   OH242501   0.612   6.614   7.697  0.3804  0.7943  0.1871
 6981TIP3    H142502   0.526   6.645   7.668  0.9234  1.2286 -1.0084
 6981TIP3    H242503   0.662   6.694   7.713  0.3500  0.5489  1.5792
 6982TIP3   OH242504   3.996   0.616   1.050 -0.2629 -0.2465  0.1487
 6982TIP3    H142505   3.975   0.523   1.060  0.3135 -0.4985 -0.8885
 6982TIP3    H242506   3.926   0.650   0.995 -0.2394 -0.1560  0.1746
 6983TIP3   OH242507   0.575   4.463   0.310 -1.0425 -0.4842  0.3880
 6983TIP3    H142508   0.573   4.368   0.310 -0.1750 -0.5280  1.5750
 6983TIP3    H242509   0.622   4.486   0.229 -0.2954 -1.1091  0.6352
 6984TIP3   OH242510   5.990   4.680   7.147  0.9458  0.5364  0.1573
 6984TIP3    H142511   5.948   4.700   7.063  1.4940 -0.3774 -0.3639
 6984TIP3    H242512   6.083   4.690   7.129  0.9985  1.9806  1.1405
 6985TIP3   OH242513   1.011   4.475   0.072 -0.4881  0.1023  0.2209
 6985TIP3    H142514   0.932   4.528   0.086 -0.7201  0.3308 -1.6834
 6985TIP3    H242515   1.031   4.486  -0.021 -0.9362 -3.6902 -0.4778
 6986TIP3   OH242516   0.404   6.494   8.379 -0.3140 -0.0423 -0.7290
 6986TIP3    H142517   0.330   6.440   8.351  0.1716 -0.5315 -1.0992
 6986TIP3    H242518   0.364   6.574   8.413 -1.0511 -0.6959 -0.0270
 6987TIP3   OH242519   3.959   5.119   7.050 -0.3951 -0.2018 -0.1868
 6987TIP3    H142520   4.021   5.192   7.049 -0.2416 -0.2966  0.9515
 6987TIP3    H242521   3.905   5.132   6.972  0.1568  0.6657 -0.4389
 6988TIP3   OH242522   5.182   2.797   8.613  0.0704  0.0131  0.1575
 6988TIP3    H142523   5.183   2.887   8.645 -0.3362 -0.2625  0.9638
 6988TIP3    H242524   5.264   2.789   8.565  0.0854  0.8311  0.0227
 6989TIP3   OH242525   3.993   5.108   1.490 -0.4913  0.1974 -0.5768
 6989TIP3    H142526   4.071   5.116   1.544 -0.0303  0.1792 -1.2365
 6989TIP3    H242527   3.970   5.015   1.495 -1.1426  0.3924  0.5269
 6990TIP3   OH242528   0.584   5.904   1.230 -0.0930  0.2114  0.4251
 6990TIP3    H142529   0.508   5.846   1.236  0.3631 -0.5046 -0.3709
 6990TIP3    H242530   0.551   5.991   1.253 -0.6527 -0.4584  2.3642
 6991TIP3   OH242531   2.722   0.785   2.679 -0.3313  0.2967  0.0413
 6991TIP3    H142532   2.771   0.794   2.761 -0.2656 -3.1867  0.4997
 6991TIP3    H242533   2.788   0.761   2.614 -0.8487 -0.3580 -0.2493
 6992TIP3   OH242534   0.220   3.053   7.937 -0.0128 -0.3088  0.2301
 6992TIP3    H142535   0.157   3.070   8.007 -0.0180  0.4974  0.0420
 6992TIP3    H242536   0.173   2.995   7.876 -0.3401 -0.2486  0.4230
 6993TIP3   OH242537   5.445   4.178   1.074 -0.8344 -0.7296  0.6134
 6993TIP3    H142538   5.524   4.215   1.035 -1.0451 -1.5471 -0.6767
 6993TIP3    H242539   5.477   4.111   1.134 -0.5086  0.4015  1.7469
 6994TIP3   OH242540   2.749   1.496   8.288  0.1305 -0.1093  0.7366
 6994TIP3    H142541   2.754   1.560   8.217 -0.1791 -1.0973 -0.2017
 6994TIP3    H242542   2.661   1.506   8.324 -1.2207 -2.2454 -1.6400
 6995TIP3   OH242543   0.730   1.871   2.610 -0.2210 -0.1831  0.1355
 6995TIP3    H142544   0.731   1.945   2.549 -0.3258  0.0154  0.3756
 6995TIP3    H242545   0.669   1.897   2.679  0.7048  0.0421  0.8895
 6996TIP3   OH242546   0.446   1.833   7.845  0.1945 -0.1469  0.3910
 6996TIP3    H142547   0.447   1.829   7.750  1.3143 -1.5761  0.4313
 6996TIP3    H242548   0.431   1.925   7.866 -0.1900  0.1556 -1.1495
 6997TIP3   OH242549   0.233   5.584   8.073  0.4919  0.4926  0.3030
 6997TIP3    H142550   0.212   5.609   8.163  1.0307  1.2462  0.2236
 6997TIP3    H242551   0.244   5.667   8.027  0.3587  0.1092 -0.4270
 6998TIP3   OH242552   5.901   1.956   2.173  0.5487 -0.5949  0.4151
 6998TIP3    H142553   5.896   1.936   2.080 -1.5059  1.1182  0.0856
 6998TIP3    H242554   5.869   1.876   2.216  0.0412 -0.8549 -0.4232
 6999TIP3   OH242555   1.574   0.779   2.428  0.3634  0.0844 -0.2723
 6999TIP3    H142556   1.533   0.697   2.456 -0.9553  0.6370 -0.5123
 6999TIP3    H242557   1.504   0.844   2.435  0.8499  0.8300 -1.9035
 7000TIP3   OH242558   2.759   6.359   1.117 -0.6419  0.4475  0.7613
 7000TIP3    H142559   2.834   6.299   1.117 -0.5042  0.5492 -1.1601
 7000TIP3    H242560   2.687   6.307   1.079 -0.7291  1.2206 -0.1793
 7001TIP3   OH242561   6.423   1.476   2.160 -0.0675  0.2222  0.1344
 7001TIP3    H142562   6.493   1.418   2.130 -0.7208  0.1085 -1.2529
 7001TIP3    H242563   6.469   1.554   2.192  0.7788 -0.6921  1.2033
 7002TIP3   OH242564   0.576   5.745   0.133 -0.4289 -0.0020 -0.4282
 7002TIP3    H142565   0.555   5.786   0.049 -1.3999  0.6617  0.1350
 7002TIP3    H242566   0.543   5.655   0.124  0.7294 -0.3851 -1.2517
 7003TIP3   OH242567   5.899   2.903   1.806  0.3547 -0.7683 -0.0584
 7003TIP3    H142568   5.851   2.849   1.742 -0.9661 -1.6330  1.5753
 7003TIP3    H242569   5.928   2.841   1.872  0.6112  0.2623  0.8152
 7004TIP3   OH242570   2.727   2.701   0.786  0.5944  0.1315  0.3102
 7004TIP3    H142571   2.655   2.758   0.813  0.8179  1.6267 -2.0078
 7004TIP3    H242572   2.687   2.615   0.775 -0.5630  0.6715  0.2161
 7005TIP3   OH242573   0.682   3.988   7.647 -0.0416 -0.0820  0.1299
 7005TIP3    H142574   0.747   3.922   7.673 -0.8460 -1.4548 -1.1216
 7005TIP3    H242575   0.733   4.067   7.632  1.1328 -0.7127  0.6374
 7006TIP3   OH242576   6.759   0.172   8.391 -0.8991 -0.2539  0.4002
 7006TIP3    H142577   6.834   0.176   8.332 -0.7079 -1.4012  0.5481
 7006TIP3    H242578   6.701   0.243   8.361  0.9043  1.6581  1.2440
 7007TIP3   OH242579   1.782   0.092   7.843 -0.0813  0.0956  0.5361
 7007TIP3    H142580   1.821   0.122   7.925  1.3785  1.7407 -0.6890
 7007TIP3    H242581   1.702   0.145   7.834 -0.3204 -0.1898  0.9467
 7008TIP3   OH242582   4.642   2.088   7.334  0.1326  0.5223 -0.1756
 7008TIP3    H142583   4.698   2.034   7.391 -0.3848  2.2420  2.1155
 7008TIP3    H242584   4.554   2.053   7.348  0.1557  0.0883 -1.0330
 7009TIP3   OH242585   4.051   6.529   7.529 -0.4169 -0.0945 -0.0295
 7009TIP3    H142586   3.982   6.499   7.588 -0.9935 -2.9624 -1.9781
 7009TIP3    H242587   4.066   6.455   7.470  1.9285  1.6925 -1.8528
 7010TIP3   OH242588   3.098   2.656   0.091 -0.1588  0.4714  0.0311
 7010TIP3    H142589   3.010   2.653   0.130 -0.5684 -0.0291 -0.9067
 7010TIP3    H242590   3.141   2.728   0.136 -0.4021 -0.4657  1.8668
 7011TIP3   OH242591   0.907   2.027   0.311  0.0116  0.1609 -0.0024
 7011TIP3    H142592   0.838   2.094   0.313 -1.7204 -1.4102 -2.1122
 7011TIP3    H242593   0.986   2.075   0.285 -0.7945  1.6302  0.1411
 7012TIP3   OH242594   4.139   0.320   7.627  0.0404  0.0916 -0.0253
 7012TIP3    H142595   4.182   0.338   7.543  1.5312  1.6019  1.0064
 7012TIP3    H242596   4.054   0.362   7.621  0.9786  2.0848 -0.0348
 7013TIP3   OH242597   3.052   3.584   8.565  0.5383 -0.1311  0.1446
 7013TIP3    H142598   3.036   3.501   8.521  1.5794 -1.1936  1.6317
 7013TIP3    H242599   3.146   3.584   8.582  0.2529  0.3627  1.9975
 7014TIP3   OH242600   2.446   2.038   7.924 -0.1977  0.4241 -0.3600
 7014TIP3    H142601   2.444   1.973   7.854 -0.6083  2.5747 -2.4921
 7014TIP3    H242602   2.357   2.040   7.958 -0.7568  1.2812 -1.7600
 7015TIP3   OH242603   5.551   3.947   1.196 -0.0034 -0.3668 -0.4702
 7015TIP3    H142604   5.583   3.921   1.283  0.0087  0.5103 -0.2044
 7015TIP3    H242605   5.628   3.981   1.151 -0.0167 -0.7933 -0.8168
 7016TIP3   OH242606   0.513   0.231   2.338 -0.2647 -0.3202  0.0499
 7016TIP3    H142607   0.423   0.241   2.307 -0.6008 -1.6477  0.5294
 7016TIP3    H242608   0.508   0.165   2.408  0.7760  1.0577  1.5147
 7017TIP3   OH242609   0.017   1.186   2.182 -0.9021  0.1957  0.0636
 7017TIP3    H142610  -0.070   1.147   2.178 -1.1208  0.7544 -1.1583
 7017TIP3    H242611   0.058   1.160   2.099  0.2573 -0.3935  0.7922
 7018TIP3   OH242612   5.775   3.461   8.489 -0.2159 -0.8926  0.0858
 7018TIP3    H142613   5.864   3.431   8.472  0.4371  1.7387 -1.7500
 7018TIP3    H242614   5.778   3.497   8.578  0.4674 -1.0683  0.1381
 7019TIP3   OH242615   4.621   5.468   2.891  0.7797 -0.3286  0.1108
 7019TIP3    H142616   4.624   5.385   2.937  0.5945 -0.5690 -0.3057
 7019TIP3    H242617   4.562   5.453   2.817 -1.3132  0.8856  1.4272
 7020TIP3   OH242618   3.516   4.265   2.160 -0.1621 -0.3068  0.0944
 7020TIP3    H142619   3.558   4.257   2.075 -0.1481 -0.7062  0.1332
 7020TIP3    H242620   3.464   4.184   2.168 -1.3132  0.3767 -0.1574
 7021TIP3   OH242621   2.792   4.332   1.421  0.4368  0.3983 -0.1782
 7021TIP3    H142622   2.845   4.278   1.480  1.2372 -0.4179 -1.5988
 7021TIP3    H242623   2.808   4.422   1.450  1.1090  0.0403  0.6019
 7022TIP3   OH242624   1.287   3.010   8.142  0.2052  0.2394 -0.0945
 7022TIP3    H142625   1.237   3.092   8.142 -2.0415 -1.0498  0.4629
 7022TIP3    H242626   1.333   3.010   8.059 -0.3265  1.7421 -0.4202
 7023TIP3   OH242627   5.574   4.791   0.233  0.1260  0.6569  0.0247
 7023TIP3    H142628   5.649   4.753   0.279  0.0651 -1.3566 -1.3618
 7023TIP3    H242629   5.522   4.715   0.206 -1.8803  1.9502  0.0266
 7024TIP3   OH242630   4.112   0.039   1.295 -0.3130  0.2174 -0.7142
 7024TIP3    H142631   4.193   0.076   1.330  0.7289  0.3370 -3.0652
 7024TIP3    H242632   4.067   0.114   1.256 -0.1013 -0.3038 -2.0076
 7025TIP3   OH242633   4.385   6.697   0.383 -0.2599 -0.6168 -0.4412
 7025TIP3    H142634   4.340   6.645   0.450  1.3341 -0.4752  0.8108
 7025TIP3    H242635   4.348   6.784   0.391  0.3591 -0.4371  0.7582
 7026TIP3   OH242636   2.679   4.132   1.655  0.5183 -0.0169  0.2721
 7026TIP3    H142637   2.765   4.164   1.681  0.7472 -0.6331  0.3000
 7026TIP3    H242638   2.648   4.195   1.591  0.4322  0.9185  1.2001
 7027TIP3   OH242639   3.533   3.493   8.633 -0.3317  0.0231  0.0208
 7027TIP3    H142640   3.528   3.580   8.592  3.3283  1.2253  1.6865
 7027TIP3    H242641   3.442   3.468   8.647 -1.5673  3.0801 -1.5147
 7028TIP3   OH242642   6.030   2.582   8.745  0.0257  0.6269 -0.5886
 7028TIP3    H142643   6.041   2.491   8.720 -0.5249  0.3174  0.2728
 7028TIP3    H242644   6.118   2.619   8.737  0.3152 -0.0584 -0.6317
 7029TIP3   OH242645   3.845   6.429   1.778  0.3210  0.2316 -0.9532
 7029TIP3    H142646   3.905   6.454   1.848 -0.2343 -1.1046  0.0668
 7029TIP3    H242647   3.759   6.455   1.810 -0.2761 -2.6278  0.1227
 7030TIP3   OH242648   1.436   3.791   1.516 -0.2504  0.0532  0.1069
 7030TIP3    H142649   1.519   3.816   1.477 -1.4152  3.3246 -0.6335
 7030TIP3    H242650   1.425   3.698   1.494  1.4162  0.5062 -3.1819
 7031TIP3   OH242651   2.218   0.658   0.323  0.2793 -0.5953  0.2332
 7031TIP3    H142652   2.139   0.712   0.317 -0.0098 -1.1839 -1.8115
 7031TIP3    H242653   2.252   0.675   0.411 -0.8455  1.4531  0.3226
 7032TIP3   OH242654   3.371   5.271   1.291 -0.3725  0.1593  0.4977
 7032TIP3    H142655   3.328   5.200   1.245  1.9261 -0.4879 -0.8432
 7032TIP3    H242656   3.315   5.347   1.277 -1.9668 -0.9975  0.4277
 7033TIP3   OH242657   2.040   4.061   2.075  0.4002  0.6430  0.1263
 7033TIP3    H142658   2.054   4.155   2.089 -0.1903  1.1481 -2.2056
 7033TIP3    H242659   1.948   4.047   2.098  0.7859  0.3697  1.5694
 7034TIP3   OH242660   3.543   3.229   2.598 -0.7325  0.6631 -0.0912
 7034TIP3    H142661   3.521   3.277   2.518 -1.9011  1.4660  0.6825
 7034TIP3    H242662   3.459   3.210   2.639 -0.1293  2.6188  2.2669
 7035TIP3   OH242663   2.571   6.764   2.554 -0.3411 -0.2028 -0.4817
 7035TIP3    H142664   2.640   6.819   2.591  0.9805 -1.3638 -1.1104
 7035TIP3    H242665   2.535   6.816   2.482  0.8216 -0.0825 -1.0065
 7036TIP3   OH242666   4.371   5.174   2.963 -0.1149 -0.2394  0.1283
 7036TIP3    H142667   4.455   5.189   3.006  0.2628  0.8775 -0.9205
 7036TIP3    H242668   4.394   5.152   2.872 -0.9453 -0.0317 -0.1397
 7037TIP3   OH242669   3.723   0.729   2.658  0.0238 -0.1505  0.3110
 7037TIP3    H142670   3.628   0.726   2.668 -0.1606  1.1035 -0.7793
 7037TIP3    H242671   3.737   0.757   2.568  1.4595 -1.8881 -0.0642
 7038TIP3   OH242672   0.324   2.102   2.720 -0.0628 -0.0225 -0.0958
 7038TIP3    H142673   0.380   2.026   2.734 -0.3085 -0.4159 -1.1605
 7038TIP3    H242674   0.343   2.130   2.631 -0.5096  0.7194  0.0350
 7039TIP3   OH242675   3.336   0.951   0.549 -0.4019 -0.0585  0.6041
 7039TIP3    H142676   3.417   0.903   0.563 -0.9019 -0.6824  1.4280
 7039TIP3    H242677   3.283   0.893   0.494 -0.1887  0.4747 -0.1839
 7040TIP3   OH242678   1.356   0.203   7.259  0.7094 -0.2443  0.4671
 7040TIP3    H142679   1.267   0.226   7.233  1.3116  1.4495 -0.2819
 7040TIP3    H242680   1.389   0.151   7.185  1.1304  1.2688 -0.4651
 7041TIP3   OH242681   6.517   4.598   8.347  0.1482 -0.0019 -0.0613
 7041TIP3    H142682   6.538   4.628   8.259  0.2374  0.8897  0.2569
 7041TIP3    H242683   6.464   4.668   8.384 -0.8770 -0.8864  0.1949
 7042TIP3   OH242684   6.576   1.917   8.434 -0.2966  1.6732  0.0815
 7042TIP3    H142685   6.549   1.825   8.427  2.1957  0.8235  0.3257
 7042TIP3    H242686   6.538   1.959   8.357 -2.1387  0.6473  0.3840
 7043TIP3   OH242687   3.713   6.004   2.755 -0.2360  0.0595 -0.8031
 7043TIP3    H142688   3.681   5.963   2.835  1.9837  1.6917  1.0504
 7043TIP3    H242689   3.785   5.948   2.726  0.6334  0.7950 -0.1418
 7044TIP3   OH242690   3.496   0.228   1.141  0.7128 -0.7019 -0.2056
 7044TIP3    H142691   3.466   0.243   1.231  3.0525  1.1674  0.3630
 7044TIP3    H242692   3.443   0.287   1.088 -0.1522 -1.2586  0.0141
 7045TIP3   OH242693   3.527   6.633   1.168 -0.3640  0.1356  0.0073
 7045TIP3    H142694   3.511   6.600   1.256  2.0732  0.7324  0.7567
 7045TIP3    H242695   3.473   6.711   1.161 -0.1683  0.3938  1.1968
 7046TIP3   OH242696   0.765   3.095   2.075 -0.1118  0.7488  0.2829
 7046TIP3    H142697   0.789   3.166   2.016  0.1407 -0.9374 -1.7494
 7046TIP3    H242698   0.691   3.129   2.125  0.3690  2.6228 -0.2133
 7047TIP3   OH242699   0.531   1.830   8.279 -0.4284  0.4403 -0.4636
 7047TIP3    H142700   0.553   1.919   8.250 -0.6845  0.0800 -1.8559
 7047TIP3    H242701   0.562   1.826   8.369 -1.0397  2.1692 -0.1391
 7048TIP3   OH242702   6.253   6.390   8.393  0.0680  0.0731  0.0793
 7048TIP3    H142703   6.301   6.466   8.426  0.5913 -0.1649 -0.1205
 7048TIP3    H242704   6.172   6.427   8.357 -0.4468  0.3477  1.4651
 7049TIP3   OH242705   0.919   0.150   0.346  0.1021  0.5059 -0.1490
 7049TIP3    H142706   0.950   0.224   0.296  2.5982 -0.1358  0.3359
 7049TIP3    H242707   0.941   0.073   0.293  0.6924 -0.0537  0.8657
 7050TIP3   OH242708   0.899   3.781   2.049 -0.3238  0.0176  0.2456
 7050TIP3    H142709   0.901   3.686   2.063 -0.3444  0.0697  0.6283
 7050TIP3    H242710   0.966   3.815   2.109 -0.6976  0.2888  0.5136
 7051TIP3   OH242711   6.310   2.667   1.841  0.2919 -0.2457 -0.4517
 7051TIP3    H142712   6.369   2.645   1.769  1.3766  0.9114  0.0421
 7051TIP3    H242713   6.352   2.633   1.919  0.1395  0.2814 -0.1306
 7052TIP3   OH242714   4.735   6.689   3.019 -0.4643  0.4213 -0.0505
 7052TIP3    H142715   4.741   6.778   2.985 -1.3902  0.2907 -0.6257
 7052TIP3    H242716   4.659   6.691   3.077  1.1268  0.6416  2.1076
 7053TIP3   OH242717   2.850   0.640   0.885 -0.2464 -0.4572 -0.0057
 7053TIP3    H142718   2.804   0.566   0.845 -0.3073 -0.2183 -0.3750
 7053TIP3    H242719   2.782   0.707   0.896  0.0043 -0.1284 -0.4911
 7054TIP3   OH242720   5.827   0.908   1.427  0.1666 -0.0498  0.5131
 7054TIP3    H142721   5.751   0.966   1.433  0.6982  0.5220  2.9523
 7054TIP3    H242722   5.803   0.831   1.479  1.1790  0.0941  1.2260
 7055TIP3   OH242723   5.177   1.898   8.163  0.3529 -0.1977 -0.0725
 7055TIP3    H142724   5.140   1.869   8.079  1.3303 -0.1125 -0.5562
 7055TIP3    H242725   5.204   1.989   8.147  1.9085 -0.6417 -0.1597
 7056TIP3   OH242726   6.578   1.291   0.546  0.0010  0.2224 -0.4850
 7056TIP3    H142727   6.661   1.287   0.593 -0.8707 -0.4504  1.1136
 7056TIP3    H242728   6.571   1.206   0.502 -0.7871 -0.6548  1.2139
 7057TIP3   OH242729   0.009   3.008   1.587 -0.1514  0.4111  0.2532
 7057TIP3    H142730   0.068   3.083   1.598  0.9180 -0.4005  0.1917
 7057TIP3    H242731   0.051   2.937   1.636 -1.2036 -0.1339  0.4034
 7058TIP3   OH242732   2.106   2.078   8.690 -0.2769  0.2240  0.0799
 7058TIP3    H142733   2.142   2.026   8.761 -0.9391  1.8978  1.7303
 7058TIP3    H242734   2.034   2.127   8.730 -0.9105  0.9777 -1.8333
 7059TIP3   OH242735   2.560   2.759   8.123  0.4084 -1.1275  0.2075
 7059TIP3    H142736   2.624   2.797   8.062 -0.0860 -2.5603 -1.2886
 7059TIP3    H242737   2.479   2.756   8.072 -0.4853 -0.7711  1.5612
 7060TIP3   OH242738   5.761   6.691   0.309  0.4899  0.2990  0.2346
 7060TIP3    H142739   5.846   6.649   0.295  0.0189 -0.0123 -2.2594
 7060TIP3    H242740   5.705   6.621   0.341  0.9412  0.3023  1.0643
 7061TIP3   OH242741   2.271   5.940   8.197  0.1461 -0.1444 -0.2916
 7061TIP3    H142742   2.203   5.992   8.239 -1.3504 -0.8453 -1.7175
 7061TIP3    H242743   2.325   6.005   8.150 -0.3839  0.3107 -0.2808
 7062TIP3   OH242744   6.367   1.176   7.727  0.1597  1.1619 -0.4223
 7062TIP3    H142745   6.436   1.171   7.661 -0.6880  2.8276 -1.5023
 7062TIP3    H242746   6.371   1.091   7.771  1.2744  0.2730 -2.0816
 7063TIP3   OH242747   4.425   4.598   0.147  0.0380  0.0815  0.1160
 7063TIP3    H142748   4.458   4.519   0.190  0.2590 -0.0498 -0.2890
 7063TIP3    H242749   4.353   4.567   0.091 -0.3428  0.2710  0.4914
 7064LIG     O142750   1.516   3.087   2.056 -0.0988 -0.2359 -0.2328
 7064LIG     O242751   1.716   2.837   2.386  0.0803 -0.3281 -0.5821
 7064LIG     N142752   1.849   2.895   2.214 -0.1945  0.3081 -0.5548
 7064LIG     N242753   1.776   3.072   1.911 -0.2709 -0.6236  0.9278
 7064LIG     N342754   1.621   2.976   2.229  0.3242 -0.3232 -1.1192
 7064LIG     N442755   1.952   2.959   1.995 -0.4142 -0.1759  0.2199
 7064LIG     C142756   1.738   3.023   2.028  0.4559 -0.4057  0.0541
 7064LIG     C242757   1.845   2.951   2.082 -0.4070 -0.4215 -0.5099
 7064LIG     C342758   1.617   3.036   2.098  0.2724 -0.4651 -0.5507
 7064LIG     C442759   1.730   2.898   2.279  0.0352  0.0337 -0.4179
 7064LIG     C542760   1.908   3.036   1.893  0.0929 -0.4798  0.1878
 7064LIG     C642761   1.961   2.819   2.270 -0.0584 -0.6103  0.0419
 7064LIG     C742762   1.690   3.157   1.822  0.2193  0.3373 -0.6986
 7064LIG     C842763   1.498   2.981   2.309 -0.9934 -0.8593  0.5835
 7064LIG     H142764   1.959   3.067   1.801 -0.3900 -1.7775 -0.5461
 7064LIG     H242765   1.987   2.853   2.373  1.1745 -0.3592 -0.3412
 7064LIG     H342766   2.050   2.826   2.204 -1.2313  0.2843 -1.5213
 7064LIG     H442767   1.929   2.713   2.259 -0.2933 -0.3670 -1.8724
 7064LIG     H542768   1.751   3.206   1.743 -1.6778  2.0113 -1.2197
 7064LIG     H642769   1.638   3.237   1.879 -2.0760 -2.7486  1.9245
 7064LIG     H742770   1.609   3.103   1.770 -1.0838 -0.0178  1.5524
 7064LIG     H842771   1.494   2.958   2.417 -0.9870 -0.3512  0.6956
 7064LIG     H942772   1.408   2.934   2.262  0.4127 -2.0156 -1.1091
 7064LIG    H1042773   1.466   3.087   2.298 -3.0624 -1.5955 -1.4588
   6.83998   6.83998   8.76392
